Protein in INSANE! Membrane UpperLeaflet>POPC=1.0 LowerLeaflet>POPC=1.0
11530
    1AU     AUC    1   2.145   9.096   5.529  0.0144  0.0936  0.0367
    1AU     AUC    2   2.175   8.782   5.568 -0.1077 -0.0663  0.0203
    1AU     AUC    3   1.902   8.929   5.676 -0.0361  0.0467  0.0016
    1AU     AUC    4   2.371   9.265   5.383 -0.0735  0.0551 -0.0646
    1AU     AUC    5   2.050   9.400   5.502  0.1378  0.0178  0.0026
    1AU     AUC    6   2.290   9.290   5.688 -0.0680  0.0203  0.0570
    1AU     AUC    7   2.180   8.990   5.805  0.0844  0.0717 -0.0061
    1AU     AUC    8   2.086   9.190   5.231  0.0392  0.0334 -0.0372
    1AU     AUC    9   1.958   8.893   5.341 -0.0849 -0.0509 -0.0399
    1AU     AUC   10   1.839   9.152   5.466  0.0311 -0.0835  0.0094
    1AU     AUC   11   1.980   9.227   5.774  0.0795 -0.0019  0.0639
    1AU     AUC   12   2.297   8.927   5.299 -0.1033  0.0669  0.0343
    1AU     AUC   13   2.409   8.966   5.592  0.0816 -0.0428  0.0416
    1AU     AUC   14   2.232   8.420   5.621  0.0018 -0.0607  0.0101
    1AU     AUC   15   1.944   8.549   5.717 -0.0667  0.0107  0.1183
    1AU     AUC   16   1.662   8.748   5.817 -0.0301 -0.0003 -0.0087
    1AU     AUC   17   2.600   9.436   5.257 -0.0383  0.0180 -0.0039
    1AU     AUC   18   2.316   9.649   5.352  0.0006  0.0320  0.0987
    1AU     AUC   19   2.014   9.747   5.462 -0.0826 -0.0188  0.0157
    1AU     AUC   20   2.456   9.486   5.915 -0.0256  0.0515  0.0078
    1AU     AUC   21   2.411   9.141   6.066 -0.0316 -0.0207  0.0498
    1AU     AUC   22   2.243   8.869   6.148 -0.0066  0.0179  0.0507
    1AU     AUC   23   2.048   9.308   4.916  0.0578  0.0121  0.0508
    1AU     AUC   24   1.885   9.029   4.973  0.0460  0.1070 -0.0571
    1AU     AUC   25   1.794   8.697   5.084 -0.0470 -0.0443  0.0083
    1AU     AUC   26   1.492   9.227   5.365 -0.1044  0.0210  0.0756
    1AU     AUC   27   1.602   9.340   5.672  0.0030  0.0839 -0.0418
    1AU     AUC   28   1.815   9.369   6.002  0.0043 -0.0176 -0.0083
    1AU     AUC   29   2.455   8.781   5.045  0.0515  0.0315 -0.0297
    1AU     AUC   30   2.635   8.790   5.320  0.0109  0.0421 -0.0311
    1AU     AUC   31   2.754   8.856   5.649  0.1323 -0.0093  0.0545
    1AU     AUC   32   1.525   8.981   5.602  0.0055 -0.1240 -0.0406
    1AU     AUC   33   1.678   9.071   5.931 -0.1148  0.0671 -0.0279
    1AU     AUC   34   2.327   8.576   5.298 -0.0189  0.0985 -0.1133
    1AU     AUC   35   2.485   8.581   5.621 -0.0204  0.0613 -0.0123
    1AU     AUC   36   1.736   9.505   5.380  0.0255 -0.0881 -0.0651
    1AU     AUC   37   1.878   9.568   5.733  0.0272  0.0286  0.0182
    1AU     AUC   38   2.563   9.124   5.144 -0.0227 -0.0268  0.0115
    1AU     AUC   39   2.714   9.156   5.425  0.0409  0.0894  0.0108
    1AU     AUC   40   2.244   8.603   5.878  0.0443 -0.0627  0.0546
    1AU     AUC   41   1.913   8.831   5.990 -0.0065  0.0627 -0.0186
    1AU     AUC   42   2.537   9.485   5.588 -0.0057  0.0052 -0.0656
    1AU     AUC   43   2.235   9.671   5.709 -0.0737 -0.0789  0.1216
    1AU     AUC   44   1.985   8.538   5.331 -0.0624 -0.0305 -0.0812
    1AU     AUC   45   1.737   8.666   5.460  0.0660 -0.0463 -0.0126
    1AU     AUC   46   2.343   9.431   5.063  0.0807  0.0463 -0.1079
    1AU     AUC   47   2.044   9.541   5.163 -0.0644  0.0672 -0.0285
    1AU     AUC   48   2.179   9.455   5.976  0.0506 -0.0251 -0.0301
    1AU     AUC   49   2.040   9.139   6.100 -0.0036  0.0102 -0.0504
    1AU     AUC   50   1.747   9.280   5.115  0.0457  0.0444 -0.0194
    1AU     AUC   51   1.611   8.948   5.245  0.0145 -0.0158 -0.0696
    1AU     AUC   52   2.624   9.151   5.783  0.0950  0.0121  0.0200
    1AU     AUC   53   2.514   8.807   5.897  0.0193  0.0858 -0.0416
    1AU     AUC   54   2.272   9.110   4.928  0.0063 -0.0451  0.0511
    1AU     AUC   55   2.134   8.756   5.019  0.0343 -0.0087  0.0657
    1AU    AUSL   56   1.279   8.886   5.889  0.0062 -0.0183  0.1061
    1AU    AUSL   57   1.174   8.868   5.418 -0.0630 -0.0237 -0.0803
    1AU     AUL   58   1.011   8.678   5.672 -0.0180 -0.0616  0.0573
    1AU       S   59   1.030   8.552   5.203  0.1602  0.5174  0.1082
    1AU     LIG   60   0.691   8.667   5.335  0.2486 -0.1400  0.0446
    1AU     LIG   61   0.301   8.474   5.562 -0.1351 -0.1646 -0.1886
    1AU       S   62   0.899   9.132   5.814 -0.1853  0.4139  0.1525
    1AU     LIG   63   0.504   9.133   5.567 -0.2246 -0.0970 -0.1190
    1AU     LIG   64   0.116   9.254   5.280 -0.1431 -0.0143 -0.2328
    1AU    AUSL   65   1.327   9.237   5.601 -0.0530  0.0060 -0.0116
    1AU    AUSL   66   1.445   9.623   5.863 -0.1233  0.0484 -0.0941
    1AU     AUL   67   1.159   9.506   5.878 -0.1573 -0.0265  0.0810
    1AU       S   68   0.995   9.253   5.537 -0.2434 -0.1547 -0.0064
    1AU     LIG   69   0.794   9.356   5.155  0.1224  0.0431 -0.0354
    1AU     LIG   70   0.457   9.479   5.025 -0.5338  0.0218  0.2374
    1AU       S   71   1.024   9.964   5.692 -0.0259  0.2516  0.0827
    1AU     LIG   72   0.616   9.757   5.602  0.0926 -0.2359  0.0486
    1AU     LIG   73   0.239   9.769   5.387 -0.2552  0.1960  0.3247
    1AU    AUSL   74   1.565   9.231   5.980  0.0059 -0.0029  0.0208
    1AU    AUSL   75   1.529   8.865   6.241 -0.0795  0.0050  0.0329
    1AU     AUL   76   1.261   9.141   6.136  0.0435 -0.0162  0.0213
    1AU       S   77   1.330   9.583   6.296  0.0599 -0.2534 -0.1537
    1AU     LIG   78   0.999  10.032   6.349  0.3136  0.0211 -0.4256
    1AU     LIG   79   0.748  10.261   5.983  0.0592  0.1016 -0.1403
    1AU       S   80   1.384   8.851   6.516  0.4485 -0.3407  0.1514
    1AU     LIG   81   0.940   8.791   6.266 -0.2155  0.2451 -0.3300
    1AU     LIG   82   0.607   8.710   5.983  0.3476 -0.0259 -0.1868
    1AU    AUSL   83   2.463   8.261   5.551 -0.0091  0.0288  0.0642
    1AU    AUSL   84   2.763   8.463   5.845 -0.0132 -0.0030 -0.0500
    1AU     AUL   85   2.776   8.170   5.626 -0.0452  0.0177  0.0987
    1AU       S   86   2.705   7.801   5.359  0.4490 -0.3837  0.5816
    1AU     LIG   87   2.533   7.460   5.421 -0.3693 -0.4099 -0.2728
    1AU     LIG   88   2.739   7.013   5.517  0.1079  0.2306  0.0935
    1AU       S   89   2.976   8.223   6.040 -0.0160  0.1759 -0.2748
    1AU     LIG   90   3.177   7.906   5.806  0.0649  0.2810 -0.0245
    1AU     LIG   91   3.507   7.746   5.991 -0.0147 -0.0425  0.2368
    1AU    AUSL   92   2.661   8.346   5.166  0.1027  0.0367  0.1020
    1AU    AUSL   93   2.160   8.414   5.286 -0.0603  0.1120 -0.1022
    1AU     AUL   94   2.398   8.119   5.223 -0.0606 -0.0322 -0.0457
    1AU       S   95   2.329   8.216   4.546  0.0159 -0.1634 -0.1486
    1AU     LIG   96   2.615   8.057   4.352 -0.1247  0.1037 -0.3763
    1AU     LIG   97   2.874   8.004   4.161 -0.4427 -0.0248  0.2349
    1AU       S   98   2.845   7.958   5.117  0.3945  0.0748  0.1004
    1AU     LIG   99   3.018   7.430   5.092 -0.1733 -0.0542 -0.1217
    1AU     LIG  100   3.203   7.049   5.217 -0.2072  0.1142 -0.1671
    1AU    AUSL  101   2.723   8.669   5.478 -0.0376  0.0816  0.0647
    1AU    AUSL  102   2.801   8.750   5.037 -0.0698 -0.0013 -0.1217
    1AU     AUL  103   2.936   8.444   5.256  0.1346  0.0217  0.0782
    1AU       S  104   3.168   8.693   4.931  0.0458 -0.2064  0.2182
    1AU     LIG  105   3.463   8.622   5.180 -0.2556  0.1461 -0.0129
    1AU     LIG  106   3.874   8.532   5.530  0.2763  0.1205 -0.1919
    1AU       S  107   3.001   7.864   5.316 -0.1966 -0.3168  0.1810
    1AU     LIG  108   3.275   8.119   5.368 -0.3620 -0.1763 -0.0792
    1AU     LIG  109   3.711   8.224   5.244  0.0202  0.4141  0.0760
    1AU    AUSL  110   1.731   9.782   5.570 -0.0658 -0.0722  0.0485
    1AU    AUSL  111   1.851   9.654   6.006  0.0082 -0.0703 -0.1247
    1AU     AUL  112   1.572   9.898   5.912 -0.0454 -0.1244  0.0128
    1AU       S  113   1.196  10.012   5.681  0.1500 -0.0793  0.2649
    1AU     LIG  114   1.193  10.314   5.262 -0.3710 -0.0639  0.0623
    1AU     LIG  115   1.097  10.353   4.809 -0.1609 -0.4604 -0.2555
    1AU       S  116   1.933  10.147   6.155 -0.0140  0.4743 -0.0859
    1AU     LIG  117   2.136  10.532   6.162 -0.0474  0.2644  0.3663
    1AU     LIG  118   2.382  10.790   6.387 -0.5970  0.0818 -0.0728
    1AU    AUSL  119   1.320   9.623   5.407 -0.0095 -0.0224 -0.0626
    1AU    AUSL  120   1.713   9.863   5.130 -0.0261  0.0317  0.0441
    1AU     AUL  121   1.509   9.923   5.363  0.1017  0.0511  0.0158
    1AU       S  122   1.536  10.043   4.857  0.2494 -0.1964 -0.4079
    1AU     LIG  123   1.625  10.470   4.840 -0.1757  0.1532 -0.0433
    1AU     LIG  124   1.381  10.819   4.829 -0.1417  0.0534  0.5120
    1AU       S  125   1.097   9.738   5.478  0.1131  0.1622 -0.0535
    1AU     LIG  126   1.003   9.793   5.028  0.3579  0.1003 -0.1978
    1AU     LIG  127   0.660   9.873   4.713 -0.0339  0.3543 -0.1577
    1AU    AUSL  128   2.863   9.163   5.136  0.0490 -0.1071 -0.0060
    1AU    AUSL  129   2.517   9.025   4.884  0.0491  0.0731 -0.0227
    1AU     AUL  130   2.815   9.009   4.762 -0.0271  0.0446  0.0078
    1AU       S  131   3.257   8.950   4.856  0.2528  0.3464  0.2994
    1AU     LIG  132   3.698   8.893   4.862 -0.1456  0.0635  0.2584
    1AU     LIG  133   4.004   8.721   5.099 -0.1495  0.0291  0.0752
    1AU       S  134   2.966   9.405   4.585  0.2819 -0.0801  0.7318
    1AU     LIG  135   3.283   9.724   4.365  0.1490  0.3332 -0.3222
    1AU     LIG  136   3.737   9.612   4.170  0.1324  0.0647  0.0174
    1AU    AUSL  137   3.085   8.867   5.376 -0.0767 -0.0464  0.0305
    1AU    AUSL  138   2.986   9.496   5.402  0.0038  0.0485 -0.0372
    1AU     AUL  139   3.170   9.163   5.255 -0.1489 -0.0245 -0.0285
    1AU       S  140   3.276   9.636   5.387 -0.0516  0.1514 -0.1488
    1AU     LIG  141   3.286  10.054   5.447  0.1849 -0.1057 -0.3555
    1AU     LIG  142   2.985  10.399   5.304 -0.1349 -0.0388 -0.0735
    1AU       S  143   3.220   8.702   4.686 -0.1588  0.5274 -0.0164
    1AU     LIG  144   3.642   8.426   4.686  0.0072  0.0702 -0.2508
    1AU     LIG  145   3.803   7.977   4.796  0.0153 -0.0617  0.0666
    1AU    AUSL  146   2.081   8.494   6.250 -0.0576  0.0351  0.0154
    1AU    AUSL  147   2.404   8.245   6.002  0.0403  0.1500  0.0138
    1AU     AUL  148   2.327   8.285   6.338 -0.0087 -0.1167  0.0085
    1AU       S  149   2.630   8.060   6.066 -0.0155 -0.0089 -0.1970
    1AU     LIG  150   2.749   7.679   5.847 -0.2031  0.0652  0.1212
    1AU     LIG  151   2.993   7.409   5.618 -0.1277 -0.2898  0.3469
    1AU       S  152   1.299   8.410   6.313  0.1373  0.0216 -0.0393
    1AU     LIG  153   1.004   8.188   6.390 -0.0363 -0.1682 -0.0918
    1AU     LIG  154   0.673   8.363   6.536 -0.1299 -0.3473  0.2803
    1AU    AUSL  155   2.067   8.400   5.808 -0.0704 -0.0556  0.1064
    1AU    AUSL  156   1.624   8.282   5.739  0.0559 -0.0626  0.0143
    1AU     AUL  157   1.909   8.126   5.964 -0.0415 -0.0016  0.0369
    1AU       S  158   1.592   8.276   6.248  0.2849  0.1433  0.0115
    1AU     LIG  159   1.433   7.911   6.145 -0.2464 -0.0164 -0.0344
    1AU     LIG  160   0.999   7.732   6.286  0.1386 -0.6879  0.3300
    1AU       S  161   1.515   7.914   5.678  0.1211 -0.1243 -0.2531
    1AU     LIG  162   1.169   7.880   5.711  0.0699  0.3441  0.0489
    1AU     LIG  163   0.812   8.161   5.528 -0.2489  0.1744  0.3101
    1AU    AUSL  164   1.754   8.617   5.986  0.0387 -0.0406 -0.0587
    1AU    AUSL  165   1.979   8.924   6.246  0.0668  0.0296  0.0055
    1AU     AUL  166   1.804   8.650   6.390 -0.0428  0.0847 -0.0301
    1AU       S  167   1.299   8.993   6.627  0.0960  0.0022  0.1826
    1AU     LIG  168   0.860   8.977   6.723 -0.0194 -0.1346 -0.0936
    1AU     LIG  169   0.556   9.322   6.757  0.0355 -0.1942 -0.2961
    1AU       S  170   1.362   8.428   6.092 -0.3431  0.0160  0.2541
    1AU     LIG  171   1.019   8.281   5.924 -0.0718 -0.1888 -0.1303
    1AU     LIG  172   0.536   8.242   5.997 -0.1135  0.2708  0.0955
    1AU    AUSL  173   2.502   9.763   5.811 -0.0379  0.1099  0.0092
    1AU    AUSL  174   2.079   9.945   5.758 -0.0082 -0.0327 -0.1565
    1AU     AUL  175   2.478  10.168   5.916 -0.1112 -0.0773  0.0123
    1AU       S  176   1.948  10.161   5.784 -0.0266  0.0368  0.2237
    1AU     LIG  177   1.926  10.647   5.684 -0.1879  0.0512 -0.3688
    1AU     LIG  178   2.013  11.118   5.585 -0.0162  0.1355 -0.2134
    1AU       S  179   2.788   9.895   6.130  0.0713  0.5434  0.0118
    1AU     LIG  180   3.073  10.203   5.938  0.5610 -0.0136 -0.0056
    1AU     LIG  181   3.265  10.657   5.912 -0.0928  0.0427  0.1905
    1AU    AUSL  182   2.613   9.689   5.392 -0.0219 -0.0129 -0.0229
    1AU    AUSL  183   2.877   9.526   5.844  0.0163 -0.1270 -0.0014
    1AU     AUL  184   2.848   9.833   5.653 -0.0358 -0.0117  0.0979
    1AU       S  185   2.941   9.826   5.068  0.1013  0.1792  0.3825
    1AU     LIG  186   3.296  10.088   4.941 -0.3984  0.0710 -0.1229
    1AU     LIG  187   3.441  10.396   4.743 -0.0937 -0.1863  0.1840
    1AU       S  188   3.216   9.588   5.827 -0.1732 -0.2045  0.2140
    1AU     LIG  189   3.472   9.807   5.897  0.0252  0.3420  0.0444
    1AU     LIG  190   3.562  10.201   5.928  0.3913  0.1908 -0.1118
    1AU    AUSL  191   2.381  10.057   5.471  0.0480 -0.0294 -0.0390
    1AU    AUSL  192   2.462   9.875   5.030  0.0807 -0.0246 -0.0119
    1AU     AUL  193   2.623  10.063   5.306 -0.0453 -0.0175  0.0447
    1AU       S  194   2.303  10.199   4.970 -0.1113 -0.3903 -0.0452
    1AU     LIG  195   2.466  10.596   5.040 -0.1718 -0.2432  0.2567
    1AU     LIG  196   2.481  11.075   5.101 -0.0351 -0.0124  0.4669
    1AU       S  197   2.302  10.360   5.493  0.0571 -0.0556 -0.4265
    1AU     LIG  198   2.576  10.749   5.550  0.2053  0.0429 -0.0402
    1AU     LIG  199   2.654  11.104   5.558 -0.1376  0.3495 -0.3563
    1AU    AUSL  200   1.685   8.355   5.281 -0.0329 -0.0171  0.0496
    1AU    AUSL  201   1.522   8.667   5.597  0.0237  0.0123  0.0204
    1AU     AUL  202   1.350   8.392   5.502  0.0570  0.1005  0.0807
    1AU       S  203   1.527   8.012   5.345  0.1404  0.4308 -0.2708
    1AU     LIG  204   1.227   7.944   5.184 -0.0352 -0.1915 -0.0833
    1AU     LIG  205   1.084   7.523   5.303 -0.2898 -0.2881 -0.1302
    1AU       S  206   1.082   8.423   5.036  0.2599  0.0218  0.0295
    1AU     LIG  207   0.804   8.082   4.880 -0.2162  0.0479 -0.1691
    1AU     LIG  208   0.782   7.659   4.852 -0.0970 -0.1793 -0.0911
    1AU    AUSL  209   1.975   8.099   5.485  0.0793 -0.1097 -0.0574
    1AU    AUSL  210   1.947   8.378   4.889  0.0501  0.0134 -0.0247
    1AU     AUL  211   1.932   8.117   5.145  0.0177  0.0895 -0.0148
    1AU       S  212   1.744   7.837   5.523  0.1788 -0.0393  0.1280
    1AU     LIG  213   1.613   7.595   5.151  0.2448  0.1456 -0.0780
    1AU     LIG  214   1.322   7.622   4.813 -0.0651  0.3132  0.2707
    1AU       S  215   2.129   8.131   4.671  0.1232 -0.0355 -0.1520
    1AU     LIG  216   1.997   7.719   4.645  0.1850  0.3217  0.1759
    1AU     LIG  217   1.706   7.265   4.473 -0.1760 -0.2259  0.0277
    1AU    AUSL  218   2.175   9.571   4.891  0.0485  0.0157 -0.0825
    1AU    AUSL  219   2.611   9.470   4.980  0.0322  0.0739  0.0736
    1AU     AUL  220   2.422   9.787   4.759 -0.0152 -0.0242  0.0223
    1AU       S  221   2.820   9.467   4.792 -0.1472 -0.0379  0.0850
    1AU     LIG  222   3.264   9.515   4.864 -0.2699  0.1011 -0.0395
    1AU     LIG  223   3.607   9.331   5.102  0.1582 -0.1653  0.2782
    1AU       S  224   2.040  10.354   4.997  0.0586  0.1375  0.2267
    1AU     LIG  225   1.864  10.781   5.249  0.2180 -0.1036  0.2223
    1AU     LIG  226   1.470  10.798   5.292  0.0335 -0.1343 -0.2899
    1AU    AUSL  227   2.106   9.780   5.261 -0.1456 -0.0193  0.0779
    1AU    AUSL  228   1.761   9.556   4.806  0.0269 -0.0621 -0.0338
    1AU     AUL  229   1.961   9.863   4.876  0.0437  0.0482 -0.1013
    1AU       S  230   1.561   9.817   4.573  0.2393 -0.4158  0.0237
    1AU     LIG  231   1.865  10.227   4.508 -0.0923  0.0046  0.3843
    1AU     LIG  232   2.135  10.639   4.634  0.0144 -0.0929 -0.0431
    1AU       S  233   2.036  10.228   5.130 -0.0191  0.1980  0.1998
    1AU     LIG  234   1.703  10.337   5.369 -0.0131  0.2170  0.3805
    1AU     LIG  235   1.453  10.379   5.702  0.0178 -0.1004  0.0457
    1AU    AUSL  236   2.086   9.394   6.252 -0.0422  0.0477 -0.0262
    1AU    AUSL  237   2.241   9.800   6.145 -0.0386 -0.0310  0.0227
    1AU     AUL  238   1.884   9.722   6.317 -0.0146 -0.0991 -0.0174
    1AU       S  239   2.271   9.982   6.293 -0.5952 -0.0600 -0.0181
    1AU     LIG  240   2.559  10.249   6.403 -0.3333 -0.2092  0.3873
    1AU     LIG  241   2.815  10.613   6.593 -0.2987 -0.1041 -0.1846
    1AU       S  242   2.194   9.550   6.609  0.1171 -0.2753  0.1779
    1AU     LIG  243   2.268   9.919   6.793  0.0980 -0.2019  0.1972
    1AU     LIG  244   2.107  10.184   7.092 -0.1868 -0.0364  0.0268
    1AU    AUSL  245   2.547   9.505   6.277 -0.0596 -0.0424  0.0480
    1AU    AUSL  246   2.647   8.900   6.326 -0.1382  0.0579  0.0221
    1AU     AUL  247   2.772   9.256   6.448 -0.0920 -0.0264  0.0081
    1AU       S  248   2.314   9.468   6.892 -0.0553  0.3103 -0.3015
    1AU     LIG  249   2.532   9.722   7.164  0.2480  0.0915 -0.0934
    1AU     LIG  250   2.544  10.208   7.372 -0.4208 -0.0231 -0.0690
    1AU       S  251   3.063   8.827   6.389 -0.0412 -0.0174  0.1511
    1AU     LIG  252   3.360   9.150   6.311  0.1083  0.0553 -0.1656
    1AU     LIG  253   3.759   9.186   6.116  0.3548 -0.0725 -0.1325
    1AU    AUSL  254   2.304   9.097   6.457  0.0261  0.0820  0.0435
    1AU    AUSL  255   1.710   9.255   6.383 -0.0583 -0.0184  0.0675
    1AU     AUL  256   1.958   9.093   6.549 -0.1003  0.1519 -0.0483
    1AU       S  257   1.451   9.207   6.603 -0.3513 -0.1055  0.0109
    1AU     LIG  258   0.929   9.363   6.384  0.1301 -0.0047 -0.0302
    1AU     LIG  259   0.766   9.698   6.114 -0.0079 -0.3432 -0.1218
    1AU       S  260   2.356   9.331   6.659 -0.0777  0.1877  0.0962
    1AU     LIG  261   2.703   9.714   6.701  0.2829 -0.2657  0.3948
    1AU     LIG  262   2.946   9.973   6.588 -0.0998 -0.1991  0.2163
    1AU    AUSL  263   1.297   9.198   5.123 -0.0643  0.1453  0.0125
    1AU    AUSL  264   1.516   8.757   5.170 -0.0539  0.0182  0.0639
    1AU     AUL  265   1.183   8.915   5.028 -0.0453 -0.0278  0.0075
    1AU       S  266   1.225   9.205   4.300 -0.2099 -0.0829  0.1121
    1AU     LIG  267   0.838   8.920   4.277  0.1356  0.3353 -0.2852
    1AU     LIG  268   0.438   8.835   4.430  0.2371 -0.1923  0.2345
    1AU       S  269   1.295   8.468   5.032  0.0193  0.1524 -0.1353
    1AU     LIG  270   1.169   8.184   4.573 -0.0790  0.3485  0.0738
    1AU     LIG  271   1.100   8.178   4.095  0.0692 -0.0827 -0.1481
    1AU    AUSL  272   1.638   9.144   4.839  0.0315 -0.0780 -0.0303
    1AU    AUSL  273   1.636   9.429   5.204  0.0927  0.0243 -0.0026
    1AU     AUL  274   1.386   9.518   4.921  0.0426 -0.0392 -0.0113
    1AU       S  275   1.347   9.130   4.639  0.2682  0.3969  0.2267
    1AU     LIG  276   0.910   9.139   4.723  0.1607  0.1311 -0.1554
    1AU     LIG  277   0.574   8.943   4.922  0.0260 -0.3805  0.2781
    1AU       S  278   1.467   9.995   4.717  0.3484  0.0912 -0.0705
    1AU     LIG  279   1.181  10.038   4.390  0.3849  0.2789  0.0380
    1AU     LIG  280   0.793   9.907   4.200 -0.0319 -0.2959  0.0997
    1AU    AUSL  281   1.586   8.717   4.750 -0.0211  0.0267  0.0128
    1AU    AUSL  282   2.033   9.171   4.657  0.0287 -0.0315  0.0090
    1AU     AUL  283   1.735   8.967   4.492  0.0228  0.0118  0.1142
    1AU       S  284   1.985   9.411   4.428  0.2940 -0.1183  0.4709
    1AU     LIG  285   2.291   9.471   4.168  0.0419 -0.1650 -0.0668
    1AU     LIG  286   2.784   9.545   4.055 -0.1105  0.0384 -0.1102
    1AU       S  287   1.396   9.337   4.475  0.4855  0.0891  0.3246
    1AU     LIG  288   1.002   9.588   4.488 -0.3504 -0.0337 -0.2532
    1AU     LIG  289   0.633   9.462   4.439  0.0185  0.0354 -0.2638
    1AU    AUSL  290   2.875   8.863   5.952 -0.0079 -0.0202 -0.0279
    1AU    AUSL  291   2.406   8.686   6.042 -0.0619  0.0145  0.0413
    1AU     AUL  292   2.718   8.569   6.211 -0.0988  0.0148 -0.0882
    1AU       S  293   3.118   8.797   6.045  0.1664 -0.0733  0.0131
    1AU     LIG  294   3.584   8.860   5.821 -0.2121 -0.1841 -0.3070
    1AU     LIG  295   3.832   9.016   5.488 -0.0197  0.0374  0.0793
    1AU       S  296   2.834   7.976   6.238  0.2756  0.0302  0.0431
    1AU     LIG  297   3.111   7.620   6.240  0.3300 -0.6402  0.1785
    1AU     LIG  298   3.449   7.273   6.308  0.1589  0.0933  0.1037
    1AU    AUSL  299   2.598   9.215   5.988  0.0577 -0.0650 -0.0228
    1AU    AUSL  300   2.851   9.143   5.634 -0.0828  0.0302  0.0144
    1AU     AUL  301   2.991   9.224   6.045 -0.1060  0.0810 -0.0242
    1AU       S  302   3.228   8.635   6.287 -0.1713 -0.2521 -0.2851
    1AU     LIG  303   3.411   8.315   6.100 -0.2411  0.1654  0.1650
    1AU     LIG  304   3.600   8.163   5.745  0.6404 -0.0768 -0.0536
    1AU       S  305   3.280   9.275   5.683  0.2476 -0.1256 -0.0341
    1AU     LIG  306   3.741   9.497   5.668 -0.4260  0.3620 -0.4269
    1AU     LIG  307   4.198   9.577   5.807  0.2542  0.2427 -0.4390
    1AU    AUSL  308   2.289   8.802   4.573 -0.0079 -0.1020  0.0379
    1AU    AUSL  309   2.414   9.360   4.600  0.0026  0.0251 -0.0828
    1AU     AUL  310   2.418   9.043   4.476  0.0011  0.0608 -0.0298
    1AU       S  311   2.673   9.421   4.516 -0.0147 -0.0626 -0.0884
    1AU     LIG  312   2.800   9.887   4.465  0.0352 -0.0497  0.0389
    1AU     LIG  313   3.043  10.299   4.455 -0.1048  0.0111 -0.0261
    1AU       S  314   2.011   9.705   4.431  0.2405 -0.0782 -0.0085
    1AU     LIG  315   1.764   9.988   4.097  0.0783  0.1626 -0.1431
    1AU     LIG  316   1.417  10.179   3.953  0.0378 -0.1455  0.3117
    1AU    AUSL  317   1.957   8.810   4.919 -0.0974  0.0425  0.0628
    1AU    AUSL  318   2.377   8.573   4.931  0.0454 -0.1066 -0.0080
    1AU     AUL  319   2.051   8.577   4.594  0.0180 -0.0369  0.0520
    1AU       S  320   1.818   9.535   4.288 -0.0512  0.3220  0.1457
    1AU     LIG  321   1.404   9.646   4.104 -0.0762  0.0752  0.1142
    1AU     LIG  322   1.013   9.513   3.956  0.2302  0.2697  0.1632
    1AU       S  323   2.384   8.309   4.800 -0.2956  0.1088 -0.2259
    1AU     LIG  324   2.431   7.818   4.858 -0.0229 -0.2656 -0.0276
    1AU     LIG  325   2.180   7.669   5.190 -0.0671  0.3305 -0.4617
    2POPC   NC3  326   8.109   6.347   7.225 -0.0491  0.1744  0.0382
    2POPC   PO4  327   8.556   6.382   7.370 -0.0870 -0.1735  0.2783
    2POPC   GL1  328   8.495   6.666   6.960  0.3125  0.0541 -0.0923
    2POPC   GL2  329   8.793   6.579   6.916  0.1325 -0.2626  0.0999
    2POPC   C1A  330   8.321   6.745   6.564 -0.0137 -0.0061  0.0370
    2POPC   D2A  331   8.313   6.946   6.179 -0.0356  0.0888 -0.0895
    2POPC   C3A  332   8.499   6.855   5.711 -0.5004  0.1294  0.0080
    2POPC   C4A  333   8.699   6.932   5.313 -0.2520 -0.0265 -0.1262
    2POPC   C1B  334   8.854   6.543   6.468 -0.0606 -0.1313  0.0059
    2POPC   C2B  335   8.821   6.704   6.099  0.5362  0.1341  0.0063
    2POPC   C3B  336   9.019   6.833   5.677  0.1210  0.0482 -0.2367
    2POPC   C4B  337   9.197   7.170   5.339  0.2255 -0.1722 -0.0348
    3POPC   NC3  338   3.454   9.252   7.419  0.0101 -0.0917  0.0811
    3POPC   PO4  339   3.437   9.593   7.495 -0.4777  0.0867 -0.3052
    3POPC   GL1  340   3.671   9.842   7.218  0.1563  0.0759  0.1503
    3POPC   GL2  341   3.891  10.070   7.341  0.0364  0.1418  0.3889
    3POPC   C1A  342   3.805   9.889   6.799  0.1792  0.2211 -0.1877
    3POPC   D2A  343   3.888  10.230   6.442  0.0153 -0.0178  0.2231
    3POPC   C3A  344   3.654  10.539   6.238 -0.2865  0.0589  0.1277
    3POPC   C4A  345   3.716  10.821   6.003 -0.0594  0.2561 -0.0908
    3POPC   C1B  346   3.779  10.364   7.043  0.3553 -0.2414  0.0838
    3POPC   C2B  347   3.735  10.585   6.740  0.0932  0.2200 -0.2022
    3POPC   C3B  348   3.800  10.932   6.519 -0.2107 -0.2784  0.1101
    3POPC   C4B  349   3.771  11.248   6.307 -0.1498 -0.1309 -0.0615
    4POPC   NC3  350   7.883   5.625   7.329  0.0407  0.1156 -0.1739
    4POPC   PO4  351   7.755   5.245   7.096 -0.1351  0.2798  0.0045
    4POPC   GL1  352   7.619   5.215   6.718 -0.0782 -0.5078 -0.1831
    4POPC   GL2  353   7.438   5.358   6.713 -0.2589 -0.0351 -0.1006
    4POPC   C1A  354   7.712   4.996   6.359 -0.0655  0.0187 -0.1872
    4POPC   D2A  355   7.850   4.755   6.042 -0.1463 -0.0740  0.1871
    4POPC   C3A  356   7.877   4.943   5.713 -0.0544  0.1423 -0.0795
    4POPC   C4A  357   7.802   5.095   5.335  0.2285  0.2881 -0.1476
    4POPC   C1B  358   7.303   5.359   6.312  0.2113 -0.0522  0.0635
    4POPC   C2B  359   7.546   5.240   5.952 -0.0107 -0.2176 -0.3088
    4POPC   C3B  360   7.386   5.002   5.614 -0.4215 -0.0099  0.0450
    4POPC   C4B  361   7.146   4.600   5.585  0.0904 -0.0452 -0.3314
    5POPC   NC3  362   9.738   8.383   7.277 -0.1310 -0.0423 -0.1125
    5POPC   PO4  363  10.208   8.591   7.301  0.1955 -0.1219 -0.1432
    5POPC   GL1  364  10.463   8.712   7.021  0.1023 -0.2660  0.0067
    5POPC   GL2  365  10.659   8.537   7.060  0.0090 -0.1394 -0.0150
    5POPC   C1A  366  10.506   8.663   6.509  0.0715 -0.0814 -0.1102
    5POPC   D2A  367  10.435   8.797   6.045  0.4509  0.1534  0.1058
    5POPC   C3A  368  10.567   8.584   5.624  0.0213 -0.2295  0.0595
    5POPC   C4A  369  10.555   8.556   5.108 -0.0872 -0.3696 -0.1842
    5POPC   C1B  370  10.689   8.215   6.655 -0.0228 -0.2822  0.0489
    5POPC   C2B  371  10.583   8.265   6.153 -0.0388 -0.0742  0.1498
    5POPC   C3B  372  10.453   8.132   5.884  0.2228 -0.0002 -0.0777
    5POPC   C4B  373  10.453   7.939   5.535  0.0189 -0.3209 -0.0375
    6POPC   NC3  374   5.507  10.633   7.924 -0.0461  0.1180  0.4853
    6POPC   PO4  375   5.668  10.225   7.642  0.0197 -0.0661 -0.1643
    6POPC   GL1  376   5.459  10.400   7.381 -0.0080 -0.0234  0.1766
    6POPC   GL2  377   5.178  10.364   7.228  0.0125  0.2072 -0.1465
    6POPC   C1A  378   5.541  10.506   6.893  0.1717 -0.2476  0.0579
    6POPC   D2A  379   5.599  10.585   6.486  0.1034 -0.1641 -0.0530
    6POPC   C3A  380   5.485  11.015   6.455  0.2144  0.2354 -0.4556
    6POPC   C4A  381   5.194  11.399   6.373  0.2140  0.0518 -0.3514
    6POPC   C1B  382   5.254  10.121   6.952 -0.1847 -0.0106 -0.1588
    6POPC   C2B  383   5.498  10.013   6.639 -0.3676  0.0508  0.0785
    6POPC   C3B  384   5.388  10.237   6.237 -0.0706  0.1369  0.2237
    6POPC   C4B  385   5.286  10.636   6.065  0.1392  0.0876  0.1276
    7POPC   NC3  386   5.979   1.242   7.786 -0.0757  0.0548  0.1735
    7POPC   PO4  387   6.430   1.328   7.744  0.0529 -0.0844 -0.0624
    7POPC   GL1  388   6.594   1.136   7.253  0.2896 -0.2373  0.0280
    7POPC   GL2  389   6.446   0.904   7.220 -0.0625 -0.0904  0.2822
    7POPC   C1A  390   6.740   1.085   6.843 -0.0484 -0.1918  0.2722
    7POPC   D2A  391   6.775   0.809   6.527  0.0078  0.3343 -0.0025
    7POPC   C3A  392   6.718   0.966   6.129 -0.1144  0.2145  0.1430
    7POPC   C4A  393   6.419   1.180   5.954  0.1720  0.1615 -0.1137
    7POPC   C1B  394   6.261   0.935   6.823  0.2585 -0.1819  0.1857
    7POPC   C2B  395   6.245   0.962   6.397  0.0501 -0.0836  0.4777
    7POPC   C3B  396   5.930   0.951   6.049  0.0657  0.1025  0.0169
    7POPC   C4B  397   5.738   0.891   5.583  0.0111  0.2707 -0.0717
    8POPC   NC3  398   2.714   6.242   7.354 -0.3483  0.0273 -0.3293
    8POPC   PO4  399   2.999   6.660   7.378 -0.2161  0.1831  0.0159
    8POPC   GL1  400   2.994   6.449   6.963 -0.0501 -0.0517 -0.2268
    8POPC   GL2  401   2.909   6.152   6.876  0.0629  0.1010  0.0287
    8POPC   C1A  402   2.872   6.534   6.584  0.3198 -0.4371 -0.1019
    8POPC   D2A  403   2.657   6.845   6.321  0.0502 -0.2349  0.2658
    8POPC   C3A  404   2.842   6.721   5.902 -0.1250  0.2058 -0.3445
    8POPC   C4A  405   3.202   6.605   5.659 -0.0792 -0.1474 -0.0593
    8POPC   C1B  406   2.788   5.892   6.461  0.2847  0.0133  0.2501
    8POPC   C2B  407   2.918   5.760   6.070  0.0620  0.1716  0.1387
    8POPC   C3B  408   2.983   5.529   5.759 -0.0185  0.1109  0.2067
    8POPC   C4B  409   2.743   5.243   5.471  0.0725  0.0520 -0.1685
    9POPC   NC3  410   3.977   8.322   7.418  0.0968 -0.0323  0.2027
    9POPC   PO4  411   4.192   7.952   7.506 -0.2469  0.1425  0.0909
    9POPC   GL1  412   4.219   7.771   7.103 -0.0865 -0.0004  0.0316
    9POPC   GL2  413   3.979   7.904   6.939 -0.1086 -0.1472 -0.1221
    9POPC   C1A  414   4.342   7.631   6.750  0.2653 -0.1680  0.0471
    9POPC   D2A  415   4.295   7.583   6.262 -0.1370 -0.2049  0.1872
    9POPC   C3A  416   4.583   7.336   5.943  0.1145 -0.0856 -0.2401
    9POPC   C4A  417   4.877   7.087   5.764 -0.1559  0.1541 -0.0548
    9POPC   C1B  418   4.208   8.103   6.576 -0.2132 -0.0798  0.2727
    9POPC   C2B  419   4.445   8.282   6.257  0.1195  0.2579  0.2678
    9POPC   C3B  420   4.697   8.668   6.118  0.1366 -0.0465  0.3459
    9POPC   C4B  421   4.725   8.943   5.774  0.1339 -0.1066  0.0529
   10POPC   NC3  422   7.035   7.703   7.751  0.0734 -0.3405 -0.7028
   10POPC   PO4  423   7.548   7.672   7.723 -0.1691 -0.1076 -0.2159
   10POPC   GL1  424   7.489   7.674   7.324  0.2493 -0.1061 -0.0755
   10POPC   GL2  425   7.749   7.730   7.138 -0.0469  0.1519 -0.0969
   10POPC   C1A  426   7.277   7.882   6.911  0.2719  0.0658  0.0523
   10POPC   D2A  427   6.859   7.805   6.679  0.0599 -0.1212  0.3051
   10POPC   C3A  428   6.640   7.513   6.386 -0.1624  0.2214  0.0677
   10POPC   C4A  429   6.545   7.511   6.044 -0.0518  0.0413 -0.1281
   10POPC   C1B  430   7.710   7.559   6.835 -0.3473 -0.1099 -0.0050
   10POPC   C2B  431   7.600   7.602   6.323 -0.0770  0.2064 -0.2854
   10POPC   C3B  432   7.578   7.583   5.959 -0.2125 -0.0742 -0.2585
   10POPC   C4B  433   7.864   7.417   5.555  0.0643  0.2269 -0.0063
   11POPC   NC3  434   4.132   6.216   7.537 -0.1139 -0.2138  0.4605
   11POPC   PO4  435   3.688   5.970   7.665 -0.0025  0.1390 -0.2007
   11POPC   GL1  436   3.638   6.119   7.263 -0.3366  0.2660 -0.2853
   11POPC   GL2  437   3.452   6.464   7.217  0.0882 -0.2717  0.3543
   11POPC   C1A  438   3.569   6.030   6.888 -0.1503 -0.0268  0.0131
   11POPC   D2A  439   3.259   5.794   6.597  0.1343 -0.1649  0.2019
   11POPC   C3A  440   3.485   5.811   6.078  0.1889  0.1912 -0.1122
   11POPC   C4A  441   3.449   6.200   5.863 -0.0230 -0.0501  0.0021
   11POPC   C1B  442   3.419   6.516   6.775 -0.2396 -0.0071  0.2212
   11POPC   C2B  443   3.619   6.229   6.410  0.2203 -0.0167 -0.1983
   11POPC   C3B  444   3.927   6.358   6.076 -0.1730 -0.0407  0.1256
   11POPC   C4B  445   3.803   6.548   5.605  0.0355  0.1104  0.0692
   12POPC   NC3  446   2.172   1.492   7.941 -0.1071 -0.2157 -0.1292
   12POPC   PO4  447   1.874   1.464   7.572 -0.1836 -0.2458  0.2553
   12POPC   GL1  448   1.815   1.654   7.133 -0.1768 -0.1010  0.0347
   12POPC   GL2  449   2.001   1.923   6.927 -0.2070  0.1484 -0.0335
   12POPC   C1A  450   1.924   1.426   6.765  0.0975  0.2692 -0.1348
   12POPC   D2A  451   1.720   1.152   6.375  0.0005  0.2370 -0.1008
   12POPC   C3A  452   1.808   0.925   5.992 -0.0514 -0.2684 -0.1120
   12POPC   C4A  453   1.719   0.680   5.597 -0.1772 -0.0212  0.0689
   12POPC   C1B  454   1.823   1.909   6.415 -0.2861 -0.1462 -0.3282
   12POPC   C2B  455   1.955   1.569   6.117  0.3523  0.2067  0.1240
   12POPC   C3B  456   2.117   1.287   5.893  0.1348  0.1053 -0.2137
   12POPC   C4B  457   2.468   0.991   5.798  0.2666 -0.1463  0.1909
   13POPC   NC3  458   0.355   5.259   7.066 -0.1480 -0.0269  0.0411
   13POPC   PO4  459   0.547   5.554   7.134  0.2505  0.2112 -0.1992
   13POPC   GL1  460   0.639   5.461   6.725 -0.1261  0.0189  0.0553
   13POPC   GL2  461   0.289   5.377   6.566 -0.0310  0.2705 -0.1241
   13POPC   C1A  462   0.745   5.410   6.296 -0.3492  0.1898  0.1412
   13POPC   D2A  463   0.800   5.399   5.803  0.2403  0.0328 -0.2787
   13POPC   C3A  464   0.503   5.101   5.619  0.5188 -0.2396 -0.1514
   13POPC   C4A  465   0.131   4.834   5.727 -0.1527  0.1843 -0.0608
   13POPC   C1B  466   0.309   5.471   6.068  0.1339  0.0531  0.1023
   13POPC   C2B  467   0.173   5.491   5.650 -0.3818 -0.2568 -0.1247
   13POPC   C3B  468   0.059   5.763   5.339  0.4724 -0.1192 -0.0334
   13POPC   C4B  469  -0.061   6.188   5.142  0.4638  0.0025  0.1302
   14POPC   NC3  470   1.068   6.922   7.353 -0.2767 -0.2187 -0.1790
   14POPC   PO4  471   0.765   6.693   7.060 -0.1595 -0.2212  0.0251
   14POPC   GL1  472   0.775   6.413   6.693 -0.0156 -0.1527  0.1971
   14POPC   GL2  473   0.912   6.119   6.636 -0.0493  0.0149  0.1382
   14POPC   C1A  474   0.602   6.435   6.324 -0.3968 -0.0904  0.0529
   14POPC   D2A  475   0.459   6.434   5.903  0.0794  0.0709  0.2293
   14POPC   C3A  476   0.832   6.385   5.648  0.3144  0.0671 -0.1479
   14POPC   C4A  477   1.249   6.554   5.592 -0.0680  0.1549  0.2236
   14POPC   C1B  478   0.602   5.836   6.408  0.0339  0.3798  0.0996
   14POPC   C2B  479   0.634   5.894   5.974 -0.0614 -0.3074  0.1533
   14POPC   C3B  480   0.610   5.842   5.508 -0.2890 -0.2584  0.1413
   14POPC   C4B  481   0.407   6.288   5.344  0.0813 -0.0482 -0.3694
   15POPC   NC3  482   5.815   5.862   7.430 -0.2226  0.0568  0.2569
   15POPC   PO4  483   5.456   5.738   7.474  0.2065 -0.1402 -0.1507
   15POPC   GL1  484   5.371   6.037   7.099  0.1306  0.0504 -0.1274
   15POPC   GL2  485   5.237   6.367   7.142  0.0754  0.0125 -0.0738
   15POPC   C1A  486   5.181   6.157   6.630  0.6764 -0.0718  0.1046
   15POPC   D2A  487   5.252   6.114   6.172  0.3724  0.1367 -0.2353
   15POPC   C3A  488   4.935   6.473   5.885 -0.1049 -0.2308  0.1468
   15POPC   C4A  489   4.968   6.672   5.470 -0.2649  0.0411  0.2151
   15POPC   C1B  490   5.499   6.482   6.860  0.1650 -0.2068  0.2307
   15POPC   C2B  491   5.577   6.425   6.509 -0.1429 -0.1042  0.3801
   15POPC   C3B  492   5.759   6.247   6.145  0.0239 -0.1264 -0.2679
   15POPC   C4B  493   5.474   6.272   5.804  0.2589 -0.0876 -0.0420
   16POPC   NC3  494   0.179   9.364   7.349 -0.0833 -0.1836  0.2312
   16POPC   PO4  495   0.117   9.792   7.530 -0.1539  0.1440 -0.1621
   16POPC   GL1  496   0.284   9.965   7.173 -0.0137 -0.0424  0.2149
   16POPC   GL2  497   0.394   9.701   7.014 -0.0205 -0.1493 -0.1666
   16POPC   C1A  498   0.327  10.182   6.842 -0.1196 -0.1265 -0.0123
   16POPC   D2A  499   0.399  10.238   6.469 -0.1719  0.0174 -0.1687
   16POPC   C3A  500   0.272  10.512   6.097  0.1490 -0.0770  0.1571
   16POPC   C4A  501   0.078  10.850   6.185 -0.1254 -0.1096 -0.1389
   16POPC   C1B  502  -0.038   9.805   6.764 -0.4796  0.0443 -0.4403
   16POPC   C2B  503  -0.019   9.977   6.476 -0.3072  0.1163  0.0113
   16POPC   C3B  504   0.207  10.002   6.081  0.0322 -0.4766 -0.2867
   16POPC   C4B  505   0.263  10.121   5.720  0.0612  0.1354  0.0566
   17POPC   NC3  506   4.832   2.383   7.419  0.4204  0.0155  0.0698
   17POPC   PO4  507   5.091   2.732   7.476 -0.3547 -0.1384 -0.2043
   17POPC   GL1  508   4.903   2.765   7.106  0.0638 -0.4574 -0.0094
   17POPC   GL2  509   5.010   3.108   7.008  0.0178 -0.0129 -0.0814
   17POPC   C1A  510   5.033   2.556   6.710 -0.1061 -0.3507  0.2805
   17POPC   D2A  511   5.179   2.570   6.302  0.2854  0.0646  0.1141
   17POPC   C3A  512   4.894   2.506   6.007 -0.2294  0.2242  0.0044
   17POPC   C4A  513   4.571   2.699   5.807  0.3941 -0.5339  0.2066
   17POPC   C1B  514   5.285   2.996   6.600  0.4765 -0.3105  0.0803
   17POPC   C2B  515   5.559   2.925   6.296 -0.2219  0.0159  0.1152
   17POPC   C3B  516   5.936   2.936   5.933 -0.0871 -0.3865 -0.1371
   17POPC   C4B  517   6.271   2.764   5.717 -0.2864  0.3490  0.1965
   18POPC   NC3  518  10.440   3.870   7.252 -0.1580  0.0151 -0.1080
   18POPC   PO4  519   9.931   3.921   7.314 -0.1294  0.3256 -0.0917
   18POPC   GL1  520   9.931   3.753   7.006  0.4149 -0.1090  0.0045
   18POPC   GL2  521  10.255   3.599   6.902  0.1149  0.0257 -0.1418
   18POPC   C1A  522   9.921   3.897   6.587  0.1596 -0.0127  0.1345
   18POPC   D2A  523  10.034   3.739   6.194 -0.2810 -0.0089  0.1424
   18POPC   C3A  524   9.613   3.756   5.943  0.0614  0.0195  0.1352
   18POPC   C4A  525   9.385   3.445   6.019 -0.2215 -0.0322 -0.1283
   18POPC   C1B  526  10.048   3.385   6.561 -0.0821  0.1253  0.1013
   18POPC   C2B  527  10.254   3.304   6.211 -0.2687 -0.1915  0.0219
   18POPC   C3B  528  10.430   3.624   5.895  0.3310 -0.1672  0.2451
   18POPC   C4B  529  10.386   3.674   5.425 -0.1850  0.0186  0.1192
   19POPC   NC3  530   8.496   4.745   7.759  0.1304  0.2821  0.1240
   19POPC   PO4  531   8.526   4.209   7.538 -0.2311 -0.0656  0.2362
   19POPC   GL1  532   8.319   3.941   7.220 -0.2347 -0.1217  0.0835
   19POPC   GL2  533   8.042   4.211   7.103  0.4139 -0.0178 -0.2829
   19POPC   C1A  534   8.262   3.812   6.877  0.0314  0.1424 -0.1135
   19POPC   D2A  535   8.039   3.906   6.499 -0.0456 -0.0333 -0.3585
   19POPC   C3A  536   7.986   3.871   5.989  0.0042  0.0197  0.1616
   19POPC   C4A  537   8.093   3.922   5.545  0.1616 -0.0414 -0.2202
   19POPC   C1B  538   8.134   4.353   6.746  0.2282 -0.0147 -0.0145
   19POPC   C2B  539   8.395   4.659   6.488 -0.3895  0.0666 -0.0394
   19POPC   C3B  540   8.713   4.535   6.193  0.1312  0.0902  0.1875
   19POPC   C4B  541   8.983   4.270   6.331  0.2113  0.2145 -0.1260
   20POPC   NC3  542   6.117  10.026   7.606  0.1950  0.0244 -0.0323
   20POPC   PO4  543   6.452  10.251   7.883  0.2166  0.0533 -0.0716
   20POPC   GL1  544   6.555  10.300   7.385 -0.1614 -0.1434  0.0340
   20POPC   GL2  545   6.337  10.127   7.148  0.1041  0.0307 -0.3173
   20POPC   C1A  546   6.896  10.199   7.154 -0.1879 -0.3143 -0.2979
   20POPC   D2A  547   7.164  10.159   6.806  0.1594  0.1378 -0.0115
   20POPC   C3A  548   7.510   9.895   6.847 -0.1168  0.1403 -0.2976
   20POPC   C4A  549   7.817   9.955   7.044 -0.3241 -0.2081  0.2307
   20POPC   C1B  550   6.512  10.343   6.808  0.2179 -0.0717 -0.0861
   20POPC   C2B  551   6.501  10.109   6.337 -0.2103 -0.0605  0.0392
   20POPC   C3B  552   6.702  10.035   5.947 -0.0675  0.3494 -0.0336
   20POPC   C4B  553   7.061   9.634   5.952  0.2469 -0.0693 -0.3207
   21POPC   NC3  554   8.216   2.860   8.202 -0.2655  0.2438 -0.1534
   21POPC   PO4  555   8.382   2.621   7.917  0.2658  0.0681 -0.0188
   21POPC   GL1  556   8.371   2.525   7.594 -0.2393 -0.0397 -0.1183
   21POPC   GL2  557   8.244   2.704   7.354 -0.3712 -0.0091  0.1973
   21POPC   C1A  558   8.535   2.355   7.111  0.0468 -0.2292 -0.0211
   21POPC   D2A  559   8.789   2.259   6.811 -0.1980 -0.2069  0.0956
   21POPC   C3A  560   9.097   2.081   6.930 -0.4933 -0.0017 -0.0258
   21POPC   C4A  561   9.243   1.778   7.245 -0.1553  0.0498 -0.3263
   21POPC   C1B  562   7.934   2.931   7.103  0.1111 -0.1059 -0.0767
   21POPC   C2B  563   7.963   3.027   6.615 -0.2189 -0.1866 -0.0708
   21POPC   C3B  564   8.168   2.714   6.333 -0.2765 -0.2174 -0.1499
   21POPC   C4B  565   8.074   2.583   5.979 -0.1647  0.1078  0.1727
   22POPC   NC3  566   3.089   7.112   7.611  0.0536 -0.1961  0.1306
   22POPC   PO4  567   3.483   7.459   7.655 -0.0949  0.2905 -0.1113
   22POPC   GL1  568   3.681   7.383   7.190  0.2663 -0.1714 -0.0800
   22POPC   GL2  569   3.974   7.356   6.931 -0.1064  0.1175 -0.1006
   22POPC   C1A  570   3.595   7.101   6.846  0.2107  0.3773 -0.1612
   22POPC   D2A  571   3.163   6.942   6.601 -0.4594  0.0725  0.0371
   22POPC   C3A  572   3.254   6.659   6.277  0.0182 -0.0115  0.3385
   22POPC   C4A  573   3.134   6.213   6.352 -0.0404 -0.0125  0.0973
   22POPC   C1B  574   4.041   7.211   6.506 -0.2303 -0.1477 -0.0197
   22POPC   C2B  575   4.201   6.999   6.105  0.3697  0.1231 -0.2325
   22POPC   C3B  576   4.190   6.989   5.737  0.0506 -0.1619  0.4465
   22POPC   C4B  577   4.085   6.895   5.301 -0.0604  0.3389  0.1279
   23POPC   NC3  578   6.108   2.232   7.672 -0.2226 -0.1519 -0.1424
   23POPC   PO4  579   5.770   2.477   7.820 -0.1011  0.0821 -0.0325
   23POPC   GL1  580   5.662   2.395   7.384  0.0958 -0.2710 -0.1244
   23POPC   GL2  581   5.674   2.026   7.296  0.0627  0.2100  0.4124
   23POPC   C1A  582   5.805   2.385   6.976 -0.3159  0.1894  0.0909
   23POPC   D2A  583   5.549   2.486   6.598 -0.0028 -0.0714  0.0847
   23POPC   C3A  584   5.280   2.111   6.615  0.1094 -0.3263 -0.0014
   23POPC   C4A  585   5.047   1.876   6.276  0.1275 -0.1106  0.4797
   23POPC   C1B  586   5.866   1.879   6.880 -0.3090  0.1782  0.2517
   23POPC   C2B  587   5.634   1.738   6.539  0.0373 -0.2797 -0.2403
   23POPC   C3B  588   5.322   1.557   6.488  0.1236 -0.4924 -0.2370
   23POPC   C4B  589   5.115   1.414   6.091 -0.1586  0.0187 -0.0641
   24POPC   NC3  590   3.125   8.332   6.992 -0.0606 -0.0965 -0.0575
   24POPC   PO4  591   2.923   7.896   6.986  0.1598 -0.0049  0.1143
   24POPC   GL1  592   2.986   7.613   6.700 -0.3474  0.2073 -0.0148
   24POPC   GL2  593   3.363   7.489   6.701 -0.0180  0.1665  0.0077
   24POPC   C1A  594   2.819   7.303   6.370  0.1304  0.0496 -0.0274
   24POPC   D2A  595   2.968   7.177   6.022 -0.1341 -0.0020  0.0131
   24POPC   C3A  596   3.262   7.074   5.844 -0.2535 -0.1600 -0.2988
   24POPC   C4A  597   3.660   7.072   5.522  0.1495  0.0645  0.2714
   24POPC   C1B  598   3.703   7.610   6.433 -0.0272 -0.0344 -0.0242
   24POPC   C2B  599   3.877   7.448   6.084  0.4455 -0.0739  0.3835
   24POPC   C3B  600   4.130   7.597   5.744  0.1576  0.2223 -0.1976
   24POPC   C4B  601   4.405   7.459   5.465 -0.1114 -0.2427  0.2581
   25POPC   NC3  602   6.854   4.388   7.439 -0.3008 -0.1252 -0.0303
   25POPC   PO4  603   7.072   4.128   7.248  0.4264 -0.2678  0.1434
   25POPC   GL1  604   7.015   3.996   6.874  0.1112  0.1777  0.0390
   25POPC   GL2  605   6.746   3.833   6.928 -0.0703 -0.0961  0.1877
   25POPC   C1A  606   6.907   3.900   6.328 -0.1324 -0.0761  0.1424
   25POPC   D2A  607   6.913   4.191   5.977  0.5092 -0.2913  0.0916
   25POPC   C3A  608   6.989   4.082   5.611 -0.1360 -0.1732 -0.1225
   25POPC   C4A  609   7.170   4.205   5.173  0.1193 -0.1610  0.4296
   25POPC   C1B  610   6.830   3.466   7.001 -0.2848 -0.0656  0.2682
   25POPC   C2B  611   6.918   3.095   6.814  0.0766 -0.0945  0.0061
   25POPC   C3B  612   6.994   2.875   6.517  0.0778 -0.0225 -0.0092
   25POPC   C4B  613   7.228   3.035   6.191 -0.0320  0.3736  0.1324
   26POPC   NC3  614   9.502   1.689   8.005 -0.0526  0.0593 -0.2490
   26POPC   PO4  615   9.637   1.974   7.730 -0.1680 -0.2033 -0.0392
   26POPC   GL1  616   9.737   2.104   7.323  0.3651  0.3029  0.2602
   26POPC   GL2  617   9.979   1.979   7.179 -0.1466 -0.2088  0.0619
   26POPC   C1A  618   9.599   1.845   6.954  0.2372 -0.1789  0.3443
   26POPC   D2A  619   9.400   1.598   6.713 -0.0261 -0.0937  0.0665
   26POPC   C3A  620   9.099   1.887   6.408 -0.1923  0.0470  0.1052
   26POPC   C4A  621   8.803   1.798   6.077  0.1036 -0.1076 -0.1235
   26POPC   C1B  622  10.273   1.932   6.833  0.0274  0.2291 -0.0080
   26POPC   C2B  623  10.306   1.832   6.416 -0.0412 -0.2748  0.1530
   26POPC   C3B  624  10.144   1.721   5.991 -0.0765 -0.0143 -0.1110
   26POPC   C4B  625  10.018   1.687   5.662  0.1473  0.1653  0.1436
   27POPC   NC3  626   5.245   7.361   7.813 -0.1401  0.1143 -0.0065
   27POPC   PO4  627   5.551   7.191   7.536 -0.0411  0.0315  0.1729
   27POPC   GL1  628   5.544   7.436   7.183  0.0488 -0.1034 -0.0937
   27POPC   GL2  629   5.758   7.339   6.970  0.0501 -0.2974  0.1097
   27POPC   C1A  630   5.263   7.455   6.867  0.2112 -0.1394 -0.0229
   27POPC   D2A  631   5.141   7.111   6.449  0.0558 -0.1869  0.1291
   27POPC   C3A  632   5.061   7.343   6.114 -0.0775  0.0150 -0.0541
   27POPC   C4A  633   4.963   7.550   5.720 -0.0366 -0.1902 -0.0155
   27POPC   C1B  634   5.747   7.385   6.532  0.1352  0.0584 -0.4159
   27POPC   C2B  635   5.591   7.312   6.197  0.1125 -0.3318  0.1070
   27POPC   C3B  636   5.478   7.259   5.862  0.1615  0.1889  0.2521
   27POPC   C4B  637   5.413   7.551   5.451 -0.2887  0.1609 -0.3099
   28POPC   NC3  638  10.682   4.240   7.612  0.1168 -0.1073 -0.3497
   28POPC   PO4  639  10.654   4.588   7.237  0.4603 -0.0886  0.0862
   28POPC   GL1  640  10.694   4.279   6.812 -0.0938 -0.0569  0.0551
   28POPC   GL2  641  10.446   4.027   6.811 -0.0341 -0.0465  0.0325
   28POPC   C1A  642  10.759   4.127   6.459 -0.2919  0.3966 -0.0080
   28POPC   D2A  643  10.412   4.149   6.281 -0.0045  0.0661 -0.2549
   28POPC   C3A  644  10.276   4.089   5.900  0.2493 -0.2751  0.0059
   28POPC   C4A  645  10.006   3.828   5.675 -0.0279  0.1387 -0.0956
   28POPC   C1B  646  10.489   3.689   6.483 -0.0123 -0.1233 -0.0094
   28POPC   C2B  647  10.758   3.402   6.165  0.2843 -0.0690  0.0436
   28POPC   C3B  648  10.895   3.213   5.840  0.0826 -0.2452 -0.0009
   28POPC   C4B  649  10.695   2.970   5.480 -0.0754  0.2539  0.0805
   29POPC   NC3  650  10.672   2.908   7.659 -0.1746 -0.2488 -0.0789
   29POPC   PO4  651  10.582   3.383   7.482 -0.0039  0.2756 -0.2361
   29POPC   GL1  652  10.370   3.134   7.118  0.1260  0.0254 -0.3017
   29POPC   GL2  653  10.581   2.746   7.164 -0.1144 -0.0138 -0.1804
   29POPC   C1A  654  10.232   2.907   6.809 -0.0300  0.1218 -0.1148
   29POPC   D2A  655   9.984   2.850   6.471  0.0112 -0.1299 -0.1302
   29POPC   C3A  656   9.724   3.125   6.181  0.0080 -0.1305 -0.0527
   29POPC   C4A  657   9.902   3.337   5.850 -0.0441  0.3357 -0.1378
   29POPC   C1B  658  10.793   2.745   6.719 -0.0168 -0.1264 -0.0593
   29POPC   C2B  659  10.864   2.462   6.396 -0.0122 -0.1141  0.1029
   29POPC   C3B  660  11.177   2.312   6.150  0.0007 -0.0068 -0.2832
   29POPC   C4B  661  10.991   2.001   5.822 -0.1225 -0.1806  0.1604
   30POPC   NC3  662   3.602   9.053   8.173 -0.0827  0.1771  0.0312
   30POPC   PO4  663   3.773   9.244   7.806 -0.2028 -0.1988  0.1056
   30POPC   GL1  664   3.979   9.011   7.446 -0.0562  0.0382  0.0032
   30POPC   GL2  665   4.256   8.872   7.409 -0.0646  0.1183 -0.3604
   30POPC   C1A  666   3.860   8.960   7.024  0.1177 -0.0325  0.0059
   30POPC   D2A  667   3.595   8.866   6.688 -0.1574  0.0583  0.3299
   30POPC   C3A  668   3.747   8.737   6.373 -0.2297  0.0970  0.2251
   30POPC   C4A  669   3.872   8.536   6.007 -0.0375  0.4306 -0.2325
   30POPC   C1B  670   4.293   9.181   7.047 -0.2016  0.1970 -0.1693
   30POPC   C2B  671   4.217   9.484   6.846 -0.0284  0.3038  0.2259
   30POPC   C3B  672   4.077   9.647   6.474  0.1620 -0.3196 -0.0322
   30POPC   C4B  673   3.906   9.789   6.202  0.2438  0.1993 -0.1402
   31POPC   NC3  674  10.637   0.184   8.427  0.0562 -0.3555 -0.0731
   31POPC   PO4  675  10.395  -0.029   8.077 -0.0427  0.0238  0.1990
   31POPC   GL1  676  10.314   0.025   7.531  0.0908  0.0842 -0.1469
   31POPC   GL2  677  10.135  -0.111   7.488 -0.2303 -0.1578  0.1008
   31POPC   C1A  678  10.258   0.306   7.170  0.1858 -0.0358  0.2841
   31POPC   D2A  679  10.067   0.251   6.841  0.3856 -0.0163 -0.1309
   31POPC   C3A  680  10.007   0.043   6.513 -0.0670  0.3044  0.1449
   31POPC   C4A  681   9.792  -0.283   6.246  0.3080  0.4121  0.0767
   31POPC   C1B  682  10.105  -0.221   7.046 -0.0979  0.1398  0.1374
   31POPC   C2B  683  10.253  -0.388   6.652 -0.0119 -0.1211  0.0588
   31POPC   C3B  684  10.250  -0.486   6.168 -0.2124  0.0209  0.1164
   31POPC   C4B  685  10.337  -0.711   5.790  0.2587  0.1784  0.0231
   32POPC   NC3  686   4.806   0.191   7.561 -0.0981  0.0289  0.2760
   32POPC   PO4  687   5.048  -0.233   7.627  0.0312  0.1678  0.0794
   32POPC   GL1  688   4.793  -0.209   7.185  0.2965 -0.1552  0.1068
   32POPC   GL2  689   4.471  -0.109   7.088 -0.4362  0.0885  0.1061
   32POPC   C1A  690   4.749  -0.513   6.834  0.1310 -0.5201 -0.0887
   32POPC   D2A  691   4.858  -0.833   6.636 -0.3164  0.2757  0.1288
   32POPC   C3A  692   4.875  -0.715   6.157 -0.2990  0.0949 -0.1036
   32POPC   C4A  693   4.907  -0.483   5.785  0.0875  0.0374 -0.0096
   32POPC   C1B  694   4.268  -0.010   6.687  0.0493 -0.5266 -0.1797
   32POPC   C2B  695   4.247  -0.084   6.211 -0.1725 -0.4015 -0.0683
   32POPC   C3B  696   4.486  -0.177   5.823  0.2191  0.1619 -0.3011
   32POPC   C4B  697   4.396  -0.598   5.593  0.1410 -0.0154 -0.1441
   33POPC   NC3  698   6.779   6.017   7.437  0.1305  0.1070  0.1350
   33POPC   PO4  699   6.822   5.639   7.424 -0.0331  0.1916 -0.1984
   33POPC   GL1  700   6.798   5.731   6.969  0.4389  0.0697  0.0589
   33POPC   GL2  701   6.989   5.484   6.741  0.2475  0.1658 -0.0838
   33POPC   C1A  702   6.575   5.936   6.676  0.3651  0.0686 -0.3109
   33POPC   D2A  703   6.131   6.045   6.448 -0.0420 -0.0880  0.0203
   33POPC   C3A  704   6.178   5.985   5.960  0.1950 -0.2920  0.1024
   33POPC   C4A  705   6.255   6.105   5.617  0.0741  0.1308 -0.1234
   33POPC   C1B  706   6.813   5.324   6.438  0.0276  0.0919  0.0167
   33POPC   C2B  707   6.385   5.158   6.200 -0.3181 -0.0720 -0.3462
   33POPC   C3B  708   5.888   5.089   6.297  0.1895 -0.1091 -0.3416
   33POPC   C4B  709   5.545   4.766   6.437 -0.1894  0.1111 -0.1366
   34POPC   NC3  710   0.151   5.985   7.327 -0.1958  0.0667 -0.2015
   34POPC   PO4  711   0.038   5.627   7.001 -0.2408 -0.0426 -0.2422
   34POPC   GL1  712  -0.070   6.043   6.726 -0.0596  0.0287  0.0379
   34POPC   GL2  713   0.230   6.189   6.592  0.2018  0.1463  0.1602
   34POPC   C1A  714  -0.281   6.303   6.419 -0.1696 -0.0866  0.1612
   34POPC   D2A  715  -0.487   6.270   6.018 -0.1772  0.1480  0.2727
   34POPC   C3A  716  -0.446   6.542   5.662  0.2591  0.5879  0.3922
   34POPC   C4A  717  -0.344   6.979   5.681  0.2605 -0.1616  0.2250
   34POPC   C1B  718   0.182   6.017   6.113 -0.0150  0.2495 -0.2083
   34POPC   C2B  719  -0.184   5.846   5.926  0.0637  0.0615  0.4356
   34POPC   C3B  720  -0.388   5.988   5.528  0.1988  0.0555 -0.0647
   34POPC   C4B  721  -0.639   6.314   5.245 -0.0985 -0.1678  0.0275
   35POPC   NC3  722   4.900   0.603   8.096  0.2465  0.0022  0.2588
   35POPC   PO4  723   4.535   0.560   7.829  0.1516  0.0805  0.2431
   35POPC   GL1  724   4.649   0.705   7.364 -0.1306  0.1211 -0.2316
   35POPC   GL2  725   4.947   0.517   7.221 -0.2220  0.1663 -0.4527
   35POPC   C1A  726   4.703   1.000   7.017 -0.4391 -0.1020 -0.1792
   35POPC   D2A  727   5.087   1.212   7.049  0.0670  0.0428 -0.2375
   35POPC   C3A  728   5.408   1.209   6.783 -0.0784  0.2493 -0.0676
   35POPC   C4A  729   5.368   0.997   6.413  0.0895  0.0117  0.1107
   35POPC   C1B  730   4.727   0.315   6.897  0.1234  0.2243 -0.2306
   35POPC   C2B  731   4.737   0.216   6.531 -0.0580  0.2455 -0.3226
   35POPC   C3B  732   4.807   0.132   6.104  0.1966  0.0890  0.3525
   35POPC   C4B  733   5.192   0.224   5.877 -0.4231 -0.0913 -0.1732
   36POPC   NC3  734   4.138   3.727   7.360 -0.3634 -0.0888 -0.2849
   36POPC   PO4  735   3.848   4.028   7.259 -0.0098 -0.0013  0.0636
   36POPC   GL1  736   3.993   4.189   6.907 -0.3874 -0.4063  0.0671
   36POPC   GL2  737   3.989   4.572   6.811 -0.1794  0.4440  0.0154
   36POPC   C1A  738   4.229   4.054   6.531 -0.1267 -0.1876  0.4477
   36POPC   D2A  739   4.220   3.799   6.207 -0.0915  0.1326  0.1519
   36POPC   C3A  740   3.890   3.657   6.002 -0.1291  0.2017  0.1258
   36POPC   C4A  741   3.475   3.552   5.986  0.1926  0.1020 -0.1006
   36POPC   C1B  742   3.795   4.448   6.337 -0.0653  0.0540 -0.2256
   36POPC   C2B  743   3.798   4.131   5.947 -0.0562  0.1156  0.1504
   36POPC   C3B  744   4.130   3.971   5.688  0.0908 -0.0092  0.0706
   36POPC   C4B  745   4.444   3.887   5.394 -0.0056  0.1745  0.1409
   37POPC   NC3  746   9.424   6.310   7.364 -0.3341 -0.1413  0.1091
   37POPC   PO4  747   9.671   6.563   7.215 -0.0157 -0.0954 -0.1826
   37POPC   GL1  748   9.987   6.564   6.873  0.2452 -0.0113 -0.0637
   37POPC   GL2  749  10.165   6.811   7.038  0.2214  0.0356 -0.0286
   37POPC   C1A  750  10.128   6.484   6.428 -0.1042  0.0332 -0.0578
   37POPC   D2A  751  10.274   6.807   6.122  0.0441 -0.0448 -0.1877
   37POPC   C3A  752  10.037   6.827   5.707 -0.0596  0.1709  0.0245
   37POPC   C4A  753   9.913   6.709   5.398  0.0616 -0.2864  0.0742
   37POPC   C1B  754  10.031   6.982   6.632 -0.0861 -0.0478  0.1765
   37POPC   C2B  755   9.969   7.190   6.266 -0.2723  0.2216  0.0473
   37POPC   C3B  756   9.779   7.232   5.835 -0.0457 -0.0055 -0.2052
   37POPC   C4B  757   9.702   7.150   5.424 -0.1396  0.0185 -0.0229
   38POPC   NC3  758   9.709   5.556   7.166  0.1940 -0.0253 -0.0070
   38POPC   PO4  759   9.959   5.196   7.099  0.2618  0.2109  0.1990
   38POPC   GL1  760  10.027   5.289   6.691 -0.4395  0.2745 -0.0816
   38POPC   GL2  761   9.925   5.534   6.708  0.1239 -0.1514  0.1657
   38POPC   C1A  762  10.357   5.409   6.577 -0.0951 -0.0693 -0.0021
   38POPC   D2A  763  10.799   5.457   6.333  0.2367 -0.0857 -0.0003
   38POPC   C3A  764  10.807   5.130   6.040 -0.0287  0.2218 -0.1829
   38POPC   C4A  765  10.541   4.963   5.697  0.0088 -0.1359  0.3740
   38POPC   C1B  766   9.801   5.455   6.321  0.1463  0.0708  0.2194
   38POPC   C2B  767   9.514   5.204   6.039  0.0873 -0.0823  0.1727
   38POPC   C3B  768   9.067   5.295   5.806  0.1463 -0.0977 -0.0466
   38POPC   C4B  769   8.757   5.101   5.654  0.1082 -0.1364  0.0161
   39POPC   NC3  770   2.636   2.064   7.354 -0.2658 -0.4295 -0.0690
   39POPC   PO4  771   2.772   2.505   7.499 -0.1394  0.0962  0.0355
   39POPC   GL1  772   2.995   2.383   7.195  0.0386  0.0054 -0.2594
   39POPC   GL2  773   3.020   2.106   7.077 -0.1720 -0.1293  0.0207
   39POPC   C1A  774   3.051   2.622   6.866  0.1995  0.0804  0.3728
   39POPC   D2A  775   2.898   2.625   6.470  0.4933  0.3522  0.1184
   39POPC   C3A  776   3.017   2.816   6.094 -0.1204 -0.2177 -0.1911
   39POPC   C4A  777   2.778   3.141   5.895 -0.0300  0.0245  0.0286
   39POPC   C1B  778   2.846   2.155   6.705 -0.1346 -0.2281 -0.0966
   39POPC   C2B  779   2.580   2.234   6.435  0.1352  0.0697  0.0377
   39POPC   C3B  780   2.276   2.157   6.131 -0.1259  0.2440 -0.1197
   39POPC   C4B  781   2.244   2.404   5.655 -0.0823 -0.2049  0.0420
   40POPC   NC3  782   7.728  10.295   8.205 -0.0105 -0.0263 -0.0654
   40POPC   PO4  783   7.900  10.394   7.796  0.0757  0.3295 -0.0306
   40POPC   GL1  784   7.745  10.407   7.401 -0.2399  0.3238 -0.0869
   40POPC   GL2  785   8.046  10.391   7.099  0.2275  0.1886  0.1951
   40POPC   C1A  786   7.490  10.426   7.047  0.1077 -0.1511 -0.2507
   40POPC   D2A  787   7.780  10.367   6.686 -0.0382  0.2647 -0.0935
   40POPC   C3A  788   7.457  10.178   6.368  0.0832 -0.1700 -0.3311
   40POPC   C4A  789   7.062   9.979   6.337 -0.1932 -0.1788 -0.1585
   40POPC   C1B  790   8.285  10.242   6.821 -0.0782  0.3171 -0.1457
   40POPC   C2B  791   8.659  10.349   6.687  0.2636  0.1671  0.1217
   40POPC   C3B  792   8.920  10.541   6.311 -0.2846  0.0925 -0.0130
   40POPC   C4B  793   9.267  10.695   6.182 -0.0496  0.0768  0.4625
   41POPC   NC3  794   4.841   6.891   7.700 -0.0068 -0.1915  0.0258
   41POPC   PO4  795   4.893   6.467   7.811  0.0044 -0.3134  0.1234
   41POPC   GL1  796   4.810   6.532   7.338  0.3298 -0.1866 -0.2372
   41POPC   GL2  797   4.879   6.800   7.128 -0.2234  0.2143 -0.0433
   41POPC   C1A  798   4.369   6.631   7.082  0.1929 -0.1877 -0.1747
   41POPC   D2A  799   4.253   6.864   6.740 -0.0146 -0.3841 -0.2107
   41POPC   C3A  800   4.386   6.530   6.431  0.4565 -0.0716 -0.4542
   41POPC   C4A  801   4.766   6.260   6.328 -0.0935 -0.2760 -0.4042
   41POPC   C1B  802   5.283   6.943   6.886  0.0680 -0.1073 -0.2442
   41POPC   C2B  803   5.595   6.899   6.640  0.1133 -0.0109  0.1001
   41POPC   C3B  804   5.738   6.790   6.231 -0.1877  0.5605  0.1221
   41POPC   C4B  805   5.861   6.918   5.905  0.0362 -0.0427 -0.1546
   42POPC   NC3  806   4.280   4.178   7.408  0.1167 -0.3364  0.1976
   42POPC   PO4  807   4.424   4.432   7.076  0.3393  0.0104  0.0332
   42POPC   GL1  808   4.488   4.785   6.753  0.2500  0.3370 -0.0002
   42POPC   GL2  809   4.510   5.015   6.848 -0.1841  0.3165  0.0291
   42POPC   C1A  810   4.375   4.621   6.345 -0.1761 -0.0576 -0.0284
   42POPC   D2A  811   4.352   4.287   6.118 -0.0198 -0.0789 -0.2040
   42POPC   C3A  812   4.620   3.950   5.928  0.4845 -0.2118  0.1912
   42POPC   C4A  813   4.764   3.639   5.771  0.1811  0.2100  0.2743
   42POPC   C1B  814   4.668   5.228   6.461 -0.2504 -0.2646 -0.3770
   42POPC   C2B  815   5.009   5.088   6.248 -0.2861 -0.0887 -0.2340
   42POPC   C3B  816   5.102   4.853   5.936  0.0157  0.1239  0.0578
   42POPC   C4B  817   5.277   4.740   5.541 -0.0404 -0.1176  0.2476
   43POPC   NC3  818   4.338   5.434   7.340  0.0015  0.1202 -0.2965
   43POPC   PO4  819   4.591   5.140   7.364 -0.0047  0.0197  0.3051
   43POPC   GL1  820   4.710   5.478   6.933 -0.2612 -0.2147  0.3902
   43POPC   GL2  821   4.880   5.774   7.032 -0.1463  0.0626  0.0447
   43POPC   C1A  822   4.514   5.795   6.634  0.1768  0.0816  0.0118
   43POPC   D2A  823   4.362   6.029   6.202 -0.1469 -0.0604 -0.2024
   43POPC   C3A  824   4.305   6.105   5.838 -0.2081  0.1775  0.0329
   43POPC   C4A  825   4.361   5.781   5.550 -0.3559 -0.0654  0.3766
   43POPC   C1B  826   5.000   5.638   6.581  0.0213 -0.1086  0.0387
   43POPC   C2B  827   5.073   5.589   6.190 -0.0460  0.0121  0.1791
   43POPC   C3B  828   4.983   5.445   5.856  0.0337 -0.0734 -0.5058
   43POPC   C4B  829   5.032   5.180   5.500  0.0873 -0.0927  0.2298
   44POPC   NC3  830  10.654   5.307   7.197 -0.0723 -0.1571  0.0766
   44POPC   PO4  831  10.945   5.007   7.328  0.3233  0.1726 -0.2292
   44POPC   GL1  832  10.978   4.880   6.945 -0.0229 -0.1248 -0.2186
   44POPC   GL2  833  10.855   5.108   6.770 -0.1957  0.2393  0.1883
   44POPC   C1A  834  11.119   4.748   6.550 -0.1614  0.0554 -0.0079
   44POPC   D2A  835  11.236   4.967   6.224 -0.3001 -0.2085 -0.2571
   44POPC   C3A  836  11.647   4.947   6.088  0.1362 -0.0302 -0.0177
   44POPC   C4A  837  12.029   5.178   6.056 -0.1225 -0.1040  0.1491
   44POPC   C1B  838  10.635   4.885   6.533 -0.2138  0.1639 -0.0320
   44POPC   C2B  839  10.361   5.063   6.154  0.0124  0.1030 -0.0379
   44POPC   C3B  840  10.414   5.439   5.815 -0.3023  0.1294 -0.0158
   44POPC   C4B  841  10.547   5.421   5.430 -0.2606 -0.0174 -0.0832
   45POPC   NC3  842  10.386   3.409   7.911 -0.1107 -0.3272 -0.1369
   45POPC   PO4  843  10.193   3.080   7.793 -0.2467 -0.2025 -0.2822
   45POPC   GL1  844   9.949   2.966   7.530 -0.0596 -0.1918 -0.0361
   45POPC   GL2  845  10.067   2.707   7.354  0.1225 -0.2609 -0.1219
   45POPC   C1A  846   9.753   2.921   7.106 -0.1684  0.1651 -0.0797
   45POPC   D2A  847   9.315   3.015   7.064 -0.0039  0.0591 -0.0752
   45POPC   C3A  848   9.229   3.494   7.057 -0.0164 -0.0774 -0.3128
   45POPC   C4A  849   8.789   3.628   7.065 -0.0620 -0.0930  0.3207
   45POPC   C1B  850  10.015   2.475   6.939 -0.1337 -0.1581  0.0325
   45POPC   C2B  851   9.856   2.167   6.658 -0.2088  0.1221 -0.0245
   45POPC   C3B  852   9.481   2.126   6.529 -0.1737 -0.0559 -0.2242
   45POPC   C4B  853   9.102   2.359   6.434 -0.2544 -0.3456 -0.1588
   46POPC   NC3  854   8.347   5.843   7.954 -0.0703  0.3782  0.1628
   46POPC   PO4  855   8.193   5.969   7.551 -0.1469  0.0878 -0.0238
   46POPC   GL1  856   8.297   5.897   7.055 -0.1417 -0.1318  0.0119
   46POPC   GL2  857   8.540   6.140   6.798  0.1886  0.3403 -0.1235
   46POPC   C1A  858   8.135   5.689   6.666 -0.4100  0.1666  0.1537
   46POPC   D2A  859   7.786   5.569   6.350 -0.2362  0.1445  0.1278
   46POPC   C3A  860   7.786   5.663   5.913 -0.1437 -0.0802  0.4617
   46POPC   C4A  861   8.210   5.871   5.623  0.2034 -0.2652 -0.1019
   46POPC   C1B  862   8.423   6.317   6.414  0.2710  0.3315  0.0336
   46POPC   C2B  863   8.241   6.428   6.028  0.0803 -0.0871 -0.2152
   46POPC   C3B  864   7.872   6.486   5.925 -0.0746 -0.2800  0.1317
   46POPC   C4B  865   7.597   6.162   5.796  0.0045  0.1511  0.0891
   47POPC   NC3  866   5.054   4.018   7.605  0.0413 -0.0418 -0.0676
   47POPC   PO4  867   4.620   3.783   7.484 -0.0694  0.1458  0.1816
   47POPC   GL1  868   4.641   3.583   7.111 -0.1722 -0.0482  0.1317
   47POPC   GL2  869   4.529   3.945   7.010  0.1659 -0.1018 -0.2034
   47POPC   C1A  870   4.496   3.673   6.616  0.1248  0.0949 -0.0039
   47POPC   D2A  871   4.622   3.539   6.291  0.0786  0.1600  0.3699
   47POPC   C3A  872   4.561   3.208   6.008 -0.1392 -0.0625 -0.1585
   47POPC   C4A  873   4.738   3.080   5.585 -0.1939 -0.0022 -0.0351
   47POPC   C1B  874   4.817   4.121   6.663 -0.3079  0.1468  0.0883
   47POPC   C2B  875   5.040   3.921   6.354  0.0258  0.2358 -0.0373
   47POPC   C3B  876   5.447   3.794   6.425 -0.0293 -0.0414 -0.3429
   47POPC   C4B  877   5.702   3.764   6.763  0.1524  0.0116 -0.1679
   48POPC   NC3  878   1.309   4.668   7.284 -0.0001 -0.1431  0.1773
   48POPC   PO4  879   1.688   4.849   7.440  0.2107 -0.0607 -0.0696
   48POPC   GL1  880   1.792   4.738   6.929 -0.2538  0.2375 -0.2038
   48POPC   GL2  881   1.631   4.893   6.667 -0.0249  0.1988  0.0510
   48POPC   C1A  882   1.558   4.388   6.539 -0.0661  0.1248 -0.1012
   48POPC   D2A  883   1.405   3.967   6.473  0.0600  0.1492 -0.1031
   48POPC   C3A  884   1.376   3.747   6.099 -0.0979  0.1651 -0.0100
   48POPC   C4A  885   1.451   3.884   5.681 -0.2253 -0.4482 -0.0773
   48POPC   C1B  886   1.891   4.683   6.304  0.0411 -0.0737 -0.0980
   48POPC   C2B  887   2.008   4.506   5.853 -0.1097  0.0184 -0.1789
   48POPC   C3B  888   2.163   4.614   5.417 -0.0301  0.1169  0.1894
   48POPC   C4B  889   2.255   5.049   5.170 -0.1006 -0.1118 -0.1937
   49POPC   NC3  890   1.999   5.141   7.906  0.1866 -0.2635  0.1070
   49POPC   PO4  891   2.321   5.436   7.770  0.0492 -0.0948  0.1204
   49POPC   GL1  892   2.169   5.199   7.392 -0.0297 -0.2960 -0.1538
   49POPC   GL2  893   2.382   5.316   7.097  0.0744  0.2244  0.2268
   49POPC   C1A  894   1.895   5.225   6.962 -0.2982  0.1150 -0.1456
   49POPC   D2A  895   1.657   5.502   6.706  0.3586  0.1170 -0.0790
   49POPC   C3A  896   1.525   5.367   6.328  0.1489 -0.1737 -0.0495
   49POPC   C4A  897   1.640   5.120   6.005  0.3657  0.0561 -0.3300
   49POPC   C1B  898   2.254   5.451   6.682  0.1104  0.0643 -0.1265
   49POPC   C2B  899   2.093   5.506   6.192 -0.0835 -0.2621 -0.4185
   49POPC   C3B  900   2.017   5.579   5.743  0.3367 -0.2702  0.1198
   49POPC   C4B  901   1.760   5.440   5.417 -0.1062 -0.0559 -0.0596
   50POPC   NC3  902   0.428   6.378   7.153 -0.1740  0.1570 -0.0062
   50POPC   PO4  903   0.207   6.450   7.566 -0.0623 -0.1997 -0.0842
   50POPC   GL1  904  -0.047   6.418   7.104  0.2276 -0.0523 -0.0681
   50POPC   GL2  905  -0.383   6.487   6.957 -0.1192 -0.0305  0.0422
   50POPC   C1A  906   0.097   6.641   6.722  0.0289  0.0827  0.0281
   50POPC   D2A  907   0.149   6.711   6.298  0.1131 -0.1083  0.1367
   50POPC   C3A  908  -0.005   6.677   5.884 -0.0783  0.2517 -0.1745
   50POPC   C4A  909   0.012   6.283   5.661  0.2572 -0.1523 -0.0387
   50POPC   C1B  910  -0.352   6.755   6.577 -0.3694 -0.2343 -0.0812
   50POPC   C2B  911  -0.201   7.008   6.247 -0.0804  0.1910  0.4176
   50POPC   C3B  912   0.091   7.128   5.942  0.1243 -0.0715 -0.1775
   50POPC   C4B  913   0.320   7.326   5.658 -0.0170  0.1973 -0.1972
   51POPC   NC3  914   4.155   0.958   7.981  0.0927  0.1811  0.0371
   51POPC   PO4  915   4.204   1.212   7.786 -0.3404 -0.0428 -0.3191
   51POPC   GL1  916   4.254   1.047   7.235 -0.1374 -0.0181 -0.0684
   51POPC   GL2  917   4.187   0.712   7.110  0.0442 -0.0857 -0.1563
   51POPC   C1A  918   4.370   1.198   6.730  0.3353 -0.1587 -0.4294
   51POPC   D2A  919   4.241   1.358   6.333 -0.0000 -0.0734  0.1338
   51POPC   C3A  920   3.969   1.414   5.929  0.1022 -0.1125 -0.2946
   51POPC   C4A  921   3.823   1.776   5.769  0.1944 -0.0371 -0.0121
   51POPC   C1B  922   4.394   0.698   6.697 -0.2438 -0.2599  0.0269
   51POPC   C2B  923   4.741   0.721   6.421 -0.2293  0.0107  0.2219
   51POPC   C3B  924   4.926   0.757   6.069 -0.1153 -0.2191 -0.2509
   51POPC   C4B  925   5.347   0.820   5.869  0.0786 -0.2629 -0.0809
   52POPC   NC3  926   2.438   3.420   7.888  0.5161 -0.1095  0.0277
   52POPC   PO4  927   2.082   3.614   7.797 -0.1244  0.3890 -0.1769
   52POPC   GL1  928   2.206   3.437   7.406  0.3236  0.0252 -0.0529
   52POPC   GL2  929   2.536   3.411   7.322 -0.5909  0.1101 -0.2843
   52POPC   C1A  930   2.057   3.638   6.958  0.2135 -0.0261 -0.0066
   52POPC   D2A  931   1.869   3.822   6.704  0.0287 -0.1432 -0.0396
   52POPC   C3A  932   1.848   3.862   6.220 -0.1125 -0.4434 -0.1942
   52POPC   C4A  933   1.917   3.966   5.777 -0.0496 -0.0763  0.1913
   52POPC   C1B  934   2.400   3.262   6.914  0.0769  0.2644 -0.1683
   52POPC   C2B  935   2.107   3.300   6.509 -0.0297  0.0724  0.1307
   52POPC   C3B  936   1.870   3.192   6.158  0.2471 -0.0546 -0.4005
   52POPC   C4B  937   1.807   3.267   5.678  0.1755  0.0599 -0.1629
   53POPC   NC3  938   7.861   0.503   8.339 -0.2543 -0.0576  0.0933
   53POPC   PO4  939   7.531   0.421   8.127 -0.1439  0.2510  0.1068
   53POPC   GL1  940   7.445   0.283   7.711 -0.4033 -0.3307 -0.0341
   53POPC   GL2  941   7.272   0.418   7.534  0.1519  0.3566 -0.0385
   53POPC   C1A  942   7.735   0.028   7.355  0.1158 -0.1120 -0.0798
   53POPC   D2A  943   7.870  -0.089   7.005 -0.1579 -0.0991  0.0036
   53POPC   C3A  944   7.850  -0.027   6.643  0.3806  0.0433 -0.0087
   53POPC   C4A  945   7.741  -0.202   6.263 -0.0451  0.3756 -0.1566
   53POPC   C1B  946   7.174   0.547   7.076  0.0622 -0.0931  0.1742
   53POPC   C2B  947   7.403   0.721   6.757 -0.2993 -0.0380 -0.3158
   53POPC   C3B  948   7.256   0.804   6.345 -0.0387  0.1480  0.2063
   53POPC   C4B  949   7.194   1.003   5.878 -0.0935 -0.0209  0.0215
   54POPC   NC3  950   7.596   5.733   7.723  0.1496  0.1224 -0.0439
   54POPC   PO4  951   7.677   6.155   7.486 -0.1375 -0.1833 -0.0764
   54POPC   GL1  952   7.750   6.055   7.125  0.0653 -0.0418  0.1833
   54POPC   GL2  953   7.939   6.166   6.814 -0.1072  0.2551  0.2460
   54POPC   C1A  954   7.537   5.824   6.748 -0.3758 -0.0321 -0.2997
   54POPC   D2A  955   7.376   5.846   6.242 -0.0265  0.1172 -0.0752
   54POPC   C3A  956   7.272   5.700   5.872  0.2463 -0.2914  0.0533
   54POPC   C4A  957   7.531   5.483   5.490 -0.1919  0.2226  0.2521
   54POPC   C1B  958   7.864   6.061   6.411 -0.3685  0.1291  0.0297
   54POPC   C2B  959   8.125   5.948   6.139 -0.1214  0.1032  0.1143
   54POPC   C3B  960   8.496   5.977   5.986  0.1615  0.2986  0.0262
   54POPC   C4B  961   8.829   6.231   6.001 -0.1739  0.0246 -0.1802
   55POPC   NC3  962   2.451   7.794   7.145  0.0689 -0.0201 -0.0315
   55POPC   PO4  963   2.130   7.641   6.853  0.0692  0.0869 -0.2590
   55POPC   GL1  964   2.141   7.271   6.577  0.1225  0.2214  0.0078
   55POPC   GL2  965   1.785   7.262   6.386 -0.0715 -0.1997 -0.1269
   55POPC   C1A  966   2.140   6.885   6.230 -0.0857 -0.1548  0.0971
   55POPC   D2A  967   2.296   6.473   6.352  0.1949 -0.1430  0.0125
   55POPC   C3A  968   2.639   6.296   6.214  0.0886 -0.0028 -0.1244
   55POPC   C4A  969   2.897   6.212   5.854 -0.1006 -0.2292 -0.1814
   55POPC   C1B  970   1.680   7.095   5.963  0.1006  0.2149  0.0023
   55POPC   C2B  971   1.506   6.946   5.615  0.1638 -0.2571  0.2221
   55POPC   C3B  972   1.255   6.948   5.290 -0.0550 -0.0091 -0.1177
   55POPC   C4B  973   0.903   6.735   5.252  0.0184  0.3095  0.2541
   56POPC   NC3  974   7.269   8.514   8.338 -0.3273  0.3366  0.1724
   56POPC   PO4  975   7.408   8.126   7.909  0.0018 -0.0280  0.1934
   56POPC   GL1  976   7.289   8.071   7.479 -0.2333  0.1641  0.0495
   56POPC   GL2  977   7.102   8.262   7.251 -0.2113  0.2160  0.1371
   56POPC   C1A  978   7.633   8.181   7.063 -0.0057  0.0003 -0.1090
   56POPC   D2A  979   7.573   8.173   6.679 -0.3660  0.0871 -0.1060
   56POPC   C3A  980   7.771   8.306   6.288 -0.3109  0.0305  0.0300
   56POPC   C4A  981   8.117   8.402   6.057 -0.2365  0.0517  0.3204
   56POPC   C1B  982   7.016   8.262   6.719 -0.0329 -0.2796  0.3670
   56POPC   C2B  983   7.227   8.085   6.348 -0.0944 -0.0300 -0.1591
   56POPC   C3B  984   7.224   8.166   5.967  0.2623  0.1111  0.3113
   56POPC   C4B  985   7.429   8.295   5.562  0.2625  0.2588 -0.1398
   57POPC   NC3  986   4.659   8.026   7.573 -0.0801  0.3076  0.0053
   57POPC   PO4  987   5.004   8.214   7.624  0.0646 -0.1511  0.0278
   57POPC   GL1  988   4.951   8.342   7.183 -0.0846  0.2154  0.1062
   57POPC   GL2  989   5.073   8.588   6.913  0.0696  0.0339 -0.0928
   57POPC   C1A  990   5.166   8.079   6.768 -0.1732 -0.2881 -0.1801
   57POPC   D2A  991   4.995   8.189   6.294 -0.2174  0.2247 -0.1630
   57POPC   C3A  992   4.809   7.993   6.120 -0.0799 -0.2125  0.1029
   57POPC   C4A  993   4.523   7.842   5.859  0.1203  0.2567  0.1192
   57POPC   C1B  994   5.318   8.760   6.556  0.0492  0.0327 -0.0597
   57POPC   C2B  995   5.712   8.785   6.348  0.0865 -0.1103 -0.1812
   57POPC   C3B  996   5.894   8.604   6.007 -0.1631  0.0372  0.2725
   57POPC   C4B  997   5.857   8.777   5.545  0.1641 -0.0774  0.1760
   58POPC   NC3  998   5.533   5.387   7.970  0.2626 -0.2575  0.1480
   58POPC   PO4  999   5.817   5.200   7.537  0.1097 -0.0210  0.1994
   58POPC   GL1 1000   5.718   5.439   7.128 -0.1401 -0.0832 -0.0224
   58POPC   GL2 1001   5.405   5.535   6.982 -0.2374 -0.3633 -0.0057
   58POPC   C1A 1002   5.934   5.613   6.753  0.0418 -0.0393 -0.4434
   58POPC   D2A 1003   6.059   5.567   6.446  0.1992 -0.1716 -0.1062
   58POPC   C3A 1004   6.383   5.678   6.287  0.0961 -0.0852  0.0942
   58POPC   C4A 1005   6.844   5.762   6.245 -0.1979  0.0465  0.0253
   58POPC   C1B 1006   5.468   5.312   6.554  0.2303 -0.1806  0.1093
   58POPC   C2B 1007   5.494   5.229   6.077  0.2916 -0.0297 -0.0260
   58POPC   C3B 1008   5.497   5.426   5.726 -0.1038 -0.0338 -0.1814
   58POPC   C4B 1009   5.461   5.574   5.307 -0.2310  0.1563 -0.2010
   59POPC   NC3 1010   9.013   5.426   7.364  0.0145 -0.2711  0.0358
   59POPC   PO4 1011   8.649   5.158   7.363  0.0365 -0.1742 -0.0260
   59POPC   GL1 1012   8.845   4.986   7.033 -0.0289  0.0628 -0.2762
   59POPC   GL2 1013   9.067   5.262   6.894 -0.0594  0.0146 -0.0943
   59POPC   C1A 1014   8.843   4.699   6.722 -0.0712  0.0479 -0.2253
   59POPC   D2A 1015   9.176   4.866   6.547 -0.1305 -0.0446 -0.0689
   59POPC   C3A 1016   9.165   4.809   6.166  0.0484  0.3604 -0.1990
   59POPC   C4A 1017   9.014   4.639   5.767 -0.2238 -0.0794 -0.3838
   59POPC   C1B 1018   8.699   5.152   6.562 -0.1343  0.1877 -0.2886
   59POPC   C2B 1019   8.708   5.039   6.230 -0.3055  0.1979 -0.1882
   59POPC   C3B 1020   8.371   4.799   5.952  0.1993  0.0316 -0.0284
   59POPC   C4B 1021   8.278   5.042   5.472 -0.1906  0.1231  0.1617
   60POPC   NC3 1022  10.172   0.968   7.995 -0.0549 -0.2759  0.0169
   60POPC   PO4 1023  10.227   0.502   7.767  0.2205 -0.0807  0.1971
   60POPC   GL1 1024   9.880   0.377   7.490 -0.1110 -0.0233  0.1242
   60POPC   GL2 1025   9.596   0.486   7.408  0.2167  0.2017  0.0970
   60POPC   C1A 1026   9.718   0.106   7.162  0.1414  0.3081  0.0058
   60POPC   D2A 1027   9.632  -0.115   6.768  0.1178  0.1999 -0.0728
   60POPC   C3A 1028   9.375  -0.420   6.684  0.0611  0.2794  0.1286
   60POPC   C4A 1029   9.102  -0.789   6.545 -0.0236  0.0159 -0.0261
   60POPC   C1B 1030   9.674   0.538   6.947 -0.0086 -0.2195 -0.6660
   60POPC   C2B 1031   9.640   0.400   6.508 -0.1442  0.3295 -0.2611
   60POPC   C3B 1032   9.866   0.372   6.154  0.0034 -0.2119  0.2039
   60POPC   C4B 1033  10.195   0.335   5.909  0.1740  0.0979 -0.0582
   61POPC   NC3 1034  10.286   8.990   7.583  0.0992  0.2364 -0.0297
   61POPC   PO4 1035  10.613   9.122   7.434  0.0781 -0.2812  0.3170
   61POPC   GL1 1036  10.649   9.203   7.038 -0.1961  0.0553 -0.2441
   61POPC   GL2 1037  10.983   9.173   6.851  0.0338 -0.0324 -0.3240
   61POPC   C1A 1038  10.340   9.136   6.682  0.1305  0.1185  0.0845
   61POPC   D2A 1039  10.018   8.868   6.359  0.2260 -0.0356 -0.1966
   61POPC   C3A 1040   9.559   8.820   6.602  0.2777 -0.0270 -0.1359
   61POPC   C4A 1041   9.275   9.132   6.632 -0.1514  0.2824  0.0806
   61POPC   C1B 1042  10.768   9.066   6.469 -0.0761 -0.2390  0.1266
   61POPC   C2B 1043  10.787   9.148   6.079  0.3565  0.0022 -0.0961
   61POPC   C3B 1044  10.492   9.218   5.740 -0.2956 -0.0844  0.0297
   61POPC   C4B 1045  10.549   9.094   5.418  0.3201  0.2362  0.0313
   62POPC   NC3 1046   5.980   3.420   7.571 -0.1689 -0.4590  0.1160
   62POPC   PO4 1047   5.601   3.727   7.736 -0.0785  0.0021  0.0597
   62POPC   GL1 1048   5.466   3.632   7.294  0.4516  0.3546  0.1949
   62POPC   GL2 1049   5.208   3.793   6.988 -0.1877 -0.1783 -0.1099
   62POPC   C1A 1050   5.437   3.331   6.901 -0.1697  0.0583 -0.0026
   62POPC   D2A 1051   5.630   3.323   6.563  0.2522  0.0081 -0.1039
   62POPC   C3A 1052   5.993   3.608   6.395  0.3935  0.2418  0.1249
   62POPC   C4A 1053   6.376   3.863   6.319  0.2384 -0.0648 -0.2417
   62POPC   C1B 1054   5.016   3.514   6.672  0.0423 -0.2345  0.0031
   62POPC   C2B 1055   5.186   3.410   6.244 -0.1433 -0.0060  0.0183
   62POPC   C3B 1056   5.207   3.380   5.689  0.0407 -0.1069 -0.0650
   62POPC   C4B 1057   5.027   3.336   5.235  0.4380  0.2926  0.0393
   63POPC   NC3 1058   9.713   9.684   7.935  0.2894 -0.0399 -0.2755
   63POPC   PO4 1059   9.631  10.009   7.758 -0.0818  0.1247  0.0811
   63POPC   GL1 1060   9.777  10.151   7.383 -0.1884 -0.0099  0.1064
   63POPC   GL2 1061  10.105  10.256   7.336  0.1693  0.0595 -0.2119
   63POPC   C1A 1062   9.762  10.274   6.995  0.2296 -0.0625  0.1509
   63POPC   D2A 1063   9.778  10.159   6.555  0.0467  0.1910 -0.0718
   63POPC   C3A 1064   9.487  10.225   6.256  0.0669 -0.4135 -0.1451
   63POPC   C4A 1065   9.411   9.918   5.852  0.0583 -0.2597 -0.1538
   63POPC   C1B 1066  10.244  10.010   6.957  0.0994 -0.6548  0.2336
   63POPC   C2B 1067  10.358  10.048   6.520 -0.3196 -0.0018 -0.0467
   63POPC   C3B 1068  10.590   9.949   6.068  0.2740  0.2198  0.0565
   63POPC   C4B 1069  10.315   9.690   5.781 -0.1339 -0.4563  0.2034
   64POPC   NC3 1070  10.353   0.967   7.465  0.1273  0.3192 -0.0738
   64POPC   PO4 1071  10.322   1.320   7.591  0.1798  0.0063 -0.4122
   64POPC   GL1 1072  10.237   1.410   7.137  0.1372 -0.0309 -0.2304
   64POPC   GL2 1073  10.076   1.414   6.982  0.0768 -0.0979 -0.0379
   64POPC   C1A 1074  10.383   1.370   6.634  0.1717 -0.1247 -0.1232
   64POPC   D2A 1075  10.301   1.307   6.248  0.0091  0.0429 -0.2275
   64POPC   C3A 1076  10.601   1.600   6.004  0.0829  0.1085  0.3094
   64POPC   C4A 1077  10.515   1.894   5.635  0.1986 -0.1867 -0.0425
   64POPC   C1B 1078   9.959   1.591   6.681 -0.1730 -0.3386 -0.2327
   64POPC   C2B 1079   9.676   1.573   6.283 -0.1995  0.0445  0.3389
   64POPC   C3B 1080   9.579   1.756   6.047  0.2429 -0.0592  0.3756
   64POPC   C4B 1081   9.525   1.839   5.584  0.2223  0.1525 -0.0375
   65POPC   NC3 1082   6.377   3.428   7.881 -0.1274  0.0809 -0.0276
   65POPC   PO4 1083   6.368   3.126   7.449  0.2494  0.4102  0.0549
   65POPC   GL1 1084   6.350   3.083   7.083 -0.0544 -0.0386  0.1966
   65POPC   GL2 1085   6.266   3.184   6.599  0.0522 -0.1115  0.1586
   65POPC   C1A 1086   6.528   2.788   6.731  0.1247 -0.0770 -0.1759
   65POPC   D2A 1087   6.807   2.405   6.782  0.3593  0.0506 -0.2271
   65POPC   C3A 1088   6.938   2.433   6.350 -0.3095 -0.1286 -0.0333
   65POPC   C4A 1089   7.122   2.603   5.969  0.1529 -0.0975  0.3163
   65POPC   C1B 1090   6.306   3.193   6.129  0.0893  0.2026 -0.0074
   65POPC   C2B 1091   6.561   3.215   5.747 -0.1813 -0.1046 -0.0334
   65POPC   C3B 1092   6.950   3.220   5.651  0.1360 -0.0028 -0.1348
   65POPC   C4B 1093   7.235   3.425   5.816 -0.0868 -0.0427 -0.1648
   66POPC   NC3 1094   6.289   8.993   7.474  0.0978 -0.2274  0.0113
   66POPC   PO4 1095   6.751   8.821   7.516 -0.0570 -0.0766  0.0371
   66POPC   GL1 1096   6.725   8.587   7.116  0.3099 -0.0408  0.1009
   66POPC   GL2 1097   6.931   8.642   7.021 -0.1704  0.3410  0.2107
   66POPC   C1A 1098   6.499   8.614   6.723 -0.0048 -0.1677 -0.3084
   66POPC   D2A 1099   6.313   8.644   6.321  0.1684 -0.0562 -0.0670
   66POPC   C3A 1100   6.423   8.332   5.988  0.1900  0.0456  0.2285
   66POPC   C4A 1101   6.359   7.935   5.892 -0.0922  0.1209  0.1431
   66POPC   C1B 1102   7.296   8.629   6.899  0.0469  0.0403  0.0229
   66POPC   C2B 1103   7.404   8.580   6.484 -0.1781  0.4332 -0.1304
   66POPC   C3B 1104   7.481   8.648   6.049  0.0930 -0.2821  0.1201
   66POPC   C4B 1105   7.518   8.808   5.691 -0.0092  0.1468 -0.0771
   67POPC   NC3 1106   5.836   6.668   7.684  0.0879 -0.1201  0.1556
   67POPC   PO4 1107   5.873   6.395   7.313 -0.3265  0.0560 -0.0084
   67POPC   GL1 1108   5.929   6.424   6.966 -0.0116 -0.1542 -0.2978
   67POPC   GL2 1109   5.878   6.147   6.860  0.2368  0.1224  0.2085
   67POPC   C1A 1110   6.047   6.494   6.567  0.0180 -0.0088 -0.3952
   67POPC   D2A 1111   6.143   6.557   6.137  0.1399 -0.0069 -0.1744
   67POPC   C3A 1112   6.446   6.516   5.807  0.2051 -0.1510 -0.1642
   67POPC   C4A 1113   6.690   6.712   5.567  0.0084  0.3103  0.1787
   67POPC   C1B 1114   5.609   5.923   6.522 -0.3933  0.2319  0.1807
   67POPC   C2B 1115   5.743   5.722   6.113  0.0416 -0.2555  0.0541
   67POPC   C3B 1116   5.996   5.434   5.896 -0.1950 -0.1230  0.2467
   67POPC   C4B 1117   5.964   5.290   5.462 -0.4703  0.2555  0.0637
   68POPC   NC3 1118   8.886   8.997   7.928 -0.3112 -0.0148 -0.0174
   68POPC   PO4 1119   8.569   9.207   7.843  0.0680 -0.2346  0.1417
   68POPC   GL1 1120   8.637   9.110   7.363  0.0670 -0.0904  0.3213
   68POPC   GL2 1121   8.837   9.240   7.119 -0.0808 -0.0893  0.0442
   68POPC   C1A 1122   8.274   9.178   6.996 -0.1773 -0.0572 -0.4632
   68POPC   D2A 1123   8.184   9.284   6.523 -0.1533 -0.1051  0.1755
   68POPC   C3A 1124   7.864   9.349   6.263  0.3259  0.0112 -0.1063
   68POPC   C4A 1125   7.561   9.240   5.935  0.0250  0.0282 -0.1302
   68POPC   C1B 1126   8.714   9.328   6.716 -0.1187 -0.0496 -0.0146
   68POPC   C2B 1127   8.601   9.281   6.207 -0.0210  0.2257  0.0900
   68POPC   C3B 1128   8.390   9.369   5.944 -0.0655  0.1869  0.0413
   68POPC   C4B 1129   8.122   9.886   6.017 -0.2611  0.0944  0.1566
   69POPC   NC3 1130   3.179   2.889   7.700 -0.0244  0.2632  0.0208
   69POPC   PO4 1131   2.833   3.200   7.710  0.2253  0.2107 -0.1809
   69POPC   GL1 1132   2.897   2.996   7.307 -0.2540  0.0829  0.0528
   69POPC   GL2 1133   3.268   2.863   7.203 -0.0572 -0.0654  0.0972
   69POPC   C1A 1134   2.849   3.053   6.859  0.1254  0.2838 -0.0251
   69POPC   D2A 1135   2.751   3.218   6.490 -0.0870  0.5729  0.1921
   69POPC   C3A 1136   2.600   3.634   6.565  0.0501 -0.0044 -0.1798
   69POPC   C4A 1137   2.355   3.964   6.760 -0.2358  0.0099 -0.1233
   69POPC   C1B 1138   3.502   3.057   6.894  0.0546  0.0574  0.1141
   69POPC   C2B 1139   3.287   3.009   6.531  0.1570 -0.4409 -0.1804
   69POPC   C3B 1140   3.117   3.317   6.199  0.0501 -0.0276 -0.1058
   69POPC   C4B 1141   3.011   3.690   5.993 -0.0616 -0.2506 -0.0988
   70POPC   NC3 1142   3.405   0.143   7.668 -0.0342 -0.1580  0.1940
   70POPC   PO4 1143   3.691   0.293   7.564  0.0048 -0.0974  0.4244
   70POPC   GL1 1144   3.571   0.268   7.176  0.3611 -0.0399  0.0369
   70POPC   GL2 1145   3.825   0.233   7.047 -0.0157  0.0672 -0.0560
   70POPC   C1A 1146   3.391   0.293   6.704 -0.1991 -0.2048 -0.1447
   70POPC   D2A 1147   3.289   0.018   6.335  0.2330  0.1264  0.0442
   70POPC   C3A 1148   2.905   0.010   6.005  0.5879 -0.1861 -0.0723
   70POPC   C4A 1149   2.695  -0.307   6.017 -0.4078  0.0333 -0.1111
   70POPC   C1B 1150   3.990   0.422   6.772  0.0747  0.2207  0.1363
   70POPC   C2B 1151   4.352   0.458   6.269  0.4210  0.0362 -0.4099
   70POPC   C3B 1152   4.346   0.295   5.864  0.0100  0.3939  0.0669
   70POPC   C4B 1153   4.031   0.141   5.611  0.1566  0.1087 -0.2296
   71POPC   NC3 1154   9.198   2.106   7.887  0.1580 -0.2037 -0.1105
   71POPC   PO4 1155   9.033   1.768   7.862 -0.1684  0.2614 -0.0910
   71POPC   GL1 1156   8.844   1.903   7.522  0.1318  0.1423 -0.0021
   71POPC   GL2 1157   8.533   2.041   7.587  0.0441  0.0370  0.1756
   71POPC   C1A 1158   8.645   1.760   7.090  0.0117 -0.2096 -0.0768
   71POPC   D2A 1159   8.649   1.827   6.625  0.0792 -0.1883  0.0465
   71POPC   C3A 1160   8.337   1.805   6.333 -0.2128 -0.0200  0.1940
   71POPC   C4A 1161   8.388   1.670   5.848 -0.1394  0.0985 -0.2271
   71POPC   C1B 1162   8.198   1.975   7.244  0.0794  0.0367 -0.2554
   71POPC   C2B 1163   8.255   2.024   6.820 -0.2725 -0.1826  0.0552
   71POPC   C3B 1164   8.466   2.287   6.439 -0.0220  0.2324 -0.0784
   71POPC   C4B 1165   8.696   2.346   6.129 -0.1282 -0.1587 -0.1848
   72POPC   NC3 1166   1.497   9.058   7.459  0.4085 -0.0757  0.1307
   72POPC   PO4 1167   1.657   9.244   7.033 -0.0906 -0.2634  0.0702
   72POPC   GL1 1168   1.763   9.533   6.796 -0.2381  0.2025 -0.4210
   72POPC   GL2 1169   1.488   9.702   6.756  0.0944 -0.0541 -0.0237
   72POPC   C1A 1170   1.773  10.057   6.760  0.0968  0.1575 -0.0988
   72POPC   D2A 1171   1.996  10.448   6.609  0.0308 -0.0826 -0.0745
   72POPC   C3A 1172   2.102  10.883   6.777 -0.3820 -0.3022 -0.2368
   72POPC   C4A 1173   2.389  11.255   6.535 -0.1501 -0.0720 -0.1400
   72POPC   C1B 1174   1.142   9.926   6.770 -0.1197 -0.1881 -0.1130
   72POPC   C2B 1175   0.718   9.911   6.746 -0.0962 -0.1002  0.3289
   72POPC   C3B 1176   0.414   9.730   6.477  0.1829  0.2414 -0.2030
   72POPC   C4B 1177   0.197   9.467   6.431 -0.2343 -0.4299 -0.0957
   73POPC   NC3 1178   9.035   6.218   7.677 -0.3308  0.2967 -0.0481
   73POPC   PO4 1179   9.220   5.841   7.464 -0.2169 -0.0917 -0.2070
   73POPC   GL1 1180   9.277   5.723   7.009  0.2990  0.2618  0.1187
   73POPC   GL2 1181   9.443   5.848   6.840 -0.1295  0.1521 -0.3905
   73POPC   C1A 1182   8.964   5.797   6.693  0.1456 -0.0304  0.1003
   73POPC   D2A 1183   8.592   5.744   6.452  0.0070  0.3090 -0.1640
   73POPC   C3A 1184   8.633   5.500   6.086  0.1196  0.2792  0.1553
   73POPC   C4A 1185   8.698   5.616   5.693  0.1433 -0.3075 -0.2236
   73POPC   C1B 1186   9.471   5.808   6.478 -0.0371 -0.1393 -0.2519
   73POPC   C2B 1187   9.622   5.864   6.014  0.0202  0.1921 -0.0078
   73POPC   C3B 1188   9.580   5.563   5.634 -0.3270  0.1898  0.3370
   73POPC   C4B 1189   9.495   5.345   5.184 -0.2720  0.0554 -0.0075
   74POPC   NC3 1190   3.170   0.615   8.032 -0.2494  0.0740  0.1683
   74POPC   PO4 1191   2.960   0.406   7.722 -0.1548 -0.2493 -0.2395
   74POPC   GL1 1192   2.899   0.405   7.298  0.2578  0.0738  0.0794
   74POPC   GL2 1193   3.162   0.585   7.175 -0.0757 -0.0278  0.3684
   74POPC   C1A 1194   2.952   0.073   6.993  0.1238  0.4742  0.0682
   74POPC   D2A 1195   3.283  -0.207   6.961 -0.2249 -0.1631 -0.2344
   74POPC   C3A 1196   3.246  -0.466   6.559  0.0493  0.0169 -0.0673
   74POPC   C4A 1197   3.469  -0.930   6.428 -0.1398 -0.0548 -0.4150
   74POPC   C1B 1198   2.908   0.523   6.802 -0.1205  0.1694 -0.0923
   74POPC   C2B 1199   2.872   0.199   6.563 -0.0017  0.0728  0.0264
   74POPC   C3B 1200   3.128   0.453   6.179  0.1817 -0.1440 -0.1577
   74POPC   C4B 1201   3.450   0.526   5.929 -0.1415 -0.1485 -0.0868
   75POPC   NC3 1202   9.828   4.740   7.172  0.1242  0.3350 -0.0463
   75POPC   PO4 1203   9.772   4.398   7.482  0.1419 -0.3067 -0.0147
   75POPC   GL1 1204   9.604   4.250   7.077 -0.3366  0.1856  0.0887
   75POPC   GL2 1205   9.803   4.374   6.884 -0.3479  0.1712  0.1493
   75POPC   C1A 1206   9.461   3.935   6.825 -0.0876  0.1108  0.0698
   75POPC   D2A 1207   9.490   3.640   6.525 -0.0684 -0.2909  0.1024
   75POPC   C3A 1208   9.306   3.886   6.280 -0.2199  0.1781 -0.3004
   75POPC   C4A 1209   9.340   4.232   5.940  0.0990 -0.1615 -0.4199
   75POPC   C1B 1210  10.170   4.520   6.662 -0.1720  0.1669 -0.0425
   75POPC   C2B 1211  10.179   4.601   6.202 -0.1696  0.2397  0.2372
   75POPC   C3B 1212  10.220   4.653   5.848  0.0268 -0.0196  0.3939
   75POPC   C4B 1213  10.224   4.614   5.446  0.0525  0.3619  0.0337
   76POPC   NC3 1214   0.532  10.116   7.635 -0.1620  0.1409  0.3442
   76POPC   PO4 1215   0.082  10.257   7.766 -0.2819 -0.3314  0.3636
   76POPC   GL1 1216  -0.005  10.445   7.407  0.0825 -0.1822  0.2202
   76POPC   GL2 1217  -0.076  10.769   7.503 -0.1929  0.2495  0.4172
   76POPC   C1A 1218   0.152  10.601   7.114 -0.0236  0.1595 -0.0375
   76POPC   D2A 1219   0.553  10.771   7.140  0.3297 -0.2059  0.4295
   76POPC   C3A 1220   0.624  11.177   7.007  0.3579  0.1155 -0.2663
   76POPC   C4A 1221   0.303  11.498   6.870  0.2877  0.1973 -0.1995
   76POPC   C1B 1222  -0.260  10.840   7.025 -0.1523 -0.0859  0.3035
   76POPC   C2B 1223  -0.330  10.914   6.653 -0.0673 -0.1050 -0.1805
   76POPC   C3B 1224  -0.419  10.970   6.248 -0.1217  0.0961  0.2655
   76POPC   C4B 1225  -0.394  10.833   5.792 -0.3183 -0.2977 -0.1297
   77POPC   NC3 1226   5.056   3.477   7.483 -0.2118 -0.0020  0.1335
   77POPC   PO4 1227   4.719   3.082   7.469 -0.4073  0.0403  0.1751
   77POPC   GL1 1228   4.393   3.126   7.174 -0.1550 -0.2595 -0.1576
   77POPC   GL2 1229   4.309   2.764   7.195  0.1839 -0.1195 -0.1951
   77POPC   C1A 1230   4.498   3.184   6.675  0.1674  0.1057 -0.1452
   77POPC   D2A 1231   4.720   2.838   6.433 -0.0133  0.2151 -0.1820
   77POPC   C3A 1232   5.031   2.986   6.055  0.3479 -0.0204 -0.0880
   77POPC   C4A 1233   5.450   2.891   5.824  0.1268 -0.1583 -0.0689
   77POPC   C1B 1234   4.075   2.957   6.868  0.0310 -0.2726 -0.2267
   77POPC   C2B 1235   3.794   2.879   6.573  0.0271  0.1208 -0.0147
   77POPC   C3B 1236   3.645   3.363   6.435  0.1212 -0.2493  0.0955
   77POPC   C4B 1237   3.776   3.818   6.475  0.1441 -0.0534  0.2119
   78POPC   NC3 1238   1.024   2.121   7.365  0.0126  0.2136  0.1257
   78POPC   PO4 1239   0.927   1.608   7.425 -0.0412  0.0668 -0.0921
   78POPC   GL1 1240   0.925   1.286   7.095  0.1021  0.1247  0.1432
   78POPC   GL2 1241   1.108   1.282   6.845 -0.0714 -0.0128 -0.0398
   78POPC   C1A 1242   0.796   0.846   6.879 -0.2529 -0.0297 -0.1196
   78POPC   D2A 1243   0.597   0.762   6.527  0.0589  0.1000  0.3419
   78POPC   C3A 1244   0.787   0.754   6.180 -0.2925 -0.2939 -0.1597
   78POPC   C4A 1245   0.936   0.531   5.856 -0.2249  0.1219 -0.1070
   78POPC   C1B 1246   1.062   1.084   6.488  0.0496  0.0540  0.3685
   78POPC   C2B 1247   1.183   1.061   6.040 -0.1598 -0.2056  0.1460
   78POPC   C3B 1248   0.783   0.931   5.701 -0.2798 -0.1399 -0.1053
   78POPC   C4B 1249   0.405   0.723   5.508 -0.2459  0.1923  0.0367
   79POPC   NC3 1250   1.041   0.288   8.033  0.0968  0.0086 -0.1023
   79POPC   PO4 1251   1.357  -0.022   7.883  0.3525 -0.0349 -0.2020
   79POPC   GL1 1252   1.699  -0.242   7.547  0.0180  0.1118 -0.0637
   79POPC   GL2 1253   1.785  -0.568   7.419 -0.3156 -0.2442  0.5525
   79POPC   C1A 1254   1.722  -0.115   7.098 -0.0786 -0.0680 -0.0229
   79POPC   D2A 1255   1.465   0.093   6.747  0.0017  0.0980  0.0086
   79POPC   C3A 1256   1.278   0.179   6.398 -0.4211  0.0404  0.3881
   79POPC   C4A 1257   1.176   0.095   5.993 -0.0323  0.0531  0.0297
   79POPC   C1B 1258   2.145  -0.263   7.288  0.1579 -0.1933  0.0072
   79POPC   C2B 1259   2.435  -0.349   6.977 -0.3389  0.1401  0.0911
   79POPC   C3B 1260   2.836  -0.635   6.969 -0.5516 -0.1441 -0.0071
   79POPC   C4B 1261   3.329  -0.750   6.996  0.1143 -0.0067  0.2799
   80POPC   NC3 1262   1.041   4.222   7.010  0.3018  0.1291 -0.1224
   80POPC   PO4 1263   1.407   3.997   6.962  0.0104 -0.0415 -0.1500
   80POPC   GL1 1264   1.032   3.791   6.684  0.1340  0.1977 -0.4660
   80POPC   GL2 1265   0.868   4.087   6.576  0.2573  0.0272 -0.0474
   80POPC   C1A 1266   0.904   3.600   6.333 -0.2091 -0.0439 -0.2527
   80POPC   D2A 1267   0.953   3.457   5.922 -0.0145 -0.1501  0.1047
   80POPC   C3A 1268   1.001   3.964   5.735 -0.0882  0.2435  0.2280
   80POPC   C4A 1269   1.089   4.359   5.560 -0.0874  0.1068  0.1229
   80POPC   C1B 1270   0.692   4.014   6.179  0.1638 -0.3676 -0.2235
   80POPC   C2B 1271   0.369   3.997   5.849 -0.1775 -0.1166  0.0613
   80POPC   C3B 1272   0.028   3.719   5.651  0.2176 -0.2022 -0.0640
   80POPC   C4B 1273  -0.066   3.404   5.276 -0.2041 -0.2676  0.0667
   81POPC   NC3 1274   4.049  10.322   7.766 -0.0055  0.0601  0.2935
   81POPC   PO4 1275   4.267  10.037   7.655 -0.2457 -0.1555  0.0730
   81POPC   GL1 1276   4.377   9.865   7.187 -0.3874 -0.2314  0.3238
   81POPC   GL2 1277   4.483   9.587   7.331 -0.2354  0.1089  0.0395
   81POPC   C1A 1278   4.346   9.978   6.767  0.1176 -0.5096  0.3218
   81POPC   D2A 1279   4.456   9.913   6.331 -0.0347  0.0630  0.1335
   81POPC   C3A 1280   4.289  10.051   6.015 -0.2647 -0.0947 -0.2020
   81POPC   C4A 1281   4.051  10.428   5.960 -0.1053 -0.1530 -0.1411
   81POPC   C1B 1282   4.725   9.489   6.955  0.0913  0.1508  0.1265
   81POPC   C2B 1283   4.792   9.505   6.397 -0.0647 -0.0102 -0.4578
   81POPC   C3B 1284   4.958   9.348   5.962 -0.1304 -0.0995  0.0214
   81POPC   C4B 1285   5.184   9.111   5.683 -0.0674  0.3578  0.0433
   82POPC   NC3 1286   7.233   2.348   7.727 -0.0718 -0.0962  0.2834
   82POPC   PO4 1287   6.736   2.193   7.672  0.1213  0.0666  0.0958
   82POPC   GL1 1288   6.552   2.084   7.356 -0.0630 -0.3641  0.2963
   82POPC   GL2 1289   6.557   1.666   7.241 -0.1184 -0.2515  0.1632
   82POPC   C1A 1290   6.333   2.053   6.998  0.2214  0.1104  0.1060
   82POPC   D2A 1291   6.250   2.324   6.709 -0.2600  0.2059 -0.2058
   82POPC   C3A 1292   5.968   2.185   6.321 -0.4722  0.1614 -0.1309
   82POPC   C4A 1293   5.993   2.239   5.870 -0.0304  0.1182  0.0194
   82POPC   C1B 1294   6.304   1.517   6.878  0.1171 -0.2111 -0.3509
   82POPC   C2B 1295   6.178   1.681   6.487 -0.0845  0.0724  0.2512
   82POPC   C3B 1296   5.981   1.672   6.090  0.2937 -0.0015  0.2879
   82POPC   C4B 1297   6.010   1.327   5.653 -0.0087 -0.0189  0.0671
   83POPC   NC3 1298   6.357   0.808   7.735  0.2793  0.1689  0.0416
   83POPC   PO4 1299   6.028   0.798   7.471  0.3007  0.2205  0.0610
   83POPC   GL1 1300   5.930   0.580   7.090  0.2627  0.1563  0.0499
   83POPC   GL2 1301   5.805   0.820   6.925  0.0033 -0.0614  0.0603
   83POPC   C1A 1302   5.992   0.281   6.790  0.1351 -0.1648  0.0743
   83POPC   D2A 1303   6.024   0.134   6.379  0.0185 -0.0923  0.2377
   83POPC   C3A 1304   6.228  -0.230   6.377 -0.2692  0.2088  0.2142
   83POPC   C4A 1305   6.378  -0.208   6.101  0.0002  0.4308  0.0875
   83POPC   C1B 1306   5.779   0.641   6.492 -0.0019 -0.1162  0.1932
   83POPC   C2B 1307   5.792   0.426   5.985 -0.0163  0.0709  0.2714
   83POPC   C3B 1308   6.088   0.164   5.856  0.2775 -0.1603 -0.1854
   83POPC   C4B 1309   5.964  -0.306   5.805 -0.0075  0.0393  0.1542
   84POPC   NC3 1310   8.846   9.531   7.572  0.1272  0.1721  0.2913
   84POPC   PO4 1311   9.142   9.217   7.531  0.1806  0.0659  0.0836
   84POPC   GL1 1312   9.337   9.091   7.143  0.3133 -0.2186 -0.2501
   84POPC   GL2 1313   9.393   8.752   7.070 -0.0267 -0.0875  0.2710
   84POPC   C1A 1314   9.653   9.201   6.887 -0.0645 -0.1339  0.1044
   84POPC   D2A 1315   9.811   9.269   6.518 -0.1703  0.2122  0.1807
   84POPC   C3A 1316   9.583   9.258   6.263  0.0229  0.0172 -0.1410
   84POPC   C4A 1317   9.482   9.312   5.795 -0.1732  0.4457 -0.0549
   84POPC   C1B 1318   9.140   8.575   6.725  0.0218  0.1826  0.0577
   84POPC   C2B 1319   8.973   8.455   6.229 -0.2214  0.1939 -0.2635
   84POPC   C3B 1320   8.858   8.694   5.958 -0.1350  0.0024  0.0159
   84POPC   C4B 1321   8.997   9.090   5.712 -0.0211 -0.2830 -0.0537
   85POPC   NC3 1322   4.801   5.885   7.894  0.1610  0.3899  0.0816
   85POPC   PO4 1323   4.558   6.133   7.753 -0.2152  0.1212  0.1118
   85POPC   GL1 1324   4.523   6.052   7.293  0.1293 -0.4506 -0.1227
   85POPC   GL2 1325   4.383   5.886   7.091 -0.0981  0.0169 -0.1511
   85POPC   C1A 1326   4.694   6.275   6.925 -0.0098 -0.1417  0.1491
   85POPC   D2A 1327   4.836   6.618   6.701 -0.1940  0.0369 -0.1237
   85POPC   C3A 1328   5.146   6.604   6.393 -0.1436  0.0920  0.0400
   85POPC   C4A 1329   5.267   6.847   6.022  0.1008 -0.0327  0.1893
   85POPC   C1B 1330   4.146   6.201   6.809  0.0825 -0.1535 -0.1144
   85POPC   C2B 1331   3.913   6.527   6.810 -0.0918  0.2497  0.0044
   85POPC   C3B 1332   3.799   6.762   6.457 -0.1844  0.2026 -0.1449
   85POPC   C4B 1333   3.724   6.809   6.012 -0.0583  0.0859  0.2032
   86POPC   NC3 1334   0.206   3.175   7.193 -0.2609  0.1512 -0.0157
   86POPC   PO4 1335   0.224   2.829   7.437  0.0825 -0.1626 -0.0179
   86POPC   GL1 1336   0.297   2.670   6.976  0.1782  0.1183  0.1077
   86POPC   GL2 1337   0.084   2.409   7.135  0.0953  0.2144  0.1249
   86POPC   C1A 1338   0.345   2.869   6.615 -0.0179 -0.2142 -0.1835
   86POPC   D2A 1339   0.043   2.994   6.336 -0.2278  0.2839  0.0578
   86POPC   C3A 1340  -0.076   2.612   5.947 -0.2078 -0.1804  0.1703
   86POPC   C4A 1341  -0.125   2.444   5.578 -0.1561 -0.0463  0.3309
   86POPC   C1B 1342  -0.243   2.280   6.980 -0.2503 -0.3859  0.2383
   86POPC   C2B 1343  -0.471   2.412   6.685 -0.2594 -0.3424 -0.0833
   86POPC   C3B 1344  -0.696   2.422   6.382 -0.1972  0.4642 -0.1344
   86POPC   C4B 1345  -1.030   2.418   6.185  0.0285  0.0642  0.0352
   87POPC   NC3 1346   7.854   3.792   8.275 -0.2593 -0.1101  0.0423
   87POPC   PO4 1347   8.136   3.569   7.893  0.2380 -0.0807 -0.0599
   87POPC   GL1 1348   8.047   3.477   7.407 -0.1643  0.0979  0.0641
   87POPC   GL2 1349   7.874   3.731   7.226 -0.4837  0.1702 -0.0973
   87POPC   C1A 1350   8.294   3.293   6.992  0.1485  0.3006  0.0165
   87POPC   D2A 1351   8.742   3.191   6.802 -0.3328  0.3016 -0.2241
   87POPC   C3A 1352   8.913   3.509   6.531  0.1111  0.2785 -0.1428
   87POPC   C4A 1353   8.992   3.855   6.663 -0.0495 -0.2073  0.1062
   87POPC   C1B 1354   7.856   3.475   6.798 -0.1416  0.0186  0.1256
   87POPC   C2B 1355   8.088   3.422   6.352 -0.1772  0.3024 -0.1287
   87POPC   C3B 1356   8.164   3.115   5.974  0.1781 -0.1948  0.0701
   87POPC   C4B 1357   7.951   2.892   5.595  0.3861 -0.0653  0.1538
   88POPC   NC3 1358   0.715   3.800   7.503 -0.0438  0.0762  0.1297
   88POPC   PO4 1359   0.561   4.150   7.362  0.2656 -0.4400  0.0817
   88POPC   GL1 1360   0.594   3.912   7.023 -0.0432  0.1064  0.0930
   88POPC   GL2 1361   0.659   3.597   7.069 -0.3352  0.2491 -0.0979
   88POPC   C1A 1362   0.486   3.791   6.574 -0.2408  0.2162  0.2236
   88POPC   D2A 1363   0.100   3.805   6.235  0.0987  0.0651 -0.4578
   88POPC   C3A 1364  -0.079   4.115   5.949 -0.1947 -0.1859 -0.1976
   88POPC   C4A 1365  -0.150   4.578   6.119  0.1768 -0.0228 -0.1175
   88POPC   C1B 1366   0.691   3.349   6.710 -0.1622 -0.0003  0.5316
   88POPC   C2B 1367   0.723   3.016   6.298  0.1908  0.2064 -0.1454
   88POPC   C3B 1368   0.445   2.796   6.004 -0.0092 -0.3288  0.1454
   88POPC   C4B 1369   0.481   2.457   5.691  0.0446 -0.2474 -0.1611
   89POPC   NC3 1370   4.133   7.441   7.475 -0.0170 -0.0265  0.5063
   89POPC   PO4 1371   4.564   7.546   7.570  0.0780  0.2491  0.0436
   89POPC   GL1 1372   4.681   7.497   7.242 -0.3400 -0.0555 -0.1649
   89POPC   GL2 1373   4.832   7.681   6.984 -0.0319  0.1075  0.1306
   89POPC   C1A 1374   4.761   7.233   6.836 -0.2226  0.0255 -0.2512
   89POPC   D2A 1375   4.572   7.187   6.449 -0.0074 -0.3590  0.1066
   89POPC   C3A 1376   4.745   6.817   6.257  0.0266  0.3264  0.3190
   89POPC   C4A 1377   4.386   6.584   5.953 -0.4968  0.1484  0.0822
   89POPC   C1B 1378   4.657   8.087   6.811 -0.1280  0.0687 -0.3030
   89POPC   C2B 1379   4.699   8.557   6.635 -0.2821 -0.0560  0.2511
   89POPC   C3B 1380   4.556   9.009   6.549  0.2309  0.0866 -0.0491
   89POPC   C4B 1381   4.357   9.293   6.253 -0.3642  0.1835  0.1382
   90POPC   NC3 1382   6.548   7.835   8.248  0.3545 -0.2207 -0.2541
   90POPC   PO4 1383   6.546   8.001   7.768 -0.0994 -0.0530 -0.0917
   90POPC   GL1 1384   6.492   8.031   7.341  0.0647  0.4169 -0.2335
   90POPC   GL2 1385   6.210   7.833   7.198  0.2130 -0.2958  0.0702
   90POPC   C1A 1386   6.543   8.063   6.914 -0.0474  0.0052 -0.0906
   90POPC   D2A 1387   6.482   8.167   6.456 -0.0186  0.2795  0.0129
   90POPC   C3A 1388   6.777   7.984   6.142  0.1861  0.1492 -0.2117
   90POPC   C4A 1389   7.055   7.600   6.068 -0.1001  0.1935  0.0653
   90POPC   C1B 1390   6.118   7.799   6.766 -0.3819 -0.0385  0.3157
   90POPC   C2B 1391   6.093   7.649   6.357 -0.1896 -0.2369  0.2111
   90POPC   C3B 1392   6.066   7.500   5.928  0.1276  0.4983  0.2538
   90POPC   C4B 1393   5.936   7.343   5.559 -0.1856  0.0669 -0.1939
   91POPC   NC3 1394  10.010   9.285   7.807  0.5084 -0.0609 -0.3685
   91POPC   PO4 1395   9.645   9.385   7.576  0.0493  0.1383 -0.0495
   91POPC   GL1 1396   9.653   9.585   7.191 -0.1753 -0.1264  0.0830
   91POPC   GL2 1397   9.221   9.579   7.062  0.1113 -0.1957 -0.0829
   91POPC   C1A 1398   9.879   9.702   6.854 -0.3529  0.1516  0.2413
   91POPC   D2A 1399  10.018   9.728   6.452  0.0655 -0.2375  0.0621
   91POPC   C3A 1400  10.068   9.984   6.090  0.0554  0.2386  0.0114
   91POPC   C4A 1401   9.812  10.285   5.827  0.2276 -0.0520 -0.1917
   91POPC   C1B 1402   9.389   9.713   6.666 -0.2006  0.0094 -0.0019
   91POPC   C2B 1403   9.535   9.728   6.270 -0.3039  0.1029 -0.0400
   91POPC   C3B 1404   9.831   9.618   5.899 -0.0379 -0.0530 -0.1223
   91POPC   C4B 1405   9.986   9.365   5.585  0.0866  0.2392 -0.0882
   92POPC   NC3 1406   5.998   4.292   7.373 -0.2162  0.2800  0.1553
   92POPC   PO4 1407   6.463   4.216   7.254  0.0381 -0.2823  0.0799
   92POPC   GL1 1408   6.199   4.120   6.854  0.0013  0.1299  0.1433
   92POPC   GL2 1409   6.477   4.287   6.622 -0.1162 -0.1048 -0.0204
   92POPC   C1A 1410   5.973   4.128   6.500 -0.0054 -0.1999 -0.1388
   92POPC   D2A 1411   5.977   3.994   6.010 -0.2570 -0.1531 -0.0557
   92POPC   C3A 1412   5.884   4.267   5.731 -0.1636  0.4038  0.1498
   92POPC   C4A 1413   5.845   4.513   5.432  0.3905 -0.1368  0.0630
   92POPC   C1B 1414   6.437   4.336   6.221 -0.2396 -0.0719  0.1821
   92POPC   C2B 1415   6.422   4.133   5.806 -0.0904 -0.2755  0.0393
   92POPC   C3B 1416   6.280   3.763   5.627  0.2950  0.1603 -0.0501
   92POPC   C4B 1417   6.076   3.411   5.735  0.1302 -0.1205  0.1849
   93POPC   NC3 1418  10.119   1.788   7.643 -0.0747  0.0809 -0.1546
   93POPC   PO4 1419  10.544   1.740   7.440  0.1548 -0.0327  0.1094
   93POPC   GL1 1420  10.680   1.652   7.012  0.0919  0.2010  0.3183
   93POPC   GL2 1421  10.925   1.870   6.979 -0.1611  0.2564  0.0222
   93POPC   C1A 1422  10.972   1.418   6.723  0.2115  0.1557 -0.0420
   93POPC   D2A 1423  11.033   1.493   6.280 -0.1516  0.0141  0.0172
   93POPC   C3A 1424  11.237   1.711   6.184  0.2724 -0.1342 -0.1581
   93POPC   C4A 1425  11.434   1.984   6.479  0.2063 -0.2501  0.0178
   93POPC   C1B 1426  10.888   1.947   6.584 -0.2151  0.0974 -0.1998
   93POPC   C2B 1427  10.712   2.033   6.206 -0.5018 -0.0297  0.1391
   93POPC   C3B 1428  10.401   2.259   5.974  0.0937 -0.0894 -0.0917
   93POPC   C4B 1429  10.049   2.198   5.772 -0.1952  0.1805 -0.1003
   94POPC   NC3 1430   9.186   7.624   7.390 -0.2856 -0.3242  0.0662
   94POPC   PO4 1431   9.398   7.424   7.233 -0.1665 -0.3202 -0.0567
   94POPC   GL1 1432   9.121   7.659   6.848 -0.2271 -0.2090 -0.1381
   94POPC   GL2 1433   8.808   7.565   6.805 -0.2587 -0.0561 -0.3532
   94POPC   C1A 1434   9.287   7.904   6.541  0.0302  0.1155 -0.0773
   94POPC   D2A 1435   9.367   8.083   6.098 -0.2229  0.1940  0.0050
   94POPC   C3A 1436   9.312   8.371   5.860 -0.0666 -0.1086 -0.1628
   94POPC   C4A 1437   9.181   8.606   5.551 -0.0844  0.0201 -0.2659
   94POPC   C1B 1438   9.106   7.417   6.479  0.0081  0.2409  0.1317
   94POPC   C2B 1439   9.120   7.583   6.080  0.1774  0.0671  0.1771
   94POPC   C3B 1440   9.154   7.808   5.645  0.2634 -0.2426 -0.1643
   94POPC   C4B 1441   9.281   7.751   5.220  0.1337  0.3288 -0.1647
   95POPC   NC3 1442   0.498   4.827   7.201  0.0976  0.2565 -0.3035
   95POPC   PO4 1443   0.807   4.585   7.238 -0.1552 -0.1254 -0.3361
   95POPC   GL1 1444   0.586   4.402   6.896 -0.0273  0.3031  0.2377
   95POPC   GL2 1445   0.352   4.448   6.934 -0.1867 -0.1761  0.2758
   95POPC   C1A 1446   0.763   4.513   6.376 -0.4952 -0.0040  0.3008
   95POPC   D2A 1447   0.873   4.457   6.024 -0.3915 -0.0425 -0.3004
   95POPC   C3A 1448   1.199   4.299   6.108  0.2241  0.0349  0.2654
   95POPC   C4A 1449   1.544   4.314   6.074 -0.4470 -0.2133  0.0655
   95POPC   C1B 1450   0.327   4.267   6.446  0.0420 -0.1013  0.0391
   95POPC   C2B 1451   0.350   4.474   6.043  0.0476  0.1838 -0.1712
   95POPC   C3B 1452   0.135   4.382   5.514  0.1765 -0.1726 -0.4276
   95POPC   C4B 1453  -0.033   4.567   5.179 -0.3768 -0.0757 -0.1069
   96POPC   NC3 1454   1.313   8.272   7.696  0.0742 -0.0540 -0.1760
   96POPC   PO4 1455   1.128   8.237   7.222  0.1563 -0.1212  0.0033
   96POPC   GL1 1456   0.958   7.966   6.914  0.0409  0.2620  0.0449
   96POPC   GL2 1457   0.713   7.837   6.791  0.2549 -0.3525  0.0624
   96POPC   C1A 1458   1.210   7.481   6.680 -0.1001  0.1550 -0.0398
   96POPC   D2A 1459   1.129   7.234   6.378  0.1635  0.3870  0.0144
   96POPC   C3A 1460   1.308   7.416   6.019 -0.0075 -0.2738  0.2336
   96POPC   C4A 1461   1.496   7.445   5.655  0.4010 -0.1729 -0.1756
   96POPC   C1B 1462   0.264   7.778   6.660 -0.0204  0.1005 -0.0540
   96POPC   C2B 1463  -0.033   7.881   6.323 -0.1159 -0.1706 -0.1254
   96POPC   C3B 1464  -0.146   7.711   5.945  0.2739 -0.0897  0.2035
   96POPC   C4B 1465  -0.191   7.427   5.605 -0.0933 -0.1502  0.2341
   97POPC   NC3 1466   5.559   0.463   7.544  0.1112 -0.1919 -0.1389
   97POPC   PO4 1467   5.287   0.165   7.734  0.1404 -0.4639 -0.0558
   97POPC   GL1 1468   5.191   0.055   7.278 -0.2010 -0.1616  0.3430
   97POPC   GL2 1469   5.524   0.087   7.053 -0.0464 -0.0310  0.0244
   97POPC   C1A 1470   5.116   0.063   6.802 -0.0280 -0.0699  0.4859
   97POPC   D2A 1471   5.108  -0.303   6.570  0.2104 -0.0222 -0.0367
   97POPC   C3A 1472   4.706  -0.284   6.357 -0.0151  0.4098  0.0453
   97POPC   C4A 1473   4.339  -0.494   6.517 -0.0592  0.1832  0.0642
   97POPC   C1B 1474   5.416   0.459   6.887  0.2939  0.1285 -0.1798
   97POPC   C2B 1475   5.077   0.775   6.812 -0.2620 -0.1911 -0.0977
   97POPC   C3B 1476   4.864   1.164   6.576  0.0727  0.0227 -0.2956
   97POPC   C4B 1477   4.672   1.287   6.200  0.0587  0.0828 -0.0421
   98POPC   NC3 1478   1.719   2.267   7.423 -0.3439  0.3648  0.3909
   98POPC   PO4 1479   1.418   1.826   7.441 -0.0836  0.1909 -0.1340
   98POPC   GL1 1480   1.441   1.969   7.077 -0.1936 -0.2693 -0.0808
   98POPC   GL2 1481   1.193   1.761   6.965 -0.3111  0.1089  0.0297
   98POPC   C1A 1482   1.573   2.272   6.722 -0.0634  0.1241  0.0698
   98POPC   D2A 1483   1.562   2.313   6.262 -0.0747 -0.1244 -0.0149
   98POPC   C3A 1484   1.672   1.976   5.922  0.2629 -0.1026 -0.0937
   98POPC   C4A 1485   1.514   1.885   5.409  0.1309 -0.1180 -0.0290
   98POPC   C1B 1486   1.490   1.594   6.638 -0.1431 -0.3743 -0.0720
   98POPC   C2B 1487   1.452   1.618   6.273 -0.1628  0.2505  0.1720
   98POPC   C3B 1488   1.268   1.692   5.879 -0.2022  0.0333 -0.1532
   98POPC   C4B 1489   1.049   1.725   5.536  0.3026 -0.0299  0.0963
   99POPC   NC3 1490   7.530   4.271   7.190 -0.0025  0.0934  0.1478
   99POPC   PO4 1491   7.486   4.039   7.461  0.0047 -0.0111 -0.0593
   99POPC   GL1 1492   7.339   3.755   7.149 -0.4386 -0.1714  0.1048
   99POPC   GL2 1493   7.572   3.879   6.858 -0.0551  0.1344  0.0126
   99POPC   C1A 1494   7.180   3.638   6.673  0.1951  0.0528 -0.0604
   99POPC   D2A 1495   7.277   3.481   6.350 -0.2194  0.0213 -0.0254
   99POPC   C3A 1496   7.610   3.376   6.294  0.2144 -0.2284  0.0513
   99POPC   C4A 1497   7.701   3.229   6.017 -0.0652 -0.0396 -0.0698
   99POPC   C1B 1498   7.466   3.988   6.497  0.4136 -0.3025 -0.0197
   99POPC   C2B 1499   7.477   4.009   5.942  0.1838 -0.0493  0.1665
   99POPC   C3B 1500   7.695   3.651   5.741  0.0776  0.2468  0.0864
   99POPC   C4B 1501   7.994   3.406   5.649  0.1872 -0.0885  0.1787
  100POPC   NC3 1502   4.389   1.663   7.766  0.0766 -0.1775  0.1032
  100POPC   PO4 1503   4.613   2.013   7.664  0.2481 -0.0767  0.1617
  100POPC   GL1 1504   4.531   1.840   7.326  0.0443 -0.2206 -0.0366
  100POPC   GL2 1505   4.163   1.667   7.350  0.0571  0.0080 -0.2560
  100POPC   C1A 1506   4.773   1.616   7.017  0.0759 -0.2778 -0.4001
  100POPC   D2A 1507   4.680   1.666   6.571 -0.1094  0.1710 -0.0759
  100POPC   C3A 1508   4.325   1.855   6.423 -0.1503 -0.0882  0.1973
  100POPC   C4A 1509   4.155   2.016   6.033  0.2156 -0.2148  0.1511
  100POPC   C1B 1510   4.173   1.764   6.920 -0.0947 -0.2514 -0.0640
  100POPC   C2B 1511   3.813   1.856   6.538  0.0657  0.0963 -0.1919
  100POPC   C3B 1512   3.557   1.583   6.346 -0.0972  0.0556 -0.0211
  100POPC   C4B 1513   3.326   1.567   5.996  0.0458  0.0081 -0.1623
  101POPC   NC3 1514   6.467   0.419   7.430 -0.0557 -0.2508 -0.1379
  101POPC   PO4 1515   6.819   0.226   7.601  0.0742 -0.0556 -0.2054
  101POPC   GL1 1516   6.791   0.259   7.073 -0.2103 -0.0016  0.0853
  101POPC   GL2 1517   6.758   0.614   7.010  0.0056  0.1262  0.1521
  101POPC   C1A 1518   6.965   0.348   6.643  0.0376 -0.1569  0.0960
  101POPC   D2A 1519   6.862   0.427   6.200 -0.1103  0.0879 -0.1084
  101POPC   C3A 1520   7.014   0.079   5.937 -0.1651 -0.0123  0.3536
  101POPC   C4A 1521   7.382  -0.217   5.972 -0.0150  0.0476 -0.0991
  101POPC   C1B 1522   6.427   0.471   6.640 -0.0113 -0.1021  0.0642
  101POPC   C2B 1523   6.352   0.523   6.174 -0.0509 -0.2180  0.1965
  101POPC   C3B 1524   6.181   0.659   5.771 -0.2173 -0.0095  0.2335
  101POPC   C4B 1525   6.269   0.922   5.583 -0.1218  0.0194 -0.0782
  102POPC   NC3 1526  10.510  10.467   7.771 -0.0608  0.0155 -0.0598
  102POPC   PO4 1527  10.380  10.020   7.656 -0.3642  0.0518 -0.0412
  102POPC   GL1 1528  10.594  10.041   7.279 -0.0041  0.1328  0.1516
  102POPC   GL2 1529  10.544   9.679   7.232 -0.3387  0.0918  0.0355
  102POPC   C1A 1530  10.667  10.336   6.948  0.1556 -0.0664  0.0950
  102POPC   D2A 1531  10.868  10.517   6.583 -0.0217  0.2887 -0.2159
  102POPC   C3A 1532  10.720  10.404   6.216 -0.0224  0.3892  0.1376
  102POPC   C4A 1533  10.781  10.390   5.793 -0.0981 -0.2753 -0.3186
  102POPC   C1B 1534  10.408   9.608   6.731  0.5168  0.0368  0.1633
  102POPC   C2B 1535  10.428   9.484   6.278  0.0271 -0.2988  0.0384
  102POPC   C3B 1536  10.193   9.241   6.089 -0.0015 -0.0269 -0.1709
  102POPC   C4B 1537   9.916   8.955   5.874 -0.2465  0.0703  0.0635
  103POPC   NC3 1538   0.422   3.257   7.601  0.0654  0.1243  0.6699
  103POPC   PO4 1539   0.215   3.689   7.379 -0.2689  0.3618 -0.2811
  103POPC   GL1 1540  -0.048   3.579   6.976 -0.1277 -0.0975 -0.2036
  103POPC   GL2 1541   0.039   3.781   6.777 -0.1916 -0.1048 -0.0972
  103POPC   C1A 1542  -0.278   3.225   6.686 -0.0927 -0.1332 -0.0441
  103POPC   D2A 1543  -0.409   2.875   6.288 -0.1302 -0.2474 -0.2126
  103POPC   C3A 1544  -0.578   2.894   5.931 -0.1998 -0.1392  0.0226
  103POPC   C4A 1545  -0.931   2.767   5.841 -0.0978 -0.4393 -0.3490
  103POPC   C1B 1546   0.184   3.390   6.573  0.1435  0.3669  0.0356
  103POPC   C2B 1547   0.460   3.437   6.165  0.4622  0.1016  0.1945
  103POPC   C3B 1548   0.428   3.432   5.775  0.1804  0.3693  0.0537
  103POPC   C4B 1549   0.613   3.613   5.455  0.0006  0.1109 -0.3735
  104POPC   NC3 1550   7.014   9.688   7.706 -0.0209 -0.0515  0.0579
  104POPC   PO4 1551   7.542   9.486   7.771  0.2916  0.0415  0.0817
  104POPC   GL1 1552   7.435   9.429   7.347 -0.0230  0.0274 -0.0919
  104POPC   GL2 1553   7.173   9.680   7.228  0.0822  0.1757  0.1013
  104POPC   C1A 1554   7.800   9.325   7.089 -0.3964  0.0903  0.0066
  104POPC   D2A 1555   7.828   9.473   6.747  0.1496 -0.0351 -0.2080
  104POPC   C3A 1556   7.871   9.890   6.509  0.2523  0.3339 -0.0264
  104POPC   C4A 1557   8.176  10.204   6.371  0.0122  0.0233  0.1717
  104POPC   C1B 1558   7.094   9.587   6.733 -0.0683 -0.1735 -0.0073
  104POPC   C2B 1559   7.412   9.555   6.275 -0.1094  0.0356 -0.1456
  104POPC   C3B 1560   7.586   9.763   5.925 -0.1312  0.2334  0.1565
  104POPC   C4B 1561   7.783  10.228   5.880 -0.0970  0.0554 -0.1565
  105POPC   NC3 1562   3.439   4.295   7.487 -0.2393 -0.0839  0.1375
  105POPC   PO4 1563   3.393   3.861   7.477 -0.1800 -0.0542  0.0021
  105POPC   GL1 1564   3.320   4.044   7.095  0.1939  0.2107  0.1635
  105POPC   GL2 1565   3.433   3.816   6.973 -0.0044 -0.1152  0.3494
  105POPC   C1A 1566   3.546   4.297   6.814  0.3107 -0.3109  0.2539
  105POPC   D2A 1567   3.520   4.778   6.646 -0.1558  0.2430 -0.1677
  105POPC   C3A 1568   3.375   4.908   6.270 -0.1821  0.1563 -0.2982
  105POPC   C4A 1569   3.113   5.012   5.834 -0.0975  0.3681  0.2424
  105POPC   C1B 1570   3.639   3.530   6.898  0.2185 -0.0095  0.1570
  105POPC   C2B 1571   4.027   3.444   6.795 -0.0320  0.0072  0.4174
  105POPC   C3B 1572   4.161   3.229   6.346 -0.2920  0.0319 -0.0919
  105POPC   C4B 1573   3.907   3.103   6.048  0.0166 -0.2629 -0.0519
  106POPC   NC3 1574   7.873   8.050   7.657 -0.3218  0.0195 -0.0944
  106POPC   PO4 1575   8.177   7.756   7.476  0.1159 -0.1182 -0.1060
  106POPC   GL1 1576   8.320   7.848   7.060  0.2778 -0.0708  0.0427
  106POPC   GL2 1577   8.344   7.585   6.903 -0.0622  0.3190 -0.0496
  106POPC   C1A 1578   8.111   7.852   6.596 -0.1838 -0.0585 -0.0847
  106POPC   D2A 1579   8.029   7.887   6.162  0.2346  0.2481  0.0274
  106POPC   C3A 1580   7.812   8.035   5.844  0.2506  0.1831  0.1240
  106POPC   C4A 1581   7.718   7.909   5.381  0.2154  0.1839 -0.1054
  106POPC   C1B 1582   8.512   7.571   6.442 -0.2532 -0.1742 -0.1186
  106POPC   C2B 1583   8.559   7.611   6.084 -0.3435 -0.1717  0.0867
  106POPC   C3B 1584   8.326   7.806   5.671 -0.1450 -0.1214  0.0234
  106POPC   C4B 1585   8.218   8.108   5.337  0.1154  0.0879 -0.0070
  107POPC   NC3 1586   2.667   5.111   7.563 -0.1926  0.0110  0.3839
  107POPC   PO4 1587   2.379   4.797   7.745 -0.1081  0.3782  0.0553
  107POPC   GL1 1588   2.292   4.707   7.299 -0.0754  0.2582  0.0521
  107POPC   GL2 1589   2.071   4.395   7.244  0.1646  0.1216  0.2886
  107POPC   C1A 1590   2.256   4.794   6.819 -0.0347  0.1334  0.0730
  107POPC   D2A 1591   2.202   4.997   6.489  0.0532  0.1037 -0.2968
  107POPC   C3A 1592   2.188   5.011   6.077 -0.3032  0.2057 -0.1104
  107POPC   C4A 1593   2.110   5.119   5.700 -0.1730  0.0334  0.0328
  107POPC   C1B 1594   1.990   4.305   6.784 -0.1090  0.0230  0.2080
  107POPC   C2B 1595   2.146   4.230   6.314 -0.1612  0.0344  0.0153
  107POPC   C3B 1596   2.359   3.860   6.191  0.2495 -0.3005 -0.3864
  107POPC   C4B 1597   2.328   3.427   6.069 -0.0513  0.0264  0.0443
  108POPC   NC3 1598   7.361   0.834   7.893  0.1244  0.4678 -0.1432
  108POPC   PO4 1599   7.758   0.834   7.984 -0.2324 -0.1568 -0.0247
  108POPC   GL1 1600   7.733   0.806   7.568 -0.2879  0.0795  0.3959
  108POPC   GL2 1601   7.822   0.502   7.431  0.1474  0.0618  0.1407
  108POPC   C1A 1602   7.695   0.899   7.142 -0.0651 -0.0440  0.0339
  108POPC   D2A 1603   7.613   1.262   6.833  0.3061 -0.0046 -0.1095
  108POPC   C3A 1604   7.311   1.586   6.842 -0.1516 -0.2112 -0.0673
  108POPC   C4A 1605   7.219   1.737   6.388  0.1492 -0.0205  0.0380
  108POPC   C1B 1606   7.809   0.387   7.049 -0.0530 -0.0326 -0.1090
  108POPC   C2B 1607   7.831   0.485   6.522  0.2993 -0.0560  0.1237
  108POPC   C3B 1608   8.081   0.710   6.260 -0.0505  0.1298  0.1201
  108POPC   C4B 1609   8.407   0.956   6.383 -0.0626  0.0042  0.1531
  109POPC   NC3 1610   4.282   4.663   7.564  0.1976  0.0264  0.0801
  109POPC   PO4 1611   4.145   5.099   7.644  0.0254 -0.2708  0.2816
  109POPC   GL1 1612   4.017   5.001   7.176  0.0889  0.1963  0.0856
  109POPC   GL2 1613   3.709   5.200   6.964  0.1243 -0.0496 -0.2824
  109POPC   C1A 1614   4.068   5.036   6.686 -0.0144  0.3020 -0.1291
  109POPC   D2A 1615   3.916   4.975   6.349 -0.0743  0.2149  0.0605
  109POPC   C3A 1616   4.123   5.196   5.975  0.3434  0.3687  0.2206
  109POPC   C4A 1617   4.020   5.445   5.640  0.2521 -0.0421 -0.1239
  109POPC   C1B 1618   3.557   5.337   6.527  0.1131 -0.0058 -0.3874
  109POPC   C2B 1619   3.478   5.340   6.017 -0.1222 -0.1076 -0.1975
  109POPC   C3B 1620   3.446   5.413   5.596 -0.0672 -0.2572 -0.1045
  109POPC   C4B 1621   3.175   5.430   5.238 -0.2933  0.0360  0.2070
  110POPC   NC3 1622   6.055   4.936   7.214  0.1644 -0.0075 -0.3509
  110POPC   PO4 1623   6.456   4.749   7.407  0.2265  0.4805  0.5298
  110POPC   GL1 1624   6.426   4.657   6.973  0.2297 -0.0656  0.0145
  110POPC   GL2 1625   6.709   4.495   6.956 -0.1515 -0.5362 -0.1948
  110POPC   C1A 1626   6.129   4.717   6.622 -0.0029  0.0389 -0.1082
  110POPC   D2A 1627   6.018   4.613   6.180 -0.1202  0.2555  0.1229
  110POPC   C3A 1628   6.197   4.656   5.811 -0.3072 -0.2430  0.0713
  110POPC   C4A 1629   6.359   5.045   5.681 -0.1031  0.1409  0.0901
  110POPC   C1B 1630   6.964   4.402   6.527  0.0801  0.1036 -0.0292
  110POPC   C2B 1631   7.313   4.407   6.214 -0.1053 -0.3284  0.0332
  110POPC   C3B 1632   7.567   4.439   5.787 -0.0684 -0.2603 -0.0416
  110POPC   C4B 1633   7.623   4.611   5.363  0.3987  0.0937  0.1153
  111POPC   NC3 1634   0.963   2.399   7.754 -0.1575 -0.3279  0.0150
  111POPC   PO4 1635   1.103   2.659   7.502 -0.2369  0.0660 -0.1114
  111POPC   GL1 1636   1.141   2.508   7.016 -0.3626  0.1396 -0.3315
  111POPC   GL2 1637   0.845   2.558   6.899  0.1479  0.0079 -0.2637
  111POPC   C1A 1638   1.011   2.162   6.677  0.2148  0.1565 -0.1665
  111POPC   D2A 1639   1.127   2.041   6.297 -0.1395  0.0072 -0.1650
  111POPC   C3A 1640   0.802   1.883   6.064  0.1360  0.1938 -0.0388
  111POPC   C4A 1641   0.541   1.879   5.658  0.0711 -0.1293  0.1745
  111POPC   C1B 1642   0.753   2.465   6.390  0.1396 -0.0635 -0.0396
  111POPC   C2B 1643   1.026   2.444   5.970 -0.2114 -0.0151 -0.0814
  111POPC   C3B 1644   1.357   2.350   5.720  0.0506 -0.0424  0.0202
  111POPC   C4B 1645   1.758   2.288   5.606 -0.1855  0.2322  0.0245
  112POPC   NC3 1646  10.131   6.292   7.313 -0.0330  0.0315 -0.0140
  112POPC   PO4 1647   9.861   6.063   7.162  0.1242 -0.3808 -0.2132
  112POPC   GL1 1648   9.973   6.057   6.783 -0.0910  0.0032 -0.0715
  112POPC   GL2 1649  10.229   5.892   6.649 -0.0025  0.0090 -0.0176
  112POPC   C1A 1650   9.776   6.169   6.359  0.0599 -0.2225 -0.1242
  112POPC   D2A 1651   9.924   6.340   5.911 -0.3474  0.0320  0.0774
  112POPC   C3A 1652   9.733   6.173   5.592  0.3255  0.1475 -0.0840
  112POPC   C4A 1653   9.483   6.046   5.293 -0.0042  0.1349  0.0281
  112POPC   C1B 1654  10.156   5.847   6.217  0.0617  0.0134  0.0006
  112POPC   C2B 1655  10.074   5.788   5.802 -0.1109  0.4648 -0.1945
  112POPC   C3B 1656  10.033   5.779   5.420  0.0432  0.1528 -0.0618
  112POPC   C4B 1657  10.141   5.520   5.146 -0.1939 -0.2801  0.1497
  113POPC   NC3 1658   3.246   1.182   7.420  0.1610  0.2941 -0.0822
  113POPC   PO4 1659   3.750   1.158   7.568 -0.3438  0.1107 -0.2124
  113POPC   GL1 1660   3.690   1.025   7.165 -0.2715 -0.1589 -0.1587
  113POPC   GL2 1661   3.719   0.730   7.157 -0.0735 -0.1594  0.3633
  113POPC   C1A 1662   3.803   1.169   6.687 -0.0503  0.2426  0.1628
  113POPC   D2A 1663   3.892   0.829   6.509  0.0678  0.1237 -0.1802
  113POPC   C3A 1664   4.077   0.905   6.202 -0.1932  0.4184 -0.0363
  113POPC   C4A 1665   4.000   0.756   5.822 -0.1881  0.1776 -0.2023
  113POPC   C1B 1666   3.496   0.750   6.818  0.2512 -0.1852  0.1250
  113POPC   C2B 1667   3.397   0.774   6.408 -0.0849 -0.3568  0.3126
  113POPC   C3B 1668   3.638   1.074   6.052  0.1041 -0.1697 -0.1232
  113POPC   C4B 1669   3.662   1.077   5.657  0.0209  0.2209  0.2783
  114POPC   NC3 1670  10.688   0.240   7.792 -0.1801  0.1405  0.1126
  114POPC   PO4 1671  11.242   0.173   7.742  0.2302  0.0062 -0.3113
  114POPC   GL1 1672  11.139   0.263   7.322 -0.0787 -0.3064  0.1103
  114POPC   GL2 1673  10.802   0.295   7.294 -0.3218 -0.1885  0.1975
  114POPC   C1A 1674  11.069   0.066   6.783 -0.0466  0.1758 -0.1076
  114POPC   D2A 1675  11.365  -0.205   6.614 -0.0578  0.3052 -0.1326
  114POPC   C3A 1676  11.651  -0.280   6.353 -0.2638  0.1029 -0.1271
  114POPC   C4A 1677  11.627  -0.122   5.869  0.1326 -0.2234 -0.3776
  114POPC   C1B 1678  10.721   0.453   6.885 -0.2798  0.0472 -0.2544
  114POPC   C2B 1679  10.815   0.411   6.436 -0.0076  0.1001  0.3807
  114POPC   C3B 1680  10.696   0.434   6.008  0.0640 -0.2033 -0.0434
  114POPC   C4B 1681  10.578   0.422   5.585 -0.0627 -0.0368  0.1427
  115POPC   NC3 1682   5.311   5.129   7.392 -0.0128  0.3429 -0.1015
  115POPC   PO4 1683   5.560   4.722   7.337 -0.2830 -0.0911  0.2364
  115POPC   GL1 1684   5.369   4.567   6.985  0.0907  0.2264  0.1302
  115POPC   GL2 1685   5.016   4.537   6.776  0.2563  0.2594  0.2145
  115POPC   C1A 1686   5.481   4.210   6.659  0.1652 -0.1532 -0.0597
  115POPC   D2A 1687   5.428   4.182   6.140 -0.1197  0.0206 -0.2164
  115POPC   C3A 1688   5.523   4.556   5.966 -0.2569 -0.0746 -0.0741
  115POPC   C4A 1689   5.755   4.879   5.825  0.0685  0.0746 -0.1150
  115POPC   C1B 1690   5.050   4.451   6.311 -0.0112  0.3260 -0.2015
  115POPC   C2B 1691   4.987   4.281   5.906  0.2509 -0.2334  0.2068
  115POPC   C3B 1692   4.914   4.254   5.552  0.1135 -0.0063  0.3706
  115POPC   C4B 1693   4.915   3.994   5.269 -0.0907  0.0169  0.5056
  116POPC   NC3 1694   6.770   3.285   7.655 -0.0580 -0.1626  0.2486
  116POPC   PO4 1695   6.991   2.917   7.696  0.2448 -0.1132 -0.0001
  116POPC   GL1 1696   7.259   2.911   7.363  0.1180 -0.1939 -0.1531
  116POPC   GL2 1697   7.188   3.326   7.349  0.0293  0.2213 -0.0265
  116POPC   C1A 1698   7.407   2.648   6.946  0.3960 -0.0964  0.1765
  116POPC   D2A 1699   7.363   2.313   6.619  0.0111  0.1815 -0.2517
  116POPC   C3A 1700   7.517   2.226   6.188 -0.0635 -0.0184 -0.1604
  116POPC   C4A 1701   7.580   2.599   5.880  0.1574  0.0029  0.1456
  116POPC   C1B 1702   7.320   3.275   7.028 -0.0427 -0.2287  0.0635
  116POPC   C2B 1703   7.439   3.153   6.711 -0.2025  0.2474 -0.2016
  116POPC   C3B 1704   7.552   2.780   6.447 -0.0295  0.2058  0.1726
  116POPC   C4B 1705   7.845   2.357   6.499  0.0123 -0.0713 -0.0497
  117POPC   NC3 1706   8.976   8.691   7.296  0.0471  0.1082  0.1215
  117POPC   PO4 1707   9.252   8.291   7.288 -0.0581 -0.0538 -0.1097
  117POPC   GL1 1708   9.400   8.195   6.926 -0.3050 -0.0199 -0.0197
  117POPC   GL2 1709   9.580   7.945   6.962 -0.1895  0.0801  0.0368
  117POPC   C1A 1710   9.514   8.344   6.491 -0.1207  0.3422 -0.3038
  117POPC   D2A 1711   9.685   8.578   6.106  0.2586 -0.1564  0.0341
  117POPC   C3A 1712   9.397   8.896   5.975  0.2642  0.1832  0.1272
  117POPC   C4A 1713   9.058   9.096   6.208 -0.0247  0.0671  0.0578
  117POPC   C1B 1714   9.773   8.026   6.736  0.2472  0.2238  0.2641
  117POPC   C2B 1715   9.778   7.967   6.365  0.2089  0.0659  0.0444
  117POPC   C3B 1716   9.586   7.633   5.957  0.0473 -0.1227 -0.3406
  117POPC   C4B 1717   9.305   7.195   5.918 -0.3047  0.3228 -0.0923
  118POPC   NC3 1718   9.762   0.642   8.056  0.0881 -0.2467  0.0244
  118POPC   PO4 1719   9.815   0.892   7.681  0.0052 -0.1004 -0.1707
  118POPC   GL1 1720   9.813   1.023   7.334 -0.0380 -0.0154 -0.4017
  118POPC   GL2 1721  10.028   0.921   7.096 -0.1299 -0.3372  0.2033
  118POPC   C1A 1722   9.605   1.214   6.985 -0.3256 -0.1266 -0.0946
  118POPC   D2A 1723   9.478   1.094   6.554 -0.0444  0.5214 -0.0926
  118POPC   C3A 1724   9.427   1.181   6.190 -0.0269  0.1471 -0.0737
  118POPC   C4A 1725   9.130   1.450   5.878  0.1112 -0.2158 -0.2970
  118POPC   C1B 1726   9.947   1.026   6.672 -0.1427  0.2717  0.1020
  118POPC   C2B 1727   9.820   0.858   6.228  0.1208 -0.0349 -0.0400
  118POPC   C3B 1728   9.819   0.726   5.805  0.0917  0.2358  0.0432
  118POPC   C4B 1729   9.767   0.313   5.621  0.1210  0.2719  0.2349
  119POPC   NC3 1730   9.135   3.002   8.091  0.1427  0.0068  0.0253
  119POPC   PO4 1731   9.122   2.580   7.935 -0.0165  0.2149 -0.0227
  119POPC   GL1 1732   8.939   2.383   7.535  0.0796  0.1330  0.0860
  119POPC   GL2 1733   9.254   2.307   7.401 -0.0340  0.1093  0.2780
  119POPC   C1A 1734   8.954   2.595   7.106  0.0839  0.2150 -0.1625
  119POPC   D2A 1735   8.986   2.719   6.704 -0.0787  0.0665 -0.1616
  119POPC   C3A 1736   8.738   2.804   6.432 -0.1246 -0.1551  0.2420
  119POPC   C4A 1737   8.529   3.202   6.332 -0.1084  0.1057 -0.2512
  119POPC   C1B 1738   9.507   2.434   7.003 -0.0402  0.0377 -0.0285
  119POPC   C2B 1739   9.582   2.602   6.564 -0.5353  0.2041 -0.2509
  119POPC   C3B 1740   9.488   2.697   6.191  0.5112 -0.4420 -0.3594
  119POPC   C4B 1741   9.084   2.704   5.998 -0.2352 -0.1181  0.2018
  120POPC   NC3 1742   8.654   0.914   7.737  0.0402 -0.0131  0.1283
  120POPC   PO4 1743   8.641   1.357   7.798 -0.2909 -0.3354 -0.0827
  120POPC   GL1 1744   8.896   1.360   7.452 -0.2334  0.0021 -0.2573
  120POPC   GL2 1745   8.833   1.071   7.289 -0.4704  0.0374 -0.2030
  120POPC   C1A 1746   9.123   1.337   7.054 -0.0053  0.2011  0.2101
  120POPC   D2A 1747   9.023   1.365   6.512  0.2501  0.2711  0.3389
  120POPC   C3A 1748   8.967   0.996   6.355  0.2572 -0.1125  0.0168
  120POPC   C4A 1749   9.065   0.968   5.938  0.1907 -0.0599  0.0486
  120POPC   C1B 1750   8.593   1.141   6.957  0.0762  0.0484  0.1107
  120POPC   C2B 1751   8.526   1.351   6.608 -0.2084 -0.1470 -0.2368
  120POPC   C3B 1752   8.606   1.328   6.113 -0.0441  0.2626 -0.0970
  120POPC   C4B 1753   8.561   1.213   5.840  0.0711 -0.0563  0.1920
  121POPC   NC3 1754   8.008   4.071   7.599  0.0358  0.0139 -0.0733
  121POPC   PO4 1755   7.825   4.507   7.457  0.2284  0.0468  0.1809
  121POPC   GL1 1756   7.855   4.677   7.070  0.1318 -0.1158  0.1373
  121POPC   GL2 1757   7.617   4.787   6.928 -0.0555  0.1470 -0.1078
  121POPC   C1A 1758   8.085   4.955   6.700  0.1960  0.1498 -0.0575
  121POPC   D2A 1759   8.264   5.240   6.362 -0.0617 -0.0129 -0.2141
  121POPC   C3A 1760   8.190   5.244   6.082  0.2415 -0.0246  0.1423
  121POPC   C4A 1761   8.224   5.418   5.746  0.4194 -0.3235  0.2224
  121POPC   C1B 1762   7.651   4.521   6.600 -0.0688 -0.1030  0.1467
  121POPC   C2B 1763   7.830   4.387   6.321 -0.1833  0.1313  0.0385
  121POPC   C3B 1764   8.168   4.298   6.156 -0.3102  0.0122 -0.1482
  121POPC   C4B 1765   8.439   4.126   5.985 -0.1459  0.1517  0.2140
  122POPC   NC3 1766   8.965   0.297   8.274 -0.2102  0.4499  0.0147
  122POPC   PO4 1767   8.796   0.396   7.811  0.1299  0.1407 -0.4817
  122POPC   GL1 1768   8.580   0.177   7.523 -0.1020  0.0531 -0.3451
  122POPC   GL2 1769   8.451   0.473   7.457 -0.0219  0.0948  0.0081
  122POPC   C1A 1770   8.309   0.098   7.173 -0.1737 -0.1285  0.0230
  122POPC   D2A 1771   8.308  -0.182   6.828  0.3581 -0.0307  0.1045
  122POPC   C3A 1772   8.443  -0.158   6.372 -0.1801  0.1376  0.0723
  122POPC   C4A 1773   8.610  -0.208   5.910  0.0645  0.0241 -0.0976
  122POPC   C1B 1774   8.253   0.722   7.154  0.3122 -0.3375 -0.1998
  122POPC   C2B 1775   8.018   0.878   6.788  0.2401 -0.0839  0.1695
  122POPC   C3B 1776   7.733   0.960   6.423 -0.0176 -0.1558 -0.0600
  122POPC   C4B 1777   7.560   1.329   6.191  0.1277 -0.2124  0.1491
  123POPC   NC3 1778  10.384   7.660   7.368 -0.1871  0.1168  0.1874
  123POPC   PO4 1779  10.088   7.974   7.271  0.0139  0.2108  0.1981
  123POPC   GL1 1780  10.322   7.885   6.911 -0.0185  0.0534  0.3175
  123POPC   GL2 1781  10.201   8.250   6.883  0.0583 -0.3380 -0.1188
  123POPC   C1A 1782  10.281   7.957   6.480 -0.0997  0.4210  0.0701
  123POPC   D2A 1783  10.131   7.759   6.124 -0.0974 -0.2345 -0.0607
  123POPC   C3A 1784   9.936   7.966   5.738 -0.0761 -0.1938  0.2268
  123POPC   C4A 1785   9.660   7.990   5.522  0.0579 -0.0905  0.0511
  123POPC   C1B 1786  10.010   8.448   6.582 -0.1400 -0.2521 -0.0491
  123POPC   C2B 1787  10.112   8.354   6.132 -0.1483  0.2335 -0.3005
  123POPC   C3B 1788  10.110   8.460   5.782 -0.2660 -0.1893 -0.1608
  123POPC   C4B 1789  10.159   8.330   5.454 -0.2609 -0.4557  0.3266
  124POPC   NC3 1790   5.463   9.460   7.574 -0.0375  0.3120 -0.2313
  124POPC   PO4 1791   5.764   9.708   7.458  0.0651 -0.0180  0.0136
  124POPC   GL1 1792   6.110   9.706   7.164 -0.0597 -0.1328 -0.0443
  124POPC   GL2 1793   6.271   9.387   7.148  0.1697 -0.1680 -0.1857
  124POPC   C1A 1794   6.196   9.690   6.751 -0.0311 -0.1025 -0.0283
  124POPC   D2A 1795   6.158   9.767   6.282 -0.0432 -0.0376  0.1919
  124POPC   C3A 1796   6.508   9.568   6.015 -0.0128  0.2158  0.1626
  124POPC   C4A 1797   6.744   9.570   5.642 -0.1685 -0.1666  0.1536
  124POPC   C1B 1798   6.411   9.252   6.724 -0.1205 -0.1662 -0.2698
  124POPC   C2B 1799   6.505   9.211   6.358 -0.0601  0.1477 -0.0418
  124POPC   C3B 1800   6.702   9.063   6.023  0.0230  0.1524  0.0632
  124POPC   C4B 1801   7.060   9.002   5.695  0.4303  0.1132  0.1245
  125POPC   NC3 1802   5.568   2.190   8.195  0.0141 -0.0050 -0.3682
  125POPC   PO4 1803   5.731   1.903   7.788 -0.0344 -0.3083 -0.0590
  125POPC   GL1 1804   5.497   1.607   7.436  0.0279 -0.2818 -0.0439
  125POPC   GL2 1805   5.669   1.268   7.324  0.0694 -0.1874  0.2066
  125POPC   C1A 1806   5.330   1.763   7.009 -0.1543 -0.0937 -0.2420
  125POPC   D2A 1807   4.895   2.038   6.908  0.2123  0.3527 -0.1856
  125POPC   C3A 1808   4.720   2.188   6.522  0.1769  0.3006 -0.2609
  125POPC   C4A 1809   4.404   2.326   6.294 -0.0006  0.1802  0.3289
  125POPC   C1B 1810   5.898   1.295   6.940  0.0492 -0.1966 -0.2343
  125POPC   C2B 1811   5.873   1.255   6.563 -0.2389 -0.1279  0.2395
  125POPC   C3B 1812   5.649   1.348   6.191  0.1311 -0.0623 -0.2882
  125POPC   C4B 1813   5.594   1.439   5.787 -0.3837  0.2829  0.2179
  126POPC   NC3 1814   2.082   4.129   7.702  0.3576  0.1444  0.2198
  126POPC   PO4 1815   2.428   3.878   7.441 -0.1969  0.0918 -0.0445
  126POPC   GL1 1816   2.744   3.794   7.080 -0.0197 -0.0822  0.4472
  126POPC   GL2 1817   2.992   3.517   7.058 -0.0995 -0.2030  0.2207
  126POPC   C1A 1818   2.943   4.020   6.683  0.4692  0.3176 -0.0364
  126POPC   D2A 1819   2.816   4.164   6.281 -0.1723 -0.1148  0.0082
  126POPC   C3A 1820   2.943   4.521   6.040 -0.1111 -0.1416  0.3792
  126POPC   C4A 1821   2.960   4.513   5.605  0.0719 -0.0103  0.0283
  126POPC   C1B 1822   3.182   3.504   6.722  0.3594 -0.1134  0.1137
  126POPC   C2B 1823   3.291   3.828   6.374 -0.1791  0.1481 -0.2452
  126POPC   C3B 1824   3.328   4.072   5.936  0.2458  0.2390  0.0603
  126POPC   C4B 1825   2.984   3.991   5.627 -0.0417 -0.1729  0.3554
  127POPC   NC3 1826   0.994  10.366   8.337 -0.2044  0.1942  0.1898
  127POPC   PO4 1827   0.871  10.071   7.978  0.1315 -0.1398  0.1295
  127POPC   GL1 1828   1.088  10.028   7.483 -0.0668  0.3709 -0.0313
  127POPC   GL2 1829   0.774  10.031   7.169 -0.2483 -0.1827  0.0485
  127POPC   C1A 1830   1.336  10.274   7.211  0.3903 -0.1298 -0.1016
  127POPC   D2A 1831   1.458  10.468   6.785 -0.1037  0.2658 -0.0163
  127POPC   C3A 1832   1.208  10.466   6.497 -0.0974  0.3813 -0.0861
  127POPC   C4A 1833   1.169  10.544   6.114 -0.0103 -0.2296  0.0809
  127POPC   C1B 1834   0.875  10.381   6.900  0.3608  0.1087 -0.1146
  127POPC   C2B 1835   0.923  10.847   6.783 -0.1756 -0.1295 -0.1105
  127POPC   C3B 1836   0.730  11.191   6.450 -0.3492 -0.0259  0.1278
  127POPC   C4B 1837   0.386  11.212   6.332 -0.0092 -0.0932  0.1681
  128POPC   NC3 1838   3.455   1.612   7.326 -0.1087  0.3300  0.2072
  128POPC   PO4 1839   2.923   1.633   7.307 -0.0608  0.1086  0.1554
  128POPC   GL1 1840   3.023   1.523   6.930 -0.0166 -0.1078  0.2278
  128POPC   GL2 1841   3.321   1.333   6.933  0.3589  0.2430  0.4307
  128POPC   C1A 1842   2.775   1.431   6.649  0.1322  0.0423  0.0570
  128POPC   D2A 1843   2.322   1.279   6.372 -0.0163  0.0082 -0.1042
  128POPC   C3A 1844   2.179   0.889   6.278 -0.1524  0.2980 -0.0169
  128POPC   C4A 1845   2.160   0.586   5.910 -0.0910  0.1322  0.0080
  128POPC   C1B 1846   3.137   1.238   6.479 -0.1680  0.2033  0.3076
  128POPC   C2B 1847   2.872   1.185   6.091 -0.1054 -0.2713 -0.0079
  128POPC   C3B 1848   2.635   1.422   5.725 -0.2079  0.0005 -0.0617
  128POPC   C4B 1849   2.339   1.410   5.434  0.1510 -0.0738  0.0367
  129POPC   NC3 1850   9.350   4.659   7.197  0.0229  0.0483 -0.2076
  129POPC   PO4 1851   9.396   5.083   7.289  0.2151 -0.2287  0.1098
  129POPC   GL1 1852   9.522   5.098   6.795 -0.1828 -0.2300  0.0705
  129POPC   GL2 1853   9.502   5.296   6.630 -0.0302 -0.0262  0.3750
  129POPC   C1A 1854   9.793   4.869   6.526  0.1119 -0.0210 -0.0427
  129POPC   D2A 1855   9.682   4.750   6.034 -0.0756  0.2581  0.1103
  129POPC   C3A 1856   9.845   4.996   5.706 -0.3551 -0.2789 -0.3370
  129POPC   C4A 1857  10.130   5.081   5.384 -0.1049 -0.3788 -0.0332
  129POPC   C1B 1858   9.139   5.411   6.327 -0.3298  0.0817 -0.4502
  129POPC   C2B 1859   9.113   5.757   6.157  0.1446  0.1185  0.3099
  129POPC   C3B 1860   9.184   5.907   5.697 -0.0536  0.1110 -0.2332
  129POPC   C4B 1861   8.964   6.009   5.234  0.4253  0.0082 -0.0583
  130POPC   NC3 1862   8.616  10.401   7.829 -0.2164  0.1563  0.1295
  130POPC   PO4 1863   8.717   9.998   7.711 -0.2107  0.0675  0.2838
  130POPC   GL1 1864   8.663   9.880   7.242  0.2087  0.1477  0.0111
  130POPC   GL2 1865   8.431   9.599   7.227 -0.0364 -0.1497  0.1204
  130POPC   C1A 1866   8.744   9.874   6.829  0.2466  0.1426 -0.1386
  130POPC   D2A 1867   8.931   9.663   6.434 -0.0338 -0.0110  0.3505
  130POPC   C3A 1868   9.039   9.567   5.956  0.0118  0.1968  0.1446
  130POPC   C4A 1869   9.136   9.511   5.513 -0.0993  0.0132 -0.0556
  130POPC   C1B 1870   8.263   9.722   6.837 -0.1173 -0.0046 -0.2189
  130POPC   C2B 1871   8.424   9.738   6.390  0.0100  0.1228 -0.2564
  130POPC   C3B 1872   8.718  10.083   6.228  0.0301  0.4422  0.0598
  130POPC   C4B 1873   8.997  10.179   5.954 -0.1035 -0.1769 -0.1831
  131POPC   NC3 1874   6.891   7.161   7.651 -0.0387 -0.3650 -0.1764
  131POPC   PO4 1875   7.103   7.349   7.392 -0.1707  0.0475  0.2923
  131POPC   GL1 1876   7.066   7.340   7.036  0.1416 -0.3410  0.0350
  131POPC   GL2 1877   7.341   7.174   6.915  0.0872  0.0444 -0.1209
  131POPC   C1A 1878   7.098   7.369   6.559  0.0193  0.0912  0.1096
  131POPC   D2A 1879   7.059   7.145   6.135 -0.1269 -0.5520  0.2600
  131POPC   C3A 1880   6.923   7.173   5.746  0.0827 -0.1085 -0.0293
  131POPC   C4A 1881   6.855   7.441   5.308  0.0788 -0.4190 -0.3616
  131POPC   C1B 1882   7.599   7.138   6.578 -0.0507  0.2478  0.2539
  131POPC   C2B 1883   7.699   7.026   6.173 -0.1124  0.0281  0.2240
  131POPC   C3B 1884   7.961   6.964   5.779  0.1121  0.0312 -0.1012
  131POPC   C4B 1885   7.984   7.004   5.331 -0.2412 -0.1503 -0.0393
  132POPC   NC3 1886   9.000   3.988   7.603  0.0237 -0.1054  0.0905
  132POPC   PO4 1887   9.255   4.321   7.592  0.1044  0.1400  0.3273
  132POPC   GL1 1888   9.077   4.258   7.132 -0.0150  0.0815 -0.0939
  132POPC   GL2 1889   9.164   4.384   6.804 -0.2322 -0.2093 -0.0979
  132POPC   C1A 1890   8.657   4.291   6.977  0.0604  0.0434  0.0567
  132POPC   D2A 1891   8.508   4.153   6.485 -0.3385 -0.0459 -0.0355
  132POPC   C3A 1892   8.494   3.707   6.385  0.1157  0.0194  0.0725
  132POPC   C4A 1893   8.458   3.566   5.851 -0.0794  0.2405  0.0841
  132POPC   C1B 1894   9.467   4.304   6.524  0.1448  0.2431 -0.2111
  132POPC   C2B 1895   9.784   4.276   6.203 -0.0624  0.3348  0.2627
  132POPC   C3B 1896   9.862   4.342   5.672 -0.0293 -0.1494 -0.1562
  132POPC   C4B 1897   9.485   4.543   5.573  0.0546 -0.1658 -0.0659
  133POPC   NC3 1898   2.970  10.542   8.255  0.2904  0.2202 -0.1958
  133POPC   PO4 1899   3.371  10.657   8.017  0.0036  0.4059  0.0683
  133POPC   GL1 1900   3.116  10.454   7.682 -0.1475  0.0495  0.1359
  133POPC   GL2 1901   2.991  10.152   7.455 -0.2947  0.0231  0.3154
  133POPC   C1A 1902   2.860  10.614   7.311 -0.1233 -0.0179 -0.0526
  133POPC   D2A 1903   2.548  10.976   7.316  0.1728  0.2451  0.3283
  133POPC   C3A 1904   2.468  11.193   7.018  0.0707  0.0065  0.1564
  133POPC   C4A 1905   2.524  11.613   7.075  0.0776  0.0025  0.1140
  133POPC   C1B 1906   3.020   9.798   7.117  0.0490  0.2014  0.0034
  133POPC   C2B 1907   3.393   9.633   6.900  0.2648  0.1870 -0.4047
  133POPC   C3B 1908   3.688   9.442   6.643  0.0702  0.0859 -0.0555
  133POPC   C4B 1909   4.027   9.115   6.588  0.0551  0.0391 -0.0925
  134POPC   NC3 1910   0.590   7.234   7.466 -0.2814  0.1844 -0.0532
  134POPC   PO4 1911   0.424   7.604   7.402 -0.5104  0.2166  0.0476
  134POPC   GL1 1912   0.488   7.445   6.973  0.0642  0.0867  0.3904
  134POPC   GL2 1913   0.472   7.095   6.913  0.0050  0.1496  0.0589
  134POPC   C1A 1914   0.644   7.388   6.528  0.2527  0.2497  0.1071
  134POPC   D2A 1915   0.696   7.400   6.062  0.1988 -0.2399  0.4452
  134POPC   C3A 1916   0.638   7.730   5.575 -0.1745  0.0785 -0.2911
  134POPC   C4A 1917   0.474   7.897   5.188  0.2420 -0.0213 -0.0586
  134POPC   C1B 1918   0.142   7.141   6.685  0.4340  0.0574  0.1640
  134POPC   C2B 1919   0.148   7.449   6.317  0.2222  0.2012 -0.0140
  134POPC   C3B 1920   0.390   7.782   5.992  0.1076  0.5200  0.3543
  134POPC   C4B 1921   0.143   7.819   5.573 -0.1671  0.0506 -0.2351
  135POPC   NC3 1922   0.036   1.997   7.468 -0.0283 -0.1276  0.2747
  135POPC   PO4 1923   0.448   2.087   7.130  0.0370 -0.2648 -0.3469
  135POPC   GL1 1924   0.695   1.757   6.978  0.1686 -0.1702  0.1483
  135POPC   GL2 1925   0.487   1.611   6.882  0.1026 -0.2348  0.0974
  135POPC   C1A 1926   0.957   1.603   6.520 -0.3415  0.0791  0.1854
  135POPC   D2A 1927   0.797   1.401   6.178  0.1751 -0.3113 -0.0181
  135POPC   C3A 1928   0.644   1.385   5.732 -0.2081 -0.2849 -0.1507
  135POPC   C4A 1929   0.642   1.477   5.324 -0.3255  0.1169  0.1722
  135POPC   C1B 1930   0.492   1.267   6.533 -0.1157 -0.1198 -0.1225
  135POPC   C2B 1931   0.401   1.037   6.113  0.0448 -0.1260  0.0445
  135POPC   C3B 1932   0.349   0.628   5.981 -0.0327 -0.1334  0.0337
  135POPC   C4B 1933   0.283   0.227   5.782  0.1567  0.2117  0.0515
  136POPC   NC3 1934   5.794   0.180   7.979 -0.1139  0.1679 -0.0372
  136POPC   PO4 1935   6.021   0.324   7.690  0.0734  0.4735  0.1421
  136POPC   GL1 1936   6.110   0.065   7.236  0.2944 -0.1296 -0.2130
  136POPC   GL2 1937   6.420  -0.194   7.150 -0.1014 -0.0096  0.0843
  136POPC   C1A 1938   6.013  -0.256   6.850 -0.0506 -0.3029 -0.2007
  136POPC   D2A 1939   6.043  -0.709   6.613  0.1902  0.0838 -0.1786
  136POPC   C3A 1940   5.960  -0.729   6.177 -0.1277 -0.5715  0.0446
  136POPC   C4A 1941   6.198  -0.888   5.730  0.0479 -0.0116  0.0144
  136POPC   C1B 1942   6.458   0.004   6.782 -0.2944  0.1633 -0.2008
  136POPC   C2B 1943   6.686   0.017   6.405  0.2055 -0.2404  0.1417
  136POPC   C3B 1944   7.089  -0.049   6.401  0.0005 -0.0700  0.1748
  136POPC   C4B 1945   7.385  -0.248   6.593  0.2541  0.0454 -0.0218
  137POPC   NC3 1946  10.797   6.981   7.639  0.1914  0.2568  0.0128
  137POPC   PO4 1947  10.419   7.115   7.369 -0.0154  0.0777  0.0061
  137POPC   GL1 1948  10.378   7.325   6.914 -0.0630  0.0737 -0.0694
  137POPC   GL2 1949  10.774   7.484   6.787  0.2547  0.1785  0.0122
  137POPC   C1A 1950  10.050   7.473   6.707 -0.1168 -0.0996  0.0552
  137POPC   D2A 1951   9.569   7.506   6.658  0.0506 -0.4610 -0.1473
  137POPC   C3A 1952   9.509   7.111   6.431  0.1725  0.0000 -0.0785
  137POPC   C4A 1953   9.225   6.843   6.277  0.1442  0.0461 -0.3666
  137POPC   C1B 1954  10.445   7.437   6.406  0.3173  0.2438  0.2522
  137POPC   C2B 1955  10.328   7.310   5.962  0.1902  0.1590 -0.3200
  137POPC   C3B 1956  10.218   7.565   5.691 -0.1707  0.2158  0.1586
  137POPC   C4B 1957   9.995   7.645   5.376 -0.1940  0.1931 -0.1602
  138POPC   NC3 1958   1.862   2.506   7.899  0.1074  0.0193 -0.0829
  138POPC   PO4 1959   2.066   2.556   7.556  0.1900 -0.2980 -0.0707
  138POPC   GL1 1960   2.320   2.435   7.245 -0.0388 -0.0190  0.3014
  138POPC   GL2 1961   2.538   2.703   7.028 -0.0670 -0.0735  0.0764
  138POPC   C1A 1962   2.258   2.292   6.814  0.4968  0.0164  0.1281
  138POPC   D2A 1963   2.008   2.360   6.488 -0.1008 -0.2846  0.0459
  138POPC   C3A 1964   1.764   2.753   6.526  0.1642  0.0427  0.0335
  138POPC   C4A 1965   1.721   3.129   6.753  0.2037 -0.1391  0.3137
  138POPC   C1B 1966   2.325   2.809   6.706  0.1103 -0.2765  0.0332
  138POPC   C2B 1967   2.289   2.860   6.329 -0.0469 -0.0289 -0.0067
  138POPC   C3B 1968   2.549   2.619   6.030  0.2943  0.1154 -0.0006
  138POPC   C4B 1969   2.652   2.246   5.837 -0.2056  0.2165  0.0971
  139POPC   NC3 1970   0.636   1.123   7.470  0.0765  0.2374 -0.2931
  139POPC   PO4 1971   1.014   0.993   7.633 -0.2234 -0.1320  0.0470
  139POPC   GL1 1972   1.068   0.719   7.341  0.0935  0.4166 -0.2776
  139POPC   GL2 1973   1.302   0.897   7.172  0.0876  0.2337  0.0658
  139POPC   C1A 1974   1.156   0.457   7.000 -0.1603  0.3040  0.0142
  139POPC   D2A 1975   1.119   0.620   6.581 -0.0427  0.1578 -0.2302
  139POPC   C3A 1976   1.310   0.618   6.140 -0.1446 -0.1575 -0.0406
  139POPC   C4A 1977   1.668   0.387   5.975  0.1641  0.0900 -0.1048
  139POPC   C1B 1978   1.595   0.775   6.814  0.0136  0.0209  0.0470
  139POPC   C2B 1979   1.777   0.481   6.441  0.0600 -0.4172 -0.1372
  139POPC   C3B 1980   1.878   0.033   6.316  0.0479 -0.1494  0.0254
  139POPC   C4B 1981   1.674  -0.321   6.188 -0.2403 -0.3154  0.2738
  140POPC   NC3 1982   3.198   4.979   7.942 -0.0065 -0.1799  0.0753
  140POPC   PO4 1983   3.213   5.230   7.500  0.0319  0.3133  0.0257
  140POPC   GL1 1984   2.978   5.183   7.113  0.1937  0.0660 -0.2825
  140POPC   GL2 1985   2.723   4.926   7.133 -0.0194  0.0939  0.1046
  140POPC   C1A 1986   3.122   5.066   6.654 -0.0813  0.0918  0.1493
  140POPC   D2A 1987   3.018   5.254   6.305 -0.1807  0.0097  0.1528
  140POPC   C3A 1988   2.611   5.406   6.308  0.2259  0.0324  0.0508
  140POPC   C4A 1989   2.484   5.451   5.853 -0.2782  0.2677 -0.1931
  140POPC   C1B 1990   2.677   4.946   6.585 -0.0143  0.0202  0.1287
  140POPC   C2B 1991   2.698   4.950   6.107 -0.3488 -0.0786 -0.6045
  140POPC   C3B 1992   2.555   4.817   5.721 -0.1799 -0.3117  0.0564
  140POPC   C4B 1993   2.618   4.775   5.328 -0.0587 -0.3453  0.2044
  141POPC   NC3 1994   5.975   8.116   7.641 -0.2025  0.1618 -0.3669
  141POPC   PO4 1995   6.357   8.438   7.578  0.0805 -0.0435 -0.1499
  141POPC   GL1 1996   6.214   8.435   7.191 -0.2083  0.1442 -0.0736
  141POPC   GL2 1997   6.220   8.676   7.093  0.3125 -0.3722  0.0479
  141POPC   C1A 1998   6.070   8.277   6.798 -0.1694 -0.0537  0.2662
  141POPC   D2A 1999   6.037   8.224   6.284  0.2938  0.2985  0.0254
  141POPC   C3A 2000   5.911   8.007   5.984 -0.1657 -0.1318  0.1477
  141POPC   C4A 2001   5.511   7.719   5.868  0.5670 -0.1642 -0.0998
  141POPC   C1B 2002   6.030   8.820   6.702 -0.1647 -0.0036  0.0471
  141POPC   C2B 2003   5.975   9.263   6.462 -0.2043 -0.1200  0.2449
  141POPC   C3B 2004   6.128   9.144   6.080 -0.0282 -0.0688 -0.0973
  141POPC   C4B 2005   6.291   8.795   5.810  0.1545 -0.1910 -0.0156
  142POPC   NC3 2006   7.118  10.898   7.946 -0.1468  0.2784  0.0688
  142POPC   PO4 2007   7.320  10.440   7.835  0.1365  0.2577 -0.0132
  142POPC   GL1 2008   7.269  10.754   7.424 -0.2692 -0.1297 -0.0439
  142POPC   GL2 2009   6.950  10.657   7.309  0.0898 -0.2241  0.0521
  142POPC   C1A 2010   7.386  10.926   6.965 -0.0596 -0.2003 -0.1562
  142POPC   D2A 2011   7.424  11.133   6.601  0.2141 -0.0383  0.0201
  142POPC   C3A 2012   7.515  11.185   6.181  0.1620  0.0603 -0.0197
  142POPC   C4A 2013   7.266  11.399   5.831 -0.0568 -0.0667  0.1880
  142POPC   C1B 2014   6.937  10.588   6.843  0.1028 -0.4381  0.1170
  142POPC   C2B 2015   6.821  10.450   6.390  0.0153 -0.1052 -0.2293
  142POPC   C3B 2016   6.844  10.526   6.049  0.2146 -0.0774  0.1305
  142POPC   C4B 2017   7.027  10.576   5.610  0.0361  0.1629 -0.2491
  143POPC   NC3 2018   3.462   8.287   7.680  0.0965 -0.1526 -0.2468
  143POPC   PO4 2019   3.534   8.512   7.301 -0.1104  0.0169 -0.0320
  143POPC   GL1 2020   3.593   8.362   6.878  0.2183 -0.2029 -0.0556
  143POPC   GL2 2021   3.889   8.386   6.916 -0.1862  0.3298 -0.1604
  143POPC   C1A 2022   3.675   8.182   6.465 -0.0886  0.0195 -0.2509
  143POPC   D2A 2023   3.923   7.974   6.202 -0.1874  0.2176  0.0856
  143POPC   C3A 2024   4.107   8.142   5.748  0.4028 -0.0303  0.1706
  143POPC   C4A 2025   4.348   8.600   5.761  0.2206  0.1332 -0.3764
  143POPC   C1B 2026   4.167   8.603   6.722  0.1651  0.0750  0.0391
  143POPC   C2B 2027   4.209   8.806   6.215  0.4367 -0.3105 -0.2092
  143POPC   C3B 2028   4.176   8.996   5.872 -0.0529 -0.3486  0.0488
  143POPC   C4B 2029   4.376   9.007   5.389  0.0049  0.3531  0.3961
  144POPC   NC3 2030   9.099   3.938   8.147  0.2350 -0.0764  0.2534
  144POPC   PO4 2031   9.363   3.680   7.895  0.1895  0.1608 -0.2228
  144POPC   GL1 2032   9.328   3.370   7.705 -0.1106  0.0974 -0.0190
  144POPC   GL2 2033   9.614   3.348   7.400 -0.2087  0.0859 -0.0250
  144POPC   C1A 2034   9.001   3.199   7.461  0.0492  0.0426  0.1096
  144POPC   D2A 2035   8.618   3.061   7.279 -0.0277  0.4428 -0.3174
  144POPC   C3A 2036   8.474   2.762   6.869  0.1702 -0.2040 -0.1622
  144POPC   C4A 2037   8.121   2.536   6.848 -0.0367  0.2725 -0.2751
  144POPC   C1B 2038   9.681   3.324   6.920  0.0981  0.0398  0.1644
  144POPC   C2B 2039   9.468   3.172   6.612 -0.1796 -0.1296 -0.0488
  144POPC   C3B 2040   9.152   3.087   6.353  0.4496 -0.0331 -0.1742
  144POPC   C4B 2041   8.902   3.217   5.999  0.0242  0.1159 -0.0174
  145POPC   NC3 2042   2.954   4.257   7.876  0.4239 -0.0864 -0.0341
  145POPC   PO4 2043   2.984   4.172   7.438 -0.1487  0.0346 -0.1389
  145POPC   GL1 2044   2.930   4.378   7.118  0.0364  0.0395  0.0495
  145POPC   GL2 2045   2.594   4.290   7.047  0.0636 -0.1009  0.1482
  145POPC   C1A 2046   3.081   4.538   6.716  0.0180 -0.1774  0.0892
  145POPC   D2A 2047   3.317   4.382   6.355 -0.1134 -0.1660  0.0169
  145POPC   C3A 2048   3.428   4.541   5.921 -0.0874 -0.0952  0.0055
  145POPC   C4A 2049   3.636   4.936   5.825  0.0441 -0.3166  0.2480
  145POPC   C1B 2050   2.548   4.471   6.653 -0.2140 -0.1183 -0.0255
  145POPC   C2B 2051   2.419   4.619   6.272 -0.0359 -0.0931  0.0556
  145POPC   C3B 2052   2.483   4.319   5.932  0.0403 -0.2442 -0.1309
  145POPC   C4B 2053   2.378   4.058   5.694  0.1261 -0.0253  0.0280
  146POPC   NC3 2054   2.185   8.120   6.787  0.2489 -0.2534 -0.1789
  146POPC   PO4 2055   1.833   8.285   6.656 -0.0698  0.1510 -0.0736
  146POPC   GL1 2056   1.882   7.907   6.434  0.0654  0.2286 -0.2110
  146POPC   GL2 2057   2.153   7.810   6.263 -0.3739 -0.2200  0.2017
  146POPC   C1A 2058   1.846   7.577   6.042  0.1219 -0.1540  0.1093
  146POPC   D2A 2059   2.054   7.355   5.698 -0.0878 -0.1957  0.0194
  146POPC   C3A 2060   1.906   7.288   5.386  0.0721 -0.1895 -0.1539
  146POPC   C4A 2061   1.798   6.863   5.228  0.1629  0.2120  0.0497
  146POPC   C1B 2062   2.331   7.460   6.141 -0.0099  0.0706  0.0321
  146POPC   C2B 2063   2.443   7.050   5.863 -0.1213 -0.0254  0.1206
  146POPC   C3B 2064   2.113   6.770   5.712  0.3261  0.2152  0.0773
  146POPC   C4B 2065   1.756   6.453   5.580  0.3411  0.0894  0.1863
  147POPC   NC3 2066   8.178   8.367   7.993 -0.0719  0.1057 -0.2709
  147POPC   PO4 2067   8.514   8.231   7.755 -0.1227  0.2047  0.0436
  147POPC   GL1 2068   8.728   8.284   7.300  0.0601 -0.0597 -0.1543
  147POPC   GL2 2069   8.830   8.001   7.199  0.0225 -0.0540 -0.1612
  147POPC   C1A 2070   8.542   8.458   6.926  0.0223 -0.4830  0.2530
  147POPC   D2A 2071   8.312   8.840   6.705 -0.2302  0.1064 -0.4630
  147POPC   C3A 2072   7.983   8.788   6.345 -0.0297  0.1447  0.1041
  147POPC   C4A 2073   7.940   8.906   6.014  0.1619 -0.0972  0.4264
  147POPC   C1B 2074   8.680   8.046   6.754 -0.0950  0.3182  0.0751
  147POPC   C2B 2075   8.763   7.991   6.364 -0.6037 -0.1373 -0.0856
  147POPC   C3B 2076   8.609   8.083   5.916 -0.3241 -0.1466  0.1893
  147POPC   C4B 2077   8.499   8.393   5.628 -0.0824  0.3333  0.1066
  148POPC   NC3 2078   1.512   5.744   7.108 -0.1757  0.1449 -0.1756
  148POPC   PO4 2079   1.635   6.238   7.146 -0.2141  0.2556 -0.0256
  148POPC   GL1 2080   1.342   6.230   6.869 -0.1073  0.0181 -0.0985
  148POPC   GL2 2081   1.202   6.485   6.941 -0.0638 -0.3702  0.1778
  148POPC   C1A 2082   1.412   6.062   6.433 -0.1471 -0.1607  0.1020
  148POPC   D2A 2083   1.708   5.779   6.203 -0.2778  0.4459  0.2305
  148POPC   C3A 2084   1.464   5.556   5.863  0.1878  0.4806 -0.3258
  148POPC   C4A 2085   1.320   5.258   5.609 -0.0374  0.1226  0.3857
  148POPC   C1B 2086   1.177   6.563   6.423 -0.0480 -0.0580 -0.0046
  148POPC   C2B 2087   1.095   6.771   6.136 -0.0911 -0.1753  0.1643
  148POPC   C3B 2088   0.943   6.941   5.748 -0.2023  0.0774 -0.0483
  148POPC   C4B 2089   0.757   7.154   5.467 -0.3549 -0.1235  0.2127
  149POPC   NC3 2090   0.922   6.056   7.143  0.0250 -0.3335  0.0202
  149POPC   PO4 2091   1.036   5.654   6.965  0.1546 -0.0679 -0.1273
  149POPC   GL1 2092   1.178   5.508   6.630  0.0786 -0.0492 -0.1302
  149POPC   GL2 2093   1.111   5.168   6.565 -0.2792  0.1338 -0.1138
  149POPC   C1A 2094   1.149   5.683   6.229  0.1943 -0.0763 -0.3609
  149POPC   D2A 2095   1.077   5.841   5.750 -0.0220  0.0811 -0.0369
  149POPC   C3A 2096   1.349   5.953   5.526  0.0499 -0.0435  0.0279
  149POPC   C4A 2097   1.676   6.025   5.760  0.0970  0.0940  0.0641
  149POPC   C1B 2098   1.300   4.740   6.305 -0.1543 -0.2081 -0.1985
  149POPC   C2B 2099   1.268   4.724   5.823  0.2014 -0.0924  0.0937
  149POPC   C3B 2100   0.949   4.901   5.618 -0.1614  0.3238  0.0310
  149POPC   C4B 2101   0.883   5.045   5.201  0.1746 -0.0695  0.1984
  150POPC   NC3 2102   3.678   5.401   7.564  0.0596  0.1269  0.0994
  150POPC   PO4 2103   3.849   5.613   7.254 -0.2340  0.0204 -0.2732
  150POPC   GL1 2104   3.896   5.653   6.862  0.0362 -0.2668  0.1620
  150POPC   GL2 2105   4.166   5.487   6.859 -0.0858  0.0651  0.0556
  150POPC   C1A 2106   3.929   5.865   6.436  0.0911  0.4027 -0.1425
  150POPC   D2A 2107   3.997   5.726   6.042  0.2857 -0.3525  0.0712
  150POPC   C3A 2108   3.789   5.962   5.631  0.1478  0.2382  0.0175
  150POPC   C4A 2109   3.326   5.840   5.443  0.0926 -0.1704  0.3200
  150POPC   C1B 2110   4.265   5.488   6.387  0.1932  0.1421 -0.2089
  150POPC   C2B 2111   4.513   5.553   6.002 -0.0900 -0.0390 -0.1150
  150POPC   C3B 2112   4.771   5.929   5.899 -0.2707 -0.1306 -0.1167
  150POPC   C4B 2113   4.757   6.201   5.522 -0.2075 -0.1757  0.0338
  151POPC   NC3 2114   2.411   1.155   7.648  0.1194 -0.0084  0.0726
  151POPC   PO4 2115   2.849   1.350   7.691  0.1106 -0.1321 -0.4091
  151POPC   GL1 2116   2.753   1.182   7.194  0.2393 -0.2645  0.1720
  151POPC   GL2 2117   2.900   1.038   7.005 -0.1522  0.1064 -0.0701
  151POPC   C1A 2118   2.355   1.182   6.882  0.0039  0.0104 -0.2238
  151POPC   D2A 2119   2.085   0.780   6.815  0.1204 -0.1122  0.0426
  151POPC   C3A 2120   1.936   0.422   6.958  0.0789  0.0993 -0.1371
  151POPC   C4A 2121   2.044   0.260   7.307  0.0279  0.1191 -0.4024
  151POPC   C1B 2122   2.743   0.955   6.668 -0.0154  0.0367  0.2150
  151POPC   C2B 2123   2.629   0.810   6.317  0.0413  0.3148 -0.2886
  151POPC   C3B 2124   2.606   0.440   6.082 -0.1242  0.1281 -0.0363
  151POPC   C4B 2125   2.372   0.081   5.943 -0.1362  0.0525 -0.1197
  152POPC   NC3 2126   8.073   2.224   7.982 -0.0095 -0.2264  0.0501
  152POPC   PO4 2127   7.679   2.179   7.902  0.1092 -0.4658  0.0383
  152POPC   GL1 2128   7.763   2.248   7.507  0.1948  0.1170  0.1733
  152POPC   GL2 2129   7.618   2.541   7.370  0.0243 -0.0673 -0.0083
  152POPC   C1A 2130   7.862   2.192   7.039  0.1174 -0.0279  0.1254
  152POPC   D2A 2131   7.789   1.767   6.821 -0.1405 -0.4012  0.0070
  152POPC   C3A 2132   7.805   1.809   6.347  0.0914 -0.0552  0.1437
  152POPC   C4A 2133   7.915   2.051   5.925  0.0152 -0.1961 -0.0580
  152POPC   C1B 2134   7.372   2.193   7.081 -0.0460 -0.1305 -0.1011
  152POPC   C2B 2135   6.985   1.927   6.855 -0.1348  0.0510  0.0456
  152POPC   C3B 2136   6.732   1.711   6.655  0.0959 -0.1577  0.0176
  152POPC   C4B 2137   6.551   1.360   6.473 -0.3561  0.0706 -0.2456
  153POPC   NC3 2138  10.778   1.331   7.382  0.1656 -0.0946 -0.1247
  153POPC   PO4 2139  10.951   0.882   7.417  0.1737  0.0950 -0.2579
  153POPC   GL1 2140  10.796   0.934   6.974  0.0137  0.4419 -0.2225
  153POPC   GL2 2141  10.470   1.048   6.958  0.0725  0.1407 -0.0968
  153POPC   C1A 2142  10.890   0.900   6.579 -0.2644 -0.0058 -0.7070
  153POPC   D2A 2143  10.661   0.979   6.258 -0.0415 -0.3285  0.2306
  153POPC   C3A 2144  10.849   0.965   5.830 -0.1406  0.0005 -0.2131
  153POPC   C4A 2145  10.689   0.945   5.391 -0.2578  0.2488  0.0790
  153POPC   C1B 2146  10.277   0.695   6.740 -0.3707  0.0422  0.1395
  153POPC   C2B 2147  10.256   0.635   6.290  0.2137 -0.2154 -0.0602
  153POPC   C3B 2148  10.348   0.829   5.828 -0.3955 -0.2373  0.3320
  153POPC   C4B 2149  10.412   1.186   5.774 -0.0473  0.1495  0.3113
  154POPC   NC3 2150   6.789   9.429   8.090 -0.0167  0.1342  0.3890
  154POPC   PO4 2151   6.654   9.326   7.603  0.4083  0.0664  0.0002
  154POPC   GL1 2152   6.781   9.326   7.290 -0.0838  0.0354  0.1301
  154POPC   GL2 2153   6.885   9.190   7.035 -0.0809 -0.0859 -0.0711
  154POPC   C1A 2154   6.662   9.702   7.083 -0.1824  0.2072  0.2732
  154POPC   D2A 2155   6.623   9.902   6.764 -0.2780 -0.0611 -0.1467
  154POPC   C3A 2156   6.659   9.675   6.471  0.2231  0.1370  0.0418
  154POPC   C4A 2157   6.945   9.367   6.324 -0.0562 -0.0031 -0.1214
  154POPC   C1B 2158   6.934   8.915   6.602  0.1027 -0.1040 -0.0798
  154POPC   C2B 2159   6.799   8.594   6.283 -0.3116  0.2383 -0.0767
  154POPC   C3B 2160   6.863   8.541   5.900 -0.1257  0.1258  0.2537
  154POPC   C4B 2161   6.782   8.333   5.638 -0.3264  0.2708  0.0585
  155POPC   NC3 2162   8.343   9.151   8.254  0.4154  0.2157 -0.1205
  155POPC   PO4 2163   8.184   8.884   7.962 -0.0133  0.0286  0.1562
  155POPC   GL1 2164   8.118   8.706   7.512 -0.0171 -0.2649  0.3307
  155POPC   GL2 2165   8.255   8.393   7.362  0.2001  0.2744  0.0653
  155POPC   C1A 2166   7.888   8.744   7.116  0.2414 -0.0521 -0.1129
  155POPC   D2A 2167   7.758   8.935   6.767  0.0299  0.1180  0.0638
  155POPC   C3A 2168   7.452   9.050   6.398  0.0440  0.3304 -0.0129
  155POPC   C4A 2169   7.135   8.925   6.155  0.0830 -0.0198  0.2946
  155POPC   C1B 2170   8.066   8.283   6.892 -0.0629  0.2086 -0.0060
  155POPC   C2B 2171   8.289   8.282   6.504 -0.0346  0.1103 -0.1573
  155POPC   C3B 2172   8.515   8.445   6.304  0.1514  0.1357 -0.0651
  155POPC   C4B 2173   8.705   8.827   6.388  0.1017  0.0503  0.0260
  156POPC   NC3 2174   4.539   2.807   7.852  0.2673 -0.0503  0.0368
  156POPC   PO4 2175   4.307   2.524   7.644  0.1476 -0.0832 -0.0592
  156POPC   GL1 2176   4.232   2.276   7.276 -0.1172  0.0559  0.1282
  156POPC   GL2 2177   4.438   2.302   7.026  0.1548 -0.1630 -0.2134
  156POPC   C1A 2178   3.964   2.218   6.832 -0.2018 -0.0416 -0.3242
  156POPC   D2A 2179   3.839   2.332   6.397 -0.0522 -0.3480 -0.1122
  156POPC   C3A 2180   3.562   2.731   6.182  0.0645 -0.2056 -0.0350
  156POPC   C4A 2181   3.442   3.038   5.911 -0.0681  0.2611  0.0986
  156POPC   C1B 2182   4.373   2.571   6.731  0.0174 -0.2843 -0.1387
  156POPC   C2B 2183   4.200   2.757   6.357 -0.1284  0.1166  0.0637
  156POPC   C3B 2184   4.053   2.518   5.992 -0.0598 -0.2958  0.2815
  156POPC   C4B 2185   3.849   2.518   5.635  0.1709 -0.1571 -0.2407
  157POPC   NC3 2186   9.483   7.007   7.462  0.0812 -0.1487 -0.3388
  157POPC   PO4 2187   9.154   6.738   7.266  0.1230 -0.0549 -0.0171
  157POPC   GL1 2188   9.306   6.655   6.827 -0.2144  0.1332 -0.0010
  157POPC   GL2 2189   9.348   6.326   6.844  0.1846 -0.1511 -0.2648
  157POPC   C1A 2190   9.662   6.643   6.482 -0.0990  0.1326  0.0699
  157POPC   D2A 2191   9.739   6.768   6.125 -0.1964 -0.0470 -0.2304
  157POPC   C3A 2192   9.521   6.758   5.717  0.0705  0.4996 -0.4826
  157POPC   C4A 2193   9.386   6.683   5.354 -0.4521 -0.2794  0.2390
  157POPC   C1B 2194   9.295   6.245   6.457  0.2951 -0.0773  0.0360
  157POPC   C2B 2195   9.329   6.300   6.046  0.0285 -0.2758  0.0118
  157POPC   C3B 2196   9.148   6.376   5.680 -0.0867 -0.2468 -0.2760
  157POPC   C4B 2197   8.977   6.490   5.348 -0.1873  0.1855  0.3630
  158POPC   NC3 2198   5.877   7.571   7.559 -0.1266 -0.0033 -0.0354
  158POPC   PO4 2199   6.088   7.208   7.383 -0.2231 -0.1342 -0.1174
  158POPC   GL1 2200   6.279   7.210   7.035  0.0911 -0.0170  0.0580
  158POPC   GL2 2201   6.558   7.404   7.084  0.0437  0.0084  0.1316
  158POPC   C1A 2202   6.101   7.046   6.704 -0.3319  0.1850  0.0043
  158POPC   D2A 2203   6.238   7.098   6.234  0.0108  0.0506 -0.1340
  158POPC   C3A 2204   6.509   6.958   6.005  0.0761  0.0196  0.0318
  158POPC   C4A 2205   6.899   6.689   6.103  0.1235  0.3657 -0.1165
  158POPC   C1B 2206   6.704   7.131   6.803 -0.2583 -0.1826  0.0297
  158POPC   C2B 2207   7.000   6.882   6.608 -0.2360 -0.1817  0.4983
  158POPC   C3B 2208   7.296   6.815   6.399  0.0950  0.1883 -0.3125
  158POPC   C4B 2209   7.394   6.705   5.941 -0.0830 -0.0421  0.1668
  159POPC   NC3 2210   5.250   8.097   8.115  0.1336  0.1491  0.2451
  159POPC   PO4 2211   5.564   7.863   7.785  0.1217 -0.1931 -0.2106
  159POPC   GL1 2212   5.603   7.954   7.320  0.2264  0.1274 -0.0778
  159POPC   GL2 2213   5.613   8.290   7.225 -0.2142 -0.0924 -0.0524
  159POPC   C1A 2214   5.636   7.827   6.838  0.1790  0.0053 -0.2213
  159POPC   D2A 2215   5.595   7.809   6.345 -0.2832  0.0871 -0.0884
  159POPC   C3A 2216   5.186   7.696   6.422  0.2308 -0.0987 -0.0010
  159POPC   C4A 2217   4.784   7.632   6.502 -0.1517 -0.4957 -0.2477
  159POPC   C1B 2218   5.663   8.497   6.840  0.3370  0.0147 -0.1093
  159POPC   C2B 2219   5.544   8.305   6.505 -0.0903 -0.2631 -0.2768
  159POPC   C3B 2220   5.495   8.234   6.078  0.3208 -0.2475  0.1087
  159POPC   C4B 2221   5.674   8.147   5.587  0.1870  0.1280  0.0671
  160POPC   NC3 2222   5.916   9.181   8.007  0.0043 -0.3492 -0.0278
  160POPC   PO4 2223   5.861   9.217   7.479 -0.2321  0.0170 -0.3318
  160POPC   GL1 2224   5.763   9.255   7.050  0.0131  0.1246 -0.0901
  160POPC   GL2 2225   5.690   9.599   6.905 -0.2846 -0.8012  0.1727
  160POPC   C1A 2226   5.494   9.211   6.621 -0.0938 -0.0598 -0.1021
  160POPC   D2A 2227   5.481   9.260   6.088 -0.0291  0.2246  0.0231
  160POPC   C3A 2228   5.745   9.193   5.750 -0.1123 -0.0476 -0.3901
  160POPC   C4A 2229   5.713   9.245   5.340 -0.5336 -0.0556 -0.2944
  160POPC   C1B 2230   5.631   9.648   6.376 -0.2888  0.0154  0.2025
  160POPC   C2B 2231   5.775   9.663   5.887 -0.2630  0.0680  0.1799
  160POPC   C3B 2232   6.174   9.470   5.597  0.1315  0.0108  0.0218
  160POPC   C4B 2233   6.517   9.115   5.535 -0.2144 -0.0156  0.0509
  161POPC   NC3 2234   7.234   6.867   7.339  0.1941 -0.0075 -0.0436
  161POPC   PO4 2235   7.604   6.656   7.531  0.2205  0.0485  0.1621
  161POPC   GL1 2236   7.587   6.612   7.091 -0.1439 -0.1800 -0.1158
  161POPC   GL2 2237   7.940   6.686   6.949 -0.0575  0.0624 -0.2407
  161POPC   C1A 2238   7.477   6.431   6.814 -0.0019  0.1703 -0.1729
  161POPC   D2A 2239   7.088   6.216   6.790  0.1677 -0.0551  0.1328
  161POPC   C3A 2240   6.720   6.424   6.616  0.0302  0.1880 -0.1248
  161POPC   C4A 2241   6.507   6.684   6.777 -0.3930  0.0206 -0.3545
  161POPC   C1B 2242   7.875   6.552   6.445  0.0579 -0.0083 -0.0427
  161POPC   C2B 2243   7.477   6.297   6.303  0.0223 -0.0041 -0.1699
  161POPC   C3B 2244   7.050   6.221   6.204  0.1748  0.1742 -0.2382
  161POPC   C4B 2245   6.602   6.232   6.188  0.2685  0.2291  0.0566
  162POPC   NC3 2246   1.854   6.894   7.560  0.0204  0.0166 -0.0548
  162POPC   PO4 2247   1.496   7.206   7.283 -0.0327 -0.0739 -0.3271
  162POPC   GL1 2248   1.390   7.049   6.833  0.1550 -0.3191 -0.0511
  162POPC   GL2 2249   1.080   6.961   6.783 -0.0762 -0.0321  0.2700
  162POPC   C1A 2250   1.597   6.834   6.467  0.4632  0.1666  0.0384
  162POPC   D2A 2251   1.591   6.630   6.050 -0.2619  0.2404  0.0049
  162POPC   C3A 2252   1.423   6.360   6.034  0.0998 -0.0545 -0.0256
  162POPC   C4A 2253   1.066   6.233   6.046  0.1216  0.2924  0.1387
  162POPC   C1B 2254   0.695   6.927   6.437  0.0034 -0.1241 -0.2242
  162POPC   C2B 2255   0.562   6.862   6.010 -0.0210  0.1436  0.3419
  162POPC   C3B 2256   0.455   6.806   5.588 -0.1802 -0.0633 -0.3491
  162POPC   C4B 2257   0.036   6.739   5.389 -0.2629  0.0060 -0.0928
  163POPC   NC3 2258   5.513   2.838   7.617 -0.1532 -0.0752 -0.2649
  163POPC   PO4 2259   5.513   3.223   7.641 -0.0755 -0.0553 -0.1939
  163POPC   GL1 2260   5.772   3.096   7.251  0.0074  0.2742 -0.1983
  163POPC   GL2 2261   5.950   3.337   7.097 -0.0675  0.0807  0.2225
  163POPC   C1A 2262   5.990   2.844   6.880 -0.1647 -0.1666 -0.2193
  163POPC   D2A 2263   5.975   2.673   6.495 -0.2471  0.0130  0.3497
  163POPC   C3A 2264   6.294   2.516   6.188 -0.1086 -0.0412 -0.0152
  163POPC   C4A 2265   6.422   2.074   6.136 -0.3221  0.1064  0.0745
  163POPC   C1B 2266   6.221   3.620   6.803  0.0973  0.1319  0.0779
  163POPC   C2B 2267   6.656   3.489   6.516 -0.1714 -0.0621 -0.1709
  163POPC   C3B 2268   6.833   3.313   6.181 -0.0017  0.3046  0.3041
  163POPC   C4B 2269   6.686   2.827   6.143 -0.0074 -0.0918  0.0486
  164POPC   NC3 2270   4.668   9.156   7.627 -0.2465  0.0556 -0.4433
  164POPC   PO4 2271   4.909   9.537   7.655 -0.2172 -0.1941 -0.0857
  164POPC   GL1 2272   5.022   9.298   7.254  0.4115  0.2420  0.1130
  164POPC   GL2 2273   5.182   9.488   7.139 -0.2950 -0.0678  0.0689
  164POPC   C1A 2274   5.031   9.098   6.806  0.0204 -0.2969 -0.0397
  164POPC   D2A 2275   4.969   9.006   6.332 -0.0027 -0.0020 -0.2054
  164POPC   C3A 2276   5.210   8.694   6.039 -0.0135 -0.1539 -0.0166
  164POPC   C4A 2277   5.333   8.606   5.601 -0.1089 -0.1771  0.0555
  164POPC   C1B 2278   5.140   9.660   6.762  0.0209  0.0609 -0.0888
  164POPC   C2B 2279   5.148   9.778   6.306  0.1061  0.1447  0.1737
  164POPC   C3B 2280   5.261   9.909   5.903 -0.0640  0.1163 -0.0348
  164POPC   C4B 2281   5.627  10.233   5.769 -0.2016 -0.3603  0.2312
  165POPC   NC3 2282   1.909   7.017   6.950  0.0423 -0.0072  0.2434
  165POPC   PO4 2283   2.019   6.656   7.157  0.1510  0.1742  0.1825
  165POPC   GL1 2284   1.880   6.461   6.799 -0.0390 -0.3414  0.3770
  165POPC   GL2 2285   1.963   6.080   6.820  0.3196  0.1423 -0.0175
  165POPC   C1A 2286   1.820   6.352   6.391 -0.0668 -0.1913 -0.0025
  165POPC   D2A 2287   2.033   6.379   5.986  0.2698  0.0574 -0.1858
  165POPC   C3A 2288   2.427   6.449   5.795  0.0032  0.0519 -0.0124
  165POPC   C4A 2289   2.699   6.442   5.363  0.3511 -0.0684  0.0745
  165POPC   C1B 2290   2.147   5.960   6.489  0.2302  0.1532  0.0061
  165POPC   C2B 2291   2.284   5.934   6.059  0.1233 -0.1329 -0.0628
  165POPC   C3B 2292   2.518   5.962   5.718 -0.1848 -0.0047  0.0985
  165POPC   C4B 2293   2.819   5.872   5.460 -0.1875 -0.0486  0.1397
  166POPC   NC3 2294   0.125   8.951   7.690 -0.1396  0.0226 -0.0457
  166POPC   PO4 2295   0.151   8.844   7.230  0.0724  0.1387 -0.0155
  166POPC   GL1 2296   0.268   8.640   6.922 -0.2370 -0.1157 -0.2235
  166POPC   GL2 2297   0.277   8.309   6.829 -0.1369 -0.1366 -0.0694
  166POPC   C1A 2298   0.346   8.878   6.508 -0.2293  0.0566 -0.0715
  166POPC   D2A 2299   0.513   9.153   6.206  0.0032  0.0701 -0.2391
  166POPC   C3A 2300   0.326   9.479   5.918  0.2097  0.1522  0.0896
  166POPC   C4A 2301  -0.095   9.602   5.819 -0.0498  0.2279 -0.0311
  166POPC   C1B 2302   0.224   8.362   6.358  0.0489 -0.1866 -0.1358
  166POPC   C2B 2303   0.062   8.627   6.013 -0.3510 -0.3047 -0.2455
  166POPC   C3B 2304   0.078   8.889   5.657  0.1671  0.1205 -0.1383
  166POPC   C4B 2305   0.048   8.794   5.264  0.3351 -0.1062 -0.1337
  167POPC   NC3 2306   1.386   3.308   7.414 -0.0635  0.2687 -0.1903
  167POPC   PO4 2307   0.931   3.315   7.509  0.4014 -0.0275 -0.2706
  167POPC   GL1 2308   0.985   3.240   7.062  0.0832  0.1637 -0.1425
  167POPC   GL2 2309   1.346   3.414   6.929 -0.0849 -0.2360 -0.0731
  167POPC   C1A 2310   1.099   3.016   6.745  0.1620 -0.0097 -0.0846
  167POPC   D2A 2311   1.214   2.653   6.449  0.1010 -0.0613 -0.1150
  167POPC   C3A 2312   1.511   2.809   6.086  0.3671  0.2550 -0.2639
  167POPC   C4A 2313   1.906   2.590   6.000 -0.0447 -0.2424 -0.0812
  167POPC   C1B 2314   1.413   3.359   6.506 -0.1979  0.0897  0.1549
  167POPC   C2B 2315   1.380   3.233   6.029  0.0557 -0.4747  0.1476
  167POPC   C3B 2316   1.332   3.326   5.584  0.3508  0.1799 -0.0386
  167POPC   C4B 2317   1.014   3.182   5.271  0.1730 -0.0025  0.1312
  168POPC   NC3 2318   6.810   1.633   7.757 -0.1893  0.0872 -0.0651
  168POPC   PO4 2319   7.359   1.653   7.728  0.0799  0.3544  0.0725
  168POPC   GL1 2320   7.521   1.302   7.485 -0.1571  0.1770 -0.0649
  168POPC   GL2 2321   7.306   1.015   7.443  0.1438 -0.3394 -0.1258
  168POPC   C1A 2322   7.905   1.329   7.262  0.0529 -0.0109  0.1925
  168POPC   D2A 2323   8.154   1.425   6.936  0.2415  0.2075  0.2047
  168POPC   C3A 2324   8.004   1.389   6.498  0.0204 -0.4033 -0.1312
  168POPC   C4A 2325   8.092   1.266   6.122 -0.0275  0.1061 -0.0354
  168POPC   C1B 2326   7.188   1.081   7.023  0.2004  0.1447  0.0588
  168POPC   C2B 2327   7.060   1.313   6.519 -0.2571 -0.1007  0.0403
  168POPC   C3B 2328   6.884   1.409   6.105 -0.1273  0.0581  0.0633
  168POPC   C4B 2329   6.611   1.601   5.975 -0.0111 -0.4894 -0.0534
  169POPC   NC3 2330   9.391  10.287   8.434  0.2556  0.1951  0.0945
  169POPC   PO4 2331   9.566  10.555   8.115  0.0762  0.0431  0.0366
  169POPC   GL1 2332   9.414  10.724   7.694  0.0041  0.3900 -0.0433
  169POPC   GL2 2333   9.571  10.573   7.404  0.0987 -0.0922  0.0414
  169POPC   C1A 2334   9.211  11.062   7.381 -0.2271  0.1983  0.3860
  169POPC   D2A 2335   9.276  11.170   6.873  0.3478  0.1721  0.0913
  169POPC   C3A 2336   9.130  11.042   6.485  0.0344 -0.4382  0.3302
  169POPC   C4A 2337   8.959  11.109   6.119  0.0089 -0.0027 -0.1372
  169POPC   C1B 2338   9.284  10.645   7.125  0.2499 -0.0531 -0.1063
  169POPC   C2B 2339   8.902  10.836   6.995  0.0258 -0.2679 -0.1190
  169POPC   C3B 2340   8.671  11.040   6.702  0.1625 -0.0145  0.0114
  169POPC   C4B 2341   8.330  11.359   6.756 -0.0318 -0.0794  0.0514
  170POPC   NC3 2342   3.794   2.468   7.456 -0.0999 -0.0370  0.0618
  170POPC   PO4 2343   3.711   2.017   7.520 -0.1731  0.1043  0.2785
  170POPC   GL1 2344   3.475   2.206   7.190  0.0039  0.1438 -0.0627
  170POPC   GL2 2345   3.539   2.055   7.000 -0.1629 -0.3901  0.1284
  170POPC   C1A 2346   3.518   2.483   6.774 -0.0069 -0.4485  0.2508
  170POPC   D2A 2347   3.287   2.349   6.491  0.1220 -0.1075 -0.0706
  170POPC   C3A 2348   3.491   2.049   6.212 -0.0955 -0.0443  0.0374
  170POPC   C4A 2349   3.543   2.166   5.803  0.1705  0.2380  0.0160
  170POPC   C1B 2350   3.291   1.846   6.677  0.2463 -0.5174 -0.0759
  170POPC   C2B 2351   3.031   1.748   6.342  0.2836  0.1928  0.4158
  170POPC   C3B 2352   2.620   1.755   6.177  0.4420  0.2100  0.0351
  170POPC   C4B 2353   2.322   1.790   6.495 -0.3281  0.1291  0.0228
  171POPC   NC3 2354   9.053   1.165   7.993 -0.2168  0.2099  0.1853
  171POPC   PO4 2355   9.271   0.679   8.077 -0.0275 -0.2600  0.1266
  171POPC   GL1 2356   9.169   0.759   7.684 -0.0496  0.2097 -0.2995
  171POPC   GL2 2357   9.308   0.934   7.362  0.2105  0.0580  0.1838
  171POPC   C1A 2358   9.008   0.577   7.248 -0.0977 -0.0159  0.1225
  171POPC   D2A 2359   8.753   0.701   6.908  0.0578  0.0742  0.0587
  171POPC   C3A 2360   8.719   0.587   6.453  0.3088  0.2438 -0.1263
  171POPC   C4A 2361   8.464   0.320   6.226  0.0728  0.2448 -0.1609
  171POPC   C1B 2362   9.217   0.845   6.926  0.0723 -0.1633  0.0085
  171POPC   C2B 2363   9.239   0.680   6.594 -0.1456  0.2920 -0.0303
  171POPC   C3B 2364   9.310   0.601   6.206 -0.2180 -0.1277  0.1181
  171POPC   C4B 2365   9.326   0.489   5.799 -0.1040 -0.0630  0.2596
  172POPC   NC3 2366   7.452   4.828   7.402  0.0930 -0.0529  0.0542
  172POPC   PO4 2367   6.978   4.807   7.232 -0.3419 -0.0134 -0.1161
  172POPC   GL1 2368   7.070   4.953   6.860  0.0679  0.1176 -0.1298
  172POPC   GL2 2369   6.806   4.943   6.747 -0.1259  0.1893  0.5018
  172POPC   C1A 2370   7.241   4.914   6.505  0.2355  0.1995 -0.0255
  172POPC   D2A 2371   7.245   4.892   6.093  0.2630 -0.1762 -0.1195
  172POPC   C3A 2372   6.966   5.230   5.853 -0.0058 -0.0330  0.0282
  172POPC   C4A 2373   6.970   5.509   5.542 -0.0885 -0.0915 -0.1525
  172POPC   C1B 2374   6.581   4.741   6.336 -0.2722  0.1182  0.1767
  172POPC   C2B 2375   6.734   4.791   5.908  0.0424  0.4387 -0.3402
  172POPC   C3B 2376   6.609   4.523   5.589  0.0628 -0.0157  0.0615
  172POPC   C4B 2377   6.395   4.628   5.337  0.4628  0.0778  0.0411
  173POPC   NC3 2378   8.518   6.910   7.398  0.0060 -0.2318  0.1771
  173POPC   PO4 2379   8.252   7.316   7.263 -0.1635 -0.1017 -0.2222
  173POPC   GL1 2380   8.086   7.151   6.870 -0.0804  0.1781  0.2155
  173POPC   GL2 2381   8.527   7.135   6.863  0.0063 -0.2399 -0.1078
  173POPC   C1A 2382   8.090   7.354   6.449 -0.1364 -0.0500  0.3563
  173POPC   D2A 2383   8.013   7.381   6.043  0.3359 -0.0654 -0.1962
  173POPC   C3A 2384   8.289   7.332   5.825  0.2100  0.2933 -0.0938
  173POPC   C4A 2385   8.354   7.315   5.457 -0.1695 -0.1459 -0.1395
  173POPC   C1B 2386   8.761   7.067   6.492 -0.3043 -0.2165  0.1301
  173POPC   C2B 2387   8.791   7.163   5.995  0.1759  0.0061 -0.1888
  173POPC   C3B 2388   8.820   7.364   5.654  0.2412 -0.2874  0.1618
  173POPC   C4B 2389   8.782   7.590   5.206 -0.0295  0.1907 -0.1682
  174POPC   NC3 2390  10.844   8.897   3.539  0.2650 -0.1092 -0.0133
  174POPC   PO4 2391  10.623   9.403   3.623 -0.1959  0.3368 -0.0904
  174POPC   GL1 2392  10.388   9.467   4.006  0.0623 -0.1517  0.0963
  174POPC   GL2 2393  10.144   9.637   4.113 -0.2776  0.0652  0.0291
  174POPC   C1A 2394  10.440   9.295   4.419 -0.0397 -0.0672 -0.3400
  174POPC   D2A 2395  10.406   9.066   4.886  0.0513 -0.0168 -0.1577
  174POPC   C3A 2396  10.194   9.260   5.060 -0.1157  0.1040  0.0731
  174POPC   C4A 2397  10.109   9.619   5.149  0.2690 -0.2302  0.1131
  174POPC   C1B 2398  10.164   9.746   4.505  0.0342  0.1292 -0.0971
  174POPC   C2B 2399  10.033  10.050   4.934  0.6348  0.1264 -0.1137
  174POPC   C3B 2400  10.283  10.156   5.271 -0.1218 -0.1434  0.0885
  174POPC   C4B 2401  10.069  10.508   5.440 -0.1641 -0.0032 -0.0626
  175POPC   NC3 2402   8.404   1.408   4.141  0.3926  0.0837 -0.0584
  175POPC   PO4 2403   8.963   1.332   4.104  0.1197  0.0939 -0.0207
  175POPC   GL1 2404   8.896   1.348   4.579  0.2649  0.1253  0.0285
  175POPC   GL2 2405   8.633   1.241   4.692 -0.0365  0.1860  0.4754
  175POPC   C1A 2406   9.198   1.482   4.824  0.1066  0.0339 -0.1410
  175POPC   D2A 2407   9.215   1.645   5.238 -0.0911  0.2737 -0.3327
  175POPC   C3A 2408   9.036   1.836   5.588  0.3129  0.0748 -0.2536
  175POPC   C4A 2409   9.136   2.109   5.907  0.0714 -0.2073  0.2423
  175POPC   C1B 2410   8.895   1.284   5.185 -0.1739  0.1813 -0.2104
  175POPC   C2B 2411   8.642   1.628   5.428  0.0046  0.1875 -0.0716
  175POPC   C3B 2412   8.593   2.067   5.452  0.0524 -0.0701  0.2063
  175POPC   C4B 2413   8.343   2.202   5.790 -0.0442  0.1448  0.0571
  176POPC   NC3 2414   9.439   7.197   2.984 -0.1124  0.0328 -0.0618
  176POPC   PO4 2415   9.456   6.762   2.975 -0.2154 -0.0620 -0.1750
  176POPC   GL1 2416   9.478   6.641   3.490 -0.0391  0.1708 -0.2653
  176POPC   GL2 2417   9.278   6.506   3.726 -0.1285 -0.2517  0.2717
  176POPC   C1A 2418   9.611   6.926   3.823  0.0376 -0.2385 -0.1581
  176POPC   D2A 2419   9.642   7.375   3.807 -0.2181  0.0868 -0.3951
  176POPC   C3A 2420   9.475   7.500   4.140  0.0730  0.1409 -0.0126
  176POPC   C4A 2421   9.159   7.735   4.346 -0.2116  0.0372 -0.0374
  176POPC   C1B 2422   8.980   6.395   4.006 -0.0513 -0.2330 -0.0333
  176POPC   C2B 2423   8.566   6.507   4.085  0.0205 -0.1122  0.2035
  176POPC   C3B 2424   8.142   6.574   4.324  0.0124 -0.0809 -0.0785
  176POPC   C4B 2425   7.778   6.571   4.536 -0.0781 -0.0704  0.1890
  177POPC   NC3 2426   9.184   6.161   3.297 -0.1240  0.0399 -0.4346
  177POPC   PO4 2427   9.430   5.983   3.671  0.0894 -0.0658  0.1831
  177POPC   GL1 2428   9.855   6.139   3.752  0.0174  0.1509  0.0155
  177POPC   GL2 2429  10.229   6.257   3.499 -0.4726 -0.2052 -0.2561
  177POPC   C1A 2430  10.190   6.166   3.985 -0.1995 -0.1512 -0.1090
  177POPC   D2A 2431  10.491   6.034   4.175  0.1695  0.0941 -0.0986
  177POPC   C3A 2432  10.538   6.053   4.610  0.0039 -0.0546  0.3761
  177POPC   C4A 2433  10.413   5.934   5.021 -0.1440 -0.1284 -0.0798
  177POPC   C1B 2434   9.958   6.592   3.673  0.1727 -0.3911  0.1404
  177POPC   C2B 2435   9.707   6.559   4.090 -0.2498  0.2648  0.1159
  177POPC   C3B 2436   9.762   6.633   4.599  0.2661  0.1410 -0.0272
  177POPC   C4B 2437   9.650   6.914   4.926 -0.0524 -0.0854  0.2425
  178POPC   NC3 2438   3.340   0.628   3.388 -0.0606 -0.2235 -0.3064
  178POPC   PO4 2439   3.341   1.097   3.260 -0.0715 -0.3677  0.0718
  178POPC   GL1 2440   3.187   1.126   3.693  0.0702 -0.0035 -0.1746
  178POPC   GL2 2441   3.023   0.890   3.767  0.2414 -0.0104  0.1681
  178POPC   C1A 2442   2.770   1.241   3.992  0.0226  0.1743  0.0336
  178POPC   D2A 2443   2.398   1.458   4.243 -0.5024  0.0595 -0.1337
  178POPC   C3A 2444   2.488   1.741   4.665  0.0480 -0.1044  0.2766
  178POPC   C4A 2445   2.479   1.770   5.067  0.0721 -0.3557 -0.0982
  178POPC   C1B 2446   2.961   0.863   4.242  0.0753 -0.0949  0.1699
  178POPC   C2B 2447   2.934   1.172   4.535 -0.1920  0.2568 -0.0775
  178POPC   C3B 2448   2.916   1.599   4.354 -0.0779  0.2406  0.4204
  178POPC   C4B 2449   2.633   1.990   4.222 -0.1605 -0.0962 -0.0723
  179POPC   NC3 2450   4.177   3.485   3.725  0.1006 -0.2122  0.0067
  179POPC   PO4 2451   4.519   3.876   3.755 -0.0502  0.1521 -0.0909
  179POPC   GL1 2452   4.255   3.870   4.104 -0.0347  0.3810 -0.0652
  179POPC   GL2 2453   4.104   3.585   4.207  0.1672 -0.3228 -0.1656
  179POPC   C1A 2454   4.191   3.865   4.628 -0.2313  0.0804  0.0920
  179POPC   D2A 2455   4.539   3.961   4.874  0.0781  0.0619  0.0372
  179POPC   C3A 2456   4.915   3.598   4.859  0.1183  0.3015  0.0222
  179POPC   C4A 2457   5.279   3.226   4.813  0.0723 -0.4219  0.1152
  179POPC   C1B 2458   3.871   3.429   4.499  0.0528  0.2677 -0.0240
  179POPC   C2B 2459   3.662   3.462   4.933  0.2238 -0.0556  0.1082
  179POPC   C3B 2460   3.412   3.193   5.209 -0.1080 -0.0942  0.1554
  179POPC   C4B 2461   3.507   2.716   5.319 -0.0410 -0.0913  0.1369
  180POPC   NC3 2462   1.971   9.211   3.312 -0.0269  0.0291 -0.1531
  180POPC   PO4 2463   1.819   9.170   3.745 -0.0757 -0.3487 -0.0528
  180POPC   GL1 2464   1.592   9.045   4.028  0.2880 -0.4237 -0.2370
  180POPC   GL2 2465   1.297   9.080   3.787  0.2136 -0.0206 -0.1360
  180POPC   C1A 2466   1.357   8.717   4.253 -0.2510 -0.0536  0.3571
  180POPC   D2A 2467   1.148   8.659   4.558 -0.1792  0.0361  0.0037
  180POPC   C3A 2468   0.751   8.462   4.597  0.1464  0.1712  0.0351
  180POPC   C4A 2469   0.330   8.167   4.673  0.1490 -0.0541  0.2172
  180POPC   C1B 2470   1.049   8.650   3.818  0.1598 -0.0551 -0.2769
  180POPC   C2B 2471   0.719   8.489   4.044  0.2172 -0.0033  0.1762
  180POPC   C3B 2472   0.290   8.324   4.187 -0.0082  0.0629  0.0022
  180POPC   C4B 2473  -0.128   8.221   4.452 -0.0021 -0.1365  0.1990
  181POPC   NC3 2474   4.757   5.233   3.309 -0.4056  0.2119 -0.5124
  181POPC   PO4 2475   4.346   5.518   3.426 -0.2317  0.5322  0.3588
  181POPC   GL1 2476   4.272   5.577   3.832 -0.0614  0.1848  0.0570
  181POPC   GL2 2477   4.570   5.354   3.918 -0.0134 -0.0098 -0.1257
  181POPC   C1A 2478   4.058   5.355   4.258  0.0480  0.1287  0.1136
  181POPC   D2A 2479   4.060   4.994   4.265 -0.1510 -0.2456 -0.0087
  181POPC   C3A 2480   3.743   4.836   4.504 -0.0148  0.0392  0.1093
  181POPC   C4A 2481   3.414   4.782   4.544  0.4302  0.0835 -0.0142
  181POPC   C1B 2482   4.544   5.332   4.361 -0.2929 -0.0026 -0.0828
  181POPC   C2B 2483   4.360   5.268   4.716  0.0919 -0.2999 -0.0556
  181POPC   C3B 2484   4.191   5.377   5.138  0.1456 -0.0976  0.1838
  181POPC   C4B 2485   3.835   5.635   5.229  0.1183  0.0981 -0.1691
  182POPC   NC3 2486   8.045   7.840   3.233  0.0128  0.0915  0.2505
  182POPC   PO4 2487   7.872   7.486   3.582 -0.2749 -0.0654 -0.0265
  182POPC   GL1 2488   7.942   7.634   4.026  0.0394 -0.1868  0.0629
  182POPC   GL2 2489   7.647   7.985   4.153  0.0905  0.1586  0.1615
  182POPC   C1A 2490   7.923   7.530   4.492  0.0621  0.0898  0.1835
  182POPC   D2A 2491   7.687   7.560   4.880 -0.1015 -0.2889  0.2189
  182POPC   C3A 2492   7.543   7.185   5.223  0.0012  0.1711 -0.0068
  182POPC   C4A 2493   7.423   7.173   5.753 -0.2269  0.0898 -0.1265
  182POPC   C1B 2494   7.489   7.969   4.573  0.1898 -0.0132  0.4289
  182POPC   C2B 2495   7.438   8.076   4.984  0.0893  0.1089 -0.0191
  182POPC   C3B 2496   7.199   8.385   5.091  0.2052 -0.0175  0.1916
  182POPC   C4B 2497   6.878   8.747   5.218 -0.1418  0.1775  0.2585
  183POPC   NC3 2498   9.152   1.743   3.956 -0.0396  0.0693 -0.1484
  183POPC   PO4 2499   9.608   1.597   3.764 -0.0359 -0.1646  0.1065
  183POPC   GL1 2500   9.635   1.490   4.144  0.1459  0.0364 -0.2067
  183POPC   GL2 2501   9.367   1.557   4.335 -0.1813  0.1818 -0.1952
  183POPC   C1A 2502   9.839   1.692   4.535  0.2221  0.5070 -0.0224
  183POPC   D2A 2503   9.842   1.856   4.879 -0.1822  0.1112  0.0515
  183POPC   C3A 2504  10.176   1.737   5.148  0.0744  0.1547 -0.2309
  183POPC   C4A 2505  10.384   1.445   5.357 -0.2268  0.0995  0.0771
  183POPC   C1B 2506   9.389   1.873   4.668  0.5125  0.0544  0.0238
  183POPC   C2B 2507   9.406   2.032   5.098  0.1177 -0.0456 -0.0369
  183POPC   C3B 2508   9.071   2.222   5.264  0.2839 -0.2103 -0.0431
  183POPC   C4B 2509   8.834   2.431   5.603  0.0664  0.1475 -0.1979
  184POPC   NC3 2510   8.816   3.382   3.899 -0.1717 -0.1007 -0.2835
  184POPC   PO4 2511   9.210   3.068   3.950 -0.1534 -0.0473  0.2727
  184POPC   GL1 2512   8.934   3.033   4.270 -0.1840  0.1195  0.1850
  184POPC   GL2 2513   8.781   3.177   4.455  0.4454  0.1601 -0.1874
  184POPC   C1A 2514   9.049   2.765   4.608  0.2305  0.3474 -0.0504
  184POPC   D2A 2515   9.012   2.257   4.639 -0.1118  0.0992  0.0081
  184POPC   C3A 2516   8.910   1.895   4.909  0.1282 -0.1496 -0.0587
  184POPC   C4A 2517   8.547   1.729   4.922  0.0289  0.4427 -0.0411
  184POPC   C1B 2518   8.841   3.172   4.857 -0.3300  0.2155  0.0823
  184POPC   C2B 2519   8.896   2.754   5.127  0.2748  0.1681  0.1761
  184POPC   C3B 2520   8.552   2.339   4.997 -0.0288 -0.1675 -0.0772
  184POPC   C4B 2521   8.193   2.127   5.005 -0.0598  0.1943 -0.0704
  185POPC   NC3 2522  10.420   3.676   3.754 -0.1620 -0.3278 -0.1774
  185POPC   PO4 2523  10.044   3.518   3.817  0.3094 -0.1816 -0.1880
  185POPC   GL1 2524  10.168   3.614   4.187  0.0136  0.1308  0.1349
  185POPC   GL2 2525  10.496   3.695   4.278  0.1510  0.0684  0.2762
  185POPC   C1A 2526  10.109   3.648   4.663 -0.2177  0.1513 -0.2503
  185POPC   D2A 2527  10.041   3.651   5.047  0.1433  0.0280  0.1557
  185POPC   C3A 2528   9.848   3.393   5.368  0.0281 -0.0210 -0.1151
  185POPC   C4A 2529   9.478   3.174   5.588 -0.0168  0.1439 -0.1972
  185POPC   C1B 2530  10.683   4.175   4.284 -0.2971  0.0522 -0.0969
  185POPC   C2B 2531  11.114   4.255   4.206  0.2352  0.2831 -0.2671
  185POPC   C3B 2532  11.433   3.967   4.152  0.1973 -0.2856  0.0963
  185POPC   C4B 2533  11.598   3.765   4.437 -0.3602  0.1534 -0.0870
  186POPC   NC3 2534   8.984   4.356   3.602  0.2257 -0.1290 -0.1251
  186POPC   PO4 2535   9.448   4.360   3.666  0.0401 -0.0775  0.3516
  186POPC   GL1 2536   9.418   4.286   4.055 -0.2343 -0.1645 -0.1830
  186POPC   GL2 2537   9.212   4.481   4.201  0.1041 -0.1104  0.2778
  186POPC   C1A 2538   9.672   4.382   4.433 -0.2259 -0.0842  0.2999
  186POPC   D2A 2539   9.638   4.623   4.811  0.0751  0.3912 -0.0613
  186POPC   C3A 2540  10.036   4.645   5.016 -0.2219  0.0325 -0.1563
  186POPC   C4A 2541  10.365   4.458   5.003 -0.1177  0.1259  0.0050
  186POPC   C1B 2542   9.274   4.748   4.512  0.1917 -0.0871 -0.1360
  186POPC   C2B 2543   9.180   5.040   4.808 -0.1571  0.1059  0.2336
  186POPC   C3B 2544   8.861   5.058   5.135  0.0139 -0.0026 -0.2396
  186POPC   C4B 2545   8.811   4.650   5.356  0.1371  0.0780 -0.3450
  187POPC   NC3 2546   9.784   9.797   3.193 -0.3326 -0.1719 -0.0978
  187POPC   PO4 2547   9.897   9.569   3.569 -0.0344 -0.1720  0.3182
  187POPC   GL1 2548   9.845   9.258   3.934 -0.2228 -0.2442 -0.0122
  187POPC   GL2 2549  10.130   9.024   4.053  0.1615  0.1250  0.0751
  187POPC   C1A 2550   9.787   9.204   4.317  0.0562  0.2762  0.0787
  187POPC   D2A 2551   9.764   9.272   4.705  0.0830  0.1112  0.1013
  187POPC   C3A 2552   9.453   9.243   4.935  0.2997 -0.2244 -0.2029
  187POPC   C4A 2553   9.182   8.993   5.239 -0.1667  0.1419  0.2392
  187POPC   C1B 2554  10.045   8.832   4.501 -0.0965 -0.0111  0.2812
  187POPC   C2B 2555   9.862   8.781   4.863 -0.0285 -0.1005 -0.2457
  187POPC   C3B 2556   9.685   8.558   5.166  0.1079  0.0073 -0.2097
  187POPC   C4B 2557   9.688   8.632   5.600 -0.0434 -0.0161 -0.0904
  188POPC   NC3 2558  10.288   5.726   2.748  0.1217  0.1957 -0.0429
  188POPC   PO4 2559  10.660   5.949   2.705 -0.0613  0.1457 -0.4803
  188POPC   GL1 2560  10.669   6.107   3.187 -0.1618  0.0544  0.1072
  188POPC   GL2 2561  10.681   6.383   3.295  0.2315 -0.1068 -0.5055
  188POPC   C1A 2562  10.559   5.901   3.590  0.1335  0.0266  0.0383
  188POPC   D2A 2563  10.563   5.517   3.886 -0.0013 -0.1555  0.0816
  188POPC   C3A 2564  10.274   5.590   4.187 -0.0960  0.2644 -0.1855
  188POPC   C4A 2565  10.060   5.937   4.485 -0.4841  0.2118 -0.1063
  188POPC   C1B 2566  10.746   6.319   3.797  0.3229 -0.2026  0.0690
  188POPC   C2B 2567  10.948   6.231   4.069  0.0712  0.2082  0.2896
  188POPC   C3B 2568  11.215   6.344   4.402 -0.3091  0.0212 -0.2363
  188POPC   C4B 2569  10.988   6.213   4.634  0.2154 -0.2564  0.1617
  189POPC   NC3 2570   8.792   6.128   2.994  0.1516  0.3376  0.2350
  189POPC   PO4 2571   8.891   5.776   3.336 -0.1980  0.2376 -0.4087
  189POPC   GL1 2572   9.032   5.720   3.866  0.5192  0.3621 -0.0959
  189POPC   GL2 2573   9.276   5.590   3.980  0.1296 -0.5031  0.0507
  189POPC   C1A 2574   9.079   5.852   4.319  0.0775 -0.0028 -0.2593
  189POPC   D2A 2575   9.327   6.000   4.717 -0.0674  0.1348  0.1599
  189POPC   C3A 2576   9.273   6.404   4.883  0.1330  0.0107 -0.2450
  189POPC   C4A 2577   8.941   6.792   4.903 -0.1863 -0.0556 -0.2391
  189POPC   C1B 2578   8.928   5.360   4.201  0.0770 -0.1432 -0.0951
  189POPC   C2B 2579   8.730   5.195   4.572 -0.0184 -0.0137  0.2924
  189POPC   C3B 2580   8.643   5.417   4.969 -0.0013  0.3022  0.1886
  189POPC   C4B 2581   8.512   5.720   5.248 -0.2427  0.1459 -0.0198
  190POPC   NC3 2582  10.526   8.190   3.412  0.1568 -0.1826  0.0778
  190POPC   PO4 2583  10.490   7.666   3.322  0.0460 -0.4997  0.0889
  190POPC   GL1 2584  10.607   7.513   3.785  0.1083 -0.2853  0.1829
  190POPC   GL2 2585  10.625   7.201   3.918  0.1059 -0.0657  0.2527
  190POPC   C1A 2586  10.654   7.528   4.309 -0.3649  0.2849  0.2946
  190POPC   D2A 2587  10.618   7.442   4.750 -0.2261 -0.3810 -0.0786
  190POPC   C3A 2588  10.203   7.294   5.016 -0.0302  0.1153  0.0762
  190POPC   C4A 2589  10.233   7.227   5.382  0.0346  0.1067 -0.1431
  190POPC   C1B 2590  10.501   7.077   4.265 -0.1580 -0.0735  0.3574
  190POPC   C2B 2591  10.422   6.988   4.645 -0.0257 -0.1133 -0.4259
  190POPC   C3B 2592  10.218   6.799   4.902 -0.2724 -0.0328 -0.3812
  190POPC   C4B 2593  10.413   6.818   5.221 -0.0584  0.1314 -0.2989
  191POPC   NC3 2594  10.700   4.910   3.299 -0.1963  0.2265  0.0751
  191POPC   PO4 2595  10.916   5.274   3.504  0.5369  0.1338 -0.2781
  191POPC   GL1 2596  11.335   5.349   3.659  0.1673 -0.2355  0.1428
  191POPC   GL2 2597  11.517   5.131   4.006  0.0010 -0.1398 -0.0394
  191POPC   C1A 2598  11.386   5.567   4.120 -0.2485  0.0876  0.1422
  191POPC   D2A 2599  11.260   5.735   4.483 -0.0422 -0.2615  0.1929
  191POPC   C3A 2600  11.193   5.487   4.888 -0.0913 -0.1436 -0.3140
  191POPC   C4A 2601  11.382   5.472   5.250 -0.2328  0.0489 -0.2471
  191POPC   C1B 2602  11.575   4.909   4.325 -0.0008  0.1117  0.0751
  191POPC   C2B 2603  11.720   4.820   4.720 -0.1302  0.0260 -0.0834
  191POPC   C3B 2604  12.123   4.762   4.875  0.2261 -0.0279 -0.0032
  191POPC   C4B 2605  12.211   4.773   5.280 -0.0684 -0.1833  0.1297
  192POPC   NC3 2606   0.576   4.839   3.597 -0.0688 -0.0014  0.1356
  192POPC   PO4 2607   0.219   4.816   3.573 -0.1690 -0.1168 -0.1830
  192POPC   GL1 2608   0.142   4.881   3.967 -0.1909 -0.0754  0.0497
  192POPC   GL2 2609   0.055   5.206   3.999  0.3956 -0.3687 -0.1744
  192POPC   C1A 2610   0.230   4.731   4.288  0.1804  0.0315  0.0290
  192POPC   D2A 2611   0.125   4.474   4.707 -0.0932  0.1948  0.3436
  192POPC   C3A 2612  -0.144   4.176   4.819  0.3112  0.1108 -0.1569
  192POPC   C4A 2613  -0.387   3.846   4.914  0.0623  0.0410 -0.3592
  192POPC   C1B 2614   0.191   5.225   4.412 -0.1043 -0.0416 -0.2836
  192POPC   C2B 2615   0.265   4.999   4.819 -0.0069  0.1275  0.0309
  192POPC   C3B 2616   0.459   4.775   5.207  0.1774  0.0945  0.0209
  192POPC   C4B 2617   0.588   4.601   5.623  0.0006 -0.0018 -0.3997
  193POPC   NC3 2618   7.697   0.818   3.664 -0.2507 -0.1628  0.1463
  193POPC   PO4 2619   8.052   1.029   3.860 -0.0491  0.0174  0.2016
  193POPC   GL1 2620   8.182   0.809   4.211  0.1723 -0.1901  0.1912
  193POPC   GL2 2621   8.540   0.781   4.213 -0.0772  0.1035 -0.0167
  193POPC   C1A 2622   8.259   0.858   4.645  0.0011  0.1163  0.0620
  193POPC   D2A 2623   8.577   0.816   5.006  0.2333  0.2369 -0.3619
  193POPC   C3A 2624   8.675   0.614   5.443  0.0756 -0.1258  0.0165
  193POPC   C4A 2625   8.659   0.712   5.902  0.0160  0.1427 -0.1117
  193POPC   C1B 2626   8.709   0.577   4.571 -0.1512 -0.1537 -0.0834
  193POPC   C2B 2627   8.741   0.300   4.953  0.1067  0.4334  0.0829
  193POPC   C3B 2628   8.602   0.095   5.376 -0.1580  0.1985  0.1226
  193POPC   C4B 2629   8.344   0.254   5.735  0.1536  0.0931  0.1625
  194POPC   NC3 2630   8.190   7.078   3.695 -0.0524 -0.2426  0.1394
  194POPC   PO4 2631   7.941   6.623   3.706  0.3494  0.0466 -0.0023
  194POPC   GL1 2632   7.629   6.560   3.972 -0.1281  0.1201  0.0277
  194POPC   GL2 2633   7.334   6.362   4.103  0.0997 -0.0936 -0.0954
  194POPC   C1A 2634   7.422   6.815   4.259 -0.0483  0.0616 -0.0995
  194POPC   D2A 2635   7.305   6.813   4.684  0.1133  0.0306 -0.0068
  194POPC   C3A 2636   7.643   6.670   5.050  0.0801 -0.0460  0.0898
  194POPC   C4A 2637   7.661   6.650   5.459  0.1539  0.0565 -0.1327
  194POPC   C1B 2638   6.954   6.627   4.306  0.1422  0.1013 -0.1592
  194POPC   C2B 2639   6.817   6.683   4.696  0.1682 -0.2402  0.0918
  194POPC   C3B 2640   6.897   6.671   5.107  0.2865  0.2239 -0.0975
  194POPC   C4B 2641   7.130   6.903   5.438  0.1521 -0.2182  0.4683
  195POPC   NC3 2642   9.504   2.710   3.636 -0.1378 -0.0196  0.1321
  195POPC   PO4 2643   9.840   2.415   3.515  0.1159  0.1354  0.0548
  195POPC   GL1 2644   9.906   2.518   3.943  0.1486  0.1268 -0.1350
  195POPC   GL2 2645   9.711   2.646   4.118  0.1398 -0.1206 -0.0028
  195POPC   C1A 2646  10.230   2.433   4.181 -0.0666  0.3534  0.0757
  195POPC   D2A 2647  10.577   2.526   4.327 -0.2074 -0.2769  0.1791
  195POPC   C3A 2648  10.503   2.790   4.613  0.0815  0.1263  0.0920
  195POPC   C4A 2649  10.335   2.752   4.992 -0.0406  0.0532  0.2377
  195POPC   C1B 2650   9.568   2.926   4.416  0.2305  0.0114  0.1383
  195POPC   C2B 2651   9.380   3.105   4.664 -0.1473 -0.1113 -0.0734
  195POPC   C3B 2652   9.229   3.102   5.129  0.0134 -0.3010  0.2792
  195POPC   C4B 2653   8.961   3.162   5.491  0.1344 -0.3091  0.0031
  196POPC   NC3 2654   4.959   4.270   3.703  0.0746  0.1696  0.2818
  196POPC   PO4 2655   5.368   4.133   3.818 -0.1638 -0.0353  0.0787
  196POPC   GL1 2656   5.109   4.081   4.223  0.1518 -0.1988 -0.0555
  196POPC   GL2 2657   5.016   4.373   4.334 -0.1192 -0.1098 -0.0312
  196POPC   C1A 2658   5.246   4.094   4.700  0.1461 -0.1877 -0.1091
  196POPC   D2A 2659   5.277   4.365   5.169 -0.0119 -0.0770 -0.2767
  196POPC   C3A 2660   5.406   4.125   5.571 -0.2119 -0.1374 -0.1509
  196POPC   C4A 2661   5.233   3.861   5.823  0.1356 -0.1048 -0.0176
  196POPC   C1B 2662   4.842   4.356   4.839 -0.4389 -0.1408  0.2159
  196POPC   C2B 2663   4.485   4.405   5.184  0.1826  0.0528  0.1353
  196POPC   C3B 2664   4.134   4.450   5.508  0.1582 -0.0429  0.1023
  196POPC   C4B 2665   4.021   4.666   5.927  0.1799 -0.1913 -0.2256
  197POPC   NC3 2666   5.700   9.813   2.666 -0.0713  0.0142 -0.1202
  197POPC   PO4 2667   5.612   9.922   3.133  0.0813 -0.3871 -0.0780
  197POPC   GL1 2668   5.543   9.959   3.577  0.0228  0.0356  0.1030
  197POPC   GL2 2669   5.578   9.765   3.770  0.1690 -0.2254 -0.3811
  197POPC   C1A 2670   5.685  10.276   3.872 -0.1113  0.1363 -0.1161
  197POPC   D2A 2671   6.005  10.206   4.195  0.2509 -0.2081 -0.0083
  197POPC   C3A 2672   6.071  10.589   4.522  0.0593 -0.0277 -0.1183
  197POPC   C4A 2673   6.359  10.936   4.432 -0.4113  0.2946  0.2803
  197POPC   C1B 2674   5.679   9.762   4.186 -0.0634  0.0170  0.1076
  197POPC   C2B 2675   5.753   9.887   4.624 -0.0350  0.2822 -0.2651
  197POPC   C3B 2676   5.670   9.723   5.069 -0.0289  0.1174 -0.0156
  197POPC   C4B 2677   5.819   9.920   5.403  0.1591 -0.1723  0.2805
  198POPC   NC3 2678   5.620   4.723   3.659  0.3089 -0.4689  0.4028
  198POPC   PO4 2679   5.194   4.659   3.850 -0.0694  0.0591 -0.0198
  198POPC   GL1 2680   5.114   4.872   4.251 -0.0008  0.0950 -0.0585
  198POPC   GL2 2681   5.147   5.183   4.433  0.3015  0.1112 -0.2648
  198POPC   C1A 2682   5.149   4.736   4.622  0.1042 -0.4201 -0.0823
  198POPC   D2A 2683   5.142   4.842   5.030  0.0826  0.2659 -0.0730
  198POPC   C3A 2684   4.852   4.718   5.307 -0.2040  0.1270 -0.0049
  198POPC   C4A 2685   4.590   4.600   5.659  0.3320  0.2378 -0.0782
  198POPC   C1B 2686   4.971   5.200   4.756 -0.0202 -0.1465 -0.1027
  198POPC   C2B 2687   4.709   5.156   5.139  0.4397  0.0006  0.0540
  198POPC   C3B 2688   4.548   5.186   5.551  0.0888 -0.0554  0.0174
  198POPC   C4B 2689   4.628   5.066   5.906  0.1427 -0.0319  0.3625
  199POPC   NC3 2690   9.662   3.887   3.656  0.1794  0.1154 -0.1769
  199POPC   PO4 2691   9.490   3.561   3.866 -0.1469 -0.1405 -0.0905
  199POPC   GL1 2692   9.249   3.463   4.304  0.2925  0.0480  0.2418
  199POPC   GL2 2693   8.948   3.780   4.271 -0.0832  0.2552  0.4684
  199POPC   C1A 2694   9.132   3.540   4.716  0.0903  0.0344 -0.1321
  199POPC   D2A 2695   8.988   3.541   5.163 -0.0071  0.4182 -0.1428
  199POPC   C3A 2696   9.083   3.700   5.671 -0.1982  0.3828 -0.0178
  199POPC   C4A 2697   8.914   3.901   5.970 -0.1930 -0.2920  0.1457
  199POPC   C1B 2698   8.697   3.875   4.741  0.2270 -0.1936  0.0641
  199POPC   C2B 2699   8.815   4.267   5.038 -0.1171 -0.1626  0.3249
  199POPC   C3B 2700   9.204   4.530   5.087 -0.1220 -0.0460  0.3286
  199POPC   C4B 2701   9.654   4.335   5.194 -0.0520  0.0273  0.0698
  200POPC   NC3 2702   8.767   2.792   3.837 -0.3347 -0.0256 -0.3278
  200POPC   PO4 2703   8.364   2.871   3.730 -0.0264 -0.0256  0.0680
  200POPC   GL1 2704   8.340   2.818   4.166  0.3022  0.0151  0.3254
  200POPC   GL2 2705   8.210   3.068   4.294  0.2044 -0.3406  0.0540
  200POPC   C1A 2706   8.131   2.460   4.412  0.0706  0.0667  0.1909
  200POPC   D2A 2707   8.081   2.597   4.863 -0.2170 -0.0202 -0.0231
  200POPC   C3A 2708   7.762   2.706   5.076  0.0555 -0.0324  0.2445
  200POPC   C4A 2709   7.387   2.604   5.244  0.5071 -0.0712  0.0272
  200POPC   C1B 2710   8.054   3.070   4.774  0.1677 -0.1956  0.2300
  200POPC   C2B 2711   7.965   3.180   5.195 -0.0029 -0.3049  0.2198
  200POPC   C3B 2712   7.588   3.302   5.397  0.0114  0.0646  0.1375
  200POPC   C4B 2713   7.333   2.977   5.615  0.3264 -0.1203 -0.2051
  201POPC   NC3 2714   8.097   3.279   3.367 -0.3345 -0.1768 -0.1645
  201POPC   PO4 2715   8.051   3.771   3.561 -0.1114  0.0123 -0.4067
  201POPC   GL1 2716   8.283   3.989   3.865 -0.2509 -0.2631  0.3594
  201POPC   GL2 2717   8.610   4.067   3.898 -0.1228 -0.0743  0.0828
  201POPC   C1A 2718   8.353   4.022   4.373  0.3368 -0.2708  0.2424
  201POPC   D2A 2719   8.112   3.920   4.732  0.2761  0.0963 -0.0422
  201POPC   C3A 2720   8.385   3.917   5.113 -0.0590  0.1942 -0.0711
  201POPC   C4A 2721   8.663   3.952   5.547  0.1151  0.0560  0.2983
  201POPC   C1B 2722   8.812   4.271   4.256  0.1935  0.3282 -0.0904
  201POPC   C2B 2723   9.213   4.122   4.531  0.4065  0.2088  0.2182
  201POPC   C3B 2724   9.271   3.997   4.960 -0.0260 -0.0808 -0.2025
  201POPC   C4B 2725   9.128   4.152   5.413  0.0172  0.0614  0.1277
  202POPC   NC3 2726   7.057   3.322   3.633 -0.4501  0.0577 -0.0368
  202POPC   PO4 2727   6.724   3.606   3.621 -0.3054  0.0807  0.0076
  202POPC   GL1 2728   6.784   3.335   4.010  0.0204  0.1869  0.1133
  202POPC   GL2 2729   6.751   3.429   4.236 -0.0836  0.0030  0.3681
  202POPC   C1A 2730   7.072   3.000   4.273 -0.1198 -0.0176  0.1415
  202POPC   D2A 2731   7.544   3.095   4.511  0.3684 -0.0054 -0.0205
  202POPC   C3A 2732   7.504   3.500   4.799 -0.1188  0.1258 -0.2428
  202POPC   C4A 2733   7.067   3.784   4.950 -0.5642 -0.2202  0.2028
  202POPC   C1B 2734   6.618   3.704   4.634 -0.0269 -0.4776  0.3524
  202POPC   C2B 2735   6.618   3.584   5.044  0.0386 -0.0932 -0.0733
  202POPC   C3B 2736   6.811   3.621   5.396 -0.1922  0.0277  0.0437
  202POPC   C4B 2737   6.687   3.686   5.857 -0.1392  0.2674  0.0839
  203POPC   NC3 2738   6.282   3.573   3.787 -0.1793 -0.2034  0.1106
  203POPC   PO4 2739   5.908   3.454   3.932  0.1601 -0.1639  0.1398
  203POPC   GL1 2740   5.791   3.417   4.436 -0.0541 -0.2255 -0.4005
  203POPC   GL2 2741   6.118   3.255   4.571  0.0878 -0.0307 -0.4246
  203POPC   C1A 2742   5.588   3.664   4.833 -0.3052  0.1029 -0.2735
  203POPC   D2A 2743   5.722   3.908   5.222 -0.4892  0.0333  0.2438
  203POPC   C3A 2744   5.754   3.776   5.559  0.1159  0.0305 -0.0831
  203POPC   C4A 2745   5.622   3.559   6.003 -0.0300  0.1142 -0.0801
  203POPC   C1B 2746   5.735   3.095   4.961  0.1112 -0.0318 -0.0782
  203POPC   C2B 2747   5.387   2.930   5.252  0.1093 -0.0564 -0.3289
  203POPC   C3B 2748   5.033   2.631   5.560  0.0771 -0.0270 -0.3123
  203POPC   C4B 2749   5.036   2.130   5.495  0.0605  0.1579  0.2780
  204POPC   NC3 2750   7.398  10.238   3.608 -0.1955  0.2584  0.0937
  204POPC   PO4 2751   7.806  10.445   3.877  0.0171 -0.2355 -0.1697
  204POPC   GL1 2752   7.814  10.855   4.085 -0.1096 -0.2312 -0.1900
  204POPC   GL2 2753   8.115  10.738   4.316  0.0513  0.3372 -0.1977
  204POPC   C1A 2754   7.892  11.184   4.353 -0.1340  0.1576 -0.1222
  204POPC   D2A 2755   8.276  11.238   4.424  0.1391  0.2597  0.0933
  204POPC   C3A 2756   8.244  11.286   4.780  0.2933  0.0570 -0.0842
  204POPC   C4A 2757   8.161  11.202   5.229  0.2160 -0.1189 -0.1096
  204POPC   C1B 2758   8.012  10.803   4.833  0.1741 -0.0599 -0.3999
  204POPC   C2B 2759   7.798  10.849   5.279 -0.3567 -0.0137 -0.0021
  204POPC   C3B 2760   7.789  10.974   5.729 -0.2547  0.1654  0.0765
  204POPC   C4B 2761   8.022  11.151   6.060  0.1152 -0.2408  0.0314
  205POPC   NC3 2762   6.481   6.907   3.280 -0.0467 -0.0486 -0.0426
  205POPC   PO4 2763   6.745   6.770   3.581 -0.0113  0.2381  0.1501
  205POPC   GL1 2764   6.615   6.874   4.043 -0.0602  0.1193  0.1197
  205POPC   GL2 2765   6.359   6.840   4.130  0.0876 -0.3921  0.0975
  205POPC   C1A 2766   6.472   7.283   4.163  0.0326 -0.0497 -0.1983
  205POPC   D2A 2767   6.576   7.562   4.547 -0.0167 -0.1515  0.0205
  205POPC   C3A 2768   6.734   7.474   4.827  0.1071 -0.0263 -0.2095
  205POPC   C4A 2769   7.060   7.149   4.983 -0.0482 -0.0173  0.1228
  205POPC   C1B 2770   6.398   6.476   4.286  0.0532 -0.2212  0.1233
  205POPC   C2B 2771   6.359   6.146   4.634 -0.0611 -0.0582 -0.0884
  205POPC   C3B 2772   6.064   6.069   4.909 -0.0860  0.1738  0.0648
  205POPC   C4B 2773   5.590   5.974   5.050 -0.2097  0.1648 -0.1186
  206POPC   NC3 2774   6.049   0.198   3.644 -0.0796 -0.1816  0.2036
  206POPC   PO4 2775   5.909   0.332   4.023  0.2736 -0.0221  0.4630
  206POPC   GL1 2776   5.937   0.368   4.434  0.0706 -0.3572  0.0896
  206POPC   GL2 2777   5.958   0.640   4.578 -0.3324 -0.0869  0.0623
  206POPC   C1A 2778   6.023   0.216   4.815 -0.0915  0.1411 -0.1789
  206POPC   D2A 2779   6.145  -0.121   4.997  0.0000 -0.0980  0.1976
  206POPC   C3A 2780   6.253   0.034   5.372  0.1259 -0.0100 -0.2479
  206POPC   C4A 2781   6.518   0.114   5.635 -0.0891 -0.1304  0.1747
  206POPC   C1B 2782   5.627   0.709   4.729  0.0062 -0.1305 -0.1523
  206POPC   C2B 2783   5.485   0.854   5.134 -0.2183  0.0913 -0.1461
  206POPC   C3B 2784   5.102   0.759   5.411  0.3884 -0.1955  0.0738
  206POPC   C4B 2785   4.827   0.483   5.639 -0.2263  0.1029  0.3521
  207POPC   NC3 2786   5.690   5.802   3.821 -0.0683  0.3411  0.1532
  207POPC   PO4 2787   5.939   5.364   3.953  0.3545 -0.0130  0.0790
  207POPC   GL1 2788   5.940   5.666   4.252  0.1059  0.1777  0.0192
  207POPC   GL2 2789   6.182   5.933   4.263 -0.1261  0.1697  0.1149
  207POPC   C1A 2790   5.663   5.590   4.616 -0.3247  0.1495 -0.0577
  207POPC   D2A 2791   5.853   5.456   4.965 -0.0965 -0.3569  0.1009
  207POPC   C3A 2792   6.024   5.755   5.255 -0.0875  0.1699 -0.3438
  207POPC   C4A 2793   5.755   5.875   5.619 -0.2356 -0.3219  0.0150
  207POPC   C1B 2794   6.282   5.652   4.659  0.0409  0.2259  0.0381
  207POPC   C2B 2795   6.343   5.436   5.075 -0.2151 -0.0499 -0.0555
  207POPC   C3B 2796   6.499   5.525   5.456  0.2416 -0.0992  0.1889
  207POPC   C4B 2797   6.562   5.509   5.880  0.0591 -0.0313  0.4542
  208POPC   NC3 2798   0.090   0.654   3.840  0.3919  0.0431  0.1788
  208POPC   PO4 2799  -0.288   0.434   3.854  0.2350  0.1694 -0.0113
  208POPC   GL1 2800   0.008   0.328   4.203 -0.1742  0.0414 -0.2781
  208POPC   GL2 2801  -0.112   0.067   4.274  0.1026 -0.1028  0.4369
  208POPC   C1A 2802   0.219   0.403   4.592 -0.0597 -0.0377 -0.2025
  208POPC   D2A 2803   0.550   0.533   4.882 -0.0098  0.3111 -0.2890
  208POPC   C3A 2804   0.892   0.714   4.802  0.1266  0.2254 -0.2077
  208POPC   C4A 2805   1.169   0.946   4.887 -0.1501  0.1296  0.1381
  208POPC   C1B 2806  -0.237   0.141   4.683  0.1551  0.2927 -0.0833
  208POPC   C2B 2807  -0.247   0.059   5.097 -0.1375 -0.0134  0.1461
  208POPC   C3B 2808  -0.015  -0.009   5.485  0.0505 -0.2571  0.1264
  208POPC   C4B 2809   0.446  -0.173   5.399 -0.2378 -0.0601 -0.2123
  209POPC   NC3 2810   5.121  10.126   3.382  0.1876 -0.1036 -0.1735
  209POPC   PO4 2811   4.986  10.605   3.346  0.1189 -0.2268 -0.2024
  209POPC   GL1 2812   4.971  10.744   3.825 -0.0304  0.0137 -0.3275
  209POPC   GL2 2813   4.923  11.095   3.752  0.1493 -0.0705  0.2622
  209POPC   C1A 2814   5.094  10.645   4.253 -0.0821 -0.1758  0.0455
  209POPC   D2A 2815   5.043  10.306   4.525 -0.0463  0.0033  0.0607
  209POPC   C3A 2816   4.902  10.277   4.944 -0.0685  0.0780  0.2893
  209POPC   C4A 2817   4.797  10.175   5.359  0.2028  0.0676 -0.0835
  209POPC   C1B 2818   4.980  11.156   4.201 -0.0907 -0.0998  0.1775
  209POPC   C2B 2819   4.996  10.994   4.639 -0.1826  0.1229 -0.0437
  209POPC   C3B 2820   5.271  10.750   4.734  0.0946 -0.0828 -0.0018
  209POPC   C4B 2821   5.667  10.817   4.717  0.3072 -0.0317  0.0778
  210POPC   NC3 2822   6.273   8.016   3.210 -0.0370  0.0742  0.4215
  210POPC   PO4 2823   6.550   8.286   3.489  0.4829 -0.0756  0.0181
  210POPC   GL1 2824   6.591   8.143   4.011  0.4170 -0.0442 -0.3711
  210POPC   GL2 2825   6.293   7.808   4.082  0.0768 -0.1323  0.1979
  210POPC   C1A 2826   6.570   8.384   4.369 -0.1360  0.0441  0.1895
  210POPC   D2A 2827   6.696   8.425   4.792  0.0929 -0.0179 -0.0632
  210POPC   C3A 2828   6.570   8.262   5.156  0.2333 -0.1644  0.1148
  210POPC   C4A 2829   6.275   8.231   5.457  0.1169 -0.1070  0.1713
  210POPC   C1B 2830   6.246   7.987   4.491 -0.1651  0.1389 -0.0665
  210POPC   C2B 2831   6.353   7.902   4.885  0.0799  0.0803  0.1863
  210POPC   C3B 2832   6.313   7.769   5.340 -0.1555 -0.1120 -0.1099
  210POPC   C4B 2833   6.434   7.362   5.610 -0.1314  0.2951 -0.1713
  211POPC   NC3 2834   1.699   3.990   3.507 -0.0720 -0.1718  0.1270
  211POPC   PO4 2835   1.909   3.587   3.664  0.2751  0.1343 -0.0498
  211POPC   GL1 2836   1.877   3.744   4.082 -0.3295  0.0122  0.2636
  211POPC   GL2 2837   2.124   3.599   4.221  0.0739 -0.3405 -0.1494
  211POPC   C1A 2838   1.751   4.058   4.373  0.1091 -0.4471  0.0971
  211POPC   D2A 2839   1.667   4.451   4.680 -0.2356 -0.1323 -0.0240
  211POPC   C3A 2840   1.633   4.870   4.630  0.0231  0.1087 -0.0847
  211POPC   C4A 2841   1.829   5.152   4.935  0.1062  0.0933  0.0957
  211POPC   C1B 2842   2.121   3.815   4.525 -0.2276 -0.0910 -0.2250
  211POPC   C2B 2843   2.006   3.902   4.903 -0.2308 -0.1294 -0.1876
  211POPC   C3B 2844   1.891   4.098   5.237  0.1975  0.4110 -0.2116
  211POPC   C4B 2845   1.646   4.363   5.526 -0.2084  0.0621  0.0016
  212POPC   NC3 2846   5.570   3.150   3.749 -0.2876 -0.1054 -0.1713
  212POPC   PO4 2847   5.304   2.830   3.932  0.1070  0.0369 -0.0979
  212POPC   GL1 2848   5.348   2.683   4.313 -0.0539 -0.0478 -0.1950
  212POPC   GL2 2849   5.471   2.883   4.553 -0.0489 -0.0837 -0.1168
  212POPC   C1A 2850   5.070   2.709   4.735 -0.0587 -0.0812 -0.0535
  212POPC   D2A 2851   4.975   2.702   5.055  0.2546 -0.3440  0.1218
  212POPC   C3A 2852   4.555   2.738   5.289 -0.2167  0.2166  0.2425
  212POPC   C4A 2853   4.195   2.973   5.602  0.0500  0.0812 -0.1121
  212POPC   C1B 2854   5.531   2.585   4.845 -0.3096  0.0140  0.1542
  212POPC   C2B 2855   5.769   2.632   5.188  0.0159  0.0611 -0.0835
  212POPC   C3B 2856   5.727   2.548   5.593  0.0990  0.6994 -0.1113
  212POPC   C4B 2857   5.630   2.482   6.080  0.0747  0.0694 -0.0924
  213POPC   NC3 2858   6.435   8.846   3.463 -0.2565  0.4164  0.0626
  213POPC   PO4 2859   6.629   9.138   3.756  0.0571 -0.1158 -0.0188
  213POPC   GL1 2860   6.768   9.245   4.216  0.0122  0.0391  0.0246
  213POPC   GL2 2861   6.659   9.572   4.404 -0.1563  0.1468  0.5327
  213POPC   C1A 2862   7.084   9.219   4.443  0.1943 -0.2633  0.0324
  213POPC   D2A 2863   7.225   9.306   4.830 -0.1078 -0.0592 -0.1593
  213POPC   C3A 2864   7.045   9.753   5.029 -0.2261  0.2541 -0.0890
  213POPC   C4A 2865   6.949   9.984   5.428 -0.0564 -0.0539  0.0258
  213POPC   C1B 2866   6.672   9.817   4.703  0.0692 -0.0621  0.1304
  213POPC   C2B 2867   6.874  10.178   4.986  0.1289 -0.0216  0.2079
  213POPC   C3B 2868   7.074  10.465   5.187  0.1805 -0.1198 -0.0375
  213POPC   C4B 2869   7.497  10.480   5.451 -0.1175 -0.1908  0.2197
  214POPC   NC3 2870   6.309   2.557   3.842 -0.2219 -0.0813  0.0521
  214POPC   PO4 2871   5.928   2.529   4.199 -0.1343 -0.1007 -0.3299
  214POPC   GL1 2872   5.922   2.442   4.585  0.0247  0.0073 -0.2238
  214POPC   GL2 2873   5.983   2.745   4.684  0.0369 -0.1318  0.0391
  214POPC   C1A 2874   5.859   2.231   4.913 -0.0406  0.0789  0.1571
  214POPC   D2A 2875   5.440   2.176   5.171 -0.1587 -0.1390  0.0779
  214POPC   C3A 2876   5.471   1.944   5.510 -0.1006  0.2634 -0.3242
  214POPC   C4A 2877   5.443   1.981   5.982  0.0079 -0.1195  0.1735
  214POPC   C1B 2878   6.156   2.877   5.133  0.0678  0.0109 -0.0617
  214POPC   C2B 2879   5.904   3.032   5.462  0.1283  0.1845 -0.2841
  214POPC   C3B 2880   5.619   3.351   5.380 -0.0078 -0.1218  0.0113
  214POPC   C4B 2881   5.319   3.689   5.275  0.0072  0.1609 -0.1200
  215POPC   NC3 2882   0.505   1.106   3.799  0.1309 -0.1606  0.2191
  215POPC   PO4 2883   0.043   1.176   3.714  0.3203 -0.3503 -0.0417
  215POPC   GL1 2884   0.169   1.114   4.204  0.2218  0.0104  0.0394
  215POPC   GL2 2885   0.297   0.778   4.291 -0.0743  0.0291  0.1860
  215POPC   C1A 2886   0.163   1.104   4.681 -0.3433 -0.1043  0.1130
  215POPC   D2A 2887   0.166   0.908   5.040 -0.1372 -0.0346 -0.1131
  215POPC   C3A 2888   0.189   1.225   5.369 -0.1948 -0.0044 -0.0099
  215POPC   C4A 2889   0.173   1.438   5.794  0.1838  0.1941 -0.0811
  215POPC   C1B 2890   0.635   0.969   4.504 -0.0176  0.1306 -0.0220
  215POPC   C2B 2891   1.100   0.991   4.329 -0.2876 -0.1161 -0.0469
  215POPC   C3B 2892   1.599   0.734   4.230 -0.0585  0.1819 -0.2196
  215POPC   C4B 2893   2.011   0.609   4.298 -0.0573 -0.0150 -0.0915
  216POPC   NC3 2894   9.858  10.797   3.672  0.2400  0.0092 -0.0195
  216POPC   PO4 2895   9.616  10.898   3.954  0.2605  0.1035  0.2978
  216POPC   GL1 2896   9.422  10.745   4.249  0.1327 -0.1480  0.3544
  216POPC   GL2 2897   9.167  10.727   4.235 -0.1864  0.0985 -0.0077
  216POPC   C1A 2898   9.297  10.667   4.717  0.0547 -0.2501 -0.0810
  216POPC   D2A 2899   9.150  10.812   5.079  0.0629 -0.1916 -0.1519
  216POPC   C3A 2900   9.246  10.625   5.283  0.2798 -0.0292  0.0571
  216POPC   C4A 2901   9.338  10.361   5.618  0.2881  0.1368 -0.1915
  216POPC   C1B 2902   8.980  10.334   4.326 -0.2598 -0.2582  0.2009
  216POPC   C2B 2903   8.708  10.074   4.599  0.3608  0.0149  0.0644
  216POPC   C3B 2904   8.715  10.114   5.101  0.0307 -0.0828 -0.0303
  216POPC   C4B 2905   8.710  10.526   5.341 -0.0992  0.0042 -0.2270
  217POPC   NC3 2906   3.049   8.940   4.288  0.1211  0.0257 -0.2446
  217POPC   PO4 2907   2.730   8.607   4.527  0.3113 -0.0227  0.1345
  217POPC   GL1 2908   2.881   8.264   4.675 -0.2197 -0.1550 -0.1664
  217POPC   GL2 2909   3.216   8.223   4.849 -0.1281  0.0165 -0.1424
  217POPC   C1A 2910   2.949   7.809   4.658  0.1634 -0.1813  0.0500
  217POPC   D2A 2911   2.644   7.544   4.517 -0.0349  0.1408  0.1882
  217POPC   C3A 2912   2.551   7.375   4.959  0.3702  0.2014  0.2476
  217POPC   C4A 2913   2.316   7.042   5.235 -0.2398  0.3535  0.4301
  217POPC   C1B 2914   3.425   7.745   4.970  0.1678  0.1451  0.2371
  217POPC   C2B 2915   3.553   7.329   4.891  0.1625  0.0518  0.0483
  217POPC   C3B 2916   3.618   6.888   4.986 -0.3182 -0.1361  0.5753
  217POPC   C4B 2917   4.009   6.508   4.979 -0.0308  0.1437 -0.0228
  218POPC   NC3 2918   6.648   4.533   3.128  0.0627 -0.1894  0.1626
  218POPC   PO4 2919   6.785   4.651   3.541 -0.2911  0.0543  0.0245
  218POPC   GL1 2920   6.757   4.849   4.079  0.0278  0.0007  0.1789
  218POPC   GL2 2921   7.004   4.882   4.276  0.0064 -0.0529  0.5340
  218POPC   C1A 2922   6.472   4.897   4.397  0.3157 -0.2396  0.4540
  218POPC   D2A 2923   6.116   5.173   4.587 -0.2109  0.0178 -0.1861
  218POPC   C3A 2924   5.732   4.989   4.561  0.1849  0.2028  0.0585
  218POPC   C4A 2925   5.470   5.142   4.811  0.2965 -0.0516 -0.4294
  218POPC   C1B 2926   6.878   4.681   4.631 -0.0899 -0.2615  0.0334
  218POPC   C2B 2927   6.806   4.539   5.048 -0.0889  0.2501 -0.0746
  218POPC   C3B 2928   6.655   4.171   5.203 -0.2093  0.1198  0.1569
  218POPC   C4B 2929   6.193   4.133   5.275 -0.0830 -0.3693  0.1694
  219POPC   NC3 2930   4.035   9.609   3.319 -0.0919  0.2352  0.2663
  219POPC   PO4 2931   4.234   9.972   3.439  0.2655 -0.0075 -0.0442
  219POPC   GL1 2932   4.486  10.037   3.902  0.2865  0.0771  0.3440
  219POPC   GL2 2933   4.588  10.374   4.081  0.2971 -0.0060  0.4388
  219POPC   C1A 2934   4.653   9.908   4.285 -0.0911 -0.1167  0.1100
  219POPC   D2A 2935   4.810   9.767   4.655 -0.0219 -0.2113  0.1411
  219POPC   C3A 2936   4.572   9.865   5.107  0.5880 -0.1541  0.0115
  219POPC   C4A 2937   4.293   9.889   5.391  0.0522 -0.0170  0.0182
  219POPC   C1B 2938   4.540  10.321   4.603  0.0985  0.0124 -0.1402
  219POPC   C2B 2939   4.394  10.299   5.037  0.1709 -0.1243  0.0651
  219POPC   C3B 2940   4.166  10.713   5.186 -0.0025  0.0960  0.3813
  219POPC   C4B 2941   4.455  11.085   5.378  0.0819 -0.2123 -0.2215
  220POPC   NC3 2942  10.288   0.017   3.367  0.1987  0.0532 -0.0461
  220POPC   PO4 2943  10.351  -0.365   3.403  0.0918 -0.1758  0.1561
  220POPC   GL1 2944  10.233  -0.403   3.834 -0.2999  0.0845 -0.3641
  220POPC   GL2 2945   9.990  -0.274   4.139  0.0428 -0.1442 -0.2348
  220POPC   C1A 2946  10.337  -0.654   4.123 -0.0510  0.1974 -0.1777
  220POPC   D2A 2947  10.259  -0.655   4.566 -0.1218  0.1397 -0.1115
  220POPC   C3A 2948  10.307  -0.352   4.936 -0.4004  0.0155 -0.2215
  220POPC   C4A 2949  10.562  -0.391   5.364 -0.0571 -0.1517 -0.1075
  220POPC   C1B 2950  10.382  -0.150   4.302 -0.1385 -0.1986 -0.0809
  220POPC   C2B 2951  10.690  -0.389   4.585 -0.0091 -0.1338 -0.1881
  220POPC   C3B 2952  10.862  -0.367   4.908 -0.0768  0.1818 -0.2288
  220POPC   C4B 2953  11.085  -0.570   5.164  0.1276  0.2529 -0.0848
  221POPC   NC3 2954   8.286  10.430   3.950 -0.1527  0.0842 -0.3202
  221POPC   PO4 2955   8.469  10.856   3.869 -0.5654 -0.0078 -0.1120
  221POPC   GL1 2956   8.664  10.912   4.201  0.1172 -0.0886  0.1267
  221POPC   GL2 2957   8.588  10.598   4.318 -0.2183 -0.0976 -0.1506
  221POPC   C1A 2958   8.957  11.024   4.558 -0.0913 -0.0096 -0.0966
  221POPC   D2A 2959   9.271  11.219   4.837  0.3710 -0.2138 -0.1881
  221POPC   C3A 2960   9.262  11.229   5.345 -0.2214  0.3282 -0.2339
  221POPC   C4A 2961   9.038  10.929   5.673  0.1866  0.1958 -0.0706
  221POPC   C1B 2962   8.305  10.408   4.661 -0.1126  0.0417 -0.0039
  221POPC   C2B 2963   8.238  10.498   5.146 -0.3531 -0.4273 -0.2084
  221POPC   C3B 2964   8.138  10.642   5.574  0.0919  0.0643 -0.2001
  221POPC   C4B 2965   8.083  10.601   5.916 -0.0178  0.1870  0.1091
  222POPC   NC3 2966   2.986  10.219   3.101 -0.3236  0.1543 -0.2233
  222POPC   PO4 2967   2.779  10.396   3.352 -0.1092 -0.0337 -0.0795
  222POPC   GL1 2968   2.726  10.478   3.759 -0.1490 -0.0604 -0.1240
  222POPC   GL2 2969   2.960  10.550   3.957 -0.0922  0.1723 -0.0046
  222POPC   C1A 2970   2.510  10.599   4.187  0.1151 -0.1416 -0.1985
  222POPC   D2A 2971   2.579  10.711   4.581  0.1351 -0.3871 -0.0239
  222POPC   C3A 2972   2.784  11.124   4.697 -0.3075 -0.0354 -0.2430
  222POPC   C4A 2973   2.676  11.651   4.803 -0.2186 -0.3009  0.3800
  222POPC   C1B 2974   3.084  10.783   4.361  0.1362  0.1476  0.0038
  222POPC   C2B 2975   3.123  10.718   4.882  0.2971  0.1643  0.1121
  222POPC   C3B 2976   3.058  10.903   5.352  0.4052 -0.1368  0.2555
  222POPC   C4B 2977   3.168  11.133   5.635  0.2204  0.0168 -0.3269
  223POPC   NC3 2978   7.846   7.107   3.001  0.1252 -0.1352  0.1328
  223POPC   PO4 2979   7.623   6.958   3.402 -0.0547  0.0411  0.0990
  223POPC   GL1 2980   7.712   7.078   3.815  0.0771 -0.3800  0.0875
  223POPC   GL2 2981   7.455   7.277   4.025 -0.0527  0.4079 -0.4283
  223POPC   C1A 2982   7.889   7.123   4.259 -0.0041  0.1782  0.0947
  223POPC   D2A 2983   7.881   7.049   4.770  0.0451 -0.0928  0.2174
  223POPC   C3A 2984   8.053   7.256   4.951  0.1003  0.0105 -0.2477
  223POPC   C4A 2985   8.491   7.270   4.893 -0.0517  0.3388  0.0976
  223POPC   C1B 2986   7.440   7.505   4.342 -0.0455 -0.0027 -0.1386
  223POPC   C2B 2987   7.235   7.539   4.695 -0.1343  0.1660 -0.1146
  223POPC   C3B 2988   7.263   7.605   5.101 -0.0835 -0.0450 -0.0649
  223POPC   C4B 2989   7.299   7.587   5.574  0.2343 -0.0573  0.1346
  224POPC   NC3 2990   4.376   2.082   3.488 -0.5576 -0.2677 -0.0934
  224POPC   PO4 2991   4.638   1.651   3.538 -0.1565  0.2807 -0.3285
  224POPC   GL1 2992   4.668   1.491   3.996 -0.1972 -0.0013 -0.1528
  224POPC   GL2 2993   5.006   1.295   4.121 -0.0268  0.2168 -0.2069
  224POPC   C1A 2994   4.671   1.307   4.481  0.1877 -0.5374 -0.1191
  224POPC   D2A 2995   4.551   0.924   4.654 -0.0700  0.3119 -0.3285
  224POPC   C3A 2996   4.596   0.775   5.072  0.0021  0.2345 -0.0959
  224POPC   C4A 2997   4.373   0.708   5.415 -0.2672 -0.1806  0.1509
  224POPC   C1B 2998   5.135   1.452   4.592 -0.1384 -0.2731 -0.1688
  224POPC   C2B 2999   5.030   1.320   4.975  0.1051  0.0831 -0.0505
  224POPC   C3B 3000   4.727   1.212   5.302  0.1789 -0.2944  0.0708
  224POPC   C4B 3001   4.854   1.066   5.729  0.2128 -0.3310 -0.0679
  225POPC   NC3 3002   2.331  10.613   3.283  0.0770  0.1233 -0.3289
  225POPC   PO4 3003   1.975  10.771   3.566 -0.1095 -0.0697 -0.2567
  225POPC   GL1 3004   2.093  10.440   3.770 -0.2012  0.3623  0.2621
  225POPC   GL2 3005   1.943  10.477   4.081 -0.0277  0.3123  0.3269
  225POPC   C1A 3006   2.266  10.077   3.907  0.4780  0.0905 -0.2239
  225POPC   D2A 3007   2.349   9.994   4.236 -0.4181 -0.2142  0.0079
  225POPC   C3A 3008   2.466  10.267   4.505 -0.0851  0.1883  0.0070
  225POPC   C4A 3009   2.780  10.220   4.834 -0.0868  0.0806 -0.0595
  225POPC   C1B 3010   1.628  10.667   4.239 -0.1691 -0.2197 -0.2574
  225POPC   C2B 3011   1.224  10.893   4.335  0.0989  0.3126 -0.1572
  225POPC   C3B 3012   0.955  10.654   4.442  0.1115 -0.1464  0.1453
  225POPC   C4B 3013   0.731  10.405   4.142 -0.0530 -0.1271  0.0688
  226POPC   NC3 3014   2.772   6.626   3.516 -0.4845 -0.0126  0.0127
  226POPC   PO4 3015   2.633   6.452   3.142 -0.1797 -0.4212  0.1074
  226POPC   GL1 3016   2.766   6.113   3.530  0.3723 -0.1101  0.0375
  226POPC   GL2 3017   2.482   6.270   3.756  0.1951 -0.2762 -0.1055
  226POPC   C1A 3018   2.762   5.915   4.035  0.2814 -0.1060  0.0681
  226POPC   D2A 3019   2.778   6.004   4.485 -0.1153  0.1027 -0.1547
  226POPC   C3A 3020   2.947   6.254   4.839  0.1103  0.1205 -0.0158
  226POPC   C4A 3021   3.170   6.304   5.257  0.0247  0.0936  0.0195
  226POPC   C1B 3022   2.623   6.431   4.083  0.0439  0.0739 -0.2152
  226POPC   C2B 3023   2.542   6.452   4.422 -0.0683 -0.2525  0.0113
  226POPC   C3B 3024   2.495   6.578   4.849  0.1484  0.2512  0.0475
  226POPC   C4B 3025   2.175   6.511   5.124 -0.3289  0.0232  0.0400
  227POPC   NC3 3026   0.495   8.069   3.331  0.1070  0.0441  0.0091
  227POPC   PO4 3027   0.056   7.928   3.195 -0.2278  0.0074 -0.0849
  227POPC   GL1 3028   0.044   7.817   3.617 -0.2546  0.3668  0.0449
  227POPC   GL2 3029   0.324   7.654   3.651 -0.0065 -0.1820 -0.2347
  227POPC   C1A 3030   0.024   7.914   4.060  0.0232 -0.1361 -0.2609
  227POPC   D2A 3031   0.097   7.700   4.571  0.1383  0.2369  0.5149
  227POPC   C3A 3032   0.003   7.884   4.918  0.1295 -0.0524  0.0325
  227POPC   C4A 3033  -0.048   8.189   5.295  0.0874 -0.2146  0.0512
  227POPC   C1B 3034   0.187   7.412   4.098 -0.1793  0.0279 -0.0647
  227POPC   C2B 3035   0.103   7.086   4.358 -0.2067 -0.1621  0.0487
  227POPC   C3B 3036   0.057   6.987   4.824  0.0414  0.0068  0.1638
  227POPC   C4B 3037  -0.190   7.187   5.157  0.1461 -0.0100 -0.2978
  228POPC   NC3 3038   2.789   4.658   3.729 -0.2918 -0.0685  0.0837
  228POPC   PO4 3039   3.156   4.562   3.640 -0.1705 -0.0205 -0.1738
  228POPC   GL1 3040   3.165   4.548   4.097  0.0405  0.3383 -0.1073
  228POPC   GL2 3041   3.058   4.921   4.162  0.0307 -0.2995  0.2289
  228POPC   C1A 3042   3.009   4.429   4.413 -0.3425  0.0239  0.4827
  228POPC   D2A 3043   2.955   4.443   4.807  0.1475  0.1153 -0.1299
  228POPC   C3A 3044   3.092   4.759   4.971  0.2240 -0.2762  0.3413
  228POPC   C4A 3045   3.293   4.775   5.315 -0.2592  0.0850 -0.2548
  228POPC   C1B 3046   2.862   4.934   4.481 -0.0815  0.1459  0.2000
  228POPC   C2B 3047   2.711   5.293   4.775 -0.2227 -0.0320  0.1949
  228POPC   C3B 3048   2.575   5.512   5.002  0.1698  0.0880  0.0535
  228POPC   C4B 3049   2.329   5.598   5.331  0.2462 -0.1382  0.0406
  229POPC   NC3 3050   3.709   3.995   3.212  0.2780 -0.1477  0.4023
  229POPC   PO4 3051   3.629   3.668   3.533 -0.0220 -0.1161 -0.1787
  229POPC   GL1 3052   3.610   3.681   3.998 -0.0379 -0.3598  0.1918
  229POPC   GL2 3053   3.447   3.472   4.144 -0.3128  0.1725 -0.0389
  229POPC   C1A 3054   3.638   3.885   4.386 -0.2289 -0.2757  0.1875
  229POPC   D2A 3055   3.620   3.920   4.784  0.0175  0.0156 -0.0074
  229POPC   C3A 3056   3.458   3.879   5.183 -0.3406  0.0572 -0.2363
  229POPC   C4A 3057   3.542   3.821   5.576  0.3930  0.4447  0.0272
  229POPC   C1B 3058   3.356   3.490   4.574 -0.0485  0.1443 -0.3774
  229POPC   C2B 3059   3.058   3.461   4.933 -0.1882 -0.0089 -0.0460
  229POPC   C3B 3060   3.073   3.552   5.310 -0.3188 -0.1516 -0.2993
  229POPC   C4B 3061   3.175   3.370   5.652  0.2534  0.3623 -0.1343
  230POPC   NC3 3062   5.309   8.196   3.224  0.0740  0.1418 -0.0153
  230POPC   PO4 3063   5.513   8.436   3.517  0.2686 -0.0948 -0.2343
  230POPC   GL1 3064   5.448   8.831   3.724  0.1234 -0.2447 -0.0163
  230POPC   GL2 3065   5.675   9.118   3.838  0.3801  0.0382 -0.0789
  230POPC   C1A 3066   5.203   8.951   4.121 -0.1341  0.3513 -0.0401
  230POPC   D2A 3067   4.926   8.797   4.526 -0.1259  0.1235  0.2126
  230POPC   C3A 3068   5.102   8.759   4.924  0.0325  0.2071  0.1555
  230POPC   C4A 3069   5.498   8.753   5.181 -0.3990 -0.2352  0.1038
  230POPC   C1B 3070   5.897   8.912   4.094  0.3317  0.2513 -0.3505
  230POPC   C2B 3071   5.936   8.898   4.587  0.3645 -0.1847 -0.2302
  230POPC   C3B 3072   5.943   8.827   4.968 -0.0635  0.1188 -0.0868
  230POPC   C4B 3073   6.266   8.681   5.291  0.1179 -0.0752 -0.0452
  231POPC   NC3 3074   4.305   6.445   3.285  0.0616  0.0100  0.5681
  231POPC   PO4 3075   4.517   6.026   3.485  0.1674  0.1821 -0.2425
  231POPC   GL1 3076   4.175   6.102   3.876  0.3334  0.3152 -0.1160
  231POPC   GL2 3077   4.376   6.000   4.022 -0.0811 -0.2212 -0.0652
  231POPC   C1A 3078   3.910   6.360   4.160 -0.2834 -0.0439  0.0548
  231POPC   D2A 3079   3.754   6.660   4.481  0.3196  0.1676 -0.0532
  231POPC   C3A 3080   3.476   6.412   4.839  0.0172 -0.2024  0.0968
  231POPC   C4A 3081   3.554   6.062   5.073  0.1938 -0.0996  0.0303
  231POPC   C1B 3082   4.349   5.762   4.403  0.1760 -0.3135 -0.1526
  231POPC   C2B 3083   4.174   5.765   4.809  0.0663 -0.0790 -0.2152
  231POPC   C3B 3084   4.141   6.072   5.120  0.1733 -0.5627  0.4582
  231POPC   C4B 3085   4.301   6.424   5.437 -0.2322 -0.1047 -0.0205
  232POPC   NC3 3086   8.295   6.109   3.551  0.0858  0.3590 -0.2815
  232POPC   PO4 3087   8.420   5.637   3.499 -0.0462 -0.1769 -0.1124
  232POPC   GL1 3088   8.518   5.672   3.927  0.0477 -0.0597  0.0795
  232POPC   GL2 3089   8.673   6.032   4.016  0.2125  0.0918 -0.1393
  232POPC   C1A 3090   8.562   5.661   4.375  0.2087 -0.0091 -0.1981
  232POPC   D2A 3091   8.735   5.952   4.715 -0.3166 -0.1105 -0.0910
  232POPC   C3A 3092   8.860   6.321   4.544 -0.2069 -0.0435  0.1915
  232POPC   C4A 3093   8.803   6.713   4.426 -0.0664 -0.2271 -0.1628
  232POPC   C1B 3094   8.415   6.145   4.292  0.0692  0.3813 -0.2669
  232POPC   C2B 3095   8.297   6.345   4.698 -0.1214  0.0049  0.1888
  232POPC   C3B 3096   8.349   6.203   5.127  0.0913  0.0605  0.1791
  232POPC   C4B 3097   8.586   6.167   5.517  0.1293  0.3215 -0.3328
  233POPC   NC3 3098   5.156   1.470   3.657  0.2135  0.4455 -0.1584
  233POPC   PO4 3099   5.503   1.269   3.993 -0.0713 -0.0826  0.1829
  233POPC   GL1 3100   5.638   1.293   4.444 -0.1765  0.0143 -0.2820
  233POPC   GL2 3101   5.928   1.360   4.520 -0.3857  0.1210  0.0617
  233POPC   C1A 3102   5.560   1.248   4.875  0.2419  0.2390  0.0371
  233POPC   D2A 3103   5.577   1.308   5.314 -0.1011  0.0663  0.0623
  233POPC   C3A 3104   5.214   1.390   5.518  0.1559  0.0624 -0.1302
  233POPC   C4A 3105   4.970   1.622   5.581 -0.1817 -0.0890 -0.1927
  233POPC   C1B 3106   6.108   1.071   4.856 -0.0414  0.1241 -0.0571
  233POPC   C2B 3107   6.032   0.881   5.164  0.2654  0.2062 -0.2802
  233POPC   C3B 3108   5.936   0.442   5.260  0.1722  0.3262 -0.0033
  233POPC   C4B 3109   5.768   0.091   5.424 -0.1031  0.2543 -0.1017
  234POPC   NC3 3110   2.230   3.319   3.487  0.3366  0.2862  0.0421
  234POPC   PO4 3111   2.276   3.294   3.875  0.2575 -0.0026 -0.1263
  234POPC   GL1 3112   2.266   3.152   4.357 -0.0622 -0.3329 -0.3055
  234POPC   GL2 3113   1.916   3.012   4.486  0.1457  0.0721  0.2321
  234POPC   C1A 3114   2.216   3.020   4.861 -0.1722 -0.2476 -0.1463
  234POPC   D2A 3115   2.250   2.743   5.328  0.1468  0.1785  0.2088
  234POPC   C3A 3116   1.870   2.794   5.558 -0.0346  0.0790 -0.1702
  234POPC   C4A 3117   1.478   2.819   5.538 -0.2449  0.2068 -0.0489
  234POPC   C1B 3118   1.846   3.343   4.733  0.0250 -0.0700 -0.1357
  234POPC   C2B 3119   1.667   3.640   4.586 -0.0920 -0.0879 -0.1038
  234POPC   C3B 3120   1.498   3.957   4.831 -0.0907 -0.1804  0.1357
  234POPC   C4B 3121   1.416   4.295   5.125 -0.0375  0.1146  0.1446
  235POPC   NC3 3122   7.644   5.059   3.053 -0.1141 -0.0907 -0.1795
  235POPC   PO4 3123   7.638   5.038   3.496 -0.2380 -0.3315  0.1640
  235POPC   GL1 3124   7.601   5.177   3.911 -0.2756 -0.0863  0.4105
  235POPC   GL2 3125   7.507   4.991   4.162  0.0291  0.3430 -0.3729
  235POPC   C1A 3126   7.692   5.385   4.322 -0.2222 -0.1236  0.1001
  235POPC   D2A 3127   7.718   5.428   4.737 -0.1520  0.0006  0.0678
  235POPC   C3A 3128   7.487   5.749   4.959  0.2759  0.1226  0.0099
  235POPC   C4A 3129   7.224   5.917   5.446 -0.1003 -0.2150 -0.0657
  235POPC   C1B 3130   7.403   4.709   4.508  0.1515 -0.0785  0.0677
  235POPC   C2B 3131   7.394   4.376   4.709 -0.2496  0.4451 -0.0151
  235POPC   C3B 3132   7.502   3.998   4.866 -0.0641  0.3051 -0.0966
  235POPC   C4B 3133   7.877   3.711   5.138 -0.0070 -0.0143  0.1163
  236POPC   NC3 3134   3.068   5.739   2.334 -0.0508 -0.2914  0.1994
  236POPC   PO4 3135   3.290   5.778   2.713  0.0677 -0.3398 -0.0342
  236POPC   GL1 3136   3.519   5.640   3.089  0.1186  0.0165  0.1737
  236POPC   GL2 3137   3.504   5.946   3.322 -0.1798 -0.2251 -0.0193
  236POPC   C1A 3138   3.455   5.482   3.541  0.0841 -0.0496  0.1797
  236POPC   D2A 3139   3.437   5.540   3.981 -0.3577 -0.1144 -0.1876
  236POPC   C3A 3140   3.446   5.234   4.304 -0.0892  0.0360  0.3932
  236POPC   C4A 3141   3.328   5.251   4.710 -0.3505 -0.0474 -0.4874
  236POPC   C1B 3142   3.713   5.883   3.811  0.3168  0.1028  0.0983
  236POPC   C2B 3143   3.849   5.832   4.258 -0.1894  0.0432 -0.2619
  236POPC   C3B 3144   3.756   5.675   4.592  0.1152  0.2515 -0.0714
  236POPC   C4B 3145   3.821   5.275   4.764 -0.0840 -0.2578 -0.0352
  237POPC   NC3 3146   2.100   7.819   3.691  0.0564 -0.1867  0.0336
  237POPC   PO4 3147   2.002   8.089   4.121  0.3165  0.0788  0.0943
  237POPC   GL1 3148   1.867   7.651   4.095 -0.0065  0.0390 -0.1439
  237POPC   GL2 3149   1.676   7.472   3.876  0.2514  0.5803  0.1547
  237POPC   C1A 3150   2.155   7.401   4.249 -0.1978  0.1206  0.0620
  237POPC   D2A 3151   2.527   7.242   4.000  0.0527  0.3981 -0.0034
  237POPC   C3A 3152   3.004   7.405   4.176 -0.1791 -0.1468  0.2038
  237POPC   C4A 3153   3.363   6.990   4.231 -0.0445  0.0305 -0.1728
  237POPC   C1B 3154   1.705   7.024   4.062 -0.0189  0.0477  0.0563
  237POPC   C2B 3155   1.743   6.716   4.460 -0.2342  0.0667  0.1141
  237POPC   C3B 3156   1.722   6.632   4.797  0.0928  0.2359  0.2177
  237POPC   C4B 3157   1.460   6.414   5.126 -0.1342  0.0072 -0.1444
  238POPC   NC3 3158   5.735   8.449   3.046  0.1613  0.0197 -0.0971
  238POPC   PO4 3159   5.809   8.050   3.255  0.1215  0.0960  0.0209
  238POPC   GL1 3160   5.854   8.052   3.687 -0.2641  0.2237  0.2442
  238POPC   GL2 3161   6.093   8.210   3.672 -0.2499  0.3747 -0.1137
  238POPC   C1A 3162   5.696   8.047   4.038 -0.3005  0.1370 -0.3105
  238POPC   D2A 3163   5.732   8.050   4.512 -0.0833 -0.5623 -0.0228
  238POPC   C3A 3164   5.750   7.760   4.830  0.0145 -0.0207 -0.0147
  238POPC   C4A 3165   5.613   7.389   5.002  0.2687  0.2344  0.1898
  238POPC   C1B 3166   6.081   8.361   4.101  0.0155  0.0428 -0.0065
  238POPC   C2B 3167   6.125   8.445   4.632 -0.1737 -0.0603  0.1504
  238POPC   C3B 3168   5.987   8.230   5.063  0.1525  0.2206 -0.0009
  238POPC   C4B 3169   5.843   7.809   5.291 -0.0312 -0.3021 -0.0387
  239POPC   NC3 3170   8.454   5.046   3.400 -0.0205  0.0406  0.1006
  239POPC   PO4 3171   8.076   4.903   3.358  0.0644  0.4191  0.0518
  239POPC   GL1 3172   8.175   4.858   3.741  0.3958 -0.2614 -0.0860
  239POPC   GL2 3173   8.479   5.089   3.883 -0.0615 -0.0527 -0.1136
  239POPC   C1A 3174   8.033   4.879   4.089  0.1011  0.1848  0.4378
  239POPC   D2A 3175   7.947   4.937   4.584  0.2481  0.2103 -0.0183
  239POPC   C3A 3176   7.631   4.964   4.898 -0.0448 -0.0201  0.2582
  239POPC   C4A 3177   7.248   4.769   5.058 -0.2037  0.1872 -0.3535
  239POPC   C1B 3178   8.339   5.220   4.334  0.0631 -0.0637 -0.1083
  239POPC   C2B 3179   8.197   5.364   4.692  0.0404  0.3631  0.1044
  239POPC   C3B 3180   8.153   5.331   5.053 -0.1660  0.0504  0.1172
  239POPC   C4B 3181   7.894   5.686   5.208 -0.1481 -0.3140 -0.1131
  240POPC   NC3 3182   1.209  10.809   3.659 -0.1501 -0.1340 -0.2663
  240POPC   PO4 3183   0.913  11.136   3.562  0.0613  0.4297 -0.1894
  240POPC   GL1 3184   1.191  11.250   3.927 -0.1958 -0.0873  0.0929
  240POPC   GL2 3185   1.082  11.514   4.013 -0.0126 -0.2237 -0.0064
  240POPC   C1A 3186   1.583  11.154   4.156 -0.1889 -0.0295 -0.0720
  240POPC   D2A 3187   1.759  11.095   4.495 -0.0596  0.1979  0.0238
  240POPC   C3A 3188   1.857  11.030   4.793 -0.0603  0.2421 -0.1202
  240POPC   C4A 3189   1.862  11.383   5.148  0.0023  0.2024 -0.0286
  240POPC   C1B 3190   1.179  11.388   4.407 -0.1805 -0.0290 -0.0184
  240POPC   C2B 3191   1.430  11.412   4.728 -0.1178 -0.5324  0.1426
  240POPC   C3B 3192   1.400  11.584   5.246 -0.1584  0.2410 -0.2301
  240POPC   C4B 3193   1.238  11.842   5.582 -0.2276  0.0394  0.1747
  241POPC   NC3 3194   5.950   4.382   3.850  0.0296 -0.0119 -0.1815
  241POPC   PO4 3195   5.944   3.915   3.723 -0.0673 -0.3422  0.1766
  241POPC   GL1 3196   5.831   3.964   4.126 -0.0500  0.4616 -0.2134
  241POPC   GL2 3197   5.530   3.762   4.062 -0.2463  0.3524 -0.2653
  241POPC   C1A 3198   5.753   4.105   4.593  0.3472 -0.1131  0.1614
  241POPC   D2A 3199   5.804   4.318   4.946 -0.0092  0.1295  0.4453
  241POPC   C3A 3200   5.608   4.705   4.951  0.0814  0.0886 -0.0393
  241POPC   C4A 3201   5.560   5.042   5.266 -0.1288  0.1816 -0.0878
  241POPC   C1B 3202   5.288   3.673   4.480  0.2676  0.0133  0.0435
  241POPC   C2B 3203   4.772   3.818   4.475  0.0203  0.1787 -0.1036
  241POPC   C3B 3204   4.452   4.292   4.543 -0.1194  0.3994  0.1420
  241POPC   C4B 3205   4.204   4.673   4.598  0.2136 -0.0295 -0.0247
  242POPC   NC3 3206   3.239   3.273   3.708 -0.0678  0.2841  0.0836
  242POPC   PO4 3207   3.060   3.677   3.781  0.1166 -0.0356 -0.1050
  242POPC   GL1 3208   3.058   3.814   4.169 -0.0180  0.0098  0.1539
  242POPC   GL2 3209   3.183   4.015   4.141 -0.0463 -0.1330  0.0849
  242POPC   C1A 3210   3.092   3.940   4.636 -0.0110  0.0835 -0.1258
  242POPC   D2A 3211   2.952   3.984   5.054 -0.1993  0.4006 -0.0432
  242POPC   C3A 3212   3.237   4.280   5.282  0.0389 -0.1694 -0.0803
  242POPC   C4A 3213   3.667   4.343   5.335 -0.3746 -0.1058 -0.0808
  242POPC   C1B 3214   3.461   4.306   4.431 -0.1604 -0.1506  0.0293
  242POPC   C2B 3215   3.547   4.407   4.828  0.0250  0.0668 -0.0899
  242POPC   C3B 3216   3.776   4.738   4.996  0.3072  0.2585 -0.0839
  242POPC   C4B 3217   3.678   5.126   5.215 -0.0672  0.1168  0.1711
  243POPC   NC3 3218   9.707   4.872   3.491 -0.0750  0.2282  0.0250
  243POPC   PO4 3219  10.209   4.715   3.484  0.0354 -0.0365 -0.0435
  243POPC   GL1 3220   9.939   4.553   3.782  0.0352  0.0319 -0.0038
  243POPC   GL2 3221   9.618   4.778   3.998  0.1647  0.0509 -0.2771
  243POPC   C1A 3222  10.202   4.624   4.140  0.0535  0.2185  0.1772
  243POPC   D2A 3223  10.188   4.622   4.550 -0.1488  0.0290  0.3380
  243POPC   C3A 3224  10.239   5.087   4.768 -0.1421 -0.2802  0.1944
  243POPC   C4A 3225  10.308   5.567   4.696  0.0416  0.0536  0.0301
  243POPC   C1B 3226   9.778   4.921   4.468 -0.3180  0.1343  0.1356
  243POPC   C2B 3227   9.795   5.053   4.940  0.2182  0.1826  0.1670
  243POPC   C3B 3228   9.573   4.881   5.234 -0.0994  0.0839  0.2693
  243POPC   C4B 3229   9.228   4.959   5.457  0.2276  0.1583 -0.1480
  244POPC   NC3 3230   9.005   9.330   3.512  0.2944  0.1829  0.0439
  244POPC   PO4 3231   9.100   8.880   3.497 -0.0768 -0.1448  0.1225
  244POPC   GL1 3232   9.126   9.008   3.992 -0.0596  0.0681 -0.0141
  244POPC   GL2 3233   9.443   8.990   4.057  0.0495  0.2996  0.0175
  244POPC   C1A 3234   8.797   8.977   4.372 -0.1844 -0.0068  0.1786
  244POPC   D2A 3235   8.434   8.840   4.546  0.0585 -0.4108 -0.2165
  244POPC   C3A 3236   8.392   8.904   5.019 -0.0028  0.2200 -0.2932
  244POPC   C4A 3237   8.268   8.521   5.160  0.0604  0.2558 -0.0685
  244POPC   C1B 3238   9.432   8.715   4.318  0.0118 -0.1442  0.0751
  244POPC   C2B 3239   9.272   8.753   4.730  0.2815  0.1204 -0.0381
  244POPC   C3B 3240   9.139   8.479   5.011 -0.1037 -0.3369  0.1500
  244POPC   C4B 3241   9.328   8.223   5.237  0.0170 -0.1369  0.0315
  245POPC   NC3 3242   2.053   4.972   3.117 -0.4945 -0.2133  0.2369
  245POPC   PO4 3243   2.056   4.864   3.623  0.0822 -0.1191  0.1247
  245POPC   GL1 3244   2.188   4.999   3.979  0.1318 -0.2858  0.0305
  245POPC   GL2 3245   2.413   4.625   4.006 -0.1279  0.1690  0.1593
  245POPC   C1A 3246   2.451   5.079   4.214  0.3948  0.3345  0.2043
  245POPC   D2A 3247   2.480   5.467   4.375 -0.1370 -0.3879  0.1297
  245POPC   C3A 3248   2.220   5.632   4.665  0.3442 -0.1187 -0.0858
  245POPC   C4A 3249   1.910   5.651   5.007  0.4144  0.0547 -0.0007
  245POPC   C1B 3250   2.441   4.552   4.437  0.2458 -0.1934  0.1396
  245POPC   C2B 3251   2.077   4.651   4.842 -0.8774  0.1186 -0.4262
  245POPC   C3B 3252   1.777   4.692   5.160  0.1550  0.0546  0.0152
  245POPC   C4B 3253   1.690   4.883   5.553  0.2805 -0.0920  0.0107
  246POPC   NC3 3254   7.508   1.206   3.928  0.1874 -0.0134 -0.2460
  246POPC   PO4 3255   7.922   1.535   3.972 -0.0579 -0.2813 -0.0238
  246POPC   GL1 3256   7.906   1.249   4.296  0.2771  0.2140  0.2206
  246POPC   GL2 3257   7.594   1.283   4.432 -0.0936  0.1626 -0.0245
  246POPC   C1A 3258   8.003   1.271   4.722  0.1682  0.2898 -0.1944
  246POPC   D2A 3259   8.339   1.224   5.104  0.1227 -0.1400 -0.1027
  246POPC   C3A 3260   8.210   1.324   5.523  0.0758 -0.1471 -0.2040
  246POPC   C4A 3261   7.838   1.418   5.726  0.1235 -0.3631 -0.2321
  246POPC   C1B 3262   7.567   1.207   4.842 -0.0889 -0.1253  0.1184
  246POPC   C2B 3263   7.687   1.281   5.258  0.0789  0.0499 -0.0122
  246POPC   C3B 3264   7.710   0.977   5.519  0.0770  0.2104  0.0083
  246POPC   C4B 3265   7.702   0.852   5.963 -0.2799  0.2919 -0.0435
  247POPC   NC3 3266   4.963   3.223   3.847  0.1106  0.0812  0.3195
  247POPC   PO4 3267   4.614   3.395   3.746 -0.2683 -0.0902  0.2364
  247POPC   GL1 3268   4.593   3.481   4.144 -0.0027  0.3778 -0.0308
  247POPC   GL2 3269   4.888   3.292   4.400  0.0936 -0.0401  0.2599
  247POPC   C1A 3270   4.432   3.388   4.550  0.0986  0.0877  0.0647
  247POPC   D2A 3271   4.216   3.320   4.869 -0.0330 -0.2503  0.2052
  247POPC   C3A 3272   4.207   2.910   4.990  0.0540  0.1767  0.0221
  247POPC   C4A 3273   3.998   2.599   5.165  0.0527 -0.1066 -0.0356
  247POPC   C1B 3274   4.690   2.977   4.527  0.2057  0.0860 -0.1286
  247POPC   C2B 3275   4.670   3.082   4.934  0.1419  0.1704 -0.0882
  247POPC   C3B 3276   4.525   3.354   5.250  0.0766  0.1218  0.0432
  247POPC   C4B 3277   4.261   3.450   5.723 -0.0692  0.1998  0.0951
  248POPC   NC3 3278  10.327   5.236   3.392 -0.2021 -0.0145 -0.0091
  248POPC   PO4 3279   9.891   5.309   3.455  0.1959 -0.0508  0.2202
  248POPC   GL1 3280  10.012   5.142   3.904  0.1558 -0.0095  0.2333
  248POPC   GL2 3281   9.756   5.347   4.078 -0.1437 -0.2479 -0.1719
  248POPC   C1A 3282  10.207   5.107   4.251 -0.0585 -0.2181  0.0407
  248POPC   D2A 3283  10.618   5.196   4.403  0.0296  0.1798  0.1049
  248POPC   C3A 3284  10.769   5.323   4.877  0.1904 -0.0223  0.1688
  248POPC   C4A 3285  11.005   5.156   5.235  0.1678  0.2695  0.3982
  248POPC   C1B 3286   9.901   5.393   4.494  0.0840 -0.1953 -0.1830
  248POPC   C2B 3287   9.759   5.639   4.825 -0.0426  0.0211 -0.0781
  248POPC   C3B 3288   9.929   5.961   5.017  0.2315 -0.5581 -0.0985
  248POPC   C4B 3289   9.744   6.429   5.086 -0.1995  0.2355 -0.2476
  249POPC   NC3 3290   3.771   9.076   2.880 -0.1840  0.3265  0.0995
  249POPC   PO4 3291   3.998   9.140   3.207  0.2621 -0.0138  0.0249
  249POPC   GL1 3292   4.027   9.125   3.656 -0.1987 -0.1339 -0.2854
  249POPC   GL2 3293   4.216   9.254   3.994  0.2365 -0.0194 -0.0982
  249POPC   C1A 3294   3.704   9.160   3.979  0.0371 -0.2789  0.0332
  249POPC   D2A 3295   3.512   9.293   4.441  0.2478 -0.3853 -0.0583
  249POPC   C3A 3296   3.709   9.645   4.689  0.3153 -0.2918  0.0958
  249POPC   C4A 3297   4.091   9.783   4.785  0.0784 -0.1846  0.0724
  249POPC   C1B 3298   4.045   9.153   4.362  0.2188 -0.0027  0.1966
  249POPC   C2B 3299   4.057   9.252   4.872  0.2075  0.1539  0.1715
  249POPC   C3B 3300   4.060   9.427   5.247  0.1413 -0.1271  0.1206
  249POPC   C4B 3301   3.752   9.813   5.131 -0.0314 -0.0230 -0.3008
  250POPC   NC3 3302   4.635   0.188   3.360  0.0195  0.1277 -0.2217
  250POPC   PO4 3303   4.438   0.471   3.671 -0.1089 -0.0637  0.3663
  250POPC   GL1 3304   4.683   0.616   3.949 -0.4447  0.2675 -0.1267
  250POPC   GL2 3305   4.604   0.621   4.338  0.2250  0.0950  0.2116
  250POPC   C1A 3306   5.044   0.755   4.186 -0.1302 -0.1447  0.0137
  250POPC   D2A 3307   5.019   0.966   4.587  0.0001  0.1089 -0.4145
  250POPC   C3A 3308   5.057   0.649   4.912 -0.1201 -0.3072  0.0502
  250POPC   C4A 3309   4.890   0.261   5.090  0.0113  0.2729  0.3110
  250POPC   C1B 3310   4.607   0.458   4.677  0.2917 -0.1288 -0.2253
  250POPC   C2B 3311   4.354   0.226   4.841  0.0853 -0.0078 -0.0443
  250POPC   C3B 3312   3.949   0.255   4.915 -0.3521 -0.2629  0.2974
  250POPC   C4B 3313   3.636   0.522   4.814  0.0719  0.0466  0.0324
  251POPC   NC3 3314   0.582   1.910   3.657 -0.0322  0.2748 -0.1044
  251POPC   PO4 3315   0.799   1.552   3.789 -0.1103  0.0821 -0.0291
  251POPC   GL1 3316   0.730   1.388   4.249 -0.1571 -0.1290 -0.1745
  251POPC   GL2 3317   0.489   1.402   4.413  0.1180  0.0268 -0.0408
  251POPC   C1A 3318   1.017   1.374   4.609  0.3208  0.1406 -0.2110
  251POPC   D2A 3319   1.089   1.330   5.129 -0.2882  0.3363  0.2445
  251POPC   C3A 3320   1.431   1.375   5.426 -0.0410  0.0641 -0.0430
  251POPC   C4A 3321   1.634   1.313   5.800  0.1496 -0.1055  0.0349
  251POPC   C1B 3322   0.569   1.308   4.899  0.1300 -0.1060  0.2005
  251POPC   C2B 3323   0.605   1.024   5.175  0.1570 -0.0263  0.1858
  251POPC   C3B 3324   0.882   0.638   5.316 -0.1037  0.1857  0.0182
  251POPC   C4B 3325   0.702   0.253   5.490 -0.1267  0.4227  0.2046
  252POPC   NC3 3326   4.794   7.120   3.490 -0.1142 -0.4075 -0.4062
  252POPC   PO4 3327   4.381   6.923   3.454 -0.0930  0.0286  0.0589
  252POPC   GL1 3328   4.443   7.159   3.897 -0.3943  0.2003 -0.1563
  252POPC   GL2 3329   4.348   7.440   4.085 -0.1214 -0.1897  0.0326
  252POPC   C1A 3330   4.906   7.182   4.056 -0.2064 -0.0493  0.0903
  252POPC   D2A 3331   5.009   7.340   4.380  0.0713  0.6437  0.1248
  252POPC   C3A 3332   5.101   7.250   4.791 -0.0509 -0.1250  0.0431
  252POPC   C4A 3333   5.108   7.245   5.253 -0.1132  0.2177 -0.0262
  252POPC   C1B 3334   4.307   7.409   4.556 -0.1150 -0.0051  0.1268
  252POPC   C2B 3335   4.114   7.295   4.974 -0.2157  0.1015 -0.0584
  252POPC   C3B 3336   3.884   7.482   5.323  0.1125 -0.0335 -0.0010
  252POPC   C4B 3337   3.437   7.553   5.448 -0.0567  0.0548  0.2561
  253POPC   NC3 3338  10.620   1.467   3.965 -0.1942  0.0933 -0.4727
  253POPC   PO4 3339  10.247   1.729   3.946 -0.1599 -0.1490 -0.0522
  253POPC   GL1 3340  10.353   1.590   4.411 -0.3012  0.3163 -0.1403
  253POPC   GL2 3341  10.508   1.216   4.414 -0.2472  0.0379 -0.1870
  253POPC   C1A 3342  10.591   1.713   4.856 -0.1185  0.0404 -0.0587
  253POPC   D2A 3343  10.617   2.032   5.123 -0.2566  0.0376  0.0314
  253POPC   C3A 3344  10.308   2.267   5.268 -0.0303 -0.0053  0.0673
  253POPC   C4A 3345  10.253   2.633   5.520  0.0744  0.2984 -0.2159
  253POPC   C1B 3346  10.209   1.319   4.779  0.2276  0.3803  0.0928
  253POPC   C2B 3347  10.088   1.104   5.158  0.0802 -0.2298 -0.3137
  253POPC   C3B 3348   9.987   1.085   5.535  0.0070 -0.0933  0.0212
  253POPC   C4B 3349   9.921   1.279   5.933  0.0797 -0.1427  0.0217
  254POPC   NC3 3350   2.833   2.536   3.481 -0.0881 -0.0447 -0.2049
  254POPC   PO4 3351   2.874   2.921   3.769  0.0557  0.6110  0.0484
  254POPC   GL1 3352   2.730   3.217   4.094 -0.3070 -0.1245  0.0212
  254POPC   GL2 3353   2.981   3.349   4.162  0.3174  0.2638 -0.3609
  254POPC   C1A 3354   2.569   3.549   4.432 -0.2803  0.1448 -0.1435
  254POPC   D2A 3355   2.372   3.530   4.794  0.0191  0.2076  0.2077
  254POPC   C3A 3356   2.609   3.706   5.238  0.0139  0.0057  0.2013
  254POPC   C4A 3357   2.672   3.592   5.645  0.0109 -0.1862 -0.5997
  254POPC   C1B 3358   3.097   2.981   4.417 -0.1013  0.3001 -0.0042
  254POPC   C2B 3359   3.132   2.989   4.834 -0.0077  0.0737 -0.0365
  254POPC   C3B 3360   2.984   3.020   5.294  0.0999 -0.0523  0.0363
  254POPC   C4B 3361   2.816   2.728   5.642 -0.0637 -0.2123 -0.0115
  255POPC   NC3 3362   0.174   2.853   3.115 -0.1710  0.1491  0.4310
  255POPC   PO4 3363  -0.245   2.913   3.311 -0.2921 -0.1301  0.0300
  255POPC   GL1 3364  -0.117   3.056   3.760  0.1404 -0.0616 -0.0579
  255POPC   GL2 3365  -0.388   3.265   3.989  0.1680  0.0352  0.1718
  255POPC   C1A 3366  -0.100   3.057   4.257  0.0032  0.1681 -0.0468
  255POPC   D2A 3367   0.125   2.807   4.380 -0.0964  0.0461  0.2908
  255POPC   C3A 3368   0.234   2.952   4.700  0.2562 -0.2010  0.1187
  255POPC   C4A 3369  -0.036   3.015   4.977  0.1478 -0.0044  0.1045
  255POPC   C1B 3370  -0.513   3.263   4.430  0.3643 -0.0979  0.0697
  255POPC   C2B 3371  -0.350   3.368   4.849  0.1864 -0.2255  0.1219
  255POPC   C3B 3372  -0.579   3.221   5.112 -0.1704  0.0622 -0.1189
  255POPC   C4B 3373  -0.638   3.169   5.509 -0.2774 -0.3082  0.0926
  256POPC   NC3 3374   2.409   3.809   3.486 -0.2585  0.1895 -0.1671
  256POPC   PO4 3375   2.118   4.149   3.283 -0.1454  0.0587  0.0682
  256POPC   GL1 3376   2.226   4.274   3.692  0.3959  0.1496  0.2385
  256POPC   GL2 3377   1.909   4.417   3.831  0.0997 -0.0774  0.0133
  256POPC   C1A 3378   2.278   4.138   4.095 -0.0800  0.2455 -0.0997
  256POPC   D2A 3379   2.638   4.115   4.410 -0.2999  0.0317 -0.5169
  256POPC   C3A 3380   2.455   4.164   4.825  0.2835  0.3005 -0.3309
  256POPC   C4A 3381   2.623   4.296   5.260  0.0509 -0.0221  0.0989
  256POPC   C1B 3382   1.958   4.529   4.322 -0.1047 -0.0474 -0.0004
  256POPC   C2B 3383   2.035   4.953   4.424  0.1472 -0.5092 -0.4941
  256POPC   C3B 3384   2.286   5.106   4.665 -0.3066 -0.1753 -0.4665
  256POPC   C4B 3385   2.577   4.812   4.824  0.2520 -0.0305 -0.2042
  257POPC   NC3 3386   3.940   2.289   3.553  0.0072  0.0635  0.1067
  257POPC   PO4 3387   4.242   2.501   3.526 -0.2024 -0.2941  0.2905
  257POPC   GL1 3388   4.269   2.461   3.980 -0.1384  0.1076  0.0682
  257POPC   GL2 3389   4.006   2.622   4.127  0.3033 -0.0810  0.0062
  257POPC   C1A 3390   4.531   2.469   4.294  0.4496  0.2601  0.0988
  257POPC   D2A 3391   4.850   2.320   4.612  0.2203  0.4944 -0.0385
  257POPC   C3A 3392   4.995   2.083   4.929 -0.1871 -0.2402  0.2315
  257POPC   C4A 3393   5.226   1.738   5.132 -0.1435 -0.0035 -0.0046
  257POPC   C1B 3394   4.200   2.774   4.487  0.0832 -0.0637 -0.3489
  257POPC   C2B 3395   4.403   2.478   4.844 -0.1982 -0.1305 -0.5188
  257POPC   C3B 3396   4.489   2.249   5.129 -0.0601  0.2010  0.2660
  257POPC   C4B 3397   4.689   1.823   5.244 -0.0043  0.1907 -0.1187
  258POPC   NC3 3398   6.720   6.025   3.603 -0.2385  0.2041 -0.0933
  258POPC   PO4 3399   6.750   5.600   3.693  0.0013 -0.2043  0.2458
  258POPC   GL1 3400   6.867   5.418   4.065  0.1189  0.0928 -0.1971
  258POPC   GL2 3401   7.087   5.279   4.035  0.1052 -0.2211 -0.0502
  258POPC   C1A 3402   6.733   5.407   4.445 -0.0450  0.0197 -0.1916
  258POPC   D2A 3403   6.779   5.193   4.666  0.0679  0.0131 -0.5303
  258POPC   C3A 3404   6.413   4.944   4.931 -0.2541  0.0278  0.2755
  258POPC   C4A 3405   6.059   4.924   5.143 -0.1125 -0.1277 -0.1519
  258POPC   C1B 3406   7.257   5.311   4.483  0.2734  0.1673  0.0203
  258POPC   C2B 3407   7.235   5.280   4.847 -0.0829  0.1385 -0.3189
  258POPC   C3B 3408   6.977   5.138   5.193 -0.1310 -0.1279  0.2648
  258POPC   C4B 3409   6.784   4.920   5.387 -0.2486  0.3206 -0.1109
  259POPC   NC3 3410   7.829   9.483   3.472 -0.0038 -0.0113 -0.0517
  259POPC   PO4 3411   7.407   9.713   3.579  0.0772 -0.0551  0.0760
  259POPC   GL1 3412   7.624   9.547   3.968  0.0484 -0.0614  0.2219
  259POPC   GL2 3413   7.843   9.684   4.276 -0.4474  0.1812  0.3669
  259POPC   C1A 3414   7.520   9.350   4.436 -0.0772  0.2083  0.1252
  259POPC   D2A 3415   7.597   8.962   4.591  0.1197 -0.1890  0.2781
  259POPC   C3A 3416   7.496   8.545   4.693 -0.1096 -0.3154  0.0136
  259POPC   C4A 3417   7.133   8.366   4.468 -0.1324 -0.0390 -0.1988
  259POPC   C1B 3418   7.807   9.870   4.679 -0.0964  0.0796 -0.0198
  259POPC   C2B 3419   7.529   9.891   5.073 -0.0097  0.2382  0.2600
  259POPC   C3B 3420   7.415   9.979   5.443 -0.0783  0.1486  0.0032
  259POPC   C4B 3421   7.230  10.140   5.885 -0.1341 -0.1856  0.2239
  260POPC   NC3 3422   0.318   4.240   3.297 -0.2605 -0.2007 -0.0653
  260POPC   PO4 3423   0.148   3.824   3.241 -0.1655  0.0429 -0.0359
  260POPC   GL1 3424   0.021   3.855   3.696  0.3668  0.0020 -0.0427
  260POPC   GL2 3425  -0.126   4.055   3.819  0.2250 -0.2048  0.2937
  260POPC   C1A 3426   0.130   3.706   4.127  0.2167 -0.0120 -0.2158
  260POPC   D2A 3427   0.155   3.856   4.543  0.2355 -0.0454 -0.1519
  260POPC   C3A 3428   0.237   3.579   4.943  0.1927  0.1759  0.2463
  260POPC   C4A 3429   0.397   3.275   5.160 -0.1446  0.1247  0.2406
  260POPC   C1B 3430  -0.209   4.527   3.935  0.0497 -0.2050  0.3144
  260POPC   C2B 3431  -0.248   4.709   4.364  0.1233  0.1375 -0.1198
  260POPC   C3B 3432  -0.247   4.812   4.767 -0.0858 -0.0178 -0.2959
  260POPC   C4B 3433  -0.387   4.978   5.134 -0.0955 -0.2428 -0.2585
  261POPC   NC3 3434   0.734   3.332   3.613 -0.0584 -0.1125  0.0649
  261POPC   PO4 3435   0.356   3.293   3.505  0.0096  0.0706 -0.3174
  261POPC   GL1 3436   0.393   3.282   3.978  0.1061 -0.0965 -0.1268
  261POPC   GL2 3437   0.547   2.977   4.010  0.1707 -0.1470 -0.2772
  261POPC   C1A 3438   0.316   3.386   4.449 -0.1497  0.2278  0.0580
  261POPC   D2A 3439   0.658   3.365   4.730 -0.0111  0.0151 -0.0671
  261POPC   C3A 3440   0.843   3.667   4.930  0.4264 -0.2949 -0.0934
  261POPC   C4A 3441   1.049   3.813   5.260 -0.1009  0.2087 -0.2018
  261POPC   C1B 3442   0.852   3.123   4.353 -0.2267 -0.4932 -0.5210
  261POPC   C2B 3443   1.140   3.197   4.699  0.0976 -0.1299  0.1963
  261POPC   C3B 3444   1.327   3.485   4.929  0.1860 -0.2496 -0.2258
  261POPC   C4B 3445   1.593   3.697   5.256 -0.3341 -0.2478  0.2569
  262POPC   NC3 3446  10.258   2.661   3.225  0.3302 -0.1958 -0.0757
  262POPC   PO4 3447   9.848   2.946   3.297 -0.2749 -0.0519 -0.3509
  262POPC   GL1 3448   9.900   2.960   3.789 -0.0756 -0.2548 -0.2022
  262POPC   GL2 3449   9.775   3.172   4.011  0.0095  0.0214 -0.0961
  262POPC   C1A 3450  10.080   2.877   4.279 -0.0358 -0.1960 -0.1947
  262POPC   D2A 3451   9.990   2.703   4.637 -0.0094 -0.1444  0.2724
  262POPC   C3A 3452   9.920   2.391   4.913  0.0971  0.1891 -0.2572
  262POPC   C4A 3453   9.860   2.137   5.327  0.2701 -0.1873 -0.1643
  262POPC   C1B 3454   9.864   3.310   4.368 -0.2523 -0.1510  0.0182
  262POPC   C2B 3455   9.924   3.226   4.798  0.2370  0.1401 -0.2863
  262POPC   C3B 3456   9.897   2.999   5.126  0.2317  0.0135 -0.4049
  262POPC   C4B 3457   9.766   2.725   5.373  0.2213 -0.0563  0.0826
  263POPC   NC3 3458   4.089   8.206   3.806 -0.0486 -0.1243  0.1007
  263POPC   PO4 3459   4.373   7.919   3.644 -0.2985  0.2131 -0.3563
  263POPC   GL1 3460   4.494   7.958   4.031 -0.0168  0.0756  0.5159
  263POPC   GL2 3461   4.355   8.195   4.231  0.1293  0.0319 -0.1613
  263POPC   C1A 3462   4.766   7.778   4.245  0.0624  0.1198 -0.0112
  263POPC   D2A 3463   4.767   7.723   4.714 -0.3559  0.1348  0.0473
  263POPC   C3A 3464   4.655   7.317   4.955  0.3239 -0.0472 -0.0183
  263POPC   C4A 3465   4.595   7.043   5.355 -0.1183  0.0095 -0.0988
  263POPC   C1B 3466   4.327   7.954   4.581  0.0990  0.1609  0.2785
  263POPC   C2B 3467   4.348   8.010   5.077 -0.1403 -0.0766 -0.1374
  263POPC   C3B 3468   4.589   8.288   5.403  0.3742 -0.1221  0.0598
  263POPC   C4B 3469   4.837   8.340   5.798  0.1094  0.1324  0.1602
  264POPC   NC3 3470   4.181   4.886   3.397  0.2175 -0.0095  0.0392
  264POPC   PO4 3471   4.131   4.752   3.816 -0.1709  0.0769 -0.0134
  264POPC   GL1 3472   4.150   4.378   4.068  0.3914 -0.2361 -0.1593
  264POPC   GL2 3473   4.558   4.344   4.065  0.1367  0.0821  0.0739
  264POPC   C1A 3474   3.991   4.246   4.437  0.0560  0.0310 -0.0563
  264POPC   D2A 3475   4.082   4.283   4.905 -0.1310 -0.0068 -0.0876
  264POPC   C3A 3476   4.002   3.982   5.094  0.0662 -0.0626 -0.1002
  264POPC   C4A 3477   4.067   3.612   5.263 -0.0735 -0.0026 -0.0127
  264POPC   C1B 3478   4.637   4.742   4.344  0.2781  0.0822  0.1286
  264POPC   C2B 3479   4.649   4.812   4.768  0.0199 -0.0750  0.0191
  264POPC   C3B 3480   4.331   4.832   5.053 -0.2033  0.1058 -0.1019
  264POPC   C4B 3481   4.080   4.975   5.482 -0.0517  0.1756  0.0707
  265POPC   NC3 3482   6.910   9.513   3.451  0.1683  0.0290 -0.1242
  265POPC   PO4 3483   6.800  10.051   3.546 -0.0897 -0.0618 -0.1596
  265POPC   GL1 3484   7.012   9.987   3.910 -0.0492  0.1640 -0.0667
  265POPC   GL2 3485   6.900  10.022   4.221 -0.0446 -0.0821 -0.0382
  265POPC   C1A 3486   7.145   9.591   4.159 -0.3366 -0.1594 -0.0152
  265POPC   D2A 3487   7.282   9.755   4.545  0.0172 -0.5341 -0.2485
  265POPC   C3A 3488   7.540  10.280   4.645 -0.1756  0.0127  0.1085
  265POPC   C4A 3489   7.809  10.320   5.013  0.0554  0.3977 -0.3356
  265POPC   C1B 3490   6.969  10.428   4.491  0.1398  0.1712  0.1994
  265POPC   C2B 3491   7.353  10.698   4.697 -0.0735  0.0292  0.2266
  265POPC   C3B 3492   7.295  10.951   5.024 -0.0893 -0.3676 -0.0892
  265POPC   C4B 3493   7.283  11.053   5.447 -0.0461 -0.2633 -0.0512
  266POPC   NC3 3494   3.615   3.200   3.426 -0.2663 -0.1060  0.0140
  266POPC   PO4 3495   3.783   2.735   3.705 -0.4762  0.1212  0.4661
  266POPC   GL1 3496   3.572   2.854   4.045  0.1242  0.0001  0.0299
  266POPC   GL2 3497   3.346   2.859   3.958  0.2236 -0.3418 -0.0214
  266POPC   C1A 3498   3.545   2.727   4.448 -0.1995  0.0661 -0.2724
  266POPC   D2A 3499   3.783   3.000   4.771  0.1530 -0.0184  0.0606
  266POPC   C3A 3500   3.851   3.141   5.212 -0.3911 -0.1791  0.0614
  266POPC   C4A 3501   3.741   3.360   5.589 -0.1749  0.0932  0.0310
  266POPC   C1B 3502   3.181   2.531   4.212 -0.0208  0.1008  0.1212
  266POPC   C2B 3503   2.801   2.430   4.485 -0.1696 -0.3765  0.2998
  266POPC   C3B 3504   2.716   2.178   4.746 -0.0219 -0.1370  0.2436
  266POPC   C4B 3505   3.137   2.017   4.939  0.3021 -0.0206  0.1840
  267POPC   NC3 3506   5.506  10.777   2.969  0.0298  0.3147 -0.2640
  267POPC   PO4 3507   5.663  10.897   3.375 -0.0380 -0.1219  0.1072
  267POPC   GL1 3508   5.465  10.792   3.760 -0.0183  0.1730  0.2419
  267POPC   GL2 3509   5.410  11.070   4.019  0.1504  0.1522  0.3384
  267POPC   C1A 3510   5.611  10.629   4.223 -0.0019 -0.1543 -0.2778
  267POPC   D2A 3511   5.529  10.332   4.394  0.1427 -0.2994  0.2329
  267POPC   C3A 3512   5.392  10.195   4.842 -0.1152  0.2187  0.1883
  267POPC   C4A 3513   5.245  10.280   5.317  0.1838  0.0147 -0.1307
  267POPC   C1B 3514   5.448  11.266   4.454  0.1276 -0.2517  0.1191
  267POPC   C2B 3515   5.457  11.202   4.956  0.1587 -0.3466  0.1539
  267POPC   C3B 3516   5.331  10.933   5.240 -0.1843  0.1472 -0.1848
  267POPC   C4B 3517   5.425  10.655   5.609 -0.1485 -0.2139 -0.0389
  268POPC   NC3 3518   7.227   2.326   3.597  0.1958  0.0944  0.3950
  268POPC   PO4 3519   7.565   2.290   3.946  0.1347 -0.1116 -0.0319
  268POPC   GL1 3520   7.729   2.249   4.305  0.1605  0.0749  0.1483
  268POPC   GL2 3521   7.750   1.898   4.327 -0.0851  0.1700 -0.1108
  268POPC   C1A 3522   7.686   2.319   4.759 -0.2993 -0.0513 -0.4067
  268POPC   D2A 3523   7.773   2.235   5.258  0.1085  0.2871  0.0327
  268POPC   C3A 3524   7.949   2.406   5.562  0.1945 -0.3580 -0.1075
  268POPC   C4A 3525   8.348   2.505   5.427  0.2629 -0.0938  0.0399
  268POPC   C1B 3526   7.645   1.694   4.630 -0.1609 -0.2554  0.2029
  268POPC   C2B 3527   7.536   1.876   5.023 -0.2122 -0.0307 -0.0236
  268POPC   C3B 3528   7.540   1.729   5.449  0.0577  0.0877 -0.1370
  268POPC   C4B 3529   7.325   1.749   5.887  0.2520  0.2313  0.0228
  269POPC   NC3 3530  10.168   7.593   2.939 -0.2691  0.0322  0.0877
  269POPC   PO4 3531   9.861   7.483   3.185  0.3168  0.0686  0.0151
  269POPC   GL1 3532  10.109   7.473   3.598 -0.3129 -0.0110 -0.1199
  269POPC   GL2 3533  10.148   7.864   3.670 -0.1285  0.3677  0.0721
  269POPC   C1A 3534  10.126   7.093   3.817  0.0051 -0.0855  0.1964
  269POPC   D2A 3535   9.996   6.958   4.239 -0.0672 -0.0150 -0.0553
  269POPC   C3A 3536   9.609   7.046   4.293 -0.3128  0.0959 -0.0915
  269POPC   C4A 3537   9.279   7.095   4.652 -0.0182 -0.2072  0.2465
  269POPC   C1B 3538   9.974   7.672   4.078  0.0995 -0.0564  0.0431
  269POPC   C2B 3539   9.853   7.852   4.449 -0.0049 -0.2246  0.1592
  269POPC   C3B 3540   9.590   7.679   4.696 -0.1903  0.1989  0.2772
  269POPC   C4B 3541   9.612   7.439   5.027  0.0417 -0.3065 -0.3711
  270POPC   NC3 3542   5.911   9.566   3.488  0.0370  0.1508  0.2713
  270POPC   PO4 3543   6.072   9.213   3.525  0.2420  0.3343  0.0555
  270POPC   GL1 3544   6.159   9.312   3.969  0.3308  0.1237  0.1267
  270POPC   GL2 3545   6.126   9.626   3.944 -0.0045 -0.2162 -0.2082
  270POPC   C1A 3546   6.230   9.258   4.300  0.5854  0.0505 -0.0878
  270POPC   D2A 3547   6.396   9.331   4.658  0.1999  0.0249 -0.1504
  270POPC   C3A 3548   6.767   9.292   4.824 -0.2957  0.4062 -0.0927
  270POPC   C4A 3549   7.001   9.246   5.298  0.1221  0.1950 -0.0694
  270POPC   C1B 3550   6.152   9.749   4.412  0.0271 -0.1699 -0.2207
  270POPC   C2B 3551   6.151   9.758   4.956  0.2484  0.1089  0.1092
  270POPC   C3B 3552   6.358  10.050   5.197  0.1667  0.0265 -0.0909
  270POPC   C4B 3553   6.133  10.414   5.371 -0.1065 -0.0832 -0.0365
  271POPC   NC3 3554   9.786   8.711   3.692  0.2074 -0.0575  0.2546
  271POPC   PO4 3555   9.744   8.300   3.601 -0.0155  0.1979 -0.1429
  271POPC   GL1 3556   9.707   8.181   3.964 -0.2283 -0.1142 -0.1866
  271POPC   GL2 3557   9.456   7.994   3.957  0.2722  0.0815 -0.1586
  271POPC   C1A 3558   9.897   8.368   4.483 -0.0967  0.1497  0.0035
  271POPC   D2A 3559  10.325   8.383   4.699 -0.0454 -0.1329  0.0765
  271POPC   C3A 3560  10.459   8.079   5.040 -0.0418  0.3297 -0.2539
  271POPC   C4A 3561  10.522   7.652   5.181  0.0087 -0.0917 -0.1085
  271POPC   C1B 3562   9.381   8.204   4.394 -0.1935  0.0607  0.0216
  271POPC   C2B 3563   9.542   8.141   4.806  0.1592  0.1894  0.0383
  271POPC   C3B 3564   9.772   8.065   5.060 -0.0825  0.1249 -0.0584
  271POPC   C4B 3565  10.061   7.787   4.892 -0.2349 -0.1719 -0.0041
  272POPC   NC3 3566   7.539   0.001   3.670 -0.0213 -0.4590  0.2088
  272POPC   PO4 3567   6.997   0.273   3.587  0.0422  0.0281 -0.0308
  272POPC   GL1 3568   7.156   0.206   3.939  0.3709 -0.1482 -0.0684
  272POPC   GL2 3569   6.931   0.435   4.061  0.0998  0.1399  0.1603
  272POPC   C1A 3570   7.353   0.176   4.255 -0.1270 -0.1876 -0.0738
  272POPC   D2A 3571   7.516   0.382   4.709  0.0215  0.0633  0.2621
  272POPC   C3A 3572   7.667   0.402   5.129  0.0808  0.0932  0.0343
  272POPC   C4A 3573   7.673   0.482   5.508 -0.1103  0.1812 -0.0518
  272POPC   C1B 3574   6.783   0.553   4.471 -0.0614  0.2468  0.0221
  272POPC   C2B 3575   6.841   0.671   4.931 -0.1687  0.1716 -0.2302
  272POPC   C3B 3576   7.015   0.698   5.338  0.2402  0.2954 -0.0736
  272POPC   C4B 3577   6.696   0.640   5.768 -0.3826 -0.1262 -0.0281
  273POPC   NC3 3578   2.247   6.697   3.364  0.1036 -0.1475  0.2709
  273POPC   PO4 3579   2.555   7.048   3.425  0.0121  0.0271 -0.0973
  273POPC   GL1 3580   2.362   6.768   3.827 -0.3707  0.0997 -0.2308
  273POPC   GL2 3581   1.960   6.603   3.815 -0.0748  0.1543 -0.0286
  273POPC   C1A 3582   2.186   6.839   4.298 -0.1029 -0.0241  0.2758
  273POPC   D2A 3583   2.211   6.990   4.765  0.0505 -0.1664  0.1190
  273POPC   C3A 3584   1.930   7.208   4.870  0.0543  0.4006 -0.2363
  273POPC   C4A 3585   1.485   7.148   4.877  0.1010  0.0854  0.0029
  273POPC   C1B 3586   2.078   6.411   4.134 -0.2014  0.2315 -0.1897
  273POPC   C2B 3587   2.074   6.307   4.500 -0.0910  0.0497 -0.0605
  273POPC   C3B 3588   2.180   6.172   4.791 -0.0756  0.0496 -0.2608
  273POPC   C4B 3589   2.475   6.073   5.138  0.0306  0.1147  0.0066
  274POPC   NC3 3590   2.861   9.920   3.488  0.3871 -0.0764 -0.1277
  274POPC   PO4 3591   3.189  10.122   3.657 -0.2645  0.0072  0.3818
  274POPC   GL1 3592   3.333  10.214   4.105 -0.2131  0.0166  0.1919
  274POPC   GL2 3593   3.616  10.114   3.943 -0.1599 -0.0683 -0.0094
  274POPC   C1A 3594   3.515  10.479   4.300 -0.1280  0.2945  0.0748
  274POPC   D2A 3595   3.911  10.542   4.273  0.1660  0.0514 -0.2087
  274POPC   C3A 3596   4.147  10.094   4.222  0.0894  0.0288  0.0958
  274POPC   C4A 3597   4.231   9.677   4.325  0.1184 -0.1810  0.0989
  274POPC   C1B 3598   3.722  10.081   4.444 -0.3028  0.2472 -0.0016
  274POPC   C2B 3599   3.934  10.242   4.840 -0.0594  0.1048  0.3502
  274POPC   C3B 3600   3.917  10.249   5.141 -0.0638  0.0045 -0.0826
  274POPC   C4B 3601   3.870  10.059   5.581  0.0754 -0.0018  0.1524
  275POPC   NC3 3602   2.050   2.807   3.994  0.3697 -0.0057  0.1889
  275POPC   PO4 3603   2.406   2.623   3.758 -0.1636 -0.1233  0.1436
  275POPC   GL1 3604   2.506   2.747   4.207  0.0325  0.0342 -0.0474
  275POPC   GL2 3605   2.346   2.652   4.502  0.2461 -0.1043 -0.2963
  275POPC   C1A 3606   2.664   3.027   4.636  0.0486 -0.2424  0.0840
  275POPC   D2A 3607   2.671   3.218   5.018  0.1364  0.3981 -0.3966
  275POPC   C3A 3608   2.480   3.184   5.399 -0.4595  0.1739 -0.1798
  275POPC   C4A 3609   2.250   3.042   5.790 -0.0236  0.2447  0.1449
  275POPC   C1B 3610   2.539   2.596   4.949 -0.0580  0.2887 -0.1712
  275POPC   C2B 3611   2.706   2.205   5.318  0.0060  0.1026 -0.2447
  275POPC   C3B 3612   2.900   1.754   5.379  0.2175  0.1139  0.0177
  275POPC   C4B 3613   2.975   1.852   5.838  0.0304 -0.0522  0.0919
  276POPC   NC3 3614   8.435  10.526   3.479 -0.3613  0.1188  0.0031
  276POPC   PO4 3615   8.604  10.109   3.616  0.0615 -0.1211 -0.2329
  276POPC   GL1 3616   8.612  10.084   4.084 -0.1879 -0.2553 -0.0351
  276POPC   GL2 3617   8.356   9.843   4.080  0.4672 -0.0984 -0.2716
  276POPC   C1A 3618   8.963   9.814   4.258  0.1979  0.0047 -0.2056
  276POPC   D2A 3619   8.951   9.604   4.687 -0.0822  0.0148 -0.0789
  276POPC   C3A 3620   9.209   9.766   5.087 -0.2062 -0.0343 -0.0225
  276POPC   C4A 3621   9.093  10.014   5.391  0.1083  0.4654  0.0909
  276POPC   C1B 3622   8.289   9.795   4.528 -0.0354 -0.0859 -0.1918
  276POPC   C2B 3623   8.250   9.886   5.019 -0.2626  0.2495 -0.1977
  276POPC   C3B 3624   8.273  10.072   5.401 -0.0158 -0.1022 -0.2437
  276POPC   C4B 3625   8.452  10.230   5.793  0.4600  0.0736 -0.0808
  277POPC   NC3 3626   0.746   0.454   3.153  0.0942  0.0253  0.0834
  277POPC   PO4 3627   0.602   0.667   3.594 -0.0479 -0.1257 -0.1899
  277POPC   GL1 3628   0.575   0.539   3.966 -0.0744  0.2404  0.0350
  277POPC   GL2 3629   0.426   0.232   3.941 -0.0709  0.1267 -0.2138
  277POPC   C1A 3630   0.725   0.362   4.356  0.0452  0.2231 -0.0645
  277POPC   D2A 3631   0.809   0.126   4.753 -0.2604 -0.0489  0.0041
  277POPC   C3A 3632   1.104   0.216   5.179  0.2002 -0.3138  0.0533
  277POPC   C4A 3633   1.370   0.272   5.563  0.0072  0.4243 -0.0386
  277POPC   C1B 3634   0.414  -0.070   4.294 -0.1769  0.0100  0.2455
  277POPC   C2B 3635   0.250  -0.060   4.623  0.0213 -0.0401 -0.0672
  277POPC   C3B 3636   0.253  -0.019   5.008  0.2455 -0.1931 -0.3652
  277POPC   C4B 3637   0.096   0.451   5.215 -0.1688 -0.0373  0.0448
  278POPC   NC3 3638   8.006   9.023   3.657  0.2489 -0.2161  0.2750
  278POPC   PO4 3639   8.204   9.356   3.805 -0.2806 -0.1320  0.0156
  278POPC   GL1 3640   8.219   9.337   4.221 -0.2632 -0.2427 -0.0288
  278POPC   GL2 3641   8.561   9.409   4.315 -0.2380 -0.2348  0.0323
  278POPC   C1A 3642   7.987   9.380   4.696  0.0252 -0.4629  0.0967
  278POPC   D2A 3643   7.683   9.424   4.913 -0.0630 -0.4718 -0.1637
  278POPC   C3A 3644   7.840   9.499   5.265 -0.1351 -0.0741  0.1986
  278POPC   C4A 3645   7.988   9.527   5.729  0.5314 -0.2530  0.1344
  278POPC   C1B 3646   8.458   9.417   4.799  0.2340  0.2288 -0.0987
  278POPC   C2B 3647   8.290   9.361   5.231 -0.2085 -0.5163  0.4797
  278POPC   C3B 3648   8.559   9.146   5.495  0.3061  0.1827 -0.0247
  278POPC   C4B 3649   8.405   8.851   5.865  0.0639 -0.3558  0.0153
  279POPC   NC3 3650   0.043   6.357   2.628 -0.1105 -0.1780  0.0774
  279POPC   PO4 3651   0.260   6.194   3.067  0.3113 -0.2109  0.3278
  279POPC   GL1 3652   0.406   6.426   3.380  0.1619 -0.3693  0.1393
  279POPC   GL2 3653   0.136   6.727   3.467  0.1288 -0.0028  0.0389
  279POPC   C1A 3654   0.409   6.542   3.931  0.0337 -0.1395 -0.0124
  279POPC   D2A 3655   0.553   6.863   4.205  0.0380 -0.0536  0.1404
  279POPC   C3A 3656   0.471   6.809   4.613  0.0241  0.1508 -0.0245
  279POPC   C4A 3657   0.441   6.991   5.129  0.0574  0.1441 -0.1735
  279POPC   C1B 3658  -0.342   6.829   3.611 -0.1885 -0.0708  0.1889
  279POPC   C2B 3659  -0.521   6.716   3.985 -0.0899 -0.0232 -0.0123
  279POPC   C3B 3660  -0.664   6.487   4.329  0.0659 -0.0029  0.2261
  279POPC   C4B 3661  -0.721   6.356   4.751 -0.3904 -0.3233  0.1132
  280POPC   NC3 3662   9.703   9.791   3.976  0.2261 -0.0141  0.0562
  280POPC   PO4 3663   9.402   9.563   3.810  0.3195  0.0073  0.1139
  280POPC   GL1 3664   9.395   9.469   4.230  0.1244 -0.1639  0.1295
  280POPC   GL2 3665   9.463   9.649   4.543  0.1674  0.3957 -0.2630
  280POPC   C1A 3666   9.267   9.181   4.505  0.2117  0.0653  0.0702
  280POPC   D2A 3667   8.901   9.152   4.858 -0.4045 -0.1024 -0.3414
  280POPC   C3A 3668   8.833   9.485   5.184 -0.0123  0.0311 -0.2328
  280POPC   C4A 3669   8.690   9.725   5.635  0.0833  0.1486 -0.0900
  280POPC   C1B 3670   9.611   9.735   4.854  0.0647  0.0873 -0.1151
  280POPC   C2B 3671   9.597   9.550   5.303 -0.0190 -0.1711 -0.1286
  280POPC   C3B 3672   9.669   9.082   5.354  0.1933  0.3293 -0.1799
  280POPC   C4B 3673  10.093   8.841   5.361  0.0631  0.0713 -0.0561
  281POPC   NC3 3674   9.033   6.924   3.365  0.1464  0.5516 -0.3850
  281POPC   PO4 3675   8.624   6.756   3.450  0.1339 -0.0781 -0.2904
  281POPC   GL1 3676   8.829   6.885   3.802  0.1440  0.2324  0.0806
  281POPC   GL2 3677   8.674   7.083   4.023 -0.0092 -0.1662  0.0618
  281POPC   C1A 3678   9.170   6.866   4.091 -0.0445  0.1016 -0.2250
  281POPC   D2A 3679   9.270   6.644   4.465  0.3288  0.0602 -0.1027
  281POPC   C3A 3680   9.428   6.235   4.304 -0.1882  0.1584 -0.0845
  281POPC   C4A 3681   9.552   5.823   4.309 -0.0194  0.1414 -0.2772
  281POPC   C1B 3682   8.465   7.131   4.428  0.2946 -0.3117 -0.0631
  281POPC   C2B 3683   8.333   6.855   4.669  0.0168 -0.0029  0.2580
  281POPC   C3B 3684   8.175   6.690   5.020 -0.0193  0.1694 -0.3828
  281POPC   C4B 3685   8.185   6.466   5.537 -0.1693  0.1174  0.1101
  282POPC   NC3 3686   9.633   7.768   3.518 -0.3178 -0.2340 -0.0433
  282POPC   PO4 3687   9.263   7.437   3.382 -0.1644  0.1155 -0.1920
  282POPC   GL1 3688   9.108   7.356   3.800  0.2526  0.1380  0.2127
  282POPC   GL2 3689   8.859   7.651   3.949 -0.2025 -0.1946  0.1327
  282POPC   C1A 3690   9.008   7.288   4.276 -0.1125 -0.0081 -0.2018
  282POPC   D2A 3691   8.781   7.570   4.608 -0.0710 -0.3436  0.1070
  282POPC   C3A 3692   8.741   7.957   4.528 -0.5852  0.2097 -0.0633
  282POPC   C4A 3693   9.020   8.038   4.751  0.1635 -0.0537 -0.0334
  282POPC   C1B 3694   8.540   7.592   4.152  0.0655  0.3312 -0.3056
  282POPC   C2B 3695   8.306   7.877   4.412 -0.2301  0.2976 -0.0325
  282POPC   C3B 3696   8.232   7.814   4.767 -0.5057  0.0967  0.1347
  282POPC   C4B 3697   8.259   7.663   5.080 -0.1967 -0.0155 -0.0592
  283POPC   NC3 3698   3.009   7.793   3.550 -0.0555  0.2366  0.1094
  283POPC   PO4 3699   3.417   7.865   3.650 -0.1559 -0.1695 -0.0646
  283POPC   GL1 3700   3.536   7.821   4.106 -0.0354  0.0499 -0.0763
  283POPC   GL2 3701   3.365   7.917   4.429 -0.1922  0.0276  0.1541
  283POPC   C1A 3702   3.808   7.589   4.403  0.0653  0.1350 -0.0029
  283POPC   D2A 3703   3.869   7.105   4.529  0.1722 -0.1817  0.2668
  283POPC   C3A 3704   4.227   6.884   4.810  0.3984 -0.2984  0.3446
  283POPC   C4A 3705   4.569   6.675   4.996  0.2429 -0.2265  0.1030
  283POPC   C1B 3706   3.345   7.494   4.513 -0.3156  0.4103 -0.2617
  283POPC   C2B 3707   3.132   7.129   4.672  0.2987  0.0461 -0.1137
  283POPC   C3B 3708   2.999   6.746   4.743 -0.0580 -0.0094 -0.2877
  283POPC   C4B 3709   3.112   6.449   4.424 -0.0686 -0.0657  0.1637
  284POPC   NC3 3710   4.090   0.812   3.784  0.1056  0.4473  0.2308
  284POPC   PO4 3711   3.705   0.917   3.633 -0.0168 -0.0822  0.1627
  284POPC   GL1 3712   3.574   0.860   4.082 -0.0736  0.0788 -0.1222
  284POPC   GL2 3713   3.692   0.625   4.165 -0.3509 -0.1388  0.1899
  284POPC   C1A 3714   3.460   1.031   4.464 -0.0084 -0.1394  0.1959
  284POPC   D2A 3715   3.241   0.960   4.835  0.1338 -0.1987  0.2071
  284POPC   C3A 3716   3.225   1.079   5.204  0.0713 -0.0088  0.1506
  284POPC   C4A 3717   3.195   0.996   5.756  0.1771  0.5570  0.2368
  284POPC   C1B 3718   3.669   0.240   4.275  0.1064 -0.1275 -0.0803
  284POPC   C2B 3719   3.535   0.080   4.567  0.1561  0.0174  0.2920
  284POPC   C3B 3720   3.667  -0.134   4.948 -0.2699 -0.4204 -0.1440
  284POPC   C4B 3721   3.487  -0.366   5.238  0.0078 -0.2189 -0.0225
  285POPC   NC3 3722   5.655   7.596   3.254  0.1175 -0.1757 -0.2437
  285POPC   PO4 3723   6.033   7.191   3.252  0.0603  0.3372 -0.2469
  285POPC   GL1 3724   5.786   7.286   3.659 -0.0126 -0.0192 -0.1450
  285POPC   GL2 3725   5.759   7.566   3.762  0.1991  0.1675  0.1850
  285POPC   C1A 3726   5.997   7.213   4.099 -0.0076  0.1550  0.1611
  285POPC   D2A 3727   6.096   7.479   4.523 -0.2961  0.0482  0.0573
  285POPC   C3A 3728   6.186   7.354   5.060  0.1082  0.2096 -0.0320
  285POPC   C4A 3729   6.047   6.929   5.035  0.0367 -0.0727 -0.0270
  285POPC   C1B 3730   5.718   7.583   4.281  0.3758 -0.1409  0.2477
  285POPC   C2B 3731   5.327   7.652   4.560  0.0161 -0.0431  0.0722
  285POPC   C3B 3732   5.236   7.769   4.966  0.2935  0.0231  0.3174
  285POPC   C4B 3733   4.794   7.695   5.257  0.3179 -0.0202 -0.0829
  286POPC   NC3 3734   6.585   3.058   3.625  0.1979 -0.0074 -0.1121
  286POPC   PO4 3735   6.317   3.078   4.014  0.0154  0.1908 -0.0920
  286POPC   GL1 3736   6.606   2.783   4.209 -0.0345  0.1728  0.3925
  286POPC   GL2 3737   6.413   2.660   4.417 -0.2305 -0.1763  0.1308
  286POPC   C1A 3738   6.893   2.493   4.520 -0.0709 -0.2629 -0.0510
  286POPC   D2A 3739   7.137   2.670   4.760  0.0653 -0.0894 -0.0832
  286POPC   C3A 3740   7.313   3.073   4.976  0.2097  0.0382 -0.1722
  286POPC   C4A 3741   7.143   3.354   5.222 -0.1224 -0.2088 -0.3537
  286POPC   C1B 3742   6.542   2.985   4.698  0.0847  0.2075  0.2327
  286POPC   C2B 3743   6.838   3.159   4.842  0.2081  0.0918  0.0595
  286POPC   C3B 3744   7.084   3.401   4.624  0.0129  0.4048  0.0179
  286POPC   C4B 3745   7.285   3.807   4.462 -0.0228 -0.1490  0.0228
  287POPC   NC3 3746   4.971   7.389   2.699 -0.0718 -0.0618 -0.1625
  287POPC   PO4 3747   5.084   7.196   3.145  0.0394 -0.1729 -0.0266
  287POPC   GL1 3748   5.294   7.372   3.585 -0.0427  0.0633  0.0434
  287POPC   GL2 3749   5.386   7.183   3.869  0.1306  0.3496 -0.0907
  287POPC   C1A 3750   5.299   7.634   4.049  0.6629 -0.2006  0.1517
  287POPC   D2A 3751   5.192   8.059   4.238 -0.1926 -0.0277  0.1854
  287POPC   C3A 3752   5.299   8.336   4.711  0.1822 -0.1027 -0.1145
  287POPC   C4A 3753   5.439   8.210   5.162 -0.0541  0.4152 -0.0354
  287POPC   C1B 3754   5.453   7.097   4.321  0.0190 -0.3386 -0.1442
  287POPC   C2B 3755   5.596   6.956   4.740 -0.2480 -0.0374  0.0072
  287POPC   C3B 3756   5.616   6.943   5.237  0.3018  0.1147  0.1576
  287POPC   C4B 3757   5.504   6.720   5.562 -0.1202 -0.3274  0.0953
  288POPC   NC3 3758   1.303   1.502   3.564 -0.2474  0.1438  0.3059
  288POPC   PO4 3759   1.577   1.159   3.697 -0.0849  0.1105  0.1451
  288POPC   GL1 3760   1.499   1.297   4.120  0.1071  0.3401  0.0907
  288POPC   GL2 3761   1.307   1.535   4.073  0.1623  0.4193  0.0850
  288POPC   C1A 3762   1.521   1.179   4.519 -0.2420  0.0222  0.2555
  288POPC   D2A 3763   1.554   1.269   4.848  0.1224 -0.0394 -0.1066
  288POPC   C3A 3764   1.805   1.037   5.206  0.1367 -0.2040  0.4611
  288POPC   C4A 3765   1.950   1.079   5.504 -0.1586 -0.2416  0.0583
  288POPC   C1B 3766   1.035   1.849   4.474 -0.0310  0.1316  0.2006
  288POPC   C2B 3767   1.055   2.169   4.790  0.0145 -0.1411  0.1574
  288POPC   C3B 3768   1.303   2.220   5.088 -0.2163 -0.1578  0.0328
  288POPC   C4B 3769   1.643   2.528   5.170  0.2626  0.0639  0.1826
  289POPC   NC3 3770   4.187   1.590   4.170  0.0940  0.2186  0.0980
  289POPC   PO4 3771   4.075   2.016   3.910  0.1986 -0.1552  0.4592
  289POPC   GL1 3772   4.040   2.078   4.370 -0.1838  0.0705 -0.1209
  289POPC   GL2 3773   4.261   2.082   4.554 -0.2177 -0.0802  0.0746
  289POPC   C1A 3774   3.881   2.374   4.752  0.4288 -0.1388  0.2713
  289POPC   D2A 3775   3.556   2.267   5.104 -0.0476  0.1909 -0.1990
  289POPC   C3A 3776   3.345   1.951   5.441  0.1255  0.1668 -0.1908
  289POPC   C4A 3777   3.355   1.531   5.544  0.1163 -0.2361  0.1461
  289POPC   C1B 3778   4.132   1.928   4.898 -0.1360 -0.0904 -0.3537
  289POPC   C2B 3779   4.247   1.698   5.303  0.1317 -0.0580 -0.3748
  289POPC   C3B 3780   4.374   1.680   5.721 -0.2942 -0.1318  0.0732
  289POPC   C4B 3781   4.558   1.696   6.042  0.1311 -0.1984 -0.0452
  290POPC   NC3 3782   1.270   5.322   3.083 -0.0622 -0.0268 -0.0492
  290POPC   PO4 3783   1.740   5.308   3.221  0.0878  0.2204  0.0140
  290POPC   GL1 3784   1.653   5.672   3.382 -0.2671  0.1359 -0.0111
  290POPC   GL2 3785   1.942   5.727   3.447  0.1132 -0.0901 -0.1456
  290POPC   C1A 3786   1.533   5.709   3.892  0.1408 -0.1213 -0.2436
  290POPC   D2A 3787   1.251   5.785   4.286  0.0764  0.2055 -0.0086
  290POPC   C3A 3788   1.341   5.627   4.714  0.1576 -0.4207  0.2984
  290POPC   C4A 3789   1.437   5.673   5.141 -0.3675 -0.2796  0.3225
  290POPC   C1B 3790   1.924   6.046   3.723  0.3497 -0.2863 -0.1305
  290POPC   C2B 3791   1.756   6.051   4.198  0.0463 -0.1100 -0.3616
  290POPC   C3B 3792   1.726   6.116   4.730 -0.0717 -0.0125  0.1247
  290POPC   C4B 3793   1.815   6.124   5.161  0.2499  0.2917 -0.1806
  291POPC   NC3 3794   8.053   7.963   3.667  0.1983  0.3625  0.0112
  291POPC   PO4 3795   7.772   8.254   3.525 -0.0018 -0.2735 -0.0842
  291POPC   GL1 3796   7.964   8.481   3.881 -0.0398 -0.2870 -0.0185
  291POPC   GL2 3797   7.985   8.285   4.065 -0.0766  0.0202  0.3740
  291POPC   C1A 3798   7.976   8.718   4.318 -0.0046  0.1850 -0.0594
  291POPC   D2A 3799   8.015   8.737   4.764 -0.0131  0.0444  0.5222
  291POPC   C3A 3800   7.912   8.999   5.091  0.0439 -0.2091 -0.3097
  291POPC   C4A 3801   8.029   9.097   5.530 -0.0707 -0.0143 -0.3781
  291POPC   C1B 3802   7.919   8.188   4.482 -0.1940  0.3210  0.0427
  291POPC   C2B 3803   7.914   8.173   4.872 -0.0817  0.0345 -0.2420
  291POPC   C3B 3804   7.768   8.418   5.184  0.4034 -0.1765  0.4917
  291POPC   C4B 3805   7.938   8.534   5.638  0.2080  0.3075  0.4156
  292POPC   NC3 3806   8.804   8.443   3.428  0.0388 -0.4986  0.1452
  292POPC   PO4 3807   8.437   8.115   3.362 -0.2263 -0.1188  0.3394
  292POPC   GL1 3808   8.427   8.381   3.735  0.1156  0.2356  0.2757
  292POPC   GL2 3809   8.484   8.090   3.877 -0.0465  0.2359 -0.0725
  292POPC   C1A 3810   8.467   8.483   4.238 -0.0130  0.0933  0.4541
  292POPC   D2A 3811   8.332   8.320   4.654  0.2796 -0.1757 -0.3358
  292POPC   C3A 3812   8.599   8.190   5.020  0.0199  0.1754  0.0018
  292POPC   C4A 3813   8.804   8.060   5.394  0.1010  0.1575  0.2513
  292POPC   C1B 3814   8.893   8.152   4.085 -0.3428  0.0429  0.0186
  292POPC   C2B 3815   8.979   8.450   4.462 -0.1709 -0.0132  0.0921
  292POPC   C3B 3816   8.731   8.624   4.877  0.2045 -0.0293  0.0567
  292POPC   C4B 3817   8.750   8.669   5.279  0.1436  0.0369  0.1510
  293POPC   NC3 3818   8.180   2.342   3.395 -0.1745 -0.1131  0.1614
  293POPC   PO4 3819   8.521   2.408   3.668 -0.1668 -0.0894  0.0049
  293POPC   GL1 3820   8.535   2.318   4.107 -0.3527  0.0864 -0.1483
  293POPC   GL2 3821   8.687   2.554   4.408 -0.2707  0.2506  0.0979
  293POPC   C1A 3822   8.465   2.109   4.579  0.1875 -0.2062  0.1146
  293POPC   D2A 3823   8.166   1.735   4.601  0.0789  0.3636  0.0365
  293POPC   C3A 3824   8.075   1.620   5.126  0.4459 -0.2894  0.0824
  293POPC   C4A 3825   8.108   1.898   5.442 -0.1147  0.0972 -0.1798
  293POPC   C1B 3826   8.539   2.845   4.734 -0.3430 -0.0435 -0.0536
  293POPC   C2B 3827   8.467   2.946   5.123  0.0593  0.3648 -0.0280
  293POPC   C3B 3828   8.519   2.956   5.584 -0.0539  0.0274 -0.0205
  293POPC   C4B 3829   8.515   2.781   5.953 -0.2856  0.1286 -0.4656
  294POPC   NC3 3830   3.567   1.860   3.767  0.2194  0.0276  0.2249
  294POPC   PO4 3831   3.646   1.725   4.105 -0.2423  0.4467  0.4237
  294POPC   GL1 3832   3.364   1.815   4.462 -0.1389  0.0245  0.2018
  294POPC   GL2 3833   3.443   2.209   4.519 -0.1337  0.3840 -0.3733
  294POPC   C1A 3834   3.162   1.532   4.887 -0.2881 -0.1541 -0.2869
  294POPC   D2A 3835   2.802   1.240   5.002 -0.1115  0.3279  0.1157
  294POPC   C3A 3836   2.774   1.068   5.382 -0.1103 -0.3968 -0.1791
  294POPC   C4A 3837   2.809   0.624   5.548 -0.0235  0.1899  0.1248
  294POPC   C1B 3838   3.301   2.505   4.796 -0.0005  0.0190  0.1609
  294POPC   C2B 3839   3.039   2.504   5.086 -0.1508  0.0037  0.1077
  294POPC   C3B 3840   3.154   2.384   5.539 -0.0673  0.1397  0.1910
  294POPC   C4B 3841   3.096   2.337   6.030 -0.1364 -0.0508 -0.1034
  295POPC   NC3 3842   7.383   8.494   3.871  0.3263  0.1453  0.1586
  295POPC   PO4 3843   7.482   8.800   3.729 -0.1918  0.0206 -0.2506
  295POPC   GL1 3844   7.292   8.890   4.178  0.1377  0.1792 -0.0490
  295POPC   GL2 3845   6.925   8.820   4.163 -0.2531  0.0529  0.0482
  295POPC   C1A 3846   7.076   8.824   4.724 -0.0606 -0.0561  0.1984
  295POPC   D2A 3847   7.332   8.884   5.010  0.3967 -0.0587  0.2568
  295POPC   C3A 3848   7.456   9.115   5.363  0.1248 -0.2018  0.0601
  295POPC   C4A 3849   7.400   9.478   5.511 -0.4150 -0.1175 -0.0090
  295POPC   C1B 3850   6.536   8.843   4.458 -0.0001  0.1077 -0.1280
  295POPC   C2B 3851   6.436   8.841   4.866  0.1712 -0.0021 -0.0422
  295POPC   C3B 3852   6.300   9.170   5.116  0.1215 -0.3208 -0.0112
  295POPC   C4B 3853   6.549   9.545   5.154 -0.3444 -0.0413 -0.1237
  296POPC   NC3 3854   7.638   5.587   3.400  0.0794  0.1616 -0.0478
  296POPC   PO4 3855   7.912   5.876   3.304 -0.0702 -0.3708 -0.3222
  296POPC   GL1 3856   7.976   5.805   3.835 -0.2234 -0.0920  0.1930
  296POPC   GL2 3857   7.996   6.140   4.016  0.0868  0.2859 -0.1243
  296POPC   C1A 3858   8.065   5.639   4.163 -0.0913  0.0315  0.1057
  296POPC   D2A 3859   8.101   5.872   4.602 -0.1947 -0.3922  0.1071
  296POPC   C3A 3860   7.828   6.084   4.842  0.2186  0.0835 -0.2254
  296POPC   C4A 3861   7.714   6.162   5.296 -0.2705 -0.1151 -0.0374
  296POPC   C1B 3862   7.658   6.032   4.340 -0.1458  0.0678  0.2072
  296POPC   C2B 3863   7.395   6.233   4.681  0.0125  0.4385  0.0673
  296POPC   C3B 3864   7.256   6.322   5.125  0.1220 -0.1233 -0.1211
  296POPC   C4B 3865   7.144   6.407   5.682 -0.0843  0.1953 -0.1969
  297POPC   NC3 3866   7.337   6.475   3.331 -0.0877  0.0538  0.1641
  297POPC   PO4 3867   7.119   6.329   3.588 -0.0804 -0.1449 -0.0573
  297POPC   GL1 3868   7.064   5.945   3.971 -0.0843 -0.1166 -0.3032
  297POPC   GL2 3869   6.694   5.909   4.076  0.0581  0.1160  0.0935
  297POPC   C1A 3870   7.178   5.792   4.343 -0.3343  0.0792  0.2560
  297POPC   D2A 3871   7.076   5.719   4.713 -0.1628  0.0906 -0.1071
  297POPC   C3A 3872   6.775   5.657   4.965 -0.0214 -0.1260 -0.1102
  297POPC   C4A 3873   6.488   5.962   5.238 -0.0759 -0.0304 -0.1603
  297POPC   C1B 3874   6.850   6.159   4.377 -0.1607 -0.2077 -0.0486
  297POPC   C2B 3875   6.761   6.256   4.926  0.0363  0.5031  0.2635
  297POPC   C3B 3876   6.787   6.264   5.397 -0.2651  0.0286 -0.0497
  297POPC   C4B 3877   6.762   5.971   5.706  0.0301  0.1187  0.0924
  298POPC   NC3 3878   0.339  10.436   3.277 -0.0643  0.0637  0.2663
  298POPC   PO4 3879   0.357  10.118   3.529  0.2240  0.0855 -0.1475
  298POPC   GL1 3880   0.348  10.137   3.931 -0.1832  0.1491  0.1991
  298POPC   GL2 3881   0.027  10.225   4.030  0.0776 -0.0397  0.0740
  298POPC   C1A 3882   0.305   9.915   4.351 -0.2153 -0.1076  0.3154
  298POPC   D2A 3883   0.204   9.975   4.847  0.2722  0.1264  0.2221
  298POPC   C3A 3884   0.624  10.083   5.181  0.0608  0.0035 -0.0252
  298POPC   C4A 3885   0.723  10.359   5.521 -0.1068 -0.1520  0.3536
  298POPC   C1B 3886   0.207  10.373   4.410 -0.1132  0.0384  0.2190
  298POPC   C2B 3887   0.569  10.401   4.847 -0.0269 -0.1628  0.2243
  298POPC   C3B 3888   0.833  10.663   5.102 -0.0104  0.1608  0.1995
  298POPC   C4B 3889   1.061  10.701   5.509  0.3428 -0.1980 -0.1576
  299POPC   NC3 3890   3.604   1.378   3.691  0.0504 -0.5401  0.3723
  299POPC   PO4 3891   3.878   1.245   4.003 -0.1115  0.1032  0.0037
  299POPC   GL1 3892   3.791   1.342   4.428  0.0631 -0.0628  0.1589
  299POPC   GL2 3893   3.873   1.637   4.579  0.1615  0.2366  0.1012
  299POPC   C1A 3894   3.668   1.241   4.932 -0.1584  0.3017  0.1948
  299POPC   D2A 3895   3.801   1.446   5.326  0.0716  0.0463  0.0621
  299POPC   C3A 3896   4.225   1.234   5.521 -0.2228  0.1929 -0.2351
  299POPC   C4A 3897   4.372   1.073   5.828  0.0070 -0.1452  0.1857
  299POPC   C1B 3898   3.588   1.804   4.923 -0.2278  0.4517 -0.3264
  299POPC   C2B 3899   3.889   2.017   5.343 -0.5789  0.0570 -0.2530
  299POPC   C3B 3900   4.272   2.233   5.549  0.1696  0.0228  0.0742
  299POPC   C4B 3901   4.612   2.148   5.838  0.2002  0.1359 -0.3591
  300POPC   NC3 3902   7.042   1.670   3.614 -0.0746 -0.1639  0.1769
  300POPC   PO4 3903   6.843   2.034   3.741  0.2853 -0.1157 -0.2107
  300POPC   GL1 3904   7.159   2.009   4.029  0.2469  0.1216 -0.0401
  300POPC   GL2 3905   7.308   1.710   4.220  0.2709 -0.0299  0.1619
  300POPC   C1A 3906   7.292   2.084   4.495 -0.1573 -0.2364 -0.2339
  300POPC   D2A 3907   7.213   2.195   4.865  0.0329  0.2022 -0.1361
  300POPC   C3A 3908   7.157   2.162   5.278 -0.1709 -0.2497  0.0675
  300POPC   C4A 3909   7.208   2.241   5.688  0.1894  0.0995  0.1691
  300POPC   C1B 3910   7.155   1.572   4.674 -0.5298  0.1311 -0.1279
  300POPC   C2B 3911   7.100   1.645   5.103 -0.3277  0.1085 -0.0060
  300POPC   C3B 3912   6.919   1.782   5.569 -0.1520 -0.0458  0.1726
  300POPC   C4B 3913   6.907   1.985   6.030  0.0328 -0.2388  0.3204
  301POPC   NC3 3914   5.992   1.839   3.503 -0.1137  0.2191 -0.0398
  301POPC   PO4 3915   5.926   2.116   3.803 -0.0334 -0.1125  0.3285
  301POPC   GL1 3916   6.135   2.071   4.231 -0.1607  0.0145  0.3444
  301POPC   GL2 3917   5.991   1.948   4.432  0.1497  0.2838 -0.2866
  301POPC   C1A 3918   6.324   2.167   4.658 -0.2982 -0.3383  0.2563
  301POPC   D2A 3919   6.434   2.523   4.949  0.2779  0.1607  0.0581
  301POPC   C3A 3920   6.750   2.700   5.046  0.1212 -0.0997 -0.2135
  301POPC   C4A 3921   6.879   2.747   5.572  0.3854 -0.0567  0.0345
  301POPC   C1B 3922   6.103   1.721   4.803 -0.1376 -0.1244 -0.1079
  301POPC   C2B 3923   6.173   1.494   5.165 -0.1490 -0.0414 -0.3402
  301POPC   C3B 3924   6.501   1.446   5.518  0.0487 -0.0642  0.3748
  301POPC   C4B 3925   6.746   1.124   5.593  0.0725 -0.3013 -0.2881
  302POPC   NC3 3926   1.129   6.163   2.727 -0.1969  0.0594 -0.0429
  302POPC   PO4 3927   1.318   6.108   3.138 -0.1705  0.1960  0.0553
  302POPC   GL1 3928   1.282   6.104   3.563 -0.1425  0.2821  0.2817
  302POPC   GL2 3929   1.337   6.445   3.662  0.0764  0.3431 -0.0549
  302POPC   C1A 3930   1.015   6.067   3.913  0.1560 -0.0377  0.0228
  302POPC   D2A 3931   0.751   6.033   4.248  0.0308 -0.0133 -0.3102
  302POPC   C3A 3932   0.772   5.898   4.715  0.0247 -0.1257  0.0350
  302POPC   C4A 3933   0.533   5.933   5.024 -0.0110  0.1612  0.2911
  302POPC   C1B 3934   1.482   6.385   3.961 -0.0468  0.2567 -0.1487
  302POPC   C2B 3935   1.403   6.337   4.392 -0.0893  0.2498  0.3678
  302POPC   C3B 3936   1.211   6.087   4.823  0.0654  0.1696  0.2227
  302POPC   C4B 3937   0.986   6.092   5.269  0.2815  0.0616  0.1647
  303POPC   NC3 3938   5.638   6.486   3.306 -0.3564 -0.0771 -0.0219
  303POPC   PO4 3939   5.849   6.183   3.570  0.2742  0.0097  0.1529
  303POPC   GL1 3940   5.821   6.290   3.967  0.2184 -0.0266  0.1890
  303POPC   GL2 3941   5.897   6.622   4.116  0.2052  0.1044 -0.0624
  303POPC   C1A 3942   5.878   6.241   4.412  0.1587  0.2436 -0.0316
  303POPC   D2A 3943   5.762   6.464   4.895 -0.1961  0.0606  0.0037
  303POPC   C3A 3944   5.910   6.300   5.310  0.0279  0.1002  0.1651
  303POPC   C4A 3945   5.901   6.406   5.664  0.0343 -0.2925  0.0357
  303POPC   C1B 3946   6.086   6.742   4.558 -0.0333  0.0321 -0.2857
  303POPC   C2B 3947   6.336   6.606   4.862  0.0375  0.0612 -0.0967
  303POPC   C3B 3948   6.358   6.521   5.313  0.2905 -0.0293 -0.0682
  303POPC   C4B 3949   6.191   6.864   5.547 -0.0468 -0.1312  0.1159
  304POPC   NC3 3950   6.114   6.748   3.586 -0.1251  0.1248  0.0233
  304POPC   PO4 3951   5.705   6.801   3.687 -0.2463 -0.0518 -0.0780
  304POPC   GL1 3952   5.415   6.699   3.991  0.5914 -0.0885 -0.2393
  304POPC   GL2 3953   5.121   6.752   3.832  0.3279  0.3885 -0.1433
  304POPC   C1A 3954   5.407   6.589   4.335  0.0473  0.1725 -0.0306
  304POPC   D2A 3955   5.343   6.336   4.693  0.0069  0.0678 -0.0168
  304POPC   C3A 3956   5.187   6.004   4.694  0.0005 -0.2000  0.0881
  304POPC   C4A 3957   5.209   5.597   4.864 -0.0260 -0.2574  0.1566
  304POPC   C1B 3958   4.808   6.587   4.150 -0.2487  0.2696  0.1503
  304POPC   C2B 3959   4.549   6.489   4.487  0.0969 -0.3513 -0.2664
  304POPC   C3B 3960   4.293   6.309   4.634  0.0844  0.2925  0.0194
  304POPC   C4B 3961   3.873   6.184   4.670 -0.1254  0.0521 -0.0358
  305POPC   NC3 3962   4.002   0.721   3.234 -0.6499 -0.1189 -0.2757
  305POPC   PO4 3963   3.747   0.451   3.613 -0.0238 -0.0622 -0.2812
  305POPC   GL1 3964   4.117   0.313   3.986  0.0807  0.2608  0.1011
  305POPC   GL2 3965   4.156   0.623   4.260  0.2059  0.0507  0.1388
  305POPC   C1A 3966   4.225   0.098   4.377 -0.2262 -0.2687  0.4831
  305POPC   D2A 3967   4.212  -0.215   4.641 -0.2369  0.0768 -0.4073
  305POPC   C3A 3968   4.642  -0.170   4.912  0.4762 -0.0974  0.0089
  305POPC   C4A 3969   4.846  -0.230   5.225 -0.0274 -0.0513  0.0912
  305POPC   C1B 3970   3.997   0.874   4.603  0.0365  0.1279 -0.1067
  305POPC   C2B 3971   4.064   0.758   5.023  0.0407 -0.0253  0.0172
  305POPC   C3B 3972   3.899   0.541   5.371 -0.0490  0.0846 -0.2652
  305POPC   C4B 3973   3.596   0.172   5.350  0.2509  0.0717  0.0384
  306POPC   NC3 3974  10.192   0.735   3.921  0.1500  0.2303  0.1783
  306POPC   PO4 3975  10.580   0.993   3.982 -0.3345  0.5592  0.0266
  306POPC   GL1 3976  10.635   0.725   4.295 -0.0614 -0.2116  0.0572
  306POPC   GL2 3977  10.376   0.521   4.380  0.0959  0.1990 -0.2834
  306POPC   C1A 3978  10.753   0.659   4.747 -0.0503 -0.1018  0.1520
  306POPC   D2A 3979  10.551   0.574   5.081  0.0794  0.2701  0.0301
  306POPC   C3A 3980  10.179   0.620   5.369  0.2109  0.3886 -0.1573
  306POPC   C4A 3981   9.751   0.738   5.310 -0.0079  0.2071  0.0291
  306POPC   C1B 3982  10.112   0.171   4.660  0.0851 -0.1953 -0.0831
  306POPC   C2B 3983  10.164   0.137   5.016 -0.0193  0.0572  0.0945
  306POPC   C3B 3984  10.202   0.103   5.437 -0.1995  0.1374  0.0570
  306POPC   C4B 3985  10.024  -0.135   5.823  0.1215 -0.0163 -0.1551
  307POPC   NC3 3986   1.909   2.383   3.713  0.1567  0.1841  0.2870
  307POPC   PO4 3987   1.558   2.635   3.865 -0.0208  0.1478 -0.4340
  307POPC   GL1 3988   1.598   2.676   4.308  0.0219  0.0672 -0.0865
  307POPC   GL2 3989   1.361   2.967   4.271 -0.2580 -0.1575 -0.2042
  307POPC   C1A 3990   1.537   2.897   4.774 -0.0053  0.0352 -0.4026
  307POPC   D2A 3991   1.585   3.073   5.097 -0.0546  0.2733 -0.0379
  307POPC   C3A 3992   1.932   3.260   5.198 -0.0721 -0.2606  0.0875
  307POPC   C4A 3993   2.085   3.621   5.462  0.1184 -0.3469  0.1838
  307POPC   C1B 3994   1.128   2.634   4.567  0.0135 -0.0004  0.0583
  307POPC   C2B 3995   1.100   2.739   5.034 -0.1360  0.1720  0.0654
  307POPC   C3B 3996   0.982   2.620   5.476  0.1066 -0.0215 -0.1565
  307POPC   C4B 3997   1.015   2.923   5.853  0.1750  0.3475  0.1673
  308POPC   NC3 3998   6.350   1.809   3.912 -0.2379 -0.0674  0.0620
  308POPC   PO4 3999   6.778   1.606   4.041  0.3936 -0.2631 -0.3614
  308POPC   GL1 4000   6.983   1.263   4.214  0.4306  0.1772 -0.1177
  308POPC   GL2 4001   6.817   0.982   4.287 -0.0187 -0.6272  0.3000
  308POPC   C1A 4002   7.034   1.124   4.703  0.1810  0.1187  0.1763
  308POPC   D2A 4003   6.831   1.246   5.087  0.0209 -0.0123  0.0767
  308POPC   C3A 4004   6.510   0.967   5.192 -0.2291 -0.0131  0.1171
  308POPC   C4A 4005   6.494   0.539   5.304  0.0790 -0.2849 -0.1982
  308POPC   C1B 4006   6.577   0.965   4.677 -0.0043 -0.1213 -0.0656
  308POPC   C2B 4007   6.395   0.658   4.789 -0.0265 -0.1767  0.1770
  308POPC   C3B 4008   6.546   0.287   4.851  0.2441 -0.0573 -0.1443
  308POPC   C4B 4009   6.828   0.171   5.200  0.2033  0.0172  0.1440
  309POPC   NC3 4010   6.448  10.463   3.686  0.0695  0.2342  0.1270
  309POPC   PO4 4011   6.585  10.866   3.695 -0.0913 -0.2992 -0.0506
  309POPC   GL1 4012   6.707  10.844   4.052 -0.0256 -0.2883  0.0165
  309POPC   GL2 4013   6.708  10.457   4.074 -0.0183 -0.1136 -0.2310
  309POPC   C1A 4014   6.838  10.910   4.521  0.0650 -0.1109 -0.2204
  309POPC   D2A 4015   6.671  10.689   4.877 -0.0883  0.0282  0.2011
  309POPC   C3A 4016   6.603  10.595   5.269  0.1599 -0.1766 -0.2831
  309POPC   C4A 4017   6.487  10.512   5.664  0.1858  0.3314 -0.1535
  309POPC   C1B 4018   6.480  10.306   4.386 -0.0383 -0.0830  0.1008
  309POPC   C2B 4019   6.273  10.129   4.691 -0.1606  0.0145 -0.3425
  309POPC   C3B 4020   5.857  10.220   4.951 -0.1753 -0.1703 -0.1081
  309POPC   C4B 4021   5.675  10.520   5.148  0.1562  0.6687  0.1554
  310POPC   NC3 4022   2.074   0.469   3.585 -0.1840  0.0219 -0.1730
  310POPC   PO4 4023   2.369   0.754   3.453  0.1058  0.4896  0.0445
  310POPC   GL1 4024   2.307   0.849   3.935  0.1647  0.1587  0.0040
  310POPC   GL2 4025   2.002   0.850   3.915  0.0295 -0.1830 -0.2202
  310POPC   C1A 4026   2.432   0.926   4.382 -0.2076  0.1823 -0.1314
  310POPC   D2A 4027   2.272   1.150   4.745 -0.0268  0.2837 -0.0690
  310POPC   C3A 4028   2.314   0.920   5.164  0.3584 -0.0055  0.5537
  310POPC   C4A 4029   2.309   0.586   5.429  0.0656 -0.0406  0.0427
  310POPC   C1B 4030   1.959   1.172   4.324  0.2021 -0.0286 -0.1845
  310POPC   C2B 4031   1.959   1.555   4.556  0.2871 -0.1040  0.1174
  310POPC   C3B 4032   1.966   1.533   5.036  0.0205  0.0508 -0.0685
  310POPC   C4B 4033   1.913   1.600   5.529  0.4519  0.0222 -0.0115
  311POPC   NC3 4034   6.266   3.917   3.321  0.2936  0.0228  0.2371
  311POPC   PO4 4035   6.329   4.282   3.554  0.0289  0.3353 -0.0888
  311POPC   GL1 4036   6.478   4.502   3.859  0.2167  0.2417 -0.2233
  311POPC   GL2 4037   6.233   4.479   4.205 -0.4291  0.2798  0.1447
  311POPC   C1A 4038   6.705   4.391   4.251 -0.1123 -0.0443  0.1123
  311POPC   D2A 4039   7.091   4.318   4.343 -0.1739 -0.1139 -0.0822
  311POPC   C3A 4040   7.496   4.209   4.240 -0.1469  0.0707 -0.1920
  311POPC   C4A 4041   7.779   3.880   4.348 -0.2282  0.3069 -0.0007
  311POPC   C1B 4042   6.211   4.067   4.507  0.3240  0.0631 -0.2134
  311POPC   C2B 4043   6.144   3.724   4.866  0.0313 -0.0739 -0.0438
  311POPC   C3B 4044   6.214   3.373   5.186 -0.0185 -0.0042 -0.0440
  311POPC   C4B 4045   6.542   3.108   5.261 -0.0571 -0.1391 -0.1798
  312POPC   NC3 4046   4.570   8.663   3.314 -0.2305 -0.0468  0.4582
  312POPC   PO4 4047   4.923   8.557   3.213 -0.2059 -0.2051 -0.0717
  312POPC   GL1 4048   4.953   8.645   3.644 -0.0910  0.3350  0.2282
  312POPC   GL2 4049   5.165   8.442   3.823 -0.1976  0.0315 -0.0019
  312POPC   C1A 4050   4.817   8.430   4.161 -0.0312  0.1515 -0.0862
  312POPC   D2A 4051   4.803   8.193   4.582 -0.0905  0.0055 -0.0580
  312POPC   C3A 4052   4.958   8.234   5.032  0.1309  0.0205 -0.1311
  312POPC   C4A 4053   5.087   8.036   5.465 -0.0831  0.1912  0.1324
  312POPC   C1B 4054   5.520   8.504   4.134 -0.0726 -0.0837 -0.0570
  312POPC   C2B 4055   5.427   8.797   4.554 -0.1470 -0.0820 -0.3374
  312POPC   C3B 4056   5.493   9.066   4.787 -0.2379  0.0258  0.1690
  312POPC   C4B 4057   5.784   9.410   4.635  0.1844  0.2367 -0.1417
  313POPC   NC3 4058   3.884   7.168   3.452  0.0659  0.1364  0.1121
  313POPC   PO4 4059   3.911   6.672   3.484 -0.3071 -0.3334  0.0361
  313POPC   GL1 4060   3.730   6.772   3.898  0.2077  0.0717 -0.1243
  313POPC   GL2 4061   3.868   7.115   4.010  0.1425  0.1510 -0.0193
  313POPC   C1A 4062   3.398   6.487   4.044 -0.2795 -0.2382 -0.1822
  313POPC   D2A 4063   3.048   6.420   3.920 -0.3331  0.3646 -0.2500
  313POPC   C3A 4064   2.900   6.852   4.129 -0.1026 -0.1958 -0.0581
  313POPC   C4A 4065   2.656   7.010   4.550  0.1829  0.0706  0.0283
  313POPC   C1B 4066   4.229   6.915   4.251  0.0488  0.1092  0.1131
  313POPC   C2B 4067   4.585   7.057   4.464  0.2512  0.2263  0.0578
  313POPC   C3B 4068   4.990   6.807   4.633 -0.0848 -0.1184  0.0751
  313POPC   C4B 4069   5.242   6.758   4.990 -0.0296 -0.1749 -0.0777
  314POPC   NC3 4070  10.261   4.265   3.114  0.0904 -0.2645  0.1120
  314POPC   PO4 4071  10.282   4.150   3.587  0.0544  0.0986 -0.1852
  314POPC   GL1 4072  10.252   4.135   4.045  0.2217  0.0708  0.2010
  314POPC   GL2 4073   9.939   4.015   4.030  0.0847  0.0824  0.0456
  314POPC   C1A 4074  10.260   4.095   4.555  0.2001 -0.3570 -0.0894
  314POPC   D2A 4075   9.855   4.122   4.831 -0.1377  0.0341  0.0727
  314POPC   C3A 4076  10.125   4.091   5.262 -0.1942  0.2722 -0.2838
  314POPC   C4A 4077  10.583   4.269   5.510  0.0161 -0.0254 -0.0479
  314POPC   C1B 4078   9.797   3.890   4.362 -0.0243  0.0581  0.0486
  314POPC   C2B 4079   9.588   3.615   4.600  0.0701 -0.1823 -0.2277
  314POPC   C3B 4080   9.470   3.528   5.059 -0.1293  0.0335  0.2182
  314POPC   C4B 4081   9.532   3.848   5.444 -0.2617  0.0521  0.0782
  315POPC   NC3 4082  10.783   1.777   3.547 -0.4616  0.0331 -0.0539
  315POPC   PO4 4083  11.015   2.010   3.919 -0.3211 -0.3363 -0.2958
  315POPC   GL1 4084  10.884   1.795   4.340 -0.1840  0.0675  0.0609
  315POPC   GL2 4085  10.864   1.569   4.486 -0.1637 -0.5356 -0.1873
  315POPC   C1A 4086  10.869   2.080   4.665 -0.0384 -0.1096  0.1658
  315POPC   D2A 4087  11.180   2.395   4.734  0.4711  0.1246 -0.1873
  315POPC   C3A 4088  11.584   2.390   5.053  0.0885 -0.4291 -0.0721
  315POPC   C4A 4089  11.756   2.155   5.391  0.0586 -0.0150  0.0868
  315POPC   C1B 4090  11.050   1.593   4.942 -0.3819  0.4201 -0.1035
  315POPC   C2B 4091  11.122   1.901   5.264  0.0450 -0.0460  0.1824
  315POPC   C3B 4092  11.182   2.185   5.372  0.4270  0.2051  0.0707
  315POPC   C4B 4093  11.180   2.660   5.305  0.0634 -0.1037  0.1628
  316POPC   NC3 4094   8.104   4.374   3.648 -0.0705 -0.2143  0.3859
  316POPC   PO4 4095   8.545   4.559   3.668 -0.1949  0.2528 -0.1002
  316POPC   GL1 4096   8.387   4.526   4.042  0.0320 -0.0524 -0.2992
  316POPC   GL2 4097   8.014   4.338   4.148 -0.2337 -0.0852  0.1942
  316POPC   C1A 4098   8.349   4.581   4.497  0.2070 -0.0219  0.0020
  316POPC   D2A 4099   8.366   4.307   4.870  0.3031 -0.2091  0.3031
  316POPC   C3A 4100   8.392   4.347   5.331 -0.2469  0.1213  0.1204
  316POPC   C4A 4101   8.056   4.441   5.667  0.0712 -0.4145  0.1900
  316POPC   C1B 4102   7.909   4.380   4.636  0.3078 -0.0214 -0.1986
  316POPC   C2B 4103   7.886   4.221   5.065  0.3969 -0.0484 -0.0854
  316POPC   C3B 4104   7.673   4.097   5.398 -0.1627  0.1614 -0.5197
  316POPC   C4B 4105   7.359   3.807   5.429  0.2815 -0.4775 -0.2129
  317POPC   NC3 4106   1.187   4.164   3.306  0.3084 -0.1570  0.0822
  317POPC   PO4 4107   0.956   3.784   3.466  0.3314 -0.0539 -0.1101
  317POPC   GL1 4108   1.153   4.005   3.788  0.0610 -0.1201  0.1951
  317POPC   GL2 4109   1.480   4.011   3.914  0.3477  0.0895 -0.2071
  317POPC   C1A 4110   1.115   4.055   4.335  0.0078 -0.1882 -0.2497
  317POPC   D2A 4111   1.089   4.333   4.644 -0.0486  0.0851  0.0060
  317POPC   C3A 4112   0.853   4.413   5.045 -0.2054 -0.0537 -0.1362
  317POPC   C4A 4113   0.676   4.103   5.402 -0.3752 -0.0907  0.3339
  317POPC   C1B 4114   1.452   4.468   4.088  0.0805 -0.1381  0.2871
  317POPC   C2B 4115   1.215   4.748   4.367 -0.0650 -0.1889  0.3073
  317POPC   C3B 4116   1.229   5.199   4.674  0.0863 -0.0044 -0.1029
  317POPC   C4B 4117   1.338   5.211   5.086  0.0604 -0.0530 -0.2802
  318POPC   NC3 4118   9.487   0.591   3.861  0.0427  0.4268  0.1876
  318POPC   PO4 4119   9.828   0.411   3.707 -0.1270  0.0197 -0.4747
  318POPC   GL1 4120   9.861   0.511   4.224 -0.1322 -0.2413 -0.0671
  318POPC   GL2 4121   9.858   0.302   4.255 -0.1175  0.0266  0.0019
  318POPC   C1A 4122   9.926   1.003   4.441 -0.2229 -0.1313 -0.0528
  318POPC   D2A 4123   9.622   1.248   4.698 -0.1078 -0.2510  0.1207
  318POPC   C3A 4124   9.542   1.153   5.112  0.1750 -0.0011 -0.2882
  318POPC   C4A 4125   9.749   1.460   5.293  0.0531 -0.1261 -0.3052
  318POPC   C1B 4126   9.649   0.092   4.619  0.2396  0.1332 -0.2389
  318POPC   C2B 4127   9.653   0.142   5.064  0.2190 -0.1869 -0.0174
  318POPC   C3B 4128   9.686  -0.123   5.403 -0.4610 -0.5264 -0.1600
  318POPC   C4B 4129   9.549  -0.116   5.790  0.0667 -0.1594 -0.0694
  319POPC   NC3 4130   1.258   2.353   3.638  0.2398 -0.0258  0.0743
  319POPC   PO4 4131   1.129   1.963   3.550  0.1651 -0.0275 -0.0419
  319POPC   GL1 4132   0.936   1.965   3.985 -0.4598 -0.0634 -0.1236
  319POPC   GL2 4133   0.628   1.848   4.182 -0.2249  0.2681  0.0456
  319POPC   C1A 4134   0.808   2.284   4.320  0.1469  0.0760 -0.0273
  319POPC   D2A 4135   0.628   2.690   4.581 -0.1370 -0.2824  0.1294
  319POPC   C3A 4136   0.631   2.924   4.996  0.0188  0.1119  0.0162
  319POPC   C4A 4137   0.594   3.015   5.547 -0.1947 -0.2340  0.0940
  319POPC   C1B 4138   0.516   1.866   4.626 -0.0050  0.0467  0.1959
  319POPC   C2B 4139   0.847   1.795   4.992  0.1008 -0.1989 -0.0067
  319POPC   C3B 4140   1.320   1.721   4.882  0.4759  0.0325  0.1422
  319POPC   C4B 4141   1.729   1.929   4.909  0.1673  0.0164  0.5477
  320POPC   NC3 4142   9.293  10.586   3.765  0.0423 -0.1978 -0.0483
  320POPC   PO4 4143   9.640  10.354   3.860  0.0673 -0.0777 -0.1019
  320POPC   GL1 4144   9.425  10.137   4.261  0.2774  0.0971 -0.1498
  320POPC   GL2 4145   9.751  10.012   4.437  0.2041 -0.4474  0.4970
  320POPC   C1A 4146   9.248  10.079   4.623 -0.1440 -0.0177  0.0796
  320POPC   D2A 4147   9.164  10.259   4.988  0.1777 -0.3222 -0.0808
  320POPC   C3A 4148   8.813  10.514   4.817 -0.1480 -0.1301  0.1013
  320POPC   C4A 4149   8.482  10.838   4.833 -0.0378 -0.0566  0.3982
  320POPC   C1B 4150   9.752  10.443   4.494 -0.1114  0.0448  0.1673
  320POPC   C2B 4151   9.693  10.510   4.961 -0.1017 -0.0706 -0.2643
  320POPC   C3B 4152   9.620  10.162   5.195  0.0143  0.2932 -0.1064
  320POPC   C4B 4153   9.831   9.990   5.470  0.2367  0.0402 -0.4042
  321POPC   NC3 4154   2.890   0.910   3.289  0.1547 -0.1358  0.1032
  321POPC   PO4 4155   2.753   0.475   3.451 -0.1365 -0.1533 -0.1177
  321POPC   GL1 4156   2.853   0.338   3.807 -0.1948  0.0451 -0.1080
  321POPC   GL2 4157   3.307   0.319   3.831 -0.0855 -0.1801 -0.1718
  321POPC   C1A 4158   2.644   0.149   4.108 -0.0410 -0.1363  0.0918
  321POPC   D2A 4159   2.275   0.187   4.420 -0.1185  0.1967  0.0005
  321POPC   C3A 4160   2.269   0.530   4.721 -0.1611  0.3286 -0.4681
  321POPC   C4A 4161   1.862   0.833   4.722  0.0688 -0.3859 -0.0642
  321POPC   C1B 4162   3.190   0.409   4.223  0.5294 -0.0099  0.1631
  321POPC   C2B 4163   3.144   0.545   4.585 -0.1287 -0.3319  0.2957
  321POPC   C3B 4164   3.247   0.530   5.121 -0.0547 -0.0367  0.1592
  321POPC   C4B 4165   3.383   0.656   5.427 -0.0514 -0.0341  0.0284
  322POPC   NC3 4166   0.579   9.628   3.465 -0.1337  0.0381  0.0912
  322POPC   PO4 4167   0.473   9.237   3.382 -0.1657 -0.2310 -0.0894
  322POPC   GL1 4168   0.268   9.308   3.780 -0.4671 -0.0741 -0.0064
  322POPC   GL2 4169   0.268   9.613   3.886  0.2176 -0.0415 -0.0669
  322POPC   C1A 4170   0.181   9.218   4.246 -0.1394 -0.1105  0.0868
  322POPC   D2A 4171   0.169   9.251   4.680  0.4301  0.2008 -0.4996
  322POPC   C3A 4172  -0.137   9.454   4.872  0.3237 -0.0590  0.1351
  322POPC   C4A 4173  -0.291   9.598   5.288  0.1939  0.1421 -0.0614
  322POPC   C1B 4174  -0.089   9.751   4.115 -0.0209  0.4569 -0.0493
  322POPC   C2B 4175  -0.214   9.815   4.532 -0.0861  0.1303  0.1656
  322POPC   C3B 4176  -0.331  10.038   4.881  0.0797 -0.3484  0.2663
  322POPC   C4B 4177  -0.151  10.030   5.397 -0.1431 -0.0167 -0.1201
  323POPC   NC3 4178   1.532   4.946   3.450  0.0356 -0.2373  0.1783
  323POPC   PO4 4179   1.168   4.747   3.361  0.1154  0.1630  0.0808
  323POPC   GL1 4180   1.086   4.841   3.836  0.2714  0.3101  0.1252
  323POPC   GL2 4181   0.816   4.598   3.983  0.1421 -0.3418  0.2418
  323POPC   C1A 4182   1.260   5.151   4.135 -0.0387 -0.2639 -0.2912
  323POPC   D2A 4183   1.590   5.411   4.309  0.1722 -0.1020  0.1394
  323POPC   C3A 4184   2.011   5.456   4.156  0.0697 -0.2199  0.2551
  323POPC   C4A 4185   2.212   5.873   4.082 -0.2626  0.4180  0.2204
  323POPC   C1B 4186   0.658   4.386   4.403  0.2650  0.0871  0.4672
  323POPC   C2B 4187   0.537   4.182   4.677  0.1638 -0.1147 -0.0878
  323POPC   C3B 4188   0.321   4.208   5.091 -0.3811  0.4674  0.4454
  323POPC   C4B 4189   0.060   3.918   5.224 -0.1853  0.1169 -0.0842
  324POPC   NC3 4190   6.646   0.754   3.823  0.3124  0.0054 -0.0699
  324POPC   PO4 4191   7.212   0.826   3.844 -0.0582  0.0223  0.3033
  324POPC   GL1 4192   7.412   0.764   4.114  0.0840  0.1287  0.0003
  324POPC   GL2 4193   7.695   0.851   4.225  0.3241  0.1058  0.1775
  324POPC   C1A 4194   7.312   0.774   4.493 -0.2430  0.2470 -0.0277
  324POPC   D2A 4195   7.374   0.769   4.974  0.0322  0.2778 -0.0627
  324POPC   C3A 4196   7.208   1.159   5.319  0.1150  0.0721  0.1275
  324POPC   C4A 4197   7.198   1.378   5.594  0.0421  0.4974  0.0368
  324POPC   C1B 4198   7.754   0.798   4.675 -0.1895  0.0138 -0.2637
  324POPC   C2B 4199   7.917   0.852   5.005  0.1757  0.2145 -0.0159
  324POPC   C3B 4200   8.183   0.759   5.317 -0.1672 -0.1067 -0.2887
  324POPC   C4B 4201   8.186   0.797   5.789 -0.0708  0.0312  0.4461
  325POPC   NC3 4202   8.657   0.405   3.767  0.1208 -0.2843 -0.2633
  325POPC   PO4 4203   8.932   0.798   3.883 -0.0005 -0.1601  0.1651
  325POPC   GL1 4204   9.059   0.847   4.293 -0.0639 -0.0417  0.0497
  325POPC   GL2 4205   9.446   0.917   4.254 -0.1016  0.3566 -0.0429
  325POPC   C1A 4206   9.058   0.897   4.780 -0.0879 -0.0903  0.0896
  325POPC   D2A 4207   9.048   0.729   5.111  0.1287 -0.0310 -0.3029
  325POPC   C3A 4208   9.252   0.933   5.476  0.2579  0.0860  0.2487
  325POPC   C4A 4209   9.483   1.169   5.695 -0.0806 -0.2431 -0.0121
  325POPC   C1B 4210   9.531   0.712   4.626 -0.1418  0.0876 -0.0673
  325POPC   C2B 4211   9.835   0.614   4.788  0.0312 -0.1107 -0.2162
  325POPC   C3B 4212  10.250   0.829   4.760  0.1213  0.1022  0.0440
  325POPC   C4B 4213  10.617   1.130   4.951 -0.1803  0.0482 -0.2103
  326POPC   NC3 4214   0.969   7.593   2.654  0.0418 -0.1923 -0.0338
  326POPC   PO4 4215   0.822   7.311   3.002  0.1430 -0.2210 -0.1610
  326POPC   GL1 4216   0.739   7.280   3.423 -0.0763 -0.1334  0.1369
  326POPC   GL2 4217   0.483   7.204   3.481  0.1454  0.0531  0.3107
  326POPC   C1A 4218   0.725   7.455   3.882  0.1241  0.0274 -0.2750
  326POPC   D2A 4219   0.766   7.346   4.143 -0.1051  0.0925  0.1063
  326POPC   C3A 4220   0.532   7.296   4.559  0.0545 -0.1535 -0.2640
  326POPC   C4A 4221   0.307   7.471   4.960 -0.0061  0.4239  0.0525
  326POPC   C1B 4222   0.301   7.057   3.806  0.1621 -0.0116 -0.1509
  326POPC   C2B 4223  -0.016   6.747   3.978  0.3621  0.3897  0.0604
  326POPC   C3B 4224  -0.179   6.662   4.415 -0.0962 -0.3392  0.0605
  326POPC   C4B 4225  -0.273   6.571   4.872  0.0498  0.1601  0.2740
  327POPC   NC3 4226   2.045   5.911   2.960 -0.2179  0.1110 -0.1609
  327POPC   PO4 4227   2.516   6.006   2.918  0.1263  0.2393  0.1074
  327POPC   GL1 4228   2.576   5.680   3.271 -0.0829  0.0727  0.0760
  327POPC   GL2 4229   2.432   5.772   3.644  0.2797 -0.0038 -0.3472
  327POPC   C1A 4230   2.951   5.659   3.613  0.1735  0.0574  0.2729
  327POPC   D2A 4231   3.211   5.967   3.728 -0.2424  0.0883  0.3736
  327POPC   C3A 4232   3.300   6.006   4.145  0.2300 -0.0028 -0.3331
  327POPC   C4A 4233   3.435   6.029   4.522  0.2654 -0.3280 -0.1897
  327POPC   C1B 4234   2.560   5.455   3.904  0.0067  0.1183  0.0201
  327POPC   C2B 4235   2.968   5.424   4.127 -0.1130 -0.1680 -0.1732
  327POPC   C3B 4236   3.056   5.594   4.437  0.0325 -0.1018 -0.2217
  327POPC   C4B 4237   3.053   5.754   4.846 -0.1908 -0.2221  0.0488
  328POPC   NC3 4238   8.940   5.295   3.109 -0.1560  0.0176 -0.1318
  328POPC   PO4 4239   8.953   4.869   3.342  0.1847  0.0266  0.0555
  328POPC   GL1 4240   9.067   4.822   3.815  0.0503 -0.1737  0.0895
  328POPC   GL2 4241   9.289   5.087   3.739  0.1571  0.2158 -0.0102
  328POPC   C1A 4242   8.798   4.738   4.313 -0.1208  0.0962 -0.0041
  328POPC   D2A 4243   8.776   4.726   4.771 -0.0054 -0.0778 -0.1894
  328POPC   C3A 4244   8.405   4.938   4.983  0.0247  0.1539  0.2335
  328POPC   C4A 4245   8.011   4.693   5.017  0.0298  0.2140  0.0769
  328POPC   C1B 4246   9.340   5.131   4.226  0.4206 -0.2426 -0.2035
  328POPC   C2B 4247   9.265   5.450   4.540  0.3284  0.2122 -0.0595
  328POPC   C3B 4248   9.143   5.621   4.927 -0.2643 -0.0417 -0.1009
  328POPC   C4B 4249   9.007   5.460   5.347  0.0284  0.3481  0.0464
  329POPC   NC3 4250   0.438   5.614   3.190 -0.2349 -0.2575 -0.2242
  329POPC   PO4 4251   0.903   5.712   3.169 -0.3080  0.2005 -0.0844
  329POPC   GL1 4252   0.713   5.993   3.380  0.0083  0.3090 -0.5192
  329POPC   GL2 4253   0.817   5.685   3.630  0.0737 -0.5062  0.0235
  329POPC   C1A 4254   0.464   5.995   3.814  0.0933  0.0304 -0.1544
  329POPC   D2A 4255   0.049   5.754   3.998  0.1491 -0.0865  0.1290
  329POPC   C3A 4256  -0.164   5.681   4.355 -0.0832  0.0636  0.1073
  329POPC   C4A 4257  -0.047   5.787   4.795  0.0525  0.0059 -0.2077
  329POPC   C1B 4258   0.961   5.484   3.964  0.2261 -0.2996  0.0077
  329POPC   C2B 4259   0.786   5.389   4.449  0.0509 -0.0464 -0.0609
  329POPC   C3B 4260   0.895   5.424   4.874  0.1536 -0.0631 -0.1610
  329POPC   C4B 4261   0.991   5.523   5.364 -0.0134  0.2606  0.0307
  330POPC   NC3 4262   6.889   7.639   3.377  0.1104  0.1320 -0.1023
  330POPC   PO4 4263   6.680   7.842   3.659 -0.0481 -0.2358  0.1141
  330POPC   GL1 4264   6.912   7.646   3.931  0.5052 -0.2677  0.1759
  330POPC   GL2 4265   7.168   7.843   4.099  0.0006  0.1362  0.3069
  330POPC   C1A 4266   6.965   7.332   4.151 -0.4337 -0.0836  0.1461
  330POPC   D2A 4267   6.928   7.110   4.502 -0.2505  0.1275 -0.0280
  330POPC   C3A 4268   6.493   7.049   4.711 -0.1651 -0.0397  0.3418
  330POPC   C4A 4269   6.500   7.008   5.194 -0.2888 -0.0497  0.0886
  330POPC   C1B 4270   6.927   7.919   4.399 -0.2537  0.1971 -0.1840
  330POPC   C2B 4271   6.920   7.978   4.890  0.1771  0.1507 -0.0881
  330POPC   C3B 4272   7.005   7.988   5.341  0.0688  0.3210 -0.1496
  330POPC   C4B 4273   6.785   7.796   5.685 -0.1731 -0.1268 -0.5422
  331POPC   NC3 4274  10.215   9.134   3.600  0.2446  0.0481 -0.1905
  331POPC   PO4 4275  10.408   8.691   3.644 -0.0392 -0.1367 -0.0246
  331POPC   GL1 4276  10.198   8.320   3.821 -0.0717  0.1663  0.0493
  331POPC   GL2 4277  10.140   8.504   4.034  0.0075 -0.2155 -0.0692
  331POPC   C1A 4278  10.362   8.056   4.186 -0.1720 -0.0420  0.0717
  331POPC   D2A 4279  10.461   7.909   4.590  0.1327  0.0719  0.0689
  331POPC   C3A 4280  10.207   7.477   4.475 -0.2950  0.0597 -0.3185
  331POPC   C4A 4281   9.903   7.265   4.601 -0.2620 -0.1738 -0.1583
  331POPC   C1B 4282  10.412   8.645   4.278 -0.0522 -0.1319 -0.0734
  331POPC   C2B 4283  10.635   8.811   4.529 -0.1573 -0.2504 -0.1578
  331POPC   C3B 4284  10.961   8.722   4.765  0.1473  0.3792  0.2310
  331POPC   C4B 4285  11.214   8.469   5.020 -0.2368  0.1222 -0.0367
  332POPC   NC3 4286   4.762   5.687   3.638 -0.0690  0.1416 -0.2289
  332POPC   PO4 4287   5.233   5.675   3.718  0.1926  0.0523  0.0078
  332POPC   GL1 4288   4.990   5.773   4.115 -0.2582 -0.2243  0.0665
  332POPC   GL2 4289   4.934   5.574   4.282  0.1618  0.0526  0.2173
  332POPC   C1A 4290   4.770   6.061   4.416  0.4395  0.0401 -0.0494
  332POPC   D2A 4291   4.682   6.105   4.875  0.1032 -0.0504 -0.1918
  332POPC   C3A 4292   4.999   6.330   5.057 -0.1592  0.1368 -0.2292
  332POPC   C4A 4293   5.410   6.322   5.270  0.2482  0.2860  0.0692
  332POPC   C1B 4294   4.767   5.665   4.681  0.1157  0.1928 -0.2085
  332POPC   C2B 4295   4.615   5.647   5.109  0.1267  0.3410  0.0725
  332POPC   C3B 4296   4.975   5.673   5.381  0.0974 -0.1375  0.2818
  332POPC   C4B 4297   5.225   5.860   5.694  0.0535 -0.0453 -0.3840
  333POPC   NC3 4298   0.290   6.989   3.060 -0.3383 -0.0058 -0.1564
  333POPC   PO4 4299   0.722   6.879   3.131 -0.0465  0.1912 -0.1157
  333POPC   GL1 4300   0.695   6.784   3.575  0.2125  0.4634  0.1678
  333POPC   GL2 4301   0.864   6.466   3.667  0.2812  0.0088 -0.0650
  333POPC   C1A 4302   0.883   6.967   3.799 -0.0986  0.2461  0.0278
  333POPC   D2A 4303   1.252   6.918   3.967  0.3067 -0.2972  0.2326
  333POPC   C3A 4304   1.282   6.825   4.322 -0.2182  0.0719 -0.1875
  333POPC   C4A 4305   1.177   6.665   4.776 -0.0043 -0.0045  0.0100
  333POPC   C1B 4306   0.993   6.526   4.053  0.2417  0.0952 -0.2195
  333POPC   C2B 4307   0.835   6.468   4.438  0.3492  0.2616 -0.3544
  333POPC   C3B 4308   0.670   6.434   4.898 -0.0230 -0.0212 -0.2447
  333POPC   C4B 4309   0.250   6.574   4.969  0.1362  0.2304  0.1366
  334POPC   NC3 4310   2.259   1.580   3.425 -0.0364 -0.2261 -0.2035
  334POPC   PO4 4311   2.075   1.977   3.406  0.0269 -0.0303  0.0176
  334POPC   GL1 4312   2.142   1.908   3.883 -0.2312  0.1963  0.0349
  334POPC   GL2 4313   2.249   2.205   4.029  0.2936 -0.5238 -0.0541
  334POPC   C1A 4314   1.847   1.790   4.111 -0.2850  0.0088 -0.1539
  334POPC   D2A 4315   1.494   1.916   4.409  0.0954  0.0036 -0.2305
  334POPC   C3A 4316   1.542   2.298   4.626 -0.3982 -0.0881 -0.3748
  334POPC   C4A 4317   1.895   2.541   4.727  0.0669  0.0970 -0.4699
  334POPC   C1B 4318   2.133   2.153   4.518  0.1265  0.0829  0.1578
  334POPC   C2B 4319   2.206   2.199   4.855 -0.3178 -0.0152 -0.1228
  334POPC   C3B 4320   2.067   1.965   5.287  0.0212  0.0792 -0.1016
  334POPC   C4B 4321   2.328   1.868   5.707 -0.2359  0.0765 -0.0202
  335POPC   NC3 4322   5.556   2.231   4.093 -0.2455 -0.3133  0.0770
  335POPC   PO4 4323   5.516   1.873   3.819 -0.1232  0.2037  0.2979
  335POPC   GL1 4324   5.336   1.741   4.129 -0.1454  0.3011 -0.2901
  335POPC   GL2 4325   5.520   1.788   4.401  0.1219  0.0834 -0.1622
  335POPC   C1A 4326   5.009   1.893   4.419  0.0411  0.2884 -0.0288
  335POPC   D2A 4327   4.625   1.825   4.766 -0.1232 -0.3858 -0.1284
  335POPC   C3A 4328   4.476   1.446   4.972 -0.0176 -0.1364 -0.1866
  335POPC   C4A 4329   4.168   1.241   5.017 -0.0488  0.0302 -0.0636
  335POPC   C1B 4330   5.597   1.791   4.789  0.0915 -0.0832  0.0207
  335POPC   C2B 4331   5.741   1.759   5.165  0.1190  0.0542  0.1537
  335POPC   C3B 4332   5.975   1.823   5.505  0.2031 -0.1198  0.2255
  335POPC   C4B 4333   6.326   1.909   5.697  0.0099 -0.0095  0.1178
  336POPC   NC3 4334   3.768   8.766   3.499 -0.1348  0.1195 -0.2976
  336POPC   PO4 4335   4.131   8.631   3.563 -0.4048 -0.3049  0.2734
  336POPC   GL1 4336   4.194   8.688   4.009  0.4205  0.1220 -0.0267
  336POPC   GL2 4337   4.449   8.872   4.208 -0.0026  0.1829  0.3736
  336POPC   C1A 4338   4.068   8.604   4.474  0.1055  0.2538  0.2462
  336POPC   D2A 4339   4.348   8.488   4.804 -0.1259 -0.0115  0.0912
  336POPC   C3A 4340   4.603   8.692   5.020 -0.0313  0.1424 -0.1433
  336POPC   C4A 4341   4.871   8.717   5.392 -0.1409 -0.0257 -0.2711
  336POPC   C1B 4342   4.489   9.075   4.638 -0.0245 -0.0730  0.2327
  336POPC   C2B 4343   4.522   9.325   5.043  0.1294 -0.0909  0.1191
  336POPC   C3B 4344   4.728   9.514   5.434 -0.0785 -0.0342 -0.1789
  336POPC   C4B 4345   4.749   9.857   5.798  0.0182 -0.1197  0.0558
  337POPC   NC3 4346   7.153   4.221   3.283  0.4806 -0.1449 -0.0078
  337POPC   PO4 4347   7.229   3.802   3.505  0.3051  0.2155 -0.0294
  337POPC   GL1 4348   7.059   3.720   3.951  0.0061  0.1947 -0.2249
  337POPC   GL2 4349   7.295   3.422   4.135  0.0766  0.0652 -0.2682
  337POPC   C1A 4350   6.854   3.906   4.250 -0.0514 -0.2939 -0.1120
  337POPC   D2A 4351   6.803   4.161   4.678  0.0333  0.0313  0.1519
  337POPC   C3A 4352   6.441   4.442   4.713 -0.3885 -0.3575  0.0045
  337POPC   C4A 4353   6.070   4.654   4.688 -0.0673 -0.0505  0.1974
  337POPC   C1B 4354   7.780   3.367   4.162 -0.0387 -0.2876  0.2670
  337POPC   C2B 4355   8.222   3.567   4.441  0.2229 -0.0066  0.0308
  337POPC   C3B 4356   8.413   3.413   4.892  0.0343  0.2193  0.1079
  337POPC   C4B 4357   8.398   3.473   5.373 -0.2420 -0.1995  0.0046
  338POPC   NC3 4358   1.252   8.680   3.028 -0.2357 -0.3473 -0.2386
  338POPC   PO4 4359   1.004   8.385   3.208  0.0282 -0.1001 -0.0209
  338POPC   GL1 4360   0.900   8.145   3.617 -0.0114  0.0020  0.2443
  338POPC   GL2 4361   0.842   7.772   3.549 -0.0272 -0.1649  0.0583
  338POPC   C1A 4362   0.561   7.884   3.970  0.0905 -0.0182  0.2549
  338POPC   D2A 4363   0.576   7.808   4.407  0.0365  0.1530 -0.0782
  338POPC   C3A 4364   1.006   7.717   4.404 -0.1811 -0.2313 -0.0332
  338POPC   C4A 4365   1.445   7.820   4.316  0.1309 -0.0142 -0.4793
  338POPC   C1B 4366   1.151   7.729   3.884 -0.0022  0.4067 -0.2537
  338POPC   C2B 4367   1.314   7.391   4.219  0.0673 -0.1798  0.4709
  338POPC   C3B 4368   1.082   7.258   4.609 -0.2836  0.1048 -0.0730
  338POPC   C4B 4369   0.890   7.054   4.936 -0.1841  0.5485  0.2639
  339POPC   NC3 4370   9.725   1.945   3.352  0.0724 -0.0903  0.0202
  339POPC   PO4 4371   9.430   2.153   3.636 -0.0097  0.0252  0.1284
  339POPC   GL1 4372   9.528   2.021   4.097 -0.4318  0.0625  0.1200
  339POPC   GL2 4373   9.384   2.166   4.225 -0.0402 -0.1541  0.0943
  339POPC   C1A 4374   9.929   2.141   4.385  0.0320 -0.0591 -0.2111
  339POPC   D2A 4375  10.274   2.033   4.561  0.3485  0.3572  0.2338
  339POPC   C3A 4376  10.376   2.268   4.742  0.1301 -0.2346  0.0400
  339POPC   C4A 4377  10.741   2.496   5.054  0.1052  0.0565  0.1428
  339POPC   C1B 4378   9.486   2.377   4.653 -0.1113  0.2278  0.3727
  339POPC   C2B 4379   9.382   2.577   4.984 -0.1652 -0.0928 -0.0467
  339POPC   C3B 4380   9.267   2.624   5.453  0.2190  0.0660  0.1855
  339POPC   C4B 4381   9.509   2.366   5.769 -0.2078  0.0943 -0.0585
  340POPC   NC3 4382   5.477   9.229   3.364  0.1776  0.1546  0.0840
  340POPC   PO4 4383   5.243   9.614   3.343 -0.0855  0.1007  0.1144
  340POPC   GL1 4384   5.118   9.448   3.557  0.1052 -0.3635 -0.0797
  340POPC   GL2 4385   4.958   9.770   3.777 -0.2205 -0.0997  0.1872
  340POPC   C1A 4386   5.278   9.467   3.949 -0.0685 -0.0207  0.0654
  340POPC   D2A 4387   5.337   9.338   4.414 -0.1254  0.0844  0.0751
  340POPC   C3A 4388   5.018   9.300   4.737  0.0197 -0.0875  0.0460
  340POPC   C4A 4389   5.002   9.189   5.158 -0.0850 -0.2332  0.2104
  340POPC   C1B 4390   5.159   9.945   4.230 -0.0567  0.0717 -0.0297
  340POPC   C2B 4391   5.328   9.733   4.702  0.0960 -0.0422  0.1312
  340POPC   C3B 4392   5.198   9.801   5.098 -0.0536 -0.0264 -0.1129
  340POPC   C4B 4393   5.368   9.604   5.509  0.3449  0.2311 -0.0872
  341POPC   NC3 4394   5.991   1.035   4.174 -0.3159 -0.2705  0.3288
  341POPC   PO4 4395   6.402   1.166   3.987  0.3477 -0.2240 -0.2586
  341POPC   GL1 4396   6.449   1.451   4.423  0.2035  0.1047  0.1772
  341POPC   GL2 4397   6.379   1.660   4.368  0.1168  0.0144  0.0785
  341POPC   C1A 4398   6.591   1.546   4.774  0.0865  0.1374 -0.0519
  341POPC   D2A 4399   6.624   1.770   5.160 -0.0404  0.0864  0.1116
  341POPC   C3A 4400   6.301   2.011   5.144  0.1937 -0.2143 -0.1548
  341POPC   C4A 4401   6.195   2.388   5.402 -0.0081 -0.1252  0.0470
  341POPC   C1B 4402   6.808   1.949   4.593 -0.0752  0.0020  0.1708
  341POPC   C2B 4403   6.784   2.150   4.922  0.3307  0.2280  0.1920
  341POPC   C3B 4404   6.676   2.236   5.399  0.1014  0.0362 -0.1089
  341POPC   C4B 4405   6.610   2.376   5.809 -0.0539  0.1158  0.1024
  342W        W 4406   0.950   3.629   1.443  0.3562  0.1500  0.1129
  343W        W 4407  10.463   4.766   9.740  0.0612  0.0721  0.0136
  344W        W 4408   0.448   8.705   0.732 -0.0107  0.0580  0.0941
  345W        W 4409  10.410   8.432   7.899 -0.0139  0.0793  0.3110
  346W        W 4410   1.613   4.992  10.711 -0.4386  0.3872  0.0228
  347W        W 4411   5.855   1.535  10.104 -0.0162  0.1626 -0.0878
  348W        W 4412   3.012   0.650   0.578 -0.2568 -0.2820  0.2816
  349W        W 4413   1.337   9.834   1.713  0.2734  0.0620  0.1616
  350W        W 4414   9.804   5.025   7.553  0.0952 -0.0972  0.2783
  351W        W 4415   8.649   2.408   8.818  0.0220 -0.0458 -0.1559
  352W        W 4416   7.975   1.830   0.072 -0.3619 -0.0880 -0.0434
  353W        W 4417   6.501   5.842   1.284 -0.0475 -0.0250  0.1461
  354W        W 4418   1.272  10.034   8.661  0.4355 -0.0661 -0.0002
  355W        W 4419   3.933   6.744   9.246  0.0357 -0.2661  0.0738
  356W        W 4420  10.314   4.378   8.589  0.0360 -0.1185 -0.1161
  357W        W 4421   5.305   3.094  10.463  0.2408 -0.1963 -0.1282
  358W        W 4422   3.189   9.833   2.054  0.3010 -0.2084 -0.1384
  359W        W 4423   5.137   4.169   1.553 -0.0270 -0.2449  0.2459
  360W        W 4424   9.716   7.867   8.584 -0.0563 -0.0497  0.1277
  361W        W 4425   6.461   1.760   0.840 -0.0942  0.3195  0.0394
  362W        W 4426   6.648   9.635   1.764  0.0323 -0.3217  0.0785
  363W        W 4427   6.703   4.225  10.600  0.1308 -0.0351 -0.0038
  364W        W 4428   2.401   4.994   1.215  0.1476  0.0565 -0.2810
  365W        W 4429   8.757   0.893   3.352  0.1505 -0.2430 -0.0434
  366W        W 4430   8.668   2.903  10.509  0.2275  0.1508  0.2353
  367W        W 4431   7.136   6.887   3.239  0.0877 -0.1088 -0.2007
  368W        W 4432   0.107   0.473   3.011  0.1223 -0.5466  0.0721
  369W        W 4433  10.332   1.013   1.094 -0.0259  0.1062  0.1916
  370W        W 4434   5.673   6.579   9.995 -0.3702 -0.0671  0.1141
  371W        W 4435   6.971   2.839   9.049 -0.1184  0.0862 -0.3966
  372W        W 4436   3.250   4.161  10.298  0.3583 -0.1237 -0.0677
  373W        W 4437   7.001   1.760   1.804 -0.0010  0.1053  0.4222
  374W        W 4438   2.501  10.818   9.639 -0.1920 -0.0212 -0.1058
  375W        W 4439  10.816   2.075   3.111  0.2578  0.1457  0.0175
  376W        W 4440   7.296   2.002  10.474  0.0587 -0.1019 -0.2849
  377W        W 4441   0.393   8.977   1.444  0.1442 -0.2383  0.1135
  378W        W 4442   3.154   5.980   0.476  0.0508  0.1044  0.1925
  379W        W 4443   9.812   7.422   9.792  0.1212 -0.0562  0.2309
  380W        W 4444   7.352   9.329   9.127  0.2528  0.0595  0.0773
  381W        W 4445   5.975   9.475   0.886  0.0642  0.2012  0.2534
  382W        W 4446   7.953   7.689   1.437 -0.2746  0.2020  0.2481
  383W        W 4447   2.948   1.765   7.925  0.4248 -0.2241  0.0899
  384W        W 4448   0.207   8.420   1.537 -0.1187 -0.0117  0.1597
  385W        W 4449   0.409   7.433   8.989  0.4523  0.1924  0.0814
  386W        W 4450   6.498   1.154  10.907  0.1197  0.0760 -0.0847
  387W        W 4451   7.210   6.093   7.709 -0.1231 -0.0012  0.0794
  388W        W 4452   6.748   8.706   9.379  0.0427  0.0152  0.1684
  389W        W 4453   6.465   3.948   1.723 -0.1665 -0.1840  0.0375
  390W        W 4454   8.483   5.350   2.875  0.0256  0.1099  0.0697
  391W        W 4455   4.922   9.106   3.294  0.0331 -0.2341  0.3259
  392W        W 4456   5.952   5.865   9.664  0.1880 -0.2148 -0.0829
  393W        W 4457   0.648   6.739   8.841 -0.0954 -0.5971 -0.1486
  394W        W 4458   3.160   2.009  10.518 -0.0130  0.0447 -0.1383
  395W        W 4459   8.572   0.204   2.661  0.1135 -0.2125  0.2852
  396W        W 4460   2.529   8.898   8.938  0.2960  0.0192 -0.0930
  397W        W 4461   4.197   9.202   1.177 -0.3902 -0.0183  0.0125
  398W        W 4462   8.705   3.915  10.656  0.2354 -0.0490  0.0521
  399W        W 4463   1.651   8.397   4.389  0.2068 -0.1200 -0.0808
  400W        W 4464   9.830   9.176   0.287 -0.0594 -0.0647 -0.1308
  401W        W 4465   1.924   2.090   1.403  0.0949  0.0483  0.1965
  402W        W 4466   6.228   1.661   2.529  0.0475 -0.1865 -0.1674
  403W        W 4467   5.270   2.605   2.608  0.0652 -0.0548 -0.3030
  404W        W 4468   2.137   8.641   1.156 -0.0080 -0.2740 -0.0905
  405W        W 4469   5.480   5.323   9.159  0.2854  0.1651  0.0324
  406W        W 4470   6.897   8.743   2.737  0.0404 -0.6385  0.1947
  407W        W 4471   3.951   5.942   8.707 -0.2076  0.0686 -0.1179
  408W        W 4472   7.977   5.998   0.242 -0.0654  0.0873  0.2449
  409W        W 4473  10.568   0.405   0.814 -0.0430  0.1737  0.5183
  410W        W 4474  10.681   5.661   7.592  0.1294  0.1336  0.2314
  411W        W 4475   6.022   8.718   7.920  0.2491  0.1674 -0.0929
  412W        W 4476  10.062   7.515   9.275  0.1011 -0.1702 -0.0189
  413W        W 4477   5.527   4.574   2.071  0.0770  0.1081  0.2733
  414W        W 4478   8.410   0.110   0.167 -0.1723 -0.0489  0.0573
  415W        W 4479   9.147   6.625   0.382  0.1652  0.3552  0.1470
  416W        W 4480   9.622   6.070   1.312  0.1056  0.0686 -0.0310
  417W        W 4481   9.094   4.743  10.766 -0.1313 -0.3274  0.1077
  418W        W 4482   0.883   6.486   1.339 -0.1250  0.2175  0.0162
  419W        W 4483   4.145   7.307   8.357 -0.2786  0.0904  0.2753
  420W        W 4484   2.522   0.237   1.022 -0.0722 -0.0028  0.2963
  421W        W 4485   0.409   4.674   2.252  0.2608  0.2462 -0.0134
  422W        W 4486   9.321   8.183   8.847 -0.1800 -0.1612 -0.4427
  423W        W 4487   6.506   8.277   8.562  0.1549 -0.2389 -0.1121
  424W        W 4488  10.516   0.607   8.190  0.3142 -0.2910  0.1518
  425W        W 4489   2.164   5.531   1.992  0.0191 -0.0063  0.3776
  426W        W 4490   1.140   0.574   2.045 -0.1659 -0.2189  0.0222
  427W        W 4491   8.451   4.932   9.041 -0.2763 -0.0119 -0.3306
  428W        W 4492   0.702   4.466   0.796  0.1727 -0.0925 -0.0076
  429W        W 4493   9.036   0.472   2.580 -0.2239  0.2154  0.0041
  430W        W 4494   9.238   2.136   3.129  0.3253  0.1593 -0.1112
  431W        W 4495   9.761   6.863   1.650 -0.3554  0.0675  0.1389
  432W        W 4496   0.551   7.928   1.463  0.2904 -0.0830 -0.0498
  433W        W 4497  10.160   8.921   9.203 -0.0452 -0.2134  0.1961
  434W        W 4498   8.711   5.732   8.775 -0.2356  0.2973 -0.2414
  435W        W 4499   2.836   6.642   2.184  0.4082 -0.1500  0.3035
  436W        W 4500   6.793   0.533   2.621  0.1524 -0.0730 -0.0082
  437W        W 4501   5.328   3.064  10.928  0.0773  0.1190  0.0056
  438W        W 4502   9.242   7.820  10.548 -0.0119 -0.0554 -0.2362
  439W        W 4503   2.556  10.707  10.651  0.0210 -0.3975  0.0781
  440W        W 4504   2.436   0.509   7.601 -0.0645  0.2140  0.1562
  441W        W 4505   9.307   9.796   1.211 -0.1777  0.4549 -0.1287
  442W        W 4506  10.456   2.930   0.521 -0.2466 -0.1945  0.1051
  443W        W 4507   1.026   8.693   7.489  0.1445  0.0083 -0.2468
  444W        W 4508   7.683   9.636   0.815  0.4078 -0.1050  0.0094
  445W        W 4509   2.859   3.043   2.729 -0.0659 -0.2954  0.0260
  446W        W 4510  10.267   4.899   7.445 -0.0732  0.2348 -0.3701
  447W        W 4511   0.104   9.397   7.918  0.1084  0.0252 -0.1155
  448W        W 4512   3.265  10.068   8.186  0.1503 -0.1746  0.1664
  449W        W 4513   1.354   7.734   7.145 -0.1657 -0.2307 -0.0056
  450W        W 4514   5.445   0.749   9.944  0.2441  0.0563  0.1177
  451W        W 4515   9.223  10.440  10.017 -0.1238  0.0889  0.1801
  452W        W 4516   4.522   8.543  10.996 -0.1405  0.0322 -0.0166
  453W        W 4517  10.180   6.124   2.469 -0.0056  0.1556 -0.1759
  454W        W 4518   3.382   9.122   2.544 -0.1121  0.0482 -0.3688
  455W        W 4519  10.498   1.545  10.435 -0.4150  0.4445 -0.2115
  456W        W 4520   1.306   5.339   3.621 -0.3977 -0.3371 -0.0726
  457W        W 4521   8.638   8.593   9.981 -0.3456 -0.0126 -0.1841
  458W        W 4522   3.333   5.255  10.827 -0.2291 -0.0551  0.2837
  459W        W 4523   0.201   4.645   3.104  0.0852 -0.1771  0.0917
  460W        W 4524   7.824   9.711   2.564 -0.0431  0.0666 -0.0217
  461W        W 4525   5.057   4.434  10.905  0.1595 -0.3116 -0.2266
  462W        W 4526   3.097   9.274   0.710 -0.0646  0.1357 -0.2987
  463W        W 4527   0.799   0.122   7.554 -0.0331 -0.0423 -0.3728
  464W        W 4528   1.187   0.987   9.916  0.3853  0.2033 -0.0100
  465W        W 4529   1.900   6.787   9.216 -0.0033 -0.1104 -0.4046
  466W        W 4530   2.843   4.300   8.819 -0.1231 -0.1753  0.0442
  467W        W 4531   7.170   5.323   9.941 -0.3320 -0.1518  0.1382
  468W        W 4532   0.810   9.168  10.872 -0.1314 -0.1764 -0.0284
  469W        W 4533   1.193   3.858   0.106  0.0841 -0.2360  0.0379
  470W        W 4534   2.983   5.583   1.463  0.1385  0.2892 -0.0731
  471W        W 4535  10.248   4.714  10.217  0.3385 -0.2180  0.0150
  472W        W 4536   8.693   8.929   9.098 -0.2255  0.1446 -0.0365
  473W        W 4537   0.050   0.456   9.915  0.0156  0.0424  0.2185
  474W        W 4538   8.323   4.371   8.930  0.4215  0.2473  0.1051
  475W        W 4539   9.786   4.549   2.273  0.1082  0.2750  0.3088
  476W        W 4540   1.600   9.869   9.435  0.0223 -0.2134 -0.0573
  477W        W 4541   5.210   1.866   8.166 -0.3690  0.0636 -0.1528
  478W        W 4542  10.407   1.335   1.750  0.2207 -0.2059 -0.2686
  479W        W 4543   4.137   2.902   2.409  0.1655 -0.0015  0.0484
  480W        W 4544   3.453   1.175  10.332 -0.0929 -0.0515  0.1291
  481W        W 4545   7.350   1.709   0.441 -0.1635 -0.1506 -0.1470
  482W        W 4546  10.342  10.040   9.886 -0.1054 -0.2058  0.0642
  483W        W 4547   0.112   5.928  10.927  0.1547  0.2164 -0.0860
  484W        W 4548   5.530   7.242   0.841 -0.4379  0.1649  0.1013
  485W        W 4549   2.186   9.287   2.143 -0.1391 -0.2423 -0.3043
  486W        W 4550   7.950   7.165   8.678 -0.0651  0.1840  0.4504
  487W        W 4551   7.626   9.235  10.476 -0.1617 -0.2072 -0.1812
  488W        W 4552   8.828   8.614   3.925  0.1381  0.2848 -0.1773
  489W        W 4553   1.595   0.447   9.842 -0.2037  0.1955  0.0670
  490W        W 4554  10.650   2.954  10.534  0.1553  0.2494  0.2418
  491W        W 4555   2.650   5.941   1.493  0.0517  0.0395  0.0975
  492W        W 4556   4.240   4.268  10.900 -0.0191 -0.1607 -0.2704
  493W        W 4557  10.237   5.332   2.392  0.0199 -0.0229  0.0943
  494W        W 4558   4.212   2.239   0.231  0.1117  0.2440 -0.3496
  495W        W 4559   7.993   8.299   2.525 -0.2084  0.1953 -0.1719
  496W        W 4560   0.576   6.683   0.995 -0.2400  0.1012  0.1723
  497W        W 4561   4.244   3.566   0.277 -0.0235 -0.1675 -0.0937
  498W        W 4562   4.374   0.651   1.033 -0.2795 -0.1601 -0.1887
  499W        W 4563   2.941   5.018   8.445 -0.0425 -0.0706  0.0319
  500W        W 4564   4.310   4.310   7.971  0.1564  0.0451 -0.3422
  501W        W 4565   5.103   6.137   9.461 -0.1436  0.0703 -0.2037
  502W        W 4566   5.700   2.878   2.452  0.4635 -0.2283 -0.3235
  503W        W 4567   7.844   7.242  10.795 -0.3349 -0.0218 -0.1091
  504W        W 4568   3.110   4.415   9.250 -0.1238  0.1894 -0.0248
  505W        W 4569   8.082   5.486   8.779  0.1728  0.0797  0.0313
  506W        W 4570   2.491  10.411   0.892 -0.0751 -0.0054  0.1515
  507W        W 4571  10.498   3.406   9.741  0.1245  0.1609  0.2657
  508W        W 4572   9.993   1.478  10.336 -0.2092 -0.0946  0.0716
  509W        W 4573   2.236   2.393   0.488 -0.1434 -0.0344 -0.1683
  510W        W 4574   4.755   6.548   3.510  0.1607  0.1013  0.1182
  511W        W 4575   9.941   8.658   0.184  0.1547  0.0058 -0.1632
  512W        W 4576   9.765   2.498   1.768 -0.1503  0.0057 -0.1396
  513W        W 4577   1.502   9.349   0.949 -0.1820 -0.0676 -0.1644
  514W        W 4578   4.736   2.545  10.980  0.0641 -0.5391 -0.2882
  515W        W 4579   1.607   2.620   0.665 -0.0840 -0.2260 -0.2652
  516W        W 4580   6.662   0.858   0.243  0.1523  0.0723 -0.2844
  517W        W 4581   3.026   9.331   2.936  0.3130 -0.0035 -0.2209
  518W        W 4582   9.444   2.392   1.103 -0.1720 -0.2556  0.0290
  519W        W 4583   2.927   1.903  10.004 -0.4144  0.0256  0.0085
  520W        W 4584   8.832   7.055   8.092 -0.1557 -0.1563  0.2196
  521W        W 4585   2.113   7.773  10.937  0.0025  0.1685  0.2162
  522W        W 4586   9.279   9.544   0.167  0.2396  0.0224 -0.1417
  523W        W 4587   2.831   3.175   1.884 -0.1074 -0.1218  0.1973
  524W        W 4588   0.692   4.554   3.147  0.0208  0.0501  0.1205
  525W        W 4589   7.926   1.488   9.751  0.3946 -0.3227  0.2794
  526W        W 4590   2.178   8.880   3.660 -0.0876 -0.1465 -0.0046
  527W        W 4591   6.751   4.765   1.258 -0.2163  0.2893  0.3973
  528W        W 4592   5.038   3.100   7.850 -0.2035 -0.0090 -0.1867
  529W        W 4593   8.415   4.846  10.514 -0.0284 -0.3936 -0.0634
  530W        W 4594   0.755   6.408   1.841 -0.1556 -0.1071 -0.3094
  531W        W 4595   8.213   7.471   1.083  0.0586  0.0537 -0.3606
  532W        W 4596   0.998   0.959   2.929  0.3766  0.0902  0.0523
  533W        W 4597   2.521   4.318   9.252 -0.0401  0.0128 -0.1927
  534W        W 4598   8.032   7.626   2.756  0.0209  0.0231 -0.4941
  535W        W 4599   4.930   5.840  10.377  0.1921 -0.2521  0.0232
  536W        W 4600   1.020   7.888  10.364 -0.1624 -0.1075  0.1616
  537W        W 4601   4.888   2.377   7.918 -0.1859  0.3875  0.0558
  538W        W 4602   0.798   6.695   0.525  0.0586  0.0020 -0.1130
  539W        W 4603  10.724   9.700   2.937 -0.0093 -0.1765 -0.2838
  540W        W 4604   2.962   8.285   9.563  0.2854 -0.1058  0.0882
  541W        W 4605   2.430   6.824   0.880  0.3036  0.1422 -0.0031
  542W        W 4606   8.614   0.178   1.814 -0.1874 -0.3956  0.1920
  543W        W 4607   9.907   0.583   1.564  0.1553  0.0756 -0.1237
  544W        W 4608   6.099   4.306   3.031  0.0991 -0.0469  0.1138
  545W        W 4609   2.161   0.708   1.719 -0.2881 -0.1255 -0.2691
  546W        W 4610   7.783   6.470   1.433  0.2609 -0.3086  0.0177
  547W        W 4611   8.531   6.792   8.460 -0.0807 -0.0485 -0.4306
  548W        W 4612   8.578   2.636  10.135  0.0370 -0.0791 -0.3026
  549W        W 4613   4.539   4.272   9.444 -0.2989 -0.2795 -0.0930
  550W        W 4614   3.307  10.032  10.904  0.0460  0.2545  0.4639
  551W        W 4615   7.518   3.515  10.482 -0.1480  0.0245  0.0942
  552W        W 4616   2.148   5.483   8.504  0.0863 -0.0438  0.2484
  553W        W 4617   3.731   7.332   1.095 -0.2213 -0.0296  0.3071
  554W        W 4618   7.970   8.275  10.392 -0.2806 -0.0880  0.2909
  555W        W 4619  10.713   9.379   0.589 -0.0501 -0.2603  0.0217
  556W        W 4620   6.831   5.838   7.945 -0.0171  0.0375 -0.0442
  557W        W 4621   1.824   3.050   7.260  0.0695 -0.2539 -0.3633
  558W        W 4622   0.478   7.671   8.477  0.1041 -0.1883  0.1781
  559W        W 4623   5.948   3.575  10.586  0.1747 -0.0307  0.0389
  560W        W 4624   2.050   6.643   2.526 -0.4188  0.1684  0.1970
  561W        W 4625   0.882   6.020   9.403  0.2991 -0.5203  0.0313
  562W        W 4626   9.564   8.205  10.283  0.0083  0.0533 -0.2311
  563W        W 4627  10.064   4.834   2.597  0.1108 -0.0554  0.1568
  564W        W 4628   9.570   1.563  10.102 -0.1291 -0.2167 -0.1794
  565W        W 4629   8.256  10.461   9.324 -0.4597  0.0496 -0.0904
  566W        W 4630   5.162   7.187   8.380  0.2706  0.0959 -0.1568
  567W        W 4631   0.135   4.727   0.565  0.0218  0.0534  0.1160
  568W        W 4632   0.336  10.721   2.354 -0.2419 -0.0555  0.2554
  569W        W 4633   0.004   9.911   9.783  0.4320 -0.1415 -0.0105
  570W        W 4634   6.863   0.718   9.535  0.0744  0.1195 -0.0263
  571W        W 4635   8.119   7.535   8.957  0.1550  0.1123 -0.0131
  572W        W 4636   3.093   5.678   9.307  0.2458  0.0109  0.5116
  573W        W 4637   3.227   5.671   9.873  0.0837  0.0403 -0.1357
  574W        W 4638   2.799   5.092   3.565  0.1078  0.0657  0.3459
  575W        W 4639   5.488  10.420  10.092 -0.3257  0.1673  0.1150
  576W        W 4640   6.523   6.677   0.969  0.1830 -0.3411 -0.2753
  577W        W 4641   3.146   2.191   8.355 -0.0004  0.2170 -0.1521
  578W        W 4642   1.657   8.694   0.980 -0.2833 -0.4083  0.0597
  579W        W 4643   7.144   6.791   0.161  0.0331 -0.1933 -0.2336
  580W        W 4644   7.582   2.510   1.847  0.0820 -0.0650  0.2640
  581W        W 4645  10.304   8.237   9.804 -0.1335  0.0493  0.2266
  582W        W 4646   8.259   8.895   9.277  0.3334  0.0525 -0.1239
  583W        W 4647   6.028   7.071   1.693 -0.1500 -0.3442  0.0045
  584W        W 4648   6.611   1.368  10.352  0.1107 -0.0737  0.0631
  585W        W 4649   9.630   3.340   2.602 -0.2076  0.0180 -0.0307
  586W        W 4650  10.319   7.709   2.376 -0.0095 -0.1926 -0.1883
  587W        W 4651   0.671   8.636   9.612  0.1771 -0.3661 -0.0433
  588W        W 4652   7.637   1.002   1.531  0.2899 -0.3789  0.6785
  589W        W 4653   3.817   5.348   8.656  0.0305  0.1077  0.1688
  590W        W 4654   1.399   7.115  10.481  0.2638  0.1170  0.1718
  591W        W 4655   6.142   5.415   2.930  0.3788  0.1601 -0.2053
  592W        W 4656   5.308   7.067   9.435 -0.1490  0.0679  0.1024
  593W        W 4657   7.198  10.247   0.897 -0.2665  0.2888 -0.1470
  594W        W 4658   0.981   2.664   4.051  0.3306 -0.1174 -0.1454
  595W        W 4659   6.362   3.328  10.812  0.0933 -0.5663 -0.1890
  596W        W 4660  10.377   7.860   9.406  0.2425 -0.1741  0.0998
  597W        W 4661   6.190   1.595   8.168 -0.2543  0.3825  0.2194
  598W        W 4662   8.750   0.771   8.224  0.4707  0.2066  0.3504
  599W        W 4663   2.056   8.395  10.029 -0.1420  0.1529 -0.2569
  600W        W 4664   4.555   8.856   1.194  0.1673  0.0508  0.1180
  601W        W 4665   5.880   6.458   2.526  0.0911  0.2857  0.0588
  602W        W 4666   5.283   5.123   9.629  0.2365  0.0784 -0.1675
  603W        W 4667   1.687   1.182   7.187  0.3341 -0.2553  0.1537
  604W        W 4668   0.976   2.843   0.184  0.2932  0.2842 -0.2198
  605W        W 4669   0.275   3.974   9.831  0.1744  0.2194  0.0942
  606W        W 4670   3.633   9.145   9.037  0.2257 -0.2124  0.1420
  607W        W 4671   3.157   4.952   8.896  0.6404 -0.3047  0.0100
  608W        W 4672   7.653   8.618   2.801 -0.1334 -0.1359  0.3525
  609W        W 4673   4.735   5.003   2.461 -0.2072  0.1573 -0.1262
  610W        W 4674   8.554   3.662   3.576 -0.0853 -0.0658 -0.1015
  611W        W 4675   9.193   9.854   0.643  0.0246  0.1049  0.2248
  612W        W 4676   3.412   4.978   9.966  0.3933  0.0022  0.0745
  613W        W 4677   5.152   5.125   8.763 -0.0501  0.1386  0.0058
  614W        W 4678   6.738   1.062   8.626 -0.2123  0.0062  0.2919
  615W        W 4679   2.418   9.302   3.526  0.1978  0.0042  0.3042
  616W        W 4680   9.461   2.044   0.556  0.0279  0.1239  0.3085
  617W        W 4681   3.499   5.828   1.425 -0.0496  0.3284 -0.1472
  618W        W 4682   4.961   7.780   7.903 -0.0245 -0.3100 -0.0197
  619W        W 4683  10.359   4.927   1.397  0.1667 -0.2101 -0.3740
  620W        W 4684   6.299   7.731   2.100  0.1725  0.1671  0.1372
  621W        W 4685   7.807   2.828  10.084  0.0971  0.1407  0.0988
  622W        W 4686   9.776   5.878   0.911 -0.0830  0.2273 -0.2015
  623W        W 4687   6.347  10.209   3.226 -0.2554 -0.2446 -0.2824
  624W        W 4688   0.400   4.006   1.083  0.3217  0.2245  0.1395
  625W        W 4689  10.210   3.909   7.701 -0.3307  0.3418 -0.0372
  626W        W 4690   7.508  10.282   8.754 -0.0891  0.2695  0.0809
  627W        W 4691   7.613   1.807   7.323 -0.4421  0.0426  0.0597
  628W        W 4692  10.897   5.902   1.763  0.2423 -0.1392 -0.1811
  629W        W 4693   4.418  10.264   9.718  0.2603  0.2957  0.1937
  630W        W 4694   3.154   7.715  10.939  0.2291  0.2474  0.0969
  631W        W 4695   0.767   2.542   9.165  0.1534  0.1136  0.1357
  632W        W 4696   6.015   4.632   3.366  0.1690 -0.0372  0.1512
  633W        W 4697   8.071   2.496   3.867 -0.2748  0.0707 -0.3087
  634W        W 4698   8.257   4.362   2.653  0.0886  0.1911  0.0151
  635W        W 4699   5.368   5.788   1.921  0.1790 -0.0764  0.0230
  636W        W 4700   6.964   9.878   8.124 -0.1033  0.0924 -0.5508
  637W        W 4701   6.496   3.880   8.102  0.3149  0.1704 -0.0646
  638W        W 4702   0.210   7.836  10.923 -0.1376 -0.2491  0.2149
  639W        W 4703  10.034   1.771   0.069 -0.0067 -0.0393  0.1078
  640W        W 4704   3.012   7.644   7.719 -0.2102  0.0106  0.1014
  641W        W 4705   4.374   9.184   9.916  0.0743 -0.1857 -0.4938
  642W        W 4706   6.706   6.368   3.922  0.1154 -0.2749  0.0610
  643W        W 4707   4.376   3.712   0.903  0.3019 -0.2247  0.2587
  644W        W 4708   4.443   7.721   8.552 -0.0780 -0.0557  0.0605
  645W        W 4709  10.288   6.222  10.697  0.1725 -0.4103  0.0940
  646W        W 4710   3.886   1.736   7.907  0.0859 -0.3545  0.2417
  647W        W 4711   7.546   2.376   2.327  0.1309  0.0486 -0.0818
  648W        W 4712   5.012   9.007   0.926 -0.0239 -0.0144 -0.0594
  649W        W 4713   1.346   1.270   3.125 -0.0985  0.1879 -0.0987
  650W        W 4714   3.904   2.098   9.838  0.0359 -0.0811 -0.2653
  651W        W 4715   1.828   2.541   0.260 -0.2724  0.2707  0.2404
  652W        W 4716   7.285   3.754   9.337 -0.0788 -0.2293 -0.4102
  653W        W 4717  10.812   3.640   8.247  0.0240  0.1932  0.0046
  654W        W 4718   3.617   9.389   8.560  0.1488 -0.0429 -0.0010
  655W        W 4719   4.323   8.437   7.772  0.1648 -0.1474 -0.0661
  656W        W 4720   6.403   4.938   3.260 -0.2075 -0.0711  0.1382
  657W        W 4721   1.319   7.760   0.980  0.1391 -0.2742 -0.1752
  658W        W 4722   4.442   7.031   1.330 -0.1442 -0.1561 -0.3228
  659W        W 4723   5.795   2.136   8.681 -0.0325 -0.0998  0.0328
  660W        W 4724  10.689   6.951   6.954 -0.1797  0.0417 -0.4004
  661W        W 4725   1.164  10.248  10.103 -0.0409 -0.4505 -0.3872
  662W        W 4726  10.117   7.808  10.984  0.1142  0.3057  0.0108
  663W        W 4727   6.942   9.952   2.197 -0.2171 -0.1975  0.1029
  664W        W 4728   8.494   2.083   0.195  0.1662 -0.2098 -0.1322
  665W        W 4729   9.080   9.111  10.366 -0.3328  0.1743 -0.1270
  666W        W 4730   3.252   6.410   2.991  0.4046  0.2334 -0.0828
  667W        W 4731   3.315   7.621   0.944  0.1597 -0.0468 -0.0362
  668W        W 4732   7.092  10.377  10.189  0.0284  0.2688  0.0395
  669W        W 4733   5.443   2.856   1.047  0.0508 -0.3576 -0.0572
  670W        W 4734   6.934  10.428   8.112 -0.2394  0.1934  0.0766
  671W        W 4735   5.520   7.273  10.378 -0.0697  0.0367  0.0603
  672W        W 4736   3.770   1.524   8.508  0.1457 -0.1175 -0.1188
  673W        W 4737   8.308   1.587   7.531  0.1652  0.0796 -0.1269
  674W        W 4738   4.419   7.798   8.054  0.0209  0.1118  0.1544
  675W        W 4739   6.735   1.929  10.259 -0.1737 -0.2327 -0.1720
  676W        W 4740   2.287   8.401   3.719 -0.0463  0.3320  0.3002
  677W        W 4741   6.974   8.089   8.188 -0.1220 -0.4184  0.1168
  678W        W 4742   5.524   9.260   1.860  0.0671  0.1368  0.0048
  679W        W 4743   5.530   2.560   3.045  0.2608 -0.3180 -0.0073
  680W        W 4744   5.586   0.958   3.609 -0.1816 -0.6450 -0.2888
  681W        W 4745   8.643   2.487   9.589  0.0788 -0.0557 -0.0521
  682W        W 4746   0.114  10.449   1.084  0.0629 -0.1612  0.0266
  683W        W 4747   0.535   9.538   8.781 -0.0023  0.1242 -0.1926
  684W        W 4748   8.498   3.245   8.124  0.2184 -0.4430  0.1283
  685W        W 4749   7.821   5.912   8.951 -0.2843 -0.2448  0.0695
  686W        W 4750  10.760   4.099   1.112 -0.0762 -0.0461 -0.1926
  687W        W 4751   7.904   2.686   1.209 -0.0300  0.2551  0.0041
  688W        W 4752   0.309   3.413   0.214 -0.0141  0.4003 -0.2333
  689W        W 4753   1.362   0.373   3.283  0.1546 -0.1969 -0.2737
  690W        W 4754   5.997   1.960   0.971  0.2462  0.2388 -0.1388
  691W        W 4755   4.626   4.278   8.935  0.2113  0.1440  0.1546
  692W        W 4756  10.151   9.082   9.690 -0.0410  0.1094 -0.1846
  693W        W 4757   5.775   7.423   8.670  0.1553 -0.2333 -0.0443
  694W        W 4758  10.265   6.514   7.819  0.0516  0.1765  0.1703
  695W        W 4759   5.331   1.217   1.093 -0.1193 -0.0793 -0.0950
  696W        W 4760   7.750   9.766   8.221  0.1418 -0.2444  0.2447
  697W        W 4761   5.348   2.782   2.048  0.0549 -0.0798  0.0603
  698W        W 4762   9.190   3.447   3.394  0.1212 -0.0968 -0.1128
  699W        W 4763   7.146   0.222  10.816  0.1025  0.0392  0.3182
  700W        W 4764   2.002   8.264   0.233 -0.4113  0.0148 -0.1338
  701W        W 4765   8.426   7.655   3.619  0.0709 -0.0717 -0.0233
  702W        W 4766   1.223   0.541   8.511  0.0009 -0.1763  0.2780
  703W        W 4767   0.394   8.069   7.677  0.0063  0.1490  0.0066
  704W        W 4768   5.479   1.519   1.445  0.1690 -0.1708 -0.1633
  705W        W 4769   0.442   1.720   9.232 -0.0384 -0.2370  0.0072
  706W        W 4770   2.537   1.990  10.321 -0.3417 -0.1383  0.1838
  707W        W 4771   9.806   2.437   3.005 -0.0377  0.0542  0.1002
  708W        W 4772   8.537   8.562   8.828  0.1156 -0.1813 -0.3024
  709W        W 4773   1.799   3.046  10.490 -0.1661 -0.0214  0.4794
  710W        W 4774   7.835   9.916   7.657 -0.1385 -0.3265  0.1314
  711W        W 4775   1.970   3.673   3.130  0.2143  0.0749  0.2440
  712W        W 4776   8.688   3.807  10.162 -0.0629  0.2545  0.3896
  713W        W 4777   4.811   2.205   0.234  0.4324  0.0573 -0.2151
  714W        W 4778   6.018   2.990   9.815 -0.3178 -0.2290  0.0445
  715W        W 4779   5.954   5.390   0.172 -0.0153 -0.1487  0.3187
  716W        W 4780   0.782   4.211  11.036  0.0787  0.2522  0.0499
  717W        W 4781   5.477   2.318   9.704  0.1677  0.1435  0.1935
  718W        W 4782   8.238   7.296  10.458  0.2460  0.0621 -0.1922
  719W        W 4783   1.772   7.391   7.680 -0.2778 -0.0851 -0.0505
  720W        W 4784   2.758   8.774   6.799 -0.0394 -0.1485  0.0921
  721W        W 4785   6.025   3.321   1.146  0.0947  0.1211 -0.0557
  722W        W 4786   3.930  10.433   9.826  0.2226 -0.2006  0.4550
  723W        W 4787   4.720   7.603  10.883 -0.2828  0.4063  0.0110
  724W        W 4788   1.396   7.829   2.008 -0.2588  0.2166 -0.0839
  725W        W 4789   8.843   9.456  10.982  0.1602  0.1577 -0.0517
  726W        W 4790   1.658   3.122   3.859 -0.1520 -0.0916 -0.0228
  727W        W 4791   3.614   8.054   0.873 -0.0183  0.0275 -0.0798
  728W        W 4792   1.745   4.004   1.931 -0.0846  0.0365  0.1662
  729W        W 4793   5.942   1.296   3.707 -0.2569 -0.1631  0.0159
  730W        W 4794   1.706   8.527  10.972 -0.1153 -0.0294 -0.0567
  731W        W 4795   8.902   0.059   2.163 -0.2110 -0.4323  0.1406
  732W        W 4796   2.511  10.138   0.457  0.1343 -0.2462  0.2070
  733W        W 4797  10.512   0.475  10.833  0.3389 -0.1144 -0.0429
  734W        W 4798   8.620   5.046   8.236  0.0123  0.2254  0.1933
  735W        W 4799   8.606   7.267   0.374 -0.2190  0.2031  0.1202
  736W        W 4800   5.664   8.216   1.075  0.1756 -0.1942  0.1154
  737W        W 4801   9.702   9.507   0.989 -0.1165 -0.1065 -0.0063
  738W        W 4802   2.052   1.530   0.053 -0.1923 -0.2854 -0.1648
  739W        W 4803   4.695   6.797   8.166  0.1948 -0.0519 -0.0002
  740W        W 4804   6.990  10.481   8.605 -0.2812 -0.0663 -0.0514
  741W        W 4805   5.824  10.464   1.405 -0.0335  0.1560  0.1945
  742W        W 4806   8.614   9.434   1.407 -0.2728  0.1744 -0.4768
  743W        W 4807   5.887   1.233   8.729  0.0291  0.0488 -0.1460
  744W        W 4808   8.605   6.977  10.432 -0.1122  0.0685 -0.0162
  745W        W 4809   8.279   9.640   2.265 -0.0284 -0.1265 -0.0752
  746W        W 4810   9.733   8.704  10.069  0.0608  0.0848  0.0493
  747W        W 4811   0.908   4.315   9.466  0.1907  0.0756 -0.1439
  748W        W 4812   2.108   8.121   7.978 -0.2829  0.2756  0.1724
  749W        W 4813   6.233   9.505   1.320  0.0126 -0.0017  0.2599
  750W        W 4814  10.690   5.499   2.507 -0.0607  0.1888 -0.1397
  751W        W 4815   6.327   1.379   1.192 -0.0780  0.2202 -0.1901
  752W        W 4816  10.277   2.341   1.641  0.0023  0.1694 -0.1136
  753W        W 4817   5.001   1.603   9.473  0.2973 -0.3686  0.0317
  754W        W 4818   5.065   5.056   8.292 -0.2705  0.0226 -0.0299
  755W        W 4819   1.577   9.390   7.876 -0.1818  0.1612 -0.5549
  756W        W 4820   9.272   4.072   3.294  0.0655  0.3871  0.1212
  757W        W 4821   1.535   2.651  10.450 -0.2545 -0.0604  0.0277
  758W        W 4822   0.835   1.745   9.772  0.0350 -0.2392 -0.2444
  759W        W 4823   6.551   2.673   7.679  0.0230  0.1927  0.2891
  760W        W 4824   9.670   9.564   0.506 -0.0580  0.1628 -0.1720
  761W        W 4825   5.668   7.740  10.426  0.1394 -0.0111 -0.1872
  762W        W 4826   9.656   6.997   6.967 -0.1237 -0.1658  0.1209
  763W        W 4827   2.800   6.952   9.911  0.0390  0.2941 -0.1214
  764W        W 4828   8.406   6.833   1.010  0.1642  0.0708  0.2434
  765W        W 4829   0.304   7.643   2.209 -0.0810 -0.2457 -0.0534
  766W        W 4830   3.649   3.825  10.363  0.3987  0.1899 -0.1641
  767W        W 4831   8.332   3.181   1.218 -0.2927  0.6032  0.1967
  768W        W 4832   7.000   6.503   1.839 -0.1317 -0.1205  0.0794
  769W        W 4833   6.459   8.461  10.357  0.4241 -0.4428  0.1589
  770W        W 4834   2.516   9.710  11.040 -0.0377 -0.0870  0.1122
  771W        W 4835   6.406   3.803  10.335  0.1261 -0.0081 -0.2658
  772W        W 4836   4.189   6.543   8.392 -0.0178  0.2082 -0.2709
  773W        W 4837   7.365   0.666  10.853 -0.3511  0.3039 -0.1991
  774W        W 4838   6.884   1.360   2.103 -0.5427  0.0939  0.3540
  775W        W 4839   8.580   8.889  10.923  0.2708 -0.3632 -0.0413
  776W        W 4840   8.514   1.094   0.478 -0.1198 -0.3310 -0.0272
  777W        W 4841  10.607   8.568   0.310  0.0969 -0.3095 -0.1676
  778W        W 4842  10.423   5.305   1.114 -0.1091 -0.3556 -0.1745
  779W        W 4843   7.321   5.394   9.272 -0.3412  0.1540 -0.3711
  780W        W 4844   9.010  10.659  10.773 -0.0345  0.0451  0.3053
  781W        W 4845   0.190   2.742   2.626 -0.0473 -0.1281  0.2033
  782W        W 4846   2.607   3.630   0.408 -0.3859  0.0397 -0.1561
  783W        W 4847   5.045   9.776   2.039  0.1585  0.0066 -0.3697
  784W        W 4848   6.356   8.789   3.942 -0.3453  0.1601 -0.2896
  785W        W 4849   3.332   8.697  11.052  0.3057  0.1316  0.2422
  786W        W 4850  10.039   0.139   2.606  0.0597  0.1321 -0.0090
  787W        W 4851   7.571   4.717   1.702 -0.2083 -0.0809 -0.1611
  788W        W 4852   9.780   1.646   8.405 -0.2285  0.1222  0.0631
  789W        W 4853   6.942   1.948  10.803  0.1023 -0.1050 -0.1601
  790W        W 4854   0.526   5.385   0.096 -0.1043 -0.0062 -0.0325
  791W        W 4855  10.196   0.080  10.216 -0.1931  0.0743 -0.0012
  792W        W 4856   3.292   5.489   1.880 -0.0226  0.1991  0.1418
  793W        W 4857   5.273  10.038   8.896  0.0165 -0.0367 -0.2150
  794W        W 4858   9.444   6.137   7.941 -0.0845  0.1254  0.0425
  795W        W 4859   9.006   7.028   0.095 -0.0561 -0.1131 -0.0232
  796W        W 4860  10.003   0.783   9.065 -0.0727 -0.0125  0.1315
  797W        W 4861   2.384   7.495  10.663  0.2584  0.0291 -0.2285
  798W        W 4862  10.314   3.181  10.205 -0.2131 -0.1347  0.0616
  799W        W 4863   4.446   9.305   3.279 -0.1638  0.2226  0.3238
  800W        W 4864   2.398   8.586   0.308 -0.1706 -0.0854 -0.0687
  801W        W 4865   3.500   6.229   2.556  0.3168  0.2398  0.4972
  802W        W 4866   1.641   7.584   1.458 -0.1517 -0.0562 -0.1386
  803W        W 4867   5.294   0.316   1.529  0.0642 -0.2283 -0.0788
  804W        W 4868   7.312   9.249   0.852  0.1772 -0.2055  0.0735
  805W        W 4869   6.499   4.347   0.035  0.0669 -0.3398  0.0248
  806W        W 4870   9.967   5.509  10.096 -0.1984 -0.1956  0.2096
  807W        W 4871   8.737   1.985   9.726  0.0709 -0.0983 -0.1006
  808W        W 4872   7.322   2.570   4.296 -0.0065  0.1865 -0.1700
  809W        W 4873   4.660   1.345   7.441 -0.0298 -0.0227  0.0566
  810W        W 4874  10.481   4.323   9.433 -0.2215 -0.0065  0.0012
  811W        W 4875   3.223   8.392   1.566  0.0776 -0.3091  0.0509
  812W        W 4876   5.974   9.451   2.104 -0.2887 -0.2670  0.1503
  813W        W 4877   1.493   6.601   8.920 -0.1613 -0.1059 -0.0851
  814W        W 4878   7.030   6.266   1.433 -0.0588 -0.3136  0.0037
  815W        W 4879   5.188   4.942   2.239 -0.1650  0.2337 -0.1834
  816W        W 4880   9.409   9.980   3.512 -0.2000 -0.1636 -0.1074
  817W        W 4881   7.302   3.874   2.142  0.3670 -0.1255 -0.0239
  818W        W 4882  10.152   1.196   4.034 -0.0062 -0.1163 -0.1033
  819W        W 4883   8.674   1.753   3.880  0.2111  0.0342 -0.3705
  820W        W 4884   7.431   3.495   1.164  0.0288 -0.1595 -0.2000
  821W        W 4885   7.319   4.953   2.046  0.2111  0.1007  0.2254
  822W        W 4886   0.133  10.244   8.319 -0.0088  0.1641 -0.1243
  823W        W 4887   9.680   1.458  10.865 -0.0709  0.0689  0.1663
  824W        W 4888   1.506   4.801   8.163 -0.1759  0.0011  0.3295
  825W        W 4889   3.569   6.690  10.118  0.1727  0.0334  0.0724
  826W        W 4890   9.467   8.657   8.699 -0.0232  0.1100  0.4303
  827W        W 4891   6.000   7.246   0.603 -0.0220 -0.1946  0.1911
  828W        W 4892   6.199   0.313  10.602  0.2171 -0.2937 -0.1530
  829W        W 4893  10.192   3.231   1.975 -0.1727  0.1535 -0.1316
  830W        W 4894   6.161   9.677   2.553  0.0055 -0.1959  0.0179
  831W        W 4895   2.967   6.150   2.616 -0.0598 -0.0055  0.1443
  832W        W 4896   9.797   6.467   2.635  0.1252 -0.1353  0.2308
  833W        W 4897   1.797   9.426   0.440  0.3607 -0.0019 -0.0412
  834W        W 4898   4.512   8.489   9.095 -0.2742 -0.1198  0.2034
  835W        W 4899   8.877   1.680   3.058  0.0318 -0.0140 -0.1833
  836W        W 4900   7.051   2.023   8.097  0.3778 -0.0622  0.1967
  837W        W 4901   6.420   0.669   2.149  0.0332  0.3208  0.0125
  838W        W 4902   4.997   0.922   8.526  0.0823  0.3088  0.0422
  839W        W 4903   6.371   4.878   1.601  0.2342 -0.0743 -0.2219
  840W        W 4904   2.437   4.005   8.857 -0.2939 -0.2111  0.2906
  841W        W 4905   2.549   4.197   0.382 -0.1309 -0.1631 -0.2104
  842W        W 4906   1.978  10.529   2.084 -0.0568 -0.5024 -0.1885
  843W        W 4907   3.236   0.703   2.920 -0.2210 -0.0645  0.2703
  844W        W 4908   9.556   7.903   9.532  0.2062  0.2855  0.0817
  845W        W 4909   4.375   4.924  10.653 -0.1386  0.1044  0.0060
  846W        W 4910   7.471   6.052   1.536  0.1896  0.0800  0.2061
  847W        W 4911  10.217   1.440   2.530  0.2581 -0.1749 -0.2063
  848W        W 4912   3.357   5.548   7.095 -0.0983  0.1938  0.0508
  849W        W 4913   3.202   4.858   9.460 -0.2131 -0.2183  0.0087
  850W        W 4914  10.492   0.360   3.010 -0.1881 -0.0003  0.1978
  851W        W 4915   2.625   6.015   9.256 -0.3250 -0.0723 -0.0447
  852W        W 4916   8.458   2.600   1.983  0.1242 -0.2917  0.1519
  853W        W 4917   6.372   0.744   4.291 -0.0893  0.0087 -0.4397
  854W        W 4918   8.525   6.444   9.133  0.3525 -0.0089  0.2203
  855W        W 4919   7.849   2.311   9.281 -0.0110  0.0556  0.1647
  856W        W 4920   8.106   8.521   9.977 -0.0741  0.3182 -0.1594
  857W        W 4921   6.047   3.755   0.200 -0.4045  0.1446  0.1741
  858W        W 4922   8.185   3.351   3.874 -0.1291  0.0327 -0.0404
  859W        W 4923   3.808  10.344  10.379  0.4046  0.0773 -0.1157
  860W        W 4924   1.657   2.387   2.552 -0.0868  0.0474 -0.0442
  861W        W 4925   6.139   0.755   3.763 -0.2084  0.2683  0.1628
  862W        W 4926   6.050   8.579   9.980  0.2775  0.4013  0.3656
  863W        W 4927   9.100   7.931   1.074  0.0553 -0.1162  0.0183
  864W        W 4928   4.576   2.462   3.143 -0.0528  0.1136 -0.1252
  865W        W 4929   3.601   8.842   4.402  0.3548  0.0147 -0.1027
  866W        W 4930   3.482   1.602  10.574  0.0730 -0.0673  0.2003
  867W        W 4931   7.202   3.418   3.151 -0.0694  0.0201 -0.0446
  868W        W 4932   0.446   5.207   1.440 -0.2427  0.1513  0.2301
  869W        W 4933   0.909   3.025   9.332  0.0555 -0.1200  0.0537
  870W        W 4934   9.911   0.013   7.982  0.3537 -0.2020  0.1060
  871W        W 4935   3.754   4.553   8.350 -0.0414  0.2608 -0.1020
  872W        W 4936   8.658   1.259   9.171  0.0281  0.0366  0.1130
  873W        W 4937   3.557   3.566   9.515 -0.0466  0.2224 -0.1640
  874W        W 4938   4.389   9.079  10.809  0.1221  0.1440  0.0641
  875W        W 4939   0.766   8.487   2.146 -0.3167 -0.2319  0.1024
  876W        W 4940  10.410   4.302   9.966 -0.3987 -0.0012 -0.0546
  877W        W 4941   8.960   1.833  11.022  0.1686 -0.0999  0.1345
  878W        W 4942  10.896   7.929   2.466  0.2831 -0.2631  0.1168
  879W        W 4943   2.716   9.078   0.437  0.1845  0.3435  0.3099
  880W        W 4944   6.076   2.062   8.144 -0.2550  0.2475 -0.1230
  881W        W 4945   0.230   1.089   1.965  0.1410  0.0927 -0.3064
  882W        W 4946   1.224   0.919   8.859  0.1731  0.1000  0.2165
  883W        W 4947   6.753   9.052   1.871  0.1042  0.0620 -0.0985
  884W        W 4948   0.742   4.981  10.240 -0.0440 -0.2659 -0.2657
  885W        W 4949   6.264   2.459  11.017  0.0279 -0.0003 -0.0093
  886W        W 4950  10.517   8.385   1.579  0.2889 -0.1265  0.0322
  887W        W 4951   4.541   4.769   9.240  0.1177 -0.0719  0.4264
  888W        W 4952   6.906   5.345   1.218  0.0114 -0.0790  0.0963
  889W        W 4953   9.845   6.757   8.050 -0.3215 -0.0588  0.2191
  890W        W 4954   6.891   7.693   0.270  0.2759 -0.3961 -0.3544
  891W        W 4955   3.727  10.346   8.180 -0.2591  0.2671 -0.1073
  892W        W 4956   3.372   6.933   0.390 -0.1080 -0.2134  0.3467
  893W        W 4957   2.203   9.202   0.358  0.2492  0.0022 -0.0655
  894W        W 4958   4.455   0.948   3.438  0.1739 -0.2255  0.0071
  895W        W 4959   4.622   4.376   0.654  0.0638  0.1043  0.0599
  896W        W 4960   6.326   7.653   9.782 -0.0603  0.1711 -0.1757
  897W        W 4961   3.376   2.998   8.750  0.0627  0.2330 -0.0200
  898W        W 4962   0.393   1.208   1.100  0.0373  0.3350 -0.0808
  899W        W 4963   1.592   0.102   8.592  0.0193 -0.0096  0.1056
  900W        W 4964   1.129   2.836   0.672  0.2584  0.0309  0.0678
  901W        W 4965   5.161   6.130   8.078 -0.2954 -0.0561  0.1302
  902W        W 4966   7.516   7.854   3.667 -0.1695  0.1911  0.0476
  903W        W 4967   8.239   8.165   1.598 -0.1886 -0.1984  0.1171
  904W        W 4968   1.783   8.247   3.529 -0.2094 -0.0629  0.2869
  905W        W 4969   5.285   2.788   8.938  0.1154  0.0840  0.4305
  906W        W 4970  10.822  10.379   3.562  0.1847 -0.1901 -0.1451
  907W        W 4971   9.317   9.792  10.764 -0.0181  0.3772 -0.0003
  908W        W 4972   2.555   0.679   1.443 -0.1370  0.1785 -0.1889
  909W        W 4973   6.031  10.135   0.418 -0.2014  0.2108 -0.1502
  910W        W 4974   4.254  10.584   2.590  0.0891  0.3191  0.3126
  911W        W 4975   4.248   0.184  10.630 -0.1518  0.0555 -0.0450
  912W        W 4976   4.458  10.779   8.572 -0.3172  0.1657  0.2080
  913W        W 4977   5.189   6.720   3.282 -0.0900 -0.0883  0.1250
  914W        W 4978   5.701   2.490   0.341 -0.1600 -0.0471  0.1092
  915W        W 4979   4.110   4.863   8.312  0.1706  0.3420  0.1839
  916W        W 4980   2.345   5.594   9.023  0.0140 -0.0799  0.4013
  917W        W 4981  10.816   3.013   0.199  0.2680 -0.1449  0.1037
  918W        W 4982   8.895   4.260   1.990  0.0162 -0.1291  0.0038
  919W        W 4983   1.334   5.197   2.615  0.0167 -0.1253 -0.4150
  920W        W 4984  10.472   9.506   7.716 -0.1077  0.0961  0.0668
  921W        W 4985   0.373   2.764   9.417  0.3047 -0.0701 -0.1500
  922W        W 4986   3.500   1.101   8.447  0.0786  0.1373  0.1779
  923W        W 4987   3.980   9.540   7.438  0.0317  0.2880  0.0461
  924W        W 4988   0.690   7.781  10.819  0.2545  0.0677  0.2057
  925W        W 4989   4.122   1.740  10.784  0.0389  0.0869  0.2270
  926W        W 4990   5.885   2.068  11.022  0.0034  0.1635 -0.0663
  927W        W 4991   3.763   0.608   8.445 -0.2053 -0.2236 -0.0653
  928W        W 4992   5.236   9.876   7.440  0.0510  0.2471 -0.0041
  929W        W 4993   4.394   1.567   1.308 -0.0150  0.3121 -0.1078
  930W        W 4994   5.622   4.738   3.162  0.1322 -0.1408  0.2176
  931W        W 4995   6.447   2.740  10.674  0.1882 -0.0529 -0.0075
  932W        W 4996   2.963   7.941   8.749 -0.2397  0.1817 -0.1198
  933W        W 4997   4.774   8.390   1.423  0.0546  0.0232 -0.0957
  934W        W 4998   1.043   0.023   3.173  0.0959 -0.0537  0.2475
  935W        W 4999  10.226   4.446   7.645 -0.0533  0.1458  0.1310
  936W        W 5000   3.707   9.582   3.645  0.3710  0.0433 -0.1436
  937W        W 5001   6.702   4.234  10.009 -0.0620  0.1145  0.0434
  938W        W 5002   0.676   3.885   8.758 -0.1987 -0.3512  0.0231
  939W        W 5003   8.479  10.237  10.303 -0.0649 -0.3247 -0.0784
  940W        W 5004   2.395   6.868   0.376  0.1972  0.2742  0.0316
  941W        W 5005   6.022   5.633   1.174  0.0134  0.2676  0.1198
  942W        W 5006   7.382   5.677   8.867  0.2351 -0.1390  0.3254
  943W        W 5007   5.534   6.923   8.687  0.2496 -0.0432  0.0870
  944W        W 5008   0.007   2.522  10.339 -0.0251  0.0802  0.1143
  945W        W 5009  10.218   6.691   8.731  0.3966 -0.2292 -0.1707
  946W        W 5010   1.382   3.217   2.110  0.2687 -0.0594 -0.1971
  947W        W 5011   6.607   1.965   8.879 -0.1410 -0.2992 -0.0392
  948W        W 5012   8.655   0.817   9.433 -0.1027 -0.0495  0.0702
  949W        W 5013   3.650  10.612   9.004  0.2045 -0.1061 -0.0100
  950W        W 5014   1.527   0.894   7.700  0.0426  0.1486  0.1728
  951W        W 5015   1.579   8.385   9.825  0.1377  0.3726  0.0470
  952W        W 5016   4.502   1.588  10.386 -0.0850  0.2279 -0.0924
  953W        W 5017   0.950   5.539   8.754 -0.1743 -0.0402 -0.2197
  954W        W 5018   6.334  10.757   9.213 -0.5319  0.0673 -0.0294
  955W        W 5019   5.401   1.531   2.326  0.1234 -0.0356  0.0631
  956W        W 5020   3.746   6.222  10.200 -0.0983 -0.2028 -0.0438
  957W        W 5021   2.441   0.340   1.970  0.1797 -0.0562  0.1076
  958W        W 5022   2.447   4.765   3.337 -0.4497  0.0739 -0.1678
  959W        W 5023   4.032   2.207   3.067 -0.0028 -0.3073 -0.1017
  960W        W 5024   3.174  10.196   1.256  0.1081 -0.3754  0.2252
  961W        W 5025   0.871   9.449   7.101 -0.0667  0.0413 -0.3511
  962W        W 5026   8.102   5.216   0.509  0.3206  0.0618  0.1275
  963W        W 5027   4.632   1.037  10.401 -0.2018  0.2254  0.0481
  964W        W 5028   2.107   9.911   1.415  0.0664 -0.0805 -0.5890
  965W        W 5029  10.133   3.172   8.320  0.0056 -0.2735  0.1873
  966W        W 5030   7.719   0.818   0.123  0.0448 -0.1345  0.1159
  967W        W 5031  10.414   4.638   0.053 -0.1453  0.0784  0.1124
  968W        W 5032   1.301   2.308   4.140  0.2001  0.1199 -0.0836
  969W        W 5033   6.472  10.022   2.296 -0.4455  0.0201  0.1821
  970W        W 5034   5.051   9.256   1.694 -0.0518 -0.2696 -0.2701
  971W        W 5035   4.157   2.024   1.287  0.2200  0.0596  0.3015
  972W        W 5036   8.826   4.393   2.522  0.2027  0.1147  0.2349
  973W        W 5037   5.682   3.324   0.166  0.0839 -0.1661 -0.0800
  974W        W 5038  10.238   6.934  10.179  0.0061  0.2017 -0.0921
  975W        W 5039   3.065   2.793   9.128 -0.1477  0.2461 -0.0256
  976W        W 5040   7.645   4.083   3.426 -0.0169 -0.0793 -0.0012
  977W        W 5041   4.775   5.474   0.144  0.0900  0.1515  0.1170
  978W        W 5042  10.549   9.725   9.513 -0.0461  0.0333 -0.1775
  979W        W 5043   5.351  10.579   1.528 -0.1923 -0.2926  0.0425
  980W        W 5044   5.127   7.884   1.636  0.0891 -0.0427  0.2729
  981W        W 5045   3.367   9.214   9.828 -0.0585 -0.4258  0.0383
  982W        W 5046   7.836   3.034   3.742  0.0560  0.1216 -0.1393
  983W        W 5047   8.328   6.399   0.622  0.1140  0.2199  0.0099
  984W        W 5048   4.364   2.602  10.111  0.2397  0.0169  0.2843
  985W        W 5049   3.548  10.698   1.912  0.2614 -0.1870  0.1191
  986W        W 5050   1.449   8.008   1.518  0.0419 -0.5286  0.3268
  987W        W 5051   7.189   5.932   9.250  0.0127  0.0803  0.1773
  988W        W 5052   3.321   8.797   1.855  0.1410  0.0327 -0.1489
  989W        W 5053   9.283   8.860   8.244  0.0820 -0.0933  0.0047
  990W        W 5054   5.793   0.018  10.378  0.3405 -0.1412 -0.1275
  991W        W 5055   4.790   7.671   8.967  0.0350 -0.1862  0.2371
  992W        W 5056   0.967   9.708   2.014 -0.1981 -0.3596  0.2865
  993W        W 5057   5.427   2.333   3.581  0.0042 -0.0159 -0.1824
  994W        W 5058   6.953   9.047   3.319 -0.1097 -0.0811 -0.0396
  995W        W 5059   5.935   4.180   8.028 -0.1950 -0.1215 -0.1414
  996W        W 5060   9.414   6.555   8.764 -0.0416  0.0890  0.1336
  997W        W 5061   4.090   3.467  10.360 -0.1466  0.1119 -0.0254
  998W        W 5062   3.107   6.786  10.272  0.0998 -0.0733 -0.0590
  999W        W 5063   2.767   3.363   2.331 -0.1516 -0.1386  0.3615
 1000W        W 5064   1.318   5.890   0.637 -0.4556  0.1135 -0.1146
 1001W        W 5065   8.843   2.521   1.371 -0.0481 -0.1809  0.0185
 1002W        W 5066   1.449  10.123  10.894 -0.2973 -0.2289 -0.2456
 1003W        W 5067   2.912   8.726   1.286 -0.1229  0.1347 -0.0332
 1004W        W 5068   0.081   0.836   2.397  0.1403 -0.2501 -0.2165
 1005W        W 5069   0.226   1.683  10.622 -0.3201  0.2068  0.1626
 1006W        W 5070   2.677   5.989   0.758 -0.1393 -0.3311  0.1745
 1007W        W 5071   0.213   6.612   1.340  0.0154  0.2229  0.0314
 1008W        W 5072   5.147   0.403   8.511 -0.0236 -0.1782  0.0157
 1009W        W 5073   8.375   4.510   3.162  0.1884  0.1006 -0.1463
 1010W        W 5074   4.684   7.302   8.665 -0.0387  0.3255  0.1685
 1011W        W 5075  10.570   2.595  10.917  0.1122 -0.0076 -0.1288
 1012W        W 5076  10.024   9.608   2.357  0.0153 -0.1337 -0.0739
 1013W        W 5077   8.774   4.052   0.703 -0.0967 -0.4045  0.0994
 1014W        W 5078   9.907   2.341  10.382  0.0627  0.0762  0.1646
 1015W        W 5079   2.933   0.217   9.527  0.2016  0.0774  0.0074
 1016W        W 5080   8.532   5.908   2.220 -0.0872 -0.0535 -0.4024
 1017W        W 5081   2.357   8.782   3.185  0.2424  0.3621 -0.1048
 1018W        W 5082   0.351   1.143   9.226 -0.1129 -0.0252 -0.2030
 1019W        W 5083   1.754   1.622   3.606 -0.3903  0.1909  0.0650
 1020W        W 5084   9.755   5.049   8.699 -0.2253  0.0506 -0.0874
 1021W        W 5085   9.586   2.193   9.738 -0.1597  0.1239  0.2887
 1022W        W 5086   4.744   8.525   0.905  0.1098  0.2463 -0.3272
 1023W        W 5087   1.506  10.828   9.775 -0.3158  0.0876  0.0278
 1024W        W 5088   7.746   0.402   9.334 -0.0515  0.2296  0.0753
 1025W        W 5089   6.218   9.836   1.868 -0.0662  0.1480 -0.1763
 1026W        W 5090   5.989   2.979   7.876  0.1238 -0.1754  0.0325
 1027W        W 5091   9.949   6.422   8.427  0.0999  0.1001 -0.0164
 1028W        W 5092   9.667  10.338   2.320  0.1140 -0.2177 -0.0005
 1029W        W 5093   4.070   0.418   0.144  0.1154  0.0047  0.0230
 1030W        W 5094   4.998   2.403   2.234 -0.3438 -0.0429  0.1345
 1031W        W 5095   8.368   8.178   0.711 -0.0163  0.0468  0.1890
 1032W        W 5096   5.337   7.863   2.045 -0.0489 -0.1224 -0.1869
 1033W        W 5097   7.278   5.594   3.055  0.3573 -0.0018 -0.0035
 1034W        W 5098   3.601   5.998   0.876  0.3470  0.0199 -0.0884
 1035W        W 5099   4.287  10.457  10.249 -0.1064 -0.0071  0.1298
 1036W        W 5100   8.419   3.723   0.892  0.4075  0.1530 -0.1553
 1037W        W 5101   9.492   7.279   1.768  0.3123 -0.0499  0.0197
 1038W        W 5102   2.498   3.789  10.513 -0.0440 -0.2662  0.2047
 1039W        W 5103   6.375   7.343  10.830  0.4700 -0.3548 -0.5656
 1040W        W 5104   6.848   4.591   7.923  0.2987  0.2822  0.3998
 1041W        W 5105   2.405   4.741   0.375 -0.0553  0.1050 -0.1445
 1042W        W 5106   4.776   4.440   9.962 -0.2840 -0.0596 -0.1181
 1043W        W 5107   9.093   4.871   9.719  0.4842  0.0369  0.1974
 1044W        W 5108  10.037   4.909   3.072 -0.2088 -0.3381  0.2018
 1045W        W 5109   0.094   1.302   8.693  0.0163 -0.0171 -0.1101
 1046W        W 5110  10.181   6.130   3.036  0.2709 -0.1693 -0.0302
 1047W        W 5111   8.154   6.650   2.311 -0.0857  0.3109 -0.3121
 1048W        W 5112   8.091   2.346   0.352 -0.2737 -0.6489 -0.2427
 1049W        W 5113   1.794   5.345   0.026  0.2018 -0.1849  0.0341
 1050W        W 5114   8.439  10.446   2.570 -0.1187  0.1063  0.2056
 1051W        W 5115   4.226   9.062  10.340 -0.1104  0.1239  0.1105
 1052W        W 5116   7.987   2.302   1.458  0.0793  0.1817 -0.0770
 1053W        W 5117   1.998   2.525   9.665  0.0583  0.1708  0.1023
 1054W        W 5118  10.350   2.583  10.415 -0.1806  0.1021  0.3635
 1055W        W 5119   8.206   0.143   9.647 -0.1714 -0.0709 -0.2406
 1056W        W 5120   3.725  10.728   8.530  0.0648 -0.0665  0.0300
 1057W        W 5121   9.765  10.709   9.527  0.3362  0.3594  0.3353
 1058W        W 5122   4.154   9.886   9.157 -0.1742  0.1089 -0.1482
 1059W        W 5123  10.299   6.774   1.894  0.1560  0.0181  0.2481
 1060W        W 5124   1.607   8.468   2.529  0.0374  0.1912 -0.2596
 1061W        W 5125  10.065   4.181  10.290 -0.0283  0.1520 -0.0534
 1062W        W 5126  10.701   9.248   0.101  0.1226 -0.0756  0.0616
 1063W        W 5127   6.969   2.535   3.985  0.1562 -0.1616  0.1692
 1064W        W 5128   7.879   5.469   0.125 -0.1134 -0.4436  0.2345
 1065W        W 5129   1.687   4.293   8.143  0.1406 -0.2473 -0.2305
 1066W        W 5130   1.199   8.986   0.227  0.1527  0.2544 -0.1950
 1067W        W 5131   2.747   4.678   8.022 -0.3651  0.3117 -0.0482
 1068W        W 5132   3.907  10.830   7.883  0.0447  0.5486 -0.2381
 1069W        W 5133   1.975   2.414   0.949  0.1669  0.0613 -0.0863
 1070W        W 5134   0.382   9.914  10.251  0.2771  0.0997 -0.1468
 1071W        W 5135   1.189   3.672   7.780  0.3903 -0.3976 -0.3635
 1072W        W 5136   2.735   4.583   1.373  0.2045 -0.1319  0.2260
 1073W        W 5137   7.249   1.249   1.781  0.0137  0.0962  0.1683
 1074W        W 5138   7.193   7.181   1.519 -0.1321  0.0174  0.1987
 1075W        W 5139   9.955   8.919   2.053 -0.0689  0.0293  0.1186
 1076W        W 5140   2.490   9.245   2.999  0.0865 -0.1601 -0.1674
 1077W        W 5141   5.785   3.011   1.938  0.1681  0.0174 -0.1674
 1078W        W 5142   8.937   9.613  10.492 -0.0289  0.4584  0.0429
 1079W        W 5143   1.619   8.424   9.334  0.0537  0.0841 -0.1710
 1080W        W 5144   7.402   6.209   0.947 -0.1395  0.2489  0.1207
 1081W        W 5145   6.935   8.523   0.591  0.0175  0.0768  0.1592
 1082W        W 5146   6.540   4.395   1.518 -0.0053 -0.1652 -0.1340
 1083W        W 5147   5.838   5.594   3.318 -0.1629 -0.2133  0.2203
 1084W        W 5148  10.701   3.254   0.942 -0.1443  0.2613  0.0119
 1085W        W 5149   0.324   2.376   0.571 -0.1684  0.2570  0.1128
 1086W        W 5150   5.338  10.463   8.669  0.0269 -0.0140  0.1144
 1087W        W 5151   6.255   0.631  10.166 -0.0179 -0.0647  0.2136
 1088W        W 5152   1.144   2.913  10.694 -0.1941 -0.1018  0.1655
 1089W        W 5153   4.462   4.906   7.934  0.3449  0.3246  0.1119
 1090W        W 5154   9.726   1.539   7.365 -0.1278 -0.1933 -0.0800
 1091W        W 5155   6.854   6.534  10.710 -0.0184 -0.2802 -0.1537
 1092W        W 5156   6.804  10.422  10.725  0.0402 -0.3223 -0.1026
 1093W        W 5157   9.225   1.831   9.847  0.0208 -0.1252 -0.3230
 1094W        W 5158  10.901   8.876   9.015  0.4047 -0.1074 -0.2963
 1095W        W 5159   6.843   7.242   3.676  0.1335 -0.3792 -0.0435
 1096W        W 5160   6.615  10.182   1.839 -0.1372 -0.1796  0.3253
 1097W        W 5161   0.085   0.603  10.419  0.0910 -0.2378  0.0510
 1098W        W 5162   3.964   0.596   1.631 -0.0733 -0.2123 -0.3871
 1099W        W 5163   1.487   3.238  10.867 -0.0336 -0.1470 -0.3717
 1100W        W 5164   5.392   2.540   8.488  0.2732  0.2115 -0.0536
 1101W        W 5165   0.310   1.497   3.412  0.6239 -0.2839 -0.1997
 1102W        W 5166   3.809   3.071   2.856  0.0227  0.3240  0.3019
 1103W        W 5167   9.344   4.645   2.416 -0.1081  0.2228  0.0513
 1104W        W 5168   6.453   9.786   8.068 -0.0686 -0.1862 -0.0782
 1105W        W 5169   9.266   9.415   7.943  0.0922 -0.0490  0.2530
 1106W        W 5170   1.760   0.532  10.922 -0.1236 -0.2018 -0.1890
 1107W        W 5171   7.429   7.356   2.177  0.0429  0.0452  0.1530
 1108W        W 5172   1.083   2.781   3.079 -0.0632  0.1496 -0.1610
 1109W        W 5173   1.031   0.009  10.884  0.1567 -0.1812 -0.0775
 1110W        W 5174  10.785   3.455   3.435 -0.0839 -0.1406 -0.1599
 1111W        W 5175   2.069   0.552   8.101  0.0832  0.1436  0.3154
 1112W        W 5176   3.750   4.802   9.630  0.0185  0.1326 -0.0204
 1113W        W 5177  10.114   9.885   8.630 -0.0048 -0.2781  0.0803
 1114W        W 5178   2.666  10.831   2.355  0.1271  0.2203 -0.2418
 1115W        W 5179   7.285  10.615  10.678  0.0428  0.1283  0.1322
 1116W        W 5180   5.068   8.324  10.393 -0.1487 -0.0546 -0.2301
 1117W        W 5181   2.506   9.754   7.665  0.0696 -0.0380 -0.1112
 1118W        W 5182   5.702   0.094   2.383 -0.1068  0.2405 -0.0693
 1119W        W 5183   1.096   9.583   7.884  0.3146  0.1542  0.0846
 1120W        W 5184   1.329  10.367   0.450 -0.0574 -0.1297 -0.0275
 1121W        W 5185  10.688   5.274   1.573  0.1243 -0.1784 -0.1264
 1122W        W 5186   2.897   4.958   9.960 -0.0021  0.1765 -0.1363
 1123W        W 5187   9.157  10.761   3.149  0.0097 -0.2106 -0.0503
 1124W        W 5188   2.902   1.830   2.162  0.2033 -0.2120  0.0671
 1125W        W 5189   4.096   9.697   3.849 -0.4050  0.2460 -0.0823
 1126W        W 5190   8.302   6.872   0.406  0.2112 -0.2934 -0.2539
 1127W        W 5191  10.155   2.493   2.666 -0.0593  0.0675 -0.1115
 1128W        W 5192   4.809  10.536   1.345  0.1693  0.1461  0.2120
 1129W        W 5193   3.239  10.313   1.875 -0.0585  0.0681 -0.1612
 1130W        W 5194   1.407   4.789   9.335  0.0782 -0.2322 -0.2387
 1131W        W 5195   6.022  10.406   9.626  0.1664 -0.1308 -0.1262
 1132W        W 5196   7.644   9.767  10.575  0.2437  0.1731  0.3756
 1133W        W 5197   3.775   3.952   1.665  0.1750 -0.1980  0.5287
 1134W        W 5198   1.787   5.925   2.047  0.0179  0.0835  0.2461
 1135W        W 5199   6.615   9.825   1.322  0.2383  0.1174  0.1115
 1136W        W 5200   0.371   3.658   9.094 -0.1236 -0.1610  0.0910
 1137W        W 5201   8.620   0.216  10.515  0.0007 -0.4510 -0.0276
 1138W        W 5202   1.316   9.528   7.360  0.0722 -0.0362  0.2054
 1139W        W 5203   3.110   7.330   9.029  0.6173 -0.0420 -0.2647
 1140W        W 5204   3.628   3.484   8.944  0.0074  0.3278  0.3428
 1141W        W 5205   6.889   7.107   1.904  0.4745  0.5913  0.1215
 1142W        W 5206   4.789   3.789   1.372 -0.0483 -0.1115 -0.0600
 1143W        W 5207   4.324   5.159   1.731 -0.0229  0.1277  0.1657
 1144W        W 5208   3.187   8.860  10.163 -0.0084 -0.1607  0.0167
 1145W        W 5209   4.194   4.508   0.475  0.0138 -0.1664 -0.1501
 1146W        W 5210   3.615   5.912   0.352 -0.0006 -0.2031 -0.0025
 1147W        W 5211   1.399   3.446   1.181  0.0305  0.1086 -0.1012
 1148W        W 5212   5.762   1.906   0.522  0.3841 -0.0714  0.3454
 1149W        W 5213  10.852   2.532   0.277  0.1751 -0.1515  0.1182
 1150W        W 5214   7.368  10.876   9.395 -0.1772 -0.0620  0.1671
 1151W        W 5215  10.248   1.372  10.902 -0.0075 -0.0437  0.4102
 1152W        W 5216   7.339   9.155   6.910 -0.0390 -0.0323 -0.0074
 1153W        W 5217   4.944  10.222   9.865 -0.1119  0.2066  0.1475
 1154W        W 5218   4.334   5.704   1.034 -0.1298 -0.0518  0.1527
 1155W        W 5219   5.326   6.499  10.843  0.0605 -0.1014  0.5017
 1156W        W 5220  10.645   8.217   0.663 -0.0047 -0.0874 -0.1010
 1157W        W 5221   8.892   4.931   2.377  0.0778  0.1447  0.1417
 1158W        W 5222   4.808   2.582   9.806 -0.3228  0.3118  0.1324
 1159W        W 5223   3.362   0.941   9.219 -0.1758 -0.2478  0.1391
 1160W        W 5224   5.626   1.594   2.864  0.0518 -0.2604 -0.0084
 1161W        W 5225   2.086   3.864   2.227  0.0077 -0.0675  0.1016
 1162W        W 5226   1.919   8.830   2.351 -0.1488 -0.3999 -0.2195
 1163W        W 5227   4.193   7.443   1.198  0.1200  0.1172  0.1021
 1164W        W 5228   8.706   5.185   9.510  0.0886 -0.1534 -0.0459
 1165W        W 5229   3.408   7.683  10.502 -0.0629 -0.2711  0.4052
 1166W        W 5230   5.383   8.079  10.133  0.1703 -0.6815 -0.0075
 1167W        W 5231   5.373   5.333  10.136  0.6600  0.1279 -0.0513
 1168W        W 5232   2.962  10.090   0.179 -0.1620 -0.1154  0.1445
 1169W        W 5233   3.990   3.375   8.546 -0.3006  0.1585  0.0560
 1170W        W 5234   2.264   5.500   2.908  0.0957  0.1571 -0.2691
 1171W        W 5235   0.751  10.689   0.328  0.0269  0.1115 -0.1168
 1172W        W 5236   2.811   1.121   0.089  0.4067  0.0357 -0.0075
 1173W        W 5237   2.352   5.018   9.209  0.2877  0.3033 -0.3648
 1174W        W 5238   4.452  10.598   0.992  0.0392 -0.0013  0.0203
 1175W        W 5239   6.674   2.520   0.359 -0.0919 -0.0447 -0.0439
 1176W        W 5240   2.361  10.674   8.175  0.1140 -0.0846 -0.5239
 1177W        W 5241   1.809   4.861   2.349 -0.1628  0.1359  0.2021
 1178W        W 5242  10.331   2.211   0.104 -0.1959  0.1401  0.1045
 1179W        W 5243   0.103   4.056   9.339 -0.0357  0.1015  0.0245
 1180W        W 5244   5.519  10.427   3.346 -0.1333  0.0622 -0.0254
 1181W        W 5245   2.522  10.805   2.838  0.1667  0.0907  0.0592
 1182W        W 5246   3.843  10.080  10.803  0.0790 -0.0356  0.0386
 1183W        W 5247   4.082   1.076   8.442 -0.1017 -0.0929  0.0271
 1184W        W 5248  10.329   1.842   2.002  0.0432  0.0691  0.0799
 1185W        W 5249   2.655  10.383   9.845  0.1241 -0.1550 -0.0149
 1186W        W 5250   7.054   6.344   8.139  0.2032 -0.0407  0.0055
 1187W        W 5251   3.301   8.889   3.055 -0.0582 -0.2384  0.1169
 1188W        W 5252   3.677   5.620  10.987  0.0570  0.1527  0.1675
 1189W        W 5253   0.309   2.917  10.437 -0.1803  0.2589 -0.2735
 1190W        W 5254   1.342   9.647   9.043  0.3494  0.2505  0.1989
 1191W        W 5255   8.648   2.335  10.546  0.1381 -0.1262 -0.1574
 1192W        W 5256   1.014   7.467   2.198 -0.2135  0.1538  0.1040
 1193W        W 5257   3.036   6.008   3.098 -0.0164 -0.0063 -0.3914
 1194W        W 5258   0.434   0.754   2.812 -0.0606 -0.2499 -0.0328
 1195W        W 5259   2.108   0.540   2.279  0.1431  0.0613  0.1382
 1196W        W 5260   1.589   6.938   8.439 -0.2355  0.0694 -0.2360
 1197W        W 5261   6.052   4.405   1.858  0.0699 -0.0303 -0.0883
 1198W        W 5262   6.799   0.320   0.203 -0.2046  0.1045  0.1219
 1199W        W 5263   1.246   5.927   7.516  0.1364  0.4853 -0.1131
 1200W        W 5264   9.842   4.244   8.679  0.0435  0.2129  0.2126
 1201W        W 5265   6.149   2.861   2.701  0.1268 -0.1307  0.0182
 1202W        W 5266   3.216   4.236   2.249 -0.2481 -0.0218  0.0308
 1203W        W 5267   9.304   1.064   3.720  0.1262 -0.0950 -0.0059
 1204W        W 5268   1.566   6.851  10.869 -0.1173  0.1429 -0.0970
 1205W        W 5269   4.546   8.348   9.547  0.2484  0.1742 -0.1559
 1206W        W 5270  10.629   4.101   8.112  0.2574  0.0292 -0.0773
 1207W        W 5271   6.946   0.637   8.930 -0.2318  0.2555 -0.2117
 1208W        W 5272   4.966   3.977   9.688 -0.3810 -0.0664  0.0801
 1209W        W 5273   1.310   8.976   8.565  0.1623  0.1560  0.2781
 1210W        W 5274   4.727   1.966   3.089  0.2025 -0.2081  0.0520
 1211W        W 5275  10.166   3.649   3.336  0.2762 -0.0025  0.0702
 1212W        W 5276   7.168   2.694   8.596 -0.4662  0.1791  0.3368
 1213W        W 5277   2.026   4.118   1.179 -0.3808  0.2922  0.1161
 1214W        W 5278   2.659   2.721   2.350  0.1703 -0.3193  0.0079
 1215W        W 5279   7.935   3.407   1.559  0.0803  0.1241 -0.2896
 1216W        W 5280   9.498   0.056   2.712  0.2502  0.0442  0.1089
 1217W        W 5281   4.151   2.700   0.010  0.1589  0.0160  0.0311
 1218W        W 5282   6.707   6.966  10.438 -0.2515 -0.0284  0.1442
 1219W        W 5283   6.542   7.405   9.135  0.0762 -0.2181  0.0810
 1220W        W 5284   5.154   7.821  10.577  0.1769  0.4877 -0.1100
 1221W        W 5285   9.048  10.681   1.726  0.0733  0.3331 -0.1960
 1222W        W 5286   8.331   5.594   0.410 -0.0601 -0.1509 -0.0168
 1223W        W 5287   0.461   8.461  10.181  0.0920 -0.3024 -0.0572
 1224W        W 5288   5.898   0.429   1.357  0.0946  0.0073  0.1480
 1225W        W 5289   4.331   6.127   9.996 -0.2134  0.1936 -0.1685
 1226W        W 5290   5.612   2.321   0.864 -0.1226 -0.0392  0.4429
 1227W        W 5291   9.533   9.614   9.269  0.2159 -0.1044 -0.2898
 1228W        W 5292   8.319   1.477   3.648 -0.0649  0.1601  0.1015
 1229W        W 5293   0.307   1.533   3.954 -0.1080 -0.0346 -0.0455
 1230W        W 5294  10.008   3.610   8.775  0.1109  0.2103  0.0824
 1231W        W 5295   6.242   1.768   0.353  0.4223 -0.2135  0.2268
 1232W        W 5296   9.355  10.004   8.869 -0.0799  0.0531 -0.1352
 1233W        W 5297   3.144   3.198   1.260  0.1607 -0.3165  0.3515
 1234W        W 5298   7.647   0.120   8.552 -0.2888  0.1623  0.2320
 1235W        W 5299   8.641   3.818   1.785  0.0080  0.1666  0.2052
 1236W        W 5300   8.132   2.511   8.793  0.5148  0.0442 -0.2839
 1237W        W 5301   2.119   8.583   8.122  0.3479  0.1010 -0.1304
 1238W        W 5302   0.821   2.459   0.479  0.2075 -0.1453 -0.0045
 1239W        W 5303   9.409   6.228   0.238 -0.1496 -0.1482  0.1976
 1240W        W 5304   7.231   7.073  10.654 -0.1675  0.1156 -0.1562
 1241W        W 5305   2.464   3.970  10.980  0.1213 -0.1264 -0.0292
 1242W        W 5306   3.669   7.943   1.853 -0.0719 -0.0177  0.1077
 1243W        W 5307   2.710   0.862   1.902 -0.2232 -0.3582  0.3792
 1244W        W 5308   6.131   6.747   9.291 -0.1886  0.0403 -0.3135
 1245W        W 5309   6.377   0.881   9.504 -0.0592  0.2284  0.3279
 1246W        W 5310  10.074   8.498   2.376  0.1732  0.2472 -0.0333
 1247W        W 5311  10.573   5.693   8.581 -0.0142 -0.0017 -0.0068
 1248W        W 5312   1.782   1.660   3.079  0.1740 -0.3153  0.2467
 1249W        W 5313   0.845   7.644   0.725  0.0959 -0.1325 -0.0778
 1250W        W 5314   5.272   3.360   8.763 -0.1186  0.2766 -0.1226
 1251W        W 5315   5.076   0.430   0.360 -0.2016  0.2581  0.1474
 1252W        W 5316   8.805  10.871   3.521 -0.0422  0.0694  0.0122
 1253W        W 5317   3.997   7.529   0.238  0.0984 -0.1432  0.2835
 1254W        W 5318   4.721   1.386   0.203  0.3588 -0.1982 -0.0250
 1255W        W 5319   8.990   8.951   9.934 -0.1694  0.1845 -0.0822
 1256W        W 5320   3.675   5.060  10.467  0.1924 -0.0581  0.0143
 1257W        W 5321   1.530  10.427   8.312  0.0902  0.0342 -0.0173
 1258W        W 5322   0.144   5.599  10.520  0.1105 -0.0435 -0.4155
 1259W        W 5323   2.438   1.861  11.037  0.2914 -0.0713  0.4025
 1260W        W 5324   6.813   8.528   8.133 -0.2543 -0.2820  0.1478
 1261W        W 5325   8.253   4.754   0.515 -0.1889  0.2128 -0.1147
 1262W        W 5326   4.982   1.417  10.360 -0.5882  0.3425 -0.1468
 1263W        W 5327   5.029   8.511   9.044  0.1514 -0.0811  0.0927
 1264W        W 5328   0.927   9.331   1.677  0.2610  0.0869  0.1955
 1265W        W 5329   0.706   7.201   9.860  0.0045 -0.3029  0.1075
 1266W        W 5330   0.152   3.160   9.154 -0.0595 -0.1746  0.4336
 1267W        W 5331   6.187   6.238   1.785 -0.0370 -0.1311  0.1008
 1268W        W 5332  10.487   0.612  10.241  0.0644  0.1052  0.2812
 1269W        W 5333   1.452   4.096   2.385  0.0167  0.2308 -0.2337
 1270W        W 5334   3.566   9.496   9.458 -0.1480 -0.4548 -0.1783
 1271W        W 5335   3.802   6.654   8.714 -0.5190 -0.3362  0.0790
 1272W        W 5336   9.563   5.808   9.552 -0.0824  0.2308 -0.1054
 1273W        W 5337   9.632  10.353  10.861 -0.1061  0.1292  0.0564
 1274W        W 5338   8.845   8.328   1.059  0.1369 -0.1640 -0.1130
 1275W        W 5339   6.703   5.427   2.037  0.2221  0.0415 -0.0176
 1276W        W 5340   7.196   2.283   9.006 -0.0615  0.2971 -0.1432
 1277W        W 5341   9.259   6.975   9.527  0.0824  0.3903  0.4817
 1278W        W 5342   9.156   2.528   0.557 -0.1456  0.2597  0.1997
 1279W        W 5343   3.385   0.684   1.958 -0.4193 -0.0806  0.0484
 1280W        W 5344  10.783   4.685  10.111 -0.1187 -0.2930 -0.0820
 1281W        W 5345   9.240   5.080   1.474  0.1196 -0.0726  0.0269
 1282W        W 5346   6.167   3.865   7.742 -0.1979  0.0758  0.0166
 1283W        W 5347   8.924   4.496   1.511  0.1357 -0.0086  0.3396
 1284W        W 5348   0.761   3.341   7.973  0.2645  0.1128  0.0129
 1285W        W 5349   4.598   2.691   2.529  0.0756 -0.4302 -0.0423
 1286W        W 5350   7.175   8.069   0.507  0.1076 -0.2369 -0.1282
 1287W        W 5351   8.691   9.108   2.130 -0.1027 -0.1594 -0.0683
 1288W        W 5352   9.829   1.954   1.876 -0.1314 -0.1968  0.2817
 1289W        W 5353   4.937   7.672   0.413 -0.0399 -0.2692  0.0450
 1290W        W 5354   1.351   7.845   8.546 -0.1941  0.0437 -0.0259
 1291W        W 5355   3.017   6.336   8.677  0.2010  0.1970 -0.0444
 1292W        W 5356   6.435  10.299   9.400  0.0277  0.2198  0.0974
 1293W        W 5357  10.007   2.937   0.751 -0.1040  0.0218  0.0982
 1294W        W 5358  10.680   3.844   1.546  0.3036  0.0923  0.0227
 1295W        W 5359   8.487   3.344   0.208 -0.1318 -0.1004 -0.0886
 1296W        W 5360   8.166   7.722   7.970 -0.1884 -0.0559  0.1462
 1297W        W 5361   5.351   9.445   9.859 -0.1293 -0.0070  0.2185
 1298W        W 5362   3.303   8.148   2.572 -0.4409  0.5751 -0.1011
 1299W        W 5363   9.982   0.432   0.666  0.0994 -0.1746 -0.0505
 1300W        W 5364   4.610   5.869  10.724  0.1576 -0.2042  0.0081
 1301W        W 5365   3.250  10.210   9.053 -0.4009  0.2957 -0.1434
 1302W        W 5366   9.683   0.727   0.379 -0.1603 -0.3057  0.3930
 1303W        W 5367   2.172   5.206   2.365  0.2827 -0.2254  0.1005
 1304W        W 5368   4.029   3.781   2.293 -0.2507 -0.2789  0.0007
 1305W        W 5369  10.082   8.632   3.246  0.2321  0.0306  0.1402
 1306W        W 5370   0.968  10.345   1.470 -0.0834  0.2518 -0.2436
 1307W        W 5371   9.841   7.727   0.424 -0.1662 -0.1806  0.0728
 1308W        W 5372   7.525   3.042   1.973 -0.0261  0.2015 -0.1237
 1309W        W 5373   7.014   8.162   8.709 -0.0162 -0.5427 -0.0404
 1310W        W 5374   3.080   2.519   2.604  0.4025 -0.2256 -0.0752
 1311W        W 5375   1.196   7.803   7.927 -0.1867 -0.1706 -0.0656
 1312W        W 5376   1.480   5.562   2.306 -0.2860 -0.3432 -0.4193
 1313W        W 5377   5.813   9.393   3.029  0.0698  0.1254  0.2043
 1314W        W 5378   3.245   3.182   9.690 -0.3531 -0.0063 -0.2518
 1315W        W 5379   3.952   9.151   0.728  0.2162 -0.2328 -0.2685
 1316W        W 5380   5.698   0.058   1.696 -0.0639 -0.0974  0.0813
 1317W        W 5381   6.445   1.588   9.957  0.0889  0.0234 -0.2874
 1318W        W 5382   8.455   5.273  11.049  0.0574  0.0269  0.0527
 1319W        W 5383   8.544   1.858   1.288  0.1470 -0.1721  0.1811
 1320W        W 5384   9.086   5.483   9.587  0.3796 -0.1638  0.1960
 1321W        W 5385   5.753   3.577   0.601 -0.0084  0.3738 -0.1145
 1322W        W 5386  10.554  10.568   1.296  0.1885  0.4654 -0.1523
 1323W        W 5387   5.235   0.174   2.100 -0.2862 -0.2661 -0.0229
 1324W        W 5388   7.966   8.632   1.396  0.0452  0.0729  0.3784
 1325W        W 5389   3.270   5.594   0.213 -0.3657  0.4367 -0.2300
 1326W        W 5390   5.170   4.439  10.428  0.3856  0.0867  0.2064
 1327W        W 5391   1.821   9.948   8.329  0.0941  0.0843 -0.0467
 1328W        W 5392   0.197   7.411  10.107  0.2720  0.2047 -0.1044
 1329W        W 5393   0.860   7.733   9.867  0.3156 -0.1014  0.2127
 1330W        W 5394   3.355   3.319   2.630  0.2160 -0.2113  0.2168
 1331W        W 5395   7.589   6.919   1.131  0.2944  0.1159  0.1597
 1332W        W 5396  10.090   9.419   9.336  0.0404  0.0695 -0.2162
 1333W        W 5397   7.427   0.331   0.170  0.1424 -0.3252 -0.0597
 1334W        W 5398   3.897   4.918   1.795  0.1632 -0.1330 -0.1012
 1335W        W 5399   2.923   8.760   7.930  0.0836 -0.0247  0.2190
 1336W        W 5400   8.018  10.839   3.603  0.3322  0.5074 -0.2511
 1337W        W 5401   3.408   8.730   9.731 -0.1213 -0.0528  0.0522
 1338W        W 5402   1.356   3.613   2.396  0.1101 -0.0919 -0.1206
 1339W        W 5403   6.901   6.736   1.367 -0.3285 -0.1046 -0.1620
 1340W        W 5404   2.722   2.494   0.987 -0.0679  0.1227 -0.1913
 1341W        W 5405   5.167   4.408   8.911 -0.1474  0.1755  0.4286
 1342W        W 5406   9.385   3.664   3.027 -0.2643 -0.0289  0.1565
 1343W        W 5407   5.774   8.918   9.749 -0.2495  0.2025 -0.1522
 1344W        W 5408   8.761   5.057   1.642 -0.2217  0.2393 -0.1190
 1345W        W 5409   1.418   9.474   8.388  0.1267  0.3356 -0.1693
 1346W        W 5410   1.154   5.384   0.817 -0.0620  0.0666  0.3152
 1347W        W 5411   2.467   6.480  10.999 -0.1114 -0.0531  0.0055
 1348W        W 5412   4.784   5.979   0.145 -0.2916  0.1450 -0.1900
 1349W        W 5413   5.638   9.237   9.362 -0.1073 -0.2407  0.2161
 1350W        W 5414   7.330   5.547  10.849  0.1085  0.3851 -0.0335
 1351W        W 5415  10.518   3.282   1.551 -0.0685 -0.0725 -0.0357
 1352W        W 5416  10.214   6.659   3.170  0.2731 -0.1384  0.2423
 1353W        W 5417   2.165   7.175  10.350 -0.2431 -0.0633  0.2395
 1354W        W 5418   8.381  10.665   1.329  0.0772  0.0457 -0.3958
 1355W        W 5419   0.320  10.142   2.215 -0.0080  0.1725 -0.0328
 1356W        W 5420  10.511   7.518   8.338  0.2153  0.1854  0.2125
 1357W        W 5421   4.267   7.956  10.273 -0.2496 -0.1480  0.3984
 1358W        W 5422   2.922   9.725   1.123 -0.0416 -0.1828  0.1108
 1359W        W 5423   8.287   6.309   1.313  0.1119 -0.0238 -0.1624
 1360W        W 5424   8.402   7.567  10.067 -0.2425 -0.0369  0.1116
 1361W        W 5425  10.639   0.488   2.333 -0.1286  0.2574  0.4183
 1362W        W 5426   0.537   1.922   0.476 -0.2503 -0.0531 -0.0727
 1363W        W 5427   2.251   7.388   8.829 -0.1742 -0.1533 -0.0910
 1364W        W 5428   5.844   8.022   9.434  0.1847 -0.3982  0.0512
 1365W        W 5429  10.004   7.567   8.191 -0.2147  0.0571  0.2926
 1366W        W 5430   9.480   0.863   1.604  0.0703  0.3644 -0.0372
 1367W        W 5431   5.380   1.326   8.442 -0.3633  0.0659  0.1401
 1368W        W 5432   7.732   8.785   3.303  0.0160 -0.2929 -0.0101
 1369W        W 5433  10.397  10.798   2.829  0.1387 -0.1483  0.1239
 1370W        W 5434   3.272   3.478  10.367  0.1108  0.2581 -0.2789
 1371W        W 5435   6.236   1.131   9.970 -0.1270  0.0394  0.0365
 1372W        W 5436   4.855   5.327   9.880 -0.0074  0.0497 -0.0139
 1373W        W 5437   3.027   0.873   8.850 -0.2965 -0.0819 -0.0280
 1374W        W 5438   3.335   7.719   3.094 -0.2122  0.1335  0.1088
 1375W        W 5439   3.129   5.764   1.020 -0.1621 -0.2108 -0.0932
 1376W        W 5440   3.183   6.303   0.823  0.3349  0.0420 -0.0349
 1377W        W 5441   4.752   9.155  10.356  0.0122  0.1819 -0.1623
 1378W        W 5442   1.506  10.069  10.406 -0.2244 -0.2628 -0.1850
 1379W        W 5443   3.231   9.106   0.249  0.0117  0.2122  0.3095
 1380W        W 5444   3.792   5.384   1.665  0.4173 -0.1854 -0.1633
 1381W        W 5445   6.174   4.370  10.712 -0.0830  0.0001  0.0464
 1382W        W 5446   7.979   3.497   0.994 -0.1196 -0.0053  0.2286
 1383W        W 5447   3.730   5.656   9.047  0.0649  0.0467 -0.0330
 1384W        W 5448   1.340   3.658  10.048 -0.1019 -0.0658 -0.0551
 1385W        W 5449  10.262   2.102   1.088 -0.2830 -0.4360  0.1525
 1386W        W 5450   6.305   5.824   3.253  0.2638 -0.2536 -0.2222
 1387W        W 5451   4.570  10.671   2.007  0.0406 -0.1116  0.2604
 1388W        W 5452   2.485   8.841   2.038  0.1228 -0.2293 -0.0894
 1389W        W 5453   8.750   1.630   8.826  0.0961 -0.2073  0.0130
 1390W        W 5454   7.832   5.625   2.264  0.0450  0.1774  0.0506
 1391W        W 5455   6.323   1.040   1.823  0.0293  0.0708  0.3137
 1392W        W 5456  10.310   9.272   1.790  0.0205 -0.4982 -0.3333
 1393W        W 5457   2.661  10.699   9.212 -0.2101  0.1194  0.0117
 1394W        W 5458   4.517   9.867   2.132 -0.2101 -0.1003  0.0856
 1395W        W 5459   3.297   4.492   8.762 -0.2518  0.1972  0.2310
 1396W        W 5460   2.061   9.469   1.036 -0.0083  0.1141 -0.1529
 1397W        W 5461   6.335   1.351   8.589  0.0252 -0.0448 -0.2211
 1398W        W 5462  10.267  10.052   1.449  0.1111 -0.2902 -0.3947
 1399W        W 5463   0.440   5.906   8.227  0.0546 -0.1429  0.2274
 1400W        W 5464   0.279   1.806   8.764 -0.0765 -0.0923  0.1549
 1401W        W 5465   9.649   2.499   0.614 -0.0654  0.1748 -0.0920
 1402W        W 5466   5.038   1.291   2.605 -0.1473  0.4058  0.0867
 1403W        W 5467  10.290   7.344   0.675  0.0920  0.0978 -0.3192
 1404W        W 5468   9.758   6.378   3.195 -0.1399  0.0066 -0.0273
 1405W        W 5469   5.483   7.047  10.827 -0.1268 -0.0556  0.2796
 1406W        W 5470   5.627   4.484   4.229  0.1533  0.1361  0.2283
 1407W        W 5471  10.873   8.173   7.876  0.1436 -0.2767  0.1769
 1408W        W 5472   5.568   7.992   2.776  0.1587 -0.0632  0.1131
 1409W        W 5473   3.250   7.270   2.871  0.2050 -0.0737  0.0566
 1410W        W 5474   5.463  10.599   0.129  0.1397  0.0105  0.1646
 1411W        W 5475   6.982   7.220   9.659  0.1826 -0.2482 -0.0148
 1412W        W 5476   3.535   7.416   9.670  0.0716  0.1670 -0.1964
 1413W        W 5477  10.451   1.348   9.470 -0.0051  0.2455  0.1671
 1414W        W 5478   8.845  10.095   1.806 -0.1533  0.1994  0.3743
 1415W        W 5479   2.475  10.788   1.890 -0.0686  0.3064  0.3297
 1416W        W 5480   1.191   9.062   1.243  0.0420  0.0500  0.2211
 1417W        W 5481   1.762   6.422   2.109 -0.1882 -0.0899 -0.1461
 1418W        W 5482   8.226   9.231   0.723  0.0509  0.1665 -0.0518
 1419W        W 5483   3.431   9.948   1.593 -0.0737  0.0467 -0.0748
 1420W        W 5484  10.490   7.410   7.774  0.1525  0.0821 -0.1949
 1421W        W 5485  10.305   5.948   0.538 -0.0440 -0.0391  0.2511
 1422W        W 5486   1.373   1.238   8.440 -0.1546 -0.0349  0.0226
 1423W        W 5487   5.556   4.489   8.157 -0.1457  0.2113 -0.1046
 1424W        W 5488   1.725   4.552   8.964  0.0252  0.2071  0.1580
 1425W        W 5489   5.402   8.821   0.584  0.2800 -0.1632 -0.3020
 1426W        W 5490   4.623   5.551   1.504  0.1330 -0.1646  0.0986
 1427W        W 5491   5.458   2.200  10.600 -0.0779 -0.0118  0.0193
 1428W        W 5492   2.418   8.876   2.597 -0.0198 -0.2853 -0.0353
 1429W        W 5493   2.546   4.181  10.132 -0.1223  0.0295  0.2150
 1430W        W 5494   5.878   8.688   7.438 -0.0016  0.2120 -0.0469
 1431W        W 5495   7.924   0.489  10.144 -0.0656  0.1032  0.0211
 1432W        W 5496  10.127   5.484   0.640 -0.0275  0.2627 -0.0720
 1433W        W 5497   1.097   9.413   9.973 -0.3216  0.0257 -0.1747
 1434W        W 5498   2.399  10.603   1.361 -0.2823  0.0109 -0.2618
 1435W        W 5499   2.386  10.060   3.396  0.1952 -0.2833  0.0235
 1436W        W 5500   4.923   0.616   1.775  0.1582  0.2945 -0.1656
 1437W        W 5501   0.425   2.802   0.225  0.1871  0.0862 -0.2155
 1438W        W 5502   1.263   2.704   9.198  0.2347  0.1295  0.1755
 1439W        W 5503   2.735   4.763   0.932 -0.2681 -0.3279 -0.0806
 1440W        W 5504   1.436   6.270  10.799  0.4508  0.0239  0.0871
 1441W        W 5505   4.995  10.265   3.846  0.0530 -0.0232  0.0931
 1442W        W 5506  10.185   6.000   8.670  0.0128 -0.4089  0.0804
 1443W        W 5507   3.686   7.478   8.327  0.3356  0.1216  0.1634
 1444W        W 5508   2.537   8.460   2.838  0.0223 -0.0549 -0.3076
 1445W        W 5509   9.051  10.202   7.121 -0.0791  0.1561 -0.1643
 1446W        W 5510   1.204   2.248   9.084 -0.0016  0.0273  0.1890
 1447W        W 5511   6.973   5.667   1.635  0.0245 -0.0562  0.3608
 1448W        W 5512   5.937  10.247  10.487  0.1642  0.0058  0.1905
 1449W        W 5513   2.381   5.952  10.893  0.0259  0.0229  0.0556
 1450W        W 5514   3.324  10.357   0.806 -0.2060  0.0576  0.0827
 1451W        W 5515   3.280  10.624   1.454  0.1453  0.2827 -0.2016
 1452W        W 5516   9.537   2.640  10.062  0.2197  0.0946  0.2061
 1453W        W 5517   8.261   5.797   1.316  0.1740 -0.1679 -0.2894
 1454W        W 5518   7.137   9.654  10.481  0.4311  0.4369  0.0276
 1455W        W 5519   8.527   6.975   3.015  0.0050 -0.2316 -0.2760
 1456W        W 5520   7.825   1.926   2.318 -0.2529 -0.1101  0.2395
 1457W        W 5521   2.729   9.052  10.988  0.0879  0.0962  0.0134
 1458W        W 5522   5.636   5.883   8.091  0.2013 -0.2286  0.3122
 1459W        W 5523   5.359   4.913   7.918 -0.2173 -0.2689  0.5301
 1460W        W 5524   2.682   6.579   9.048 -0.1678 -0.1139  0.0379
 1461W        W 5525   1.602   4.259   7.319 -0.4155  0.1411 -0.4783
 1462W        W 5526   5.035   3.992  10.185 -0.4302 -0.2885  0.1971
 1463W        W 5527   6.067   7.627   9.012  0.0675  0.2333  0.2478
 1464W        W 5528   1.248   7.641   9.231 -0.0341  0.0931  0.0868
 1465W        W 5529   5.456   3.809   0.253 -0.0699 -0.1471  0.0368
 1466W        W 5530   4.826   4.746   8.736 -0.2231 -0.0338 -0.0982
 1467W        W 5531  10.593   1.040   8.562  0.3664 -0.0143 -0.1265
 1468W        W 5532   6.737   9.493  10.166  0.0966 -0.1956 -0.1102
 1469W        W 5533   1.549  10.586  10.247  0.1560  0.0031 -0.0387
 1470W        W 5534   8.166   4.239  10.728  0.2171 -0.0105  0.0522
 1471W        W 5535   8.612   9.792   9.738 -0.1496  0.0121 -0.1864
 1472W        W 5536   1.373   1.420   1.683  0.0804 -0.1277  0.1201
 1473W        W 5537   4.506   2.913   0.993  0.0204  0.0882  0.0833
 1474W        W 5538   5.524   3.912   8.983 -0.3625 -0.2098 -0.2957
 1475W        W 5539   6.766   5.024   0.800 -0.0794 -0.1658  0.0123
 1476W        W 5540   5.080   9.342   9.337 -0.2311  0.1129 -0.3696
 1477W        W 5541   7.413   9.257   3.418  0.2641  0.0043 -0.0569
 1478W        W 5542   0.398   7.454  10.561  0.1797  0.0671  0.0540
 1479W        W 5543  10.805   4.399   8.421 -0.2075 -0.2315 -0.0442
 1480W        W 5544   8.538   6.061   0.310  0.0508  0.2179 -0.0605
 1481W        W 5545   7.956   2.703   2.171 -0.1049 -0.2509  0.0110
 1482W        W 5546   2.368   1.158   3.063  0.0170  0.1475 -0.2401
 1483W        W 5547   7.683   4.152   7.960 -0.2757 -0.2091 -0.0391
 1484W        W 5548   3.450   3.060   0.133  0.2263 -0.0466  0.0203
 1485W        W 5549   8.247   6.964  10.902 -0.0968 -0.1722 -0.0951
 1486W        W 5550   6.636   2.719   8.443  0.1748 -0.1458 -0.0925
 1487W        W 5551   2.893   3.557   2.779 -0.2356  0.4401 -0.1388
 1488W        W 5552   6.252   5.423   3.542  0.0296  0.1910 -0.0322
 1489W        W 5553   8.578   3.429  10.466 -0.2002 -0.0212 -0.1054
 1490W        W 5554   4.514   6.323   8.786 -0.0805 -0.3890 -0.1722
 1491W        W 5555   5.431   9.891  10.407  0.1217 -0.2386 -0.0487
 1492W        W 5556   3.549   7.118   8.803 -0.1757  0.3568  0.1160
 1493W        W 5557   5.292   0.614   8.974 -0.1962 -0.3763 -0.1312
 1494W        W 5558   2.000   6.172   8.006 -0.0171 -0.0569 -0.1755
 1495W        W 5559   9.762   8.505   2.844 -0.2597  0.2213  0.0335
 1496W        W 5560   9.473   5.136   9.871  0.0242 -0.0877 -0.0776
 1497W        W 5561   5.372   9.723   9.311  0.0396 -0.1772  0.0009
 1498W        W 5562   5.107   0.951  10.261 -0.0658 -0.0248  0.0717
 1499W        W 5563  10.327   2.727   8.660  0.0972  0.3106 -0.1722
 1500W        W 5564   0.009   1.063   2.847  0.1832 -0.1470  0.3434
 1501W        W 5565   4.257   9.716   1.432 -0.0855  0.0086 -0.0484
 1502W        W 5566   1.031   4.462   8.057  0.0058  0.1118  0.1672
 1503W        W 5567   2.426   9.740  10.194  0.0790 -0.0291 -0.0491
 1504W        W 5568   5.757   0.030   9.828 -0.0335  0.1591 -0.0060
 1505W        W 5569   2.688   2.120   0.593 -0.2094  0.1243 -0.1707
 1506W        W 5570   6.935   0.933  10.888 -0.0412 -0.2539  0.0387
 1507W        W 5571   0.581  10.023   1.116 -0.3240 -0.1062 -0.1433
 1508W        W 5572   4.584   6.953   1.955 -0.3399 -0.0420  0.0716
 1509W        W 5573   7.313   2.307  10.867  0.0361 -0.1263  0.0264
 1510W        W 5574   8.927   2.742   2.262 -0.1954 -0.0882 -0.2640
 1511W        W 5575   0.884   9.846  10.115  0.3690 -0.2070  0.1954
 1512W        W 5576   0.725   7.477   9.384  0.1119  0.1017  0.0158
 1513W        W 5577   9.429   6.465   9.362  0.1137  0.2187  0.1684
 1514W        W 5578   2.798   1.006   2.745  0.1422 -0.0662  0.2397
 1515W        W 5579   1.316   1.278   0.448  0.0336 -0.1060 -0.1309
 1516W        W 5580   7.676   7.401   1.057  0.4092 -0.1254 -0.0759
 1517W        W 5581   8.624  10.476   7.197  0.3482  0.1153 -0.0854
 1518W        W 5582   7.912   1.993   3.786 -0.2281  0.1974  0.2409
 1519W        W 5583   9.380   6.588  10.329 -0.2213  0.3297 -0.0310
 1520W        W 5584   3.430   3.653   1.414  0.2968 -0.2140 -0.2440
 1521W        W 5585   5.091   8.649   2.338  0.0390 -0.0159 -0.3478
 1522W        W 5586   8.601   9.416   8.660  0.2219  0.1076  0.0724
 1523W        W 5587   1.300   8.467   6.821  0.3393 -0.0732  0.2716
 1524W        W 5588   6.398   4.308   7.718  0.0214 -0.0310  0.0521
 1525W        W 5589   2.198  10.446   7.753  0.0642 -0.1046  0.3834
 1526W        W 5590   9.678   2.873   1.314  0.0748 -0.1277 -0.3008
 1527W        W 5591   7.136   9.055   2.452 -0.3153 -0.2334 -0.3112
 1528W        W 5592   9.669   8.037  10.790 -0.4118  0.1802 -0.0050
 1529W        W 5593   3.510   6.923   3.063 -0.0788  0.4454 -0.2020
 1530W        W 5594   2.815   0.273  10.751  0.2905 -0.0583 -0.2059
 1531W        W 5595   6.555   3.020   8.857  0.1124 -0.0610 -0.2419
 1532W        W 5596   2.935   0.956  10.254 -0.1236  0.2101  0.1365
 1533W        W 5597   9.425   1.856   1.260  0.0225 -0.1554 -0.1754
 1534W        W 5598   2.795   9.267   7.016 -0.3843  0.3438  0.2249
 1535W        W 5599   7.397   6.300   9.041 -0.0616  0.1478  0.0485
 1536W        W 5600   3.984   4.949   2.880  0.0868  0.2254  0.0360
 1537W        W 5601   3.167   5.922   1.845 -0.0329 -0.0779 -0.1140
 1538W        W 5602   9.539   9.823   2.244 -0.4838  0.0012 -0.0557
 1539W        W 5603   3.386   4.508   3.160  0.1901  0.2730  0.0557
 1540W        W 5604   9.986   5.879   1.617  0.2908 -0.0721 -0.0355
 1541W        W 5605   1.299   2.462   0.248  0.1474 -0.2435  0.0353
 1542W        W 5606   5.056   3.696   3.754 -0.0018  0.1228 -0.0786
 1543W        W 5607   4.162   8.807   8.323 -0.0166  0.0081 -0.2449
 1544W        W 5608   5.784  10.891  10.998 -0.1622 -0.0937 -0.3497
 1545W        W 5609   8.526   7.666   2.478  0.3346  0.2598  0.1123
 1546W        W 5610   5.092   8.289   9.725  0.2105 -0.1141  0.0230
 1547W        W 5611   6.121   4.667   9.343 -0.1482  0.3296 -0.1561
 1548W        W 5612   5.998   4.727   7.714 -0.3125 -0.0166 -0.0917
 1549W        W 5613   9.401   2.185   1.660 -0.2988  0.0883 -0.1039
 1550W        W 5614   0.756   6.141   9.890  0.1468  0.1899  0.0954
 1551W        W 5615  10.443   3.240  11.050  0.1402  0.0564  0.1029
 1552W        W 5616   3.717  10.224   2.081 -0.0668  0.0791 -0.1421
 1553W        W 5617   4.266   4.474   3.057  0.0185 -0.1662  0.2776
 1554W        W 5618   6.134   7.083   1.178 -0.2402 -0.1391 -0.0771
 1555W        W 5619   5.616   0.329  10.679  0.0255  0.2997 -0.0093
 1556W        W 5620   4.923   6.699   9.529 -0.1191  0.1879  0.1703
 1557W        W 5621   4.097   8.428   1.216 -0.1006  0.1280 -0.0276
 1558W        W 5622   7.415  10.048   0.323 -0.3649  0.1574  0.0227
 1559W        W 5623   3.176   5.342  10.216  0.0237  0.2671 -0.1945
 1560W        W 5624   3.989   2.793   9.366 -0.1827 -0.1838 -0.0502
 1561W        W 5625   2.305   2.029   8.816 -0.0823  0.1933 -0.1791
 1562W        W 5626   8.550   4.837   2.805 -0.0755  0.3313 -0.2341
 1563W        W 5627   2.824   8.972   3.276  0.2272 -0.0060 -0.2685
 1564W        W 5628   1.749   5.893  11.036  0.2879  0.0092 -0.3409
 1565W        W 5629   2.293   4.315   0.812 -0.1095  0.0209  0.0977
 1566W        W 5630   7.666   1.457   9.193  0.2885 -0.0461 -0.2443
 1567W        W 5631   2.111   4.266   8.627 -0.3364  0.5114  0.0832
 1568W        W 5632   3.322   2.438   3.736 -0.1566 -0.0077  0.2140
 1569W        W 5633   3.081   1.679   1.033  0.3458  0.0567  0.2949
 1570W        W 5634   5.121   6.957   8.925 -0.1137 -0.2286 -0.1691
 1571W        W 5635   2.295   6.152   3.340  0.0508 -0.1230 -0.1164
 1572W        W 5636   4.314   1.551   8.645 -0.4506 -0.1591 -0.0492
 1573W        W 5637   8.922   4.736  10.255  0.1033 -0.0002 -0.0077
 1574W        W 5638   5.435   0.626   2.309  0.0868  0.2774  0.2204
 1575W        W 5639   6.609  10.357   8.932  0.2097 -0.2535  0.0992
 1576W        W 5640   4.575   5.243   9.372 -0.1776 -0.2812 -0.0292
 1577W        W 5641   0.754   1.221   0.320 -0.0022  0.6369 -0.0592
 1578W        W 5642   4.760   9.772   3.329  0.3683 -0.3261  0.2636
 1579W        W 5643   0.479   4.405   9.628  0.2582  0.1081 -0.1143
 1580W        W 5644   6.777   6.816   0.547 -0.2046  0.2440 -0.2549
 1581W        W 5645   7.298   7.506   9.427 -0.0913 -0.1422 -0.3230
 1582W        W 5646   0.016   8.497  10.931 -0.1435 -0.2401 -0.1878
 1583W        W 5647   6.448   9.864   0.492  0.1537 -0.0145 -0.1538
 1584W        W 5648   2.828   4.556   2.237  0.2482  0.2684 -0.0436
 1585W        W 5649   4.542   3.282   0.593 -0.1766  0.1135 -0.0397
 1586W        W 5650   6.073   0.800  10.701  0.2468 -0.1149  0.0902
 1587W        W 5651   2.587   7.408  10.086 -0.0274  0.1258  0.1758
 1588W        W 5652   8.419   6.188   2.643  0.1222 -0.2402  0.1529
 1589W        W 5653   8.153   6.315   8.756 -0.0684 -0.2605  0.2748
 1590W        W 5654   5.774   4.357   9.223  0.0112 -0.0565  0.0474
 1591W        W 5655   7.796  10.638  10.619 -0.3872 -0.0417  0.1209
 1592W        W 5656   5.371  10.114   1.262 -0.0524  0.0836  0.3305
 1593W        W 5657   1.090   2.668   1.645 -0.0199  0.3198  0.1245
 1594W        W 5658   2.790   7.762   0.787  0.1421  0.0392 -0.1927
 1595W        W 5659   0.837   4.210   9.957  0.1743  0.0971 -0.3031
 1596W        W 5660   1.531   0.382   8.129 -0.1504  0.1621  0.1666
 1597W        W 5661   4.415   3.452   3.249  0.2540 -0.2010 -0.1633
 1598W        W 5662   9.526   4.499  10.724  0.2915 -0.1447  0.1090
 1599W        W 5663   8.622  10.407   0.077 -0.2454 -0.0749  0.1840
 1600W        W 5664   5.435   6.004   4.147  0.0227 -0.0395 -0.0819
 1601W        W 5665   1.262   4.461   1.366 -0.4686  0.2145  0.1611
 1602W        W 5666   6.973   5.892   0.327  0.0377 -0.1039 -0.1116
 1603W        W 5667   3.159   1.788   3.027 -0.0916  0.0062  0.1241
 1604W        W 5668   5.155   1.575   9.006  0.1186 -0.0964  0.0201
 1605W        W 5669   6.285   0.441   0.318 -0.1489 -0.2288 -0.1268
 1606W        W 5670   4.654   5.703   0.618  0.0338  0.0445  0.0372
 1607W        W 5671  10.565   2.963   8.193  0.1390 -0.1158  0.0983
 1608W        W 5672   7.134   4.010   9.840 -0.1391  0.0901 -0.0118
 1609W        W 5673   8.896   5.025   0.090  0.1185 -0.0791 -0.3117
 1610W        W 5674   1.468   2.721   3.375  0.1452  0.0935 -0.0529
 1611W        W 5675   6.635   2.605   3.452 -0.0032 -0.0535  0.0419
 1612W        W 5676   6.150   7.300   9.493  0.0515  0.1821 -0.0887
 1613W        W 5677   7.968   6.105   2.740 -0.0076 -0.2530 -0.2253
 1614W        W 5678   7.652   0.414   3.918 -0.1343  0.3107 -0.2482
 1615W        W 5679   4.050   4.382   1.590  0.4860 -0.2381 -0.0383
 1616W        W 5680   7.646  10.859   7.989 -0.0283  0.2163 -0.2168
 1617W        W 5681   0.060   6.730   8.355  0.0098 -0.0598  0.3401
 1618W        W 5682  10.298   8.604   0.751  0.0083  0.1897  0.0955
 1619W        W 5683   9.319   8.407   9.846  0.0573  0.1856  0.1045
 1620W        W 5684   2.736   8.007   2.098  0.2903 -0.1574  0.0650
 1621W        W 5685   8.267   9.036   8.793 -0.2177 -0.0117 -0.0537
 1622W        W 5686   6.809   3.636   9.540 -0.1279 -0.0301  0.1352
 1623W        W 5687   5.046   2.102   9.645  0.0288  0.1744  0.0471
 1624W        W 5688   5.962   8.961  10.878 -0.0598 -0.0361  0.1587
 1625W        W 5689   3.630   1.394   9.912  0.2177 -0.0845 -0.1047
 1626W        W 5690   7.662   5.170  10.887  0.0690 -0.2523  0.1686
 1627W        W 5691   3.834   9.856   0.325  0.0384 -0.0013  0.0574
 1628W        W 5692   9.410   3.012   9.097 -0.1951 -0.2591 -0.1127
 1629W        W 5693   2.779   0.056   1.429 -0.0567  0.2100 -0.0934
 1630W        W 5694   2.070  10.693  10.305 -0.0494  0.1161  0.0431
 1631W        W 5695   2.139   7.218   1.165  0.2987  0.1733  0.0633
 1632W        W 5696   1.603   3.515   9.570 -0.0563 -0.2288 -0.3311
 1633W        W 5697   4.323   5.934   9.131 -0.0823  0.1119  0.2447
 1634W        W 5698   1.610   8.040   4.773  0.1008  0.0345  0.1321
 1635W        W 5699   1.493  10.686   9.310 -0.2349  0.2129  0.0823
 1636W        W 5700   6.197   0.622   8.409 -0.0564  0.2839 -0.3804
 1637W        W 5701   0.973   6.482   7.937  0.0402  0.0440 -0.1554
 1638W        W 5702   4.193   5.226   1.268 -0.1435 -0.0478  0.0627
 1639W        W 5703   4.939   7.378   1.744 -0.0621 -0.0872 -0.0278
 1640W        W 5704   4.169   8.640   3.044 -0.1833  0.0468 -0.0981
 1641W        W 5705   6.003   5.844   8.715  0.0047 -0.1686 -0.0451
 1642W        W 5706   5.651   6.846   7.200  0.2823 -0.0188 -0.1303
 1643W        W 5707   5.063   6.236   8.620  0.0098 -0.2773  0.1959
 1644W        W 5708   1.422   1.110   1.329  0.1630  0.1546  0.2078
 1645W        W 5709   1.741   3.849   1.464  0.2012  0.0494 -0.3123
 1646W        W 5710   3.345   8.502   1.075  0.0108 -0.3701 -0.0341
 1647W        W 5711   6.444   5.816   9.809 -0.1374 -0.2223  0.1742
 1648W        W 5712   6.948   6.458   0.931  0.0176 -0.0242  0.4571
 1649W        W 5713   4.661   1.026   7.795  0.0029  0.0238 -0.1487
 1650W        W 5714   0.227   1.201   7.776 -0.2029  0.4364 -0.0498
 1651W        W 5715   5.327   9.528  10.881 -0.3502 -0.0739 -0.1015
 1652W        W 5716   2.799   6.434   7.759 -0.1611 -0.0839 -0.2460
 1653W        W 5717   5.865   0.406   3.092 -0.0126  0.1989  0.1838
 1654W        W 5718   0.790   9.646   0.830  0.0778  0.1145 -0.0649
 1655W        W 5719   5.489  10.503   9.625 -0.0464  0.1161 -0.3462
 1656W        W 5720  10.725   9.236   2.080  0.0777 -0.0066 -0.1644
 1657W        W 5721   6.734   4.858   2.746  0.3750  0.0186 -0.2705
 1658W        W 5722   7.000   6.287   0.028  0.0107  0.2110 -0.2472
 1659W        W 5723  10.671  10.517  10.033 -0.2260  0.0703  0.1858
 1660W        W 5724  10.778  10.190   1.515  0.3089 -0.0189 -0.0173
 1661W        W 5725   1.789   1.686   1.713  0.0541  0.1003 -0.0098
 1662W        W 5726   0.418   2.221   9.017 -0.0430  0.4018 -0.0380
 1663W        W 5727   6.362   5.815   7.732  0.3335 -0.2100 -0.0139
 1664W        W 5728  10.559   2.410   9.428  0.0021 -0.1036 -0.2148
 1665W        W 5729   6.518   4.325   0.945  0.1628 -0.2283 -0.0303
 1666W        W 5730   0.680   7.119   0.881  0.0945 -0.3054 -0.1426
 1667W        W 5731   0.893   0.009   1.482  0.0206 -0.2025 -0.1075
 1668W        W 5732   3.226   1.165   1.833 -0.0151  0.2610  0.1844
 1669W        W 5733   6.480   4.785   8.497 -0.0554  0.3258 -0.1438
 1670W        W 5734  10.390   6.218   1.419 -0.0437 -0.3772 -0.1288
 1671W        W 5735   9.863   9.453   2.795 -0.0979  0.0990  0.1576
 1672W        W 5736   3.594   0.934   1.532 -0.0118  0.0607 -0.1855
 1673W        W 5737  10.023   5.017   9.804 -0.2182 -0.2471 -0.3395
 1674W        W 5738   2.138  10.513  10.888  0.3657 -0.0342 -0.0008
 1675W        W 5739   1.949   1.799   8.294 -0.2903 -0.2529  0.0495
 1676W        W 5740   1.977   4.961   9.759 -0.2587 -0.0471 -0.1983
 1677W        W 5741  10.125  10.598   2.134  0.0689 -0.1433 -0.1140
 1678W        W 5742  10.180   3.610   9.389  0.1707  0.1854  0.3161
 1679W        W 5743   3.748   1.173  10.756  0.1550  0.0357  0.1019
 1680W        W 5744   4.122   1.941  10.291 -0.2229 -0.0168 -0.2858
 1681W        W 5745  10.584   5.889   0.085  0.0111 -0.2857  0.0968
 1682W        W 5746   5.120   9.133   7.805  0.5368 -0.1954  0.3663
 1683W        W 5747   4.152   4.783  10.132  0.2334  0.2224 -0.1567
 1684W        W 5748   2.595   0.073   8.523  0.2346 -0.0331  0.1522
 1685W        W 5749   5.241   6.719   7.514 -0.1771  0.2240 -0.0107
 1686W        W 5750   6.192   0.452   2.690  0.0891 -0.2529  0.0307
 1687W        W 5751   2.908   2.780  10.862  0.2463 -0.4536 -0.2256
 1688W        W 5752   9.199   1.796   8.404  0.1772  0.1144 -0.1051
 1689W        W 5753   5.243   8.444   2.797  0.2572  0.0942 -0.2282
 1690W        W 5754   8.610   0.660   2.822 -0.0060 -0.0070  0.0382
 1691W        W 5755   3.224  10.303   9.945  0.2500 -0.1924 -0.1641
 1692W        W 5756   9.209   3.999   0.367  0.1973  0.1096  0.2446
 1693W        W 5757   2.331   9.259   7.606 -0.1902  0.1728 -0.0501
 1694W        W 5758   5.740  10.051   0.858 -0.0635 -0.0322 -0.0960
 1695W        W 5759   5.680   0.702   2.763  0.0743 -0.0742  0.0177
 1696W        W 5760   1.355   4.134  10.282  0.1209 -0.0862 -0.2548
 1697W        W 5761   5.117   9.110   2.154  0.0824 -0.1548 -0.1600
 1698W        W 5762   8.896   3.180   0.823 -0.0746  0.1995 -0.1165
 1699W        W 5763   7.260   1.175   3.462  0.0944  0.0563  0.1045
 1700W        W 5764   6.392   0.895   2.576  0.2597 -0.1837  0.1843
 1701W        W 5765  10.619   8.994   3.998 -0.1659  0.0356 -0.0731
 1702W        W 5766   5.885   6.381   9.544  0.1607  0.0093  0.2084
 1703W        W 5767   9.526   0.197   1.742  0.3277 -0.0345 -0.0517
 1704W        W 5768   1.048  10.165   2.778  0.0085  0.1653  0.3742
 1705W        W 5769   6.828   1.720   0.440 -0.0966  0.1140 -0.1628
 1706W        W 5770   8.125   3.386   2.587  0.3251 -0.4771 -0.1949
 1707W        W 5771   5.358   2.127   2.783 -0.1808 -0.2926  0.4256
 1708W        W 5772   9.908   0.342   8.826  0.6432 -0.1835  0.1596
 1709W        W 5773   3.419   7.678   8.782 -0.2356 -0.0367 -0.1333
 1710W        W 5774   0.085   3.860  10.623 -0.2754 -0.3792 -0.0363
 1711W        W 5775   2.168   7.638   1.398  0.2059 -0.3332  0.1744
 1712W        W 5776   9.069   5.324   8.236  0.0800  0.0086  0.1811
 1713W        W 5777   4.688   4.774   1.027 -0.0138  0.2473 -0.1878
 1714W        W 5778   6.530   4.814  10.840  0.1799 -0.1439  0.2609
 1715W        W 5779   6.060   1.591   9.041  0.0261  0.1306 -0.0323
 1716W        W 5780   7.690   5.542   2.767 -0.3518 -0.0927 -0.0169
 1717W        W 5781   0.618  10.384   0.691  0.0618  0.2377  0.2491
 1718W        W 5782   7.356   5.929   8.197 -0.0366  0.0388  0.0779
 1719W        W 5783   9.463   3.168   3.063 -0.0524  0.2133 -0.0204
 1720W        W 5784  10.084   1.572   3.495 -0.2725  0.1085 -0.2079
 1721W        W 5785   3.953   8.001   8.550  0.2298 -0.0931  0.0799
 1722W        W 5786   7.775   2.285  10.173  0.0573  0.0389  0.1109
 1723W        W 5787   5.211  10.850   9.386  0.4425  0.1978  0.0155
 1724W        W 5788   1.254   8.631   9.048 -0.1734 -0.2402  0.3274
 1725W        W 5789   9.536   2.773   8.340 -0.2031 -0.0172  0.3337
 1726W        W 5790   0.154   6.702   9.831  0.0458 -0.1135 -0.0827
 1727W        W 5791   1.996  10.872   1.086  0.0704  0.0308  0.1313
 1728W        W 5792   4.508   2.007   4.021 -0.1471  0.1677 -0.1043
 1729W        W 5793   8.395   0.621   0.851 -0.1363  0.0602 -0.1210
 1730W        W 5794   8.105   0.242   1.383 -0.1459  0.1729  0.1696
 1731W        W 5795   5.149   2.586   0.156 -0.3084 -0.2390  0.4498
 1732W        W 5796   6.372   3.488   0.747 -0.1536 -0.0654 -0.1097
 1733W        W 5797   9.072   7.387  10.346  0.1373  0.1696  0.2253
 1734W        W 5798   8.156   1.152   0.975 -0.2031  0.3212  0.1925
 1735W        W 5799   3.832   4.292  10.087 -0.0524  0.2452  0.0996
 1736W        W 5800   8.219  10.240   1.030 -0.0642  0.2744  0.1921
 1737W        W 5801   2.249  10.438   8.983  0.0447 -0.5113  0.2043
 1738W        W 5802   2.490   1.600   9.857 -0.0565 -0.0362  0.0117
 1739W        W 5803   0.549  10.644   9.505 -0.2549 -0.0822 -0.1038
 1740W        W 5804   3.134   9.620   2.510  0.0655  0.3390  0.1762
 1741W        W 5805   2.881   3.839  10.155  0.0213  0.0216  0.0307
 1742W        W 5806   0.553   0.985   2.350  0.1560 -0.2061  0.1074
 1743W        W 5807   8.979   8.598   2.450 -0.0715 -0.1455  0.3149
 1744W        W 5808   2.015   1.523  10.174  0.0687 -0.0172 -0.2936
 1745W        W 5809   2.549   3.915   7.943  0.1018 -0.1007 -0.0574
 1746W        W 5810  10.840   8.626   8.155 -0.3666 -0.1482 -0.0843
 1747W        W 5811   5.176   6.108   1.492 -0.2204  0.1043  0.2680
 1748W        W 5812   2.739   0.582   8.396 -0.0106  0.0360 -0.1147
 1749W        W 5813   8.204   0.480   3.045 -0.0291 -0.1308 -0.0185
 1750W        W 5814   6.169   8.401   9.532  0.5290 -0.2725  0.2394
 1751W        W 5815   5.499   4.256   2.932 -0.0955  0.0758 -0.3892
 1752W        W 5816   3.171   3.304  10.821  0.1742  0.3398  0.1215
 1753W        W 5817   0.041   3.663   0.865 -0.2467 -0.2106  0.0454
 1754W        W 5818   9.297   5.245   8.696 -0.2258  0.0041  0.2171
 1755W        W 5819   3.188   9.883   8.653  0.0163  0.1531 -0.1619
 1756W        W 5820   3.912   8.658   2.616  0.3944 -0.0154 -0.3635
 1757W        W 5821   0.357   8.694   2.034 -0.2443 -0.2337  0.2209
 1758W        W 5822  10.242   8.824   8.171  0.1198 -0.0022 -0.1405
 1759W        W 5823   7.345   7.874   8.932 -0.0138 -0.2419  0.0119
 1760W        W 5824   4.015   6.047   1.144 -0.0338 -0.0632 -0.0369
 1761W        W 5825   5.564  10.511   0.963  0.2146  0.1283 -0.1704
 1762W        W 5826   9.718   0.527   2.656 -0.2993 -0.2000 -0.0290
 1763W        W 5827   5.211   6.662   8.344  0.1452 -0.1422  0.0171
 1764W        W 5828   5.133   3.696   7.962 -0.1360 -0.0231 -0.2345
 1765W        W 5829   4.907   4.674   8.005  0.1155  0.3210  0.0902
 1766W        W 5830   1.541  10.243   0.888 -0.4002  0.0473  0.0604
 1767W        W 5831   4.731   8.053   0.659 -0.0364  0.4480 -0.4693
 1768W        W 5832   7.308  10.101   7.445 -0.3152  0.3279  0.3002
 1769W        W 5833   5.792   8.498   1.567 -0.0623  0.0099  0.3665
 1770W        W 5834   3.818   5.599   1.111  0.0337 -0.1787 -0.3063
 1771W        W 5835   0.531   4.817   2.712  0.2777 -0.1819  0.0913
 1772W        W 5836   9.351   7.044   8.011 -0.4391  0.1430  0.1087
 1773W        W 5837   5.573   4.692   8.766 -0.1364 -0.2580  0.0441
 1774W        W 5838   0.022   5.245   1.089 -0.2006  0.0795  0.1076
 1775W        W 5839   9.967   8.946   1.017 -0.0871 -0.0685 -0.0509
 1776W        W 5840   3.369  10.772   0.264  0.0330  0.3691  0.2007
 1777W        W 5841   4.356   6.750  10.827 -0.1353  0.2951 -0.2264
 1778W        W 5842   6.898   8.203  10.309 -0.1726 -0.2702 -0.0134
 1779W        W 5843   9.379   2.681   3.161 -0.0747 -0.0472  0.0422
 1780W        W 5844   2.807   7.151   1.910 -0.1295 -0.1647  0.1537
 1781W        W 5845   7.341   4.281   0.034  0.1019  0.1427 -0.1410
 1782W        W 5846  10.500   3.603   1.967 -0.0783 -0.1159  0.2183
 1783W        W 5847   3.232   9.564  10.596 -0.0068  0.1476 -0.0283
 1784W        W 5848   1.847   6.361   8.696  0.1681 -0.3688 -0.1802
 1785W        W 5849   9.943   4.610   0.071 -0.2255  0.3836 -0.2663
 1786W        W 5850   1.451   0.920   0.096  0.1548 -0.1236 -0.1261
 1787W        W 5851   3.083   8.990  10.690 -0.0117  0.3233  0.7135
 1788W        W 5852   2.618   7.300   6.992  0.0120 -0.1032  0.2957
 1789W        W 5853   4.682   9.396   1.993  0.2000  0.0084 -0.2196
 1790W        W 5854   1.043   7.207   0.445 -0.1434 -0.2136 -0.2568
 1791W        W 5855   8.076   8.841   2.718  0.0398 -0.3734  0.1167
 1792W        W 5856   6.346   4.844   0.992  0.2114  0.1264  0.0461
 1793W        W 5857   1.853   5.569   9.159 -0.0448  0.2707 -0.0273
 1794W        W 5858   6.203   6.268  10.631 -0.0950 -0.1387 -0.0108
 1795W        W 5859   8.737   7.758   7.748  0.2584 -0.0644 -0.1532
 1796W        W 5860   4.763  10.616  10.354 -0.1571  0.1866  0.2126
 1797W        W 5861   2.609   3.801   0.921  0.0573  0.0221 -0.1376
 1798W        W 5862   6.606   2.724   2.026  0.1965  0.2070  0.0438
 1799W        W 5863   0.199   1.973   0.891 -0.0713  0.1363 -0.1828
 1800W        W 5864   9.428   5.655   8.124 -0.1338  0.0232 -0.0254
 1801W        W 5865   2.958   3.462   0.740  0.1560  0.0208  0.0800
 1802W        W 5866   2.928   2.806   8.625  0.1413  0.0594  0.1627
 1803W        W 5867   2.124   2.908  10.160  0.4531 -0.2566  0.1312
 1804W        W 5868   3.887   6.049  11.014  0.2027 -0.0892  0.1311
 1805W        W 5869   7.757   7.761   8.721  0.0928  0.2034  0.1596
 1806W        W 5870   6.152   4.099   2.564 -0.1153  0.4680 -0.0672
 1807W        W 5871   1.428   0.365   0.204  0.1192  0.0133  0.0994
 1808W        W 5872   9.351   0.499  11.061 -0.2963  0.2183 -0.3437
 1809W        W 5873   6.049   5.032   8.646  0.1031 -0.4044 -0.3038
 1810W        W 5874   4.177   8.169  10.983  0.1432  0.0120  0.1527
 1811W        W 5875   9.701  10.531   1.100  0.1363  0.0278  0.1608
 1812W        W 5876   0.994   9.336   8.729  0.0027 -0.1590  0.3190
 1813W        W 5877   9.459   0.143   8.990 -0.1139  0.1095 -0.1153
 1814W        W 5878  10.200   7.915   8.444 -0.1743 -0.2510 -0.1785
 1815W        W 5879   3.686   8.453   8.817  0.0100 -0.3180  0.2119
 1816W        W 5880   1.996   1.842   0.871 -0.3359  0.3152 -0.0435
 1817W        W 5881   8.746   7.064   9.499 -0.0404  0.1286  0.0798
 1818W        W 5882   1.238   5.083   2.102  0.1263 -0.3149 -0.1499
 1819W        W 5883   1.163   3.848   9.604  0.0297  0.2581  0.0545
 1820W        W 5884   2.988   8.467   7.523  0.0075  0.2448  0.1477
 1821W        W 5885   5.125   7.143   1.133 -0.0013  0.1708  0.1617
 1822W        W 5886   0.525   0.643   7.310  0.0523 -0.2980 -0.1502
 1823W        W 5887   9.077   0.947  10.714  0.3246 -0.0327  0.0456
 1824W        W 5888   1.050   1.455  10.114  0.0187  0.1829  0.1253
 1825W        W 5889   3.729   5.592   8.055 -0.1757 -0.1518  0.2212
 1826W        W 5890   6.221   6.690   0.475  0.2461 -0.0405  0.3380
 1827W        W 5891   6.282   1.830   1.410  0.0137  0.1082  0.1004
 1828W        W 5892   2.978   9.429   3.460  0.2010  0.0580 -0.1360
 1829W        W 5893   0.195   8.400   9.097  0.2332 -0.0067 -0.0445
 1830W        W 5894   7.438   7.128   0.708  0.1136 -0.1892  0.1528
 1831W        W 5895   5.566   8.873   2.207 -0.0832  0.0152  0.0573
 1832W        W 5896   5.128   8.149   2.406  0.0683 -0.1406  0.2958
 1833W        W 5897   8.358   9.639   7.691 -0.3436 -0.0921  0.0825
 1834W        W 5898   5.947   8.499   2.126 -0.2133  0.0049  0.0210
 1835W        W 5899   9.385   1.980   9.296 -0.0301 -0.2677 -0.3107
 1836W        W 5900   2.193   1.549   1.301 -0.2806 -0.1632  0.0410
 1837W        W 5901   5.656   5.530   1.592 -0.0275 -0.2813 -0.1851
 1838W        W 5902   0.811   1.619   3.255 -0.5340  0.1459 -0.0211
 1839W        W 5903   9.237   1.554   0.410 -0.1796  0.0909 -0.1023
 1840W        W 5904  10.524   8.389  10.556 -0.1463 -0.1209  0.3731
 1841W        W 5905   2.171   5.881   9.421 -0.1851  0.1120  0.1659
 1842W        W 5906   9.347   3.504   0.207  0.0155  0.2856  0.1727
 1843W        W 5907   4.713   7.627   1.253  0.2352 -0.2198  0.2233
 1844W        W 5908   7.895   9.887   1.243 -0.2988  0.0405  0.2780
 1845W        W 5909   7.692  10.440   9.175  0.1797  0.0754  0.0494
 1846W        W 5910   5.067  10.052   8.450  0.0029 -0.1999  0.1409
 1847W        W 5911   5.833   4.597  10.272 -0.2680 -0.1487 -0.0107
 1848W        W 5912   3.340  10.390  10.456 -0.2904  0.5507  0.1196
 1849W        W 5913   4.134   9.749  11.014  0.0087  0.1110  0.2311
 1850W        W 5914   6.756  10.469   3.160 -0.1265  0.1148  0.0503
 1851W        W 5915   5.615   2.438   9.213 -0.1424  0.0675 -0.4262
 1852W        W 5916   8.377   8.098   8.350  0.0956  0.0693 -0.0677
 1853W        W 5917   8.150   0.900   8.442 -0.3056  0.0093  0.0776
 1854W        W 5918   6.152   9.201   2.732 -0.1375  0.0752 -0.1109
 1855W        W 5919   8.626   6.168   9.593  0.1013 -0.0921  0.0646
 1856W        W 5920   6.808   9.998   9.343 -0.0621 -0.1100  0.1009
 1857W        W 5921   0.919   7.581   8.274  0.2116 -0.0159  0.0823
 1858W        W 5922   3.020  10.716   2.958  0.4083 -0.1669 -0.1620
 1859W        W 5923   5.571   7.524   1.568  0.0242  0.1254 -0.0270
 1860W        W 5924   0.226   6.367  10.181  0.1119  0.1478 -0.0171
 1861W        W 5925   5.200   4.486   7.610 -0.0231  0.1298 -0.1658
 1862W        W 5926  10.432   7.888   7.945 -0.0243 -0.4279 -0.1348
 1863W        W 5927   1.637   9.456   3.014 -0.0917 -0.2014  0.1656
 1864W        W 5928   4.595  10.096  10.253 -0.0702  0.2215 -0.0848
 1865W        W 5929  10.440  10.251   2.816 -0.3373 -0.0640 -0.0803
 1866W        W 5930   7.721   8.260   9.653 -0.2708  0.0237  0.1663
 1867W        W 5931   5.516   5.800   1.196 -0.0531 -0.0208 -0.2258
 1868W        W 5932   4.066   0.619   2.608 -0.1313  0.2274 -0.1049
 1869W        W 5933   7.521   1.291   8.023 -0.1097  0.1193  0.2439
 1870W        W 5934   5.954   8.191  10.425  0.0397 -0.2712  0.0346
 1871W        W 5935   7.627   8.088   2.898 -0.1632 -0.2331  0.0772
 1872W        W 5936   2.756   1.419   8.177 -0.0028 -0.3140 -0.1629
 1873W        W 5937   0.508   7.918   9.114  0.0070  0.0037 -0.0775
 1874W        W 5938   4.091   8.147   1.608  0.0891  0.0856 -0.0327
 1875W        W 5939   3.669   4.188   0.723 -0.2836 -0.2581  0.2891
 1876W        W 5940   6.783   7.650   2.799  0.3828 -0.0603 -0.4455
 1877W        W 5941   9.639   7.932   1.830  0.0869 -0.0841  0.1574
 1878W        W 5942  10.888   5.160  10.856  0.2248  0.0754 -0.0484
 1879W        W 5943   4.903   8.059   9.297  0.2221 -0.2922  0.2182
 1880W        W 5944  10.373   9.306   8.274  0.2138  0.1929 -0.0096
 1881W        W 5945   5.194   7.941   8.868  0.1252  0.1857  0.2618
 1882W        W 5946   2.888   9.204   1.173  0.0002 -0.3426  0.1811
 1883W        W 5947   9.355   0.206   7.982  0.2484  0.2139  0.0130
 1884W        W 5948   8.773   1.516   8.276  0.1629 -0.2253  0.1378
 1885W        W 5949   6.905   7.583   8.570 -0.1069 -0.0623 -0.2413
 1886W        W 5950   4.856   0.586   1.264  0.1146  0.2775  0.2079
 1887W        W 5951   1.844   7.308  10.679  0.1544 -0.1164  0.1760
 1888W        W 5952   5.434   4.901  10.466 -0.0294 -0.0914 -0.0020
 1889W        W 5953   0.476   0.079   3.373  0.1364  0.0323 -0.0110
 1890W        W 5954   5.206   4.957   3.428  0.0244  0.1509  0.3867
 1891W        W 5955   9.612   3.411   1.966 -0.1730 -0.4036  0.0066
 1892W        W 5956   5.411   1.156   8.901 -0.2068  0.0350  0.0288
 1893W        W 5957   9.708   9.116   9.054 -0.2188 -0.1801 -0.1878
 1894W        W 5958   8.751   5.673  10.920  0.1349 -0.1335 -0.0299
 1895W        W 5959   9.784  10.080   8.239  0.0607  0.0804  0.1251
 1896W        W 5960   5.913  10.517   2.452 -0.0627 -0.2063  0.2295
 1897W        W 5961   3.692   0.773   7.952  0.1002 -0.2133 -0.1142
 1898W        W 5962   5.278   0.783   3.246 -0.2189  0.0275 -0.1567
 1899W        W 5963   5.767   2.680   3.703 -0.2878  0.1472 -0.0581
 1900W        W 5964   6.341   2.844   1.129 -0.1328 -0.0412 -0.1319
 1901W        W 5965   8.888   6.498   8.156  0.0925  0.1616  0.1369
 1902W        W 5966   3.756   6.569   7.577  0.0824 -0.1144  0.0233
 1903W        W 5967   6.401   4.183   0.477  0.0289  0.0245 -0.1166
 1904W        W 5968   8.342   4.822   2.344  0.1089  0.0127  0.0587
 1905W        W 5969   8.345   8.208   9.722 -0.1353  0.1460  0.0520
 1906W        W 5970   5.313   1.980   9.271 -0.2499  0.2165  0.1082
 1907W        W 5971   1.027   0.456   9.965  0.3023  0.2970  0.0789
 1908W        W 5972   2.367   0.698   0.144 -0.2067  0.1357 -0.2989
 1909W        W 5973   3.804   0.906   9.993 -0.0605  0.0808 -0.1230
 1910W        W 5974   4.762   6.415   1.714 -0.1676  0.1989  0.0972
 1911W        W 5975   4.113   2.977   3.293 -0.0354 -0.0019  0.1893
 1912W        W 5976   4.368  10.726   1.508 -0.0891 -0.1608  0.1901
 1913W        W 5977   7.547   8.337   2.328 -0.2678 -0.1068 -0.1595
 1914W        W 5978   5.589   2.351   2.216 -0.2138  0.0980 -0.1922
 1915W        W 5979  10.684   4.393   3.400  0.1629  0.2067 -0.2987
 1916W        W 5980   3.824   1.203   0.650 -0.0008  0.1523  0.0515
 1917W        W 5981   0.383   2.195   0.106 -0.2676 -0.2856  0.0485
 1918W        W 5982   4.493   1.034   0.475  0.0362  0.1400 -0.0774
 1919W        W 5983   8.709   6.323   0.988  0.1842 -0.0043 -0.2728
 1920W        W 5984   2.914  10.498   0.513  0.0872  0.2044 -0.0968
 1921W        W 5985   9.041   1.198  10.252  0.0142 -0.0650 -0.2019
 1922W        W 5986   1.094   1.137   2.485 -0.0114  0.4114  0.1140
 1923W        W 5987   5.295   3.786   1.225  0.1703 -0.0697 -0.0308
 1924W        W 5988   0.037   4.567   9.236 -0.1954  0.1501 -0.2226
 1925W        W 5989   4.680   6.956   2.535  0.2568  0.2096  0.2222
 1926W        W 5990   6.176  10.744   4.026  0.2307  0.0267  0.0537
 1927W        W 5991   9.695   9.130   9.550  0.0547 -0.0748  0.1752
 1928W        W 5992   1.923  10.166  10.652 -0.0149 -0.1528 -0.0998
 1929W        W 5993   0.954   4.915   2.951  0.3006 -0.2088  0.1102
 1930W        W 5994   8.913   0.890   1.510 -0.0798  0.2232 -0.0405
 1931W        W 5995   6.266  10.373   8.526  0.3866  0.1639  0.3172
 1932W        W 5996   1.820   1.360  10.610 -0.0848 -0.0407  0.0196
 1933W        W 5997   4.629  10.120   1.162  0.0409 -0.0369 -0.0928
 1934W        W 5998   3.151   1.246   0.491 -0.0368  0.0467  0.2394
 1935W        W 5999   6.581   6.637   0.059  0.1793  0.2470 -0.1795
 1936W        W 6000   6.492   7.154   0.242  0.2049 -0.3149 -0.0082
 1937W        W 6001   5.186   4.536   0.969 -0.2117 -0.2264  0.2839
 1938W        W 6002   5.311   8.723   9.519  0.1789 -0.1660 -0.1639
 1939W        W 6003   1.772  10.399   0.124  0.2356  0.1468  0.1747
 1940W        W 6004   2.347   5.937  10.085  0.0085 -0.1085  0.1592
 1941W        W 6005   4.031   7.639   1.630  0.1935  0.1134  0.0591
 1942W        W 6006   6.946   2.384   2.152 -0.0825  0.1072  0.2281
 1943W        W 6007  10.073   3.450   7.461 -0.0582  0.0857 -0.0813
 1944W        W 6008   9.982   0.791   9.593  0.0949 -0.2374 -0.2955
 1945W        W 6009   3.163   9.893  10.243 -0.3151 -0.3119  0.1682
 1946W        W 6010   7.155   6.611   9.362  0.2074 -0.0452  0.0124
 1947W        W 6011   2.179   9.626   3.190  0.0783  0.1478  0.1659
 1948W        W 6012  10.314   5.234  10.404 -0.1107 -0.1200  0.0060
 1949W        W 6013   9.994   8.186   7.722 -0.1327 -0.0584  0.1269
 1950W        W 6014   6.292   4.644   2.761  0.0466 -0.1166  0.0327
 1951W        W 6015   8.646   3.509   9.625  0.2910 -0.3394  0.0928
 1952W        W 6016   4.981   8.252   1.920 -0.2410  0.0733  0.2230
 1953W        W 6017   8.820   2.847   1.809 -0.2666  0.0310  0.0475
 1954W        W 6018   1.231   5.702   1.308 -0.0899  0.0942  0.1377
 1955W        W 6019   7.458   7.574  10.809 -0.1178 -0.0101 -0.0580
 1956W        W 6020   8.609   8.869   3.317  0.0939  0.1829  0.3192
 1957W        W 6021   4.078   6.159   8.019 -0.0582 -0.0750 -0.2286
 1958W        W 6022   5.161   5.577   0.856  0.0780 -0.0573  0.0259
 1959W        W 6023   8.712   9.624   3.860  0.1344  0.1632 -0.2935
 1960W        W 6024   1.860   4.327  10.172 -0.1662 -0.0154 -0.0236
 1961W        W 6025   4.385   7.208   9.494 -0.3215  0.3386  0.0814
 1962W        W 6026   9.908   7.024   1.183  0.2869  0.1218  0.0024
 1963W        W 6027   5.054   1.741   7.744  0.0794 -0.1817  0.1515
 1964W        W 6028   2.197   7.255   7.330  0.1119 -0.0013  0.0545
 1965W        W 6029   0.024   9.765   9.115 -0.2847  0.0244  0.0225
 1966W        W 6030  10.555   5.362   9.416 -0.0486 -0.3106  0.2827
 1967W        W 6031  10.181   5.709   2.046  0.1306  0.2933 -0.0471
 1968W        W 6032   1.569   0.709   1.054  0.0616  0.2551 -0.0540
 1969W        W 6033   3.399   2.573   8.470  0.0251 -0.1711 -0.4475
 1970W        W 6034   6.623   9.632   3.899  0.0540  0.2310 -0.0032
 1971W        W 6035  10.578   0.121   9.935  0.0614  0.1613  0.3099
 1972W        W 6036   5.152   7.396   0.040 -0.2165 -0.3448 -0.1157
 1973W        W 6037   3.647   0.410   1.287 -0.0976  0.2530 -0.0148
 1974W        W 6038  10.737   3.087   2.748 -0.0428 -0.1818  0.1388
 1975W        W 6039   1.808  10.231   7.910  0.1355  0.4570  0.2552
 1976W        W 6040   0.065   2.562   9.084  0.0003  0.0469  0.1012
 1977W        W 6041   9.922   7.342   7.328  0.2032 -0.0115  0.0204
 1978W        W 6042   9.578   9.573   9.818  0.0906 -0.1207  0.1504
 1979W        W 6043   8.880   3.409   1.994  0.3429  0.1317 -0.1522
 1980W        W 6044  10.225   7.058   9.633  0.1689  0.0071  0.0061
 1981W        W 6045   3.494   6.059   8.086  0.0802  0.0464  0.1517
 1982W        W 6046   2.783   5.589   7.353 -0.1547 -0.1620 -0.0943
 1983W        W 6047   4.355   2.898  10.622  0.0708  0.1932 -0.1175
 1984W        W 6048   4.094   2.533   1.806  0.4351 -0.2638 -0.1780
 1985W        W 6049   8.068   6.796   9.403 -0.1720 -0.3222 -0.0344
 1986W        W 6050   3.995   0.429   7.958  0.0545  0.0459 -0.0143
 1987W        W 6051   0.462   8.243   1.110 -0.1686 -0.1362 -0.1251
 1988W        W 6052  10.224   1.310   8.427  0.0873  0.1598 -0.1832
 1989W        W 6053   4.074   0.784   0.546  0.0391 -0.1364 -0.1690
 1990W        W 6054   0.798   4.062   0.427 -0.0609  0.2275  0.0460
 1991W        W 6055   9.145   4.375   9.266  0.1579  0.0278  0.1558
 1992W        W 6056   7.304   7.812   2.674  0.4698 -0.0011  0.0555
 1993W        W 6057   0.574   3.276   8.889  0.0159 -0.2051 -0.1519
 1994W        W 6058   7.150   0.520   3.028  0.1444  0.0701  0.1544
 1995W        W 6059  10.650  10.394  10.792  0.1901 -0.0145 -0.2777
 1996W        W 6060   2.142   6.010   8.466  0.5367 -0.1396 -0.1930
 1997W        W 6061   9.933   1.442   7.934 -0.1093  0.1330  0.2111
 1998W        W 6062   7.993   3.028   0.311  0.2942  0.0048 -0.2873
 1999W        W 6063   1.388   6.208   7.920  0.0333 -0.0333  0.2837
 2000W        W 6064   2.628   8.242   0.587 -0.0911  0.3444  0.1942
 2001W        W 6065   1.495   1.243  10.178 -0.2585 -0.0516  0.1130
 2002W        W 6066   6.221   6.593  10.247 -0.4582 -0.1417 -0.3726
 2003W        W 6067   6.367   4.356   8.236 -0.5967 -0.0336 -0.0150
 2004W        W 6068   4.969   2.399   4.093 -0.0719 -0.0282  0.0587
 2005W        W 6069   1.905   5.653  10.088 -0.0886 -0.2680 -0.2757
 2006W        W 6070  10.004   2.454   9.507  0.2669 -0.0862  0.0591
 2007W        W 6071   4.082   6.934   3.065  0.2107 -0.1038  0.0963
 2008W        W 6072   5.317   0.176  11.047  0.1763 -0.0755 -0.2717
 2009W        W 6073   7.303   3.521   8.342  0.0626 -0.4913  0.2575
 2010W        W 6074   8.393  10.898   2.206  0.0254 -0.1240 -0.2720
 2011W        W 6075   1.041   5.956  10.349 -0.1577  0.1778  0.1608
 2012W        W 6076   9.370   0.115   3.507  0.0431  0.3027 -0.0659
 2013W        W 6077   1.270   4.401   9.063  0.1558  0.1468  0.1172
 2014W        W 6078   4.114   6.547  10.128 -0.2160 -0.3126 -0.1664
 2015W        W 6079   9.449   4.327   0.091  0.2198 -0.1990 -0.3989
 2016W        W 6080   8.079   5.510   0.944  0.2389 -0.1792 -0.1762
 2017W        W 6081   3.727   4.288   9.551 -0.0490  0.1451 -0.2036
 2018W        W 6082   3.369   3.553   3.160  0.2322 -0.0555  0.0132
 2019W        W 6083   0.953   7.377   7.123 -0.1304  0.1461  0.1570
 2020W        W 6084   7.883   1.334   3.022 -0.1688 -0.2730 -0.0050
 2021W        W 6085   3.429   6.849   0.897  0.1296 -0.1171  0.1106
 2022W        W 6086   5.672   2.914   8.246  0.1601  0.0505  0.3382
 2023W        W 6087   3.915   8.407   2.051  0.0188 -0.2163  0.3449
 2024W        W 6088   3.028   3.285   0.292  0.1283 -0.1053  0.0492
 2025W        W 6089   2.213   4.918  10.943 -0.0155  0.0837 -0.0109
 2026W        W 6090   7.871   5.952   8.053  0.1635 -0.0541  0.1275
 2027W        W 6091   0.939   2.843   3.575  0.1323 -0.3115 -0.3390
 2028W        W 6092   9.439   3.495   0.687  0.0339  0.0318  0.2803
 2029W        W 6093   8.217   4.997   0.945 -0.1502  0.0137  0.0391
 2030W        W 6094   2.729   7.524   8.602  0.1950 -0.0834 -0.1431
 2031W        W 6095   0.531   4.699   1.719  0.2526 -0.0183  0.1135
 2032W        W 6096   1.762  10.225   9.942  0.1339 -0.1402  0.2268
 2033W        W 6097   3.776   7.675   3.358 -0.2138 -0.1232  0.0609
 2034W        W 6098   3.891   4.386   3.486  0.1406 -0.1008  0.2168
 2035W        W 6099   1.670   3.371   8.599  0.1221  0.0661  0.0579
 2036W        W 6100   7.401   5.506   1.926 -0.0364 -0.1595  0.2637
 2037W        W 6101   2.853   6.638   2.699  0.2616  0.0770  0.0153
 2038W        W 6102   5.930   0.687   8.001 -0.1900  0.3473 -0.1567
 2039W        W 6103   1.329   8.400   1.864 -0.0842  0.0366  0.0634
 2040W        W 6104   4.584  10.763  10.802 -0.1763  0.1611 -0.4014
 2041W        W 6105   4.254   8.337   8.226  0.3833  0.1084 -0.2902
 2042W        W 6106   4.692   8.687   7.612  0.0002 -0.0619 -0.3084
 2043W        W 6107   1.386  10.556   8.785  0.0669 -0.0452  0.3892
 2044W        W 6108   2.861   0.549   0.126 -0.1380  0.1935 -0.0966
 2045W        W 6109   2.149   7.880   2.733 -0.3310 -0.0421  0.5123
 2046W        W 6110   9.668   3.954   2.580  0.1455  0.1808 -0.0972
 2047W        W 6111   5.894   2.515   9.973  0.2950 -0.0607 -0.0194
 2048W        W 6112   5.983   6.969   0.092 -0.5309 -0.3481  0.1092
 2049W        W 6113   9.951   7.134  10.815 -0.0666 -0.0544  0.0681
 2050W        W 6114   8.878   3.201   8.430  0.0822 -0.0869  0.3629
 2051W        W 6115   5.224   6.840   0.127  0.2384  0.1131  0.0474
 2052W        W 6116   7.487   8.653   1.300 -0.1522 -0.1043 -0.2520
 2053W        W 6117   8.694   0.994   1.023  0.0204 -0.0991  0.1520
 2054W        W 6118   3.058   4.665   2.625 -0.3502 -0.2177 -0.1037
 2055W        W 6119   3.116   6.212   1.348  0.4587 -0.1613 -0.2030
 2056W        W 6120   3.317   4.380   9.789 -0.1355 -0.2719 -0.0809
 2057W        W 6121   1.282   2.667   8.087  0.2693 -0.1847 -0.1113
 2058W        W 6122   8.593   7.710   8.790 -0.0355 -0.0552  0.1850
 2059W        W 6123   7.901   1.340   1.315  0.1472 -0.1126 -0.4411
 2060W        W 6124   0.604   4.952   6.725 -0.1907  0.1638 -0.1226
 2061W        W 6125   4.787   3.420   8.325 -0.1108 -0.0165 -0.1637
 2062W        W 6126   8.056   3.220   2.047  0.1408 -0.1187  0.0241
 2063W        W 6127   4.089   1.360   9.349 -0.1490 -0.2102 -0.0736
 2064W        W 6128   0.063   8.254   7.331 -0.1019  0.1145 -0.2417
 2065W        W 6129  10.020   0.715   3.090  0.1343  0.3138  0.1239
 2066W        W 6130   7.164   7.678   9.935 -0.0652  0.2333 -0.3401
 2067W        W 6131   6.349   5.493   9.449  0.2595  0.1955  0.2466
 2068W        W 6132   9.326   8.468   3.902 -0.0112  0.0788 -0.0039
 2069W        W 6133   1.239   5.213   8.426 -0.3559 -0.2756  0.0031
 2070W        W 6134   7.703   7.768   2.404  0.2182 -0.3309 -0.0365
 2071W        W 6135   8.615   8.409   9.346  0.3627 -0.2131 -0.0975
 2072W        W 6136   6.163   4.522   8.826  0.3504  0.2890  0.2642
 2073W        W 6137   0.398   5.837   9.227  0.1989  0.0629  0.0293
 2074W        W 6138   2.938   6.528   9.623  0.0767  0.0795 -0.5874
 2075W        W 6139   7.848   0.610  10.704  0.1371 -0.1485  0.0641
 2076W        W 6140   4.607  10.285   8.364 -0.2275  0.2045  0.2888
 2077W        W 6141   3.583   3.495   0.938  0.2429 -0.3911 -0.4699
 2078W        W 6142   7.608   0.224   9.805 -0.1793  0.1835  0.1503
 2079W        W 6143   2.578   3.330   3.037 -0.0286 -0.2376 -0.0378
 2080W        W 6144   5.588   7.452   9.694  0.3307 -0.0201 -0.0028
 2081W        W 6145   8.918   6.002   9.143 -0.0375  0.0301 -0.0736
 2082W        W 6146  10.152  10.100   2.350 -0.4512 -0.1791  0.1440
 2083W        W 6147   1.972   1.105   3.430  0.2392 -0.0518 -0.0804
 2084W        W 6148   8.438   2.019   2.767 -0.0848 -0.0406 -0.2642
 2085W        W 6149   2.474   5.100   0.694  0.0051 -0.1457 -0.1692
 2086W        W 6150   8.127   4.996   8.561  0.0699  0.0152  0.1502
 2087W        W 6151   2.079   8.895   1.767  0.4246  0.2897 -0.3509
 2088W        W 6152   3.139   4.080   3.465 -0.0658 -0.2168  0.1122
 2089W        W 6153   6.340   2.267   8.615  0.2057 -0.0463  0.3214
 2090W        W 6154  10.636   0.071  10.406 -0.0395  0.0827 -0.0993
 2091W        W 6155   3.685   6.174   2.060  0.1021  0.0266  0.1560
 2092W        W 6156   1.972   9.149   9.648  0.0895  0.2110 -0.0815
 2093W        W 6157   4.657   8.691  10.533  0.1488  0.1895  0.0947
 2094W        W 6158   0.532   6.397  10.914  0.3128 -0.0619 -0.1042
 2095W        W 6159   8.526   4.117   3.411 -0.1309  0.3354 -0.0511
 2096W        W 6160   2.491  10.172  10.735 -0.0463 -0.0144  0.2874
 2097W        W 6161   5.327   6.586   1.421  0.1826  0.0311 -0.2156
 2098W        W 6162   5.708   3.595   8.625  0.0993  0.3148 -0.0306
 2099W        W 6163   0.743   4.622  10.659 -0.1815 -0.3703 -0.1270
 2100W        W 6164   7.302   3.191   7.948 -0.0114 -0.4585  0.0423
 2101W        W 6165   1.993  10.366   1.114  0.1242  0.1243 -0.1252
 2102W        W 6166  10.538   0.359   1.817  0.2261  0.2015 -0.1164
 2103W        W 6167   7.259   5.147   0.842  0.4390  0.0757 -0.1180
 2104W        W 6168   6.449   6.795   1.638 -0.1661 -0.0085  0.2062
 2105W        W 6169   0.966   8.109   1.894  0.1034 -0.3575  0.1099
 2106W        W 6170   8.418   3.547   2.171 -0.0897  0.2206 -0.2007
 2107W        W 6171   1.443   4.455   3.625  0.5016  0.3921 -0.1190
 2108W        W 6172   6.049   8.193   2.753  0.0129  0.0897 -0.0898
 2109W        W 6173   0.661   5.194   9.696  0.0983 -0.0991  0.0280
 2110W        W 6174   6.801   3.056   1.311  0.4347 -0.2259 -0.0385
 2111W        W 6175   0.481   1.391   8.403  0.3306  0.0497  0.0563
 2112W        W 6176   1.890   4.361   2.350  0.2414  0.0318  0.1245
 2113W        W 6177   2.114   2.949   0.446  0.0559 -0.1221  0.0154
 2114W        W 6178   9.626   4.420   9.178  0.1778  0.1088  0.0388
 2115W        W 6179   1.332  10.404   7.775  0.0661 -0.3027  0.0849
 2116W        W 6180   7.448   7.039   9.399  0.4529 -0.2988  0.1564
 2117W        W 6181   8.525   7.884   1.063  0.1788  0.1628  0.5984
 2118W        W 6182   1.371   9.430   9.521  0.0637 -0.0330  0.1592
 2119W        W 6183   1.591   2.045   3.391 -0.0114 -0.3583 -0.1140
 2120W        W 6184   0.902   3.190   2.025  0.3321  0.1617  0.0672
 2121W        W 6185   2.021  10.690   2.879 -0.3400  0.2240 -0.2642
 2122W        W 6186   2.340   4.272  10.548  0.0471 -0.1111 -0.0232
 2123W        W 6187   2.189   8.424  10.883  0.1286  0.0385 -0.3427
 2124W        W 6188   5.465  10.318   0.527 -0.0263  0.2509  0.0040
 2125W        W 6189   0.370   3.630   7.962 -0.0276 -0.3034 -0.0800
 2126W        W 6190   3.912   3.834   8.632  0.1487 -0.0560  0.0131
 2127W        W 6191   0.658   2.527   1.943  0.1783 -0.0348  0.1546
 2128W        W 6192   3.022   3.812  10.657  0.1498  0.0201 -0.0434
 2129W        W 6193   6.181   6.775   7.216  0.1694 -0.0006  0.2230
 2130W        W 6194   5.103  10.267  10.352 -0.1783  0.0849 -0.1358
 2131W        W 6195   5.014   1.951   3.852 -0.0810 -0.0213  0.2516
 2132W        W 6196   1.468   7.133   9.144 -0.0170  0.0015  0.2136
 2133W        W 6197   9.470   9.772   1.754  0.1379 -0.0040 -0.4476
 2134W        W 6198   8.195  10.064   2.527 -0.2572  0.5509 -0.1091
 2135W        W 6199   8.963   5.292  10.139 -0.1615 -0.1342  0.3625
 2136W        W 6200   7.514   3.569   0.146 -0.1288  0.1081  0.0048
 2137W        W 6201   2.773   7.355   8.060  0.2613 -0.3212 -0.1436
 2138W        W 6202   7.927  10.848   9.204  0.2537  0.0187 -0.0911
 2139W        W 6203  10.443  10.250   1.926  0.0494  0.0419 -0.1111
 2140W        W 6204   6.464   5.401   0.982  0.0681  0.1334 -0.1121
 2141W        W 6205   2.689   9.347   9.150 -0.0638 -0.1238 -0.3344
 2142W        W 6206   0.554   6.163   2.374 -0.1702 -0.3347 -0.1364
 2143W        W 6207   0.434   4.846   9.313  0.0592 -0.2372  0.0455
 2144W        W 6208   3.113   1.471  10.243 -0.1201  0.4317 -0.0223
 2145W        W 6209   7.661   1.517   1.744 -0.4025 -0.1255  0.2008
 2146W        W 6210   6.415   2.521  10.235 -0.1039 -0.2251  0.1676
 2147W        W 6211  10.163   5.799  10.487  0.2619  0.0656  0.0251
 2148W        W 6212   6.746  10.876   2.428  0.0731  0.2347  0.0989
 2149W        W 6213   7.410   9.965   7.928 -0.2766  0.0445 -0.1903
 2150W        W 6214   5.437  10.460   9.125  0.2178 -0.2497 -0.2186
 2151W        W 6215   0.927   1.952   2.731 -0.0272  0.1364 -0.0334
 2152W        W 6216   4.317   5.774   0.096 -0.3483  0.3220  0.0144
 2153W        W 6217   6.456   2.212  10.601  0.1254  0.1006 -0.3648
 2154W        W 6218   0.103   3.595   2.407  0.1651  0.1699 -0.0880
 2155W        W 6219   2.831   5.629   8.885  0.1592  0.0352 -0.1014
 2156W        W 6220   1.716   0.295   0.742  0.2174  0.2603  0.2429
 2157W        W 6221   9.753   9.431  10.913  0.2627 -0.1524  0.2942
 2158W        W 6222   2.969   3.891   1.314  0.0862  0.0237  0.1059
 2159W        W 6223   6.703   2.142   0.671  0.1548  0.0493 -0.2597
 2160W        W 6224  10.069   3.081   2.443 -0.0503  0.0126  0.0229
 2161W        W 6225  10.171   5.943   7.663 -0.1867  0.0680 -0.1248
 2162W        W 6226   3.368   5.026   1.632  0.0865 -0.1409 -0.1285
 2163W        W 6227   0.667   0.012  10.070  0.1072 -0.1286  0.0939
 2164W        W 6228   3.742  10.078   3.505  0.0509  0.1153 -0.0312
 2165W        W 6229   7.553   4.234   2.985 -0.1955  0.1957 -0.0396
 2166W        W 6230   1.377   3.559   3.694 -0.2908 -0.2112 -0.3163
 2167W        W 6231   3.248   6.365   2.150  0.0245 -0.0836 -0.1116
 2168W        W 6232   7.505   0.833  10.382 -0.0414 -0.0468 -0.0536
 2169W        W 6233   3.570   5.056   9.135  0.0009 -0.3414 -0.0869
 2170W        W 6234   2.218   4.563   1.328 -0.3392 -0.0126 -0.2191
 2171W        W 6235   7.495   6.353   9.873 -0.0075  0.0902 -0.2413
 2172W        W 6236   3.261   4.310   1.228 -0.2441  0.0459 -0.1554
 2173W        W 6237   1.075   2.221   1.878  0.1353  0.2709  0.2007
 2174W        W 6238   5.586   8.175   8.636  0.0684  0.0146  0.0909
 2175W        W 6239   6.610   9.414   0.073 -0.1802 -0.0532 -0.2023
 2176W        W 6240   7.379   4.624   8.724  0.1113  0.0601  0.1286
 2177W        W 6241   9.735   7.054   3.369 -0.0426 -0.1583 -0.4378
 2178W        W 6242   2.972   7.448   9.602 -0.0270 -0.2276 -0.0530
 2179W        W 6243   3.689   7.871   7.401 -0.4023 -0.3709 -0.1280
 2180W        W 6244   1.932  10.692   1.590  0.2197  0.1419  0.1195
 2181W        W 6245   5.297   2.854   1.554  0.2212  0.1099 -0.0394
 2182W        W 6246   5.684   9.090  10.209  0.3890  0.0162  0.0697
 2183W        W 6247   7.575   6.326   0.148 -0.0396 -0.1327  0.1222
 2184W        W 6248   6.630   7.180   0.853  0.0620 -0.1314 -0.2816
 2185W        W 6249   0.183   0.239   8.196 -0.0190  0.1839  0.1902
 2186W        W 6250   3.024   3.841   8.635 -0.1004  0.0729 -0.0964
 2187W        W 6251   9.105   7.748   2.533 -0.1086  0.0426 -0.0454
 2188W        W 6252   4.881   0.101   2.448  0.2414 -0.1234  0.0875
 2189W        W 6253   0.074   8.955  10.003 -0.4319  0.1513 -0.1521
 2190W        W 6254   9.221   3.304   1.626 -0.1220  0.0925  0.1827
 2191W        W 6255   4.460   5.815   8.668  0.0334 -0.0900  0.1241
 2192W        W 6256   7.849   0.590   1.703 -0.0518  0.0872 -0.1591
 2193W        W 6257  10.409   4.867   1.901  0.0955  0.0452 -0.0672
 2194W        W 6258   5.500   7.740   1.088  0.3255 -0.0323 -0.0854
 2195W        W 6259   2.302  10.019   9.798  0.1956  0.1062  0.4325
 2196W        W 6260   7.421   8.519   0.001  0.1305 -0.3413 -0.2991
 2197W        W 6261   0.696   2.113   9.422  0.2549  0.0112  0.1419
 2198W        W 6262   4.588   5.355  10.711 -0.0975 -0.0133 -0.0172
 2199W        W 6263   8.309   9.887   0.052  0.3159  0.0337 -0.0690
 2200W        W 6264   6.852   7.435  10.659  0.1285 -0.1587 -0.0159
 2201W        W 6265   4.803   1.804   0.589 -0.1713  0.0214  0.1484
 2202W        W 6266   7.181   4.796   3.754 -0.0245 -0.2996  0.0857
 2203W        W 6267   0.879   1.917   0.818 -0.0501  0.0555 -0.0944
 2204W        W 6268   4.088   8.157   0.770  0.0621  0.0039  0.0819
 2205W        W 6269   2.150   6.214   0.221 -0.3993  0.2063 -0.2034
 2206W        W 6270   9.436   9.934  10.265  0.2252 -0.0224  0.1129
 2207W        W 6271   2.659   2.742   0.490  0.0285 -0.0612 -0.1242
 2208W        W 6272   3.955   3.505   1.769  0.2431  0.1517 -0.1423
 2209W        W 6273   5.667   1.762   1.986  0.0742 -0.0366  0.1695
 2210W        W 6274   4.199   7.921   2.040  0.1083  0.2151  0.2778
 2211W        W 6275   1.708   3.297   3.293 -0.1654  0.0331  0.0856
 2212W        W 6276   9.770   5.875   3.305 -0.2171  0.0943 -0.0289
 2213W        W 6277   0.492  10.651   1.874  0.2585  0.0650  0.0487
 2214W        W 6278  10.442   0.115   1.357  0.2088  0.1888 -0.1285
 2215W        W 6279  10.117   0.272   8.381 -0.3430 -0.0370  0.0457
 2216W        W 6280   9.092   7.701   9.376 -0.0611 -0.0212  0.0054
 2217W        W 6281   4.892   6.797  10.566 -0.0796 -0.1187  0.0093
 2218W        W 6282   6.600  10.703   0.177 -0.0887  0.3952  0.1960
 2219W        W 6283   3.291   2.077   0.800 -0.0299  0.0238  0.0336
 2220W        W 6284   6.786   6.303   9.205  0.0077 -0.0414  0.2226
 2221W        W 6285   8.006   0.281   7.848 -0.0737 -0.0899 -0.0323
 2222W        W 6286   2.333   3.075  10.725  0.1530  0.1734  0.1115
 2223W        W 6287   4.252   3.930   3.306  0.1690  0.1238  0.1130
 2224W        W 6288   1.710   5.911   9.575 -0.2766  0.1639 -0.2073
 2225W        W 6289   2.352   4.374   8.071  0.1574 -0.2357  0.0001
 2226W        W 6290   6.329   6.706   2.567  0.0373  0.3024  0.0516
 2227W        W 6291   7.355   0.726   1.813  0.1440  0.1489  0.1613
 2228W        W 6292   3.811  10.279   2.584  0.0002 -0.1256 -0.1696
 2229W        W 6293   3.772   2.178   1.584 -0.1685 -0.0729  0.3305
 2230W        W 6294   3.747   9.374   1.473  0.2911 -0.2303  0.0203
 2231W        W 6295   3.570   0.823   0.434 -0.1418 -0.1095 -0.0131
 2232W        W 6296   9.670   7.582  10.599  0.0749  0.0990 -0.1006
 2233W        W 6297  10.588   9.546   1.038  0.0310  0.0106 -0.2119
 2234W        W 6298   4.042   7.578   2.592 -0.0132 -0.0812  0.0076
 2235W        W 6299   9.429   5.133   3.171 -0.0016  0.0818  0.1080
 2236W        W 6300   9.333  10.885   1.333  0.0819 -0.3770  0.3783
 2237W        W 6301  10.548   8.025  10.205  0.2204 -0.4849  0.2392
 2238W        W 6302   9.578   8.998  10.490 -0.2695  0.2358 -0.1577
 2239W        W 6303  10.532   8.296   2.446 -0.1945  0.2821  0.0259
 2240W        W 6304   5.172   1.086   8.078  0.0299  0.3393 -0.0168
 2241W        W 6305   0.763   9.494   0.315 -0.0269  0.1621 -0.3713
 2242W        W 6306   1.924   1.274   8.403  0.1161 -0.1861  0.0667
 2243W        W 6307   1.779  10.057   3.258  0.1667 -0.1226  0.2979
 2244W        W 6308   3.970   0.059   9.722 -0.1008 -0.2650  0.0048
 2245W        W 6309   4.498   7.423   0.281  0.0563 -0.1518  0.1117
 2246W        W 6310   1.279   4.018   8.154  0.0988  0.0210  0.0393
 2247W        W 6311   4.134   2.905   0.437 -0.1309 -0.1164  0.1790
 2248W        W 6312   9.005   6.281   1.695  0.0632  0.2369  0.2269
 2249W        W 6313   9.987   1.037  10.589 -0.2679  0.4646 -0.0845
 2250W        W 6314   9.960   6.414   1.590 -0.1719  0.2411  0.1718
 2251W        W 6315   0.383   2.993   1.287 -0.0841  0.1473  0.0022
 2252W        W 6316   7.079   1.544   8.188 -0.1278  0.1286 -0.1988
 2253W        W 6317   4.405   8.947   0.295  0.0695  0.1196  0.0229
 2254W        W 6318   4.945   4.038   0.963 -0.1523 -0.0270  0.0082
 2255W        W 6319  10.773   2.220   1.782 -0.1319 -0.0850  0.0428
 2256W        W 6320   2.921  10.677   1.040 -0.0962  0.2566  0.0792
 2257W        W 6321  10.411   5.789   9.848  0.0385  0.0773  0.0430
 2258W        W 6322   5.962   6.721   8.818  0.0652  0.0873  0.1763
 2259W        W 6323   7.914   1.435   8.298  0.0921  0.0341 -0.0328
 2260W        W 6324   9.385   1.288   9.712  0.0868  0.1617  0.2527
 2261W        W 6325   4.724   9.752   1.609  0.1448 -0.0269 -0.0184
 2262W        W 6326   2.088   7.214   3.174  0.0827 -0.0385  0.1824
 2263W        W 6327   1.122  10.652   0.992  0.0722 -0.0471  0.3215
 2264W        W 6328   5.518   9.073  10.715  0.0934  0.0678  0.0169
 2265W        W 6329   5.307   1.302   0.179  0.1543 -0.1026  0.1104
 2266W        W 6330   7.117   0.481   9.920 -0.2303  0.1714 -0.4016
 2267W        W 6331  10.290   9.289   2.804 -0.0571  0.0914 -0.1299
 2268W        W 6332   3.976   4.625  10.600  0.0076  0.3161 -0.1256
 2269W        W 6333  10.448   4.314  10.591 -0.4454 -0.0809  0.5222
 2270W        W 6334  10.241   2.905   9.504 -0.0338  0.0608 -0.0491
 2271W        W 6335   2.304   8.642   6.675  0.2098  0.3831  0.0695
 2272W        W 6336   3.712   5.082   8.078  0.0278  0.1439  0.1758
 2273W        W 6337   4.727   8.232   8.177 -0.1373 -0.0395  0.0491
 2274W        W 6338   1.848   5.431   1.562 -0.0136 -0.2866 -0.3040
 2275W        W 6339   1.641   4.891   3.978  0.2195 -0.0573  0.3064
 2276W        W 6340   0.351   5.676   1.472 -0.1187  0.2442 -0.2222
 2277W        W 6341   4.161   4.871   0.929 -0.1836  0.1851 -0.0326
 2278W        W 6342   6.012   8.688   2.589 -0.0993 -0.2977 -0.1522
 2279W        W 6343   1.973   2.987   8.685  0.0885  0.0713 -0.0976
 2280W        W 6344   1.976   1.082   9.388 -0.4572 -0.0348 -0.1579
 2281W        W 6345   1.352   3.307   9.216 -0.0943 -0.2920 -0.1034
 2282W        W 6346   5.142   8.847  10.489 -0.0896 -0.2653  0.0989
 2283W        W 6347   8.346   0.129   3.336 -0.1129  0.2118 -0.1251
 2284W        W 6348   3.508  10.739   9.954 -0.0298  0.0465  0.1161
 2285W        W 6349   6.406   6.511   8.941  0.0368 -0.4381  0.1564
 2286W        W 6350   5.038   4.988   9.201 -0.1552 -0.0570 -0.0259
 2287W        W 6351  10.608   7.887   2.026 -0.0104 -0.0154 -0.2338
 2288W        W 6352   1.051   4.208   7.610  0.0697  0.1564  0.2100
 2289W        W 6353   5.502   0.736   0.094  0.1093  0.1009 -0.0534
 2290W        W 6354   3.501   6.312   8.476 -0.0928 -0.3573 -0.3487
 2291W        W 6355   5.981   7.528   0.136 -0.5117  0.2860 -0.0283
 2292W        W 6356   1.312  10.892   0.605  0.3169  0.1020 -0.0346
 2293W        W 6357   6.523  10.464   1.075 -0.2245  0.1062  0.0542
 2294W        W 6358   0.609   5.221   7.552 -0.2550  0.2183  0.3186
 2295W        W 6359   6.175   6.251   9.909 -0.2799  0.2427 -0.0517
 2296W        W 6360  10.339  10.219   8.264  0.2312  0.2501  0.0825
 2297W        W 6361   3.786   4.270   8.767 -0.2757  0.0851 -0.0856
 2298W        W 6362   2.419   0.504   8.774  0.0493 -0.0855  0.0406
 2299W        W 6363   7.511   0.580   1.311  0.3224 -0.3670  0.0222
 2300W        W 6364   6.417   2.681   9.723 -0.0497  0.0725  0.1677
 2301W        W 6365   3.749   9.925   1.236 -0.1555  0.1440  0.1975
 2302W        W 6366   1.851  10.847   8.970 -0.1523  0.0493  0.0392
 2303W        W 6367   4.989  10.855   2.944  0.1434  0.1050 -0.1858
 2304W        W 6368   4.334   5.341   9.875 -0.1020 -0.0837 -0.1739
 2305W        W 6369   3.677   1.773   1.218 -0.1269  0.2619  0.4181
 2306W        W 6370   4.094   7.738   9.289 -0.0688 -0.0883  0.2787
 2307W        W 6371   1.563   2.850   7.641 -0.0339 -0.3405  0.0526
 2308W        W 6372   4.491   1.667   9.601 -0.0472 -0.3319 -0.0015
 2309W        W 6373   7.224   1.894   1.372  0.1465 -0.1344 -0.1370
 2310W        W 6374   2.806   8.677   9.303 -0.0796  0.1920 -0.0968
 2311W        W 6375   6.042   5.510  10.524 -0.1975 -0.1555  0.1312
 2312W        W 6376   2.459   6.810   1.867 -0.0353  0.1854  0.0542
 2313W        W 6377   9.869  10.758   0.071  0.0594 -0.0479  0.0649
 2314W        W 6378   1.044   2.152  10.084 -0.0035 -0.0853  0.0346
 2315W        W 6379   6.989   7.295   2.460  0.1067 -0.0572  0.4357
 2316W        W 6380   1.869   7.914   1.736 -0.1340 -0.0104  0.1508
 2317W        W 6381   6.524   5.582   0.188  0.0276 -0.2227 -0.1997
 2318W        W 6382  10.106   4.999   0.892 -0.0007  0.0713 -0.3558
 2319W        W 6383   8.148   3.327   8.490 -0.0510  0.1620  0.0569
 2320W        W 6384   9.400   4.812   0.102  0.1295 -0.0139 -0.1131
 2321W        W 6385   5.558   0.787   4.089 -0.0435 -0.1123  0.2875
 2322W        W 6386   5.623   7.062   2.383  0.1657  0.2091 -0.0394
 2323W        W 6387   6.305   4.309   9.712  0.0880 -0.0035  0.0182
 2324W        W 6388   9.697   5.223  10.432 -0.2866 -0.1585  0.2587
 2325W        W 6389   5.540   5.033   0.671 -0.0824 -0.0907 -0.2497
 2326W        W 6390   7.454   1.410   8.531  0.3478  0.0443  0.0770
 2327W        W 6391  10.178   8.153   2.051  0.0206  0.2291 -0.1869
 2328W        W 6392   2.365   3.101   2.520  0.1917 -0.1992 -0.3444
 2329W        W 6393   0.415   8.550   8.006 -0.1511  0.3720 -0.1081
 2330W        W 6394   8.839   8.093   2.965 -0.0817 -0.2939  0.0637
 2331W        W 6395   6.810   3.700  10.060 -0.0737  0.1053 -0.1376
 2332W        W 6396   7.940  10.593   8.612 -0.1155 -0.0179 -0.1402
 2333W        W 6397   9.896   3.419   3.012  0.0729  0.2067  0.1909
 2334W        W 6398   8.068   6.959   1.332  0.0973 -0.3182  0.0043
 2335W        W 6399   1.065   5.378  10.469 -0.1002  0.3418  0.3566
 2336W        W 6400   1.116   1.133   9.362  0.0171  0.0006  0.0056
 2337W        W 6401   9.054   8.195   0.500 -0.1089 -0.2271  0.2604
 2338W        W 6402   7.165   1.087   8.287 -0.2734 -0.0251 -0.1332
 2339W        W 6403   1.464   2.127  10.330  0.0270 -0.2207 -0.0998
 2340W        W 6404   5.649   4.802   9.375  0.1027  0.0282  0.0494
 2341W        W 6405   4.708   3.929   8.050 -0.0833 -0.0714  0.2411
 2342W        W 6406   4.736  10.552   2.573  0.0148  0.3145  0.1526
 2343W        W 6407   1.924   9.613   9.792 -0.2901 -0.1849 -0.1306
 2344W        W 6408  10.820   4.533   2.027  0.0110  0.0045  0.1244
 2345W        W 6409  10.815   6.219   0.352 -0.1286  0.2484 -0.0594
 2346W        W 6410   9.563  10.559   3.366  0.0774  0.1254  0.0863
 2347W        W 6411   5.126   8.588   8.054  0.0278 -0.2615  0.1797
 2348W        W 6412   4.281  10.062   0.435  0.1713 -0.1676 -0.0733
 2349W        W 6413   7.631   3.121   9.643 -0.2241  0.1102  0.0674
 2350W        W 6414   3.808  10.239   0.635  0.1768  0.0543 -0.2055
 2351W        W 6415   3.206   2.196   2.197  0.3645 -0.0832 -0.2457
 2352W        W 6416  10.246   3.188   1.110  0.1565  0.1516 -0.2744
 2353W        W 6417   8.121   4.427   7.913  0.1043 -0.1882 -0.0313
 2354W        W 6418   0.508   3.791   3.648  0.3938 -0.1486  0.1210
 2355W        W 6419   1.293   0.162   8.978 -0.1128  0.1346 -0.2026
 2356W        W 6420   7.440   1.832   0.962  0.0271  0.0354 -0.1960
 2357W        W 6421   0.651   6.996   9.322  0.1920  0.1941  0.4895
 2358W        W 6422   1.051   5.637   2.724 -0.1446 -0.0144  0.0892
 2359W        W 6423   8.089   9.382   1.276 -0.0206 -0.1034 -0.5500
 2360W        W 6424   9.736   4.652   8.401 -0.2160  0.0660  0.0880
 2361W        W 6425   4.753   7.818  10.256 -0.0687  0.0756 -0.1415
 2362W        W 6426   6.813   5.276   9.267  0.0666 -0.1833 -0.2935
 2363W        W 6427   9.930   8.656   9.537  0.2545 -0.0349  0.3969
 2364W        W 6428   5.947  10.577   3.635  0.2138  0.1701  0.0716
 2365W        W 6429   8.877   7.504   1.195 -0.3086 -0.1168  0.0803
 2366W        W 6430   7.974   7.389   2.266 -0.2693  0.2541 -0.0721
 2367W        W 6431   6.268   2.844   9.278 -0.0601  0.1292 -0.1033
 2368W        W 6432   0.956   7.427  10.201  0.3088 -0.1221  0.0348
 2369W        W 6433   8.702   5.689   8.291  0.2501 -0.0234  0.0385
 2370W        W 6434  10.865   5.808   9.510  0.0328 -0.0987 -0.1621
 2371W        W 6435   5.597   5.008   6.906 -0.1239  0.0632 -0.0299
 2372W        W 6436   3.021   8.509   2.956 -0.0474 -0.1244 -0.0347
 2373W        W 6437   4.248   0.285   9.294  0.1192 -0.1611 -0.3847
 2374W        W 6438   6.293   9.085   1.077  0.0640  0.3837  0.2714
 2375W        W 6439   3.278   1.402   4.109  0.2205 -0.2428 -0.1279
 2376W        W 6440   6.131   2.612   2.274  0.2055 -0.2787 -0.2478
 2377W        W 6441   5.949   7.403  10.027  0.1007 -0.3924 -0.1081
 2378W        W 6442   3.629   4.704   3.949 -0.3509  0.0503 -0.3401
 2379W        W 6443   8.103   0.142  10.635  0.0739 -0.0464  0.3607
 2380W        W 6444   1.266   9.582  10.444 -0.1590  0.0491 -0.3774
 2381W        W 6445   5.905   1.357   2.229  0.0981  0.1121 -0.0427
 2382W        W 6446   8.233   7.359   3.254  0.2354  0.0918  0.1192
 2383W        W 6447   7.909   6.168  10.757 -0.0912 -0.0129 -0.0139
 2384W        W 6448   4.442   8.029   1.151 -0.1181 -0.1938  0.1594
 2385W        W 6449   8.617   2.999   9.733 -0.0235  0.0359  0.3667
 2386W        W 6450  10.513   8.715   9.628 -0.0047  0.1355  0.1613
 2387W        W 6451   4.044   7.541  10.304 -0.3373 -0.1983  0.1095
 2388W        W 6452   2.041   3.349   8.288 -0.1183  0.1018 -0.2304
 2389W        W 6453   3.365   3.971   7.932  0.1886 -0.1913  0.0911
 2390W        W 6454   1.115   0.803   8.082 -0.0187 -0.2268 -0.1237
 2391W        W 6455   6.360   9.274   0.568  0.2784 -0.2612  0.1254
 2392W        W 6456   0.913   7.698   8.832 -0.0142 -0.2153 -0.1709
 2393W        W 6457   2.603   8.729   8.330  0.0154 -0.1204  0.1436
 2394W        W 6458   5.409   4.976   1.697 -0.1043  0.2438 -0.1162
 2395W        W 6459   1.312   1.447   9.683 -0.0617  0.1219  0.1911
 2396W        W 6460   0.814   7.207   8.564  0.2657  0.2422 -0.0738
 2397W        W 6461   5.374   3.050   2.875  0.5040  0.1401  0.0479
 2398W        W 6462   7.872   7.659   0.114 -0.0172 -0.0571 -0.1477
 2399W        W 6463   7.203   4.470   6.922 -0.2763 -0.2847 -0.1728
 2400W        W 6464   8.666   0.976   1.913 -0.1800  0.1233  0.0532
 2401W        W 6465   0.830   8.227   7.742  0.1036 -0.0199 -0.0635
 2402W        W 6466   4.764   9.288   1.272  0.0673 -0.3693 -0.2305
 2403W        W 6467   1.149   5.409   7.436 -0.0236  0.2054  0.3293
 2404W        W 6468   5.374   8.822   0.091  0.1578  0.2293 -0.1430
 2405W        W 6469   2.234   9.430   8.969  0.1093 -0.0823  0.3759
 2406W        W 6470  10.279   5.720   3.282 -0.2745 -0.2053  0.0884
 2407W        W 6471   3.656   9.412   0.323  0.4435 -0.0860 -0.1473
 2408W        W 6472   3.821   3.305   2.383  0.2149 -0.2451 -0.2236
 2409W        W 6473  10.225   5.630   7.141 -0.0844 -0.2539  0.1806
 2410W        W 6474   6.622   3.182   9.334 -0.2360 -0.0976  0.0966
 2411W        W 6475   2.813   5.527   0.644  0.3284  0.1633  0.1362
 2412W        W 6476   6.036   7.249   2.150  0.1527  0.0644 -0.0501
 2413W        W 6477   8.000   7.065   0.824  0.2722  0.4083  0.1880
 2414W        W 6478   4.507   9.459   8.872  0.1144  0.0672 -0.1307
 2415W        W 6479   7.217  10.443   2.915  0.2533 -0.2923 -0.2262
 2416W        W 6480   3.483   7.839   7.960  0.1678  0.3256 -0.1351
 2417W        W 6481   2.074   2.798   1.504 -0.2710  0.2678  0.1423
 2418W        W 6482   2.082   3.306   0.814  0.3044  0.0662  0.2415
 2419W        W 6483   9.226   4.154   2.342 -0.1125 -0.1406 -0.1534
 2420W        W 6484   1.840   0.271   1.917  0.0953 -0.1148  0.0221
 2421W        W 6485   7.063   4.988  10.795 -0.2874 -0.3118  0.0661
 2422W        W 6486   8.607   7.967   9.222 -0.1838  0.2463 -0.1723
 2423W        W 6487   5.435   0.771   1.877  0.1352 -0.0850 -0.0177
 2424W        W 6488   1.209   3.261   3.322 -0.0280  0.2055  0.2796
 2425W        W 6489   8.200   8.671   3.425 -0.0696 -0.0157 -0.0138
 2426W        W 6490   1.708   1.608   8.730  0.0757 -0.0482 -0.5943
 2427W        W 6491   0.744   9.145   8.364 -0.0423 -0.3018 -0.2198
 2428W        W 6492   9.454   8.425   2.178 -0.0854  0.2203 -0.1889
 2429W        W 6493  10.034   2.013   8.654  0.1051 -0.0041  0.0449
 2430W        W 6494  10.844   1.643   1.786 -0.0163 -0.0130 -0.2938
 2431W        W 6495   1.733   6.084   1.011  0.0884  0.0094 -0.1810
 2432W        W 6496   7.730   7.492   8.226  0.2075  0.1546  0.0607
 2433W        W 6497   4.723   1.442   2.197  0.3840 -0.1929 -0.1117
 2434W        W 6498   4.146  10.763   8.991 -0.2372 -0.1089 -0.2263
 2435W        W 6499   0.475   6.019  10.544 -0.0381  0.1928  0.0354
 2436W        W 6500  10.226   0.608   2.590 -0.1272 -0.0471 -0.0128
 2437W        W 6501   6.001   0.514   0.897  0.1928  0.1632  0.2638
 2438W        W 6502   3.133   2.715   1.291 -0.0234  0.4569  0.0074
 2439W        W 6503   2.257   0.164   1.468  0.0702  0.0683 -0.2369
 2440W        W 6504   7.378   7.277   0.152 -0.1067 -0.1985  0.1018
 2441W        W 6505   0.435   7.459   2.649 -0.1814  0.0756  0.2172
 2442W        W 6506   1.685   2.293  10.851 -0.1793 -0.2067 -0.0652
 2443W        W 6507  10.391   7.170  10.596 -0.0822  0.1175  0.1760
 2444W        W 6508   2.684   3.383   3.596 -0.0177 -0.1171  0.4238
 2445W        W 6509   2.513   7.716   9.679 -0.0706 -0.0486  0.1004
 2446W        W 6510   4.853   2.884  10.274  0.2445  0.1797  0.2334
 2447W        W 6511   3.711  10.138   8.858  0.2125  0.1452 -0.1362
 2448W        W 6512   4.278   1.977   0.678 -0.3857  0.2143  0.0327
 2449W        W 6513   7.299   3.690   8.837 -0.0529  0.3834 -0.0020
 2450W        W 6514   3.437   6.590  10.563 -0.1960  0.0129 -0.2324
 2451W        W 6515   8.410   7.094   2.163  0.3642  0.1344  0.2467
 2452W        W 6516   6.457   8.936  10.187 -0.1451 -0.0916 -0.3900
 2453W        W 6517   1.042   3.122   1.431  0.0873 -0.0324  0.0835
 2454W        W 6518   4.876   9.270  10.916 -0.1011 -0.1122  0.0908
 2455W        W 6519   5.760   9.912  10.804  0.0898  0.0149 -0.1258
 2456W        W 6520   2.955   1.987  11.047 -0.1820 -0.1289  0.1317
 2457W        W 6521   1.057   3.529   0.635  0.1010 -0.4730 -0.1826
 2458W        W 6522   1.462   1.735  10.055  0.1985  0.2241 -0.1196
 2459W        W 6523   5.239   3.070   9.523  0.1147  0.1736  0.0103
 2460W        W 6524   6.024  10.877   2.811  0.0432 -0.1349 -0.0685
 2461W        W 6525   0.985  10.729   9.266  0.0047 -0.3463 -0.0253
 2462W        W 6526   2.820   0.263   2.688 -0.1166 -0.0476  0.3096
 2463W        W 6527   7.288   5.813   7.205  0.1526  0.1379  0.0238
 2464W        W 6528   6.427   6.434   7.525 -0.1627  0.0485 -0.1308
 2465W        W 6529   8.174   7.755   9.498 -0.1616  0.2633  0.1271
 2466W        W 6530   7.159   5.320   7.203  0.3322 -0.2081 -0.0716
 2467W        W 6531   7.607   3.078   3.274  0.2770 -0.1261 -0.2228
 2468W        W 6532   3.689   6.440   1.069  0.2345 -0.2961 -0.1326
 2469W        W 6533  10.383   4.474   1.025 -0.2533  0.0483  0.1346
 2470W        W 6534   0.323   4.812   9.906 -0.2499  0.1761  0.2066
 2471W        W 6535   0.234   5.481   7.533  0.0420  0.2975  0.0192
 2472W        W 6536   0.971   5.231   0.375 -0.0308 -0.0520 -0.2969
 2473W        W 6537   0.245   9.670   2.526 -0.3304 -0.2131  0.3022
 2474W        W 6538   1.681   3.829   8.365  0.1554  0.1159  0.1232
 2475W        W 6539   2.576   1.581   9.039 -0.0368  0.3669  0.1310
 2476W        W 6540   4.957   6.801   0.790 -0.1237 -0.0097  0.0840
 2477W        W 6541   0.385   2.420   4.124 -0.0284  0.1246 -0.1050
 2478W        W 6542   1.100   3.175   3.899 -0.1314 -0.1477  0.3024
 2479W        W 6543   0.172  10.791   8.591 -0.3299 -0.2350 -0.0625
 2480W        W 6544   0.229   2.030   8.143 -0.1612  0.0185 -0.1031
 2481W        W 6545   4.549   8.417   3.750 -0.1733  0.2096 -0.2188
 2482W        W 6546   6.696   0.831   8.162  0.1127 -0.0468  0.3975
 2483W        W 6547   9.221   1.271   3.211 -0.2885 -0.1972 -0.2492
 2484W        W 6548   7.408   6.715   1.674 -0.2405 -0.2281 -0.0383
 2485W        W 6549   0.409   9.076  10.455 -0.0426  0.1350  0.4922
 2486W        W 6550   8.208   1.519   2.643 -0.1178 -0.1009 -0.0044
 2487W        W 6551   6.835   2.860  10.185  0.1491  0.2407 -0.1982
 2488W        W 6552   3.819   8.719   7.920  0.0821 -0.2661 -0.2983
 2489W        W 6553   7.999   2.806   9.300  0.0784  0.1305 -0.1699
 2490W        W 6554   4.038   3.284   0.938  0.2089 -0.2532  0.2424
 2491W        W 6555   0.173   8.923   0.339  0.2068 -0.1146  0.1625
 2492W        W 6556   4.177   8.481  10.597  0.2917  0.0282 -0.1565
 2493W        W 6557  10.237  10.370   8.863 -0.1627 -0.2346  0.1291
 2494W        W 6558   7.763   0.949   1.985 -0.1696  0.0104 -0.0213
 2495W        W 6559   4.454   9.552  10.516 -0.1793  0.0166 -0.1530
 2496W        W 6560   2.772  10.405   2.088  0.1766  0.1940 -0.1087
 2497W        W 6561   7.117   2.074   0.175  0.4108  0.0682 -0.3282
 2498W        W 6562   3.754   3.193   0.529 -0.0199  0.1503 -0.1128
 2499W        W 6563   2.120   9.375   1.598 -0.0738  0.2337  0.0070
 2500W        W 6564  10.037   0.860   0.018 -0.3459 -0.1240 -0.0970
 2501W        W 6565   4.057   9.949   9.619  0.1483 -0.1922 -0.1039
 2502W        W 6566   7.298   8.866   7.318 -0.1577 -0.0954 -0.0732
 2503W        W 6567   0.510   4.505   0.254  0.0126 -0.0098  0.0746
 2504W        W 6568  10.545   1.792  10.900  0.0270 -0.0290  0.0195
 2505W        W 6569   4.720   1.272   8.700 -0.0304  0.1087  0.0358
 2506W        W 6570   9.444   8.810   2.556 -0.1544 -0.0604  0.0750
 2507W        W 6571   4.563   4.448   1.738 -0.1541 -0.1565 -0.0860
 2508W        W 6572   4.541   5.405   7.838 -0.2198  0.0962 -0.2136
 2509W        W 6573   0.386   7.987   2.811  0.0533  0.1882 -0.0467
 2510W        W 6574   4.091   2.468  10.574 -0.0622 -0.0542 -0.0423
 2511W        W 6575   5.095   7.215   7.326  0.1904  0.1446 -0.3119
 2512W        W 6576   6.556   8.319   1.417  0.0953 -0.3030 -0.0594
 2513W        W 6577   2.576   3.147   0.112  0.2980 -0.0300 -0.0037
 2514W        W 6578   1.023   4.510   0.410  0.0963 -0.0120 -0.2999
 2515W        W 6579   3.329   1.971   1.454  0.2145 -0.0178  0.1199
 2516W        W 6580   1.471   2.975   1.626 -0.2444  0.0415  0.0853
 2517W        W 6581   4.186   0.509  10.196 -0.2613  0.1987 -0.0876
 2518W        W 6582   6.805   2.328   9.475 -0.3380  0.0673  0.1996
 2519W        W 6583   3.935   4.629   7.881  0.0870 -0.0442 -0.0945
 2520W        W 6584   2.868   5.509   8.413  0.2052 -0.0497  0.3966
 2521W        W 6585   9.608   7.980   2.356  0.1051  0.0405  0.0063
 2522W        W 6586   0.740   1.097   3.346  0.0518 -0.1357  0.1963
 2523W        W 6587   9.681   5.162   2.657 -0.0184 -0.0230  0.0294
 2524W        W 6588   5.040  10.626   1.969  0.1504 -0.0947  0.0987
 2525W        W 6589   7.248  10.347   9.445  0.2360 -0.0193  0.0932
 2526W        W 6590   6.642   5.789   0.729  0.1421  0.0058 -0.1911
 2527W        W 6591   0.921   1.641   1.826  0.1482  0.2188 -0.0401
 2528W        W 6592   9.207   9.513   8.857  0.0173 -0.1325  0.0682
 2529W        W 6593   7.141   5.485   7.816  0.0411 -0.0449 -0.1506
 2530W        W 6594   8.842   5.640   0.336 -0.0597  0.0383  0.0446
 2531W        W 6595   4.995   4.452   9.402 -0.0643 -0.0466 -0.0527
 2532W        W 6596   6.020   4.270   0.143  0.0909 -0.1571  0.1836
 2533W        W 6597   2.152   6.122   7.284  0.4251  0.1478  0.1055
 2534W        W 6598   3.543   2.568   9.083 -0.0228  0.0317  0.1658
 2535W        W 6599   6.897   4.306   0.372  0.0013  0.0888 -0.0789
 2536W        W 6600   4.720   9.791   0.523 -0.0754 -0.4741 -0.1231
 2537W        W 6601   9.875   5.421   7.961  0.3273 -0.0318 -0.0883
 2538W        W 6602   1.658   3.704  10.984 -0.0537  0.0881  0.1234
 2539W        W 6603   8.256   2.012   8.755  0.0854 -0.0675  0.1360
 2540W        W 6604   0.590  10.085   8.596 -0.1102 -0.0528  0.0474
 2541W        W 6605   4.111   8.484   0.320  0.2259 -0.1827  0.2613
 2542W        W 6606   1.490   5.679  10.483  0.3986 -0.2038 -0.2027
 2543W        W 6607   6.901   2.416   9.918  0.0701  0.0330 -0.2982
 2544W        W 6608   9.507   9.182   8.595  0.3877  0.1264  0.0607
 2545W        W 6609   3.685   5.253   2.195 -0.0612  0.2371  0.2424
 2546W        W 6610   7.799   9.802   0.067  0.1180  0.0983 -0.1934
 2547W        W 6611   2.960   0.445  10.342  0.0701  0.2054 -0.1425
 2548W        W 6612   4.246   4.450   9.779  0.2672  0.0320 -0.2044
 2549W        W 6613   1.854   9.312  10.552 -0.1427  0.2488 -0.0993
 2550W        W 6614   1.045   9.472   3.429 -0.0115 -0.0813 -0.0809
 2551W        W 6615   2.051   8.515   7.097  0.1162  0.1081 -0.3790
 2552W        W 6616   9.295   2.222  10.998  0.0675 -0.0567  0.1053
 2553W        W 6617   4.590   0.135   1.138 -0.3785  0.1581 -0.0378
 2554W        W 6618  10.792   9.025   8.423  0.1410 -0.0972  0.3869
 2555W        W 6619   0.364  10.828   2.915  0.0331 -0.1534  0.4247
 2556W        W 6620   2.812   1.663   2.710 -0.0802 -0.1644  0.2731
 2557W        W 6621   6.174   5.440  10.025  0.0742  0.0735  0.0062
 2558W        W 6622   0.021   3.489   1.308  0.1787 -0.0976  0.0572
 2559W        W 6623   1.568   5.087   0.714  0.0238  0.0495 -0.1143
 2560W        W 6624  10.748   8.430   3.798  0.2344  0.0366  0.1755
 2561W        W 6625   8.889   2.461   2.802 -0.0627  0.0118  0.1063
 2562W        W 6626   5.080   1.667   0.983  0.1441 -0.0597  0.1240
 2563W        W 6627   9.033   5.828   2.117  0.1647  0.1790 -0.1264
 2564W        W 6628   6.486   0.780   3.091 -0.0650  0.2433 -0.0240
 2565W        W 6629   6.251   7.679  10.293 -0.2124 -0.1318 -0.1313
 2566W        W 6630   6.227   3.639   4.269 -0.0928  0.1475  0.1636
 2567W        W 6631   7.820   7.351   9.483  0.1236  0.2057  0.0664
 2568W        W 6632   5.360   2.797   9.968  0.3678 -0.1872  0.3275
 2569W        W 6633  10.639   6.102   2.204 -0.0138  0.2699  0.4261
 2570W        W 6634   8.844   9.828   3.290  0.0222  0.0343 -0.2294
 2571W        W 6635   3.778   0.393   9.991  0.0794  0.0771 -0.1367
 2572W        W 6636   5.536  10.238   8.271 -0.2566 -0.0755  0.1254
 2573W        W 6637   0.636   7.045   2.584  0.2421 -0.2342 -0.2206
 2574W        W 6638   5.685   3.414   9.175 -0.4691  0.0601 -0.3275
 2575W        W 6639   3.683   9.777  10.471 -0.0455  0.0979 -0.2130
 2576W        W 6640   8.490   6.667   9.627  0.0706  0.1717  0.0566
 2577W        W 6641   3.063   1.808   9.072 -0.1709 -0.2229 -0.2741
 2578W        W 6642   7.606   7.399   9.057 -0.0534 -0.0245 -0.0464
 2579W        W 6643   5.720  10.063   9.310  0.1465 -0.2653 -0.3306
 2580W        W 6644   6.999   6.280   9.729 -0.0263 -0.1013 -0.0569
 2581W        W 6645   3.535   8.117   9.127 -0.0939  0.1771 -0.2512
 2582W        W 6646  10.561   2.062   4.025 -0.4384  0.2261  0.0076
 2583W        W 6647   6.824   5.684  10.104 -0.3308  0.0437 -0.0655
 2584W        W 6648   1.170   6.850   3.428  0.0716 -0.1318 -0.0113
 2585W        W 6649   2.376   2.310   3.199 -0.1475  0.1149 -0.0268
 2586W        W 6650   3.883   3.016  10.299 -0.1845 -0.0549  0.3099
 2587W        W 6651   8.102  10.207   1.580 -0.1715  0.0394  0.1911
 2588W        W 6652  10.105   3.113   9.117 -0.2362 -0.0204  0.0846
 2589W        W 6653   6.899   4.377   8.443 -0.0344  0.0248  0.2124
 2590W        W 6654   3.131   7.185   0.783  0.0023 -0.2044  0.3273
 2591W        W 6655   5.412   5.987   0.678 -0.0330  0.0267 -0.3939
 2592W        W 6656   0.693   1.979   1.513  0.2132 -0.0470 -0.2480
 2593W        W 6657   7.044   6.981   0.973  0.0454  0.1868 -0.1759
 2594W        W 6658   9.736  10.101   1.392 -0.0436  0.0358 -0.0608
 2595W        W 6659   5.781   4.197   2.259  0.0218  0.0445 -0.1173
 2596W        W 6660   8.337   1.045  10.609  0.1160  0.0324  0.3268
 2597W        W 6661   6.428   4.969   9.066  0.0251  0.0536  0.2948
 2598W        W 6662  10.451   5.218   9.881 -0.0330 -0.1531 -0.0320
 2599W        W 6663   6.503   7.045   2.280 -0.0694 -0.1630 -0.1839
 2600W        W 6664   8.908  10.038  10.179  0.0672 -0.0421 -0.0556
 2601W        W 6665   3.575   9.645   8.976  0.0445  0.1287  0.3937
 2602W        W 6666   0.779   4.786   1.203  0.1741  0.0380 -0.1863
 2603W        W 6667   0.246   6.348   1.982 -0.0510 -0.0946 -0.2493
 2604W        W 6668   8.825   8.729  10.447 -0.0997 -0.1404 -0.0559
 2605W        W 6669   8.054   8.455   9.350 -0.0093  0.0286 -0.2112
 2606W        W 6670   1.692   7.097   3.545 -0.1496 -0.0110 -0.1626
 2607W        W 6671   2.726   4.168   9.652  0.1971 -0.1629  0.1431
 2608W        W 6672   0.616   1.602   7.942  0.0295 -0.2515 -0.1393
 2609W        W 6673   4.103   4.957   9.129 -0.0793 -0.0393  0.3096
 2610W        W 6674   8.329   1.115   7.372  0.0613  0.0485 -0.1176
 2611W        W 6675   7.157   2.404   2.630 -0.0959 -0.0842  0.0133
 2612W        W 6676   9.095   5.609  10.523  0.1733 -0.1666 -0.3555
 2613W        W 6677   9.302   4.784   7.682  0.1220 -0.1201  0.1767
 2614W        W 6678   6.452   7.529   3.164 -0.0517 -0.2037  0.1355
 2615W        W 6679   8.679   0.342   9.334  0.3524 -0.0229 -0.1734
 2616W        W 6680   5.680   6.147   1.625 -0.0156 -0.2254  0.1836
 2617W        W 6681   5.135   5.838  10.843  0.0235 -0.2909  0.0706
 2618W        W 6682   2.500   7.288   1.543 -0.1149  0.0357  0.1382
 2619W        W 6683   5.882   3.295   2.811  0.2781  0.0121  0.4165
 2620W        W 6684   7.344   4.555   8.230  0.0503  0.0163  0.0047
 2621W        W 6685   6.869   2.939   3.053 -0.2996  0.1463 -0.2351
 2622W        W 6686   9.285   7.974   0.050  0.0037  0.3698 -0.0318
 2623W        W 6687   8.717   7.161  10.009 -0.0789  0.0803  0.0909
 2624W        W 6688   4.694   9.369   0.300 -0.1415  0.0846 -0.3943
 2625W        W 6689   9.902   3.820   1.160 -0.1712 -0.1000  0.0689
 2626W        W 6690   7.813   2.469   3.042 -0.0950 -0.0265  0.2273
 2627W        W 6691   8.911   5.480   1.273  0.4303  0.1426  0.1885
 2628W        W 6692   0.044   8.311   2.826 -0.0515 -0.2444  0.0123
 2629W        W 6693   2.248   0.000   7.711 -0.0968 -0.0339 -0.1447
 2630W        W 6694   7.004   1.280   0.287  0.1366  0.2890 -0.0916
 2631W        W 6695   6.794   8.206   9.577 -0.2461 -0.2108  0.2543
 2632W        W 6696   7.181   1.977   2.256  0.1196 -0.2899  0.1821
 2633W        W 6697   3.399   8.661   9.250 -0.3107 -0.1577  0.5492
 2634W        W 6698   3.057   5.116   2.141  0.2246  0.0196 -0.1529
 2635W        W 6699   6.650   0.975   1.218  0.0588 -0.3507  0.2591
 2636W        W 6700   7.041   0.577  10.442 -0.0696  0.1592  0.1873
 2637W        W 6701   9.578   1.044   2.867  0.1926  0.0660 -0.0518
 2638W        W 6702   5.496   0.792   8.539  0.0216 -0.3359  0.1413
 2639W        W 6703   0.936   4.975   1.643 -0.1882 -0.1722  0.0928
 2640W        W 6704   2.620   5.427   2.411 -0.0348  0.0146  0.2015
 2641W        W 6705   9.333  10.017   3.034  0.1181 -0.2408  0.3388
 2642W        W 6706   7.488   3.064   8.436  0.0484  0.0101 -0.0668
 2643W        W 6707   1.585   5.737   2.825  0.0279  0.4936 -0.1131
 2644W        W 6708  10.688   7.083   9.845  0.0835  0.2392 -0.1521
 2645W        W 6709   1.559   1.339   9.267  0.1419  0.0264 -0.1900
 2646W        W 6710   9.668   5.318   1.632  0.0072  0.1061 -0.2140
 2647W        W 6711   0.311   4.052   8.276  0.0674 -0.2381  0.1648
 2648W        W 6712   9.051   2.571   9.206  0.1930 -0.1799 -0.0515
 2649W        W 6713   2.001   1.985   2.341 -0.0142 -0.1668  0.0771
 2650W        W 6714   0.746   4.999   8.100  0.0019  0.2003 -0.0557
 2651W        W 6715  10.818   5.735   8.136  0.0187  0.1190 -0.2347
 2652W        W 6716   3.589   2.424   9.562 -0.0336 -0.1369  0.2310
 2653W        W 6717   9.449   9.746   8.429 -0.0665  0.2227 -0.2703
 2654W        W 6718   4.884   9.731  10.697  0.0482  0.0640  0.0304
 2655W        W 6719   8.349   0.963   8.940  0.1889 -0.0883 -0.1251
 2656W        W 6720   1.516   4.886   2.948 -0.2255  0.1428 -0.1819
 2657W        W 6721   7.368   7.629   0.506  0.3113  0.0264  0.0593
 2658W        W 6722   4.894   3.511   0.889  0.0203 -0.2148  0.2259
 2659W        W 6723   3.375   3.317   7.321 -0.0904  0.0722  0.1276
 2660W        W 6724   3.401   7.369   3.864  0.1437 -0.1985  0.2156
 2661W        W 6725   8.924   3.928   9.583 -0.0037 -0.0163 -0.0710
 2662W        W 6726   3.641   9.843   2.456 -0.3247 -0.0961  0.1618
 2663W        W 6727   2.987   7.360   1.364  0.0024  0.2281 -0.2014
 2664W        W 6728   3.021   6.671   1.101  0.0759 -0.0400 -0.0325
 2665W        W 6729   0.537   0.520  10.245  0.0409 -0.1764  0.4316
 2666W        W 6730   8.378  10.880   9.069 -0.0256  0.1069  0.0702
 2667W        W 6731   1.836   8.374   1.498  0.1986 -0.1039  0.2259
 2668W        W 6732   2.784  10.347   2.617  0.2011  0.0853 -0.0978
 2669W        W 6733   1.119   0.577   9.172 -0.1870 -0.0539  0.1912
 2670W        W 6734   9.931   5.017   2.123  0.1468  0.3496  0.0060
 2671W        W 6735   1.206   7.700  11.056 -0.0580  0.0711  0.1284
 2672W        W 6736   7.364   3.112   8.911  0.4899 -0.1323  0.5131
 2673W        W 6737   1.733   8.743   8.849 -0.2613  0.1851  0.2460
 2674W        W 6738  10.504   1.952   1.498 -0.1512 -0.3649  0.0744
 2675W        W 6739   9.069   8.715   9.478 -0.3695 -0.0532  0.0586
 2676W        W 6740   9.573   3.447   9.136  0.2198 -0.0605  0.0652
 2677W        W 6741   7.576   8.277   9.159 -0.0864  0.2213  0.0824
 2678W        W 6742   6.006   6.184   7.833 -0.2826  0.2225  0.2106
 2679W        W 6743   9.315  10.200   2.009 -0.0310  0.0585 -0.0004
 2680W        W 6744  10.741   1.264   3.257  0.3391  0.3633 -0.2106
 2681W        W 6745  10.214   3.656   0.207  0.2342  0.1265 -0.0190
 2682W        W 6746   8.284   0.580   9.795  0.0488 -0.3234 -0.5902
 2683W        W 6747   2.390  10.325   9.401  0.2226  0.1319  0.1007
 2684W        W 6748   9.629   1.270   0.258 -0.0964 -0.4537  0.1361
 2685W        W 6749   7.625   6.583   9.427  0.2166 -0.0530 -0.0059
 2686W        W 6750  10.537   2.633   9.882 -0.3784 -0.3035 -0.1721
 2687W        W 6751   0.617   2.948   1.704 -0.0488 -0.1536 -0.0274
 2688W        W 6752   2.618   8.544  10.760  0.0588 -0.2192 -0.1593
 2689W        W 6753   8.705  10.773   9.480  0.0022  0.2699  0.1533
 2690W        W 6754   7.655   4.789   7.869  0.0217 -0.3355 -0.0077
 2691W        W 6755   9.514   7.509   7.705 -0.0537 -0.0669 -0.5065
 2692W        W 6756   6.692   7.192   1.366 -0.0053 -0.1420 -0.0042
 2693W        W 6757   1.774   0.488   2.714  0.0748  0.1315 -0.0086
 2694W        W 6758   8.392   1.641   3.125  0.1888 -0.5043  0.4113
 2695W        W 6759   8.599   9.937   1.357  0.2931 -0.1287 -0.0421
 2696W        W 6760   1.011   8.039   1.327  0.0296 -0.1781  0.1432
 2697W        W 6761   8.125   0.862   1.411  0.0788  0.2566  0.1363
 2698W        W 6762   2.083   4.700  10.500  0.0634 -0.1987 -0.2985
 2699W        W 6763   7.287   3.532   9.765  0.1159 -0.1356 -0.1598
 2700W        W 6764   1.269   8.776  10.767  0.1150  0.1843 -0.2097
 2701W        W 6765  10.805   3.189  10.093  0.1295  0.0439 -0.0234
 2702W        W 6766   9.543   7.468   2.257  0.0660 -0.1089 -0.1847
 2703W        W 6767   3.088   0.763   2.351  0.1994 -0.2824 -0.0570
 2704W        W 6768  10.612   3.921   8.613  0.1784  0.1697 -0.0847
 2705W        W 6769   1.707   8.543  10.474 -0.1218 -0.2342 -0.0125
 2706W        W 6770   9.097   7.151   0.628  0.0866  0.1408  0.0069
 2707W        W 6771   2.523   0.781   9.527  0.2572 -0.1578  0.0648
 2708W        W 6772   1.572   8.068   8.168 -0.0663 -0.1601  0.2586
 2709W        W 6773   9.751   3.897   9.217 -0.0330  0.1445 -0.0453
 2710W        W 6774   1.561   1.425   0.036 -0.0250 -0.1402  0.0160
 2711W        W 6775   3.613   4.596   1.009 -0.3158  0.0478  0.1430
 2712W        W 6776   8.174   8.046   8.948  0.1417  0.2045  0.0542
 2713W        W 6777   7.612   4.088   9.591  0.0846  0.1721 -0.3127
 2714W        W 6778   3.139   7.485   7.236  0.2236  0.0694  0.4586
 2715W        W 6779  10.640   9.214   9.744  0.2121  0.1311 -0.1906
 2716W        W 6780   1.347   1.008   2.032 -0.0932 -0.2732 -0.0572
 2717W        W 6781   9.999   6.330   0.574 -0.1238  0.0986 -0.2252
 2718W        W 6782   7.662   9.202   2.579  0.1805  0.2760  0.0986
 2719W        W 6783   8.562   1.109   3.815 -0.0012  0.5054  0.1578
 2720W        W 6784   2.955   7.778   9.977  0.1996  0.1371  0.0556
 2721W        W 6785   1.594   1.509   2.169 -0.1976 -0.1733 -0.0612
 2722W        W 6786   8.220   2.175   9.691 -0.0016 -0.1210  0.0869
 2723W        W 6787   1.770   0.032   2.604  0.2256  0.0715 -0.2035
 2724W        W 6788   1.372   4.062  10.786 -0.1056 -0.0029  0.1705
 2725W        W 6789  10.054   2.794   9.955  0.1219  0.2999 -0.2791
 2726W        W 6790   8.450  10.501   8.696  0.0256  0.2967  0.0418
 2727W        W 6791   9.466   2.047  10.207  0.1052  0.2009 -0.1001
 2728W        W 6792   4.966   3.028   0.219 -0.0750 -0.0224  0.0013
 2729W        W 6793   4.634   0.264   2.028  0.0392  0.0353  0.1703
 2730W        W 6794   7.827   4.076  10.358  0.1483  0.0588  0.0084
 2731W        W 6795   6.911   6.146   3.151 -0.2473  0.2505 -0.0537
 2732W        W 6796   7.372   0.108   0.589  0.0660 -0.0730 -0.3342
 2733W        W 6797   0.723   5.650  10.117 -0.2379 -0.0988 -0.3426
 2734W        W 6798   1.855   6.806   2.948 -0.3103  0.0125 -0.1819
 2735W        W 6799   7.921   4.559   0.902 -0.1047  0.1306 -0.2198
 2736W        W 6800  10.653   2.418   3.456 -0.2345 -0.0541 -0.1947
 2737W        W 6801   3.012   7.009   7.064 -0.0328 -0.1255 -0.0747
 2738W        W 6802   0.509   6.909   1.667  0.1922  0.2235 -0.0896
 2739W        W 6803   7.990   2.292   2.586 -0.0697  0.0415 -0.1218
 2740W        W 6804   9.151   0.587   9.276  0.3039  0.0590  0.1561
 2741W        W 6805   6.408   0.376   9.718 -0.1786 -0.2320 -0.0384
 2742W        W 6806   8.045   2.935  10.502  0.3321 -0.1625  0.1606
 2743W        W 6807  10.210  10.494  10.342  0.0716 -0.2761 -0.3299
 2744W        W 6808   0.533   5.296   2.752  0.2035 -0.1264 -0.1717
 2745W        W 6809   8.055   6.874   7.517  0.1638 -0.1578 -0.0341
 2746W        W 6810   8.262   8.786   0.845  0.1644  0.2409 -0.1380
 2747W        W 6811   6.288   9.305   1.766  0.1079  0.2401  0.2403
 2748W        W 6812   3.756   8.446   8.319 -0.1808 -0.0899  0.0133
 2749W        W 6813   6.950   9.445   2.161 -0.3797 -0.0707  0.2184
 2750W        W 6814   1.918   0.683  10.133  0.2803  0.0082 -0.1164
 2751W        W 6815   4.622   8.487   0.450 -0.2110  0.2280  0.1159
 2752W        W 6816   5.224   3.023   8.340  0.1589  0.0818 -0.0954
 2753W        W 6817  10.642   1.808   0.878 -0.1111 -0.1753 -0.4459
 2754W        W 6818  10.195   5.021   0.379  0.1288  0.1215  0.0110
 2755W        W 6819   9.554   9.208   3.517  0.0016 -0.1689 -0.1109
 2756W        W 6820   0.010   5.410   9.816  0.0987  0.1000  0.0928
 2757W        W 6821   1.466   6.560   3.194 -0.1783 -0.0377 -0.1852
 2758W        W 6822   8.642   8.945   9.596  0.2636 -0.2224 -0.0317
 2759W        W 6823   3.583   4.015  10.853 -0.1253 -0.0449  0.2742
 2760W        W 6824   4.856   2.982   2.022 -0.5263  0.0788 -0.0296
 2761W        W 6825   3.186   1.605   3.526  0.1021  0.1335 -0.0948
 2762W        W 6826   5.387   9.201   1.355 -0.2400  0.1302  0.1069
 2763W        W 6827   2.931   3.361   9.991 -0.2989  0.0453  0.0351
 2764W        W 6828   3.565   8.591  10.373 -0.2268 -0.1822  0.2618
 2765W        W 6829   9.020   8.772   2.945  0.2316 -0.4584  0.1969
 2766W        W 6830   5.622   8.304   9.774  0.1775 -0.0814 -0.1265
 2767W        W 6831   3.122   0.744   1.447  0.1663  0.5614 -0.2457
 2768W        W 6832  10.875   8.806   1.776 -0.2185  0.0445 -0.0081
 2769W        W 6833   1.220   9.065   8.015  0.0350 -0.1337  0.1342
 2770W        W 6834   1.500   3.329   2.823  0.1144 -0.0727 -0.0311
 2771W        W 6835   6.829  10.368   9.742 -0.1536 -0.0380  0.0212
 2772W        W 6836   9.502   6.866   0.805  0.0069  0.2299  0.0457
 2773W        W 6837   5.232  10.102  10.801  0.0310  0.0116 -0.2656
 2774W        W 6838   7.095  10.836   0.196 -0.3141 -0.0652  0.2610
 2775W        W 6839   7.860   0.847   3.186  0.3215  0.3000  0.3385
 2776W        W 6840   8.958   9.369   0.541  0.1497  0.5002 -0.2779
 2777W        W 6841   9.584   7.838   9.054 -0.2051  0.1707  0.0454
 2778W        W 6842   0.070  10.220   0.643 -0.5839 -0.4957  0.1725
 2779W        W 6843   8.441   6.225  10.900  0.0116  0.0010  0.0065
 2780W        W 6844   3.129   7.633   8.297  0.0230 -0.0225  0.2942
 2781W        W 6845   3.199   8.503   5.676 -0.2510  0.2852 -0.0942
 2782W        W 6846   1.231   5.915   8.901 -0.2494  0.0184  0.2549
 2783W        W 6847   8.065   4.090   3.124  0.2616  0.0898  0.1729
 2784W        W 6848   6.910   6.498   7.635 -0.2867 -0.3929  0.4291
 2785W        W 6849   0.636   0.525   0.625 -0.0309  0.3123  0.4245
 2786W        W 6850   3.369  10.470   2.738  0.1489 -0.0687  0.1734
 2787W        W 6851   8.578   4.087   2.923  0.5317  0.1288  0.2466
 2788W        W 6852   8.319   3.069  10.138  0.2448  0.0871  0.0028
 2789W        W 6853   3.617   3.314  10.010  0.1221  0.0296 -0.1621
 2790W        W 6854   4.204   3.154   7.657  0.1091 -0.1209 -0.1731
 2791W        W 6855   9.949   9.183  10.143  0.0275  0.0643 -0.0953
 2792W        W 6856   7.300   0.098   3.246 -0.1282  0.2849  0.1517
 2793W        W 6857   2.244   1.649   2.885  0.0879 -0.0024  0.0766
 2794W        W 6858   5.603   7.437   2.074 -0.1625  0.1273 -0.1058
 2795W        W 6859  10.225   1.188   8.975 -0.0302 -0.3647  0.0046
 2796W        W 6860   2.870   7.882   0.288  0.2893 -0.0236 -0.1448
 2797W        W 6861   0.493   6.426   8.011 -0.1141  0.3768 -0.0001
 2798W        W 6862   6.805  10.737   1.561  0.2782  0.1109 -0.1183
 2799W        W 6863   3.628   2.940   1.091 -0.1008  0.1099  0.2005
 2800W        W 6864   7.612   1.730  10.138  0.2150 -0.0947  0.1811
 2801W        W 6865   5.120   2.332   3.168 -0.2676 -0.2138  0.2208
 2802W        W 6866   1.760  10.194   1.661  0.1185 -0.1428 -0.0641
 2803W        W 6867   7.808   1.417   0.772  0.0955 -0.1499 -0.1982
 2804W        W 6868   3.132   2.912  10.087  0.1229  0.2742 -0.1502
 2805W        W 6869   3.797   3.229   3.890 -0.0045 -0.4410 -0.0682
 2806W        W 6870   1.089   5.405  11.001 -0.0306 -0.1496 -0.2547
 2807W        W 6871   6.147   7.152   8.987 -0.2551 -0.1142  0.0339
 2808W        W 6872   6.431  10.064   3.984  0.3757 -0.2876 -0.1163
 2809W        W 6873   0.359   5.121   3.194 -0.1678  0.0273 -0.2418
 2810W        W 6874   8.513   7.289   7.779  0.1690  0.1011  0.2507
 2811W        W 6875   0.420   6.461   0.383  0.0881 -0.2749 -0.0370
 2812W        W 6876  10.852   7.359   7.298 -0.5226 -0.1173 -0.0695
 2813W        W 6877  10.406   6.305   9.024  0.1290  0.1375 -0.0128
 2814W        W 6878   4.416   2.149  10.845  0.3517  0.2258  0.2086
 2815W        W 6879  10.361  10.729   9.251  0.2251 -0.0078 -0.0742
 2816W        W 6880   6.066   3.407   9.484 -0.1531 -0.0410  0.1759
 2817W        W 6881   1.942   3.053   1.903  0.1252 -0.2829  0.0434
 2818W        W 6882   2.499   0.303   8.051  0.0350  0.4432  0.1886
 2819W        W 6883   9.447   9.162  10.009 -0.0110 -0.0421  0.0938
 2820W        W 6884   3.365   3.613   0.503  0.0900  0.2258  0.0778
 2821W        W 6885   7.079   9.993   2.684 -0.2213 -0.3030 -0.1167
 2822W        W 6886   4.063   9.647   8.680  0.1991 -0.0867 -0.1443
 2823W        W 6887   7.223   4.804   3.260  0.1774 -0.1734 -0.0786
 2824W        W 6888   6.238   5.887   3.778 -0.2160  0.1456 -0.0890
 2825W        W 6889   4.463   7.584   0.746 -0.0852  0.0358  0.0070
 2826W        W 6890   6.650   9.211  10.665  0.0514  0.2229  0.3026
 2827W        W 6891   0.511   0.670   8.285 -0.0693  0.4132  0.0685
 2828W        W 6892   4.240   1.435   3.690  0.2833 -0.0086  0.0983
 2829W        W 6893   4.222   0.683  10.760  0.2348  0.2889  0.1400
 2830W        W 6894   0.592   3.619   0.732  0.0627 -0.5170 -0.0183
 2831W        W 6895   6.644   3.810   7.611  0.0257 -0.3464  0.2484
 2832W        W 6896  10.605   9.706   1.560 -0.2006 -0.1415 -0.0202
 2833W        W 6897   0.855   4.516   2.343 -0.1842  0.0049 -0.0287
 2834W        W 6898   0.696  10.218   1.881  0.1422  0.0935 -0.1589
 2835W        W 6899   3.216   7.891   2.089  0.0095  0.1796  0.0567
 2836W        W 6900   7.457   1.347  10.479  0.1675 -0.0491 -0.0699
 2837W        W 6901   1.511   1.946   3.894  0.1930  0.0857  0.1521
 2838W        W 6902   4.351   1.261  10.754 -0.1329 -0.1033 -0.3217
 2839W        W 6903   7.676   4.367  10.764 -0.2053 -0.0886 -0.2698
 2840W        W 6904   2.671   2.266   2.161 -0.2719  0.1197 -0.0881
 2841W        W 6905   0.113   6.553  10.632  0.0395 -0.0127 -0.0175
 2842W        W 6906  10.288   2.199   3.057 -0.0327  0.0816  0.0851
 2843W        W 6907   2.318   7.324   7.862  0.0953 -0.0260 -0.0622
 2844W        W 6908   9.676   2.864   2.325  0.3121  0.1175 -0.1614
 2845W        W 6909   0.071   7.086  10.760  0.1498 -0.0805  0.0074
 2846W        W 6910   9.468   8.360   7.830 -0.0170  0.2060 -0.2352
 2847W        W 6911   4.968   2.227   8.391  0.1335 -0.1038  0.1638
 2848W        W 6912   8.088   4.701   1.831  0.2080  0.1200 -0.1564
 2849W        W 6913   3.796   4.462   2.867 -0.2976 -0.2196 -0.3321
 2850W        W 6914   8.190   9.557   8.934 -0.1275 -0.2281 -0.1646
 2851W        W 6915   1.784   7.524   2.133  0.0599  0.0864 -0.0531
 2852W        W 6916   7.754   5.720  10.647  0.1218 -0.0472 -0.0093
 2853W        W 6917   7.844   3.166   8.034 -0.0785 -0.2814  0.0462
 2854W        W 6918   8.963   8.733   1.923 -0.2533  0.3873  0.2427
 2855W        W 6919   6.484   9.457   9.643 -0.0994 -0.1041 -0.3319
 2856W        W 6920   0.361   0.278   8.811 -0.0747 -0.1078 -0.1508
 2857W        W 6921   4.842   3.723   3.339  0.2021 -0.0637 -0.1987
 2858W        W 6922   3.042   4.644   1.725 -0.0665 -0.0007 -0.1670
 2859W        W 6923   3.654  10.003   9.343 -0.1718 -0.0449  0.0660
 2860W        W 6924   0.508  10.640   8.981 -0.1435 -0.0638  0.1004
 2861W        W 6925   4.671  10.819   9.014  0.1581 -0.5505  0.1799
 2862W        W 6926   5.544   7.519  10.826  0.1210 -0.1853 -0.1450
 2863W        W 6927   2.480   4.082   1.318  0.0787  0.0513 -0.3104
 2864W        W 6928   8.317   8.888   4.034  0.0403 -0.1316 -0.1703
 2865W        W 6929   2.007   3.769   9.217 -0.0498 -0.3097 -0.0678
 2866W        W 6930  10.328   6.210   9.561 -0.2255  0.3025  0.5189
 2867W        W 6931   4.444  10.734   7.556 -0.2873 -0.0733 -0.2358
 2868W        W 6932   6.606   6.158  10.212  0.3246  0.2795  0.0603
 2869W        W 6933   1.220   2.380  10.783 -0.0511 -0.1168  0.0583
 2870W        W 6934   2.856   2.965   0.898  0.2720 -0.2286 -0.1564
 2871W        W 6935   2.198   8.488   8.663  0.0468 -0.1631  0.1358
 2872W        W 6936   7.421   1.610   3.194  0.1990 -0.0933 -0.0623
 2873W        W 6937   7.349   8.912  10.115  0.1315  0.1634 -0.0700
 2874W        W 6938   1.101   7.407   7.607  0.0424  0.0555 -0.0696
 2875W        W 6939   8.584   8.301   1.982 -0.1796 -0.2724 -0.2802
 2876W        W 6940   9.502   7.125  10.476  0.3030  0.3297  0.0031
 2877W        W 6941  10.500   0.840   9.209 -0.1691  0.1044  0.1361
 2878W        W 6942   8.014   1.901   8.350  0.0513 -0.2216 -0.3894
 2879W        W 6943   2.332   8.867   9.979  0.1334  0.1770  0.1732
 2880W        W 6944   6.977   4.552   0.807 -0.0847  0.2071  0.0945
 2881W        W 6945   4.613   7.650   9.435  0.1110  0.3157 -0.1514
 2882W        W 6946   3.406   9.487   1.126  0.0111  0.0165  0.1421
 2883W        W 6947   7.402   1.412   1.291 -0.1109 -0.1226  0.1844
 2884W        W 6948   2.145   6.797  10.646  0.1019  0.1517 -0.1378
 2885W        W 6949  10.787   9.771   2.022 -0.1416 -0.0938  0.1339
 2886W        W 6950   5.941   7.526   1.091 -0.0203  0.2272 -0.0013
 2887W        W 6951   3.729   9.696   1.953 -0.0450  0.2202 -0.1237
 2888W        W 6952   3.244   2.964   1.738 -0.0860  0.1677  0.0152
 2889W        W 6953   4.547   4.626   8.352 -0.0722 -0.2185 -0.2201
 2890W        W 6954   0.702  10.062   3.165 -0.1723  0.2004  0.0886
 2891W        W 6955   5.583   4.138   7.158  0.1103 -0.1819  0.0278
 2892W        W 6956  10.422   7.186   2.726  0.1042 -0.0306 -0.0947
 2893W        W 6957   8.813   0.098   1.347  0.2623 -0.0641  0.1511
 2894W        W 6958   8.134   9.222   7.464 -0.4252 -0.0821 -0.1573
 2895W        W 6959   2.820   7.110   2.601  0.0036  0.0155  0.1288
 2896W        W 6960   1.613   7.151   0.221  0.1075 -0.2068 -0.2658
 2897W        W 6961   4.345   7.434   3.442 -0.0588 -0.2535 -0.1411
 2898W        W 6962   3.507   1.066   2.244  0.1213  0.0272 -0.1979
 2899W        W 6963   9.441   3.904   7.355  0.1749  0.1166  0.0784
 2900W        W 6964   1.070   3.037   2.617 -0.0521 -0.1309  0.0792
 2901W        W 6965   8.039  10.730   0.933 -0.0337 -0.0179 -0.2924
 2902W        W 6966   1.893  10.570   8.575  0.0173  0.1359 -0.0893
 2903W        W 6967   4.772  10.265  10.700  0.1771  0.1504 -0.2423
 2904W        W 6968  10.767   7.714   9.847  0.0981 -0.3312  0.1630
 2905W        W 6969   5.466   5.912   3.361  0.1885 -0.1202 -0.0578
 2906W        W 6970  10.324   4.501   2.332 -0.0798 -0.0729  0.2353
 2907W        W 6971   4.408   3.633   1.817 -0.0321 -0.1404  0.0988
 2908W        W 6972   1.860   8.715   3.300 -0.3161 -0.1413 -0.1443
 2909W        W 6973   3.400   1.964   8.716  0.0793 -0.1743 -0.0476
 2910W        W 6974   9.903   9.481   8.374  0.2302  0.3512 -0.1170
 2911W        W 6975   9.899   4.342   2.780  0.1420  0.2402 -0.3518
 2912W        W 6976   5.407   2.779   7.010 -0.0580  0.0982  0.2816
 2913W        W 6977   0.771   9.394   9.614  0.0981  0.2408  0.0558
 2914W        W 6978   0.647   8.957  10.006  0.1487  0.1369 -0.3990
 2915W        W 6979   0.729   2.616  10.850 -0.2385 -0.0965  0.0304
 2916W        W 6980   2.757   4.674   9.549 -0.2714 -0.3580 -0.1113
 2917W        W 6981   4.664   8.159  10.691 -0.0067  0.1485 -0.1077
 2918W        W 6982   4.749   3.044   9.713 -0.0150 -0.1401  0.0257
 2919W        W 6983   3.194   0.045   8.572  0.2492 -0.2437 -0.1738
 2920W        W 6984   2.635   2.639   2.927 -0.0273  0.0068 -0.0516
 2921W        W 6985   7.914   1.763   3.348 -0.2929  0.1603  0.2671
 2922W        W 6986   5.928   0.712   1.761  0.0635  0.1206  0.1270
 2923W        W 6987   8.979   7.351   9.045  0.1081  0.1965 -0.2174
 2924W        W 6988   4.736   4.262   3.223 -0.0521 -0.1697  0.3211
 2925W        W 6989   4.453   9.155   1.660  0.1835 -0.0145 -0.1295
 2926W        W 6990   1.558   2.730  10.931  0.1103 -0.0774  0.2845
 2927W        W 6991   7.567   5.556   1.129  0.0327 -0.1160  0.0250
 2928W        W 6992   6.497   1.555   3.507 -0.0635  0.2983 -0.1289
 2929W        W 6993   3.709   2.648   0.658  0.4957  0.0091  0.0034
 2930W        W 6994   5.420   6.740  10.421 -0.0105 -0.4312  0.1539
 2931W        W 6995   4.830   9.459   8.140 -0.0312 -0.0040  0.1887
 2932W        W 6996   4.455   9.787   2.928 -0.2851  0.3244 -0.0300
 2933W        W 6997   6.910   4.837   8.969 -0.0916  0.4514  0.2115
 2934W        W 6998   3.912   1.486  10.323  0.1819  0.2153 -0.0178
 2935W        W 6999   2.258   2.514   2.211 -0.0667  0.0317  0.1407
 2936W        W 7000   4.191  10.251   2.220 -0.1722  0.2215 -0.4222
 2937W        W 7001   3.310   7.167  10.594  0.1649 -0.0524 -0.1729
 2938W        W 7002   7.933   8.894   0.148  0.0550  0.0490  0.0327
 2939W        W 7003   1.209   3.360   0.230  0.0653  0.0180 -0.0535
 2940W        W 7004   9.581  10.143   9.413  0.0752 -0.4556  0.1144
 2941W        W 7005   2.730   4.164   3.811 -0.2148  0.2098  0.2840
 2942W        W 7006   5.001   1.434   1.421  0.1182 -0.1002  0.0343
 2943W        W 7007   9.059   0.509   3.492  0.2896 -0.1025  0.2433
 2944W        W 7008   3.653   8.193   1.338 -0.1392  0.1039 -0.0154
 2945W        W 7009   7.713   3.365  10.064  0.3061  0.2902 -0.3347
 2946W        W 7010   3.913   8.132   7.895  0.3808 -0.2215  0.1436
 2947W        W 7011   3.600   4.582   1.562  0.0380  0.0014 -0.1479
 2948W        W 7012   9.171   1.924   2.629  0.0203 -0.0955  0.1839
 2949W        W 7013   9.927   0.987   2.521 -0.0842 -0.1670  0.0259
 2950W        W 7014   3.705   1.311   1.860 -0.1551 -0.0051 -0.0075
 2951W        W 7015   3.671   2.741   1.582  0.0822 -0.1423  0.0725
 2952W        W 7016   8.149   5.295   2.393 -0.0473  0.1872  0.0031
 2953W        W 7017   1.340   2.318   3.055 -0.2776  0.0619  0.1235
 2954W        W 7018   4.245   4.224   8.535  0.1080  0.0215 -0.2716
 2955W        W 7019   6.726   1.584  11.065 -0.0553  0.2076  0.1963
 2956W        W 7020  10.840   7.458   2.905  0.0358 -0.3847 -0.1432
 2957W        W 7021   1.534   2.510   1.955 -0.0357 -0.0911 -0.1934
 2958W        W 7022  10.776   7.412   1.930 -0.3268 -0.1465 -0.0836
 2959W        W 7023  10.097   5.442   8.416 -0.0947  0.2731  0.0815
 2960W        W 7024   6.177   1.450   9.484 -0.0399 -0.0639 -0.1427
 2961W        W 7025   4.556   0.464   2.477  0.1526  0.0030 -0.0925
 2962W        W 7026   9.573   2.653  10.656  0.0749  0.0062  0.2028
 2963W        W 7027   4.340   7.225   7.903 -0.0569 -0.1374 -0.0844
 2964W        W 7028   4.252   9.035   2.554  0.4675  0.0005  0.1124
 2965W        W 7029   1.558   3.684   8.992 -0.0609  0.0504  0.1282
 2966W        W 7030   5.353   0.318   0.857 -0.4192 -0.1837  0.1586
 2967W        W 7031   7.860   8.989   1.029  0.0326 -0.3034  0.1130
 2968W        W 7032   5.424   5.502   4.150  0.2270 -0.1282  0.2028
 2969W        W 7033   5.805   2.867   1.415 -0.0771  0.2497 -0.1442
 2970W        W 7034   6.577   6.095  11.062  0.2066 -0.1883 -0.2368
 2971W        W 7035   2.771   0.665   1.002 -0.1440  0.1692 -0.0834
 2972W        W 7036   6.884   3.398   9.006 -0.0054  0.0838 -0.2371
 2973W        W 7037   9.024   8.215  10.227 -0.3725 -0.0941 -0.2735
 2974W        W 7038   8.809   3.936   0.075  0.2289  0.1359  0.2691
 2975W        W 7039   1.176   8.505   9.537 -0.0946 -0.1378 -0.0264
 2976W        W 7040   1.492   4.660   0.543  0.0682 -0.0540 -0.0904
 2977W        W 7041  10.608   8.524   9.149 -0.4199 -0.1294 -0.1971
 2978W        W 7042   6.969   4.084   7.964  0.3112 -0.1367 -0.0784
 2979W        W 7043   7.304   5.527   2.446 -0.2723 -0.3632 -0.0301
 2980W        W 7044   1.187   2.198   2.349 -0.1207  0.1306 -0.1964
 2981W        W 7045   7.976   9.388   7.979 -0.0652 -0.3776 -0.0747
 2982W        W 7046   9.543   0.289   9.859 -0.1532  0.1269 -0.0647
 2983W        W 7047   8.946   7.203   1.648  0.2066 -0.0255 -0.0411
 2984W        W 7048   5.396   7.032   9.966  0.1052 -0.2689  0.0746
 2985W        W 7049   0.881   3.948   0.953 -0.3045  0.2014 -0.0992
 2986W        W 7050   1.108   0.246   9.535  0.0849 -0.1593 -0.0644
 2987W        W 7051   8.460   2.153   1.639 -0.0300 -0.1716 -0.0274
 2988W        W 7052   9.498   2.687   9.563 -0.1078 -0.3470  0.0201
 2989W        W 7053   9.106   0.856   2.982 -0.2316 -0.0977  0.1903
 2990W        W 7054  10.294   8.457   8.691 -0.2357 -0.0346  0.0575
 2991W        W 7055   8.346   1.650   9.944  0.3301 -0.0150  0.0141
 2992W        W 7056   2.260   6.369   2.161  0.5111  0.0806  0.0853
 2993W        W 7057   8.543   6.254   7.844 -0.2291 -0.1862  0.0598
 2994W        W 7058   1.986   6.162   2.550 -0.2994 -0.0336 -0.0055
 2995W        W 7059   7.507   7.024   8.319 -0.0480  0.0768  0.0769
 2996W        W 7060   1.574   8.073   0.025 -0.2691  0.1480 -0.1731
 2997W        W 7061   1.036   4.465   2.809 -0.0860 -0.0159  0.4393
 2998W        W 7062   7.551   4.234   1.076  0.0395 -0.0195 -0.3350
 2999W        W 7063  10.162   0.455   1.133  0.2971 -0.0145  0.0472
 3000W        W 7064   3.916   5.250   9.479 -0.0762 -0.2550 -0.1269
 3001W        W 7065   6.067   3.249   8.454 -0.2667  0.0360 -0.2708
 3002W        W 7066   2.608   0.586   2.352 -0.0462  0.1073  0.1568
 3003W        W 7067   6.522   2.195   1.846  0.1117 -0.0606  0.1889
 3004W        W 7068  10.728   0.253   0.244  0.0180  0.1255  0.1172
 3005W        W 7069   3.010   7.380   0.246  0.0850 -0.2751 -0.5355
 3006W        W 7070   6.948   4.178   1.729 -0.4391 -0.1908 -0.1457
 3007W        W 7071   1.082   0.795   0.389  0.1092 -0.1546  0.1949
 3008W        W 7072   8.484   7.136   1.501 -0.1263 -0.0019  0.0771
 3009W        W 7073   1.190   5.207   9.505 -0.1242  0.0897 -0.3589
 3010W        W 7074   3.111   8.454   4.268  0.0721 -0.4070 -0.2730
 3011W        W 7075   3.250   6.992   9.741 -0.4404 -0.1497  0.1044
 3012W        W 7076   3.782   4.779   2.442 -0.1731  0.0796 -0.0230
 3013W        W 7077   2.165   4.858   8.236 -0.1643  0.0240 -0.0704
 3014W        W 7078   5.614   7.868   9.038  0.0195  0.0492  0.2901
 3015W        W 7079   7.149   1.401   0.828 -0.3445  0.1641  0.0530
 3016W        W 7080  10.781   5.255   7.924 -0.1686 -0.0914  0.0412
 3017W        W 7081   8.429   4.458   0.933  0.1669 -0.0360 -0.0059
 3018W        W 7082   8.288   0.504   9.089  0.0286 -0.0589  0.1283
 3019W        W 7083   0.767   4.330   1.385 -0.1344  0.3200 -0.2469
 3020W        W 7084   8.455   2.520   2.442 -0.0502  0.1619 -0.2097
 3021W        W 7085   2.215   1.171   9.888  0.0937  0.2204 -0.2160
 3022W        W 7086   5.975   8.914   3.134  0.1296  0.0017 -0.0080
 3023W        W 7087   3.525   5.997   9.390  0.0721 -0.0342 -0.1914
 3024W        W 7088  10.262   1.967   2.483  0.1760 -0.2789 -0.1685
 3025W        W 7089   4.607   0.719   8.684 -0.0516  0.2563 -0.0666
 3026W        W 7090   4.658   1.667   2.671  0.2160  0.0851 -0.1840
 3027W        W 7091   9.250   3.089  10.850  0.3476  0.2765  0.2186
 3028W        W 7092   7.162   9.756   0.762  0.1242 -0.1864 -0.0011
 3029W        W 7093   6.121   9.257   9.924  0.0570  0.1886 -0.3786
 3030W        W 7094   5.224   7.553   9.292  0.1044  0.1262  0.0418
 3031W        W 7095   1.150   8.178   8.951  0.2724 -0.2546 -0.0833
 3032W        W 7096  10.515   5.215   8.351 -0.1890 -0.2139 -0.1521
 3033W        W 7097   1.755   5.888   7.632 -0.0168  0.0398  0.2256
 3034W        W 7098   6.589   8.166   0.527  0.0990  0.1051 -0.0233
 3035W        W 7099   6.309   0.096  10.175  0.0345  0.4193 -0.0615
 3036W        W 7100   5.606   7.249   0.248  0.3945  0.4007  0.1870
 3037W        W 7101   2.021   2.397   1.771 -0.2162  0.3512  0.0092
 3038W        W 7102   2.078   8.968   4.107  0.1026  0.1202 -0.4077
 3039W        W 7103   7.559   2.746   0.165 -0.0627 -0.3213 -0.2421
 3040W        W 7104   0.068   3.191  10.833  0.1687  0.0362  0.1745
 3041W        W 7105   0.004  10.243   0.146 -0.1363 -0.0236  0.2083
 3042W        W 7106   1.767   0.194  10.308  0.3339  0.3010  0.2018
 3043W        W 7107   8.978   6.245  10.126 -0.0186  0.1626 -0.2861
 3044W        W 7108   5.524   3.891   8.203 -0.3288 -0.0178  0.2320
 3045W        W 7109   7.614   0.924   8.455 -0.1019  0.2012 -0.1615
 3046W        W 7110   9.505   0.875   9.475  0.1191 -0.0111 -0.1752
 3047W        W 7111   4.011   6.506   0.214  0.1205 -0.0595 -0.0615
 3048W        W 7112   5.587   5.993   9.290  0.2046 -0.1808  0.0012
 3049W        W 7113   7.707   8.557   7.966 -0.1160 -0.0909 -0.1089
 3050W        W 7114   2.559   3.709   3.965 -0.4456  0.2491  0.0567
 3051W        W 7115   4.865   0.717   9.938  0.0255  0.0693 -0.1592
 3052W        W 7116   7.792   1.119  10.786  0.4089  0.2178 -0.0824
 3053W        W 7117  10.150   3.328  10.651  0.2793  0.3791 -0.3704
 3054W        W 7118   6.899   3.200   9.841 -0.2744 -0.0066  0.3120
 3055W        W 7119   2.924   5.338   9.640  0.0344 -0.0644 -0.3389
 3056W        W 7120   8.898   4.432   3.074 -0.1980  0.1228  0.1001
 3057W        W 7121   3.857   8.041   2.382 -0.0040  0.0324  0.0164
 3058W        W 7122   2.555   0.974   9.030 -0.1914  0.0949 -0.1124
 3059W        W 7123   2.239   5.364  10.779 -0.0167  0.2406  0.3086
 3060W        W 7124   0.181   0.078   1.127 -0.0297  0.2795 -0.2552
 3061W        W 7125   7.013   2.319   1.119 -0.1199  0.1704 -0.2768
 3062W        W 7126   4.487   3.436  10.737  0.3097  0.0900 -0.0488
 3063W        W 7127   2.092   4.341  11.018 -0.2121  0.1075  0.0776
 3064W        W 7128   8.067   4.972   0.067  0.0989  0.1645  0.1179
 3065W        W 7129  10.624  10.109   1.044 -0.1624  0.1959 -0.0743
 3066W        W 7130   8.082   2.263   1.968 -0.1626  0.0093 -0.2459
 3067W        W 7131   8.148   3.225   9.652  0.0512 -0.1623  0.1041
 3068W        W 7132   9.916   1.242   9.405  0.1035  0.0743 -0.0788
 3069W        W 7133   8.006  10.216   4.379  0.1141  0.0013  0.0851
 3070W        W 7134   7.944   9.476   0.413  0.2874  0.1381  0.0307
 3071W        W 7135   9.428   9.161   2.973 -0.2483  0.1376 -0.3792
 3072W        W 7136   8.298   3.906   2.522 -0.4871  0.0583 -0.4508
 3073W        W 7137   3.108   9.590   6.367  0.1359 -0.0028 -0.2904
 3074W        W 7138   2.456   1.787   2.343  0.0749  0.2496  0.1246
 3075W        W 7139   5.100   4.883  10.083 -0.1272 -0.2050  0.0159
 3076W        W 7140   1.738  10.266   8.965 -0.0170 -0.0259 -0.3100
 3077W        W 7141   0.830   8.831   8.844 -0.2842  0.1244 -0.2539
 3078W        W 7142   0.345   4.865  10.957 -0.3739 -0.1507 -0.1530
 3079W        W 7143   1.836   7.649   7.261  0.1364 -0.2081 -0.2213
 3080W        W 7144   8.421   1.943   3.559  0.1023 -0.2324 -0.0019
 3081W        W 7145   9.563   4.733   9.622  0.2743  0.2220  0.0693
 3082W        W 7146  10.130   8.106  10.488 -0.0532 -0.2102 -0.2464
 3083W        W 7147   4.573   5.745   9.596  0.2617 -0.2030  0.2424
 3084W        W 7148   5.548   0.831  10.567 -0.0261 -0.1784 -0.0025
 3085W        W 7149  10.557   6.591   7.427  0.1049  0.0303  0.0058
 3086W        W 7150   4.037   5.702  10.208 -0.0631 -0.4767  0.1684
 3087W        W 7151   5.114   5.880   2.854 -0.0578 -0.0035 -0.2661
 3088W        W 7152   2.722   8.449   3.419  0.1415 -0.2244 -0.2085
 3089W        W 7153   7.230   6.927   2.738  0.0018 -0.2477 -0.1600
 3090W        W 7154  10.029   6.656  10.989  0.0011 -0.0654  0.1097
 3091W        W 7155   1.725   1.109   8.846  0.5016 -0.2539 -0.2552
 3092W        W 7156   5.567   5.352   1.071 -0.2625  0.3061  0.2566
 3093W        W 7157   8.285   1.924   4.145  0.2995  0.0011  0.1586
 3094W        W 7158   6.512   4.900   2.091 -0.3328  0.0006 -0.1934
 3095W        W 7159   4.178   7.204   0.631 -0.2549  0.1948 -0.2512
 3096W        W 7160  10.568   9.036   0.961 -0.2234  0.0890 -0.1121
 3097W        W 7161   4.891   5.572   7.481 -0.1459 -0.2331  0.0647
 3098W        W 7162   6.685   0.026   1.127 -0.2447 -0.3050 -0.3841
 3099W        W 7163   1.548   5.589   8.679  0.1423  0.1037  0.3436
 3100W        W 7164   9.218   0.959   1.114  0.0854 -0.3428 -0.0429
 3101W        W 7165   8.432   5.889   9.985  0.1445  0.0085  0.1063
 3102W        W 7166   6.495   2.090   3.351  0.0027  0.1875  0.0396
 3103W        W 7167   3.326   8.193   0.140 -0.2665  0.1995 -0.0873
 3104W        W 7168   5.823   3.866   9.933  0.1363  0.0546 -0.0680
 3105W        W 7169   5.017   8.462  10.916  0.1538  0.2501  0.1516
 3106W        W 7170   3.869   4.293   0.203  0.0968 -0.0886 -0.1358
 3107W        W 7171   4.016   9.235   0.068 -0.0438  0.0024  0.0530
 3108W        W 7172   9.175   3.976   1.453  0.0588  0.1307 -0.1846
 3109W        W 7173   5.002   1.287   0.588 -0.2721  0.0142 -0.3228
 3110W        W 7174   0.032  10.493   2.667  0.1199 -0.4224 -0.1364
 3111W        W 7175   0.542   8.158   9.629  0.1920 -0.1108  0.1126
 3112W        W 7176  10.627   6.562   2.258 -0.2428  0.0768 -0.1547
 3113W        W 7177   3.371   8.546   0.504  0.1585  0.3410  0.2116
 3114W        W 7178   7.230  10.584   4.055  0.2287  0.3428 -0.3127
 3115W        W 7179   4.688  10.219   3.141 -0.1199 -0.0034 -0.2327
 3116W        W 7180   7.372   6.870   2.241 -0.1729  0.1851  0.0346
 3117W        W 7181   6.108   8.378  10.842  0.2032 -0.1517 -0.3510
 3118W        W 7182  10.702   9.653  10.850  0.0437  0.5924  0.2122
 3119W        W 7183   3.381   4.308   0.246  0.1132  0.3977  0.3176
 3120W        W 7184   1.477   4.790   1.725  0.2258  0.0007  0.0134
 3121W        W 7185   6.912   9.057   9.916  0.0187  0.1124  0.0654
 3122W        W 7186   7.269   2.909  10.532 -0.3933  0.2038 -0.2983
 3123W        W 7187   5.934   6.125   3.086  0.0763  0.1950 -0.0097
 3124W        W 7188   1.600   6.355   2.762 -0.2974  0.2389  0.1580
 3125W        W 7189   9.174  10.159   2.461 -0.0878  0.1871 -0.0903
 3126W        W 7190   6.141   3.863   2.044 -0.0579 -0.0419 -0.0178
 3127W        W 7191   0.803   9.559   3.016  0.1482  0.0364  0.2362
 3128W        W 7192   2.904   0.668   9.858  0.1735  0.0872  0.3363
 3129W        W 7193   1.154   5.832   8.348 -0.2618 -0.0672 -0.1030
 3130W        W 7194   9.405   2.554   2.077  0.1065  0.0419  0.1319
 3131W        W 7195   8.276  10.047   9.929 -0.0071  0.0576  0.2816
 3132W        W 7196   7.476   7.159   7.814 -0.3348  0.2257  0.0491
 3133W        W 7197   5.873   2.401   2.685  0.2470  0.0421 -0.0854
 3134W        W 7198   9.808   4.180   1.525  0.0955 -0.3349 -0.1051
 3135W        W 7199   9.719   6.646   0.310 -0.0071  0.1878  0.0795
 3136W        W 7200   4.995   9.756   9.640  0.0528 -0.3376 -0.1930
 3137W        W 7201   5.360   3.291   4.187 -0.3432 -0.2619 -0.2430
 3138W        W 7202   4.854   9.439   2.848 -0.0151 -0.0171 -0.1949
 3139W        W 7203   9.693   6.981   9.998  0.0392 -0.2684  0.1868
 3140W        W 7204   1.538   0.458   2.288 -0.0818  0.2445 -0.0198
 3141W        W 7205   9.512   7.390   9.313  0.0541 -0.0411  0.0113
 3142W        W 7206   1.408  10.049   2.516 -0.2780  0.2258  0.0489
 3143W        W 7207   9.734   5.003  10.847  0.2248  0.0149  0.0956
 3144W        W 7208   5.163   5.697   0.348  0.0719 -0.2028 -0.1087
 3145W        W 7209   2.180   9.673   3.711  0.1751  0.1756  0.1593
 3146W        W 7210   8.003  10.580   1.880  0.3460 -0.0089  0.3332
 3147W        W 7211   2.048   3.043   9.670  0.0181 -0.0051  0.1649
 3148W        W 7212   1.391   8.775   2.178  0.0373 -0.3633 -0.1396
 3149W        W 7213   6.421  10.470   0.584 -0.1938 -0.2191 -0.1560
 3150W        W 7214   2.640   7.420   7.465 -0.2967 -0.2174  0.1113
 3151W        W 7215   9.865   7.064   9.012 -0.2968 -0.1045  0.2443
 3152W        W 7216   3.776   7.971   2.875 -0.2108  0.1382  0.0979
 3153W        W 7217   6.568   4.593   9.365  0.1945  0.1383  0.1584
 3154W        W 7218   9.759   1.090  10.011 -0.2619  0.2385  0.1098
 3155W        W 7219   7.903   4.286   2.014 -0.0610  0.0203  0.1223
 3156W        W 7220   2.483   5.783   8.120 -0.1572 -0.0698 -0.0366
 3157W        W 7221   4.522   9.955   8.803 -0.2938 -0.3909 -0.0612
 3158W        W 7222   4.153   1.070   1.673 -0.2284 -0.2616 -0.1940
 3159W        W 7223   2.316   1.179   0.286  0.0741  0.1727 -0.0715
 3160W        W 7224   0.599   9.679   9.260 -0.0124  0.0175 -0.0993
 3161W        W 7225   0.245   5.215   2.392  0.1727 -0.0360  0.1714
 3162W        W 7226   8.941   3.249   2.997 -0.0775  0.0969  0.1268
 3163W        W 7227   4.811   0.077   1.595 -0.0765  0.2501 -0.4008
 3164W        W 7228   6.900   3.556   1.069 -0.2769 -0.2933  0.1558
 3165W        W 7229   5.574   0.946   7.740  0.1488  0.1689  0.0815
 3166W        W 7230   0.666   1.469   2.414  0.0517  0.0219  0.2312
 3167W        W 7231   1.529   1.952   2.657 -0.1970 -0.0489 -0.0370
 3168W        W 7232   9.906   5.967   8.152 -0.0662 -0.0158  0.2689
 3169W        W 7233   8.686   7.619   9.683  0.1237  0.4244 -0.0502
 3170W        W 7234   7.923   1.252  10.283  0.1819  0.3948 -0.2383
 3171W        W 7235   0.483   7.857  10.187  0.0511 -0.1755  0.0016
 3172W        W 7236   3.967   7.894   1.149  0.1333  0.1335  0.0555
 3173W        W 7237   0.347   2.697   3.662  0.0862 -0.1009 -0.1667
 3174W        W 7238   9.914   6.509   2.081  0.2137 -0.3739 -0.1522
 3175W        W 7239   6.302   1.102   3.474  0.2634  0.2074  0.1209
 3176W        W 7240   1.879   9.475   7.469  0.0653 -0.2021  0.1092
 3177W        W 7241   5.495   5.226   3.009  0.0414  0.0003 -0.1348
 3178W        W 7242   0.466   9.839   9.706 -0.1330 -0.1314 -0.0420
 3179W        W 7243   0.603   3.147  10.844  0.0865  0.3094  0.0671
 3180W        W 7244  10.740   2.223   2.624 -0.1161  0.0873  0.0110
 3181W        W 7245   6.957   3.134   8.507  0.1394 -0.0054 -0.0246
 3182W        W 7246   3.589   1.838   1.897  0.1065 -0.1635 -0.1433
 3183W        W 7247   6.604   3.006   0.610  0.0460 -0.4355  0.0811
 3184W        W 7248   5.454   8.867   7.247 -0.1482 -0.6092 -0.1705
 3185W        W 7249   3.149   4.891  10.447 -0.2892 -0.2385 -0.0572
 3186W        W 7250   2.387   9.011   7.106  0.0419 -0.0318  0.0710
 3187W        W 7251   9.826   7.485   1.345  0.1256 -0.1292 -0.0024
 3188W        W 7252   6.124  10.753   1.720 -0.2806 -0.1410  0.1911
 3189W        W 7253   9.448   4.487   1.361  0.2680  0.1135 -0.2441
 3190W        W 7254   8.058   3.415  10.578 -0.1893 -0.0815 -0.1612
 3191W        W 7255   2.317   8.565   9.202 -0.1067 -0.0388 -0.3454
 3192W        W 7256  10.340   1.759   9.148  0.1084  0.0133 -0.1578
 3193W        W 7257   2.280   0.972   2.202 -0.0220 -0.1861  0.0429
 3194W        W 7258   6.005   6.676   1.006 -0.0497  0.0637  0.5402
 3195W        W 7259   7.679   1.971   9.650  0.1735 -0.0280 -0.1904
 3196W        W 7260   2.322   4.619  10.009 -0.1793  0.0326  0.3001
 3197W        W 7261   6.126   9.219  10.467  0.2566  0.3747 -0.0254
 3198W        W 7262   8.810   8.364   0.084  0.1426  0.0495  0.0515
 3199W        W 7263   5.072  10.196   1.655 -0.1559 -0.0264 -0.1929
 3200W        W 7264   1.779   3.751   2.618 -0.0686  0.0339 -0.2015
 3201W        W 7265   8.567   2.470   0.563  0.0344 -0.0285 -0.1275
 3202W        W 7266   4.404   1.053   4.080 -0.0987 -0.0247 -0.1789
 3203W        W 7267   5.596  10.299   2.812 -0.0202  0.3227  0.1062
 3204W        W 7268   2.117   2.480   8.698  0.1872  0.0140  0.1102
 3205W        W 7269   2.255   9.575   2.645  0.3033  0.3044  0.0060
 3206W        W 7270   9.342   7.616   0.717  0.0374  0.0112 -0.1435
 3207W        W 7271   8.063   1.787   1.070  0.3081 -0.5999 -0.0829
 3208W        W 7272   5.768  10.673   8.803  0.1374 -0.0268 -0.0684
 3209W        W 7273   3.733   0.276   1.900 -0.0533 -0.0343 -0.0746
 3210W        W 7274   3.804   9.906   2.980 -0.1744 -0.1552  0.1791
 3211W        W 7275   3.320   2.414   1.676 -0.1070 -0.0984  0.1729
 3212W        W 7276   9.342   3.597  10.035 -0.2974 -0.0116  0.1920
 3213W        W 7277   2.107   0.110  10.764  0.0513 -0.0772 -0.0855
 3214W        W 7278   9.841   3.375  10.088 -0.0781 -0.0285  0.2474
 3215W        W 7279   2.734   2.886   1.468  0.0324 -0.1437 -0.2288
 3216W        W 7280   9.199   6.150  10.557  0.1726 -0.1884  0.0048
 3217W        W 7281  10.502   3.373   8.643  0.2267  0.0263 -0.0619
 3218W        W 7282   8.021   3.467   0.037  0.2598 -0.1284  0.0482
 3219W        W 7283   1.657   4.515   0.988  0.1610 -0.3604 -0.3942
 3220W        W 7284  10.049   5.549   9.472  0.0935  0.0185  0.0742
 3221W        W 7285   1.610  10.700   3.214 -0.0044  0.4196  0.0256
 3222W        W 7286   3.324   6.738   7.795 -0.1415 -0.1432 -0.3445
 3223W        W 7287   3.914  10.370   0.193  0.0540 -0.1180 -0.0056
 3224W        W 7288   2.170   7.451   2.525  0.1795  0.1597  0.1862
 3225W        W 7289   6.422   6.331   3.295  0.0291 -0.1060  0.1425
 3226W        W 7290   8.948   5.408   0.759 -0.3166 -0.3025 -0.0325
 3227W        W 7291   9.599  10.552   1.800 -0.2871 -0.0659  0.2613
 3228W        W 7292   2.918   8.905   2.716 -0.0255  0.1441 -0.1124
 3229W        W 7293   7.878   1.417   2.201 -0.0410 -0.3095 -0.2498
 3230W        W 7294   6.560   8.539   1.857  0.3377  0.0307 -0.3478
 3231W        W 7295   3.770   7.441  10.701 -0.0079  0.1135 -0.1782
 3232W        W 7296   4.505   6.775   9.194  0.1142 -0.0128  0.1572
 3233W        W 7297   0.747   2.384   3.697 -0.1467  0.0484 -0.1837
 3234W        W 7298   8.906   4.410   7.917  0.2378 -0.2793  0.1647
 3235W        W 7299   7.379   4.818   9.190  0.0603  0.0966 -0.1502
 3236W        W 7300   3.617   2.595   7.989  0.1947 -0.0319  0.0918
 3237W        W 7301   0.855   5.057   2.458  0.0674 -0.2658  0.2984
 3238W        W 7302   4.107   1.059   0.087 -0.0898 -0.3115 -0.1257
 3239W        W 7303   4.261   1.182   0.910  0.2758 -0.4259 -0.0258
 3240W        W 7304   7.648   9.007   0.541 -0.0131 -0.0827 -0.1834
 3241W        W 7305   9.962   4.206  10.835 -0.1396 -0.2757  0.0660
 3242W        W 7306   1.822   0.301   7.712 -0.0784 -0.0146  0.2131
 3243W        W 7307   5.793   0.685   8.943 -0.2665  0.0045 -0.1339
 3244W        W 7308   7.897   1.740   7.860  0.0875  0.0958  0.2896
 3245W        W 7309   0.156   1.436   2.442  0.0185  0.2388  0.0104
 3246W        W 7310   4.876   4.657   2.894 -0.2742  0.2283  0.4017
 3247W        W 7311   1.918   8.768   0.397  0.0520 -0.3403  0.0688
 3248W        W 7312   4.681   3.791   8.712 -0.0052  0.3111 -0.0457
 3249W        W 7313   2.437   7.845   8.804 -0.1725 -0.2069 -0.0305
 3250W        W 7314   9.641   3.613   9.611 -0.2319  0.0731  0.2469
 3251W        W 7315   3.808   0.767  10.457 -0.0304 -0.5152  0.0382
 3252W        W 7316   0.713   1.331   8.937  0.1518  0.1697 -0.0397
 3253W        W 7317   5.520   0.883   9.401 -0.2405  0.2644 -0.2276
 3254W        W 7318   9.562   7.417   8.272 -0.2757 -0.2060 -0.0056
 3255W        W 7319   2.706   7.995   7.538  0.1247  0.0890  0.0623
 3256W        W 7320   6.411  10.591   2.869 -0.0920 -0.5307 -0.0770
 3257W        W 7321   0.455   0.836   1.516 -0.1523 -0.1256 -0.0409
 3258W        W 7322   1.858   8.433   2.052 -0.4032  0.0907  0.0799
 3259W        W 7323   5.715  10.876   7.514 -0.0419 -0.1377  0.0427
 3260W        W 7324   5.472   8.372   1.941  0.2217  0.2181 -0.1504
 3261W        W 7325   5.206   0.229   3.303  0.0739  0.3905 -0.5200
 3262W        W 7326   4.672   4.748   3.402 -0.2386  0.1679  0.0735
 3263W        W 7327   4.823   3.318   9.102 -0.3817  0.0109 -0.1012
 3264W        W 7328   2.685   4.975   2.648 -0.0883 -0.0236 -0.3381
 3265W        W 7329   4.401   0.304   9.797  0.0259 -0.0677  0.0357
 3266W        W 7330  10.781   0.471   1.337 -0.1964 -0.0381  0.0238
 3267W        W 7331   2.472   5.066   9.782  0.1104 -0.0835  0.1443
 3268W        W 7332   6.731   3.962   3.240  0.1540 -0.0244 -0.0671
 3269W        W 7333   7.820   1.016   2.507 -0.0099 -0.1009  0.1504
 3270W        W 7334   8.058   4.750   9.867  0.1169 -0.1459 -0.1394
 3271W        W 7335   9.941   4.254   0.935  0.3380  0.1529 -0.2687
 3272W        W 7336   7.567   4.376   0.523  0.0170  0.0294 -0.0824
 3273W        W 7337   3.076   0.277   3.139  0.0073  0.1159  0.2403
 3274W        W 7338   7.318  10.716   1.504 -0.1994  0.1087 -0.1187
 3275W        W 7339   0.971   5.508   2.132  0.0301  0.0500 -0.1318
 3276W        W 7340   6.815   8.013   1.963  0.1604  0.2778  0.0098
 3277W        W 7341   3.583   1.620   0.727  0.3013 -0.1284  0.3508
 3278W        W 7342   9.610   6.585   1.245 -0.2586  0.3230 -0.0208
 3279W        W 7343   2.144   9.922   9.231  0.1523 -0.1113  0.0386
 3280W        W 7344   2.526   9.550   1.412 -0.1474 -0.1372  0.0047
 3281W        W 7345   7.781   1.255   3.502  0.3666 -0.2722  0.3679
 3282W        W 7346   3.545   7.651   1.433  0.1481  0.0253  0.1497
 3283W        W 7347   1.342   5.714   1.829  0.0102 -0.0969  0.0675
 3284W        W 7348   7.268   5.649   0.653 -0.2431  0.0158 -0.7067
 3285W        W 7349   3.032   9.806   7.803  0.0557 -0.0656  0.1364
 3286W        W 7350   7.072   3.921  10.359  0.2850  0.0512  0.0003
 3287W        W 7351   6.839   8.677   3.682  0.0825 -0.2406 -0.0267
 3288W        W 7352   1.352   3.199  10.323  0.2098 -0.1945 -0.1527
 3289W        W 7353   6.620   1.806   8.329 -0.2529  0.0503 -0.0801
 3290W        W 7354   9.445   6.021   9.058  0.3020  0.0569  0.0039
 3291W        W 7355   9.418   8.264   8.356 -0.0355  0.0593  0.1676
 3292W        W 7356   4.957   5.733   2.238 -0.0248 -0.0314 -0.1125
 3293W        W 7357   6.470   6.549   2.115 -0.1417  0.0554 -0.0731
 3294W        W 7358   6.160   3.946   0.798  0.1856  0.0059 -0.2380
 3295W        W 7359   9.563   7.560   0.026  0.0370  0.1471 -0.0756
 3296W        W 7360   8.281   1.170   3.270 -0.2037 -0.0185  0.1177
 3297W        W 7361   8.812   9.578   0.956 -0.3466 -0.0538 -0.0960
 3298W        W 7362   1.884   9.783  10.330 -0.0121  0.1100  0.1792
 3299W        W 7363   6.914  10.173   7.731 -0.0137 -0.0500  0.2723
 3300W        W 7364   9.648   3.986  10.037  0.2188 -0.2352  0.1721
 3301W        W 7365   4.466   2.463   9.018  0.0822  0.1731 -0.2017
 3302W        W 7366   9.018   9.093   2.540 -0.0833  0.0899 -0.2756
 3303W        W 7367   1.233   2.360   0.815 -0.2965  0.0615  0.0233
 3304W        W 7368   4.855   6.281  10.839  0.1832  0.2322  0.1774
 3305W        W 7369   6.881   0.810   7.527 -0.0330  0.1154  0.0735
 3306W        W 7370   5.458   6.989   8.032  0.0084  0.2192 -0.3438
 3307W        W 7371   5.403   8.782   1.688  0.0763  0.0095 -0.2129
 3308W        W 7372   1.574   0.721   9.311  0.0719 -0.1978  0.0407
 3309W        W 7373  10.533  10.439   2.358  0.4212  0.0486 -0.1360
 3310W        W 7374   0.006   1.231   0.390  0.1991  0.3211 -0.3545
 3311W        W 7375   5.300   5.368   2.555 -0.1776  0.2119 -0.2218
 3312W        W 7376   6.637  10.678   7.704  0.0969 -0.2193 -0.3086
 3313W        W 7377   7.749   6.221   8.453  0.3068  0.0132 -0.1522
 3314W        W 7378   4.006   2.254   7.906 -0.0624  0.2660  0.2024
 3315W        W 7379  10.027  10.074   3.624  0.0708  0.2682  0.0137
 3316W        W 7380   3.552   2.056   9.167 -0.0540  0.3048 -0.0125
 3317W        W 7381   9.397   1.296   7.654  0.0398 -0.0646 -0.1942
 3318W        W 7382   4.513   0.109   2.790  0.0432  0.0967 -0.4342
 3319W        W 7383   5.728   1.701   8.361 -0.3164  0.1522  0.0159
 3320W        W 7384   5.590   1.354  10.572  0.3612 -0.4041 -0.0702
 3321W        W 7385   7.331   9.765  10.949  0.2465  0.3030 -0.2384
 3322W        W 7386   7.742   1.406   0.221 -0.2894 -0.0310 -0.0500
 3323W        W 7387   0.854   6.278   8.377  0.0837  0.0727  0.0845
 3324W        W 7388   8.457   9.705  10.273  0.3809 -0.0465 -0.1629
 3325W        W 7389   1.157   1.883  10.669 -0.2751 -0.1982  0.0656
 3326W        W 7390   0.154   9.234   1.040  0.1943  0.0910 -0.2132
 3327W        W 7391   9.346   6.974   9.040 -0.0042  0.2700 -0.0647
 3328W        W 7392   5.793   0.494  10.182  0.1057 -0.1197  0.0872
 3329W        W 7393   8.651   5.580   1.710  0.0890 -0.1207 -0.0040
 3330W        W 7394   2.803   4.296  10.564 -0.0639 -0.2069 -0.4346
 3331W        W 7395  10.814   1.427  10.052  0.0190  0.1314  0.1322
 3332W        W 7396  10.148  10.412  10.875  0.1994  0.0060  0.3546
 3333W        W 7397   8.397   9.392   9.379 -0.1817 -0.1148 -0.2150
 3334W        W 7398   0.930   4.920   0.772  0.2438 -0.0336  0.3679
 3335W        W 7399   4.694   0.314   8.406  0.0306  0.2304  0.0914
 3336W        W 7400   7.721   9.894   3.261  0.0645  0.2203  0.0173
 3337W        W 7401  10.011   3.732  10.393 -0.0054  0.2359 -0.1147
 3338W        W 7402   8.961  10.140   1.046 -0.0814  0.0304 -0.1079
 3339W        W 7403   0.597   3.437   1.711 -0.0094 -0.1870  0.3359
 3340W        W 7404   7.374  10.530   0.524 -0.0540  0.1474 -0.1527
 3341W        W 7405   1.524   4.031   9.295  0.1140 -0.0043  0.2615
 3342W        W 7406   9.250   9.192  10.859 -0.1330 -0.2084  0.0986
 3343W        W 7407   9.192   2.811   0.960  0.0078  0.0064  0.2274
 3344W        W 7408   0.195   1.737   0.056  0.2136  0.0694 -0.0866
 3345W        W 7409   2.535   9.325   9.964 -0.0829  0.0718 -0.1452
 3346W        W 7410   8.267   7.272   9.650 -0.2818  0.2168 -0.0235
 3347W        W 7411   8.688  10.155   8.238  0.0900  0.1600 -0.0281
 3348W        W 7412   9.483   2.687   0.179  0.0381 -0.1942  0.2420
 3349W        W 7413   0.778   3.499   2.478  0.2572 -0.0122 -0.0411
 3350W        W 7414   2.653   2.641   9.376  0.0058 -0.2379 -0.0416
 3351W        W 7415   8.009   6.332   9.244  0.4183  0.0248  0.0242
 3352W        W 7416   4.180   3.511   9.882  0.1495  0.1650  0.1853
 3353W        W 7417   1.211   1.399   8.928  0.1159  0.0370 -0.0961
 3354W        W 7418   4.254  10.883   0.098 -0.0254 -0.1199 -0.0442
 3355W        W 7419  10.651   5.644  10.259 -0.1704 -0.2045 -0.1604
 3356W        W 7420   4.579   0.947   8.261 -0.3078 -0.0722  0.0131
 3357W        W 7421   7.772   8.666  10.641 -0.3169 -0.1481  0.0519
 3358W        W 7422  10.443   4.622   8.105  0.1801 -0.3430 -0.0618
 3359W        W 7423   2.264   6.011   1.828 -0.4148 -0.2605 -0.2588
 3360W        W 7424   5.882   8.924   1.825  0.0076 -0.0221 -0.1636
 3361W        W 7425   0.140   5.841   2.226 -0.0786  0.4052 -0.4303
 3362W        W 7426   2.110  10.733   9.395 -0.1258  0.1206 -0.1466
 3363W        W 7427   5.910   9.492  10.934 -0.2357  0.1689 -0.0402
 3364W        W 7428   5.196   1.889   3.336  0.3332  0.3679  0.5135
 3365W        W 7429   4.527   2.789   1.582 -0.2375 -0.1768 -0.0400
 3366W        W 7430   2.961  10.444  10.842 -0.1831  0.1963  0.1085
 3367W        W 7431   6.544   2.244   8.135 -0.3733  0.0320  0.0579
 3368W        W 7432   5.121   7.941   0.041 -0.2079  0.1861 -0.1396
 3369W        W 7433   9.297   1.668   8.858 -0.1234 -0.1695  0.0266
 3370W        W 7434   7.919   7.413   9.989 -0.2859  0.0018  0.0909
 3371W        W 7435   1.367   7.329   8.654 -0.1353  0.1837 -0.0583
 3372W        W 7436   4.112   4.718   0.020  0.3516 -0.0812 -0.2068
 3373W        W 7437   8.964   1.247   0.696 -0.6185 -0.5304 -0.2204
 3374W        W 7438   5.561   9.760   2.112 -0.0432  0.4562 -0.3089
 3375W        W 7439   0.429   4.255  10.687  0.1651 -0.1291  0.0108
 3376W        W 7440   3.995  10.661  10.713  0.0551  0.3316  0.1249
 3377W        W 7441   9.656   7.628   2.728  0.0009  0.0445  0.0127
 3378W        W 7442   8.656   0.203   9.836  0.0160 -0.0557  0.3177
 3379W        W 7443   9.024   7.358   8.496  0.1065  0.0742 -0.3470
 3380W        W 7444   0.727   0.814   0.996 -0.1973 -0.0285 -0.1898
 3381W        W 7445   3.300   1.924   9.671  0.4072 -0.0370  0.0569
 3382W        W 7446   1.691   3.998   9.804 -0.3169 -0.2545 -0.2037
 3383W        W 7447   4.857   8.854   0.165  0.3676 -0.2465  0.0669
 3384W        W 7448   7.011  10.588   3.622  0.1363 -0.1619 -0.0662
 3385W        W 7449   6.853   3.088   2.494  0.1031 -0.1126  0.1260
 3386W        W 7450   3.657  10.049   9.967 -0.3469 -0.0524  0.2723
 3387W        W 7451   2.885   5.232   1.044  0.0793  0.4918 -0.1404
 3388W        W 7452   7.390   6.520  10.683  0.0362  0.0085  0.3511
 3389W        W 7453   2.165  10.080   0.042 -0.1110  0.0685  0.1133
 3390W        W 7454   7.453   9.191   8.621  0.0076  0.0509  0.2231
 3391W        W 7455   5.827   6.950  10.255  0.1643  0.4448 -0.0152
 3392W        W 7456   5.415   2.419   1.333  0.0515 -0.0535 -0.0398
 3393W        W 7457   5.936   5.134   8.054 -0.0091  0.3780  0.1669
 3394W        W 7458   3.507   0.366  10.534  0.2990  0.1651  0.0401
 3395W        W 7459   9.002   2.287   2.356 -0.1222 -0.0775 -0.0401
 3396W        W 7460   2.903   3.649   3.295  0.0560 -0.2450  0.1368
 3397W        W 7461   0.909   5.089   8.960  0.3045  0.0073 -0.2459
 3398W        W 7462   2.907   6.871   0.141 -0.3704  0.1516 -0.0429
 3399W        W 7463   6.335   6.756  10.714  0.2171  0.2492 -0.0174
 3400W        W 7464   3.845   8.146  10.527  0.1850  0.1135  0.1100
 3401W        W 7465   0.402   3.438  10.535 -0.1087 -0.1892  0.1309
 3402W        W 7466   7.660   8.190   1.380  0.3210  0.1737  0.0115
 3403W        W 7467   4.153   0.329   0.636 -0.0403  0.0289  0.0687
 3404W        W 7468   1.061   3.440   8.809  0.2933  0.0304 -0.0740
 3405W        W 7469   1.909   1.562   2.564  0.0838  0.1176 -0.0707
 3406W        W 7470   7.167   2.848   3.481  0.0666  0.1231  0.1803
 3407W        W 7471   6.423   8.764  10.717  0.1287 -0.2389 -0.1676
 3408W        W 7472   4.183   7.104   9.975  0.0230  0.2674  0.2279
 3409W        W 7473   9.762   4.314   0.470  0.0383 -0.1922  0.1607
 3410W        W 7474   0.760   8.731  10.539  0.3317 -0.3328 -0.0267
 3411W        W 7475   7.357   1.084   2.336 -0.3212  0.2540  0.0454
 3412W        W 7476   8.883   5.758   9.919 -0.2410 -0.2362 -0.0368
 3413W        W 7477   2.253   2.215  10.790 -0.1056  0.2070  0.2577
 3414W        W 7478   3.971   5.750   1.950 -0.0164  0.1276  0.2202
 3415W        W 7479   6.409   0.342   3.964  0.1876  0.1232 -0.0188
 3416W        W 7480   6.060   2.685   7.445 -0.1388 -0.0329  0.2823
 3417W        W 7481   1.083   1.744   1.334  0.1610  0.0051 -0.0516
 3418W        W 7482   3.618   1.312   0.175  0.1281  0.1196  0.0098
 3419W        W 7483   6.191   6.617   8.051  0.1843 -0.0150  0.2974
 3420W        W 7484   6.294   7.374   2.553 -0.0171 -0.3147  0.2435
 3421W        W 7485   6.708   6.914   9.210 -0.1357  0.1116 -0.1520
 3422W        W 7486   0.453   4.558   8.324  0.0335 -0.1210 -0.0139
 3423W        W 7487   0.317   4.854  10.472  0.1512 -0.2713  0.0076
 3424W        W 7488   7.717   2.234   8.696 -0.1680  0.0109 -0.3709
 3425W        W 7489   9.023   2.747   9.857 -0.1457 -0.1158  0.0056
 3426W        W 7490   8.423   7.237   8.629  0.0676  0.1933 -0.0444
 3427W        W 7491  10.634   7.433  10.239  0.0217  0.1877  0.0843
 3428W        W 7492   4.903   8.039   2.869  0.4225  0.4064 -0.0070
 3429W        W 7493   1.318   6.384   8.405 -0.1239  0.0660  0.1116
 3430W        W 7494   7.902  10.891   3.164  0.0092 -0.1239 -0.0875
 3431W        W 7495   8.586   0.546   1.403 -0.3762 -0.1467  0.0354
 3432W        W 7496   5.989   4.000   8.485 -0.0858 -0.0181  0.0160
 3433W        W 7497   9.695   7.931   8.003  0.3287  0.1155  0.0486
 3434W        W 7498   6.004  10.247   8.057 -0.1248 -0.2777 -0.3416
 3435W        W 7499   4.802  10.558   9.412  0.0368 -0.0765 -0.1948
 3436W        W 7500   2.091   3.477  10.625  0.1047  0.2972 -0.1967
 3437W        W 7501   8.604   0.513   2.252 -0.0180  0.2441 -0.3313
 3438W        W 7502   1.375   0.193   1.730 -0.0528 -0.2054  0.0599
 3439W        W 7503   9.727   1.474   2.574  0.0140  0.0272  0.4127
 3440W        W 7504   7.813   5.985   1.162 -0.2812  0.1100 -0.3801
 3441W        W 7505   4.229   6.735   7.822  0.1175  0.1349  0.2058
 3442W        W 7506   6.909   6.793   2.376 -0.0706  0.1587 -0.1750
 3443W        W 7507   3.718   8.415  10.993 -0.1561 -0.0239  0.0330
 3444W        W 7508   3.794   8.294  10.011  0.1418 -0.1402  0.2637
 3445W        W 7509  10.289   0.003  10.869 -0.2342 -0.0809  0.0597
 3446W        W 7510   1.855   2.501  10.125  0.2376  0.4506 -0.0111
 3447W        W 7511   1.884   1.158   2.914  0.1592  0.1100  0.0614
 3448W        W 7512   1.741   7.959   1.117  0.2078  0.1095  0.0383
 3449W        W 7513   8.282   5.242   6.996  0.1650 -0.0464  0.2424
 3450W        W 7514   3.266   0.352   9.000 -0.0056 -0.1114  0.0572
 3451W        W 7515   6.282   5.443   8.906  0.2848  0.2626  0.1267
 3452W        W 7516   9.401   4.298   1.838 -0.0334 -0.1612 -0.1545
 3453W        W 7517   6.205   2.696   0.583  0.0362  0.1452  0.0146
 3454W        W 7518   2.901   5.441   7.856 -0.0603  0.0831  0.1281
 3455W        W 7519   9.924   0.056   1.339 -0.2072 -0.0175  0.1668
 3456W        W 7520   6.257   5.134   2.508  0.3273  0.1468 -0.0099
 3457W        W 7521  10.367   7.043   9.055 -0.1011 -0.1826  0.0013
 3458W        W 7522   3.322   2.433   9.996  0.1443 -0.3512 -0.0876
 3459W        W 7523   5.178   2.800   3.429  0.1235  0.0467  0.3589
 3460W        W 7524   9.073   0.726   8.539 -0.0375  0.0896  0.1611
 3461W        W 7525   2.664   1.801   3.214 -0.1932  0.0957 -0.2245
 3462W        W 7526   9.104   0.312   0.433  0.2165  0.0227  0.4908
 3463W        W 7527   2.582  10.421   8.534 -0.3838 -0.1839  0.2083
 3464W        W 7528  10.875   1.586   8.295 -0.0719 -0.2573 -0.2803
 3465W        W 7529   4.027   9.444   9.677 -0.0017  0.2231 -0.0075
 3466W        W 7530   1.014  10.411  10.979 -0.1660  0.1140  0.1186
 3467W        W 7531   3.647   4.894   7.593  0.0315  0.3875 -0.1389
 3468W        W 7532   5.980   1.224   2.707  0.0221 -0.0989 -0.1424
 3469W        W 7533  10.091   9.784   1.093 -0.1432 -0.0196 -0.1147
 3470W        W 7534   7.869   9.935   1.988 -0.0157  0.3459 -0.2323
 3471W        W 7535   6.978   9.826   0.286 -0.1996  0.0442 -0.2782
 3472W        W 7536  10.362   8.785   2.663  0.0653 -0.0684 -0.2657
 3473W        W 7537   1.485   1.935   0.103 -0.1950 -0.1050  0.2089
 3474W        W 7538   4.021   7.140   1.573  0.1218 -0.2909  0.4500
 3475W        W 7539   6.756   7.576   2.154 -0.0025 -0.0565 -0.0833
 3476W        W 7540   9.176   1.360   2.685 -0.3040 -0.0314 -0.4094
 3477W        W 7541   7.183   3.190   9.420  0.0240  0.1610 -0.0126
 3478W        W 7542   7.668   4.580   3.315  0.1066 -0.0653  0.0010
 3479W        W 7543   5.018   5.092   2.949  0.0764 -0.1695  0.0144
 3480W        W 7544   8.736   6.753   0.641 -0.2739  0.2619 -0.0395
 3481W        W 7545   1.886   3.293   9.083 -0.1206  0.0266 -0.0526
 3482W        W 7546   5.164   3.294   9.993  0.2221  0.0125 -0.1575
 3483W        W 7547  10.018   8.296   8.197 -0.1658  0.3711 -0.3845
 3484W        W 7548   3.339   5.403   8.265  0.1496  0.3159 -0.1148
 3485W        W 7549   2.878   7.430   3.201 -0.0874  0.3522  0.1213
 3486W        W 7550   0.667   5.932   0.127 -0.0642 -0.2195 -0.0348
 3487W        W 7551   9.683   0.414   9.363 -0.0183 -0.1023  0.1969
 3488W        W 7552   9.914   8.999   2.585  0.1732 -0.0217 -0.3017
 3489W        W 7553   3.741   5.022   1.314  0.2481  0.2574  0.0372
 3490W        W 7554   1.980   0.979  10.990 -0.0733 -0.2626  0.1096
 3491W        W 7555   2.392   9.700   1.880 -0.0649  0.0015 -0.2273
 3492W        W 7556   9.832   6.293   7.723 -0.1413 -0.1070 -0.0986
 3493W        W 7557   1.027   8.894   2.569 -0.0589 -0.3187 -0.1073
 3494W        W 7558   9.010   1.801   1.931 -0.1328 -0.0114 -0.1844
 3495W        W 7559   7.245   7.906   3.279  0.0285 -0.2571 -0.0133
 3496W        W 7560   4.445   5.499   2.086 -0.1508 -0.1127 -0.1932
 3497W        W 7561   3.085   7.813   1.607 -0.4676  0.1194  0.1155
 3498W        W 7562   5.992   0.901   3.126 -0.1317  0.2109 -0.2497
 3499W        W 7563   6.084   3.237   8.988 -0.1538  0.0729 -0.0228
 3500W        W 7564   7.859   6.445  10.319  0.2383  0.1372  0.1301
 3501W        W 7565   4.668   3.755   9.237  0.0770 -0.3701 -0.1010
 3502W        W 7566   8.755  10.434   1.417  0.1247  0.1791  0.1766
 3503W        W 7567   2.524   6.275   8.169  0.0339  0.1485  0.2058
 3504W        W 7568   9.940   9.926   9.126 -0.1501  0.0968  0.1902
 3505W        W 7569   2.396   6.313   6.805 -0.2076  0.2004 -0.1772
 3506W        W 7570   2.395   1.612   8.540  0.0974  0.2253 -0.0157
 3507W        W 7571   7.113   9.188   3.839 -0.1857  0.0729 -0.0738
 3508W        W 7572   3.104   9.689   9.156  0.1289  0.2968  0.3370
 3509W        W 7573   1.766   6.475   1.529  0.0880 -0.2808  0.0249
 3510W        W 7574   9.488   1.182  10.507 -0.1894 -0.2687  0.1624
 3511W        W 7575   5.518   1.889   1.110 -0.1558  0.0592  0.1409
 3512W        W 7576   1.015   3.921   2.173 -0.1978  0.2366  0.0589
 3513W        W 7577   4.707   8.120   8.678 -0.0093  0.0640 -0.0336
 3514W        W 7578   2.821   5.056   1.495 -0.4355  0.0694 -0.2853
 3515W        W 7579   5.635   8.402   2.487 -0.0134  0.0062  0.0485
 3516W        W 7580  10.462  10.375   0.630  0.1099 -0.2574 -0.0277
 3517W        W 7581   3.451   1.431   9.382  0.0734  0.0456 -0.1647
 3518W        W 7582   3.649   7.796  10.056 -0.3531  0.1244  0.2896
 3519W        W 7583   5.930   7.193  10.704  0.1298 -0.0015 -0.2707
 3520W        W 7584   0.619   5.314   0.766 -0.2361  0.0762 -0.0024
 3521W        W 7585   2.084   5.453   1.009 -0.1254  0.5468  0.1000
 3522W        W 7586   6.812   3.977   0.748 -0.0077  0.1046 -0.1469
 3523W        W 7587   0.604   5.664   2.421 -0.1321 -0.3875 -0.1482
 3524W        W 7588   1.332   0.442   7.702 -0.0536 -0.0077  0.0396
 3525W        W 7589   9.649   4.678   0.947 -0.1054 -0.0905  0.2240
 3526W        W 7590   1.202   3.913   8.659 -0.3850  0.4328 -0.2201
 3527W        W 7591  10.244   5.137  10.953 -0.0189 -0.1819 -0.1601
 3528W        W 7592   3.867   1.628   9.022 -0.1160  0.1980  0.0306
 3529W        W 7593   6.480   2.483   2.942  0.0926  0.1400 -0.2515
 3530W        W 7594   5.560   5.010   4.064  0.3072 -0.0677 -0.2801
 3531W        W 7595   7.634  10.211   9.797  0.3442 -0.3087  0.1150
 3532W        W 7596   5.305   9.731   1.596 -0.0937 -0.1200  0.0206
 3533W        W 7597   4.443   7.371   2.306  0.0635  0.0639  0.2312
 3534W        W 7598   2.178   7.503   0.737 -0.0142  0.3321 -0.3200
 3535W        W 7599   7.037  10.891  10.253 -0.0030 -0.1483  0.0250
 3536W        W 7600   6.049   3.101   3.602  0.2401  0.0310  0.1470
 3537W        W 7601   5.533   5.584   9.561  0.1477 -0.0762  0.0078
 3538W        W 7602   7.610   4.594   9.619  0.1728  0.0061 -0.3799
 3539W        W 7603   5.057  10.323   0.195 -0.3982  0.0203 -0.3358
 3540W        W 7604   7.921   4.986   1.446  0.1237  0.2739  0.0099
 3541W        W 7605   2.515   5.826   7.009 -0.2741 -0.2375  0.1971
 3542W        W 7606   9.264   3.882   9.187 -0.0066  0.2165  0.1279
 3543W        W 7607   0.826   3.170   0.898 -0.0782  0.1532 -0.1925
 3544W        W 7608   5.793   9.593   9.711  0.0435 -0.3091  0.2183
 3545W        W 7609   1.154   7.031   8.233 -0.0895 -0.1991  0.0010
 3546W        W 7610   4.342   8.512   2.311  0.1223 -0.2761  0.1228
 3547W        W 7611   8.646   9.013   1.688 -0.0189 -0.0222  0.2142
 3548W        W 7612   2.111   7.266   0.194 -0.0674  0.0294 -0.0129
 3549W        W 7613   5.163   8.889   9.991  0.4310  0.1243  0.2551
 3550W        W 7614   8.618   5.697   9.500  0.1034  0.1277 -0.2054
 3551W        W 7615   7.615   1.954   9.059 -0.1795  0.1829 -0.3430
 3552W        W 7616  10.810   9.189   2.658  0.0114  0.2172 -0.0617
 3553W        W 7617   4.021   2.642   8.890 -0.1246 -0.1323 -0.2616
 3554W        W 7618   6.478   7.997  10.561 -0.3384  0.0613 -0.1346
 3555W        W 7619   6.331   6.160   9.409 -0.1445 -0.0793 -0.1037
 3556W        W 7620   2.963   8.949   2.208 -0.0675  0.0530  0.2762
 3557W        W 7621   7.944   7.330   7.752  0.0563 -0.0202 -0.0184
 3558W        W 7622   7.247   3.388   2.230 -0.0052 -0.0089  0.2292
 3559W        W 7623   9.120   6.704   2.499  0.0485  0.2427  0.0492
 3560W        W 7624  10.805   1.999   9.206  0.0500 -0.0289  0.3282
 3561W        W 7625   5.411   5.843   2.425 -0.0893  0.1133 -0.3533
 3562W        W 7626   4.608   1.390   3.084 -0.0275  0.0275 -0.0008
 3563W        W 7627   1.427  10.536   2.342  0.0501  0.1929  0.1279
 3564W        W 7628   2.479   0.748  10.075 -0.1548 -0.3911 -0.2288
 3565W        W 7629   0.842   1.143   2.012 -0.1268  0.1694  0.1115
 3566W        W 7630   3.774   2.878   8.441 -0.4272 -0.1740 -0.3161
 3567W        W 7631   3.716   2.603   0.195  0.2728  0.3029  0.0572
 3568W        W 7632   1.595   8.825   1.656  0.1880  0.0171 -0.0309
 3569W        W 7633   9.886   1.645   1.459  0.2023  0.2162 -0.2253
 3570W        W 7634   3.381   7.267   3.374 -0.0671  0.0737 -0.0870
 3571W        W 7635   9.172   2.181  10.541  0.3389  0.2765 -0.1460
 3572W        W 7636   7.540   7.959  10.257  0.0943  0.1139  0.0885
 3573W        W 7637   6.392   8.208   2.233  0.2813  0.0382  0.0033
 3574W        W 7638   2.935   2.131   1.744 -0.2385  0.1809 -0.0008
 3575W        W 7639   2.205   7.688   3.198  0.1073 -0.0488  0.0883
 3576W        W 7640   4.516   8.176   3.206  0.2632 -0.1779 -0.1039
 3577W        W 7641   2.369   2.019   1.840 -0.1957  0.0521  0.1669
 3578W        W 7642   7.336   3.921  10.767  0.2408  0.0195  0.0468
 3579W        W 7643   2.662   5.232  10.375 -0.2665 -0.1989  0.1121
 3580W        W 7644   5.626   1.743   8.885 -0.4484 -0.1439  0.1569
 3581W        W 7645   9.376   5.121   9.343 -0.0095  0.2811 -0.0758
 3582W        W 7646   4.838   7.225   9.214 -0.3313  0.1486  0.0226
 3583W        W 7647   9.456   5.087   2.228  0.2092  0.0250 -0.2538
 3584W        W 7648   7.066   3.358  10.308 -0.0970 -0.1749  0.2715
 3585W        W 7649   7.922   9.298   8.434 -0.0908  0.2770  0.0293
 3586W        W 7650   8.007   5.622  10.187  0.0766 -0.1179  0.1659
 3587W        W 7651   5.074   1.768   0.184 -0.4567  0.0812 -0.0528
 3588W        W 7652   9.266   8.258  10.722  0.0805 -0.1702 -0.1904
 3589W        W 7653  10.053   0.982   0.726 -0.2174  0.2380  0.2917
 3590W        W 7654   5.243   5.700   8.967 -0.0934  0.2904 -0.0506
 3591W        W 7655   2.475   4.536   2.865  0.3216 -0.0086  0.0192
 3592W        W 7656   4.744   7.543   3.767  0.1126 -0.1847 -0.0316
 3593W        W 7657   9.798   8.258   9.841  0.0663 -0.1133  0.1741
 3594W        W 7658   6.297   9.756  10.208  0.4461  0.0809 -0.1527
 3595W        W 7659   5.401   6.546   2.386  0.1154 -0.5771  0.0436
 3596W        W 7660  10.651   4.307   8.938  0.1910 -0.2149 -0.1491
 3597W        W 7661   2.069   0.125   8.410  0.5369 -0.1333 -0.0986
 3598W        W 7662   5.580   6.314   1.082 -0.1973  0.3377 -0.0768
 3599W        W 7663   6.346  10.222  10.740  0.3181  0.1665 -0.5013
 3600W        W 7664   0.873   6.235   0.698  0.1131 -0.1803 -0.3265
 3601W        W 7665  10.245   0.067   0.378  0.3931  0.2039  0.0408
 3602W        W 7666   2.047   0.142   9.820  0.2469 -0.2006 -0.1240
 3603W        W 7667   5.782   8.606   0.159 -0.1172  0.1370  0.0412
 3604W        W 7668   3.050   6.415   0.306  0.2096  0.0758  0.3058
 3605W        W 7669   5.163  10.241   7.803 -0.0950  0.1103 -0.0172
 3606W        W 7670   6.314   2.182   2.371 -0.3266 -0.2385 -0.1623
 3607W        W 7671   3.103   8.492  10.581  0.1254  0.1183  0.1883
 3608W        W 7672   6.834   4.728   1.759  0.1091  0.1514  0.1308
 3609W        W 7673   4.437   6.867  10.359 -0.1655  0.0253  0.3158
 3610W        W 7674   2.322   2.238   9.912  0.1693 -0.1058 -0.1979
 3611W        W 7675   5.989   2.383  10.540  0.1701 -0.1392 -0.0761
 3612W        W 7676  10.826  10.012   2.543  0.2818  0.4436  0.1539
 3613W        W 7677   0.836  10.000   3.673  0.0473 -0.0353 -0.1091
 3614W        W 7678   1.909   5.640   2.471 -0.2657  0.2252 -0.1549
 3615W        W 7679   5.633   8.034   1.550  0.0883  0.0752 -0.0837
 3616W        W 7680   9.950   5.950   9.055  0.1072  0.1690  0.0340
 3617W        W 7681   9.975   9.132   3.151  0.3735  0.1296  0.1812
 3618W        W 7682   0.741   1.298   9.716  0.1309 -0.0266  0.1574
 3619W        W 7683   5.661   4.272   3.418 -0.1384 -0.2228  0.3079
 3620W        W 7684   7.643   8.102  10.710 -0.0713 -0.0362  0.2374
 3621W        W 7685   8.125   9.588   9.831 -0.2455  0.1487 -0.2932
 3622W        W 7686   8.770   6.884   8.938 -0.0857  0.0518  0.2709
 3623W        W 7687   1.333   4.392   8.530  0.0422 -0.0054  0.0774
 3624W        W 7688   6.426   1.892   9.388 -0.1676  0.2579 -0.1049
 3625W        W 7689   6.042   8.454   8.548  0.2305 -0.0677 -0.0716
 3626W        W 7690   8.748   2.951   7.786 -0.1557 -0.0883 -0.0119
 3627W        W 7691   9.226   3.076   2.056 -0.0494 -0.0271 -0.3160
 3628W        W 7692   5.728  10.841   9.248  0.0951 -0.0269 -0.1028
 3629W        W 7693   7.762   9.596   1.638 -0.3450  0.0484 -0.1452
 3630W        W 7694   8.670   7.626   8.255 -0.0803  0.1670 -0.2430
 3631W        W 7695   7.366   9.502   0.369 -0.3116 -0.4725  0.1782
 3632W        W 7696   9.292   0.355   2.183 -0.0708 -0.1737 -0.0803
 3633W        W 7697   2.847   6.832   0.643 -0.0472  0.1136  0.1495
 3634W        W 7698   0.552   4.942   0.403 -0.0156 -0.0903  0.0668
 3635W        W 7699   5.160   2.339  10.098  0.1504 -0.2011  0.0745
 3636W        W 7700   4.915   9.781   9.033 -0.1757  0.0092 -0.1793
 3637W        W 7701   6.680   1.418   9.547 -0.0096 -0.1360  0.0151
 3638W        W 7702   5.655   3.868   2.633 -0.2018 -0.1791  0.0477
 3639W        W 7703   2.734  10.235   7.921  0.0188  0.1619 -0.0689
 3640W        W 7704   2.294   0.344   2.682  0.1920  0.1710 -0.1246
 3641W        W 7705   3.176   4.423   0.735 -0.2429  0.0087 -0.1953
 3642W        W 7706   7.416   8.669   8.806  0.1434  0.0373  0.1851
 3643W        W 7707   3.670  10.744   2.431 -0.0099 -0.1263  0.0349
 3644W        W 7708   5.461   4.104   9.480 -0.1589  0.2374 -0.1095
 3645W        W 7709   8.930   0.195  10.999  0.1999 -0.1546 -0.1582
 3646W        W 7710   4.910   0.335   8.912 -0.0265 -0.0287  0.2299
 3647W        W 7711   8.468   2.604  10.933 -0.1794 -0.0383 -0.0080
 3648W        W 7712   4.361   6.261  10.987 -0.0558 -0.0333 -0.3456
 3649W        W 7713   5.807   2.967   9.376 -0.0549 -0.0047 -0.3804
 3650W        W 7714   1.968   6.317  10.823  0.3115 -0.4167 -0.0215
 3651W        W 7715   8.409   4.708   7.201 -0.0525  0.2352 -0.1745
 3652W        W 7716   3.934   2.390   8.407  0.0027  0.1063 -0.0840
 3653W        W 7717  10.255  10.601   9.735 -0.0469 -0.2914  0.1900
 3654W        W 7718   1.521   9.573   3.550  0.1169  0.1282 -0.2018
 3655W        W 7719   4.646   1.939   1.058 -0.1777  0.0567 -0.2098
 3656W        W 7720   7.456   2.741   9.224 -0.2699  0.0441 -0.0960
 3657W        W 7721   1.157   4.927  10.719  0.0356  0.0075  0.2652
 3658W        W 7722   3.961   6.213   9.699  0.0146  0.2392 -0.0334
 3659W        W 7723   3.159   5.136   3.137 -0.0527 -0.1637 -0.1364
 3660W        W 7724   6.992   0.268   1.617  0.1814  0.1378 -0.1099
 3661W        W 7725  10.342   0.045   8.834 -0.2923 -0.1774  0.3115
 3662W        W 7726  10.826   5.143  10.267  0.1939  0.1248  0.0510
 3663W        W 7727   6.508   0.054   8.765  0.0772  0.0420  0.0536
 3664W        W 7728   2.180   4.675   8.916  0.0876  0.0465  0.2506
 3665W        W 7729   5.326   3.613   2.943 -0.0882  0.0031  0.0111
 3666W        W 7730   3.020  10.809   1.871  0.0343 -0.2396 -0.0086
 3667W        W 7731  10.308   5.636   7.988  0.1528  0.1058 -0.0456
 3668W        W 7732   9.215   0.103   9.443  0.0550 -0.0598 -0.0618
 3669W        W 7733   3.181   2.697   9.597  0.3268 -0.2917  0.2516
 3670W        W 7734   7.210   6.444   0.534 -0.1602  0.2600  0.1265
 3671W        W 7735   0.609   3.585   3.193  0.4321  0.4650  0.0405
 3672W        W 7736   5.705   9.286   2.469  0.2545  0.1367 -0.0252
 3673W        W 7737   3.550   5.599  10.381 -0.1058 -0.2385 -0.0311
 3674W        W 7738   4.204   4.313   0.938 -0.0309  0.1647  0.1500
 3675W        W 7739   0.127   6.962   2.577 -0.1243  0.4141  0.4871
 3676W        W 7740   7.361   1.681  10.959  0.1833 -0.0407 -0.0884
 3677W        W 7741   0.653   2.824   9.971 -0.4320  0.4346  0.1964
 3678W        W 7742   0.668   0.210   8.331  0.0422  0.0261 -0.0169
 3679W        W 7743   8.920   9.828   8.546  0.0781 -0.0074  0.0629
 3680W        W 7744   0.528  10.270   0.187  0.4586  0.0769 -0.2831
 3681W        W 7745   7.810   8.450   0.913  0.1981  0.0685  0.1208
 3682W        W 7746   6.304   6.096   2.194  0.0233  0.2961 -0.4318
 3683W        W 7747   2.882   4.589   0.351 -0.1708 -0.0392 -0.1733
 3684W        W 7748   4.069   2.513   1.328  0.1165 -0.3090  0.3899
 3685W        W 7749   8.039   6.364   9.799 -0.0991  0.1801  0.2443
 3686W        W 7750   7.957  10.423  10.176 -0.0963 -0.2138  0.1276
 3687W        W 7751   1.805   7.108   8.835  0.0692  0.0196 -0.0019
 3688W        W 7752   2.617   6.786   1.378 -0.1436 -0.1587 -0.3220
 3689W        W 7753   4.863   0.193  10.167  0.0240  0.1488 -0.0477
 3690W        W 7754   3.068   8.326   9.053  0.1040  0.1234  0.2288
 3691W        W 7755  10.257   7.609  10.557  0.0868 -0.2089  0.1013
 3692W        W 7756   4.440   3.345   9.445 -0.0186 -0.2088 -0.0067
 3693W        W 7757   6.631   1.800   2.259  0.3907 -0.1098  0.4458
 3694W        W 7758   6.271  10.853   3.295  0.0387  0.1534  0.3153
 3695W        W 7759   4.887   2.976   8.708 -0.1621  0.2070 -0.0208
 3696W        W 7760   6.958   2.578   8.114  0.0000 -0.0291 -0.0592
 3697W        W 7761   1.719   9.017   0.022 -0.2462  0.0858 -0.5144
 3698W        W 7762   1.650   0.956   9.712 -0.1897 -0.3491 -0.3819
 3699W        W 7763   4.771   9.968   7.940 -0.0809  0.0618  0.0317
 3700W        W 7764   7.540  10.746  10.209 -0.2648  0.2405 -0.0320
 3701W        W 7765   6.999   1.558   2.550 -0.1086  0.1232  0.1762
 3702W        W 7766   3.074  10.813   3.533  0.1233 -0.0764 -0.0545
 3703W        W 7767  10.097  10.270   0.962  0.1581 -0.1449  0.1314
 3704W        W 7768   5.630   6.708   9.179  0.0175  0.1360  0.2089
 3705W        W 7769   5.185   6.282  10.447  0.3355  0.2275  0.0931
 3706W        W 7770   1.473   2.038   1.574 -0.1995 -0.2640 -0.3248
 3707W        W 7771   0.040   5.569   0.183 -0.2724  0.0283  0.5454
 3708W        W 7772  10.048   0.489  10.591 -0.0274  0.2204 -0.0432
 3709W        W 7773   1.681   7.450  10.230 -0.1954 -0.0549 -0.3503
 3710W        W 7774   3.348   1.403   1.377  0.1959  0.0689  0.2202
 3711W        W 7775   0.345   9.034   8.709  0.0043 -0.2479  0.1819
 3712W        W 7776   7.982   8.592   8.883  0.2116 -0.2217 -0.1747
 3713W        W 7777   1.547   7.985   3.883 -0.2852  0.0484 -0.2503
 3714W        W 7778  10.873   0.016  10.904 -0.3220 -0.2273  0.0317
 3715W        W 7779   8.723   6.267   3.493  0.0344 -0.0171  0.1421
 3716W        W 7780   4.578   9.410   9.379 -0.2889 -0.0503 -0.0397
 3717W        W 7781   9.077   4.912   0.543  0.1220 -0.1669  0.0623
 3718W        W 7782   5.567   5.932   8.591 -0.1004  0.1255  0.0205
 3719W        W 7783   1.039  10.180   0.962 -0.1647  0.1663  0.2603
 3720W        W 7784   4.694   3.201   2.492  0.2057  0.1942  0.1007
 3721W        W 7785   8.588   9.331  10.002 -0.0995  0.0739  0.0760
 3722W        W 7786   6.660  10.003   8.552  0.2614  0.0180 -0.0451
 3723W        W 7787   6.969   3.599   2.551  0.1932  0.2182 -0.0326
 3724W        W 7788   3.417   6.478   1.680 -0.0633 -0.0801 -0.2427
 3725W        W 7789   2.189   2.222   8.245  0.0080 -0.1345  0.0275
 3726W        W 7790   3.152   7.348   2.330  0.0006  0.2746  0.1834
 3727W        W 7791   5.834  10.661   8.281 -0.1446  0.2752 -0.0792
 3728W        W 7792   0.169   0.060   9.245 -0.1356 -0.1500  0.3111
 3729W        W 7793   2.779  10.031   8.338  0.1742 -0.0693  0.0680
 3730W        W 7794   7.340   2.295   9.512 -0.1750 -0.0872 -0.0162
 3731W        W 7795   3.160   7.341  10.160 -0.0637 -0.2046  0.1482
 3732W        W 7796   4.775   6.217   3.876 -0.2390 -0.1729 -0.0015
 3733W        W 7797   2.004  10.179   0.580  0.2047 -0.2771 -0.2120
 3734W        W 7798   9.961   6.512   9.977  0.3189 -0.2215  0.0185
 3735W        W 7799   7.279   3.939   0.863  0.0860 -0.1282  0.0488
 3736W        W 7800   6.078   2.657   8.731  0.0610 -0.1326  0.0407
 3737W        W 7801   4.344   6.176   1.953  0.0369 -0.3015 -0.2391
 3738W        W 7802   3.061   1.619   1.725 -0.3905 -0.1623 -0.0731
 3739W        W 7803   4.286   6.552   3.769 -0.0162 -0.2127  0.1280
 3740W        W 7804   3.768   4.005   1.142  0.2927 -0.0550  0.0062
 3741W        W 7805   2.181   0.826   2.674 -0.1190  0.1233  0.2506
 3742W        W 7806   7.877   1.925   0.578 -0.0566  0.0224  0.0952
 3743W        W 7807   5.544   8.588  10.192 -0.0491 -0.2157  0.1794
 3744W        W 7808  10.751  10.622   8.952 -0.2215  0.0041 -0.0567
 3745W        W 7809  10.743   6.169   9.920  0.0559  0.3585 -0.0242
 3746W        W 7810   7.177   3.879   0.386 -0.0133  0.0477  0.1274
 3747W        W 7811   0.205   8.836   3.981 -0.1716 -0.2085 -0.0031
 3748W        W 7812   0.617   2.436   7.415  0.2441 -0.0158 -0.0421
 3749W        W 7813   4.446  10.372   9.076 -0.0394  0.1200 -0.0718
 3750W        W 7814   0.300   4.323   3.769  0.2385 -0.1629 -0.0033
 3751W        W 7815   6.517   2.868   0.069  0.2910 -0.1816 -0.0959
 3752W        W 7816   1.660   4.111   8.791  0.2101  0.3204 -0.1918
 3753W        W 7817   8.752   9.671   9.079  0.1854  0.1838  0.0078
 3754W        W 7818   8.618   3.950   9.098 -0.0156  0.1324 -0.0617
 3755W        W 7819   1.935   4.618   2.787  0.3213 -0.1472 -0.0987
 3756W        W 7820   2.169   8.654  10.428 -0.0988 -0.2477  0.0378
 3757W        W 7821   2.294   5.298   3.440 -0.1955  0.2786 -0.0312
 3758W        W 7822   4.809   4.219   8.444  0.1915 -0.0383 -0.0445
 3759W        W 7823   4.637   2.758   0.470 -0.0399  0.1205  0.1117
 3760W        W 7824   2.477   8.662   1.575  0.1956 -0.4171  0.0313
 3761W        W 7825   5.716   3.173  10.230  0.1543 -0.0246  0.1908
 3762W        W 7826   1.423   7.151   2.068  0.0878 -0.0566 -0.0978
 3763W        W 7827   0.128   5.881   3.493  0.0942  0.3579  0.2362
 3764W        W 7828   0.147   6.431   0.782 -0.4766 -0.2626 -0.4003
 3765W        W 7829   8.639   4.103   8.617  0.1156 -0.0119 -0.0799
 3766W        W 7830   5.995  10.309   1.937 -0.0437  0.0460  0.1453
 3767W        W 7831  10.840   9.204  10.639 -0.0182 -0.0109  0.2296
 3768W        W 7832   8.939   0.463   1.061 -0.2061  0.1099 -0.1869
 3769W        W 7833   0.112   8.821   2.902  0.2122 -0.1718 -0.1056
 3770W        W 7834   2.047   9.428  11.001 -0.2319  0.0167  0.1224
 3771W        W 7835   2.373   6.064   7.696  0.1324 -0.0098  0.2320
 3772W        W 7836   1.037   4.694   6.790  0.2306  0.1524  0.0051
 3773W        W 7837   4.106   5.634   2.452  0.3355 -0.1101 -0.2215
 3774W        W 7838   2.283  10.260  10.274  0.1368  0.0653  0.3033
 3775W        W 7839   2.617  10.884   0.571 -0.3120  0.0720 -0.2501
 3776W        W 7840   9.607   1.095   8.141 -0.2497 -0.2630 -0.1494
 3777W        W 7841  10.894   0.291   3.474  0.3665  0.1795  0.0466
 3778W        W 7842   3.875   5.451   0.403 -0.1240  0.0775  0.2325
 3779W        W 7843   3.350   4.722   7.157  0.0159 -0.2962 -0.0015
 3780W        W 7844   8.687   2.752   0.989  0.2201 -0.1391  0.2430
 3781W        W 7845   4.500   7.036   7.372  0.2485 -0.1734  0.1447
 3782W        W 7846   7.344   7.372   3.494 -0.0456  0.0971 -0.1939
 3783W        W 7847   5.150   3.043   2.435 -0.0207  0.2100  0.1651
 3784W        W 7848   5.396   0.033   8.333  0.0469 -0.0664  0.4091
 3785W        W 7849   2.046   6.344   9.354  0.0252  0.2988 -0.6568
 3786W        W 7850   0.766  10.561   3.496 -0.2591 -0.0525 -0.0917
 3787W        W 7851   2.864   9.791   2.891  0.1757  0.0239 -0.1597
 3788W        W 7852  10.771   2.203   9.837 -0.0832  0.0372  0.0306
 3789W        W 7853   8.739   2.657   8.302  0.2907  0.0160  0.2091
 3790W        W 7854   1.759   8.138   7.170  0.0865 -0.3676  0.0576
 3791W        W 7855   1.645   3.015   9.977 -0.0761  0.1883 -0.0268
 3792W        W 7856   8.108   4.102   1.061 -0.1305 -0.0059 -0.1872
 3793W        W 7857   8.699   6.012  10.499 -0.2869 -0.3244 -0.1253
 3794W        W 7858   0.508   7.050  10.288  0.0779  0.1236  0.3785
 3795W        W 7859   0.212   2.619   9.862 -0.1109 -0.3276 -0.0685
 3796W        W 7860   4.046   5.877   0.605 -0.0179 -0.0623 -0.0829
 3797W        W 7861   0.608  10.607   8.486 -0.2639  0.0650  0.0605
 3798W        W 7862   9.954   7.357  10.254 -0.0930  0.1065  0.5015
 3799W        W 7863   0.871   1.232   1.344 -0.0584  0.2777 -0.0506
 3800W        W 7864   1.144   1.699   2.330 -0.1596 -0.2963 -0.1209
 3801W        W 7865   7.369   1.537   2.151  0.0551 -0.0280 -0.2209
 3802W        W 7866   3.611   4.564   9.162 -0.1886 -0.2245 -0.2416
 3803W        W 7867   2.568   4.818  10.548  0.0361  0.0260 -0.3130
 3804W        W 7868   7.710   8.970   7.637  0.0111 -0.2331 -0.0063
 3805W        W 7869   2.302   7.952   0.944  0.0055 -0.0384  0.1205
 3806W        W 7870   5.720   0.514   3.551  0.1621 -0.1811 -0.0484
 3807W        W 7871   3.859   3.891   9.826 -0.0780  0.4547 -0.0133
 3808W        W 7872   0.382   2.086   1.875 -0.2668  0.3497  0.0719
 3809W        W 7873   5.996   8.704  10.453 -0.1586  0.0824  0.0643
 3810W        W 7874   4.163   9.497   2.035 -0.2579 -0.2882  0.1127
 3811W        W 7875   3.334   7.170   8.069 -0.1021  0.2171  0.3775
 3812W        W 7876   8.347   5.941   9.044 -0.1914  0.3698  0.3591
 3813W        W 7877   8.756   3.880   2.327  0.0370  0.2092 -0.0669
 3814W        W 7878   0.301   9.336   0.000 -0.1611 -0.0581 -0.1569
 3815W        W 7879   2.346   0.036   8.961 -0.0920 -0.1757 -0.0304
 3816W        W 7880   0.372   2.354   2.885  0.2875 -0.2409  0.0805
 3817W        W 7881   7.984   8.002   0.965  0.1066 -0.0577  0.1578
 3818W        W 7882   1.437   9.275   1.589 -0.1426 -0.0406 -0.2174
 3819W        W 7883   0.869   5.976   8.005  0.1856  0.2150  0.2814
 3820W        W 7884   7.836   4.555   8.364  0.1621  0.3582  0.0851
 3821W        W 7885   8.802   8.007   1.633 -0.2867 -0.0427  0.0637
 3822W        W 7886   6.125   6.440   0.014  0.1444  0.5673  0.0523
 3823W        W 7887   9.509   8.648   9.298 -0.2078 -0.1663  0.3099
 3824W        W 7888   4.622   3.389   7.869 -0.1314  0.0381 -0.1674
 3825W        W 7889   2.948  10.063   0.707  0.0919 -0.0760 -0.0350
 3826W        W 7890   3.665   7.147   2.531 -0.1644  0.1530 -0.1224
 3827W        W 7891   9.781   9.904  10.657 -0.2358 -0.1750 -0.0165
 3828W        W 7892   2.861   9.896   1.629 -0.2409 -0.5409 -0.2196
 3829W        W 7893   8.288   2.060  10.796 -0.1460  0.0229 -0.1540
 3830W        W 7894   9.219   9.960   8.064 -0.2372 -0.2305  0.0456
 3831W        W 7895   0.487   1.317  10.921  0.3503 -0.4209 -0.2349
 3832W        W 7896   2.318   9.090   8.107  0.0864  0.1038  0.4226
 3833W        W 7897   5.148   6.222   2.081  0.2614  0.0813  0.1865
 3834W        W 7898   2.263   8.246   7.487 -0.2685 -0.0711  0.0917
 3835W        W 7899   6.240   8.494   0.596  0.4268 -0.2568 -0.1786
 3836W        W 7900   1.555  10.604   1.855 -0.0649  0.1500  0.1796
 3837W        W 7901   4.209   2.473   0.699 -0.0389 -0.0696 -0.2729
 3838W        W 7902   3.874   3.727   8.080  0.1417 -0.0018  0.1229
 3839W        W 7903   5.610   3.401   1.524 -0.0498  0.1203 -0.1623
 3840W        W 7904  10.371   0.563   8.756 -0.1586  0.0705 -0.0249
 3841W        W 7905   5.265   8.348   1.451  0.2850 -0.1361 -0.1871
 3842W        W 7906   0.555   2.815   0.751 -0.1067  0.4832 -0.2131
 3843W        W 7907   1.425   9.834   9.968  0.1798 -0.1316  0.0126
 3844W        W 7908   6.990   9.480   9.610 -0.2188 -0.0512 -0.0472
 3845W        W 7909   5.015   8.992   8.330  0.1913 -0.0168  0.1128
 3846W        W 7910   1.354   4.834   8.802  0.5398  0.0453  0.0273
 3847W        W 7911   2.785   3.144   9.505 -0.2824 -0.2096  0.1338
 3848W        W 7912  10.663   0.955   2.009  0.1738 -0.1306  0.1734
 3849W        W 7913   2.676   3.062   8.990 -0.0901  0.1939 -0.2357
 3850W        W 7914   8.584   6.214   8.462 -0.0466 -0.1205  0.2219
 3851W        W 7915   1.970   5.959  10.504  0.4004 -0.4079 -0.2262
 3852W        W 7916   2.405   7.010   2.398  0.1986  0.2165 -0.2775
 3853W        W 7917   9.313   5.713   0.638 -0.1580 -0.2356 -0.2623
 3854W        W 7918  10.744   2.066  10.452  0.0515 -0.0039  0.0016
 3855W        W 7919   6.014   8.519   1.139 -0.2097  0.0254  0.0685
 3856W        W 7920   9.999   7.722   7.687 -0.0077 -0.0290 -0.0596
 3857W        W 7921   2.662   3.559   8.963 -0.0704  0.0814  0.1102
 3858W        W 7922   9.947   5.533   1.222 -0.3586  0.3898  0.5691
 3859W        W 7923   9.468   6.953  10.933 -0.1627 -0.1389 -0.0448
 3860W        W 7924   2.487   8.984   9.460  0.1115  0.1686  0.2967
 3861W        W 7925   7.660   5.289   8.042 -0.1007  0.0593  0.1075
 3862W        W 7926   8.210   2.797   0.878 -0.0940  0.3013 -0.0124
 3863W        W 7927   6.175   7.305   7.899  0.1254  0.0010 -0.2677
 3864W        W 7928   2.536  10.106   1.307  0.0155 -0.1411  0.2850
 3865W        W 7929   5.177   4.588   8.391  0.1786 -0.0848 -0.0279
 3866W        W 7930   1.027   1.600   0.124  0.1691 -0.0723  0.0969
 3867W        W 7931   5.109   8.376   0.378 -0.1478  0.1606 -0.1562
 3868W        W 7932  10.095   1.208   3.038 -0.0760 -0.2005 -0.1001
 3869W        W 7933   7.487   2.031   2.648  0.0542 -0.0819 -0.0499
 3870W        W 7934   1.412  10.759   0.109 -0.0778 -0.1176 -0.1062
 3871W        W 7935   9.783   0.957   1.167  0.3755 -0.0556 -0.1160
 3872W        W 7936   2.590   1.540   1.903 -0.4004  0.3653 -0.1021
 3873W        W 7937   4.439   7.442   1.810 -0.2398 -0.0217  0.0164
 3874W        W 7938   8.457   2.736   9.196 -0.1494  0.0704 -0.1457
 3875W        W 7939   6.767   9.570   8.619 -0.0398  0.0447 -0.0388
 3876W        W 7940   2.393   6.764   9.470 -0.2288 -0.1153 -0.0764
 3877W        W 7941   0.869   7.805   7.486  0.2610 -0.1853 -0.0972
 3878W        W 7942   1.720   1.604   0.495  0.1897  0.0915 -0.5405
 3879W        W 7943   7.661   2.571  10.586 -0.1596  0.1512  0.1395
 3880W        W 7944   5.188   5.737   9.882  0.0054 -0.1623  0.1294
 3881W        W 7945  10.649   0.178   9.451  0.1386 -0.3428  0.2494
 3882W        W 7946   4.510   3.025   2.927 -0.2192 -0.1950 -0.1151
 3883W        W 7947   5.071   3.928   0.012  0.2332 -0.2459 -0.0075
 3884W        W 7948   3.498   8.983   0.804 -0.0543 -0.0160  0.2485
 3885W        W 7949   6.324   6.240   2.778  0.1087 -0.2068  0.2294
 3886W        W 7950   1.831   7.461   8.446 -0.0189  0.2230  0.3448
 3887W        W 7951   7.709   3.133  10.830  0.0628  0.1738  0.0484
 3888W        W 7952   2.451   2.214   2.613  0.0521  0.0008 -0.0475
 3889W        W 7953   9.471   6.542   9.829  0.1998 -0.1758 -0.0417
 3890W        W 7954   8.857   5.737   2.655  0.1948 -0.2233 -0.3933
 3891W        W 7955  10.056   2.730  10.826  0.0097 -0.3019 -0.0686
 3892W        W 7956   8.453   9.540   2.940  0.0034 -0.2262  0.0039
 3893W        W 7957   7.303   8.025   9.458 -0.1731 -0.2630  0.4033
 3894W        W 7958   8.152  10.335  10.774 -0.2193 -0.1252 -0.0377
 3895W        W 7959   7.089   8.500   2.338  0.1535 -0.3637  0.5567
 3896W        W 7960   9.173   2.802  10.336  0.2551  0.1506  0.0868
 3897W        W 7961   6.495   2.133   9.858  0.0944 -0.1848  0.1363
 3898W        W 7962   3.691   5.766   9.823 -0.1411 -0.1158 -0.1861
 3899W        W 7963   8.511   4.758   0.113  0.1106  0.1370 -0.0994
 3900W        W 7964  10.704   9.139   1.398 -0.2699  0.3093  0.0128
 3901W        W 7965   1.323   9.987   8.144 -0.0538  0.4481  0.2353
 3902W        W 7966   1.069   2.721  10.213 -0.1995 -0.1327  0.1697
 3903W        W 7967  10.848  10.707   3.116  0.1010 -0.3750 -0.3125
 3904W        W 7968   0.857   8.134   8.219  0.0532 -0.3879  0.1572
 3905W        W 7969   9.823   4.664   7.917  0.2215 -0.0088  0.1483
 3906W        W 7970   4.051   9.420   8.234 -0.5026  0.0297  0.0435
 3907W        W 7971  10.096   6.853   2.490 -0.0720  0.1814 -0.2134
 3908W        W 7972   1.747   4.444   9.599 -0.2325  0.0665  0.0642
 3909W        W 7973   8.613   4.452   8.294 -0.2516  0.2362 -0.2023
 3910W        W 7974   1.282   8.235  10.640 -0.1665  0.2200  0.1798
 3911W        W 7975   0.400   8.024   0.649  0.0444  0.3027 -0.0816
 3912W        W 7976   4.567   4.248   2.668  0.1664 -0.2424  0.0874
 3913W        W 7977  10.718   8.606   7.592  0.4087  0.0918 -0.0909
 3914W        W 7978   5.240   7.957   0.674 -0.4861 -0.1451  0.2264
 3915W        W 7979   2.570   5.604   9.428 -0.4173  0.0220  0.1399
 3916W        W 7980   6.506   7.516   7.549 -0.0044  0.0006 -0.1986
 3917W        W 7981   3.656   4.857   3.441 -0.2174 -0.1559  0.2811
 3918W        W 7982   4.553  10.436   3.552  0.2518  0.0286  0.0007
 3919W        W 7983   6.488   6.327   1.434 -0.0120  0.2501  0.0518
 3920W        W 7984   7.793   3.605   9.594 -0.0733 -0.1519 -0.3760
 3921W        W 7985   1.335   7.511   9.860  0.0935  0.0387  0.0200
 3922W        W 7986   0.324  10.620  11.007 -0.0095 -0.0712  0.0930
 3923W        W 7987   5.783   7.529   8.108 -0.2412  0.0788  0.1230
 3924W        W 7988   7.835   5.413   9.367  0.1575  0.1529 -0.0409
 3925W        W 7989  10.774   1.377  10.914 -0.2417  0.0567  0.0089
 3926W        W 7990   7.470   6.034   3.060  0.3144 -0.0249 -0.3177
 3927W        W 7991   7.148   7.591   1.780  0.1193  0.0618 -0.0059
 3928W        W 7992   0.458   3.897  10.327 -0.2428  0.0199  0.2119
 3929W        W 7993   9.234   4.449   0.525 -0.3323 -0.1542  0.0712
 3930W        W 7994   6.791   3.173   1.922 -0.0139 -0.2036 -0.1006
 3931W        W 7995   7.769   4.016   3.895 -0.2133 -0.0423  0.0767
 3932W        W 7996   3.168   1.632   8.320 -0.0840 -0.2377  0.1570
 3933W        W 7997   6.019   3.477   2.372  0.4409  0.0732 -0.2376
 3934W        W 7998  10.701   8.484  10.036  0.0591 -0.1019 -0.1373
 3935W        W 7999   2.768   9.750  10.587 -0.0259 -0.1209  0.1334
 3936W        W 8000   4.557   9.003   2.919 -0.3790 -0.1621 -0.0984
 3937W        W 8001   2.798   2.343   3.975  0.0582 -0.2940  0.1546
 3938W        W 8002   4.436   2.375   8.109  0.3200  0.1833 -0.1817
 3939W        W 8003   8.013   0.983   0.529  0.1938  0.2302 -0.3490
 3940W        W 8004   3.436   0.835   1.019 -0.3054 -0.2026 -0.0441
 3941W        W 8005   8.525   0.612   8.655  0.1479  0.0992 -0.3385
 3942W        W 8006   5.234   9.364  10.402 -0.3262 -0.0469  0.3152
 3943W        W 8007   5.603   4.477  10.734  0.0674 -0.1222  0.0806
 3944W        W 8008   9.136   4.019  10.062 -0.0137  0.1024 -0.0920
 3945W        W 8009   7.136   2.704   1.439 -0.0986  0.0641  0.1351
 3946W        W 8010   7.310  10.083   8.368 -0.2103  0.2353 -0.1654
 3947W        W 8011   0.577   5.140   2.042 -0.0448 -0.2047 -0.1895
 3948W        W 8012   1.646   5.438   7.481 -0.0224 -0.1086 -0.1000
 3949W        W 8013   3.312   5.687   7.701 -0.0024 -0.1220 -0.1397
 3950W        W 8014   5.373   8.789   3.188  0.1228  0.1200 -0.0734
 3951W        W 8015   7.504   0.305  10.349  0.3540  0.0396 -0.0322
 3952W        W 8016   5.683   9.564  10.192 -0.0842  0.2079 -0.0366
 3953W        W 8017   0.607   7.630   7.883 -0.3413  0.1186  0.2696
 3954W        W 8018   6.243   7.629   3.607  0.0906  0.2834  0.1218
 3955W        W 8019   9.310   8.209   1.468  0.2442 -0.0008 -0.3546
 3956W        W 8020   0.211   7.359   7.785  0.0514  0.1639  0.2837
 3957W        W 8021   8.412   4.141   2.096 -0.0132  0.0266 -0.0253
 3958W        W 8022   0.487   3.824   2.079  0.0775  0.0260  0.2109
 3959W        W 8023  10.771   4.257   2.922  0.1107 -0.1204  0.0099
 3960W        W 8024   0.150   9.490   9.596 -0.0196 -0.3029  0.1473
 3961W        W 8025   5.844   3.119  10.721  0.3296 -0.2899  0.1714
 3962W        W 8026   9.054   7.576   0.318 -0.1758  0.3006 -0.3258
 3963W        W 8027   8.998   8.507   7.813 -0.2604  0.0169 -0.0233
 3964W        W 8028   3.633  10.570   7.551 -0.0210 -0.2221  0.1065
 3965W        W 8029   9.354   9.217   0.845 -0.1188  0.3382  0.0846
 3966W        W 8030   4.681   1.251   9.992 -0.2852 -0.0450  0.0367
 3967W        W 8031   5.391   0.089   8.796  0.1204 -0.1433 -0.2385
 3968W        W 8032   0.259   7.182   9.604 -0.3776 -0.2118 -0.0164
 3969W        W 8033   7.705   8.794   9.256  0.1717 -0.0652 -0.2341
 3970W        W 8034   3.975   6.915   7.242 -0.0216 -0.1868  0.3294
 3971W        W 8035   4.766   4.897   9.636  0.1008 -0.0324  0.0067
 3972W        W 8036   9.377   6.860   2.075 -0.0262  0.0241 -0.0693
 3973W        W 8037   4.920   8.089   3.549 -0.2296  0.2368 -0.2878
 3974W        W 8038   9.083  10.314   0.090  0.1092  0.0825  0.5131
 3975W        W 8039   2.043   7.034   0.660 -0.1125  0.0230  0.0639
 3976W        W 8040   4.083   6.190   2.404 -0.0282 -0.0436 -0.0248
 3977W        W 8041  10.149   1.252   0.352  0.2317  0.1437 -0.1002
 3978W        W 8042   9.565   4.058  10.575 -0.0953 -0.3305 -0.4548
 3979W        W 8043   6.186   9.045   2.261 -0.1309 -0.2027 -0.0525
 3980W        W 8044   1.982   8.992   9.186  0.0862  0.0001  0.1634
 3981W        W 8045   7.839   3.923   0.706  0.0425 -0.0544 -0.0255
 3982W        W 8046   4.342  10.662   3.115 -0.2896  0.1825  0.0348
 3983W        W 8047   6.310   3.422   1.921 -0.0072  0.3615  0.0742
 3984W        W 8048   0.947   0.250   0.281 -0.1101 -0.0255  0.0341
 3985W        W 8049   2.584   3.695   9.817  0.1775  0.0315 -0.1104
 3986W        W 8050   3.560  10.455  10.901  0.0164 -0.0916 -0.2169
 3987W        W 8051   9.020   3.970   2.757  0.0950  0.0853  0.2699
 3988W        W 8052   0.607   6.517  10.419  0.1258 -0.0677 -0.1778
 3989W        W 8053   5.534   1.479   9.309 -0.1318  0.1018 -0.0356
 3990W        W 8054   3.286   8.270  10.143 -0.3382 -0.1034  0.1255
 3991W        W 8055   8.913   1.997   0.463 -0.1072  0.0400  0.1242
 3992W        W 8056   4.613   8.657   8.640  0.0535 -0.1031 -0.1623
 3993W        W 8057   1.924   8.086  10.500  0.0830  0.3515 -0.0190
 3994W        W 8058   5.023   0.890   0.205  0.0012  0.2769 -0.0103
 3995W        W 8059   8.139   0.048   2.719  0.1584  0.4422 -0.1428
 3996W        W 8060   3.942   2.125   8.805  0.1814  0.0763 -0.0315
 3997W        W 8061   5.122   0.984   1.490  0.0102  0.2734 -0.0156
 3998W        W 8062   4.223   2.950   3.774 -0.0682  0.2360  0.2427
 3999W        W 8063   6.855   2.717   0.897 -0.4296  0.0352  0.0862
 4000W        W 8064   9.526  10.222   0.296  0.1248  0.3295 -0.0763
 4001W        W 8065   9.081   7.503   8.020  0.2161 -0.0125 -0.1330
 4002W        W 8066   2.428   7.011  10.947 -0.0084 -0.0558  0.0516
 4003W        W 8067   1.768   4.707   0.006  0.2080  0.0075 -0.0543
 4004W        W 8068  10.835   0.953  10.066 -0.2516  0.0290 -0.1379
 4005W        W 8069   8.616   3.997   7.989 -0.0209 -0.0415 -0.1666
 4006W        W 8070   0.207   2.306   2.325 -0.0543  0.0275  0.5034
 4007W        W 8071   2.901   0.841   7.533 -0.1840  0.1388 -0.1370
 4008W        W 8072   1.538   0.682   1.646 -0.3582 -0.1339  0.1213
 4009W        W 8073   0.321   8.996   8.194  0.0582 -0.0416 -0.1376
 4010W        W 8074   6.513   7.836   1.547 -0.0808 -0.2510  0.1626
 4011W        W 8075   2.440   2.853   1.883  0.1644  0.2236 -0.1259
 4012W        W 8076   5.290   2.128   8.777  0.0108 -0.3337  0.3410
 4013W        W 8077   7.352   6.034  10.866  0.0511  0.3804  0.0282
 4014W        W 8078   8.682   7.538   1.954  0.2450  0.1640 -0.0417
 4015W        W 8079   6.429   1.222   2.930 -0.0697 -0.2962  0.0237
 4016W        W 8080  10.242   2.139  10.676 -0.0010  0.1747 -0.0620
 4017W        W 8081   0.495   6.548   2.780 -0.1669  0.1966 -0.0021
 4018W        W 8082   0.655   8.995   0.386  0.0062  0.1987  0.0187
 4019W        W 8083  10.736   2.344   0.795 -0.0977 -0.1972 -0.0790
 4020W        W 8084   2.102   2.792   8.235  0.0242 -0.0161 -0.1021
 4021W        W 8085   6.486   1.294   0.332 -0.2888  0.0772  0.1204
 4022W        W 8086   6.915   1.813   1.016  0.1646  0.1464  0.2172
 4023W        W 8087   7.166   5.214   8.813 -0.3123 -0.1207 -0.0474
 4024W        W 8088   0.451   2.760   8.863 -0.2455  0.1586  0.1760
 4025W        W 8089   4.472   3.327   1.260 -0.1064 -0.0509 -0.1684
 4026W        W 8090   6.747   9.672   2.630  0.1081 -0.1103  0.4250
 4027W        W 8091   2.529   1.752   7.709 -0.0324 -0.2079  0.1079
 4028W        W 8092   0.007   2.826   0.707  0.1033 -0.1779 -0.0558
 4029W        W 8093   8.291   5.394   9.202 -0.1966 -0.0872 -0.0501
 4030W        W 8094   4.261   5.510   2.935 -0.2335  0.0592  0.0794
 4031W        W 8095  10.516   6.690  10.503 -0.0238  0.1052 -0.2408
 4032W        W 8096   2.575  10.758  10.130 -0.0877 -0.4054  0.1241
 4033W        W 8097   6.773   5.635   3.180  0.0944 -0.1132  0.0477
 4034W        W 8098   1.216   8.441   8.488 -0.3098 -0.2533  0.1715
 4035W        W 8099  10.646   5.473   2.018  0.0427 -0.0771 -0.2018
 4036W        W 8100   0.928   1.573   8.518 -0.1648 -0.1181  0.2710
 4037W        W 8101   3.602   1.943   2.864  0.4811  0.1070 -0.0186
 4038W        W 8102   4.512   2.453   2.077  0.0318  0.3143 -0.3605
 4039W        W 8103   8.759   9.935   2.246  0.0163  0.2247 -0.2892
 4040W        W 8104   4.516   9.631   0.950 -0.0321 -0.0839 -0.0944
 4041W        W 8105   3.881   0.738   2.092  0.2922 -0.0660 -0.1821
 4042W        W 8106   7.899   5.527   1.579  0.1196  0.0267  0.2019
 4043W        W 8107   7.723   3.213   2.405  0.2366  0.0797 -0.0828
 4044W        W 8108   1.918   7.681   8.035 -0.1973 -0.1020 -0.1376
 4045W        W 8109   8.711   9.484   2.478 -0.3461  0.1826  0.3923
 4046W        W 8110   4.202   6.630   2.219 -0.1212 -0.5729  0.0620
 4047W        W 8111   3.281   0.952   0.073 -0.1150 -0.0460 -0.0443
 4048W        W 8112   6.241   1.899  10.277  0.1019  0.3117 -0.0891
 4049W        W 8113  10.016   5.652   3.755  0.0296 -0.2283  0.1479
 4050W        W 8114   7.976   8.512   0.463  0.1670  0.0220  0.1980
 4051W        W 8115   3.437  10.240   0.297 -0.1929 -0.3710 -0.0889
 4052W        W 8116   1.627   3.436   7.894 -0.4187 -0.1709 -0.1970
 4053W        W 8117   8.047   1.218   7.794  0.0280 -0.0942  0.1565
 4054W        W 8118   5.566   8.890   2.742  0.0554 -0.2525 -0.0073
 4055W        W 8119   4.001   8.261   9.144  0.1832 -0.0257  0.2608
 4056W        W 8120   8.335   0.626   0.393 -0.4686  0.2864  0.0034
 4057W        W 8121   1.876   4.016  10.646 -0.3479  0.0870 -0.0296
 4058W        W 8122   6.106   3.469  10.069  0.1859  0.0630 -0.0377
 4059W        W 8123   0.705   5.632  10.744  0.1264  0.0206  0.3113
 4060W        W 8124   8.588   6.369   2.101  0.1125  0.1117  0.0113
 4061W        W 8125   8.556   3.677   7.544 -0.0047 -0.3178 -0.3963
 4062W        W 8126   8.742   8.151   8.679  0.0629  0.1735 -0.0647
 4063W        W 8127   7.433   4.707   1.016 -0.2831 -0.0637 -0.0351
 4064W        W 8128   8.404   3.215   0.675 -0.0523 -0.0219  0.0092
 4065W        W 8129   4.551   0.346  11.020 -0.0145  0.0025  0.0012
 4066W        W 8130   6.198   3.690   2.823 -0.1534 -0.2369 -0.1531
 4067W        W 8131   3.039   9.541   8.352  0.1102  0.1673 -0.0299
 4068W        W 8132   8.936   1.913   3.489  0.1040 -0.1612  0.0322
 4069W        W 8133   0.220   2.727   2.058  0.0901 -0.1717 -0.0743
 4070W        W 8134   7.811   2.755   4.191  0.0579  0.1952 -0.0488
 4071W        W 8135   1.970   0.505   0.374 -0.5001  0.1399 -0.1923
 4072W        W 8136   6.652   9.206   1.414  0.3968 -0.0159 -0.1251
 4073W        W 8137   9.917  10.155   1.886  0.1139  0.0382  0.1589
 4074W        W 8138   0.757   7.898   0.301  0.2809 -0.0079  0.0206
 4075W        W 8139   2.649   4.263   3.353  0.0396  0.1653 -0.0310
 4076W        W 8140  10.386   2.315   8.372  0.3004 -0.0540  0.0296
 4077W        W 8141   3.130   0.328   1.071  0.1032 -0.2049  0.2001
 4078W        W 8142   3.939   0.142   2.756  0.1264 -0.2527 -0.0999
 4079W        W 8143  10.414   1.041   9.895 -0.0239 -0.1108 -0.1761
 4080W        W 8144   8.599   8.567   8.151 -0.0448 -0.0257  0.1134
 4081W        W 8145   5.483   1.473   7.932  0.2270 -0.0090  0.0342
 4082W        W 8146   4.632   4.458   0.123  0.1283 -0.3948  0.1920
 4083W        W 8147   3.218   9.901   9.553  0.1032  0.4284 -0.2938
 4084W        W 8148   1.583   0.927  10.626  0.0751  0.0530 -0.3760
 4085W        W 8149   2.624   6.981   7.572  0.1375  0.2132  0.0909
 4086W        W 8150   9.132  10.809   8.538  0.4844  0.4319 -0.1246
 4087W        W 8151   4.725   6.293   8.256 -0.0228  0.4602  0.0537
 4088W        W 8152   0.822   7.014   1.298 -0.0262 -0.0393  0.1030
 4089W        W 8153   3.821   6.679   1.476 -0.0948 -0.1930 -0.0191
 4090W        W 8154   2.627   9.316   2.465 -0.2673  0.0588  0.1809
 4091W        W 8155   2.641   1.083   0.633 -0.3882  0.0300 -0.1192
 4092W        W 8156   2.686   3.573   1.616 -0.0835 -0.2080  0.1599
 4093W        W 8157   0.031   3.505   8.779  0.0772  0.1432 -0.1387
 4094W        W 8158   3.468   1.805  10.129 -0.0210 -0.0610  0.0436
 4095W        W 8159   1.507   2.549   9.804 -0.1583  0.1705 -0.1955
 4096W        W 8160  10.798   3.617  11.042  0.2414  0.1024 -0.3404
 4097W        W 8161   8.928   6.253   2.472  0.2304 -0.1989  0.2669
 4098W        W 8162  10.728   7.002   1.519 -0.3185 -0.0676  0.4033
 4099W        W 8163   7.865   7.709  10.561  0.0220 -0.1225  0.2055
 4100W        W 8164   5.222   7.596  10.097  0.1596  0.2185  0.2126
 4101W        W 8165   1.768   1.461   9.771  0.0398 -0.3457 -0.0896
 4102W        W 8166   1.500   8.551   7.317  0.3669  0.5287  0.2052
 4103W        W 8167   8.216   8.730   1.850  0.2157  0.4812  0.0961
 4104W        W 8168  10.876   6.071   9.086 -0.0619 -0.1985 -0.1316
 4105W        W 8169   2.607   7.383   1.053 -0.0481  0.0050 -0.1161
 4106W        W 8170   3.495   2.069   3.325  0.3847 -0.3599 -0.0376
 4107W        W 8171   7.139   0.772   0.277 -0.1094  0.1009  0.2716
 4108W        W 8172   7.097   5.013   9.580  0.0744  0.2322 -0.0806
 4109W        W 8173   2.073   1.697   9.077  0.0994 -0.2627 -0.1413
 4110W        W 8174  10.848   8.697   0.725  0.3941  0.1057 -0.2121
 4111W        W 8175   4.305   3.389   2.309 -0.1802 -0.2929  0.1762
 4112W        W 8176   2.832   1.920   8.634  0.0911  0.1404 -0.2261
 4113W        W 8177   5.936   9.457   8.471 -0.2767  0.0428  0.0738
 4114W        W 8178   1.018   7.293   9.022 -0.0459  0.4033 -0.1442
 4115W        W 8179   0.158   3.335   3.010 -0.1800 -0.1186  0.1274
 4116W        W 8180   4.956   7.387   9.682 -0.1277  0.1493  0.1355
 4117W        W 8181  10.372   2.247   7.371  0.3088 -0.0875 -0.2697
 4118W        W 8182   7.522  10.628   1.989 -0.0590 -0.0043 -0.1888
 4119W        W 8183   1.648   1.599   1.212 -0.4399  0.3896 -0.1112
 4120W        W 8184   3.486   7.656   2.582  0.1269 -0.1595  0.1362
 4121W        W 8185   5.976   7.844   8.546  0.1107  0.0838  0.2612
 4122W        W 8186   3.431   4.908   8.446  0.2083  0.0471 -0.2997
 4123W        W 8187   1.539   7.008   0.713 -0.2115  0.0910 -0.1122
 4124W        W 8188   6.396   5.524   4.085 -0.1856  0.2970  0.0016
 4125W        W 8189   9.783   4.366   3.302  0.1027  0.1260 -0.0596
 4126W        W 8190   7.273   0.464   9.430 -0.0200 -0.2549 -0.0965
 4127W        W 8191   0.978   5.647   9.680 -0.1648 -0.3288  0.0874
 4128W        W 8192  10.723   2.030   8.706 -0.0930  0.0642  0.1537
 4129W        W 8193   2.582   2.499   8.883  0.2266  0.3917 -0.0065
 4130W        W 8194   9.417   5.554  10.116 -0.3602 -0.0260  0.4551
 4131W        W 8195   7.619   5.099   9.740  0.2511  0.1569 -0.2171
 4132W        W 8196   2.204   7.809   0.396  0.1903 -0.3182 -0.2401
 4133W        W 8197   4.120   0.300   1.221  0.1030  0.0604 -0.1092
 4134W        W 8198  10.861   7.744   7.613  0.2122 -0.0980  0.0618
 4135W        W 8199   0.419   0.145   0.200  0.5047 -0.0208  0.1190
 4136W        W 8200   5.454   1.530   0.750 -0.2462  0.2863  0.2176
 4137W        W 8201   6.638   9.193   9.232 -0.1896  0.2787 -0.2362
 4138W        W 8202   2.914   8.041  10.391  0.1387  0.0627  0.6156
 4139W        W 8203   9.891   2.923  10.410  0.3593  0.0321  0.0213
 4140W        W 8204   7.798  10.812   0.473 -0.0685  0.0701  0.0269
 4141W        W 8205  10.309   9.151   2.343 -0.1560  0.3312 -0.0425
 4142W        W 8206   5.696   6.530   8.143  0.0952 -0.0950  0.1564
 4143W        W 8207   6.556   3.247  10.255  0.0889 -0.1051 -0.0669
 4144W        W 8208   0.737   8.394   0.442  0.3529 -0.3959  0.0875
 4145W        W 8209   6.354   9.327   8.245  0.1786 -0.1406 -0.0585
 4146W        W 8210   2.832   5.993   9.755  0.2144 -0.0332 -0.0957
 4147W        W 8211   1.726   8.866   9.958  0.2454  0.0516  0.0800
 4148W        W 8212   0.912   8.384   2.605  0.2320 -0.3517 -0.5881
 4149W        W 8213   6.669   3.498   3.107 -0.1156  0.5229  0.1696
 4150W        W 8214   3.421   7.748   0.434  0.0979 -0.1134  0.1784
 4151W        W 8215   2.974   3.637   9.543 -0.2522 -0.0064  0.1234
 4152W        W 8216   2.855  10.059   4.023 -0.2024 -0.2473 -0.1151
 4153W        W 8217   7.027   9.939   1.604 -0.0622 -0.3204  0.2344
 4154W        W 8218   7.085   4.404   9.238  0.1514 -0.2967  0.2316
 4155W        W 8219   5.622   0.082   1.214 -0.1000  0.0661 -0.2111
 4156W        W 8220   2.885   8.713   3.889  0.2063  0.2595  0.2333
 4157W        W 8221  10.841   5.949   0.757  0.1694  0.3047 -0.0653
 4158W        W 8222   8.296   9.632   8.319 -0.1566 -0.0727  0.1023
 4159W        W 8223   0.510   3.474   1.193  0.2441 -0.0430  0.0526
 4160W        W 8224  10.896   7.758   0.407 -0.0118  0.1279 -0.3304
 4161W        W 8225   0.735   8.400   1.576 -0.3150  0.1337 -0.1867
 4162W        W 8226   6.406   9.746   3.502  0.4605  0.0686  0.4856
 4163W        W 8227   6.615   0.049  10.660 -0.2917  0.1781  0.0897
 4164W        W 8228   1.070   9.128  10.377  0.0894  0.0024  0.2426
 4165W        W 8229   2.019   0.726   3.091  0.0435  0.1307  0.2573
 4166W        W 8230   0.473   9.604   2.075 -0.0225  0.0214 -0.0788
 4167W        W 8231   9.042   0.504   9.758 -0.1828 -0.1078 -0.0963
 4168W        W 8232   2.492   5.672  10.473  0.3021  0.0101 -0.0214
 4169W        W 8233   3.819  10.638   2.975  0.0386  0.3509  0.0801
 4170W        W 8234   2.131   1.413   0.693  0.0910  0.1863  0.2020
 4171W        W 8235   1.340   2.747   1.122 -0.1297 -0.0954 -0.0901
 4172W        W 8236   2.617   8.364   7.136  0.0452  0.0230 -0.0909
 4173W        W 8237   9.088   4.824   8.256  0.0899 -0.0227 -0.2158
 4174W        W 8238   9.854   6.484   8.998  0.0134  0.1967  0.4879
 4175W        W 8239   9.636   1.148   1.945  0.1285 -0.0332 -0.2115
 4176W        W 8240   6.064   4.712   0.584  0.3715 -0.1873  0.1238
 4177W        W 8241   8.450   1.408   1.404 -0.2221  0.5626  0.2029
 4178W        W 8242   6.280   7.111  10.295 -0.1069  0.2862 -0.1614
 4179W        W 8243   5.710   4.885   0.164 -0.0682  0.0947  0.3670
 4180W        W 8244   8.355   1.521   8.583  0.0334 -0.2158  0.3838
 4181W        W 8245   8.520   9.395   3.397 -0.2967  0.0862  0.1021
 4182W        W 8246   4.616   5.271   8.307 -0.1382 -0.0228 -0.0212
 4183W        W 8247   3.105   4.507   8.312  0.1190  0.0716  0.3242
 4184W        W 8248   2.675   3.380   1.178  0.1740  0.2319 -0.0365
 4185W        W 8249   6.557   3.752   0.297 -0.0861 -0.4934  0.3291
 4186W        W 8250   3.566   5.797   8.472 -0.4485  0.1677 -0.0977
 4187W        W 8251   2.734   3.555  11.012  0.1756 -0.0389 -0.2212
 4188W        W 8252   8.421   6.371  10.116  0.0888 -0.0928 -0.2551
 4189W        W 8253  10.775   3.421   0.442 -0.3094 -0.0826 -0.0949
 4190W        W 8254   2.063   6.585   1.090  0.1681  0.1467  0.0814
 4191W        W 8255   4.900   4.242   7.190  0.0718  0.3187  0.0478
 4192W        W 8256  10.873   1.151   1.510 -0.1685  0.1098  0.1464
 4193W        W 8257   2.180   4.184   1.685 -0.1609 -0.1211 -0.5656
 4194W        W 8258   5.063  10.710   9.903 -0.0873  0.4166  0.1996
 4195W        W 8259   9.666   8.048   3.023  0.1061 -0.3558 -0.0679
 4196W        W 8260   0.738  10.252   9.838 -0.2518  0.2111 -0.3436
 4197W        W 8261   8.096   5.842   9.510 -0.0229 -0.0057 -0.0220
 4198W        W 8262  10.031   0.256   9.740  0.1444 -0.0076 -0.0267
 4199W        W 8263   3.895   3.278   9.376 -0.1469  0.2515 -0.0398
 4200W        W 8264   8.341  10.624   9.857  0.0152  0.4921 -0.1015
 4201W        W 8265   2.599   5.069   2.043 -0.0697  0.0346 -0.2522
 4202W        W 8266   2.192   3.826   0.701  0.2529  0.3771 -0.1626
 4203W        W 8267   2.604   6.429   0.561  0.1574  0.0317  0.1054
 4204W        W 8268   4.196   6.121  10.575  0.0530  0.0445  0.2474
 4205W        W 8269   2.430   8.560   4.157  0.1471 -0.2696  0.0001
 4206W        W 8270   8.968   1.056   9.753 -0.0057 -0.0517 -0.1216
 4207W        W 8271   8.890   6.612   2.976 -0.0858 -0.0288 -0.1432
 4208W        W 8272   8.650   7.935   0.269 -0.1693  0.2006 -0.1654
 4209W        W 8273   7.006   0.398   2.101  0.0665  0.1479  0.2141
 4210W        W 8274   5.077   2.439   9.298 -0.3230  0.0073  0.2876
 4211W        W 8275   3.223   7.969   7.399 -0.0119 -0.4683 -0.2236
 4212W        W 8276   1.711   9.843   7.214  0.0436  0.0227  0.2446
 4213W        W 8277   4.662   2.463  10.481  0.0608 -0.0505  0.1465
 4214W        W 8278   0.711   3.225   0.441 -0.1868  0.0754  0.1545
 4215W        W 8279   1.833   6.383   7.563  0.2653 -0.0551  0.0002
 4216W        W 8280  10.255  10.043  10.536  0.1749 -0.0545 -0.1531
 4217W        W 8281   6.961   5.062   2.355  0.0230 -0.3593 -0.1326
 4218W        W 8282   8.967   1.994   1.482  0.0098 -0.0027 -0.3608
 4219W        W 8283   7.079   1.860   3.000  0.1156 -0.2000  0.1705
 4220W        W 8284  10.489   9.900   3.781  0.2633 -0.2963 -0.1448
 4221W        W 8285   8.113   9.616  10.755  0.0645  0.0777  0.0746
 4222W        W 8286   6.869   8.839  11.024  0.2406 -0.0862 -0.2729
 4223W        W 8287   5.951   2.401   1.282 -0.0329  0.0925  0.1881
 4224W        W 8288   8.552   4.684   9.660 -0.0333 -0.2761  0.1357
 4225W        W 8289   0.272   4.664   8.787  0.2400  0.0217  0.1879
 4226W        W 8290   1.561   0.826   3.180 -0.3055 -0.0405  0.2031
 4227W        W 8291   8.861  10.746   9.008 -0.1684 -0.0170 -0.1563
 4228W        W 8292   3.687   0.479   3.005 -0.1210  0.3983 -0.2733
 4229W        W 8293   1.230   9.501   0.254  0.0768  0.0022  0.1403
 4230W        W 8294   6.237   6.042   7.138 -0.1441  0.0502  0.2060
 4231W        W 8295  10.628   6.802   9.445 -0.1436 -0.0040 -0.1982
 4232W        W 8296  10.381   1.535   1.266 -0.0834  0.0680  0.1816
 4233W        W 8297   9.402   8.835   7.727 -0.3427 -0.2172  0.1610
 4234W        W 8298   4.632   1.204   1.708 -0.0503 -0.1479  0.0617
 4235W        W 8299   0.788   8.680   1.088 -0.3713 -0.0863  0.0273
 4236W        W 8300   9.866   2.531   8.626 -0.0148  0.0890 -0.1004
 4237W        W 8301   0.121   8.635   9.600 -0.0895  0.2929 -0.4726
 4238W        W 8302   7.399   2.939   3.958 -0.0360  0.0365  0.3091
 4239W        W 8303   5.176   5.518   3.205 -0.0193 -0.0386  0.0460
 4240W        W 8304   5.263   4.405   9.859 -0.1850 -0.3340 -0.1796
 4241W        W 8305   7.847   8.754   2.223 -0.0242  0.1480  0.0809
 4242W        W 8306   4.782   2.700   8.258 -0.0643 -0.3992  0.0406
 4243W        W 8307  10.703   8.032   8.433  0.0329  0.0678 -0.0343
 4244W        W 8308   0.538   6.881  10.744 -0.2575 -0.0144 -0.1836
 4245W        W 8309   0.544   3.084   8.404  0.2851 -0.1810  0.1870
 4246W        W 8310   3.453  10.110   7.716 -0.1797 -0.1282 -0.0759
 4247W        W 8311   0.683   3.716   9.867 -0.2872 -0.2489 -0.2008
 4248W        W 8312   7.142   7.449   1.077  0.1890 -0.3900 -0.1597
 4249W        W 8313   2.455   3.846   9.360 -0.1714  0.0573 -0.2923
 4250W        W 8314   5.252   3.998   3.369 -0.2611 -0.1739  0.0309
 4251W        W 8315   0.092   6.976   2.046 -0.0211 -0.2595 -0.3565
 4252W        W 8316   7.596   6.672   2.948 -0.0948  0.0261  0.2276
 4253W        W 8317   5.211   3.809   8.528 -0.2083  0.1009  0.1044
 4254W        W 8318   0.013   7.810  10.426  0.1098  0.1281 -0.1119
 4255W        W 8319   7.007   7.249   0.489  0.3673 -0.1476  0.2140
 4256W        W 8320   5.704   3.980  10.932  0.2321  0.1556 -0.0745
 4257W        W 8321   6.373   7.885   2.590 -0.0321 -0.0418 -0.0348
 4258W        W 8322   5.585   2.679  10.400  0.0325  0.2147  0.0229
 4259W        W 8323   8.744   1.096   8.582 -0.0631  0.1097  0.0870
 4260W        W 8324  10.443   2.523   7.892  0.4215  0.0130 -0.1555
 4261W        W 8325   7.504   9.564   2.946  0.0431  0.2305 -0.2409
 4262W        W 8326   6.023   7.823  10.789  0.1685 -0.0842 -0.3111
 4263W        W 8327   9.487   3.221  10.416 -0.0745  0.0752 -0.0236
 4264W        W 8328   0.433   7.571   3.157  0.2227  0.2410  0.2236
 4265W        W 8329   8.846   3.488   7.907 -0.0156 -0.3126  0.0804
 4266W        W 8330  10.222   0.142   3.932  0.1389 -0.0693 -0.0755
 4267W        W 8331   3.476   3.606   8.360 -0.0175 -0.2594 -0.0733
 4268W        W 8332   0.496   2.028   7.688  0.1740 -0.0431  0.2356
 4269W        W 8333   5.303   4.106   2.067 -0.0186 -0.1335  0.1835
 4270W        W 8334   7.625   7.623   3.111 -0.0377  0.0956 -0.1214
 4271W        W 8335   8.218   7.802   1.991  0.2904  0.1356  0.4781
 4272W        W 8336   4.377   0.787   9.783  0.2082 -0.0471  0.1322
 4273W        W 8337   6.089   0.898   1.267 -0.0999  0.0375  0.0696
 4274W        W 8338   2.209   6.121   8.939 -0.2771 -0.4320  0.2705
 4275W        W 8339   4.969   6.424   9.038  0.0185 -0.2037  0.1277
 4276W        W 8340   0.126   0.532   9.414 -0.0386  0.0233 -0.1690
 4277W        W 8341   9.281   4.692   8.825 -0.0440 -0.1232  0.4503
 4278W        W 8342   6.498   8.777   8.394  0.0548 -0.1583 -0.3473
 4279W        W 8343   0.937   6.162  10.817 -0.0877  0.0682  0.0294
 4280W        W 8344   6.191   0.122   8.360 -0.1107  0.1442  0.3456
 4281W        W 8345   0.668   6.628   9.947  0.0555  0.0369  0.1462
 4282W        W 8346   4.724   2.817   4.042 -0.1490 -0.1106  0.1128
 4283W        W 8347   5.093  10.002   0.707 -0.0079 -0.0187  0.0550
 4284W        W 8348   2.569   0.324   9.883 -0.3721 -0.0331 -0.0427
 4285W        W 8349   1.726   7.625   8.925 -0.0981  0.0123 -0.0116
 4286W        W 8350   0.080  10.553  10.460  0.0536  0.1915 -0.1415
 4287W        W 8351   0.677   6.199   7.596 -0.1960  0.3919 -0.0635
 4288W        W 8352   5.097   7.302  10.607 -0.3635  0.0275 -0.0843
 4289W        W 8353   7.267   0.607   8.497  0.1625  0.0180 -0.1079
 4290W        W 8354   6.415   9.366   3.169 -0.1707  0.0862  0.1622
 4291W        W 8355   7.242   5.862   9.882  0.0932 -0.1586 -0.0862
 4292W        W 8356   1.647   3.605   0.379 -0.0261 -0.0856 -0.0672
 4293W        W 8357   4.978   6.381   2.607  0.1373  0.3165 -0.0750
 4294W        W 8358   4.868   0.968   2.992 -0.0634 -0.0959  0.2108
 4295W        W 8359   0.979   6.849  10.458  0.2021  0.0394 -0.1534
 4296W        W 8360   6.515   8.593   9.833  0.0102 -0.1819  0.4398
 4297W        W 8361   3.047   9.451  10.165 -0.1819  0.1484  0.1106
 4298W        W 8362  10.261  10.827   0.906 -0.2380  0.1298 -0.3398
 4299W        W 8363   2.652   5.946   8.556 -0.0578  0.1394  0.1257
 4300W        W 8364   8.049   5.327   3.685  0.0733 -0.3619  0.2825
 4301W        W 8365   0.485   0.309   9.676  0.1810 -0.1884 -0.0376
 4302W        W 8366   9.965   7.330   2.509 -0.3606 -0.1520 -0.1123
 4303W        W 8367   2.768   2.869  10.418 -0.0971  0.0055  0.0860
 4304W        W 8368   4.735   4.962   1.976  0.0276 -0.1802  0.0440
 4305W        W 8369   8.763   9.925   2.766 -0.0102  0.0867  0.0548
 4306W        W 8370   8.876   3.572   0.426 -0.1554  0.0043 -0.0376
 4307W        W 8371   0.038   8.681  10.465 -0.5493 -0.0099  0.1657
 4308W        W 8372   5.624   8.562  10.700  0.0091 -0.2744  0.0995
 4309W        W 8373   3.314   1.504   2.160 -0.1614  0.0712  0.0549
 4310W        W 8374   0.221   4.054   0.627 -0.1202  0.1119 -0.1280
 4311W        W 8375   7.816   3.661   2.205  0.1220 -0.0889  0.2083
 4312W        W 8376  10.062   8.059   2.668 -0.3640 -0.1103  0.0414
 4313W        W 8377   0.326   1.212   7.087 -0.2785  0.0794  0.0163
 4314W        W 8378   2.158   8.161   9.592  0.0368  0.0811 -0.2887
 4315W        W 8379   8.777   0.283   3.086  0.0543 -0.1371  0.0305
 4316W        W 8380   0.320   9.430   8.361 -0.1106 -0.0556 -0.2747
 4317W        W 8381   2.350   3.314  10.108 -0.1616 -0.1192  0.0378
 4318W        W 8382   8.852   6.756   7.697 -0.0595 -0.2438  0.0670
 4319W        W 8383   4.242   9.074   7.902 -0.0279 -0.0462 -0.0149
 4320W        W 8384   0.650   2.317   9.869 -0.0111 -0.0622  0.2045
 4321W        W 8385  10.883   8.342   2.060  0.0369 -0.0291  0.0709
 4322W        W 8386   3.097   8.287   3.800  0.0612  0.0004 -0.0492
 4323W        W 8387   6.881   9.378   0.552 -0.3575  0.2970 -0.0591
 4324W        W 8388   8.178   4.159   8.420  0.0669 -0.0307 -0.2340
 4325W        W 8389   7.020   0.461   8.011 -0.0995  0.2084  0.0260
 4326W        W 8390   7.706  10.251   0.774  0.0266  0.1795 -0.2429
 4327W        W 8391   7.153   3.255   1.627  0.1069  0.1871  0.0169
 4328W        W 8392   4.836   1.771   9.972 -0.1422  0.2456  0.5656
 4329W        W 8393   5.048   7.580   0.872 -0.1390 -0.0114 -0.1233
 4330W        W 8394   4.248   0.574   8.329 -0.0336  0.2847  0.0790
 4331W        W 8395   6.578   2.066   0.072 -0.0231 -0.2892 -0.1137
 4332W        W 8396   2.685   2.376  10.697 -0.2638  0.1152 -0.2442
 4333W        W 8397   0.508   3.283   9.460  0.1238  0.2703  0.3338
 4334W        W 8398   9.078   9.527  10.023 -0.1404  0.1741 -0.1557
 4335W        W 8399   6.409   2.241   1.129  0.1529 -0.0709  0.1605
 4336W        W 8400   8.827  10.410   2.237 -0.0490 -0.0886 -0.0525
 4337W        W 8401   8.528   1.654   9.407 -0.0022 -0.2047 -0.0933
 4338W        W 8402   2.247   8.955  10.889 -0.0781  0.1420  0.2700
 4339W        W 8403   2.082   9.960   7.547  0.1399  0.2966  0.1899
 4340W        W 8404   4.665   4.823   3.840 -0.1317 -0.0975 -0.2106
 4341W        W 8405  10.770   6.580   7.915  0.0505  0.0855  0.0194
 4342W        W 8406   7.338   4.790   2.510  0.1372  0.2406  0.0878
 4343W        W 8407   3.354   9.327   2.104  0.1062  0.0324 -0.1340
 4344W        W 8408   8.446   9.602   0.418 -0.1446 -0.0860 -0.1693
 4345W        W 8409   4.215   8.194   2.776  0.0136 -0.1336  0.3323
 4346W        W 8410   4.156   9.944  10.416 -0.1263  0.1180 -0.1013
 4347W        W 8411  10.754   8.566   1.184 -0.1068  0.2342  0.0420
 4348W        W 8412   3.300   3.322   2.071 -0.0942  0.3889 -0.3389
 4349W        W 8413   7.156   4.808   0.438  0.0152  0.0458 -0.1161
 4350W        W 8414   6.013  10.473   7.383 -0.0810 -0.3023  0.2804
 4351W        W 8415   9.437   5.481   3.486  0.1549  0.1629 -0.0496
 4352W        W 8416   3.998   4.011   3.727 -0.2248 -0.3095  0.0687
 4353W        W 8417   5.084   1.139   1.995 -0.0086  0.3472 -0.0884
 4354W        W 8418   0.370   5.261  10.136 -0.2697  0.0234  0.3055
 4355W        W 8419   4.456   7.484   9.979 -0.2563  0.1503 -0.1235
 4356W        W 8420   5.809   1.942   9.352 -0.0993  0.2897 -0.4143
 4357W        W 8421   1.039   8.164  11.055 -0.1119  0.0164 -0.1061
 4358W        W 8422   4.321   3.744   8.362 -0.1324 -0.1816  0.3222
 4359W        W 8423   1.709   5.256   8.299  0.3320  0.0018  0.0310
 4360W        W 8424   7.139   0.976   1.344  0.0875  0.0690 -0.0070
 4361W        W 8425   6.396   3.554   8.840 -0.1943  0.0999 -0.0799
 4362W        W 8426   3.170   3.779   2.418 -0.1853  0.0975  0.1033
 4363W        W 8427   4.852   4.732   7.239 -0.0581 -0.1046  0.0860
 4364W        W 8428   9.043   1.631   9.276  0.0894 -0.0833  0.0985
 4365W        W 8429   8.694   8.930   8.508  0.4294 -0.1163 -0.1619
 4366W        W 8430   6.009   6.196   1.309 -0.2311  0.0053 -0.0871
 4367W        W 8431   7.876   0.374   3.459 -0.1582 -0.1397  0.0703
 4368W        W 8432   6.282   5.227  10.866 -0.0349 -0.2860 -0.0050
 4369W        W 8433   3.843   1.303   1.243 -0.2143  0.1481  0.1534
 4370W        W 8434   7.759   2.571   0.650 -0.3709  0.0531  0.1114
 4371W        W 8435  10.309   6.358   0.172  0.4940 -0.1952 -0.1159
 4372W        W 8436  10.673   4.837   7.742 -0.0558 -0.1099 -0.1833
 4373W        W 8437   8.333   8.921   1.319 -0.3699  0.0750  0.1710
 4374W        W 8438   7.959   0.978   9.814  0.1712  0.2225 -0.1636
 4375W        W 8439   0.791   8.426   9.144  0.1550 -0.0878 -0.2572
 4376W        W 8440   2.587   4.648   8.529 -0.0666  0.1401  0.2271
 4377W        W 8441   5.174   9.763   0.188  0.0830  0.3055 -0.0548
 4378W        W 8442   1.383   8.013   3.353  0.0212 -0.1198  0.0505
 4379W        W 8443   3.139   8.142   0.606 -0.2995 -0.1434  0.0338
 4380W        W 8444   0.409   1.463  10.085  0.2188 -0.1924 -0.0991
 4381W        W 8445   9.947   8.138   9.370  0.2002  0.0638  0.3040
 4382W        W 8446   6.888  10.364   0.462  0.0746 -0.0399 -0.2805
 4383W        W 8447   4.200   1.473   2.134 -0.4358  0.0960 -0.2306
 4384W        W 8448   1.902  10.366   2.525 -0.0047 -0.2380  0.1917
 4385W        W 8449   2.467   0.348   9.299  0.3518  0.2101 -0.0865
 4386W        W 8450   7.036   8.602  10.031  0.3368  0.1726  0.0603
 4387W        W 8451   2.654   7.929   3.047 -0.2438  0.2438  0.2834
 4388W        W 8452  10.483   7.100   2.244  0.1839  0.2187  0.3773
 4389W        W 8453   8.070   0.055   8.260 -0.0939 -0.2806 -0.2270
 4390W        W 8454   2.530   5.504   9.953  0.3299 -0.2987 -0.1153
 4391W        W 8455   6.971   2.445   7.243  0.2721 -0.0595  0.3702
 4392W        W 8456   5.813  10.151   7.097  0.2772 -0.2984 -0.0766
 4393W        W 8457   4.546   9.138   0.737  0.0495  0.0225  0.0112
 4394W        W 8458  10.461   8.933   8.798 -0.1637 -0.1616  0.2280
 4395W        W 8459   4.421  10.866   3.794  0.3163  0.0347 -0.2457
 4396W        W 8460   7.818   1.146   8.842  0.0570  0.1977  0.0013
 4397W        W 8461   9.702   5.100   1.183  0.1227 -0.2682  0.1803
 4398W        W 8462   0.772   9.227   9.132  0.0145  0.1867  0.0926
 4399W        W 8463   7.644   5.301  10.370 -0.1758  0.0430 -0.2734
 4400W        W 8464   1.058   1.890   7.808 -0.0221 -0.2043  0.1007
 4401W        W 8465   1.907   2.603   6.990 -0.4580  0.0054 -0.2397
 4402W        W 8466   3.045  10.773  10.371 -0.0882  0.1755  0.3914
 4403W        W 8467   3.271   6.876   3.731 -0.0679  0.1179 -0.1687
 4404W        W 8468   2.079   1.432   3.903  0.2378 -0.2470  0.4642
 4405W        W 8469   0.965   4.824   7.672 -0.1939 -0.3006  0.0684
 4406W        W 8470   5.415   0.672   1.184 -0.2655  0.2278  0.0870
 4407W        W 8471   4.055  10.876  10.230 -0.2547 -0.0008  0.2757
 4408W        W 8472   2.033   3.906   0.152  0.0978  0.0960  0.0645
 4409W        W 8473   3.639   2.932   7.540 -0.1427 -0.2779 -0.3664
 4410W        W 8474   0.352   5.444   8.032 -0.3880  0.2988  0.3581
 4411W        W 8475  10.871   7.165   9.088 -0.1021  0.0083  0.0443
 4412W        W 8476   0.375   8.813  10.919 -0.2359  0.1609  0.1330
 4413W        W 8477   6.092   4.645   2.307 -0.3460 -0.1744 -0.0349
 4414W        W 8478   1.742   7.615   0.136  0.3198 -0.1317  0.2318
 4415W        W 8479   7.217   6.372   2.303  0.0694 -0.2636 -0.0557
 4416W        W 8480   2.876   1.365   3.113  0.1474 -0.0962 -0.1040
 4417W        W 8481   6.592   5.745   8.523  0.4045 -0.1528  0.3932
 4418W        W 8482  10.692   0.911   7.846 -0.0633 -0.0934  0.1206
 4419W        W 8483   2.187   4.187   9.737 -0.2616 -0.2314 -0.0864
 4420W        W 8484   4.261   6.642   1.717  0.3374 -0.2214 -0.1370
 4421W        W 8485   2.056   7.228   9.332 -0.1029  0.0951 -0.0277
 4422W        W 8486   6.832   4.121   3.723  0.2340 -0.1128  0.1186
 4423W        W 8487   0.665   5.460   8.366 -0.0035  0.2215 -0.0636
 4424W        W 8488   4.632   8.133   2.362  0.0257 -0.0037 -0.2290
 4425W        W 8489   7.206   8.981   0.308  0.1136  0.2247 -0.0980
 4426W        W 8490   9.823   6.041   2.113 -0.2229 -0.1709  0.1199
 4427W        W 8491   8.025   5.490   7.782  0.3533  0.2103  0.0071
 4428W        W 8492   6.563   9.550   0.920 -0.1586 -0.1398  0.0741
 4429W        W 8493   6.557   4.784   9.929  0.0818 -0.0273 -0.1980
 4430W        W 8494   3.368   3.838   9.917 -0.1340 -0.2903  0.0195
 4431W        W 8495   8.844   5.314   3.576  0.3023  0.1748 -0.0783
 4432W        W 8496   8.101   1.890  10.299  0.4372 -0.1537 -0.1735
 4433W        W 8497   1.168  10.180   2.124  0.0469 -0.0509 -0.0604
 4434W        W 8498   2.635   2.342   0.158  0.0442  0.0924  0.2691
 4435W        W 8499   0.150   5.241   0.574 -0.0375 -0.0852 -0.1794
 4436W        W 8500   6.013   0.282   1.962 -0.2244  0.2016 -0.1004
 4437W        W 8501   7.030   5.375  10.468 -0.1385 -0.1912 -0.0399
 4438W        W 8502   5.049   0.659  10.812  0.1116 -0.1795 -0.1783
 4439W        W 8503   1.382  10.325   9.655 -0.1347 -0.0301  0.0106
 4440W        W 8504   1.974   6.743   0.058 -0.0377  0.2186  0.0294
 4441W        W 8505   9.413   9.002   1.996 -0.0739 -0.0656 -0.1201
 4442W        W 8506   8.418   6.424   3.119  0.0213  0.1769  0.2357
 4443W        W 8507   7.523   1.801   8.208  0.2071 -0.0164 -0.1138
 4444W        W 8508   2.128   6.411   2.961 -0.3250 -0.1444 -0.2152
 4445W        W 8509   6.246   0.075   2.387 -0.3711 -0.0240 -0.2341
 4446W        W 8510   3.386   1.416   8.832 -0.1455  0.4852  0.0927
 4447W        W 8511  10.189   7.405   0.201 -0.2188  0.1636  0.1081
 4448W        W 8512   0.279  10.681   0.513 -0.0455 -0.2056  0.3582
 4449W        W 8513   2.663   7.006  10.431 -0.1955  0.1548  0.1259
 4450W        W 8514   6.555   8.614   0.983  0.2275 -0.2559  0.3527
 4451W        W 8515   5.457   3.636  10.261 -0.2792  0.2050  0.1710
 4452W        W 8516   7.707   8.049   0.469  0.3827  0.1188  0.0108
 4453W        W 8517   8.349   3.791  10.985  0.0870 -0.0136  0.1209
 4454W        W 8518   3.803   8.959   9.958  0.1759 -0.0756 -0.0246
 4455W        W 8519   5.961   9.998   1.404 -0.3170  0.2299 -0.1333
 4456W        W 8520   4.413   1.413   8.181  0.2508  0.1031 -0.0033
 4457W        W 8521  10.702   4.973   2.326 -0.1924 -0.0006  0.1780
 4458W        W 8522   6.297   8.722   8.926 -0.0108 -0.2335 -0.2999
 4459W        W 8523   4.440   6.285   0.418  0.0170 -0.0087 -0.1573
 4460W        W 8524   2.951   1.222  10.657  0.0327 -0.3088 -0.1295
 4461W        W 8525   0.511   6.282   9.076  0.0205  0.3047 -0.0908
 4462W        W 8526   9.822   4.985   9.173 -0.1507 -0.3085 -0.0858
 4463W        W 8527   9.197   6.780   1.570  0.0187  0.0295 -0.1096
 4464W        W 8528   8.832   7.776  10.160  0.1796  0.3296 -0.0254
 4465W        W 8529   3.411   1.579   7.864 -0.1639 -0.0363  0.0482
 4466W        W 8530   5.946   3.597   8.081  0.2508  0.0116  0.1875
 4467W        W 8531   0.494   9.768   0.032  0.1081 -0.2945 -0.4306
 4468W        W 8532   9.988   8.839   6.901  0.0332  0.0687  0.3192
 4469W        W 8533   5.528   4.179   7.708  0.1904  0.0681 -0.0618
 4470W        W 8534   0.245   1.403   9.605  0.0441  0.0473 -0.2735
 4471W        W 8535   8.957   7.778   3.525  0.3089  0.0008  0.1769
 4472W        W 8536   3.979   7.534   7.925 -0.0585 -0.0709  0.0686
 4473W        W 8537   2.449   8.092  10.004 -0.0010 -0.0233 -0.4502
 4474W        W 8538   7.035   9.452   2.973 -0.1171  0.0782 -0.1390
 4475W        W 8539   0.695   1.020   7.988  0.1238 -0.0295 -0.3762
 4476W        W 8540   7.728   3.304   9.201  0.1319  0.1205  0.0687
 4477W        W 8541   0.429   1.616   2.022  0.3675  0.2365 -0.1689
 4478W        W 8542   0.744   7.156   7.932 -0.1757  0.1750  0.2525
 4479W        W 8543   6.682   2.565   1.431 -0.2365 -0.1750 -0.0059
 4480W        W 8544   9.460   3.130   9.826 -0.1144  0.1508  0.2457
 4481W        W 8545   0.518   8.546   7.538  0.1005  0.0426  0.2168
 4482W        W 8546   1.756   3.664   0.950 -0.0895  0.2439  0.2011
 4483W        W 8547   4.036   4.269   2.438 -0.0492  0.0640 -0.1449
 4484W        W 8548   9.604   4.700   2.856 -0.1031 -0.3891  0.1419
 4485W        W 8549   1.025   6.411   8.848 -0.1925  0.1173 -0.0476
 4486W        W 8550   9.864   3.191   9.546 -0.1857  0.3741 -0.1424
 4487W        W 8551   4.575   3.865   2.364  0.2191  0.1536  0.0224
 4488W        W 8552   3.756   3.589   0.129  0.0409 -0.0771  0.1269
 4489W        W 8553   1.498   9.061   3.316 -0.1082 -0.0030 -0.3945
 4490W        W 8554   9.804   1.662   8.929 -0.2911  0.0701 -0.1967
 4491W        W 8555  10.483   3.866  10.231 -0.2080  0.0928  0.2054
 4492W        W 8556   6.839   0.118   9.660 -0.1007 -0.1475 -0.2705
 4493W        W 8557   8.900  10.728   7.601 -0.1565  0.0325 -0.3789
 4494W        W 8558   3.098   1.482   9.756  0.1123  0.0264  0.3310
 4495W        W 8559   4.253   1.710   3.063 -0.0010  0.1110  0.3334
 4496W        W 8560   7.722   6.774   8.946  0.2246  0.2605  0.0320
 4497W        W 8561   8.447   4.276   0.109  0.0081 -0.1290 -0.3001
 4498W        W 8562   4.342   7.903   9.755 -0.1006  0.3723 -0.1053
 4499W        W 8563   8.068  10.063   8.504 -0.1288 -0.0288 -0.3151
 4500W        W 8564   9.788  10.625   0.562 -0.3285 -0.2247 -0.1634
 4501W        W 8565   4.782   5.388   8.922  0.1471 -0.1981  0.0308
 4502W        W 8566   7.129   7.352   3.034  0.0873 -0.0802 -0.0726
 4503W        W 8567   2.428   7.772   4.042  0.2252 -0.3616 -0.2410
 4504W        W 8568   9.000   1.792   0.936  0.0039 -0.2878  0.2114
 4505W        W 8569   5.616   0.241   0.340  0.1064 -0.1021 -0.1097
 4506W        W 8570   4.115   9.795   2.438 -0.2042 -0.0399  0.1526
 4507W        W 8571   0.443   8.196   1.901  0.0396  0.2059  0.0442
 4508W        W 8572   9.468   0.047  10.797 -0.0533 -0.1224 -0.1625
 4509W        W 8573   5.515   1.765   9.752  0.0337 -0.2042  0.1131
 4510W        W 8574   8.275   9.735   1.639  0.0749  0.0972  0.0001
 4511W        W 8575   8.349   3.095  10.870  0.1426 -0.0113  0.5818
 4512W        W 8576   2.408   6.894   2.902 -0.0764  0.0489  0.2940
 4513W        W 8577   9.264   0.389   3.041  0.0960  0.1804 -0.2429
 4514W        W 8578   8.934   3.017   8.912 -0.1062  0.2701 -0.1153
 4515W        W 8579   3.261   9.717   0.332 -0.0719  0.0588  0.1434
 4516W        W 8580   9.082   6.842   8.531  0.3782 -0.1676  0.2470
 4517W        W 8581   4.959  10.799   8.572  0.0346 -0.1483 -0.3051
 4518W        W 8582   4.207   6.997   8.786  0.0759 -0.1378 -0.2042
 4519W        W 8583   7.814   6.973   2.513  0.1258  0.1498  0.1540
 4520W        W 8584   6.824   0.880   2.296 -0.2628 -0.1530  0.3179
 4521W        W 8585   8.877   2.438   0.145  0.0771  0.2768  0.3355
 4522W        W 8586   1.644   6.852   1.769  0.3311  0.1258 -0.0784
 4523W        W 8587   5.985  10.720   0.365  0.5859  0.1311  0.0626
 4524W        W 8588   8.014   7.955   9.987 -0.2511 -0.1212  0.4505
 4525W        W 8589   7.255   0.596   2.519 -0.0504  0.3096 -0.3483
 4526W        W 8590   9.914   5.495  10.839  0.0083 -0.1411 -0.0589
 4527W        W 8591   5.632   4.009   1.717 -0.1009 -0.0987 -0.2607
 4528W        W 8592   0.533   7.216   2.146 -0.1346 -0.0821 -0.2828
 4529W        W 8593   9.825   2.076   0.896  0.3856 -0.0158 -0.0545
 4530W        W 8594   2.893   5.959   7.752 -0.2354 -0.3974 -0.0765
 4531W        W 8595   8.699   9.564   1.892 -0.2211  0.1711 -0.0865
 4532W        W 8596   5.516   3.654   3.595 -0.4366 -0.1857 -0.1286
 4533W        W 8597   8.099   7.324   1.732 -0.0284 -0.0592 -0.2581
 4534W        W 8598   8.144   9.324  10.306  0.3305  0.2370  0.1211
 4535W        W 8599   9.413   2.054   2.148 -0.3102  0.1095  0.1255
 4536W        W 8600   1.660   8.904   2.838  0.1923  0.1396  0.0326
 4537W        W 8601   0.813   1.298   0.834 -0.0590 -0.2932 -0.2911
 4538W        W 8602   4.264   8.958   2.068  0.2534  0.5009 -0.1020
 4539W        W 8603   1.343   9.275  10.869  0.4386  0.2450  0.0153
 4540W        W 8604   6.065   2.308   9.538  0.1324 -0.2340  0.1158
 4541W        W 8605   6.926   4.166   1.201 -0.0758  0.1838 -0.0310
 4542W        W 8606   3.585   2.528  10.427  0.1473  0.1421  0.1066
 4543W        W 8607   7.239   3.175   0.377 -0.1224 -0.1285  0.0373
 4544W        W 8608   2.013   5.644   7.126  0.0430 -0.1565 -0.2054
 4545W        W 8609   9.180   5.710   8.572 -0.2075  0.0928  0.0729
 4546W        W 8610   6.571   5.840   2.767  0.1051  0.6349 -0.0044
 4547W        W 8611   8.954   1.514   1.354 -0.0445 -0.1234  0.0312
 4548W        W 8612   3.735   0.053  11.023 -0.1401  0.0151 -0.1091
 4549W        W 8613   7.997   2.662  10.982 -0.2672  0.3600  0.0684
 4550W        W 8614   3.874   8.523   9.587 -0.2601 -0.1584  0.4495
 4551W        W 8615   0.870  10.855   3.987  0.2462  0.2496 -0.0747
 4552W        W 8616   7.686   9.320  11.017 -0.1494 -0.0166  0.2706
 4553W        W 8617   8.911   3.548   9.117  0.0665  0.3539 -0.2624
 4554W        W 8618   9.593   8.877  10.991 -0.0561  0.0815  0.0185
 4555W        W 8619   5.724   5.358   8.775  0.0124 -0.1560  0.2703
 4556W        W 8620   5.416   2.134   0.069  0.0362  0.0730  0.0730
 4557W        W 8621   5.105   1.328   3.200 -0.1289 -0.1514  0.1023
 4558W        W 8622   3.097   2.522  10.502  0.0697  0.1920 -0.1488
 4559W        W 8623  10.168   9.770   8.078  0.2319  0.1534  0.2564
 4560W        W 8624  10.250   5.070   7.980 -0.1217 -0.1337 -0.1380
 4561W        W 8625   9.949   1.506   2.042  0.1311  0.1161 -0.0308
 4562W        W 8626  10.544   9.855   0.635 -0.2588  0.2853 -0.0432
 4563W        W 8627   6.081   1.918   2.996 -0.0181  0.0706  0.1885
 4564W        W 8628   7.457   9.136   9.559  0.0344  0.3487 -0.0915
 4565W        W 8629   4.475   6.104   1.443  0.0416 -0.1521 -0.1435
 4566W        W 8630   9.201   7.224   2.586  0.1642  0.1037  0.1865
 4567W        W 8631   4.598   4.944  10.110  0.0513 -0.2058  0.1385
 4568W        W 8632   1.956   3.038  11.031  0.0194 -0.2289 -0.2094
 4569W        W 8633   7.286   5.814  10.417  0.1579  0.0449  0.0034
 4570W        W 8634   9.001   4.481   0.991  0.2223 -0.2711  0.1787
 4571W        W 8635   4.542   9.535   3.720 -0.1772  0.2114 -0.2775
 4572W        W 8636   7.707   9.061   1.539  0.1264  0.2446 -0.3034
 4573W        W 8637   7.184   5.957   2.019 -0.2645 -0.0016 -0.1118
 4574W        W 8638   5.963   6.693   2.030 -0.0568  0.3036 -0.0170
 4575W        W 8639   3.420   4.094   8.450  0.1353 -0.0794  0.0011
 4576W        W 8640   3.475   6.976   7.322  0.0287  0.0370  0.0089
 4577W        W 8641   5.875   4.873   1.824 -0.2673  0.0805  0.0214
 4578W        W 8642   2.496   7.443   2.867  0.3613  0.0223 -0.0354
 4579W        W 8643   7.410   6.602   8.575 -0.1041 -0.0706  0.1002
 4580W        W 8644   5.726   4.083   0.560  0.0083 -0.2053  0.0846
 4581W        W 8645   9.778  10.291   8.719  0.1052  0.1174 -0.0001
 4582W        W 8646   7.879   3.783   2.800  0.2511  0.1679 -0.0246
 4583W        W 8647   5.220   0.453  10.408  0.4934  0.0881  0.2465
 4584W        W 8648   3.528   9.607  10.042 -0.3578  0.2026  0.1787
 4585W        W 8649   1.711   2.124   0.553  0.1964  0.1485 -0.4410
 4586W        W 8650   3.969   9.370  10.671  0.2347  0.0011 -0.2543
 4587W        W 8651   8.100   4.481  10.302 -0.0679  0.2775  0.0475
 4588W        W 8652   1.613   2.321   9.395  0.0032 -0.1766 -0.0172
 4589W        W 8653   5.374   8.921   9.002 -0.1035  0.1779 -0.1154
 4590W        W 8654   5.241   2.228   7.188 -0.1151 -0.3005  0.0414
 4591W        W 8655   1.725   8.553   8.412 -0.0122 -0.0024  0.0274
 4592W        W 8656   4.682   5.313   1.069  0.0584  0.2017 -0.2102
 4593W        W 8657   4.772   8.842   9.473  0.2358  0.0239  0.2497
 4594W        W 8658   6.668   1.304   0.814  0.0161  0.0139 -0.1845
 4595W        W 8659   5.115   1.973   2.356 -0.0933 -0.0587 -0.1717
 4596W        W 8660   0.732   0.179   2.620 -0.0132  0.1886  0.0197
 4597W        W 8661   6.189   9.551   7.734 -0.0682  0.0065 -0.0019
 4598W        W 8662   6.889   2.273   8.593  0.2650 -0.4440  0.1430
 4599W        W 8663   7.243   8.170   1.748  0.0423  0.0884  0.0176
 4600W        W 8664   7.158   6.825   9.808 -0.2612  0.0832  0.0087
 4601W        W 8665   2.177   3.444   0.235 -0.0542  0.2673 -0.3436
 4602W        W 8666   1.626   7.064   9.820  0.2289 -0.0029 -0.1668
 4603W        W 8667   5.633   5.735  10.596  0.4857 -0.1279  0.0199
 4604W        W 8668   8.704   3.546   1.238  0.0661  0.1255  0.0842
 4605W        W 8669  10.292   3.803  10.815  0.0500 -0.1568  0.2519
 4606W        W 8670   2.503   1.370  10.350  0.1963 -0.2308  0.1018
 4607W        W 8671   7.767   5.135   1.910 -0.1723 -0.2149  0.1493
 4608W        W 8672   6.460   3.206   9.754  0.3401 -0.2901 -0.0557
 4609W        W 8673   5.609   4.221   8.629 -0.1729 -0.1658 -0.1850
 4610W        W 8674   9.784   3.935   0.149  0.1174 -0.2766 -0.2439
 4611W        W 8675   4.043   3.612   1.310 -0.1485 -0.3775  0.1103
 4612W        W 8676   2.114   2.675   2.662 -0.2829 -0.4997  0.1063
 4613W        W 8677  10.715   6.226  10.439 -0.4290  0.0490  0.1676
 4614W        W 8678   7.725   4.801   0.495  0.1291  0.1888 -0.1349
 4615W        W 8679   1.966   4.472   0.481  0.2093  0.1113  0.0047
 4616W        W 8680   4.073   5.755   9.503  0.2272 -0.4086 -0.0472
 4617W        W 8681   2.755   8.587  10.126 -0.2051 -0.0004  0.1236
 4618W        W 8682   8.891   8.140   8.157 -0.2407  0.2769 -0.0335
 4619W        W 8683   5.094   5.276  10.782  0.0352 -0.2268  0.0801
 4620W        W 8684   4.239  10.576   0.529 -0.0369  0.0183  0.0221
 4621W        W 8685   7.284   1.903   8.629 -0.0275 -0.2919 -0.1194
 4622W        W 8686   4.118   5.724   7.720 -0.0553 -0.0191 -0.2231
 4623W        W 8687   1.774   2.069   9.882  0.1921 -0.0661  0.0241
 4624W        W 8688   4.079   9.520  10.172 -0.1169 -0.3173  0.3600
 4625W        W 8689   5.187   2.574   0.634 -0.2235  0.0654  0.2974
 4626W        W 8690   3.376  10.398   8.564 -0.1370  0.0426  0.0097
 4627W        W 8691   4.884   0.490   2.938  0.0976  0.3537  0.0582
 4628W        W 8692   8.173   1.479   0.420  0.2779 -0.1040  0.0835
 4629W        W 8693   4.240   3.117   4.207  0.1386  0.0001  0.2276
 4630W        W 8694   2.868   2.136   2.912  0.0007  0.0184 -0.2842
 4631W        W 8695   0.434   5.440   8.816 -0.0112  0.0457  0.2570
 4632W        W 8696   2.747   3.159   8.238  0.0991 -0.0258 -0.0301
 4633W        W 8697   1.415   2.896   7.050 -0.1066 -0.3035  0.1659
 4634W        W 8698   5.633   2.563  10.907 -0.0178  0.0123  0.1367
 4635W        W 8699   8.790   1.575   2.423  0.0490 -0.0276  0.0946
 4636W        W 8700   3.470   7.116   1.455 -0.1770  0.0431  0.1105
 4637W        W 8701   9.929   5.983   9.892 -0.0680 -0.0046  0.1873
 4638W        W 8702   7.970   0.957   9.276  0.0717  0.1984  0.1037
 4639W        W 8703   8.684   7.285   3.439 -0.0409  0.3665  0.4998
 4640W        W 8704   6.673   4.381   2.636 -0.0963  0.0910  0.0516
 4641W        W 8705   8.326   1.516  10.896 -0.0599  0.1798 -0.0247
 4642W        W 8706   4.251   4.589   8.832  0.1012  0.0946 -0.2228
 4643W        W 8707   4.617   9.895   0.019 -0.0927 -0.0372 -0.2876
 4644W        W 8708   4.165   1.041  10.244 -0.0425  0.2207  0.0873
 4645W        W 8709   7.931   0.672   1.010 -0.1582  0.0330  0.0077
 4646W        W 8710   3.019  10.712   9.847  0.2691  0.2497 -0.0639
 4647W        W 8711   0.063   8.461   3.310 -0.1246 -0.0438 -0.1004
 4648W        W 8712   0.306   5.359   9.348  0.2357 -0.0657  0.0571
 4649W        W 8713   0.843   1.917   8.944  0.0637 -0.0228  0.2405
 4650W        W 8714   6.670   7.112   8.712  0.2467 -0.1571  0.2573
 4651W        W 8715   3.651   3.372  10.690  0.0242 -0.2318 -0.3195
 4652W        W 8716   6.137   7.823   7.985 -0.0103 -0.1764 -0.3321
 4653W        W 8717   8.445   2.849   0.305  0.1606 -0.2136  0.1326
 4654W        W 8718   7.682   3.166   7.519  0.1906  0.1102 -0.5883
 4655W        W 8719   0.686   2.382   2.434  0.0655 -0.2586 -0.1682
 4656W        W 8720   8.733  10.649   8.281 -0.0558 -0.1369 -0.0176
 4657W        W 8721  10.704  10.805   0.730 -0.2865 -0.0864  0.0351
 4658W        W 8722   3.182   1.996   4.032  0.0113 -0.0136 -0.0327
 4659W        W 8723   9.600   0.137   0.939 -0.1538  0.1217 -0.1755
 4660W        W 8724  10.791   0.302   8.941  0.2018 -0.0330 -0.2015
 4661W        W 8725   2.735   5.645  11.036 -0.0102 -0.0417  0.1771
 4662W        W 8726   0.148  10.865   9.873 -0.2262 -0.0070 -0.0610
 4663W        W 8727   0.971   1.481   2.815 -0.3172  0.0398 -0.1624
 4664W        W 8728   9.835   3.540   7.859 -0.1470  0.0357  0.0127
 4665W        W 8729   9.118   0.790   2.003  0.0634 -0.4814 -0.1652
 4666W        W 8730   9.837   7.830  10.154 -0.0983 -0.2144  0.1329
 4667W        W 8731   3.645   0.950   2.746 -0.1835  0.1687 -0.2835
 4668W        W 8732   2.388   3.367   9.276  0.1242 -0.1833  0.0272
 4669W        W 8733   0.367   0.999   0.659 -0.5127  0.1104 -0.1036
 4670W        W 8734   5.674   6.574   0.131 -0.1351 -0.0440  0.0503
 4671W        W 8735   2.580   1.933   8.185 -0.3672 -0.0486 -0.0160
 4672W        W 8736   2.530   8.354   7.894  0.0582 -0.0402  0.0696
 4673W        W 8737  10.266   1.933   0.567  0.1797  0.2673  0.1972
 4674W        W 8738   2.338   8.732   7.640 -0.0922 -0.0739 -0.0405
 4675W        W 8739   7.095   9.407   1.644  0.2167 -0.4831 -0.3345
 4676W        W 8740   8.826   8.102   9.787  0.2379  0.0686  0.1085
 4677W        W 8741   0.236   2.838   8.025  0.2951 -0.0764 -0.0968
 4678W        W 8742   0.315   6.157   9.691 -0.0837 -0.2786 -0.0192
 4679W        W 8743   7.362   7.814   8.372  0.3285  0.0008 -0.0088
 4680W        W 8744   5.995   9.562   0.408 -0.0959  0.1572 -0.2593
 4681W        W 8745   5.510   4.138  10.191 -0.2257 -0.0507  0.1359
 4682W        W 8746   3.289   1.115   7.941  0.2980 -0.2795 -0.2235
 4683W        W 8747   3.327   0.202   2.191 -0.0909 -0.0827 -0.2648
 4684W        W 8748   4.978   2.533   1.734  0.0608 -0.0218  0.2158
 4685W        W 8749   9.691   3.456   8.365 -0.3923 -0.0023  0.1400
 4686W        W 8750   8.537   5.385   0.984 -0.4576  0.0772 -0.0071
 4687W        W 8751  10.140   3.729   9.870  0.1363 -0.2280  0.0229
 4688W        W 8752   9.477   6.390   1.752 -0.2940 -0.1556 -0.0317
 4689W        W 8753  10.510   2.784   9.100 -0.0813 -0.0376  0.1221
 4690W        W 8754   1.236   7.970   0.440  0.0782 -0.0856  0.1528
 4691W        W 8755   7.729   4.184   8.684 -0.2412  0.3515  0.0351
 4692W        W 8756   3.656   3.227   1.481  0.0018 -0.0167 -0.1474
 4693W        W 8757   6.131   3.473   3.228  0.4733  0.0530 -0.1387
 4694W        W 8758   4.286   7.870   0.387  0.0117  0.0490 -0.0043
 4695W        W 8759   9.693   5.803   7.635  0.0021 -0.1023  0.0102
 4696W        W 8760   1.846   3.297   1.352  0.1493 -0.1633 -0.1119
 4697W        W 8761   0.185   2.572   1.555 -0.0598 -0.0325 -0.1921
 4698W        W 8762   9.806   3.917   3.125 -0.3253 -0.0376 -0.2894
 4699W        W 8763   7.786   9.660   8.699 -0.1174  0.0761  0.1242
 4700W        W 8764   3.870   6.588   2.630 -0.1734  0.2919 -0.1017
 4701W        W 8765  10.338   9.310  10.589 -0.2314 -0.0962  0.2124
 4702W        W 8766   9.782   8.931   7.373  0.1625 -0.1500  0.1047
 4703W        W 8767   3.924   7.041   0.025  0.0003 -0.0233  0.2800
 4704W        W 8768   4.591   0.522   0.416  0.2347 -0.1884 -0.2444
 4705W        W 8769   2.337   5.662   0.665 -0.0087  0.2446  0.0497
 4706W        W 8770   6.985   2.382   3.135  0.3284 -0.1338  0.0335
 4707W        W 8771   3.482   7.830   6.970 -0.1836 -0.1355 -0.2698
 4708W        W 8772   4.406   0.558   2.977 -0.0666 -0.0603  0.0983
 4709W        W 8773   8.384   0.441   8.185 -0.0578 -0.5263  0.1437
 4710W        W 8774   5.848   1.419   1.023  0.0991 -0.2703  0.0176
 4711W        W 8775   1.288   6.724   0.335  0.0571  0.0495  0.0477
 4712W        W 8776   9.134   6.596   1.128  0.0053 -0.2666 -0.3872
 4713W        W 8777   5.199  10.780   0.622  0.0523 -0.3050 -0.2547
 4714W        W 8778   7.331   8.447  10.567 -0.0129  0.1310  0.1126
 4715W        W 8779   6.394  10.267   9.989 -0.2482 -0.2974 -0.1091
 4716W        W 8780   7.031   5.157   1.645  0.0473 -0.0773 -0.1197
 4717W        W 8781   5.062   3.665   2.473  0.2032 -0.4736 -0.1452
 4718W        W 8782   0.093   1.069   8.280  0.0083  0.0873  0.1175
 4719W        W 8783   6.749   2.092   2.638  0.4802 -0.0342  0.2733
 4720W        W 8784   5.581   9.664   1.189 -0.1799  0.1109 -0.1993
 4721W        W 8785   7.601   1.489   2.606 -0.0657 -0.2306 -0.1275
 4722W        W 8786   9.725   8.649   8.258  0.1403 -0.0411  0.2121
 4723W        W 8787   3.178   5.301   2.616 -0.1020  0.0450 -0.2457
 4724W        W 8788   1.800   8.002   2.408  0.0286  0.1737  0.2833
 4725W        W 8789   5.550   8.064  10.752  0.3209  0.0812  0.0372
 4726W        W 8790   1.798   5.307   3.689 -0.1234  0.0217 -0.0881
 4727W        W 8791   5.064   5.450   7.969  0.0057  0.0965 -0.3962
 4728W        W 8792   2.578   9.419   0.842 -0.1948  0.2617 -0.1350
 4729W        W 8793   0.819   2.768   1.155  0.2686  0.0123 -0.1001
 4730W        W 8794   3.270   3.103   8.250 -0.0794  0.2845  0.0580
 4731W        W 8795   0.603   2.252   1.005  0.3264  0.2305 -0.2486
 4732W        W 8796   0.990   4.794   8.466  0.0126  0.2438 -0.1794
 4733W        W 8797   4.005   1.230   3.309 -0.2331 -0.0728 -0.0092
 4734W        W 8798   0.480  10.183   2.760 -0.1076  0.0143 -0.0223
 4735W        W 8799   1.139   9.233   2.109 -0.1352 -0.0730 -0.3060
 4736W        W 8800   5.735   2.062  10.172 -0.0803  0.1748 -0.0131
 4737W        W 8801  10.041   8.511   1.690 -0.1670 -0.3476 -0.1791
 4738W        W 8802   8.362   1.214   9.610  0.1934  0.0214  0.1403
 4739W        W 8803  10.425   0.057   2.320  0.2191 -0.2468 -0.2045
 4740W        W 8804   8.770   9.616   8.086 -0.0694 -0.2584 -0.0502
 4741W        W 8805   8.197   2.893   2.639 -0.0685  0.0433 -0.1728
 4742W        W 8806  10.319   6.993   7.905  0.1379  0.3108  0.1041
 4743W        W 8807   9.118   6.556  10.931  0.0266 -0.0735 -0.2159
 4744W        W 8808   3.045   4.050   2.963  0.1617 -0.0440 -0.1260
 4745W        W 8809   0.866   7.290  10.656  0.0593 -0.0659 -0.1188
 4746W        W 8810   9.054   9.338   8.388  0.1277  0.3098  0.0698
 4747W        W 8811   6.728   5.749   9.114  0.2387  0.2525 -0.0634
 4748W        W 8812   6.535   1.470   1.758  0.0616  0.0148  0.0318
 4749W        W 8813   9.396   4.379   8.041 -0.3204 -0.2342  0.0469
 4750W        W 8814   3.355   0.400   0.163  0.0109  0.2328  0.1834
 4751W        W 8815   7.791   6.236   0.624 -0.3700  0.1846  0.0945
 4752W        W 8816   6.464   7.366   1.818  0.0251  0.1158  0.1026
 4753W        W 8817   7.036   7.376   9.022 -0.1923  0.1300  0.1940
 4754W        W 8818   5.161   7.151   0.551  0.2552  0.0214  0.1941
 4755W        W 8819   1.705   6.007   8.961 -0.0220  0.4773  0.0022
 4756W        W 8820   9.567   6.088   8.565 -0.2599 -0.3738  0.2109
 4757W        W 8821   1.376   5.004   1.248 -0.0238  0.2697 -0.2185
 4758W        W 8822  10.135   8.372  10.893 -0.1750 -0.0350 -0.2341
 4759W        W 8823   6.015   1.384   3.147  0.2859 -0.2052  0.1254
 4760W        W 8824   0.330   6.886   7.927  0.1724  0.1287 -0.3062
 4761W        W 8825  10.720   6.710   8.896  0.1928  0.0170  0.0000
 4762W        W 8826   4.546   7.917   1.640 -0.2262  0.1187  0.3022
 4763W        W 8827   9.589   5.510   9.159 -0.4062  0.1016 -0.0541
 4764W        W 8828   1.232   1.456   0.980  0.1006 -0.1265 -0.0798
 4765W        W 8829   4.215   3.448   2.802  0.1343  0.1273  0.3237
 4766W        W 8830  10.572   3.908   3.257  0.0204 -0.0242  0.1455
 4767W        W 8831   9.959   0.378   0.049 -0.0641  0.1266  0.1992
 4768W        W 8832   7.194   8.628   3.358 -0.0215  0.0414  0.0564
 4769W        W 8833   4.942   7.727   8.433 -0.3068 -0.4163 -0.0699
 4770W        W 8834   1.221  10.173   9.135 -0.3165 -0.1687 -0.5518
 4771W        W 8835   4.422   5.071   8.727  0.2196  0.1334  0.2380
 4772W        W 8836   7.244   9.046   1.332  0.1799  0.0854  0.0381
 4773W        W 8837   6.303   8.768   1.483 -0.1439  0.2714  0.1698
 4774W        W 8838   0.660   8.180   8.715  0.1034 -0.3143  0.1472
 4775W        W 8839   8.677   9.140   3.868 -0.1509  0.1675 -0.1608
 4776W        W 8840   1.450   1.419   2.680  0.1755 -0.1912 -0.2371
 4777W        W 8841   8.974   6.149   7.105  0.1173 -0.0071  0.3145
 4778W        W 8842   7.549  10.050   4.104 -0.0990  0.0385  0.0282
 4779W        W 8843  10.424   7.788   0.472  0.0366 -0.2032 -0.2014
 4780W        W 8844   4.328   5.248   0.163 -0.2035 -0.1712  0.1287
 4781W        W 8845   4.770   3.463   2.077  0.2169  0.1195  0.0513
 4782W        W 8846   2.120   7.743  10.182 -0.2106  0.1679  0.0331
 4783W        W 8847   6.929   3.527   8.044  0.0686 -0.1533 -0.0485
 4784W        W 8848   1.692   5.390   9.663  0.1290 -0.1811 -0.0544
 4785W        W 8849  10.225   3.826   2.788  0.1044 -0.1473 -0.1523
 4786W        W 8850   1.843   0.254   3.166  0.0159  0.1523 -0.1157
 4787W        W 8851   6.066   4.891   3.745 -0.0339 -0.1582 -0.0301
 4788W        W 8852   2.546   2.112   3.601  0.0631 -0.2710 -0.1484
 4789W        W 8853   8.356   8.817  10.313 -0.0953 -0.1866 -0.1822
 4790W        W 8854   5.298   2.030   0.613  0.0964 -0.1485  0.2311
 4791W        W 8855   8.725   1.991   8.483  0.0542 -0.2848  0.4433
 4792W        W 8856   5.979   1.387   1.599 -0.1558 -0.0937 -0.2305
 4793W        W 8857   7.218   0.184   1.178  0.2914 -0.1760 -0.2903
 4794W        W 8858  10.580   7.074   8.584  0.1053 -0.2003  0.0374
 4795W        W 8859   7.012   8.196   3.681 -0.0315  0.1250 -0.0569
 4796W        W 8860   6.275   3.891  10.836 -0.2253 -0.3393  0.1665
 4797W        W 8861   3.570   0.245   8.149  0.2033 -0.1571  0.1057
 4798W        W 8862   8.475   9.984   8.780  0.0719  0.0554 -0.0184
 4799W        W 8863   8.576   5.237   8.674 -0.2356  0.1822  0.0888
 4800W        W 8864   5.476   0.385   9.416 -0.0339 -0.0080 -0.1617
 4801W        W 8865  10.279   9.447   0.318  0.0636 -0.1748  0.0086
 4802W        W 8866   2.287   3.579   2.684 -0.0563  0.1920 -0.0498
 4803W        W 8867   7.831   6.946   2.033 -0.0682 -0.2816  0.0090
 4804W        W 8868   3.004   4.696   7.524  0.0294  0.1390  0.1196
 4805W        W 8869   7.316   8.537   9.591  0.2921  0.1141  0.0715
 4806W        W 8870   9.152   3.496   9.587 -0.1898 -0.1667 -0.0031
 4807W        W 8871   5.970   5.965   2.573 -0.0624 -0.0783 -0.1719
 4808W        W 8872   6.362   6.802   8.526  0.2105 -0.0714  0.1087
 4809W        W 8873   4.519   3.085   0.066  0.1372  0.0445 -0.1943
 4810W        W 8874   4.763   3.853   0.445 -0.2871  0.0375 -0.0670
 4811W        W 8875   0.902   9.838   8.943 -0.1948 -0.1439 -0.2315
 4812W        W 8876   1.585   2.024   2.055 -0.0289  0.2112  0.1523
 4813W        W 8877   5.929   5.161   1.405  0.0310  0.0902  0.2007
 4814W        W 8878   5.178   3.705   1.751  0.0098  0.0591  0.1540
 4815W        W 8879   4.187  10.020   8.214 -0.3337 -0.0841 -0.0795
 4816W        W 8880  10.563   2.664   1.845 -0.2144  0.0159  0.1846
 4817W        W 8881   6.045   6.290   8.426 -0.2705 -0.0937 -0.2253
 4818W        W 8882   6.841   7.749   0.759 -0.0278  0.3127  0.1935
 4819W        W 8883   3.177   1.839   0.413  0.1021  0.3600 -0.0141
 4820W        W 8884   2.220   0.607   1.054  0.0282  0.0032  0.1641
 4821W        W 8885   9.319   4.591   3.242  0.0423  0.1759 -0.1003
 4822W        W 8886   1.463   7.749  10.571  0.3040  0.0963 -0.0309
 4823W        W 8887   7.388   9.892   1.192 -0.0570  0.0314  0.2017
 4824W        W 8888   0.156  10.100  10.667  0.0094  0.1599 -0.0961
 4825W        W 8889   1.233   2.016   9.598 -0.1369 -0.1530 -0.1680
 4826W        W 8890   3.054   2.642   8.127  0.5615 -0.0345  0.2616
 4827W        W 8891   7.753   2.525   9.699 -0.0822 -0.6265  0.0507
 4828W        W 8892   5.829   6.393   0.648  0.1385  0.0797 -0.1552
 4829W        W 8893   8.971  10.328   8.758  0.3057 -0.0125 -0.2775
 4830W        W 8894   2.900   6.322  10.184 -0.0747  0.0157 -0.2142
 4831W        W 8895   1.315   1.438  10.604  0.3674 -0.0326 -0.1158
 4832W        W 8896   6.907   3.831   8.508 -0.0075 -0.0977 -0.2416
 4833W        W 8897   8.254   0.682   3.501 -0.2480  0.2298 -0.1970
 4834W        W 8898  10.456   5.750   1.628 -0.3169  0.3016  0.1426
 4835W        W 8899   0.754   4.245   3.552 -0.0627  0.2192 -0.0444
 4836W        W 8900   9.055   7.772   8.833 -0.0973 -0.0172  0.0219
 4837W        W 8901   6.239   8.479   3.146 -0.1325 -0.1227  0.3040
 4838W        W 8902   1.172   3.956   2.835  0.4071 -0.0095  0.3728
 4839W        W 8903   4.326   2.797   8.529  0.0366  0.0314  0.2782
 4840W        W 8904   7.286  10.678   9.794  0.0540 -0.2031  0.1073
 4841W        W 8905   5.125   1.688   2.867 -0.0853  0.0383  0.0394
 4842W        W 8906   1.377   5.681   9.316  0.0134 -0.2176 -0.1258
 4843W        W 8907   6.936   0.157   9.016  0.2736 -0.2057  0.2906
 4844W        W 8908  10.197   5.311   1.736 -0.0190 -0.1097  0.2725
 4845W        W 8909   1.139   7.126   9.563  0.1939 -0.1805 -0.4050
 4846W        W 8910   9.025  10.337   3.398 -0.0115  0.2009 -0.1577
 4847W        W 8911   2.057   9.170   2.831  0.4018  0.2124 -0.2716
 4848W        W 8912   4.584   8.304  10.111 -0.0897 -0.1261  0.0491
 4849W        W 8913   3.021   1.122   0.973 -0.0186  0.1103  0.1348
 4850W        W 8914   7.834  10.323   0.272  0.0892  0.1807 -0.0164
 4851W        W 8915   1.993   6.188   9.867  0.0190  0.1544 -0.5152
 4852W        W 8916   9.741   9.587   8.816 -0.1861 -0.3949 -0.1687
 4853W        W 8917   7.736   0.386   2.824 -0.0555 -0.1557 -0.2584
 4854W        W 8918   0.485   6.206   1.028 -0.0993 -0.2476 -0.0368
 4855W        W 8919   3.981  10.780   0.983  0.0001 -0.4283 -0.0586
 4856W        W 8920   1.860   2.894   1.033  0.1966 -0.0377  0.0670
 4857W        W 8921   9.748  10.223   9.886  0.0355  0.0924  0.1817
 4858W        W 8922   3.177   3.562   9.045 -0.0999  0.1370 -0.0811
 4859W        W 8923   4.363   7.427   9.002  0.0154 -0.1581 -0.3985
 4860W        W 8924   9.154   5.314   2.513  0.0971 -0.3090 -0.0776
 4861W        W 8925   3.530   2.385   1.161 -0.0072  0.1794  0.1119
 4862W        W 8926   4.147   2.987   9.773 -0.3111  0.0215 -0.3519
 4863W        W 8927   5.333   5.512   8.406  0.4074  0.4356 -0.4154
 4864W        W 8928   3.698   2.079  10.480 -0.0032 -0.0517 -0.1451
 4865W        W 8929   7.122   6.264  10.289  0.3699  0.1552  0.2576
 4866W        W 8930   5.083   0.023   1.205 -0.3689  0.2235  0.5125
 4867W        W 8931   8.152   2.466  10.480 -0.1250  0.0035 -0.1104
 4868W        W 8932   7.096   9.169   7.746 -0.3059  0.0954  0.1486
 4869W        W 8933   8.085   5.015   2.818 -0.1112  0.1366  0.0607
 4870W        W 8934   7.184  10.119  10.621  0.0704  0.1834 -0.1286
 4871W        W 8935   4.672   0.534  10.519  0.0171  0.2428 -0.0102
 4872W        W 8936   6.941   9.566   9.069  0.0744  0.0615  0.1551
 4873W        W 8937   7.258   9.907   9.989  0.2487  0.0046  0.0037
 4874W        W 8938   2.948   0.657   9.298  0.1569  0.2927  0.1548
 4875W        W 8939   0.056   3.153   8.386  0.2072 -0.3288  0.0011
 4876W        W 8940   1.720   7.597   3.373  0.0733 -0.0984  0.1783
 4877W        W 8941  10.501   8.955  10.216 -0.1164  0.1398  0.4976
 4878W        W 8942  10.311   9.757   1.993  0.0632 -0.2799  0.0872
 4879W        W 8943  10.512   1.083   2.527 -0.1887  0.1369  0.0213
 4880W        W 8944   5.894   5.092   3.340  0.1092  0.0747 -0.2692
 4881W        W 8945   8.171   0.054  10.147  0.1973  0.1597  0.4711
 4882W        W 8946   4.116   1.660   9.925  0.1482 -0.1142 -0.0381
 4883W        W 8947   6.854  10.658   9.277 -0.1768  0.1996 -0.0723
 4884W        W 8948   0.402   7.687   9.689 -0.3619  0.0727  0.1790
 4885W        W 8949   7.158   5.465   8.327  0.0559 -0.3216  0.0519
 4886W        W 8950  10.784   5.715   1.249  0.2655 -0.0582  0.3100
 4887W        W 8951   6.128   1.280  10.549  0.3262  0.1354  0.1320
 4888W        W 8952  10.317   6.727   1.371  0.0590  0.2054 -0.1141
 4889W        W 8953   0.470  10.626   7.631 -0.0440 -0.1433 -0.1196
 4890W        W 8954   2.397   2.079   1.142  0.0485 -0.0606 -0.2754
 4891W        W 8955   9.239   7.858   9.912 -0.0954  0.4022  0.0326
 4892W        W 8956   8.130   6.803   3.281 -0.0248 -0.0315  0.0889
 4893W        W 8957  10.697   6.368  10.947  0.0089 -0.0539 -0.1747
 4894W        W 8958   1.566   6.552   1.050 -0.1829 -0.1733 -0.0549
 4895W        W 8959   4.774   1.801   8.617 -0.1608 -0.0807  0.0592
 4896W        W 8960   5.147   4.203   0.535  0.1261  0.0953 -0.2276
 4897W        W 8961   9.346   3.272   8.690 -0.0808  0.3267 -0.0597
 4898W        W 8962   5.167   9.855   2.920 -0.0711 -0.1187  0.0358
 4899W        W 8963   0.933   5.440   7.943 -0.3316 -0.2744 -0.0311
 4900W        W 8964  10.431   6.191   8.142  0.1331  0.0502 -0.2004
 4901W        W 8965   0.810   8.560   6.947  0.0027  0.0653 -0.1120
 4902W        W 8966   8.604   7.703   3.151  0.2621 -0.0342 -0.1247
 4903W        W 8967   4.008   7.044  10.544  0.1147 -0.1075  0.1993
 4904W        W 8968   0.430   9.919   0.519 -0.0214  0.1745 -0.0559
 4905W        W 8969   9.127   4.860   2.820  0.1096 -0.3990 -0.1064
 4906W        W 8970   9.978   1.936  10.066  0.0688 -0.2406  0.3079
 4907W        W 8971   0.197   9.727   0.922  0.0008 -0.1789  0.0843
 4908W        W 8972   6.469   4.014   8.607 -0.0394 -0.2469  0.0574
 4909W        W 8973   3.121   5.667  10.668  0.2364 -0.0819  0.2876
 4910W        W 8974   3.928   6.188   1.634 -0.0094  0.1408 -0.0953
 4911W        W 8975   0.871   0.736   9.612  0.1334 -0.0885 -0.1082
 4912W        W 8976   4.507   9.493   2.481 -0.2685  0.2960  0.2228
 4913W        W 8977   4.410   2.190   2.756  0.2678  0.1595  0.0483
 4914W        W 8978   9.529   9.315   2.434 -0.0737 -0.5577 -0.4610
 4915W        W 8979   1.544   9.004   0.567  0.0795 -0.0620 -0.1860
 4916W        W 8980  10.507   7.795   1.413 -0.0476  0.0436  0.0040
 4917W        W 8981   4.438   2.123   9.975  0.0472 -0.3047  0.0307
 4918W        W 8982   6.497   0.697   0.727  0.1460 -0.1468  0.1785
 4919W        W 8983   0.849   3.183  10.409  0.2353  0.1774  0.0728
 4920W        W 8984   7.604   4.335   9.158 -0.2781 -0.0618  0.0285
 4921W        W 8985   1.549   2.046   1.062 -0.0148 -0.1658 -0.1112
 4922W        W 8986   6.620  10.597  10.266  0.0462 -0.1762  0.2053
 4923W        W 8987  10.822   2.691   8.614 -0.1515 -0.4628  0.0974
 4924W        W 8988  10.706   5.018   0.284  0.3943  0.3449  0.1752
 4925W        W 8989   0.031   4.451   0.197  0.0558  0.1898 -0.0783
 4926W        W 8990   6.944   7.931  10.819 -0.1423  0.1216  0.0266
 4927W        W 8991   4.269   1.477   0.475  0.2147 -0.1466  0.4725
 4928W        W 8992   5.456   4.355   0.142 -0.1327  0.0222  0.4345
 4929W        W 8993   1.463   4.506   7.774  0.2079 -0.2534  0.1297
 4930W        W 8994   1.117   1.369   8.018  0.1489  0.0406  0.5927
 4931W        W 8995  10.458  10.016   3.249 -0.1896 -0.0462 -0.1591
 4932W        W 8996   0.006   7.517   1.304 -0.1591  0.0466  0.0342
 4933W        W 8997   9.068   3.223  10.160  0.0251  0.2543  0.3163
 4934W        W 8998   7.253   9.425   9.994  0.4172  0.2332  0.1081
 4935W        W 8999   4.933  10.403   8.967 -0.2540  0.2527  0.2980
 4936W        W 9000   4.179   2.669   2.876 -0.1686  0.1231  0.1442
 4937W        W 9001   0.775   0.097   0.812  0.1159 -0.1831 -0.3189
 4938W        W 9002  10.039   9.709   7.508 -0.3563  0.0690  0.0393
 4939W        W 9003   4.396   9.603   7.893  0.2623 -0.3164 -0.1813
 4940W        W 9004  10.540   1.518   8.769 -0.0808 -0.3239  0.3582
 4941W        W 9005   7.870   6.779   7.975  0.0255  0.1674  0.0115
 4942W        W 9006   2.942   0.415   1.939  0.4379  0.0648 -0.2460
 4943W        W 9007   0.207   2.314   9.472 -0.0132  0.0935  0.0156
 4944W        W 9008   0.740  10.526   3.012 -0.0253 -0.1228 -0.4589
 4945W        W 9009   2.734   4.087   1.816 -0.1917 -0.4934 -0.1821
 4946W        W 9010   5.886   5.903   0.775 -0.2284 -0.1272 -0.0403
 4947W        W 9011  10.747   3.748   7.774  0.4628 -0.0001 -0.1589
 4948W        W 9012   2.861  10.860   0.141  0.2140 -0.0880  0.2167
 4949W        W 9013   7.877   8.893  10.190 -0.1434 -0.2870  0.4415
 4950W        W 9014  10.026   8.160   0.791  0.1766 -0.2373  0.0979
 4951W        W 9015   9.816   2.319  10.942  0.0682  0.0555  0.0180
 4952W        W 9016   8.313   6.763   1.805 -0.0243 -0.0220 -0.1607
 4953W        W 9017   4.483   4.970   3.012  0.0324 -0.3683  0.2127
 4954W        W 9018   8.117   1.887   9.313 -0.3138 -0.0950 -0.0687
 4955W        W 9019   8.538  10.741   2.990 -0.1560  0.3082 -0.0403
 4956W        W 9020   3.787   5.915   2.809  0.1897 -0.2302  0.0628
 4957W        W 9021   6.919   6.527   8.789  0.1810 -0.2427 -0.3026
 4958W        W 9022   6.387   3.768   9.793  0.1594 -0.1493 -0.4582
 4959W        W 9023   5.870   0.738   0.496 -0.1525 -0.2797  0.0533
 4960W        W 9024   8.880   3.051   1.324 -0.1755 -0.0149 -0.0156
 4961W        W 9025  10.326   4.001   0.779 -0.2228 -0.0872 -0.1206
 4962W        W 9026   2.760   5.145  10.890 -0.0531 -0.1153  0.2857
 4963W        W 9027   7.445   2.680   8.009  0.1421 -0.1247  0.0123
 4964W        W 9028   9.665   2.957   1.841  0.1568  0.1923  0.3570
 4965W        W 9029   5.227   9.220   0.334  0.2293  0.1779  0.2703
 4966W        W 9030  10.351   2.056   3.523  0.1887  0.1614  0.0120
 4967W        W 9031   5.570  10.554  10.630  0.1129 -0.0242 -0.3914
 4968W        W 9032   7.735   9.732  10.119  0.0333 -0.1080 -0.0910
 4969W        W 9033   8.074   6.521   0.047 -0.0477 -0.2951  0.0981
 4970W        W 9034   5.221   0.609   3.764 -0.0764 -0.0808 -0.0253
 4971W        W 9035   6.888   1.394   1.309 -0.1096  0.0199 -0.1129
 4972W        W 9036   4.118   9.980   1.820  0.0590  0.0213  0.2568
 4973W        W 9037   2.043   7.961   8.522  0.0984  0.2952 -0.0553
 4974W        W 9038   3.527   2.120   7.985 -0.1358  0.2607 -0.1982
 4975W        W 9039   3.944   7.633   3.886  0.6228  0.0864  0.1067
 4976W        W 9040   1.671   7.028   1.215  0.0804  0.1694  0.2691
 4977W        W 9041   3.797   6.976   8.304  0.0897 -0.0752 -0.3980
 4978W        W 9042   1.109  10.651   2.704  0.2430 -0.0275 -0.2981
 4979W        W 9043   0.609   2.629   3.275 -0.2008 -0.0599 -0.2123
 4980W        W 9044  10.625   6.659   0.527  0.4428  0.2989  0.1218
 4981W        W 9045   7.631   3.070   1.340 -0.1292 -0.1220 -0.0350
 4982W        W 9046   5.124   5.605   1.379 -0.0851 -0.0387  0.0751
 4983W        W 9047   1.172   2.230   8.282  0.0718 -0.2504  0.1490
 4984W        W 9048   1.741   5.915   1.502  0.0242 -0.0247 -0.2140
 4985W        W 9049   5.782   9.761   8.013  0.0146  0.2040 -0.1608
 4986W        W 9050   9.970   0.809   8.561 -0.1121  0.1984 -0.1533
 4987W        W 9051   0.843   7.956   3.019 -0.0256 -0.4635 -0.1700
 4988W        W 9052   3.745   6.504   8.080  0.2877 -0.3059 -0.0608
 4989W        W 9053   1.411   6.582  10.451 -0.0706 -0.0573  0.4146
 4990W        W 9054   7.296   4.465   7.743  0.0365  0.0227 -0.0820
 4991W        W 9055   1.825   9.500   9.310 -0.0994 -0.6135  0.3988
 4992W        W 9056   0.756   9.128   3.791  0.2321 -0.1360  0.0560
 4993W        W 9057   8.227   9.280   0.073 -0.1439  0.2596 -0.1138
 4994W        W 9058  10.445   2.703   0.963  0.2169  0.0861 -0.4176
 4995W        W 9059   9.520   0.332   8.485  0.3433 -0.0318 -0.0302
 4996W        W 9060   0.063   5.388   8.470 -0.0231  0.0547 -0.0627
 4997W        W 9061  10.453   8.713   2.041 -0.0158  0.1518 -0.0894
 4998W        W 9062   8.905   9.277   3.002 -0.0760  0.2071  0.1323
 4999W        W 9063   1.663   9.929   0.332 -0.3287 -0.0669  0.0262
 5000W        W 9064   6.009   4.641   8.240  0.0624  0.0277 -0.1020
 5001W        W 9065   9.910  10.700   3.058  0.0303  0.1189 -0.1951
 5002W        W 9066   1.284   9.160   9.052 -0.1058 -0.0979  0.1734
 5003W        W 9067   0.074   4.802   1.401  0.1105 -0.2407 -0.1455
 5004W        W 9068   4.702   6.781   8.685 -0.1717  0.0480 -0.4097
 5005W        W 9069   2.837   5.616   2.822 -0.0996 -0.0952 -0.0133
 5006W        W 9070   6.691   0.957  10.009 -0.0474 -0.1361 -0.1847
 5007W        W 9071   4.442   6.683   0.789  0.0779 -0.1840  0.0413
 5008W        W 9072   5.989  10.539  10.099  0.0367  0.1628 -0.0460
 5009W        W 9073   7.763   2.850   8.783 -0.0493 -0.1183 -0.0041
 5010W        W 9074  10.555   6.628  10.007 -0.0888  0.3203  0.0122
 5011W        W 9075   9.503   8.131   0.612  0.3628 -0.0782  0.1431
 5012W        W 9076   2.900   6.057  10.814  0.3426  0.2556 -0.0990
 5013W        W 9077   9.853   8.453   1.210 -0.3200 -0.1703 -0.1946
 5014W        W 9078   9.676   3.045   7.928  0.2513  0.0428  0.4685
 5015W        W 9079   1.846   5.480   0.558 -0.1160 -0.0658  0.1053
 5016W        W 9080   0.669   6.780   8.331  0.1198  0.2844  0.0118
 5017W        W 9081   5.814   5.082  10.168 -0.2614  0.0580 -0.0765
 5018W        W 9082  10.247   5.369   7.575 -0.2602  0.0203 -0.2049
 5019W        W 9083   3.273   5.058   3.770 -0.1222  0.0827  0.0614
 5020W        W 9084   1.180   8.953   9.852 -0.1067  0.1876 -0.0950
 5021W        W 9085   8.798   1.486   9.846  0.1412 -0.2238 -0.0778
 5022W        W 9086   1.226   9.614   2.686  0.1228  0.1198  0.1542
 5023W        W 9087   5.657   3.675   2.083 -0.1309 -0.0940 -0.2653
 5024W        W 9088   2.737   6.107   2.132  0.0309 -0.1954  0.1392
 5025W        W 9089   3.428   4.180   2.660 -0.1788 -0.2052 -0.0737
 5026W        W 9090   1.853   0.398   1.374 -0.3354 -0.0428 -0.0822
 5027W        W 9091   0.578   9.637   7.521 -0.1632  0.1081  0.3423
 5028W        W 9092  10.894   4.563  10.748 -0.1378  0.0059 -0.2516
 5029W        W 9093   9.486   1.640   1.768  0.0412  0.2211  0.3666
 5030W        W 9094   4.833   1.967  10.426 -0.0506 -0.0802 -0.1499
 5031W        W 9095   3.487   0.007   1.068  0.0295  0.0759 -0.1112
 5032W        W 9096   0.059   6.713   0.104 -0.2004  0.0850  0.0636
 5033W        W 9097   2.369   1.499   7.283  0.1602  0.1319 -0.6598
 5034W        W 9098   5.516   9.636   0.653  0.1781  0.0815  0.2572
 5035W        W 9099   0.550   5.007   8.604 -0.0560  0.0541  0.0878
 5036W        W 9100   1.273   7.637   3.009 -0.4327 -0.2018 -0.0175
 5037W        W 9101   3.625   3.745   2.699 -0.2750  0.2033 -0.2681
 5038W        W 9102   4.718   3.544   9.797  0.2295 -0.3611  0.3436
 5039W        W 9103   5.116   4.206   8.080 -0.3486 -0.1828  0.3913
 5040W        W 9104   0.099   1.588   2.981 -0.2406  0.0588  0.0311
 5041W        W 9105   9.765   0.293   3.170 -0.0268 -0.1352  0.2574
 5042W        W 9106   3.114   2.256   9.341  0.2577 -0.2517 -0.2528
 5043W        W 9107   5.412  10.152   2.324  0.0612 -0.1259  0.0759
 5044W        W 9108   3.344   3.382   7.835 -0.0244 -0.0741 -0.0841
 5045W        W 9109   3.309   3.123   0.716  0.2898 -0.0741  0.3568
 5046W        W 9110   4.190  10.570   8.207  0.1406 -0.0249  0.0261
 5047W        W 9111   0.557   0.691   9.186  0.0209 -0.0322 -0.3424
 5048W        W 9112  10.691   3.911   0.389  0.0657  0.4630  0.2666
 5049W        W 9113   6.033   3.892   8.953 -0.0504  0.0237 -0.0499
 5050W        W 9114   0.925   5.259   1.235 -0.1762 -0.0266  0.2039
 5051W        W 9115   3.675   0.739  10.946  0.0750  0.0305  0.3137
 5052W        W 9116   1.528  10.332   2.877 -0.1104 -0.0198  0.2532
 5053W        W 9117   4.170   1.225   9.800  0.4705 -0.0959 -0.4121
 5054W        W 9118   7.030  10.395   1.293 -0.1650  0.1604 -0.2002
 5055W        W 9119   8.783   6.738   1.922  0.1561  0.0598  0.1548
 5056W        W 9120   0.918   8.297   9.947  0.1207 -0.3234  0.2047
 5057W        W 9121   7.615  10.759   2.752 -0.0837 -0.0061 -0.1082
 5058W        W 9122   6.356   5.126   0.515  0.1281  0.0158 -0.1203
 5059W        W 9123   7.616   8.288   8.597 -0.0677  0.0224 -0.3128
 5060W        W 9124   0.594  10.428  10.300  0.0925 -0.0538  0.0723
 5061W        W 9125   4.787   5.892   9.094  0.0328 -0.1795 -0.3603
 5062W        W 9126   0.054   4.449   7.962  0.0276 -0.0074  0.0364
 5063W        W 9127   3.478   8.687   3.937  0.0934 -0.0169  0.1014
 5064W        W 9128   4.692  10.460   7.916  0.3402  0.2241  0.0112
 5065W        W 9129   7.812   1.651   8.736 -0.1273 -0.0907 -0.1153
 5066W        W 9130   6.839   5.152   3.187 -0.1196 -0.2710 -0.0150
 5067W        W 9131   2.566  10.447   0.079  0.0002 -0.1409  0.4469
 5068W        W 9132   5.342   0.792   0.616  0.4298  0.1034  0.2168
 5069W        W 9133   6.757   8.554   3.149  0.2001  0.2368 -0.3429
 5070W        W 9134   5.015   9.797   1.188  0.0645  0.2161 -0.1530
 5071W        W 9135   3.871   5.200   9.988  0.2806 -0.0497  0.1209
 5072W        W 9136   2.377   5.847   2.385 -0.0874  0.3006  0.4152
 5073W        W 9137   0.324   9.888   8.027 -0.2443  0.2182  0.0799
 5074W        W 9138   0.876   5.481   1.657 -0.2505  0.0330 -0.0737
 5075W        W 9139   8.672   2.895   2.703 -0.1014  0.2650 -0.2333
 5076W        W 9140   3.459   1.878  11.048 -0.0290  0.2917 -0.0943
 5077W        W 9141   2.069   8.340   0.705 -0.2995 -0.0857  0.3046
 5078W        W 9142   8.651  10.518   0.952 -0.0761 -0.2322 -0.0313
 5079W        W 9143   0.660   9.877   2.470  0.4111  0.1906 -0.0524
 5080W        W 9144   3.170  10.794   9.237  0.2485  0.2964  0.0066
 5081W        W 9145   7.434   4.483   2.128 -0.0002 -0.0693  0.2662
 5082W        W 9146   1.271  10.821   7.369 -0.1082 -0.5032 -0.0621
 5083W        W 9147   4.866   5.688   8.446 -0.1740  0.3406  0.2124
 5084W        W 9148   0.675   0.624   0.081 -0.0315  0.2460 -0.0703
 5085W        W 9149   6.153   9.372   9.302  0.6078  0.0009  0.0158
 5086W        W 9150   6.094  10.341   9.034  0.0647  0.2197 -0.1913
 5087W        W 9151   9.024   6.946  10.676 -0.1097 -0.1064  0.4291
 5088W        W 9152   8.172   1.443   9.118 -0.3322  0.0123  0.1586
 5089W        W 9153   1.417   3.493   4.185 -0.1375 -0.1729 -0.0276
 5090W        W 9154   5.088   1.127   9.610 -0.0921 -0.2849 -0.1525
 5091W        W 9155   0.683   3.781  10.784 -0.1288  0.1000 -0.2220
 5092W        W 9156   6.732   6.335   2.541 -0.2467 -0.1804 -0.3151
 5093W        W 9157   6.581   6.575   9.613  0.2485 -0.1579  0.2156
 5094W        W 9158   6.322   7.169   3.737 -0.2780  0.0128  0.2342
 5095W        W 9159   1.766   5.219   2.011 -0.0041  0.0604 -0.3631
 5096W        W 9160   6.976   0.934   0.737 -0.1524  0.1527 -0.2627
 5097W        W 9161   9.643   4.757   1.776 -0.1489  0.1153 -0.3024
 5098W        W 9162   5.014   2.123  10.876  0.0532  0.0151 -0.0876
 5099W        W 9163   7.439   7.680   1.384 -0.1313 -0.0326  0.1232
 5100W        W 9164   3.167   8.691   3.514  0.0254 -0.0550  0.3812
 5101W        W 9165   6.450   0.562   1.680 -0.0457  0.1368  0.1792
 5102W        W 9166   1.790   7.428   2.861 -0.2370 -0.3537 -0.0051
 5103W        W 9167   0.682   6.025   2.836  0.0448  0.1117 -0.2960
 5104W        W 9168   3.871   2.535  10.014  0.0182  0.1862  0.0289
 5105W        W 9169  10.670   3.922   9.746 -0.2627  0.0668 -0.1329
 5106W        W 9170   3.335   2.341  10.940 -0.1351  0.1107  0.1370
 5107W        W 9171   3.898  10.877   3.716  0.0256 -0.1261 -0.1330
 5108W        W 9172   4.329   3.051   1.957  0.3067 -0.1245  0.0125
 5109W        W 9173   4.833   5.859   1.125  0.2225 -0.3431 -0.0816
 5110W        W 9174   1.699   1.844  10.644 -0.1399 -0.1466  0.1605
 5111W        W 9175   9.824  10.745  10.036  0.0314  0.6465  0.0004
 5112W        W 9176   7.557   8.434  10.100 -0.2224 -0.0942  0.0366
 5113W        W 9177   6.342   9.601  10.712  0.3942  0.2055 -0.1272
 5114W        W 9178   7.229   8.762   0.906  0.0466  0.0293  0.1262
 5115W        W 9179   2.335   7.561   8.351  0.0780  0.1813  0.2547
 5116W        W 9180   0.990   6.441   2.334  0.2497 -0.2638  0.0553
 5117W        W 9181   4.852   3.069  10.771 -0.2044 -0.2151 -0.0270
 5118W        W 9182   9.444   1.671   2.992  0.1008 -0.1811  0.1813
 5119W        W 9183   4.516   1.845   0.180  0.2967 -0.1160 -0.0469
 5120W        W 9184   9.165   7.378  10.850 -0.1868 -0.0825  0.2067
 5121W        W 9185   4.434   2.211   8.566  0.2121 -0.2118  0.0839
 5122W        W 9186   9.393   0.806  10.031  0.0697  0.0573 -0.1049
 5123W        W 9187   5.307   6.539   0.521  0.0196 -0.0348  0.2018
 5124W        W 9188   1.679   2.508   1.457  0.4664 -0.0864 -0.0732
 5125W        W 9189   4.757   9.282   4.106  0.1355 -0.1141  0.0440
 5126W        W 9190   3.235   9.660   3.802 -0.0268 -0.3108 -0.0740
 5127W        W 9191   5.786   8.003   2.086  0.0732 -0.2060 -0.3464
 5128W        W 9192   7.024   2.910   0.069  0.0116  0.3538  0.0359
 5129W        W 9193  10.271   9.521   3.236 -0.2507  0.2648  0.0785
 5130W        W 9194  10.754  10.603   9.530  0.1450 -0.0973 -0.1494
 5131W        W 9195  10.529   9.641   2.430 -0.1099 -0.1171 -0.3107
 5132W        W 9196   7.168   4.819  10.048 -0.0934 -0.2930 -0.0599
 5133W        W 9197   8.280   7.639   0.523  0.0811 -0.2028 -0.1620
 5134W        W 9198   8.548   0.107   8.588  0.1216  0.0478  0.0345
 5135W        W 9199   3.831   7.043   7.766 -0.1512 -0.0132 -0.0388
 5136W        W 9200   1.179   0.110   2.239 -0.0405  0.0701 -0.0928
 5137W        W 9201   8.497   2.887   8.685  0.1107  0.3851 -0.2179
 5138W        W 9202   2.787   1.690  10.667  0.2553  0.0714 -0.1716
 5139W        W 9203   3.250   1.312   2.802 -0.4213  0.0218 -0.0334
 5140W        W 9204   7.921   3.148   2.937  0.3652  0.3242 -0.0888
 5141W        W 9205   5.651   6.163  10.844  0.0222 -0.1212  0.3458
 5142W        W 9206   3.734   1.525   2.647 -0.0885  0.0239 -0.2172
 5143W        W 9207   7.270   9.533   8.200  0.1444  0.0478 -0.0624
 5144W        W 9208   7.731   0.216   0.934  0.0139 -0.1153  0.1434
 5145W        W 9209   8.197   9.170   3.130  0.3486  0.1744  0.0413
 5146W        W 9210  10.526   5.589  10.785  0.2685 -0.2144  0.2102
 5147W        W 9211   7.475   4.328  10.069  0.0805  0.1788  0.3258
 5148W        W 9212   6.784   3.344   0.072  0.2677  0.0733  0.0788
 5149W        W 9213   0.266   2.059  10.153  0.0220  0.1653  0.4411
 5150W        W 9214   0.194  10.218   8.884  0.1020 -0.2528 -0.3762
 5151W        W 9215   3.318   6.118  11.061  0.0188  0.1870  0.0558
 5152W        W 9216   3.194   4.854   1.201  0.2620 -0.1050  0.1905
 5153W        W 9217   1.880   3.283   2.537  0.1947  0.1242  0.0166
 5154W        W 9218   2.881   3.959   9.184 -0.1555 -0.1098 -0.3651
 5155W        W 9219   2.844   1.799   9.513  0.0400 -0.2461  0.0245
 5156W        W 9220   8.467   8.957   0.415  0.1361 -0.1932 -0.0608
 5157W        W 9221   9.146   7.379   9.731 -0.0731  0.0840  0.3159
 5158W        W 9222  10.097  10.535   1.563  0.1336 -0.1742 -0.1872
 5159W        W 9223   7.195   4.506   1.444 -0.0802 -0.1187 -0.1265
 5160W        W 9224   4.595   6.231   9.463 -0.1743 -0.0048  0.2787
 5161W        W 9225   1.132   7.628   1.647 -0.0338  0.2769 -0.0983
 5162W        W 9226  10.719   4.330   0.611  0.1141 -0.3509 -0.1175
 5163W        W 9227   5.318   2.231   7.680  0.2641  0.1194  0.1214
 5164W        W 9228   8.672   1.124   0.034  0.0842  0.1672 -0.0649
 5165W        W 9229   3.807   4.546   7.246  0.0148  0.0274 -0.0025
 5166W        W 9230   1.278   8.192   2.294 -0.1919 -0.4313  0.1530
 5167W        W 9231  10.574   8.083   8.919  0.2621 -0.1501 -0.0759
 5168W        W 9232   7.488   5.842   0.238  0.4424 -0.3436  0.2352
 5169W        W 9233   6.930   0.559   1.185  0.3993  0.1134 -0.0547
 5170W        W 9234   2.033   0.174   3.997 -0.2739 -0.1380 -0.0201
 5171W        W 9235   8.165   3.539  10.046  0.2002 -0.0888  0.2606
 5172W        W 9236   3.387   4.000   8.945  0.0217  0.1963 -0.0628
 5173W        W 9237   0.741   4.052   7.960 -0.2375 -0.3887 -0.0085
 5174W        W 9238   5.311   1.789  10.218 -0.1649  0.1092 -0.0722
 5175W        W 9239   6.383   7.549   0.596 -0.2316 -0.2612  0.1488
 5176W        W 9240  10.604   2.716   2.444  0.1245  0.0586  0.1474
 5177W        W 9241   6.159  10.722  10.619  0.4528  0.3335 -0.3377
 5178W        W 9242   9.742   6.845   9.437 -0.0045  0.1289 -0.2746
 5179W        W 9243   1.144   2.790   2.165 -0.1579  0.0653  0.3461
 5180W        W 9244   0.359   8.286   2.378 -0.0973 -0.0307 -0.1643
 5181W        W 9245   0.913   0.316  10.509  0.2363 -0.2473 -0.0619
 5182W        W 9246   0.353   3.809   2.781 -0.0320 -0.3986 -0.0486
 5183W        W 9247  10.053   0.129   1.833  0.3327 -0.2043  0.0621
 5184W        W 9248   5.076   6.782   2.032 -0.0618  0.2130  0.1134
 5185W        W 9249   4.782   3.506   0.086 -0.0301 -0.0304  0.3660
 5186W        W 9250   0.436   4.432  10.231  0.2612 -0.0571 -0.0431
 5187W        W 9251   6.406   9.246   8.767 -0.0316 -0.0202 -0.0558
 5188W        W 9252   5.492   3.391   8.130  0.0116 -0.0533 -0.2105
 5189W        W 9253   0.708   4.053   3.034  0.1400 -0.2124 -0.0202
 5190W        W 9254   8.745   7.667   0.687  0.0100 -0.2516 -0.3148
 5191W        W 9255   2.675   2.105   9.126  0.0178 -0.0988 -0.1237
 5192W        W 9256   7.550   3.433   3.684  0.1505  0.0816  0.3215
 5193W        W 9257   1.846   5.121   8.788  0.1891 -0.2562  0.0733
 5194W        W 9258   3.460   9.216   3.417 -0.0839 -0.2494  0.1773
 5195W        W 9259   8.697   8.176   2.457 -0.3324 -0.0062  0.0490
 5196W        W 9260   7.048   1.921   7.384 -0.1528  0.1474 -0.1371
 5197W        W 9261   9.400   4.267   2.853  0.1772 -0.0787  0.0142
 5198W        W 9262   8.341   5.846   3.047 -0.0182  0.1099  0.2654
 5199W        W 9263   6.515   7.119   9.870  0.1256 -0.0963 -0.4082
 5200W        W 9264   6.013   7.645   2.940 -0.2382  0.0915  0.1806
 5201W        W 9265   0.604  10.237  10.757  0.1420 -0.0967  0.3596
 5202W        W 9266   1.172   5.966   0.177 -0.3526  0.0233 -0.3548
 5203W        W 9267   5.064   4.062   2.841  0.2227 -0.1297  0.0354
 5204W        W 9268   3.139  10.684   2.326 -0.1574  0.0881  0.0287
 5205W        W 9269   9.553   8.604   1.601 -0.1080  0.1992  0.1662
 5206W        W 9270   4.092   3.063   1.472 -0.1648 -0.2459 -0.1159
 5207W        W 9271   4.481  10.115   2.582 -0.1127  0.0962 -0.0324
 5208W        W 9272   6.424   5.425   6.727 -0.0796 -0.3627 -0.2779
 5209W        W 9273   8.570   4.596   1.923 -0.3184 -0.1090  0.1202
 5210W        W 9274   1.585   2.796   2.916 -0.1690 -0.1993  0.2825
 5211W        W 9275  10.890   9.483  10.148 -0.1069  0.3249  0.1669
 5212W        W 9276   3.713   2.813  10.807  0.1304 -0.1619  0.2197
 5213W        W 9277   4.447   3.175  10.162 -0.2183 -0.0931  0.4309
 5214W        W 9278   1.122   9.628   1.213  0.0423 -0.1416 -0.2570
 5215W        W 9279   4.272   5.293   0.687 -0.2325 -0.1010  0.0841
 5216W        W 9280   6.424   8.891   2.948 -0.0573  0.1292 -0.0710
 5217W        W 9281   9.763   9.922   2.657  0.0849  0.1085  0.0038
 5218W        W 9282   1.422   7.679   2.470  0.0099  0.0301 -0.1028
 5219W        W 9283   4.854   3.280   1.615  0.2953 -0.4644 -0.1225
 5220W        W 9284   2.873   7.220  10.879  0.2871  0.0043 -0.0967
 5221W        W 9285   6.946   4.543  10.983  0.5559 -0.2755  0.1063
 5222W        W 9286   9.144   1.043   8.985  0.0581  0.0402  0.0957
 5223W        W 9287   9.239  10.529   9.450 -0.0014 -0.0545 -0.1934
 5224W        W 9288   3.913   3.762   0.605 -0.0944  0.0767 -0.0807
 5225W        W 9289   2.157   0.099   0.601  0.1413  0.0635  0.0497
 5226W        W 9290   0.919   4.824   0.076 -0.1395 -0.0039 -0.0902
 5227W        W 9291   2.873   8.499   1.933  0.1745  0.0059 -0.1746
 5228W        W 9292   2.031   3.083   7.774  0.0444  0.1349 -0.2642
 5229W        W 9293   4.555   3.816   2.909  0.2804  0.1047 -0.0762
 5230W        W 9294   4.185   5.248  10.401 -0.1824 -0.0063 -0.0815
 5231W        W 9295   5.014   8.824   1.377 -0.0038  0.0503 -0.0021
 5232W        W 9296   5.136   1.677   1.839  0.2697  0.0872 -0.2603
 5233W        W 9297   9.626   9.153   8.106  0.2051  0.1202 -0.1429
 5234W        W 9298   9.241   5.048   0.979 -0.1689  0.0774 -0.4220
 5235W        W 9299   2.620   7.852   1.293 -0.0005  0.1995  0.1958
 5236W        W 9300   0.621   9.486   8.004 -0.2039 -0.0984 -0.2240
 5237W        W 9301   8.386   8.728   2.363  0.1915 -0.0717 -0.3558
 5238W        W 9302   8.306   3.697   3.132  0.1113 -0.0676 -0.1310
 5239W        W 9303   5.512   9.089   8.572  0.1074  0.0819  0.0473
 5240W        W 9304   6.678   2.561   2.519  0.0966 -0.0977  0.0388
 5241W        W 9305   7.008   9.533   1.148  0.0572 -0.0629 -0.4220
 5242W        W 9306   3.010   7.851   9.258 -0.2104  0.1623  0.2486
 5243W        W 9307   9.168   6.100   9.642  0.3339 -0.1773  0.0977
 5244W        W 9308  10.135   7.077   8.333  0.0983 -0.2032  0.2062
 5245W        W 9309   4.052   3.758  10.859 -0.0549  0.3355 -0.0651
 5246W        W 9310   7.032   1.057  10.362 -0.0782 -0.0650  0.0308
 5247W        W 9311   5.420   8.292   9.235 -0.3742 -0.1567 -0.1511
 5248W        W 9312   8.597   3.207   3.449  0.0504  0.2967  0.0442
 5249W        W 9313   1.807   1.859   9.448  0.0859 -0.1897  0.3200
 5250W        W 9314   1.443   6.196   1.813 -0.1815 -0.2298 -0.2482
 5251W        W 9315  10.675   0.880   0.732  0.3127  0.0118 -0.0013
 5252W        W 9316   0.163   8.016   8.777  0.0469  0.0088 -0.1587
 5253W        W 9317   0.469   8.785   9.169  0.3572 -0.2748 -0.0514
 5254W        W 9318   9.153   8.198   9.352  0.0745  0.0569 -0.2370
 5255W        W 9319   6.826   8.043   3.130  0.0153 -0.0479 -0.0222
 5256W        W 9320   5.772   6.954   9.627  0.1758 -0.0778 -0.0971
 5257W        W 9321  10.843   2.186  10.999  0.2761  0.0856  0.0987
 5258W        W 9322   4.304   6.647   9.663  0.1342 -0.0324  0.2462
 5259W        W 9323   8.227   9.266   1.804 -0.3305 -0.0611 -0.0266
 5260W        W 9324  10.628  10.178   8.699 -0.0858 -0.0866  0.2872
 5261W        W 9325   1.765  10.685   0.614 -0.0765 -0.2135  0.0711
 5262W        W 9326  10.284   4.112   1.376  0.0707 -0.0140 -0.3481
 5263W        W 9327   6.361   0.855   8.864  0.0142  0.0521  0.1618
 5264W        W 9328   9.089   0.219   3.915 -0.0426 -0.3538 -0.1607
 5265W        W 9329   8.707   6.552  10.611 -0.2337  0.3775  0.0179
 5266W        W 9330   5.961   5.128   9.182  0.2105 -0.0207 -0.2523
 5267W        W 9331   1.037   3.494   2.901  0.2032  0.0891  0.1169
 5268W        W 9332   0.681   3.101   3.138 -0.1023 -0.3197  0.2638
 5269W        W 9333   4.717   6.227   3.035 -0.1521  0.2389 -0.3004
 5270W        W 9334   6.694  10.045  10.397  0.0805 -0.3686 -0.0854
 5271W        W 9335   4.192   8.706   1.629 -0.1447 -0.0121 -0.1439
 5272W        W 9336   0.102   3.517   9.519 -0.1568  0.1187 -0.1550
 5273W        W 9337   8.696   4.077   1.215 -0.0561 -0.1056  0.1410
 5274W        W 9338   9.432   5.397   7.698  0.0198 -0.0425  0.1988
 5275W        W 9339   6.904   7.803   7.276 -0.1977  0.3548  0.0966
 5276W        W 9340   4.849   0.354   0.824  0.3298  0.2248  0.0256
 5277W        W 9341   5.527   1.269   1.888 -0.1437  0.0370 -0.3163
 5278W        W 9342   9.482   8.911   1.200  0.1520 -0.2269  0.0878
 5279W        W 9343   7.067   8.268   0.997 -0.3507  0.1402 -0.0467
 5280W        W 9344   5.704   7.624   0.537 -0.0407 -0.0903  0.0436
 5281W        W 9345   4.078   3.945   2.821  0.1029 -0.0977 -0.1293
 5282W        W 9346   6.197   5.494   7.263  0.2232 -0.2688  0.2085
 5283W        W 9347   4.129   0.166   2.290  0.1231  0.0394  0.1384
 5284W        W 9348   7.854   1.598  10.701  0.1285 -0.0483 -0.1140
 5285W        W 9349   5.553   9.214   0.887 -0.2448 -0.0392  0.0251
 5286W        W 9350   9.361   5.687   3.014 -0.0666  0.0294 -0.2089
 5287W        W 9351   2.021   4.816   0.876  0.0690 -0.2438  0.1221
 5288W        W 9352   9.540   7.948   7.486 -0.1639  0.3745 -0.0000
 5289W        W 9353   9.074   9.237   1.750  0.0009 -0.0655 -0.1244
 5290W        W 9354   3.867   3.100   8.921  0.2416 -0.3443  0.1854
 5291W        W 9355   4.884   2.289   2.713 -0.8767  0.0072 -0.0093
 5292W        W 9356  10.227   9.812   2.813 -0.0793  0.0021  0.1350
 5293W        W 9357   9.100   5.511   9.052 -0.0224 -0.0875  0.0524
 5294W        W 9358   2.133   7.181   3.722 -0.0350 -0.1254 -0.1613
 5295W        W 9359   2.086   0.606   9.676 -0.0698  0.4134 -0.1553
 5296W        W 9360   1.518   9.859   7.685 -0.1200  0.0161  0.0161
 5297W        W 9361   4.315  10.347   7.218  0.0603  0.4835  0.0939
 5298W        W 9362   3.328   0.996   9.773 -0.1391  0.4704 -0.2666
 5299W        W 9363   8.904   0.982   2.472  0.0485  0.2042  0.3315
 5300W        W 9364   4.156   5.103   2.312 -0.0848  0.0803 -0.2317
 5301W        W 9365   6.820   0.978   1.766 -0.1573  0.3610  0.3382
 5302W        W 9366   6.031   7.584   1.684 -0.0880  0.2051 -0.2602
 5303W        W 9367   1.369   0.527  10.309  0.0706 -0.3123 -0.2942
 5304W        W 9368   2.008   2.671  10.701 -0.1944 -0.0230  0.3099
 5305W        W 9369   2.490   8.509   9.676 -0.2122 -0.2616  0.0025
 5306W        W 9370   6.276   8.331   8.108 -0.0333 -0.1169 -0.0605
 5307W        W 9371   7.176   5.313   3.532  0.0938  0.1262 -0.2887
 5308W        W 9372   2.734   9.673   8.764  0.1195 -0.2170 -0.1614
 5309W        W 9373   1.680   7.470   9.475  0.0617  0.2218 -0.0422
 5310W        W 9374   7.773   0.535   0.563 -0.0444 -0.0810  0.3016
 5311W        W 9375   9.462   6.063  10.036 -0.1890  0.4405  0.0481
 5312W        W 9376   8.623   2.675   3.282 -0.1867  0.1159  0.0366
 5313W        W 9377   4.076   9.368   9.180 -0.2079  0.1142 -0.1153
 5314W        W 9378   9.855   1.602   0.515 -0.0509 -0.0469 -0.2481
 5315W        W 9379   5.044   5.364   1.880  0.0345 -0.2692  0.0030
 5316W        W 9380   2.491   5.138   8.688 -0.1075 -0.2664 -0.0184
 5317W        W 9381   7.509  10.673   0.054 -0.0487 -0.0249 -0.3278
 5318W        W 9382   8.270   9.692   0.917  0.1215  0.3925  0.4849
 5319W        W 9383   7.349   1.619   9.624  0.0159  0.4226  0.1787
 5320W        W 9384   5.579   1.492   3.402 -0.1251 -0.1654 -0.2377
 5321W        W 9385   1.809   9.446   2.475  0.0126  0.1320  0.2015
 5322W        W 9386   9.376   8.567   0.302 -0.3300  0.0684  0.1806
 5323W        W 9387   7.107   1.422   9.216 -0.0066  0.0302  0.1900
 5324W        W 9388   8.335  10.129   2.069 -0.0516  0.2457  0.3580
 5325W        W 9389  10.784   2.938   9.540  0.1025 -0.0403 -0.0985
 5326W        W 9390   1.532   8.969  10.379 -0.1168  0.2169  0.0703
 5327W        W 9391   7.380  10.613   8.314 -0.0468 -0.1999 -0.1155
 5328W        W 9392   9.781  10.301  10.367 -0.0487 -0.2497 -0.0236
 5329W        W 9393   6.307   5.358   8.294 -0.3155 -0.1201  0.1789
 5330W        W 9394   8.929   7.372   2.977  0.3418  0.1189 -0.1916
 5331W        W 9395   8.085   6.645   2.822  0.1567 -0.0249  0.0169
 5332W        W 9396   5.040   9.735  10.139 -0.1639 -0.1151  0.0736
 5333W        W 9397   5.806   1.166   8.238  0.1846  0.0638  0.2222
 5334W        W 9398   2.033   0.797   8.518  0.2244  0.0656 -0.0275
 5335W        W 9399   4.013   2.247   9.345 -0.0412  0.1228  0.1612
 5336W        W 9400   1.188  10.400   3.304 -0.0356 -0.0649 -0.0420
 5337W        W 9401   0.445  10.327   1.499  0.1253  0.0022  0.3437
 5338W        W 9402   8.950   6.113   0.054 -0.1189 -0.2615 -0.0004
 5339W        W 9403   0.686   2.853   7.792 -0.5315 -0.3935 -0.1741
 5340W        W 9404   0.470   0.948   8.729  0.1427  0.1037  0.2455
 5341W        W 9405   2.559   7.562   0.054 -0.0382  0.0018 -0.0395
 5342W        W 9406   8.681   9.057   0.873 -0.0488 -0.0096  0.2324
 5343W        W 9407   9.629   0.217   0.377  0.0362  0.2023  0.3174
 5344W        W 9408   7.812   4.597   2.826 -0.3038 -0.1270 -0.0377
 5345W        W 9409   8.052  10.486   2.951 -0.0675 -0.0249  0.1355
 5346W        W 9410   5.338   0.325   2.728  0.0519  0.2168  0.2147
 5347W        W 9411   5.896   5.753   2.146 -0.3214  0.0734  0.1253
 5348W        W 9412   2.115   1.961   7.427 -0.0693  0.1363  0.1494
 5349W        W 9413   9.253  10.255   7.600 -0.0340  0.3181 -0.2279
 5350W        W 9414   8.478   8.221  10.244  0.2835  0.0664 -0.2933
 5351W        W 9415   2.143   9.740   0.420 -0.1894 -0.0323 -0.1221
 5352W        W 9416   7.826   2.202   0.976 -0.2073  0.0995 -0.2889
 5353W        W 9417   2.563   1.188   3.566 -0.3040  0.0552  0.3051
 5354W        W 9418   0.539   0.402   1.167  0.1135 -0.0664  0.1647
 5355W        W 9419   6.016   4.812  10.781  0.0084 -0.0853 -0.0903
 5356W        W 9420  10.870   0.104   2.627  0.1613  0.3406  0.0440
 5357W        W 9421   9.317   2.842   7.548 -0.1416  0.2032 -0.2008
 5358W        W 9422   5.357   1.313  10.006 -0.0431  0.2558 -0.1236
 5359W        W 9423   6.954   1.898   9.232 -0.1070  0.2984  0.2768
 5360W        W 9424   6.171   2.117   9.038  0.1742  0.0345  0.1863
 5361W        W 9425   0.986   1.622   9.329  0.2114  0.0860  0.3755
 5362W        W 9426   5.957   3.951   9.453  0.1985  0.1137  0.0424
 5363W        W 9427   0.407   3.324   2.122  0.0195  0.0683 -0.0634
 5364W        W 9428   0.729   0.592   7.809  0.0837  0.1727 -0.5346
 5365W        W 9429   7.522   7.335  10.364  0.2004 -0.1834 -0.2012
 5366W        W 9430   3.677   7.221  10.154 -0.1215  0.1226 -0.0521
 5367W        W 9431   9.174   8.718  10.824 -0.1549 -0.1295  0.1662
 5368W        W 9432   5.693   7.350   9.225 -0.1646  0.2687  0.1962
 5369W        W 9433   6.786   5.820   2.287  0.0811 -0.3722  0.1816
 5370W        W 9434   3.339   7.929   9.629  0.3597  0.3185 -0.3186
 5371W        W 9435   2.351   6.808   8.016  0.2040  0.0764  0.0924
 5372W        W 9436   1.777   2.644   9.058  0.0120 -0.0221 -0.0186
 5373W        W 9437   2.927   6.659  10.723 -0.1991  0.1458  0.0883
 5374W        W 9438   6.808  10.420   2.322  0.4152 -0.0214 -0.1437
 5375W        W 9439   9.307   5.245  10.856 -0.0302  0.0111  0.0018
 5376W        W 9440   8.841   9.867   0.224  0.2789  0.0971  0.0249
 5377W        W 9441   3.220   1.797   2.541  0.2935  0.2710  0.3630
 5378W        W 9442  10.705   4.146  10.956 -0.2236  0.0189 -0.1797
 5379W        W 9443   9.991   2.624   8.113  0.2744  0.0241 -0.1415
 5380W        W 9444   8.370   7.503  11.059  0.0449  0.2875 -0.1853
 5381W        W 9445   5.060   5.129   0.703 -0.2918  0.2462  0.0781
 5382W        W 9446   6.640   3.903   2.765 -0.3210  0.0132 -0.1874
 5383W        W 9447   9.624   6.947   2.490  0.2394  0.1349 -0.0796
 5384W        W 9448   1.556   4.010   7.751 -0.0814  0.1407 -0.1251
 5385W        W 9449   9.264   3.281   1.138  0.2128 -0.1834  0.2939
 5386W        W 9450   9.246   9.944   9.789  0.3756  0.0823 -0.0514
 5387W        W 9451   8.873   2.247   0.937  0.1452  0.0223 -0.5215
 5388W        W 9452   7.717   6.874   9.839 -0.3295  0.0254  0.4034
 5389W        W 9453   3.155   4.939   0.675 -0.1154  0.0593 -0.1631
 5390W        W 9454   3.596   0.563   2.455 -0.0236  0.1105 -0.0586
 5391W        W 9455   7.334   2.697   3.016  0.0194  0.0936 -0.1142
 5392W        W 9456   9.970   9.723   1.646 -0.0008  0.0514 -0.1479
 5393W        W 9457   8.370   2.331   1.107 -0.2077 -0.2276 -0.0344
 5394W        W 9458   3.058   3.165   3.198 -0.3932 -0.4826 -0.0813
 5395W        W 9459   4.713   1.075   1.183 -0.0846  0.1339 -0.1349
 5396W        W 9460   9.874  10.741  10.605 -0.1924 -0.2806 -0.1749
 5397W        W 9461   4.603   0.608   9.210 -0.3590 -0.1164 -0.0797
 5398W        W 9462   7.429   5.065   1.372 -0.2015  0.2221  0.0910
 5399W        W 9463  10.345   5.493   0.194 -0.0753  0.0897 -0.0085
 5400W        W 9464   5.768   1.144  11.019 -0.0620 -0.1565 -0.0383
 5401W        W 9465   2.098   3.896  10.180 -0.3717 -0.1256  0.0698
 5402W        W 9466   6.035   1.870   9.801 -0.1915 -0.0447  0.1254
 5403W        W 9467   0.392   0.377  10.801  0.5242 -0.3612 -0.0361
 5404W        W 9468   6.556   8.352   9.111 -0.0466 -0.0012  0.2072
 5405W        W 9469   5.145  10.351   2.925  0.0012 -0.2352  0.0175
 5406W        W 9470   5.823   0.039   0.806 -0.0957 -0.0681  0.0045
 5407W        W 9471   8.212   3.536   9.282 -0.2788 -0.1544  0.1879
 5408W        W 9472   0.724   4.640   8.889 -0.0665 -0.0582  0.1294
 5409W        W 9473   3.438  10.460   3.311  0.2806  0.2694 -0.1908
 5410W        W 9474   0.245   9.090   2.334  0.0530 -0.1380  0.1675
 5411W        W 9475   7.223   6.922   8.972  0.0314  0.0694  0.1243
 5412W        W 9476   1.181   6.943  10.052  0.0590  0.3511  0.0507
 5413W        W 9477   5.421   0.578   8.106  0.2386 -0.2397  0.0765
 5414W        W 9478   1.117   9.219   0.660  0.0277 -0.1389  0.0479
 5415W        W 9479  10.577   3.908   2.411  0.0931  0.0070 -0.3255
 5416W        W 9480   3.723   8.617   1.638  0.1503 -0.3678 -0.0074
 5417W        W 9481   6.224   4.867   0.155  0.1205 -0.0548  0.2314
 5418W        W 9482   0.178   4.432   1.012 -0.1261 -0.1291 -0.2130
 5419W        W 9483   3.553   6.384   0.490  0.0263  0.1525  0.0142
 5420W        W 9484   8.191   6.401   8.228 -0.0873 -0.0194 -0.1261
 5421W        W 9485   0.772   5.533   9.226  0.0685 -0.1161  0.2640
 5422W        W 9486  10.817   5.560   3.057 -0.0044 -0.1886 -0.1215
 5423W        W 9487   6.675   4.422   8.878  0.1289 -0.3973  0.1264
 5424W        W 9488   8.373   8.508   0.171  0.2018 -0.1446  0.0557
 5425W        W 9489   2.700   8.317   1.078 -0.1322  0.0482 -0.0220
 5426W        W 9490  10.646   6.142   7.660 -0.0950 -0.1063  0.1399
 5427W        W 9491   5.504   7.020   1.788  0.0732 -0.1656 -0.1992
 5428W        W 9492   4.357   0.310   8.850 -0.0551  0.1347  0.1747
 5429W        W 9493   6.546   0.833  10.493 -0.1710 -0.0265 -0.0447
 5430W        W 9494   5.949  10.523   3.137  0.0695  0.1040  0.2130
 5431W        W 9495   4.191   8.613   9.963  0.1726  0.1837  0.0779
 5432W        W 9496   3.786   3.529   7.608  0.0395  0.1080 -0.2658
 5433W        W 9497   2.522   7.772   7.944 -0.0314 -0.1169  0.0745
 5434W        W 9498   2.495   7.518   3.556 -0.1320  0.0014  0.0750
 5435W        W 9499   4.955   0.753   2.297 -0.1067 -0.0090 -0.0745
 5436W        W 9500   2.717   9.220   8.584  0.1652  0.0029 -0.2585
 5437W        W 9501   7.318  10.511   2.393 -0.1239 -0.0858  0.0834
 5438W        W 9502   8.802   6.683  10.038  0.3065  0.0196 -0.1866
 5439W        W 9503  10.175   6.652   9.319 -0.0009  0.2518 -0.1352
 5440W        W 9504   2.371   0.169   0.145 -0.1374 -0.1173 -0.1470
 5441W        W 9505   5.662   7.049   1.308 -0.2518 -0.1745  0.1363
 5442W        W 9506   0.097   0.096   2.046  0.0262  0.1275 -0.1228
 5443W        W 9507   9.178   8.780   0.733 -0.0930 -0.0220 -0.0859
 5444W        W 9508   2.227   8.120   1.386  0.0645 -0.0934  0.1661
 5445W        W 9509   2.029   7.344   9.841  0.4080 -0.0739  0.5697
 5446W        W 9510  10.067   7.653   1.733 -0.0767  0.0931  0.3384
 5447W        W 9511   5.966   3.814   7.200 -0.0058  0.0218 -0.2126
 5448W        W 9512   8.350   1.487  10.406  0.0409  0.0412  0.1550
 5449W        W 9513   3.333   3.916   0.903 -0.0952 -0.1225  0.1704
 5450W        W 9514   6.722   8.937   0.465  0.0972  0.0978  0.0209
 5451W        W 9515   8.849  10.572  10.286 -0.2696  0.2598  0.2586
 5452W        W 9516   0.697  10.408   2.383 -0.2296 -0.1235  0.2407
 5453W        W 9517   1.176   6.732   1.704  0.1030 -0.1420 -0.2817
 5454W        W 9518   0.230   0.703   7.851  0.1170 -0.2355 -0.1819
 5455W        W 9519  10.605   2.028   7.931 -0.0521  0.0653  0.1386
 5456W        W 9520   2.317   6.544   7.592  0.1206  0.1341 -0.1902
 5457W        W 9521   5.173   8.658   7.575  0.1756 -0.1840  0.1846
 5458W        W 9522   1.060   3.997   9.127 -0.1485  0.1132  0.0229
 5459W        W 9523  10.637   7.568  11.042 -0.2935  0.2163  0.1008
 5460W        W 9524   4.600   8.853   8.107  0.0889  0.0452  0.0636
 5461W        W 9525   9.851   6.716  10.515 -0.1569 -0.0408 -0.2737
 5462W        W 9526   2.754   4.149   8.366 -0.2579 -0.1640 -0.1741
 5463W        W 9527   4.284   7.756  10.709 -0.0374  0.2603  0.2608
 5464W        W 9528   9.998  10.502   2.623 -0.3429 -0.0835  0.0102
 5465W        W 9529   2.684   0.815   7.951 -0.1074 -0.1384  0.2775
 5466W        W 9530   3.150   1.469  11.055 -0.0548 -0.0388 -0.0648
 5467W        W 9531   9.492   0.522   1.260  0.0416 -0.0248  0.1897
 5468W        W 9532   3.469   4.769   2.047  0.2751 -0.0876  0.2411
 5469W        W 9533   3.709   8.917   0.309 -0.3102  0.4711 -0.0340
 5470W        W 9534   9.837   6.243   9.451 -0.0527  0.0937 -0.0902
 5471W        W 9535   7.095   0.084   8.463 -0.0301 -0.1690  0.2543
 5472W        W 9536   7.242   2.050   9.956 -0.0543  0.0556 -0.2500
 5473W        W 9537   8.254  10.515   8.188 -0.1840 -0.3683 -0.3693
 5474W        W 9538   2.077   4.287   9.192  0.0500  0.0627  0.0455
 5475W        W 9539   1.385   8.571   3.514  0.1024  0.0002 -0.1576
 5476W        W 9540   2.902   2.617   1.900  0.0147  0.1298 -0.2662
 5477W        W 9541  10.061   4.041   2.298 -0.0977  0.0862 -0.2693
 5478W        W 9542   5.488   8.721   1.148 -0.0031 -0.1083 -0.0349
 5479W        W 9543   8.259   0.998   2.803  0.2627  0.0941 -0.1731
 5480W        W 9544   6.251   9.982   0.934  0.4237 -0.1498  0.1390
 5481W        W 9545   5.154   7.259   2.240  0.0330 -0.1237 -0.2861
 5482W        W 9546   5.691   5.223  10.775 -0.2530  0.0697 -0.0546
 5483W        W 9547   6.933   7.836   1.321 -0.0871 -0.1015  0.2916
 5484W        W 9548   1.663   9.668  10.842  0.0985 -0.1520 -0.0604
 5485W        W 9549   5.713   8.593   8.850  0.2294  0.1200  0.0057
 5486W        W 9550   9.056   6.229   8.632 -0.2597  0.0199  0.2748
 5487W        W 9551   9.208   7.947   7.811  0.1425 -0.0016 -0.2418
 5488W        W 9552   4.237   6.548   1.224  0.0952  0.0001  0.1108
 5489W        W 9553   1.186   0.027  10.189  0.2615 -0.1874 -0.2566
 5490W        W 9554   5.966   8.674   3.625 -0.1309  0.3374 -0.0722
 5491W        W 9555   8.067   5.441   3.081  0.0790  0.2320 -0.0569
 5492W        W 9556   6.278   5.880   8.177 -0.1164 -0.1173 -0.2642
 5493W        W 9557   4.140   5.677   1.515 -0.0607 -0.0819  0.5159
 5494W        W 9558   1.730   1.208   0.890  0.2700 -0.1372 -0.1738
 5495W        W 9559   9.102   8.993   8.734 -0.0116  0.0250 -0.0036
 5496W        W 9560  10.187   7.180   1.560 -0.3336 -0.3516 -0.2263
 5497W        W 9561   5.702   6.196   2.187  0.2463  0.1022  0.1853
 5498W        W 9562   0.631   2.424  10.355 -0.0347 -0.0953 -0.1238
 5499W        W 9563   2.453   2.835   8.550 -0.1281  0.0735 -0.1036
 5500W        W 9564   2.140   5.713   0.231 -0.0299  0.0663 -0.0849
 5501W        W 9565   3.239   0.282   9.956 -0.0959  0.0508  0.0553
 5502W        W 9566   0.882   4.147  10.480  0.0893 -0.0886 -0.1077
 5503W        W 9567   0.479  10.386   8.057 -0.0380  0.1571  0.0903
 5504W        W 9568   6.564   6.281   7.982  0.3270  0.2146  0.2522
 5505W        W 9569   1.756   9.775   8.814  0.2979  0.0107 -0.0843
 5506W        W 9570   9.221   3.787  10.886 -0.1781 -0.1670 -0.0177
 5507W        W 9571   2.248   2.351   9.232  0.0121  0.0255  0.2226
 5508W        W 9572   5.450   7.703   8.401 -0.1469  0.2245  0.2380
 5509W        W 9573   6.529   0.102   1.937 -0.2827 -0.0938  0.0774
 5510W        W 9574   1.092   8.874   1.766 -0.1076  0.1947  0.2168
 5511W        W 9575   7.411   3.151   2.836 -0.1008  0.1534 -0.1793
 5512W        W 9576   7.324   9.598   2.512  0.2805  0.0917 -0.1144
 5513W        W 9577   7.738   7.925   1.858  0.2629  0.1758  0.1474
 5514W        W 9578   1.172   8.618  10.227  0.0030  0.0323  0.0273
 5515W        W 9579   0.774   1.937   2.211  0.1804  0.2673 -0.0825
 5516W        W 9580   0.788   8.239  10.621  0.0330  0.0220 -0.2128
 5517W        W 9581   9.199   9.643   2.686  0.2824 -0.1075 -0.0342
 5518W        W 9582   1.782   4.575   3.296  0.3384 -0.0267  0.2679
 5519W        W 9583   5.449   3.270   0.853 -0.0183 -0.1662  0.1150
 5520W        W 9584   2.072   0.681   9.108  0.0708 -0.2130 -0.0210
 5521W        W 9585   0.665   6.515   9.439  0.1584 -0.1261  0.1127
 5522W        W 9586   0.818   8.690   0.030 -0.4077 -0.1898 -0.1274
 5523W        W 9587   7.740   9.440   2.145 -0.1711  0.0808 -0.2313
 5524W        W 9588   6.527   5.372   1.588 -0.4877 -0.2053  0.1356
 5525W        W 9589   4.178   3.531   9.019  0.1985  0.0884 -0.2078
 5526W        W 9590   6.523   8.049   1.001 -0.0491 -0.0011  0.2054
 5527W        W 9591   2.502   0.482   0.548 -0.0353 -0.3472 -0.2057
 5528W        W 9592   6.756   6.615   2.972  0.2165 -0.3689 -0.0113
 5529W        W 9593   9.683   0.594   2.020 -0.3198 -0.0087  0.1432
 5530W        W 9594   2.956  10.608   8.804  0.2231  0.1766  0.2049
 5531W        W 9595   6.893   1.363   3.161  0.2505  0.0030 -0.1062
 5532W        W 9596   4.547   2.161   9.488  0.1339 -0.5982  0.1711
 5533W        W 9597   3.216   9.198   7.860 -0.0987  0.3683  0.1430
 5534W        W 9598   7.539   5.994   2.363 -0.1937 -0.1200 -0.0380
 5535W        W 9599   3.324   6.159   9.912 -0.1486  0.2871  0.0936
 5536W        W 9600   4.764   6.742   3.021  0.2970  0.2925  0.2596
 5537W        W 9601   6.028  10.063   3.570 -0.3971 -0.0445  0.3631
 5538W        W 9602   1.320   7.182   1.586 -0.2059  0.0012 -0.2727
 5539W        W 9603   7.085   5.928   2.681  0.0194  0.0666 -0.0003
 5540W        W 9604   4.648   6.282  10.383  0.0195 -0.3448 -0.1670
 5541W        W 9605   4.865   9.908   7.114  0.1086 -0.2474  0.2389
 5542W        W 9606   6.433   3.286   2.709 -0.0399 -0.3330  0.1387
 5543W        W 9607   6.183   1.821   8.610 -0.1025  0.0484 -0.0277
 5544W        W 9608   0.936   9.994   0.382  0.2634  0.0150  0.0280
 5545W        W 9609  10.898   4.394   9.736  0.3300  0.0812 -0.1345
 5546W        W 9610   7.518   1.018   0.983 -0.2739  0.0940 -0.1877
 5547W        W 9611  10.871   6.965  10.290 -0.2135  0.0174  0.2542
 5548W        W 9612   8.754   1.195   2.948  0.0919 -0.0308  0.2199
 5549W        W 9613   8.706   7.520   7.273  0.0822  0.0271  0.2947
 5550W        W 9614   5.298   4.864  10.963 -0.0297 -0.0093 -0.1954
 5551W        W 9615   0.535   6.988   0.168  0.2285 -0.0689 -0.2275
 5552W        W 9616   8.782   5.828   0.874  0.2819 -0.1810  0.0476
 5553W        W 9617   0.075   0.760   9.008 -0.2444  0.1018  0.1685
 5554W        W 9618  10.878   5.549   9.007 -0.3992  0.0714 -0.1414
 5555W        W 9619   9.039   7.132   6.953  0.0022  0.1470 -0.1595
 5556W        W 9620   8.783  10.291   9.708 -0.0206 -0.0061 -0.0214
 5557W        W 9621   1.058   6.693   2.809 -0.2115 -0.0562 -0.0662
 5558W        W 9622   3.198   1.974   7.557 -0.4026  0.2033  0.4294
 5559W        W 9623   7.735   2.774   2.646  0.0212  0.0001  0.0167
 5560W        W 9624   9.269   7.808   8.388 -0.1806 -0.3262 -0.0351
 5561W        W 9625   4.466   3.242   8.670 -0.3955  0.1448 -0.0398
 5562W        W 9626   4.299   1.160   8.923 -0.3636 -0.0031 -0.0600
 5563W        W 9627   3.749   1.593   6.939 -0.1650  0.0399  0.3310
 5564W        W 9628   2.748   8.907   7.444  0.3359  0.0657 -0.3493
 5565W        W 9629   5.031   8.912   2.762 -0.0542  0.0307  0.1259
 5566W        W 9630   0.231   1.911   2.585 -0.0253 -0.2123 -0.2364
 5567W        W 9631   7.439   7.309   9.842 -0.2287  0.3984  0.1479
 5568W        W 9632   0.133   9.849   8.617 -0.0829 -0.0613 -0.0511
 5569W        W 9633   4.455   8.316   1.866 -0.0327 -0.0370 -0.4070
 5570W        W 9634   5.835   3.787   1.086 -0.0840 -0.0552  0.0130
 5571W        W 9635   3.435   7.066   9.286 -0.0597  0.3700  0.1472
 5572W        W 9636   1.621   8.347   3.087 -0.1616  0.1217 -0.0541
 5573W        W 9637   3.359   8.341   2.071 -0.0668 -0.1795  0.1520
 5574W        W 9638   9.023   6.494   9.126 -0.1625 -0.2386  0.2801
 5575W        W 9639   7.495   4.765   0.051  0.1708  0.3559 -0.1935
 5576W        W 9640   8.746   1.351  10.672  0.0241  0.2958  0.0750
 5577W        W 9641   2.502   3.927   2.990 -0.1376  0.3414  0.0989
 5578W        W 9642  10.532   3.338   9.158  0.2154 -0.0413  0.0913
 5579W        W 9643  10.071   7.962   8.945  0.3546  0.0035 -0.1869
 5580W        W 9644   6.779   2.957   7.247 -0.4593  0.0079  0.3257
 5581W        W 9645   8.092   5.305  10.699  0.0864  0.2005  0.2584
 5582W        W 9646   9.938   3.308   1.503  0.1746 -0.3293 -0.0825
 5583W        W 9647  10.893   7.346   3.362  0.0794 -0.2282 -0.0218
 5584W        W 9648   1.623   1.281   7.991  0.5852 -0.1885  0.0303
 5585W        W 9649   4.131   5.331   8.200 -0.0899 -0.2871  0.0731
 5586W        W 9650   6.862   0.349   0.680  0.0075  0.0978 -0.1008
 5587W        W 9651  10.014  10.282   0.248  0.0012  0.0667  0.0059
 5588W        W 9652   8.150   8.013  10.798  0.0621  0.2638 -0.3865
 5589W        W 9653   5.661   1.644   0.048 -0.2168  0.1069 -0.0824
 5590W        W 9654   5.158   3.441   0.412  0.1211 -0.2048 -0.0634
 5591W        W 9655   4.683   6.550   2.250 -0.0873 -0.1452 -0.0385
 5592W        W 9656   8.670   5.554   7.047  0.0312  0.0978  0.1591
 5593W        W 9657   5.106  10.594  10.841 -0.0007 -0.3230  0.0459
 5594W        W 9658   3.347   5.329   1.209 -0.5452 -0.0937 -0.0467
 5595W        W 9659   6.889   2.782   9.560 -0.0602 -0.0688 -0.0025
 5596W        W 9660   8.940   4.439   0.122 -0.2398  0.0665  0.0651
 5597W        W 9661   9.825   4.537  10.033 -0.0953  0.1261 -0.1089
 5598W        W 9662   7.403   1.076   2.929 -0.0615 -0.0822  0.1505
 5599W        W 9663   4.827   5.477   2.668 -0.0559  0.1500  0.1006
 5600W        W 9664   8.671   4.474  10.723 -0.1979 -0.3272  0.0440
 5601W        W 9665   8.221   0.756   1.942 -0.1833 -0.0340  0.1234
 5602W        W 9666   7.861   2.565   8.299  0.1048  0.4526 -0.2189
 5603W        W 9667   8.180   0.225   0.640 -0.2116 -0.1005  0.2789
 5604W        W 9668   3.800   1.272   8.083  0.1103 -0.0909 -0.3243
 5605W        W 9669   0.524   4.263   9.133 -0.1712 -0.0240 -0.0619
 5606W        W 9670   2.308   4.715   2.399  0.1533 -0.0946 -0.0016
 5607W        W 9671   2.813   1.270   2.292 -0.0702 -0.4235  0.1626
 5608W        W 9672   6.634   3.542   1.527  0.2345  0.2744 -0.0870
 5609W        W 9673   6.963   9.143   8.753 -0.4344 -0.0550 -0.1448
 5610W        W 9674   0.236   6.883   0.566 -0.2575 -0.1640 -0.1635
 5611W        W 9675   8.218   3.749   1.365 -0.1987 -0.3487 -0.0891
 5612W        W 9676   1.270   6.082   9.738  0.0435 -0.1726 -0.0800
 5613W        W 9677   2.410   0.236  10.398 -0.1967 -0.4132  0.0852
 5614W        W 9678   1.168   9.886   3.134 -0.1556  0.2465  0.0819
 5615W        W 9679   3.678   7.835   0.006 -0.0963  0.1084  0.0295
 5616W        W 9680   2.500   8.683   0.826  0.0055 -0.4058 -0.1302
 5617W        W 9681   3.994   8.207   3.254 -0.1893 -0.2648 -0.1141
 5618W        W 9682   5.596   3.305   3.260 -0.0326 -0.1855  0.0540
 5619W        W 9683   4.897  10.845   0.201 -0.0586 -0.0360  0.1750
 5620W        W 9684   3.149   2.402   0.326  0.3089 -0.0516 -0.1568
 5621W        W 9685   8.904  10.293   0.546 -0.0358 -0.3572  0.1058
 5622W        W 9686   9.410   7.194   1.191 -0.2213 -0.0706 -0.0116
 5623W        W 9687  10.508   6.283   0.925  0.0630  0.0900 -0.2313
 5624W        W 9688   9.109   3.741   0.927  0.0425  0.1276 -0.2650
 5625W        W 9689   3.090   2.884   2.312  0.0059  0.0605  0.0995
 5626W        W 9690   0.744   9.324   2.579 -0.0769  0.0807  0.1018
 5627W        W 9691   9.558   2.448   9.073  0.0154  0.2563  0.2185
 5628W        W 9692  10.750   3.692   2.827 -0.0809 -0.0467 -0.2286
 5629W        W 9693   8.860  10.751   0.380  0.2408 -0.2365  0.0270
 5630W        W 9694   1.499   6.113   2.365 -0.0228 -0.0215  0.2182
 5631W        W 9695   0.211   6.881   7.289 -0.1188 -0.1248 -0.0148
 5632W        W 9696   6.898   3.451   0.592  0.0193 -0.0479 -0.3252
 5633W        W 9697   0.826   7.548   1.272  0.1958 -0.1622 -0.1027
 5634W        W 9698   9.646  10.761   8.586  0.1403  0.0306 -0.1468
 5635W        W 9699   4.560   7.192   3.027  0.2139 -0.0966  0.0929
 5636W        W 9700   0.037   3.646  10.101 -0.1040 -0.0943 -0.0235
 5637W        W 9701   8.341   8.393   1.152  0.0428  0.0497  0.0110
 5638W        W 9702   1.643  10.153   2.121  0.1467 -0.2347 -0.0941
 5639W        W 9703   3.200   9.178   6.768 -0.0279 -0.2770 -0.0974
 5640W        W 9704   5.869   9.683   8.906 -0.2892  0.2277 -0.1969
 5641W        W 9705   8.223   9.827   3.408  0.0773 -0.2038  0.0332
 5642W        W 9706   8.602   3.189   9.237  0.1436 -0.1053 -0.0039
 5643W        W 9707  10.553  10.639   0.136  0.0049 -0.0326 -0.0555
 5644W        W 9708   3.012   5.938   8.232 -0.1842  0.1251  0.1042
 5645W        W 9709  10.549   6.024   7.137 -0.0197 -0.3877  0.0164
 5646W        W 9710   3.403   5.344   9.584 -0.2351 -0.1761  0.0217
 5647W        W 9711  10.176   1.522   9.827  0.4016 -0.0524  0.2274
 5648W        W 9712   4.905   5.352  10.362  0.2140  0.2475  0.1637
 5649W        W 9713   1.837   2.451   3.166 -0.3368 -0.0504  0.0904
 5650W        W 9714   1.195   3.150   7.892 -0.0120  0.2199  0.3011
 5651W        W 9715   2.806   9.656   0.501 -0.0231  0.1687 -0.1210
 5652W        W 9716   1.079   0.912  10.438  0.1288  0.2488 -0.4303
 5653W        W 9717   0.222   4.322   1.531 -0.0550 -0.2997  0.1252
 5654W        W 9718   8.402   3.192   2.988 -0.0652 -0.0984 -0.0036
 5655W        W 9719   1.069   6.532   9.710  0.1312 -0.0799  0.3248
 5656W        W 9720  10.467   6.892  10.982 -0.0507 -0.1530  0.1856
 5657W        W 9721   9.503   5.091   8.076  0.1218 -0.1075  0.3318
 5658W        W 9722  10.883  10.686   8.042  0.0311 -0.1165  0.1668
 5659W        W 9723   7.673   4.784  10.129 -0.4281  0.3121 -0.0812
 5660W        W 9724   2.373  10.082   2.923 -0.4408 -0.2157  0.0635
 5661W        W 9725   2.500   2.435   1.523  0.1664 -0.0670 -0.4160
 5662W        W 9726   3.819   4.859   8.753 -0.3440  0.1484  0.1023
 5663W        W 9727   2.583   6.375   1.126  0.0692  0.1589  0.1577
 5664W        W 9728   0.704   8.886   7.867  0.2052 -0.0633  0.0950
 5665W        W 9729   4.905   1.006   9.122  0.1310 -0.0964  0.1650
 5666W        W 9730   2.993   8.800   0.772  0.0750 -0.2033 -0.4309
 5667W        W 9731   3.747   5.353   2.695  0.3857 -0.4426 -0.4513
 5668W        W 9732   1.895   5.680   8.087 -0.0900 -0.1399 -0.2701
 5669W        W 9733   2.287  10.070   8.086 -0.2089  0.0892 -0.0137
 5670W        W 9734  10.207   4.041   8.976  0.3075  0.1170 -0.2142
 5671W        W 9735   5.516   5.291   3.638  0.0882  0.0794  0.1522
 5672W        W 9736  10.200   9.345   0.809  0.1137  0.1054  0.3085
 5673W        W 9737   1.943   1.034   1.389 -0.2878 -0.1399  0.3292
 5674W        W 9738   3.003   9.469  11.026 -0.1498 -0.2883  0.1886
 5675W        W 9739   1.877   1.912   7.813  0.0613 -0.1338  0.2473
 5676W        W 9740   8.646   0.127   0.830 -0.0346 -0.3428 -0.1463
 5677W        W 9741   7.641   0.170  10.828  0.2730 -0.0616  0.1187
 5678W        W 9742   1.165   7.166   2.616  0.1438  0.2008 -0.2696
 5679W        W 9743   8.224   5.951   0.790 -0.0604  0.1064  0.1882
 5680W        W 9744  10.505   1.452   8.040  0.0333 -0.0711  0.3299
 5681W        W 9745   5.598   5.324   2.023  0.3197 -0.0135  0.1383
 5682W        W 9746   0.289   5.986   7.770 -0.2697 -0.1813  0.0449
 5683W        W 9747   0.788   9.820   1.574  0.0695  0.0916 -0.2273
 5684W        W 9748   2.647   7.534   9.209 -0.0514 -0.2947 -0.0636
 5685W        W 9749   9.274   8.171   3.361 -0.2230  0.0139 -0.0666
 5686W        W 9750   3.285   0.217   1.580  0.4718  0.1612  0.3285
 5687W        W 9751   9.070   0.402   1.628 -0.0279  0.1511 -0.0350
 5688W        W 9752   6.876   1.824   9.748  0.0632 -0.0249  0.1407
 5689W        W 9753   8.941   8.945   0.194  0.0556  0.3115 -0.3928
 5690W        W 9754   6.130  10.653   7.806  0.1719 -0.0017 -0.1289
 5691W        W 9755   4.270   8.644   0.759  0.0423 -0.1114 -0.1445
 5692W        W 9756   5.253   2.650   8.030 -0.0174 -0.3769  0.0526
 5693W        W 9757   6.148   2.631   1.673 -0.0242 -0.0458 -0.2572
 5694W        W 9758   0.862   0.025   8.763 -0.0001  0.1342  0.0023
 5695W        W 9759   6.617  10.791   8.242 -0.1630  0.1078  0.0773
 5696W        W 9760   5.040   5.196   3.895 -0.2200  0.4078  0.1453
 5697W        W 9761   4.551   7.338  10.441  0.3170 -0.2323 -0.2035
 5698W        W 9762   7.568   3.798  10.046 -0.3193 -0.2323 -0.2219
 5699W        W 9763   8.335   2.374   8.370  0.1340 -0.0752  0.1333
 5700W        W 9764   7.109   3.734   1.528 -0.2886  0.2003 -0.0148
 5701W        W 9765   9.301   5.326   0.265  0.3827 -0.0768  0.1027
 5702W        W 9766   9.237   1.262   8.496  0.2150  0.1809 -0.0472
 5703W        W 9767   9.360   4.927  10.294  0.1953 -0.1388 -0.0168
 5704W        W 9768   7.543  10.258  10.379  0.2072  0.2102  0.2967
 5705W        W 9769   3.319   9.978   2.818  0.1044  0.1289  0.2853
 5706W        W 9770   3.822  10.840   1.485 -0.2931  0.2232  0.0519
 5707W        W 9771   5.040   4.739   0.361  0.0713 -0.0807 -0.2869
 5708W        W 9772   1.468   8.284   0.804  0.2002  0.2186 -0.1414
 5709W        W 9773   2.125   9.609   7.930 -0.0598  0.1449  0.0308
 5710W        W 9774   6.524   3.598   2.332 -0.2495  0.3225  0.0237
 5711W        W 9775   7.124   7.422   8.134  0.2560  0.4219  0.0865
 5712W        W 9776   5.351   4.841   2.713 -0.0657  0.0673 -0.2621
 5713W        W 9777   9.135   5.334   1.937 -0.3127 -0.2792  0.0406
 5714W        W 9778   6.459   7.799   8.733 -0.1850  0.2072 -0.2863
 5715W        W 9779   2.424   1.094   1.145 -0.1446 -0.3688  0.0661
 5716W        W 9780   4.967   3.026   0.789 -0.1389  0.1686  0.0914
 5717W        W 9781  10.560  10.754   1.906  0.3619  0.3174 -0.2504
 5718W        W 9782   3.750   5.128   0.857  0.3193 -0.4786 -0.0230
 5719W        W 9783   1.935   8.925   7.310 -0.2323 -0.0753  0.1754
 5720W        W 9784   9.498   0.675   8.865  0.0502  0.1446  0.1987
 5721W        W 9785   4.515   6.198   0.906  0.0538 -0.0642 -0.1870
 5722W        W 9786   0.915   6.919   2.178  0.0506  0.2753 -0.1273
 5723W        W 9787   3.469   8.836   8.617 -0.1211 -0.1802 -0.2046
 5724W        W 9788   3.379   2.879   2.933  0.3872 -0.3222 -0.4894
 5725W        W 9789   7.396   2.269   8.330 -0.0655 -0.0130  0.2412
 5726W        W 9790   0.379   2.129  10.662 -0.1131 -0.1061  0.0297
 5727W        W 9791   1.270   8.139   2.818 -0.1413  0.0880 -0.3277
 5728W        W 9792   7.201   6.334   7.228  0.0714  0.0704 -0.2034
 5729W        W 9793   0.253   4.062   7.731 -0.0896  0.1555 -0.1937
 5730W        W 9794   8.562   1.521   0.908  0.0741 -0.2561 -0.0142
 5731W        W 9795   5.565  10.158   1.759 -0.1596 -0.0385 -0.2962
 5732W        W 9796   3.326   4.145   1.748 -0.0395 -0.0207 -0.0219
 5733W        W 9797   2.496   6.348   2.549 -0.2510 -0.0026 -0.0010
 5734W        W 9798   6.336   1.820   7.737  0.1143  0.0597 -0.0555
 5735W        W 9799   5.672   6.173  10.314  0.1257 -0.0835 -0.0037
 5736W        W 9800  10.781   3.175   2.117  0.1633 -0.0678 -0.1773
 5737W        W 9801  10.637  10.803   3.769 -0.0169  0.2422  0.0670
 5738W        W 9802   8.910   5.103   7.785 -0.0250 -0.1197 -0.1552
 5739W        W 9803   6.468   8.544   0.161  0.0311  0.1157 -0.0738
 5740W        W 9804   1.068   6.791   9.197  0.0644 -0.2285 -0.1318
 5741W        W 9805  10.342   8.982   0.434  0.0006  0.1266 -0.0534
 5742W        W 9806   3.342   9.031   1.384  0.0917  0.0773  0.0835
 5743W        W 9807   9.057   3.001   3.407  0.2978 -0.0149  0.1526
 5744W        W 9808   8.606   7.232   0.864 -0.3700  0.0700  0.1153
 5745W        W 9809   9.739   5.661   8.640 -0.2791  0.0417 -0.1382
 5746W        W 9810   7.670   5.224   8.903 -0.1272 -0.1467 -0.1692
 5747W        W 9811   8.369   0.599  10.292  0.0822  0.1567 -0.4232
 5748W        W 9812   2.460   5.400   1.521 -0.1000  0.1577 -0.1803
 5749W        W 9813   8.224   2.687   9.790 -0.1811 -0.0493  0.0744
 5750W        W 9814   1.345   6.222   9.270 -0.0100 -0.1065 -0.1706
 5751W        W 9815  10.827   7.164   8.139 -0.0270  0.4598 -0.1095
 5752W        W 9816   4.195   8.389   8.690  0.0655 -0.4161  0.1502
 5753W        W 9817   8.954   6.569   9.592  0.0827  0.3548  0.2177
 5754W        W 9818   0.680   2.928   7.230 -0.0674 -0.1710  0.0505
 5755W        W 9819   9.439   0.858   2.387 -0.3178  0.4026 -0.1117
 5756W        W 9820   0.099   0.872  10.939 -0.0250  0.0588 -0.0800
 5757W        W 9821  10.831   9.250   3.189 -0.2328 -0.0923  0.0634
 5758W        W 9822   7.482   9.824   9.111 -0.1684  0.0700 -0.1417
 5759W        W 9823   8.535   5.086   9.982 -0.0121  0.2253  0.1896
 5760W        W 9824   1.602   0.856   8.200 -0.1871 -0.2565  0.1107
 5761W        W 9825   6.393   1.267   2.260  0.0721 -0.3666 -0.2204
 5762W        W 9826   5.487   4.538   0.561  0.3754  0.1879 -0.2282
 5763W        W 9827   2.309   1.890   9.473  0.0201  0.1471  0.0583
 5764W        W 9828   0.978   6.415   0.142  0.0629 -0.1176 -0.1417
 5765W        W 9829   5.892   7.876   9.905 -0.0954 -0.1651  0.1762
 5766W        W 9830   6.859   5.722   9.616 -0.0520  0.4454  0.0149
 5767W        W 9831   0.744   3.632   0.162 -0.1882  0.2691 -0.1940
 5768W        W 9832   7.491   4.152   1.708 -0.1119  0.0671 -0.0821
 5769W        W 9833   5.545   1.127   2.492 -0.1035  0.2503  0.0878
 5770W        W 9834   3.775   6.327   3.107  0.0353 -0.2030 -0.2665
 5771W        W 9835   0.066   6.236   8.183 -0.1107 -0.0590  0.2699
 5772W        W 9836   6.441   4.878   7.967  0.1363  0.0677 -0.2319
 5773W        W 9837   4.026   5.885   3.399  0.3110 -0.2303  0.0931
 5774W        W 9838   9.255  10.300   1.482  0.0729  0.0740  0.1860
 5775W        W 9839   7.197   4.386  10.539  0.0223  0.2915 -0.0068
 5776W        W 9840   4.710   2.313   0.704  0.0792  0.3253 -0.2526
 5777W        W 9841   5.647   7.906   0.126  0.1774 -0.3678 -0.0858
 5778W        W 9842   1.719   7.930   9.339  0.2346  0.2795  0.1682
 5779W        W 9843   4.868  10.233   2.245 -0.1448  0.3147 -0.0998
 5780W        W 9844   6.234   5.860  10.266  0.1688  0.0593 -0.0513
 5781W        W 9845   3.838   2.184  10.975 -0.0210  0.3062 -0.2513
 5782W        W 9846   5.242   8.412   0.827  0.0137  0.2103 -0.2139
 5783W        W 9847   8.020  10.189   8.959  0.0419  0.0109  0.0469
 5784W        W 9848  10.644   1.632   2.643 -0.2939  0.0160  0.3891
 5785W        W 9849   3.800   9.334   2.390 -0.2080 -0.1594  0.1536
 5786W        W 9850   7.535   2.121   3.284  0.2915  0.0422  0.1164
 5787W        W 9851   7.722   6.489   2.482  0.2846  0.2495  0.1149
 5788W        W 9852   5.829   9.602   1.654 -0.1602 -0.0686  0.0739
 5789W        W 9853   9.494   1.303   9.186 -0.3501  0.0746  0.2750
 5790W        W 9854   5.964   1.071   9.233 -0.1779 -0.1292  0.0417
 5791W        W 9855   8.496   7.643   1.512  0.0969  0.0133  0.0560
 5792W        W 9856   7.149   7.708  10.426 -0.3138 -0.1238  0.1235
 5793W        W 9857   7.952   8.419  10.999  0.2951  0.0157 -0.1349
 5794W        W 9858   6.575   6.329   8.488  0.3168  0.2523  0.2002
 5795W        W 9859   2.292   9.923   0.911  0.2159  0.0251 -0.2978
 5796W        W 9860   2.717   2.266   9.651 -0.0118  0.0166  0.3783
 5797W        W 9861   8.288   3.097   7.673  0.1069 -0.1690  0.0229
 5798W        W 9862   2.911   5.158   0.327  0.2594 -0.0241  0.0359
 5799W        W 9863   0.227   1.509   0.733  0.0533  0.1572  0.1360
 5800W        W 9864   1.834   4.637   8.498 -0.1407 -0.0326 -0.0644
 5801W        W 9865   4.027   9.169   8.695 -0.1773 -0.1399 -0.0482
 5802W        W 9866   8.225   6.044  10.417 -0.0443 -0.3039 -0.0758
 5803W        W 9867   4.611   0.863  11.019  0.0691 -0.0765 -0.1188
 5804W        W 9868   0.693   2.895   2.330 -0.1323 -0.0500  0.0962
 5805W        W 9869   0.456   1.931   3.069  0.0499  0.3146  0.0718
 5806W        W 9870   3.578   1.559   3.195  0.0042  0.1684  0.1954
 5807W        W 9871   1.039   6.441  10.168 -0.2253  0.2103  0.1307
 5808W        W 9872  10.684   2.575   2.922  0.2016 -0.2828  0.0601
 5809W        W 9873   8.172   5.211   9.681  0.1847  0.1414  0.1100
 5810W        W 9874   6.192   5.585   0.598  0.2083 -0.2075  0.3871
 5811W        W 9875   7.765   2.103  10.680  0.2705 -0.1204 -0.2369
 5812W        W 9876   3.773   8.274   4.260 -0.2827  0.0972  0.0442
 5813W        W 9877   0.193   4.518   7.455 -0.0169 -0.2150 -0.1311
 5814W        W 9878   1.390   5.651   9.988 -0.3318  0.1653  0.1428
 5815W        W 9879   0.290   5.644   0.956 -0.0523 -0.0748  0.0246
 5816W        W 9880   2.685   9.857   2.281  0.0704  0.0023 -0.2566
 5817W        W 9881   7.156   4.532   2.874 -0.1353 -0.0108  0.3351
 5818W        W 9882   9.122  10.887   0.818 -0.1231 -0.1388  0.3456
 5819W        W 9883   6.524   7.997  11.066  0.0954  0.0228  0.0297
 5820W        W 9884   7.691   0.510   2.204 -0.0749 -0.0409  0.0583
 5821W        W 9885   0.176   8.394   0.371  0.1233 -0.0481  0.2403
 5822W        W 9886   4.848   9.265   9.784 -0.1672  0.1642 -0.0547
 5823W        W 9887   1.810   7.948   9.868  0.0217  0.0576  0.1438
 5824W        W 9888   6.660   1.319   8.207 -0.0329 -0.0241 -0.0676
 5825W        W 9889   1.806   6.039   0.529  0.0635  0.0451 -0.2355
 5826W        W 9890   2.793   9.407   2.023 -0.0915  0.0526  0.1234
 5827W        W 9891   6.405   7.554   1.126 -0.0645 -0.2881 -0.0491
 5828W        W 9892   2.866   1.196   1.460  0.0535 -0.2214  0.3515
 5829W        W 9893   7.203   8.153   9.902 -0.1268  0.3998 -0.1402
 5830W        W 9894   3.322   6.137  10.471  0.0960 -0.0660 -0.0120
 5831W        W 9895   2.395  10.263   2.396 -0.1853  0.2208 -0.0301
 5832W        W 9896  10.458   4.098   1.969 -0.0771 -0.0104  0.2118
 5833W        W 9897   4.396   6.548   2.743 -0.3772 -0.0707 -0.1069
 5834W        W 9898  10.276   5.847   1.082 -0.1356  0.0454  0.0557
 5835W        W 9899   5.776   3.876   3.165 -0.1796  0.1916  0.0113
 5836W        W 9900   5.251   3.551   9.313 -0.0565 -0.0801 -0.0151
 5837W        W 9901   1.405   4.406   2.013 -0.1965  0.1549 -0.2837
 5838W        W 9902   9.973   9.809   9.591  0.0914 -0.1158  0.0804
 5839W        W 9903   1.051   1.148  10.927  0.0364  0.0188  0.2357
 5840W        W 9904   6.078   4.156   1.426  0.2793  0.2349 -0.1162
 5841W        W 9905   0.961   2.845   8.806  0.0978 -0.1710 -0.0707
 5842W        W 9906  10.273   6.154  10.211 -0.2975 -0.3251 -0.1390
 5843W        W 9907   0.423   3.246  10.094  0.0688  0.0896 -0.0009
 5844W        W 9908   8.538   1.116  10.059  0.0601  0.1661  0.0569
 5845W        W 9909   1.224   6.202   1.075 -0.5071 -0.1393  0.0503
 5846W        W 9910   6.330   6.219   0.940 -0.0169  0.1867  0.1744
 5847W        W 9911   5.289  10.627   2.441 -0.0024 -0.0775  0.0422
 5848W        W 9912   6.456   0.463   3.453  0.3366  0.1758 -0.5745
 5849W        W 9913   9.589   7.937   1.107  0.1352  0.1146 -0.3226
 5850W        W 9914   3.191   2.546   0.776  0.4022  0.0495  0.0425
 5851W        W 9915   1.192  10.830   8.377 -0.0194  0.2953 -0.0749
 5852W        W 9916   9.315   5.776   2.532 -0.1142 -0.1481  0.0914
 5853W        W 9917   9.073  10.434   8.044 -0.1999 -0.1098  0.1456
 5854W        W 9918   1.426   1.792   9.191  0.3264  0.1108  0.0106
 5855W        W 9919   2.447   7.792   1.738 -0.2965  0.2624  0.0446
 5856W        W 9920   1.620   3.032   8.181  0.0837 -0.1883 -0.2587
 5857W        W 9921   1.263   4.430   9.795 -0.1061  0.3301  0.1208
 5858W        W 9922   6.170   2.607   8.170  0.1133 -0.1645  0.0981
 5859W        W 9923   9.309   1.522   2.273 -0.0367 -0.2192  0.1426
 5860W        W 9924   5.945   5.577   7.875 -0.1146 -0.0372 -0.3855
 5861W        W 9925   5.350   7.921   9.612  0.0361 -0.0285  0.1775
 5862W        W 9926   2.481   8.125   0.108  0.1928  0.1630 -0.0466
 5863W        W 9927   3.480  10.488   9.473  0.3891  0.0310 -0.1466
 5864W        W 9928   2.557   7.752   6.546 -0.1038 -0.0669 -0.0809
 5865W        W 9929   8.327   8.494  10.709  0.0136  0.0072 -0.1963
 5866W        W 9930  10.693   3.786   9.096 -0.0083 -0.0740 -0.0110
 5867W        W 9931   9.092   4.261  10.585  0.0980 -0.2786  0.1824
 5868W        W 9932   5.687   4.936   2.365 -0.0828  0.3180  0.0797
 5869W        W 9933   6.815   7.869   9.049 -0.3785 -0.0697 -0.1286
 5870W        W 9934   4.934   1.020   3.665  0.0312 -0.2112  0.0596
 5871W        W 9935   2.356   9.444  10.592  0.2309  0.0745 -0.0848
 5872W        W 9936   7.876   4.680   8.873  0.4285  0.2168 -0.3694
 5873W        W 9937   8.583   6.659   0.030  0.1061  0.0971 -0.4110
 5874W        W 9938   2.099   9.005   0.831 -0.2148 -0.0023  0.1404
 5875W        W 9939   4.712   4.321   1.297 -0.3367  0.0619  0.0044
 5876W        W 9940   6.097   7.962   1.293  0.1555 -0.0139 -0.3020
 5877W        W 9941   7.749   8.773   8.442  0.2071  0.0458 -0.0397
 5878W        W 9942   2.761   9.329   7.863 -0.1030 -0.1978 -0.1604
 5879W        W 9943   7.506   1.724   3.675  0.1181  0.0308  0.1892
 5880W        W 9944   1.498   6.719   9.496  0.2981  0.0699  0.2251
 5881W        W 9945   1.870   8.435   7.663 -0.3388  0.1723 -0.4532
 5882W        W 9946   3.267   3.755   0.024 -0.1596 -0.2629 -0.0105
 5883W        W 9947   5.834   5.517   8.355  0.1790  0.0742 -0.1879
 5884W        W 9948   4.543   9.211   8.470  0.1098  0.2412 -0.0979
 5885W        W 9949   7.745   5.663   8.447 -0.0412 -0.0419  0.1358
 5886W        W 9950   2.972   0.164   8.171  0.0425  0.3429  0.0128
 5887W        W 9951   2.159   4.126   2.659  0.0957 -0.1874 -0.0476
 5888W        W 9952   1.268   8.505   1.280  0.3414  0.0572 -0.1452
 5889W        W 9953   6.701   5.257   8.624 -0.2986  0.1366  0.1862
 5890W        W 9954   4.294   3.190   8.195  0.0259 -0.1388  0.0314
 5891W        W 9955   0.410   7.401   1.629  0.0538 -0.1578 -0.0851
 5892W        W 9956   3.044   8.456   8.513  0.1908  0.0378  0.1372
 5893W        W 9957   5.577   6.396   8.712  0.1124  0.1479 -0.0102
 5894W        W 9958   0.977   3.338   9.918 -0.1854  0.0679 -0.0278
 5895W        W 9959   6.623   7.144   2.834  0.2079  0.0754  0.1593
 5896W        W 9960   2.030   2.116   2.816  0.0424  0.0195  0.2052
 5897W        W 9961  10.477   3.345   3.076  0.2122  0.0392 -0.0976
 5898W        W 9962   5.950   4.389   0.901 -0.6079  0.0970  0.0152
 5899W        W 9963  10.512   5.216   8.870 -0.0985  0.1607 -0.0684
 5900W        W 9964   7.901   4.933   9.290 -0.0141 -0.1452 -0.0109
 5901W        W 9965   9.146   2.602   4.199 -0.1407  0.0486 -0.0604
 5902W        W 9966   1.242   6.437   7.487  0.2712 -0.0362  0.2714
 5903W        W 9967   5.715   3.001   8.729 -0.0612  0.1779  0.0329
 5904W        W 9968   1.582   0.803   0.554  0.0013 -0.1048 -0.1992
 5905W        W 9969   3.959   0.560   9.598  0.0242  0.2634  0.0013
 5906W        W 9970   5.220   0.245   9.856 -0.0060 -0.0887  0.0516
 5907W        W 9971   4.645   6.595  10.003  0.2796  0.0695 -0.3199
 5908W        W 9972   1.488  10.480   1.339  0.0253  0.1134  0.2372
 5909W        W 9973   3.190   0.143   0.620  0.0390  0.2818  0.0306
 5910W        W 9974   6.769   4.701  10.361  0.2601 -0.1075 -0.0341
 5911W        W 9975   7.443   8.507   0.516 -0.1825 -0.1191 -0.0425
 5912W        W 9976   1.966   6.546   0.581  0.2871 -0.2890 -0.0158
 5913W        W 9977   6.085   2.381   3.405 -0.0932 -0.3029 -0.0012
 5914W        W 9978   7.350   9.713   1.937 -0.0582  0.0453 -0.0086
 5915W        W 9979   9.437   6.256   2.307 -0.1845  0.2695  0.2265
 5916W        W 9980   8.822  10.536   3.884  0.0779  0.0887  0.0865
 5917W        W 9981  10.429   7.294   1.128 -0.0205  0.2249  0.1709
 5918W        W 9982   9.454   6.636   7.793 -0.0555 -0.0285  0.4651
 5919W        W 9983   0.195   7.380   0.035  0.0926  0.0722 -0.2448
 5920W        W 9984   8.938   7.037   1.169 -0.1586  0.1339 -0.1639
 5921W        W 9985   3.797   1.158   8.904 -0.2964 -0.0975  0.0071
 5922W        W 9986   3.516   9.165  10.382  0.4381  0.1278 -0.1222
 5923W        W 9987   1.863   5.180   2.722 -0.1955  0.0618 -0.0988
 5924W        W 9988   0.881   2.324   8.695 -0.1770 -0.0381  0.2158
 5925W        W 9989  10.872   5.128   2.846 -0.2969 -0.3233 -0.2127
 5926W        W 9990   5.944   0.839   2.296 -0.2294 -0.0364  0.4122
 5927W        W 9991  10.536   4.696   2.844  0.0180  0.2670 -0.0114
 5928W        W 9992   7.854   9.223   8.988  0.2864  0.1243 -0.3210
 5929W        W 9993   4.697   9.014   2.353 -0.4291  0.1981  0.3212
 5930W        W 9994   5.833   1.321   0.449  0.2113 -0.0758  0.2358
 5931W        W 9995   4.717   4.534   2.276  0.2206 -0.1383 -0.1932
 5932W        W 9996   0.457   6.196   1.519 -0.1458  0.0015  0.0091
 5933W        W 9997   2.801   4.220   0.970 -0.0699  0.2598  0.1571
 5934W        W 9998   5.264   1.689  10.735 -0.0524 -0.2043  0.3163
 5935W        W 9999   6.601  10.132   0.077  0.1576  0.0907 -0.1373
 5936W        W10000   8.362   4.779   1.373 -0.2382  0.3260  0.0685
 5937W        W10001   8.776   4.628   8.769 -0.3035  0.0057 -0.0689
 5938W        W10002  10.371   0.603   0.389  0.0714 -0.0566  0.0302
 5939W        W10003   3.954   1.644   1.581 -0.0548  0.1683  0.2073
 5940W        W10004   0.615   8.654   3.423  0.4930  0.1255 -0.2384
 5941W        W10005   8.594   8.708   7.636 -0.2733 -0.1040 -0.3161
 5942W        W10006   0.539   8.417   2.969 -0.0353  0.2102 -0.2445
 5943W        W10007   2.930  10.342   9.376 -0.1409 -0.0618  0.2651
 5944W        W10008   4.460   8.330   7.235  0.3556  0.0402 -0.2568
 5945W        W10009   5.629   3.337   9.765 -0.1030 -0.3103  0.4321
 5946W        W10010   4.176   0.854   9.304 -0.0643 -0.4720 -0.6312
 5947W        W10011   9.528  10.402   2.792  0.0111 -0.2650 -0.1596
 5948W        W10012   4.950   2.790   3.010 -0.0497 -0.2416 -0.2811
 5949W        W10013   1.557   8.887   9.508 -0.2379  0.0681 -0.1577
 5950W        W10014   9.792   6.229  10.362 -0.0195 -0.1669  0.5710
 5951W        W10015   8.271   6.855  10.005 -0.1771  0.1068 -0.0269
 5952W        W10016   5.089   2.251   0.986  0.1206 -0.0477  0.0446
 5953W        W10017   0.968   8.975   3.368  0.2945 -0.2209 -0.3118
 5954W        W10018  10.085  10.654   8.432  0.1755  0.0823  0.1527
 5955W        W10019  10.467   3.446   2.457 -0.0180  0.1065  0.2822
 5956W        W10020   5.064   4.012   9.200  0.1573  0.1771  0.1231
 5957W        W10021   6.505   8.692   2.373 -0.0845 -0.0756  0.2400
 5958W        W10022   4.248   4.902   9.615  0.2845  0.0731  0.0582
 5959W        W10023   5.840   6.694  10.705  0.0594  0.1197  0.1592
 5960W        W10024   3.209  10.179   2.386  0.1488 -0.0633 -0.0304
 5961W        W10025   2.649   2.926   9.949  0.2560 -0.1059  0.1861
 5962W        W10026   1.414   2.503   8.679  0.0081  0.1773 -0.2808
 5963W        W10027   0.924   5.184   7.047 -0.1139  0.2607 -0.0945
 5964W        W10028   7.352   8.967   3.011  0.2195 -0.1945  0.1255
 5965W        W10029   0.138   5.881   8.596 -0.4449 -0.0106 -0.0221
 5966W        W10030   7.959   6.558   0.958 -0.3436 -0.3533 -0.3098
 5967W        W10031   2.260   4.634   9.479 -0.0703  0.2483 -0.0133
 5968W        W10032   3.753   2.618   3.225  0.2929 -0.0963 -0.1312
 5969W        W10033   3.759   8.888   1.192 -0.1200 -0.0835  0.3279
 5970W        W10034   7.475   5.652   3.878 -0.0068 -0.0390  0.2719
 5971W        W10035   7.753   3.816   1.358 -0.1135  0.3042  0.2378
 5972W        W10036   3.944   7.259   9.259 -0.1376  0.1196  0.0274
 5973W        W10037   1.983   8.656   9.612  0.1447 -0.1278 -0.1544
 5974W        W10038   2.238   9.959   8.705  0.2593 -0.1218  0.0691
 5975W        W10039   6.436   2.522   7.165  0.1212  0.1783 -0.0505
 5976W        W10040   4.064   1.642   0.926  0.0695 -0.0810 -0.2060
 5977W        W10041   9.046   9.987   3.848 -0.1016  0.2217  0.0828
 5978W        W10042   2.855  10.410   1.595 -0.0397  0.1625  0.3029
 5979W        W10043   9.820   5.639   2.493  0.1112  0.0419 -0.3149
 5980W        W10044   2.616   9.031  10.459 -0.0640 -0.0209 -0.2052
 5981W        W10045   3.624   7.308   0.603  0.0869 -0.0973  0.1078
 5982W        W10046   9.393   4.060   9.622  0.1568  0.4417  0.0901
 5983W        W10047   7.014   4.874   8.422  0.2199  0.2821 -0.0580
 5984W        W10048   7.106   1.108   9.748  0.0675  0.1659  0.3334
 5985W        W10049   2.638   5.181   3.087  0.0707 -0.2667 -0.1758
 5986W        W10050   2.923   7.603  10.533 -0.2383 -0.2214 -0.1437
 5987W        W10051   9.971   7.036   2.945  0.0434 -0.2117 -0.1430
 5988W        W10052   8.530  10.539   1.816 -0.1307 -0.2895  0.1441
 5989W        W10053   4.617   7.689   2.644  0.2378  0.0220  0.0992
 5990W        W10054   3.443   3.057   9.268 -0.1373 -0.2389  0.1176
 5991W        W10055   8.048   6.411   7.727 -0.3521 -0.2779 -0.0758
 5992W        W10056   6.988   1.477  10.688 -0.3151  0.0653  0.0534
 5993W        W10057   2.193   5.052   1.761 -0.0153 -0.0232 -0.0398
 5994W        W10058   7.625   6.015   9.513  0.0198 -0.0300 -0.4273
 5995W        W10059   4.509   5.656  10.238 -0.0141 -0.1606 -0.2095
 5996W        W10060   4.816   0.641   3.438 -0.1153  0.2103 -0.0124
 5997W        W10061   2.589   4.537  11.000  0.0610  0.1517  0.1860
 5998W        W10062   3.770   2.992   1.994 -0.2068 -0.0323 -0.2764
 5999W        W10063   4.158   1.909   8.315  0.0071 -0.1080 -0.0392
 6000W        W10064  10.279   7.650   9.946  0.0102 -0.2318 -0.0094
 6001W        W10065   9.684   3.894   2.014 -0.1185 -0.2021  0.0751
 6002W        W10066   2.994   3.587   8.174 -0.1831 -0.0645 -0.0493
 6003W        W10067   7.919   2.901   1.675  0.1197 -0.1951  0.2157
 6004W        W10068   1.555   6.088  10.169  0.2416  0.2683  0.0789
 6005W        W10069   5.335   3.785   0.748  0.3303 -0.0528  0.1969
 6006W        W10070   0.769   7.414   0.086  0.3429  0.0015 -0.0780
 6007W        W10071   2.215  10.577   0.377 -0.1382 -0.2026  0.0744
 6008W        W10072   4.645   8.495   2.764  0.2368  0.3249  0.0515
 6009W        W10073   1.649   8.228   8.828  0.0040 -0.2177  0.1118
 6010W        W10074   4.107   2.003   2.000  0.0790 -0.4054 -0.0588
 6011W        W10075   1.658   6.399   0.217 -0.1177 -0.0970 -0.0894
 6012W        W10076   0.679   5.936   8.704  0.0139 -0.2222 -0.0431
 6013W        W10077   2.191   5.988   1.347  0.1834  0.1560 -0.0229
 6014W        W10078   0.246   2.232   3.450 -0.0024 -0.1895  0.0121
 6015W        W10079   0.691   7.719   1.909 -0.4104  0.7529 -0.0279
 6016W        W10080   3.973   1.808   3.423  0.0649 -0.2213 -0.0080
 6017W        W10081   3.107   9.038   8.353 -0.1662  0.0853  0.1838
 6018W        W10082  10.468   8.889   3.180  0.2807 -0.0104 -0.2641
 6019W        W10083   0.786   5.796   1.012  0.0114 -0.3318  0.2075
 6020W        W10084   8.083   9.946   2.954  0.0202  0.0634  0.1406
 6021W        W10085   5.925   9.984   9.984  0.0078 -0.3025 -0.0186
 6022W        W10086   6.822   7.022  10.919 -0.1352 -0.0859 -0.1842
 6023W        W10087   5.778   4.523   2.660  0.1960 -0.2356 -0.0419
 6024W        W10088   1.456   3.215   0.759 -0.2337 -0.0331  0.1765
 6025W        W10089  10.350   8.278   1.125 -0.1738 -0.1726  0.2520
 6026W        W10090   0.064   4.089   1.928  0.0516  0.3027 -0.0534
 6027W        W10091  10.021   6.825   7.490 -0.0857  0.1969 -0.1459
 6028W        W10092   0.435   5.987   0.605  0.2007 -0.1017  0.3557
 6029W        W10093   5.498   3.378   2.538  0.1091  0.0723  0.0284
 6030W        W10094  10.394   8.375   2.945  0.2621  0.0398 -0.0093
 6031W        W10095   0.137   2.649  10.810 -0.0593  0.2744  0.0350
 6032W        W10096   7.339   9.127   1.949 -0.1671 -0.0729  0.0075
 6033W        W10097   4.861   3.404   2.905 -0.0743  0.0074  0.2901
 6034W        W10098   6.987   8.311   0.125  0.1285  0.0218 -0.1090
 6035W        W10099  10.624   4.875   0.883  0.0667 -0.0967 -0.3039
 6036W        W10100   0.303   1.885   9.717 -0.0929 -0.0317 -0.0896
 6037W        W10101   7.645   6.142   3.604 -0.2356  0.1316  0.1215
 6038W        W10102   4.678  10.337   0.570 -0.2126  0.0829  0.0980
 6039W        W10103   4.131   5.657  10.689 -0.1237  0.2165  0.0346
 6040W        W10104   2.052   6.769   8.472  0.3755 -0.0395  0.2865
 6041W        W10105   3.277  10.882  10.807  0.0591  0.2426 -0.1521
 6042W        W10106   2.965   3.950   0.536  0.0643 -0.2645  0.0658
 6043W        W10107   4.050   0.148   8.365  0.1137  0.1684  0.0747
 6044W        W10108   4.324   4.044   0.344  0.1111 -0.2453  0.0417
 6045W        W10109   0.122   3.119   1.670 -0.0400  0.1453 -0.2437
 6046W        W10110   8.158   3.862   8.797 -0.3199  0.0562 -0.2633
 6047W        W10111   3.462   6.501   9.089 -0.1260  0.1093 -0.1470
 6048W        W10112   3.920   0.845   1.050 -0.1148  0.0959  0.1555
 6049W        W10113   9.497   3.758   8.755 -0.0083  0.0619 -0.1131
 6050W        W10114   7.110   9.315  10.978 -0.0112 -0.1400 -0.0566
 6051W        W10115   6.803   2.517  10.914 -0.3421  0.1254 -0.0337
 6052W        W10116   9.483   6.316   0.794 -0.0875 -0.0487 -0.1777
 6053W        W10117   2.642   2.359   8.357 -0.4878  0.0229 -0.0491
 6054W        W10118   2.319   6.801   6.706 -0.0056 -0.3981  0.3918
 6055W        W10119   2.623   8.324   8.832  0.1293 -0.2490 -0.1179
 6056W        W10120   1.700   7.876   2.948  0.0755 -0.3374  0.2176
 6057W        W10121   5.099   0.713   7.678 -0.1627 -0.0278  0.3456
 6058W        W10122   0.269   8.222  10.528 -0.0617 -0.2523 -0.1771
 6059W        W10123   0.251  10.695   3.752 -0.0736  0.0998 -0.0320
 6060W        W10124   6.747   9.854   9.839 -0.0338 -0.3445 -0.2583
 6061W        W10125  10.363   4.860   6.964 -0.1713 -0.0255  0.1833
 6062W        W10126   1.325   4.712   2.430 -0.1159 -0.2137  0.1009
 6063W        W10127   7.757   3.843   9.146 -0.1193 -0.2116  0.2810
 6064W        W10128   1.456   2.256   7.816 -0.2676  0.2485 -0.2516
 6065W        W10129  10.663   7.755   0.910  0.1840 -0.0696  0.2247
 6066W        W10130   1.467   3.497   1.711 -0.2456 -0.0098  0.1437
 6067W        W10131   1.891   7.097   8.075 -0.0891 -0.1555  0.0910
 6068W        W10132   1.910   6.455  10.318 -0.4681 -0.0435 -0.0409
 6069W        W10133  10.554   9.738   8.527 -0.2818  0.1299  0.3724
 6070W        W10134   7.606   6.405   2.007 -0.0142 -0.1670 -0.0023
 6071W        W10135   6.076   2.870  10.334 -0.1850 -0.3677 -0.0320
 6072W        W10136   6.618   2.131   4.200 -0.1042 -0.2568  0.1451
 6073W        W10137   1.638   0.556   8.825 -0.5286  0.0475  0.0315
 6074W        W10138   0.089   4.085   7.200  0.2797 -0.3140 -0.0656
 6075W        W10139   3.096   6.195   9.284  0.0076 -0.3539 -0.2515
 6076W        W10140   4.715   6.619   1.199 -0.1950 -0.0720  0.1374
 6077W        W10141   8.352   8.010   2.818 -0.2500 -0.0628  0.1499
 6078W        W10142   0.402   9.074   9.591  0.1759 -0.0801  0.2624
 6079W        W10143   0.235   0.228   0.691 -0.0766 -0.2450  0.0414
 6080W        W10144   0.415   1.602   7.461  0.0635  0.0633  0.1657
 6081W        W10145   1.632   0.216   3.663  0.1084  0.1529  0.1789
 6082W        W10146   5.251   6.186   0.189  0.2927 -0.0663 -0.1178
 6083W        W10147   7.679   2.254   0.149 -0.1522 -0.0664  0.0972
 6084W        W10148   4.363   0.105   7.976 -0.2185  0.0967 -0.1973
 6085W        W10149   6.484   9.463   2.240 -0.2512 -0.0786 -0.1017
 6086W        W10150   4.108   4.501   9.331  0.0861 -0.1669  0.4075
 6087W        W10151   0.511   9.480  10.046  0.1162 -0.0940 -0.2046
 6088W        W10152   0.481   7.417   0.521  0.3170  0.1188  0.2044
 6089W        W10153   9.786   3.156  11.046 -0.3401  0.0100  0.2208
 6090W        W10154  10.094   1.024   2.073  0.1648  0.1935 -0.1167
 6091W        W10155   8.055   9.996  10.393 -0.0069  0.1290 -0.1873
 6092W        W10156   9.946   7.188   1.996 -0.3120  0.4113  0.1232
 6093W        W10157   0.277   7.090   1.164  0.4391  0.0327  0.1445
 6094W        W10158   4.197   0.269   7.491 -0.1532  0.1894 -0.0421
 6095W        W10159   7.324   1.166  11.005 -0.0858 -0.1816  0.1578
 6096W        W10160   6.833   5.387  10.917  0.1060  0.1376  0.0351
 6097W        W10161   6.190   8.144   1.807  0.0471 -0.1473  0.5838
 6098W        W10162   8.110   9.042  10.692  0.2221 -0.0112 -0.4078
 6099W        W10163   2.229   6.110   0.884  0.1887  0.3923  0.0025
 6100W        W10164   7.570   6.373   7.982  0.4292 -0.0807  0.3060
 6101W        W10165   2.576   8.020   3.628  0.2961  0.1024 -0.1811
 6102W        W10166   7.905   1.857   2.855  0.2448 -0.1457  0.0548
 6103W        W10167   7.931   2.703   7.777 -0.1617  0.1084  0.4351
 6104W        W10168   6.253   0.090  11.047 -0.1641  0.1128 -0.0079
 6105W        W10169   4.590  10.715   9.851 -0.2389  0.0877 -0.3412
 6106W        W10170   4.746   0.195   9.496  0.0148  0.1384  0.1036
 6107W        W10171   4.847   6.086   9.902  0.1490 -0.0225  0.0669
 6108W        W10172   1.423   9.147   2.497 -0.1675 -0.1187 -0.2230
 6109W        W10173   9.001   7.208   2.133 -0.0148  0.3144  0.2275
 6110W        W10174   4.925   2.718   1.214 -0.1766 -0.2157 -0.1235
 6111W        W10175   0.876   7.190   1.767  0.1527 -0.0755  0.2131
 6112W        W10176   0.976   9.822  10.994  0.1791 -0.0805  0.0739
 6113W        W10177   7.942   3.924   0.213  0.1134 -0.2222  0.0643
 6114W        W10178   3.764   8.541   0.767 -0.2349 -0.0057 -0.1810
 6115W        W10179   1.249   4.536  10.951  0.0109  0.2338 -0.0979
 6116W        W10180  10.832   8.134   9.465  0.0435 -0.2207  0.0017
 6117W        W10181   7.641   6.832  10.977  0.1434 -0.0166 -0.0770
 6118W        W10182   4.124   7.115   2.054 -0.1769  0.0298 -0.2132
 6119W        W10183   7.357  10.767   8.868  0.0476 -0.1218 -0.4935
 6120W        W10184   0.694   8.893   2.944 -0.0963 -0.1340  0.0535
 6121W        W10185   2.671  10.179   8.914  0.1800 -0.3980 -0.0879
 6122W        W10186  10.133   7.366   8.732 -0.1567 -0.1575 -0.0836
 6123W        W10187   5.653   4.820   1.118  0.3368 -0.0791 -0.0485
 6124W        W10188   1.161   0.490   1.297  0.3931  0.2711 -0.1355
 6125W        W10189   7.757   8.731   9.733 -0.0023  0.1370  0.0496
 6126W        W10190   9.213   7.737   3.000 -0.0438  0.0716 -0.0931
 6127W        W10191  10.143   7.998   3.197  0.0932  0.2243  0.0344
 6128W        W10192   9.623   3.732   1.545  0.0491  0.0414 -0.0134
 6129W        W10193   4.127   0.218   3.292 -0.1328 -0.0380  0.1331
 6130W        W10194   5.566   5.020   8.377 -0.3430  0.2141 -0.3602
 6131W        W10195   7.403   5.275   0.322  0.1383 -0.0164  0.1840
 6132W        W10196   6.743   0.431   8.521 -0.0327 -0.1565 -0.2456
 6133W        W10197   1.144   6.888   8.718  0.5292  0.2353 -0.0002
 6134W        W10198   7.786   0.616   8.831 -0.1280 -0.3080 -0.1097
 6135W        W10199   5.995   7.021   2.708  0.1006 -0.1411  0.0323
 6136W        W10200   4.761   7.355   8.147 -0.0366 -0.0646 -0.1667
 6137W        W10201   8.308   5.296   1.435  0.2334 -0.0964  0.0186
 6138W        W10202   2.377  10.265   1.777  0.1893 -0.0122 -0.2077
 6139W        W10203   4.696   7.693   3.234 -0.0299 -0.1170  0.0858
 6140W        W10204   5.539   6.133   9.771 -0.1032 -0.0085  0.0352
 6141W        W10205   2.404   2.255   7.780  0.1918 -0.0432  0.2905
 6142W        W10206   2.693   1.716   1.438  0.0827  0.1295  0.3330
 6143W        W10207   2.807   9.025   1.704  0.2885  0.0210 -0.1037
 6144W        W10208   3.978  10.532   3.406 -0.1263 -0.3895  0.1939
 6145W        W10209   4.843   5.905   1.788  0.2649 -0.4170  0.1503
 6146W        W10210   5.134   6.568  10.007 -0.1263  0.2736 -0.0092
 6147W        W10211   2.879   2.268   7.921 -0.2640 -0.1801  0.1315
 6148W        W10212  10.046   4.668  10.655 -0.0669  0.0048  0.0610
 6149W        W10213   8.189   4.256   0.561 -0.1895 -0.0011  0.2519
 6150W        W10214   9.126   9.567   2.174 -0.0815 -0.1023  0.0259
 6151W        W10215   9.761   7.346   0.778 -0.2505 -0.4330  0.0413
 6152W        W10216   2.523   6.743   7.168  0.0984  0.0931  0.0453
 6153W        W10217   6.390   6.026   8.880 -0.3940  0.3060  0.0133
 6154W        W10218   2.676   1.580   0.303  0.0581  0.1680 -0.4178
 6155W        W10219   7.475  10.017   2.310 -0.1563  0.1051  0.0982
 6156W        W10220   8.985   3.212   2.455  0.2660  0.2062  0.0319
 6157W        W10221   1.744   7.435   0.951 -0.2225  0.0574 -0.0667
 6158W        W10222   8.651   2.151   3.191 -0.2453 -0.4772  0.2607
 6159W        W10223   1.948   2.013   0.151 -0.1308  0.2442 -0.0687
 6160W        W10224   4.419   6.856   0.296  0.1922  0.1636 -0.1299
 6161W        W10225  10.545   7.958  10.730 -0.2265 -0.1490 -0.1437
 6162W        W10226   9.636   7.023   8.535  0.0227 -0.0997  0.0330
 6163W        W10227   6.482   4.355   2.105 -0.2592  0.0782 -0.0453
 6164W        W10228   0.824   0.427   1.669 -0.1004 -0.1361 -0.0927
 6165W        W10229   2.658   1.669   3.722  0.1267 -0.1233 -0.4920
 6166W        W10230   1.179   4.689  10.270  0.1566 -0.0046 -0.1782
 6167W        W10231   6.500   0.362   8.070 -0.2086  0.0104 -0.1535
 6168W        W10232   6.749   1.074   9.171 -0.0050 -0.1085 -0.2494
 6169W        W10233   0.611   4.273   1.916 -0.2792  0.1300 -0.0535
 6170W        W10234   7.042   8.590   1.809  0.0204  0.2105  0.2348
 6171W        W10235   2.214   1.065  10.525 -0.0364  0.0865  0.2376
 6172W        W10236   0.288   8.577   8.600 -0.1975  0.0131  0.1344
 6173W        W10237   0.221   9.263   1.807  0.3524 -0.1332 -0.0742
 6174W        W10238   2.518   3.609   8.410  0.1005 -0.1341 -0.0575
 6175W        W10239   1.901   0.031   0.152 -0.2631  0.0352  0.1572
 6176W        W10240  10.896   8.101   1.238  0.1208  0.0314 -0.1708
 6177W        W10241   5.328   7.696   2.510 -0.2781 -0.0175 -0.0905
 6178W        W10242   0.208   9.266   9.153  0.0119 -0.1801  0.2036
 6179W        W10243   9.240   2.881   2.754  0.5458 -0.0857  0.0728
 6180W        W10244  10.011   8.018   1.451  0.4485  0.1705  0.0364
 6181W        W10245   8.953   5.036   9.051  0.0222  0.2414  0.1322
 6182W        W10246   7.405   0.519   3.483  0.2783 -0.0557 -0.1227
 6183W        W10247   4.953   9.468   0.803  0.1218 -0.0239 -0.2856
 6184W        W10248   7.684   4.618   3.821 -0.3173 -0.0384  0.1855
 6185W        W10249   1.225   2.984   9.709  0.1415  0.0414 -0.3174
 6186W        W10250   5.902   6.650   1.483  0.0530  0.0275  0.1752
 6187W        W10251   2.074   9.531   8.459  0.0739  0.0783  0.0873
 6188W        W10252   1.556   0.672   3.741 -0.0818  0.0060  0.1969
 6189W        W10253   7.686   7.225   1.530  0.0346  0.0701 -0.3590
 6190W        W10254   3.781   7.333   2.997 -0.2225 -0.0479  0.1470
 6191W        W10255   8.711   2.249   8.017  0.1818 -0.1057 -0.2286
 6192W        W10256   3.195   8.053   6.565 -0.1146 -0.1880 -0.0879
 6193W        W10257   7.124   2.776   1.936 -0.0555 -0.0521 -0.3332
 6194W        W10258   2.327   3.427   2.113 -0.0011 -0.1926  0.0706
 6195W        W10259   3.490   5.138   0.330 -0.1658  0.2070 -0.1047
 6196W        W10260   2.376   2.505  10.359 -0.1075 -0.0585 -0.0410
 6197W        W10261   1.257   3.503   8.255 -0.2595 -0.2512  0.2543
 6198W        W10262   5.965  10.399  10.984  0.0861 -0.0527 -0.0415
 6199W        W10263   9.771   6.002   2.844 -0.2034  0.1529 -0.2450
 6200W        W10264   6.800   3.063  10.706  0.2974 -0.0330  0.1581
 6201W        W10265  10.517   0.843   2.968  0.3603  0.3037 -0.0902
 6202W        W10266   0.186   3.975   8.770  0.1747 -0.0723 -0.3518
 6203W        W10267   8.348   5.091   1.913 -0.0811 -0.0482  0.0480
 6204W        W10268   8.272   1.716   2.184 -0.0670  0.1078  0.3362
 6205W        W10269   8.591  10.004   0.702  0.1310  0.1043 -0.0939
 6206W        W10270   4.075   2.401   2.415  0.3235 -0.1282 -0.2082
 6207W        W10271   7.855   3.812  10.783  0.0677 -0.1423  0.0611
 6208W        W10272   8.945   0.285   8.828  0.4818 -0.1410 -0.0885
 6209W        W10273  10.817   7.846   7.115  0.2152  0.0632  0.2072
 6210W        W10274  10.542   1.848  10.071  0.1112 -0.1070 -0.4029
 6211W        W10275   4.915   5.056   7.698 -0.0473 -0.2327 -0.0977
 6212W        W10276  10.115   9.350   7.163  0.3247  0.1653  0.3079
 6213W        W10277  10.417   5.232   2.831 -0.1584 -0.1025  0.2409
 6214W        W10278   1.240   4.080   0.605 -0.2447  0.0642 -0.2061
 6215W        W10279   6.399   9.903   9.003 -0.3220 -0.0562 -0.0871
 6216W        W10280   1.125   8.726   0.709  0.0204 -0.3115 -0.3822
 6217W        W10281   8.125   1.751   1.665 -0.2401 -0.1551  0.1798
 6218W        W10282   7.051   6.939   8.480 -0.0115  0.0016 -0.1045
 6219W        W10283   4.119   9.926   0.893  0.0420  0.1075  0.0829
 6220W        W10284   0.998  10.009  10.556 -0.0576  0.1492 -0.3514
 6221W        W10285   5.821   7.695   2.471 -0.0630  0.1209 -0.0158
 6222W        W10286   7.494   9.682   9.625 -0.0960  0.0612  0.2016
 6223W        W10287   9.091   0.271  10.503 -0.0675  0.1097  0.3864
 6224W        W10288   7.655   0.130   1.450 -0.0481 -0.2609 -0.0623
 6225W        W10289   2.034   9.906   2.324  0.2127  0.0704 -0.1060
 6226W        W10290   5.902   2.898   3.195  0.0360 -0.0422 -0.1764
 6227W        W10291  10.893  10.810   1.564 -0.2653  0.4200  0.0281
 6228W        W10292  10.004   1.998   8.101  0.4109  0.0810  0.1858
 6229W        W10293   0.044   1.663   1.291  0.4750  0.4387 -0.0680
 6230W        W10294  10.687   2.355   1.282  0.0057 -0.1310  0.0341
 6231W        W10295   6.889   7.726   9.572  0.0193 -0.1965 -0.1015
 6232W        W10296   2.958   7.306   3.691  0.0553 -0.0836 -0.1539
 6233W        W10297   7.686   7.136   7.312 -0.0116 -0.1439 -0.1463
 6234W        W10298   5.319   5.239   0.277  0.1640 -0.1199  0.0440
 6235W        W10299   7.436   7.923   0.976  0.1193  0.0575  0.0736
 6236W        W10300   1.331   1.868   0.587  0.3849 -0.2056  0.1107
 6237W        W10301   0.392   0.187   1.585 -0.0512  0.0846 -0.0792
 6238W        W10302   6.699   9.184   2.628  0.4295 -0.0556 -0.0413
 6239W        W10303   9.943   5.455   2.963 -0.0168  0.2580 -0.2956
 6240W        W10304   6.865   8.080   2.462  0.0600 -0.1062 -0.1734
 6241W        W10305   8.846   1.825   4.404 -0.2071 -0.3913 -0.2087
 6242W        W10306   7.399   0.376   8.965 -0.0909 -0.2590  0.2815
 6243W        W10307   8.321  10.468   0.526  0.1625 -0.1427 -0.1930
 6244W        W10308  10.026   4.173   9.607  0.0476 -0.3035 -0.1113
 6245W        W10309   6.731   8.362  10.785 -0.0766  0.1581  0.1491
 6246W        W10310   4.226   4.737   2.025 -0.0646  0.5769  0.1374
 6247W        W10311   0.508   8.298   0.011 -0.0332  0.0760  0.3875
 6248W        W10312   9.104   2.307   8.352 -0.2600 -0.2915 -0.1830
 6249W        W10313   0.106   3.599   1.853  0.1883 -0.2501 -0.3035
 6250W        W10314   2.537   1.596   0.935 -0.3524  0.3384 -0.0924
 6251W        W10315   3.467  10.642   3.760 -0.3119 -0.2156  0.2060
 6252W        W10316   3.663   0.085   9.347 -0.1610 -0.0842  0.5275
 6253W        W10317   0.886   0.609   2.474 -0.0235  0.0737 -0.1020
 6254W        W10318   7.855   6.961  10.397  0.1844 -0.1243  0.4554
 6255W        W10319   2.262   6.857   8.938  0.0617  0.2288  0.2856
 6256W        W10320   3.564   8.459   3.101 -0.2009 -0.0015 -0.1026
 6257W        W10321   1.650   5.170  10.198 -0.1337  0.2468  0.1073
 6258W        W10322   7.551   7.337   2.695 -0.0528  0.0613  0.0547
 6259W        W10323   2.545   7.347   0.491 -0.0624  0.0619  0.1373
 6260W        W10324   0.981   8.025   9.396 -0.0360 -0.0362 -0.0427
 6261W        W10325   6.926   4.571   2.240  0.0563 -0.0617 -0.0674
 6262W        W10326   9.596   5.604   2.015 -0.1379 -0.1009 -0.1106
 6263W        W10327   1.065   2.283   1.274  0.0797 -0.1054 -0.0911
 6264W        W10328   9.288  10.658   2.279 -0.0447 -0.1119  0.0174
 6265W        W10329   3.286   2.818   3.450  0.0749 -0.3769 -0.3371
 6266W        W10330  10.346   3.482   0.691  0.2495 -0.3863 -0.0140
 6267W        W10331   7.594   7.783   9.754  0.0300  0.1620 -0.0793
 6268W        W10332   0.884   3.769   8.317 -0.2825 -0.0135 -0.0256
 6269W        W10333   9.775   1.881  10.568  0.0998 -0.4392  0.0916
 6270W        W10334   3.611   2.119   0.380  0.0846 -0.1682 -0.2170
 6271W        W10335   8.989  10.362   2.899  0.0676 -0.2272 -0.0649
 6272W        W10336  10.455   6.668   8.291  0.1046 -0.1558  0.0479
 6273W        W10337   0.592   9.399   1.298  0.4416 -0.3543 -0.1690
 6274W        W10338   2.475   1.260   9.461  0.0827 -0.3062  0.0673
 6275W        W10339   8.399   2.726   1.521  0.1141 -0.1708  0.0493
 6276W        W10340   0.011   7.359   0.745 -0.4643  0.0413  0.2373
 6277W        W10341   2.906   2.137   1.228 -0.3465  0.0103 -0.1542
 6278W        W10342   0.218   5.796   2.746  0.0739 -0.1232  0.4397
 6279W        W10343   3.238   9.428   1.632  0.0022  0.0851  0.2172
 6280W        W10344   5.604   9.969   0.196 -0.0754  0.0916 -0.1740
 6281W        W10345   5.874   9.073   1.325  0.1659 -0.4559 -0.1391
 6282W        W10346   1.084   6.005   2.149  0.2477  0.0896  0.2172
 6283W        W10347   6.380   3.700   9.306 -0.0932 -0.0783  0.0142
 6284W        W10348   6.120   5.319   1.887 -0.2019  0.1152  0.0103
 6285W        W10349   4.798   8.708   1.861 -0.0330 -0.0114 -0.3475
 6286W        W10350   1.143   9.179   2.944  0.0272 -0.1173 -0.3238
 6287W        W10351   0.279   3.228   0.693  0.0831 -0.0482  0.1495
 6288W        W10352   5.388   6.591   9.617 -0.4104  0.0653 -0.0430
 6289W        W10353   8.526  10.664  10.716  0.0612  0.0816  0.1079
 6290W        W10354   0.453   3.862   1.578  0.3282  0.1758 -0.2701
 6291W        W10355   5.329   3.265   2.035  0.1286 -0.1259 -0.2916
 6292W        W10356  10.617  10.200   9.225  0.2994  0.1358 -0.0146
 6293W        W10357  10.405   2.322   2.178  0.0119  0.1918  0.0712
 6294W        W10358   6.611   3.047   8.098 -0.1124 -0.1936 -0.2026
 6295W        W10359   4.779   7.037  11.005 -0.2307 -0.1767 -0.1032
 6296W        W10360   6.986   6.020   8.734 -0.0667 -0.1601  0.1435
 6297W        W10361   2.995   9.404   7.416  0.4466  0.0737 -0.0461
 6298W        W10362   4.616   8.978   3.738  0.2659  0.0624 -0.2151
 6299W        W10363   2.017   6.943   2.092  0.1396  0.2307  0.1142
 6300W        W10364   7.176   3.094   0.915 -0.1822 -0.0897  0.0716
 6301W        W10365   5.138   7.719   7.392  0.0721 -0.2180 -0.0584
 6302W        W10366   4.028   4.976   0.453  0.0634  0.3730 -0.4180
 6303W        W10367   2.031   5.035   0.367  0.1711  0.3336 -0.0530
 6304W        W10368   5.878   9.056   8.952  0.1592  0.1804 -0.0887
 6305W        W10369   2.892   6.983   9.339 -0.1843  0.2008 -0.0200
 6306W        W10370   2.592   0.614   2.949 -0.2930  0.0995 -0.0116
 6307W        W10371   5.346   2.120   1.744 -0.2171  0.1283 -0.0932
 6308W        W10372   2.423   8.034  10.600  0.1257  0.2488 -0.0794
 6309W        W10373   8.163   8.051   0.265  0.0485  0.0399  0.2866
 6310W        W10374   9.832   5.330   0.212  0.3822 -0.1243 -0.4711
 6311W        W10375   9.042   9.677   1.559 -0.3675 -0.0744  0.0007
 6312W        W10376   7.137   8.327   2.903  0.0039  0.0483  0.0548
 6313W        W10377   2.718   3.365  10.531 -0.0078 -0.1705  0.1832
 6314W        W10378   1.592   3.608  10.522 -0.0673  0.0601 -0.1212
 6315W        W10379   4.918   0.026   8.075  0.3633  0.1869 -0.1216
 6316W        W10380   0.032  10.146   3.040  0.1565 -0.2083 -0.0820
 6317W        W10381   1.427   5.514   0.342 -0.0924 -0.0353  0.4500
 6318W        W10382   7.735   3.069   0.817  0.0019 -0.0311  0.1649
 6319W        W10383   5.709   6.014   0.283  0.4423  0.0345 -0.0490
 6320W        W10384   2.518   4.610   1.800 -0.2258  0.1518  0.2043
 6321W        W10385   5.086   4.660   1.426  0.1761  0.1459  0.1576
 6322W        W10386   2.122   6.855   1.518 -0.1896 -0.0086  0.2555
 6323W        W10387   4.244   9.579   0.506 -0.2208  0.2732  0.0221
 6324W        W10388   6.200   9.874   0.019  0.4755 -0.1620 -0.0822
 6325W        W10389   6.293  10.324   1.455 -0.1334  0.3837  0.1610
 6326W        W10390   8.019   0.364   0.102  0.2078 -0.5507 -0.1241
 6327W        W10391   0.827   4.314   8.521  0.0742 -0.2383 -0.1761
 6328W        W10392   8.114   9.165   2.310  0.3965  0.0729  0.1475
 6329W        W10393   9.740   0.097   2.217  0.1500  0.0911  0.0574
 6330W        W10394   5.198   4.485   3.271 -0.1338 -0.0083  0.2998
 6331W        W10395   8.096   0.276   1.913  0.0096  0.3659 -0.0600
 6332W        W10396   6.363  10.547   2.190 -0.3666 -0.1879  0.2437
 6333W        W10397   2.071   8.526   2.773 -0.1079  0.0499  0.1218
 6334W        W10398   9.436   1.452   0.905 -0.4209  0.4448  0.1394
 6335W        W10399   3.683   9.703   0.795  0.0932 -0.1354 -0.1576
 6336W        W10400   7.461   1.068   9.389 -0.1237 -0.3065 -0.2765
 6337W        W10401   0.088   7.889   1.709  0.0212  0.1556  0.0893
 6338W        W10402   1.063   3.431  10.806 -0.1627  0.1421  0.2984
 6339W        W10403   4.291   3.753   7.831 -0.0011  0.0408 -0.1489
 6340W        W10404   3.059   6.895   1.576 -0.1991 -0.0836 -0.2256
 6341W        W10405   3.609   8.318   3.616 -0.2726 -0.1298  0.0281
 6342W        W10406   2.680   4.723   8.976  0.2949  0.0284  0.1038
 6343W        W10407   0.204   2.109   1.374  0.1253  0.0219 -0.1860
 6344W        W10408   4.861   0.828   0.771 -0.0939 -0.0612  0.0077
 6345W        W10409   4.225   7.746   3.060  0.1513  0.1002 -0.1369
 6346W        W10410   3.158   8.854   7.169  0.0633 -0.2076  0.0037
 6347W        W10411   8.852   0.688  10.266  0.2384  0.0750 -0.1450
 6348W        W10412  10.663   4.805   8.678 -0.0664 -0.0960 -0.3372
 6349W        W10413   2.605   5.631   1.112 -0.1195 -0.0584 -0.0309
 6350W        W10414   5.607   7.295   2.845  0.0392 -0.1642  0.2202
 6351W        W10415   6.017   4.651   1.394 -0.0960  0.0451  0.3560
 6352W        W10416   2.160   5.424   9.634  0.2811  0.0847  0.1548
 6353W        W10417   6.403   0.467   1.208 -0.1792  0.0198 -0.1962
 6354W        W10418   8.213  10.044   8.045 -0.1064 -0.0708  0.0756
 6355W        W10419   4.081   0.710   8.838 -0.0400  0.1496 -0.2448
 6356W        W10420   0.227   0.107  10.375  0.0161 -0.1612  0.1994
 6357W        W10421   4.696   8.083   0.160  0.1353 -0.0950  0.1585
 6358W        W10422   8.704   5.410   2.197  0.3652  0.0585 -0.4850
 6359W        W10423   4.167  10.287   1.289  0.0415  0.0929 -0.1445
 6360W        W10424   6.565   9.806   7.567 -0.0320 -0.3476 -0.0491
 6361W        W10425   4.767   4.022   1.890  0.1069 -0.1961  0.2681
 6362W        W10426   3.533   7.335   0.065  0.0562 -0.1616 -0.0265
 6363W        W10427   5.524   4.196   1.087  0.2022 -0.1743  0.1198
 6364W        W10428   2.882   5.766  10.200  0.0576 -0.2236 -0.3080
 6365W        W10429   0.724   8.577   8.359 -0.0808  0.1766 -0.0296
 6366W        W10430   9.331   5.855   1.604  0.2932  0.0530 -0.1844
 6367W        W10431   2.019   0.986   7.823 -0.0020  0.1723  0.0289
 6368W        W10432   0.243  10.387   9.885 -0.0571  0.1864 -0.0068
 6369W        W10433   9.693   1.304   3.315 -0.1215  0.0015 -0.3097
 6370W        W10434  10.385   3.658   1.161 -0.1331 -0.0521 -0.0722
 6371W        W10435   4.057   6.398   0.773  0.0148 -0.1509 -0.0248
 6372W        W10436   2.306   8.299   1.866  0.0754  0.4421  0.0789
 6373W        W10437   7.498   5.261   7.581  0.0418 -0.0076  0.2533
 6374W        W10438   0.709   1.344  10.516 -0.2319 -0.0155  0.3089
 6375W        W10439   3.681   8.813   2.257 -0.1375  0.1986  0.0384
 6376W        W10440   8.356   9.915   9.273 -0.2761  0.3592  0.0481
 6377W        W10441   0.877   3.532   9.286  0.1313 -0.1353 -0.0951
 6378W        W10442   3.214   2.426   3.149  0.1412  0.0949 -0.3109
 6379W        W10443   8.596   1.553   1.795 -0.3331 -0.1871 -0.1884
 6380W        W10444   5.051   3.603  10.692  0.4074  0.0413  0.1309
 6381W        W10445  10.316   2.007   9.587 -0.3410 -0.1815  0.3779
 6382W        W10446  10.715   1.716   9.627 -0.0038 -0.2418 -0.2650
 6383W        W10447   3.632   2.408   2.715  0.2484 -0.1231 -0.3192
 6384W        W10448   2.819   2.381  10.152  0.2276  0.0222 -0.2788
 6385W        W10449   8.823   7.761  10.927 -0.2404  0.0997 -0.1305
 6386W        W10450   7.548   9.422   1.215 -0.0151 -0.1067 -0.2214
 6387W        W10451   6.806   9.782  10.803 -0.3848  0.1602  0.0166
 6388W        W10452   3.344   9.766   3.283  0.1510  0.3551  0.1366
 6389W        W10453   9.681   1.194   8.716 -0.1076 -0.3798  0.1189
 6390W        W10454   7.835   4.656   2.320  0.0121 -0.1640 -0.1318
 6391W        W10455   8.803   2.968  11.050  0.0586 -0.0434  0.2006
 6392W        W10456   4.789   5.067   1.503  0.2746 -0.2221 -0.0166
 6393W        W10457   0.691   5.708   7.625 -0.0292 -0.2851 -0.0536
 6394W        W10458   9.487   5.762   0.040  0.0352  0.1147 -0.2182
 6395W        W10459   4.986   9.553   8.596 -0.2450  0.2571 -0.2984
 6396W        W10460  10.662   6.265   8.611  0.3925 -0.0068 -0.2996
 6397W        W10461  10.122   2.844   1.609 -0.0815 -0.1317 -0.1173
 6398W        W10462   5.970   2.199   1.945 -0.0544 -0.0454  0.0110
 6399W        W10463   0.576  10.667   1.112 -0.1043  0.3235  0.0225
 6400W        W10464   8.124   9.991   0.487  0.0494  0.0137  0.1725
 6401W        W10465   6.784   9.047   0.946  0.0495 -0.0151 -0.0037
 6402W        W10466   4.478   9.700   8.410 -0.1851 -0.0479 -0.1428
 6403W        W10467   3.063   7.160   8.483  0.0895  0.0934  0.0649
 6404W        W10468   7.834   7.550   0.615  0.3013  0.1635 -0.0368
 6405W        W10469   9.277   2.749   1.534  0.0031  0.2127  0.1724
 6406W        W10470   3.856   4.064   7.736  0.0950  0.1260  0.0062
 6407W        W10471  10.090   4.451   1.807 -0.1902  0.0347 -0.2330
 6408W        W10472   4.130   1.841   2.569  0.1565 -0.1219 -0.0201
 6409W        W10473   6.248   2.221   0.475 -0.1208 -0.0551 -0.0924
 6410W        W10474   7.366   0.608   0.848  0.0303  0.4798 -0.3401
 6411W        W10475   9.093   2.280   9.604  0.2009 -0.1136  0.0121
 6412W        W10476   9.047   2.481   3.453  0.0504 -0.1962 -0.0873
 6413W        W10477   1.385   4.011   1.059 -0.1020  0.2079  0.0169
 6414W        W10478   8.248   7.106   2.656  0.1588  0.0983 -0.0930
 6415W        W10479   8.617   6.704   2.482  0.1510 -0.5627 -0.1567
 6416W        W10480   3.803   3.255   8.101 -0.1170  0.0250 -0.3000
 6417W        W10481   7.745   4.129   2.473  0.3414 -0.0924  0.0596
 6418W        W10482   2.918   1.375   8.668  0.3972 -0.1357 -0.1058
 6419W        W10483  10.559   4.867  10.609 -0.1173 -0.0708  0.0540
 6420W        W10484   7.402   7.950   0.060 -0.0195  0.1569 -0.0260
 6421W        W10485   1.206   0.957   0.861 -0.0628 -0.1543  0.0692
 6422W        W10486   1.427   1.765   8.112  0.2343  0.2943  0.0785
 6423W        W10487   5.614  10.584   2.026  0.2081 -0.3555  0.0790
 6424W        W10488   5.454   6.757   0.943  0.2805 -0.5873  0.1966
 6425W        W10489   3.990  10.740   7.285  0.0977  0.2101 -0.1342
 6426W        W10490   7.820   8.023   8.230 -0.0663 -0.3459  0.1489
 6427W        W10491   6.062   1.551   7.383  0.0389  0.3981  0.1512
 6428W        W10492   5.733  10.166   8.715  0.2125  0.1326  0.1502
 6429W        W10493   5.092  10.477   8.236  0.2297  0.0061 -0.2089
 6430W        W10494   5.171   4.439   2.459 -0.2080 -0.0021  0.1126
 6431W        W10495   2.075   3.673   9.696 -0.4370 -0.0023 -0.1038
 6432W        W10496   7.124   3.707   7.656  0.2923  0.3224 -0.0031
 6433W        W10497   2.590   3.838   2.245 -0.2926  0.3283 -0.0565
 6434W        W10498   2.321   3.210   1.551 -0.0707 -0.0186  0.1125
 6435W        W10499   8.068   8.365   3.031  0.1748 -0.1867  0.3617
 6436W        W10500   1.047   2.471   9.593  0.2483 -0.2440 -0.2431
 6437W        W10501   1.390   5.224   9.065 -0.0108 -0.1572 -0.2633
 6438W        W10502   7.278   0.994   8.847  0.1277 -0.2645  0.1095
 6439W        W10503  10.367   2.778   3.769 -0.1395  0.2213 -0.0374
 6440W        W10504   7.334   8.924  10.801  0.0746 -0.1528 -0.3310
 6441W        W10505   1.425   7.514   0.557 -0.0377 -0.0398 -0.1576
 6442W        W10506   8.995   2.243  10.080  0.0332  0.1018 -0.0734
 6443W        W10507   0.676   8.931   7.269 -0.0244 -0.3382  0.0734
 6444W        W10508   9.860   8.418   8.953  0.1381  0.0486  0.0835
 6445W        W10509   0.947   4.772   9.308  0.0852 -0.2048 -0.3390
 6446W        W10510   9.428   6.518   8.249 -0.2602 -0.2254 -0.0131
 6447W        W10511   3.910   7.591   8.812 -0.3456  0.0664  0.2103
 6448W        W10512   6.765   3.601  10.686 -0.4082 -0.0131  0.0757
 6449W        W10513  10.765   1.925   2.251 -0.2903 -0.0812 -0.0076
 6450W        W10514   6.162   6.765   9.823  0.0021  0.1744 -0.0482
 6451W        W10515   0.104   4.911   8.259  0.1175 -0.0567  0.0034
 6452W        W10516   3.198   9.331   8.811  0.0145 -0.0355 -0.1498
 6453W        W10517   9.838   3.841   0.672  0.4332  0.0579  0.0345
 6454W        W10518   0.507   8.698   2.542  0.1494 -0.4020 -0.0353
 6455W        W10519   9.326   9.546   3.234 -0.1072 -0.2226 -0.3876
 6456W        W10520   3.407   0.552   9.517 -0.0003 -0.2391 -0.0205
 6457W        W10521   0.117   0.574   1.815 -0.1511 -0.2316 -0.2253
 6458W        W10522   5.800   1.931   2.482  0.2028  0.0744  0.2001
 6459W        W10523   6.387   7.866   9.343 -0.2889  0.0044  0.1702
 6460W        W10524   3.420   5.504   0.697 -0.0414 -0.1063  0.0281
 6461W        W10525   4.724   4.929   0.016 -0.0641 -0.2083  0.0351
 6462W        W10526   2.197   7.698   9.313 -0.0793  0.0898 -0.1517
 6463W        W10527   3.622   4.648  10.974 -0.2558  0.2101  0.0442
 6464W        W10528   4.688   8.896   7.147 -0.1621 -0.0308  0.1272
 6465W        W10529   3.007   3.361   8.627 -0.0463  0.0236  0.2282
 6466W        W10530   6.179   1.063   0.777  0.1904 -0.0689  0.0073
 6467W        W10531   9.652   0.219  10.359  0.2622 -0.2282  0.0150
 6468W        W10532   3.803  10.316   1.618 -0.0057 -0.1735 -0.0587
 6469W        W10533   1.648   2.943   9.399 -0.0144  0.0056  0.0893
 6470W        W10534   1.387   5.041   0.174  0.1401 -0.0416  0.0400
 6471W        W10535   1.202   2.563   2.633  0.0374 -0.2011 -0.3320
 6472W        W10536   0.668   6.721   7.585 -0.1514  0.0137 -0.1081
 6473W        W10537   6.529   1.495   9.100  0.0051  0.1531  0.1921
 6474W        W10538   0.250   9.949   1.744  0.1006 -0.3162 -0.2360
 6475W        W10539  10.744   8.515   8.631 -0.3430  0.1908  0.0899
 6476W        W10540   3.298   4.014   9.424 -0.1315  0.1191 -0.2044
 6477W        W10541   7.469   1.080   0.488  0.0497  0.0486 -0.4976
 6478W        W10542   3.915   1.773   0.257 -0.0340  0.4952  0.4079
 6479W        W10543   3.340   8.618   2.615  0.0668  0.2416 -0.1183
 6480W        W10544  10.604   1.581   0.271  0.0230 -0.0737 -0.0806
 6481W        W10545   4.556   4.521  10.449  0.0155  0.0399  0.0342
 6482W        W10546   3.850   2.151   0.865 -0.0400 -0.2093  0.2548
 6483W        W10547   7.358   7.377   8.638 -0.0666  0.3080 -0.2389
 6484W        W10548  10.092   3.789   1.705 -0.0369 -0.0399 -0.0203
 6485W        W10549   9.787   9.831   0.091  0.0371 -0.2495  0.0341
 6486W        W10550   2.375   2.969   1.054  0.0360  0.3843 -0.0934
 6487W        W10551   8.143   0.413   3.895 -0.2407 -0.0854 -0.0678
 6488W        W10552   9.206   6.977  10.101  0.2952  0.0003  0.1658
 6489W        W10553   0.046   2.438   7.679 -0.0494 -0.1542 -0.2828
 6490W        W10554   3.674   2.028   2.371 -0.0850  0.2357  0.1230
 6491W        W10555   8.469   7.751  10.538  0.0353  0.1585  0.0444
 6492W        W10556   0.065   5.045   9.071 -0.3027  0.0185 -0.0257
 6493W        W10557   5.300   4.015  10.649 -0.3465  0.0234  0.1509
 6494W        W10558   4.994   6.049   3.429  0.0110  0.0046  0.2673
 6495W        W10559   1.417   7.986   6.637  0.2528  0.0636  0.0883
 6496W        W10560   8.162   1.245   1.762  0.1750  0.3668 -0.1799
 6497W        W10561   5.421   0.812   7.237  0.1616 -0.2396  0.0055
 6498W        W10562   6.089   7.899   0.729 -0.0267 -0.1835  0.0709
 6499W        W10563   6.662   0.392  10.194 -0.4849 -0.2248 -0.1534
 6500W        W10564  10.582   8.852  10.862  0.4489 -0.2838  0.0561
 6501W        W10565   1.548   0.450   7.290  0.0226 -0.1280  0.1929
 6502W        W10566   2.000   2.856   3.484 -0.1080  0.0736  0.3229
 6503W        W10567   9.649   5.808  10.563  0.0978 -0.0355 -0.0436
 6504W        W10568   3.644   4.652   0.493  0.1104 -0.4107 -0.0482
 6505W        W10569   2.416   5.309   0.236  0.0736 -0.0426  0.3569
 6506W        W10570  10.554   7.369   9.393  0.1594  0.4068 -0.1896
 6507W        W10571   2.341   7.347   1.998 -0.0363  0.0542 -0.3055
 6508W        W10572   5.245   0.818   2.718 -0.1437  0.2593 -0.1044
 6509W        W10573   1.779   6.902  10.288  0.0030 -0.2530 -0.2460
 6510W        W10574   9.983   1.422   1.040  0.0451 -0.0249  0.0950
 6511W        W10575   6.242   4.877  10.313  0.1796 -0.1700  0.2420
 6512W        W10576   3.045   8.149   7.890 -0.0416 -0.1813  0.0484
 6513W        W10577   9.476   8.610   3.265  0.0939  0.0139  0.0297
 6514W        W10578   5.673   8.344   0.542  0.1617  0.1786  0.1634
 6515W        W10579   6.589   5.196   7.168 -0.1202  0.0783  0.1118
 6516W        W10580   7.720   1.874   1.379  0.1369  0.0193 -0.1956
 6517W        W10581   4.718   5.726   3.089 -0.2881 -0.0004 -0.2906
 6518W        W10582   2.546   9.095   3.959  0.2605  0.0199  0.2288
 6519W        W10583   7.988  10.708   0.002 -0.0232  0.3221 -0.1995
 6520W        W10584   9.240   3.618   2.424  0.0848 -0.3162 -0.1165
 6521W        W10585   2.519   1.857   6.907  0.0065  0.3911 -0.4883
 6522W        W10586   9.721   2.871   2.814 -0.0842  0.0116  0.1177
 6523W        W10587   0.327   2.385   8.551 -0.2408  0.0480 -0.1993
 6524W        W10588   3.607   5.707   2.336  0.0719 -0.1610  0.2309
 6525W        W10589   1.712   3.683   7.352 -0.0945  0.0382  0.1017
 6526W        W10590   9.118   9.991   9.332  0.3881  0.0775 -0.2428
 6527W        W10591   4.091   9.485   2.859  0.0238  0.1118  0.3684
 6528W        W10592   2.539   4.332   7.582  0.1766  0.0134 -0.2885
 6529W        W10593   7.023   1.183   7.831  0.0828 -0.0726  0.0549
 6530W        W10594   5.139   6.941   2.715  0.3187  0.3330  0.0749
 6531W        W10595   0.906  10.469   7.372 -0.1034 -0.0107 -0.0210
 6532W        W10596   7.490   2.378   1.349 -0.3311  0.5994  0.2267
 6533W        W10597   6.863   3.936  11.054 -0.3939 -0.0975  0.0077
 6534W        W10598   9.047   8.693   1.314  0.1632  0.4029 -0.0229
 6535W        W10599   0.387   4.927   0.945 -0.1148  0.2297 -0.0330
 6536W        W10600  10.598   4.464   1.583  0.1587  0.3347 -0.0522
 6537W        W10601   6.589   4.646   0.467 -0.0506  0.3081  0.0723
 6538W        W10602   0.848   1.030   8.462  0.2887 -0.1486 -0.2834
 6539W        W10603   4.706   8.785   9.969 -0.1136 -0.0783 -0.0972
 6540W        W10604  10.546   1.424   2.196  0.0407  0.1605  0.0929
 6541W        W10605   6.927   1.467   8.754  0.0026 -0.1075  0.1325
 6542W        W10606   7.183   5.846   3.500 -0.1941 -0.2891 -0.2917
 6543W        W10607  10.432   9.936   0.137 -0.3423 -0.2472 -0.1101
 6544W        W10608   6.133   8.130   8.912  0.3098  0.1563  0.0283
 6545W        W10609   7.779   7.829   9.234 -0.0105  0.1276 -0.0915
 6546W        W10610   1.864   9.724   1.854  0.0542  0.2101 -0.1395
 6547W        W10611   8.562   9.256  10.552 -0.2403 -0.1077  0.3365
 6548W        W10612   0.512   2.440   7.951 -0.0185  0.1491  0.1822
 6549W        W10613   5.828   5.226   9.671  0.1011  0.4400  0.0145
 6550W        W10614   1.516   6.577   9.966 -0.1610 -0.2374 -0.1783
 6551W        W10615   1.233   7.435   3.541  0.1471  0.2514 -0.0835
 6552W        W10616   3.655  10.421   1.183  0.1498  0.2198 -0.0961
 6553W        W10617   1.584   5.444   1.101 -0.1881  0.0690 -0.0550
 6554W        W10618  10.809   6.329   9.487  0.0879 -0.1583  0.0049
 6555W        W10619   7.500   3.587   1.783 -0.0934  0.1850  0.0921
 6556W        W10620   0.172   1.212  10.485  0.2046  0.0934 -0.0493
 6557W        W10621   6.510   3.925   1.207 -0.4779 -0.2210  0.2162
 6558W        W10622   6.708   4.070   9.492  0.0376 -0.1588  0.2126
 6559W        W10623   6.400   3.025   3.153  0.1999 -0.0379 -0.3238
 6560W        W10624   6.821   1.184   3.678 -0.2763 -0.2354  0.2726
 6561W        W10625   9.060   2.158   8.923  0.1596  0.0318 -0.0132
 6562W        W10626   9.524   2.083   8.710  0.1567 -0.2748  0.3290
 6563W        W10627   1.299   1.883   8.609 -0.2085 -0.1825 -0.1295
 6564W        W10628   4.169  10.421   3.866 -0.1523 -0.1642 -0.0243
 6565W        W10629   8.424   3.188   1.729 -0.1340  0.0817 -0.1379
 6566W        W10630   7.195   6.414   2.814 -0.1753 -0.0773 -0.3109
 6567W        W10631   4.574   1.518   9.153 -0.2564 -0.0820  0.1742
 6568W        W10632   3.177   0.794  10.719  0.1604 -0.0302  0.3354
 6569W        W10633   2.315   8.458   2.360 -0.0057 -0.1398  0.1366
 6570W        W10634   3.083   8.858   8.923 -0.0368  0.0962  0.0056
 6571W        W10635   4.563   3.908  10.985 -0.0114 -0.0269  0.1321
 6572W        W10636   6.073   5.784   1.661 -0.0855  0.2253 -0.0304
 6573W        W10637   6.219   9.874   9.589 -0.0604  0.1423 -0.0099
 6574W        W10638   4.350   1.944   9.009 -0.0682  0.1074  0.4055
 6575W        W10639   2.722   8.253   6.648 -0.0212  0.1047 -0.0521
 6576W        W10640   3.649   0.402   0.793  0.2338  0.0792 -0.1433
 6577W        W10641   9.568   2.217   8.209 -0.1092 -0.0951  0.2319
 6578W        W10642   4.262   6.030   2.864  0.1465 -0.0607  0.1005
 6579W        W10643   3.898   7.658   0.707 -0.1765 -0.1796  0.1263
 6580W        W10644   2.899   8.444   2.452  0.0521  0.2090 -0.2196
 6581W        W10645   5.730   5.708  10.095  0.1021 -0.1610  0.1722
 6582W        W10646   9.415   4.117   1.020  0.2046 -0.0563 -0.3241
 6583W        W10647   4.904   6.893   1.605  0.2300  0.1679 -0.0244
 6584W        W10648   0.301   4.911   7.806 -0.0190  0.0184  0.0451
 6585W        W10649   8.085   0.243   8.708 -0.1581 -0.2309  0.0084
 6586W        W10650   6.424   4.014   3.993  0.2183  0.0504  0.3799
 6587W        W10651   8.157   7.584   8.460  0.4360 -0.0867  0.0285
 6588W        W10652   6.494   5.744  10.701  0.2112 -0.2032 -0.1400
 6589W        W10653   8.200   9.064   9.850  0.2849  0.1031  0.0990
 6590W        W10654  10.268   6.237   1.922 -0.1479  0.1989  0.1503
 6591W        W10655   2.177   1.687  10.614  0.1905 -0.1291 -0.0288
 6592W        W10656  10.228   6.911   0.331  0.1086  0.4474 -0.1833
 6593W        W10657   8.151   0.508   2.473  0.1148 -0.0096 -0.1258
 6594W        W10658   9.061   8.083   2.126  0.2803  0.0940 -0.3336
 6595W        W10659  10.067   4.615   8.991  0.2057 -0.0745 -0.2649
 6596W        W10660   7.396   4.851  10.488 -0.0633  0.1137 -0.1767
 6597W        W10661   6.465   6.967   7.718  0.0560  0.1643  0.1135
 6598W        W10662   9.165   1.339  11.007 -0.2432 -0.2336  0.0153
 6599W        W10663   7.106  10.347   1.912  0.1087  0.1883 -0.0589
 6600W        W10664   9.738   8.207   0.187 -0.0078 -0.1696  0.0568
 6601W        W10665   0.943   3.673  10.390 -0.0342  0.2004 -0.1172
 6602W        W10666   7.533   8.472   7.502  0.3599  0.1037 -0.1911
 6603W        W10667   9.936   9.757  10.103  0.0875  0.1523 -0.1522
 6604W        W10668   4.643   1.886   8.153  0.0276 -0.1863  0.1760
 6605W        W10669   0.076   4.684   2.613  0.1526 -0.2859  0.1741
 6606W        W10670   9.172  10.239  10.552 -0.0883 -0.0447  0.0316
 6607W        W10671   6.871   8.620   8.813  0.0226  0.0218 -0.0860
 6608W        W10672   6.049   6.717   3.078 -0.0082  0.0769  0.0299
 6609W        W10673   0.629   3.915   9.452  0.4663  0.1070 -0.0119
 6610W        W10674   9.054   2.612  10.782  0.0328 -0.1424 -0.1911
 6611W        W10675   6.704   6.659  10.047  0.1772  0.2249 -0.2756
 6612W        W10676   2.730   1.155   9.904 -0.2918  0.0574  0.4970
 6613W        W10677   7.716   9.286   9.956 -0.2402  0.2752 -0.1084
 6614W        W10678  10.106   7.737   1.012  0.2442 -0.4204  0.0392
 6615W        W10679   3.822  10.845   0.425  0.0829 -0.3807  0.1297
 6616W        W10680   5.040   5.479   9.418 -0.0504 -0.0447 -0.1326
 6617W        W10681   4.274   8.857   9.524  0.0225 -0.2639  0.0089
 6618W        W10682  10.684   8.096   0.115  0.1831  0.2425 -0.1294
 6619W        W10683   2.186   0.007   2.276 -0.1647  0.1876  0.1641
 6620W        W10684   0.747   2.657   8.341 -0.0992  0.1862  0.1092
 6621W        W10685   7.084   1.539  10.127  0.2853 -0.1053 -0.6585
 6622W        W10686   2.869   6.874   8.024  0.1817 -0.6713  0.1371
 6623W        W10687   8.384   6.861   7.915  0.0182 -0.0209 -0.2556
 6624W        W10688   0.575   0.841  10.628 -0.0822  0.1747 -0.1660
 6625W        W10689   4.913   9.836   2.526  0.0396  0.2417  0.0342
 6626W        W10690   8.436   3.851   0.405  0.1647 -0.0325  0.0513
 6627W        W10691   2.226   2.861   9.178  0.0342 -0.0846  0.1046
 6628W        W10692   6.228   6.149   0.418 -0.2088  0.0066  0.2456
 6629W        W10693   9.489   0.662  10.538  0.2402 -0.0848  0.3534
 6630W        W10694   9.976  10.238   3.069  0.0520  0.3234 -0.1884
 6631W        W10695   2.874   8.162  10.890 -0.1880 -0.1274 -0.2077
 6632W        W10696   0.877  10.675   7.961 -0.1590 -0.2904 -0.1486
 6633W        W10697   4.360   2.966   9.109  0.0643  0.1796 -0.0518
 6634W        W10698   0.601  10.809  10.612 -0.1201 -0.1842 -0.2100
 6635W        W10699   8.003   4.133   9.898  0.0376 -0.5603  0.1743
 6636W        W10700   6.530   0.589  10.920 -0.1307  0.1490  0.3358
 6637W        W10701  10.770   1.263   1.038  0.3180 -0.0613  0.2011
 6638W        W10702   5.437   6.280   2.849  0.5621  0.0050  0.0993
 6639W        W10703   8.673   3.592   2.731 -0.4614  0.1126  0.0743
 6640W        W10704  10.399   0.825   1.574 -0.3859  0.0991  0.0805
 6641W        W10705   4.395   4.369   3.545 -0.0299 -0.2805 -0.0923
 6642W        W10706   0.240   0.954   3.336 -0.1975 -0.2237  0.3492
 6643W        W10707   9.988   1.789   2.928 -0.0437  0.2448 -0.1258
 6644W        W10708   5.414   2.968   0.393  0.1490 -0.1141 -0.0196
 6645W        W10709   1.820   1.156   0.355 -0.3100 -0.0483 -0.1886
 6646W        W10710   9.100   3.064   0.391  0.2642 -0.2292  0.0319
 6647W        W10711   3.740   1.030   9.535  0.1326 -0.0540  0.0729
 6648W        W10712  10.212   4.355   7.152  0.0592 -0.0661 -0.4074
 6649W        W10713   1.754   1.047   2.346  0.3320 -0.1021 -0.0264
 6650W        W10714   8.235   6.641  10.541  0.3203 -0.0838  0.0909
 6651W        W10715   2.020   3.746   8.677  0.0001  0.3203 -0.1218
 6652W        W10716   0.838   4.709   9.834 -0.0823 -0.0738 -0.1728
 6653W        W10717   4.268   1.034   2.905 -0.2781  0.1194 -0.0674
 6654W        W10718   1.234   0.458   0.759 -0.0285  0.0434 -0.3788
 6655W        W10719   2.483   0.053   3.608 -0.0349  0.1540  0.1645
 6656W        W10720   1.218   7.299   1.041  0.0685 -0.1729 -0.0187
 6657W        W10721   1.776   3.489   2.122 -0.0586  0.0324  0.0348
 6658W        W10722   2.166   7.768   7.575  0.1132 -0.0126 -0.1087
 6659W        W10723   0.314   3.984   0.150 -0.0072 -0.0218 -0.0019
 6660W        W10724   6.747   5.004   0.168 -0.0187  0.2043  0.4766
 6661W        W10725   5.963   2.866   0.143  0.0784 -0.0371  0.0555
 6662W        W10726   2.786   6.750   8.512 -0.0017  0.2543 -0.1591
 6663W        W10727  10.233   1.074   3.505 -0.2464  0.0491  0.0032
 6664W        W10728   8.509   3.029   2.229  0.1405  0.1165 -0.1179
 6665W        W10729   3.028   6.890   3.058  0.2916 -0.0834  0.1028
 6666W        W10730   0.720   1.848  10.278 -0.1330  0.0750 -0.0672
 6667W        W10731   4.750   2.507   3.652  0.2957 -0.3722  0.2114
 6668W        W10732   5.139   3.325   3.361 -0.1419 -0.1482 -0.1245
 6669W        W10733   1.868   9.878   2.799 -0.2231  0.1839  0.2419
 6670W        W10734   9.986   1.168   1.555  0.2962 -0.0015 -0.0476
 6671W        W10735  10.553   5.039   3.826  0.1332  0.0889  0.0563
 6672W        W10736   9.754   9.382   1.967 -0.2212 -0.1429 -0.0698
 6673W        W10737   5.490   6.546   1.893 -0.1407  0.2850 -0.2577
 6674W        W10738   4.650   2.932   3.463  0.2651 -0.0300 -0.2762
 6675W        W10739   7.784   9.068   4.085  0.0727 -0.2048 -0.2186
 6676W        W10740   2.314   3.315   8.750  0.2759 -0.1737  0.2429
 6677W        W10741   7.892   7.157   0.286 -0.1756  0.0791 -0.0629
 6678W        W10742   4.190   4.001  10.434  0.1957 -0.1079 -0.0045
 6679W        W10743   0.061   7.645   9.330 -0.2298  0.0579 -0.2680
 6680W        W10744  10.568   7.894   2.855  0.1493  0.0273  0.1737
 6681W        W10745   1.846   1.102   1.893 -0.0527  0.2250  0.1753
 6682W        W10746   1.331   4.053   1.687  0.0876  0.2402  0.1188
 6683W        W10747   1.744   6.626   8.086 -0.3040 -0.2054  0.0697
 6684W        W10748   6.669   6.028   1.803  0.0842  0.1176  0.3096
 6685W        W10749   3.653   2.493   2.134 -0.1010  0.2569  0.0354
 6686W        W10750   8.693   8.586   0.688  0.3714 -0.0253  0.1222
 6687W        W10751   4.829   7.115  10.080  0.2470  0.1475 -0.0245
 6688W        W10752   9.471   0.756   3.330  0.3202 -0.0902 -0.7367
 6689W        W10753   3.719   7.514   2.159 -0.1491  0.0478  0.1560
 6690W        W10754   3.764   9.050   9.487 -0.0999  0.0479  0.1484
 6691W        W10755   1.895   9.031   7.789 -0.0248 -0.1741 -0.0530
 6692W        W10756   2.670   7.544   2.308 -0.5576 -0.1564 -0.2401
 6693W        W10757   7.613   3.586   7.836 -0.2022 -0.0681 -0.3176
 6694W        W10758  10.898   7.516   8.613 -0.1895  0.0603  0.0465
 6695W        W10759   9.391  10.528   8.986 -0.3441 -0.3254 -0.0304
 6696W        W10760   4.363   4.773   1.404  0.1832  0.1394  0.1056
 6697W        W10761   1.691   9.754   0.828 -0.0712  0.0828 -0.1975
 6698W        W10762   1.875  10.313   9.448 -0.1660 -0.2504  0.3743
 6699W        W10763   1.099   6.807   0.884  0.1916 -0.0919  0.0182
 6700W        W10764   3.613  10.802  10.458 -0.1461 -0.3328 -0.2251
 6701W        W10765   8.502  10.222   3.083  0.0645  0.0633  0.2037
 6702W        W10766   2.327   0.230   3.178 -0.1597  0.1291 -0.1803
 6703W        W10767   5.787   8.728   9.296  0.1653 -0.1660 -0.1430
 6704W        W10768   0.754   9.495  10.462 -0.1288 -0.1500 -0.3587
 6705W        W10769   9.264   9.169   9.235  0.3826  0.2738 -0.3375
 6706W        W10770   6.254   3.315   0.291 -0.0897  0.3532 -0.1237
 6707W        W10771   0.427   3.576   8.497  0.4988 -0.0436  0.1281
 6708W        W10772   2.562   5.127   8.130  0.3671 -0.2384 -0.0062
 6709W        W10773   8.265   5.854   8.478 -0.0931 -0.0142 -0.1039
 6710W        W10774   8.479   2.005   0.692 -0.1134  0.2755 -0.1295
 6711W        W10775   7.855  10.705   9.691  0.1601 -0.0770 -0.0181
 6712W        W10776   1.100   9.880   9.564  0.1296 -0.0450 -0.0844
 6713W        W10777   7.901   6.707   8.450 -0.2338 -0.0368 -0.0427
 6714W        W10778  10.798   7.451   2.404 -0.0508 -0.0677 -0.0954
 6715W        W10779   4.020   8.787   9.100  0.1093 -0.0344 -0.1719
 6716W        W10780   2.456   6.428   8.651 -0.0783 -0.1870  0.0282
 6717W        W10781  10.653   5.496   0.594 -0.2194 -0.2898  0.1529
 6718W        W10782  10.222   2.361   9.034 -0.1034 -0.0256  0.0918
 6719W        W10783   8.878   4.639   7.469  0.1495 -0.0833  0.0628
 6720W        W10784   9.762   1.709   9.587  0.2625 -0.0142  0.1701
 6721W        W10785   2.563   8.057   9.245 -0.1743  0.1831 -0.3556
 6722W        W10786   0.009   9.697   0.242 -0.3083 -0.0031  0.3774
 6723W        W10787   3.758   8.140   0.382  0.1700 -0.2036  0.1935
 6724W        W10788   5.656   1.001   1.452  0.1437  0.0189  0.1352
 6725W        W10789   7.405   6.780  10.255 -0.0591 -0.1146 -0.1141
 6726W        W10790   1.436   8.470   0.339 -0.0921  0.0595 -0.0540
 6727W        W10791   8.240   5.773  10.909 -0.1785  0.0599 -0.0396
 6728W        W10792   0.679   5.118  10.733  0.1893 -0.3546 -0.0872
 6729W        W10793   4.948   0.153  10.666  0.1409 -0.0910 -0.0265
 6730W        W10794   3.714   4.324   2.060 -0.2783 -0.5002  0.0046
 6731W        W10795   0.495   1.313   2.868 -0.1792  0.0338 -0.1990
 6732W        W10796   4.409   0.772   2.038  0.2222 -0.0799  0.1399
 6733W        W10797   9.527   9.356   1.491 -0.0923 -0.0663  0.4385
 6734W        W10798   6.170  10.893   1.132  0.2779  0.1290 -0.2681
 6735W        W10799   5.407   6.271   3.728 -0.4169 -0.0385  0.1075
 6736W        W10800   5.250   7.420   8.823  0.0899  0.0975  0.0227
 6737W        W10801   1.174   4.499   0.882 -0.2250 -0.0128  0.1109
 6738W        W10802  10.249   0.367   9.225 -0.3200 -0.4368  0.4064
 6739W        W10803   2.104   3.625   1.737 -0.4571 -0.0252  0.1611
 6740W        W10804   0.714   1.048  10.138 -0.0981 -0.2081  0.0789
 6741W        W10805   1.499   4.858   9.837  0.0752 -0.2074 -0.1459
 6742W        W10806   1.665   9.208   2.038 -0.0121 -0.1781 -0.2185
 6743W        W10807   5.880   1.603   4.081 -0.5765  0.0489  0.0873
 6744W        W10808   6.891   0.776   3.374  0.4834  0.3476 -0.2723
 6745W        W10809   6.383   3.595   7.309  0.3208  0.2481 -0.0101
 6746W        W10810   1.845   9.045   1.271  0.0877 -0.1309 -0.1460
 6747W        W10811   5.486   6.298   7.644 -0.2147  0.0912  0.1894
 6748W        W10812   6.537   5.320  10.428 -0.0648  0.0887  0.2399
 6749W        W10813   3.763   6.748   1.966 -0.0539  0.1806  0.0916
 6750W        W10814   6.866   5.388   0.487 -0.2502 -0.0244 -0.1236
 6751W        W10815   8.336   4.174   1.576  0.0471  0.0418  0.0658
 6752W        W10816   2.555   9.577   8.223  0.0654  0.0233 -0.0941
 6753W        W10817   4.420   9.041   9.010  0.4481 -0.2591  0.0852
 6754W        W10818   9.076   3.628  10.458  0.1358  0.0037  0.1131
 6755W        W10819   0.399   7.614   0.986 -0.1033 -0.2068 -0.0701
 6756W        W10820   2.259   2.655   0.057 -0.0088 -0.1465 -0.1067
 6757W        W10821   1.687   9.640   1.335  0.0718 -0.1242 -0.2335
 6758W        W10822   9.333  10.728  10.370 -0.0849 -0.2295 -0.0093
 6759W        W10823   7.941   9.845   9.419  0.1682 -0.0193  0.1805
 6760W        W10824   3.332   7.443   1.812  0.1072 -0.0405 -0.1077
 6761W        W10825   4.971   1.198  10.864 -0.2270 -0.0925 -0.0584
 6762W        W10826   6.713   6.313   0.470  0.1206 -0.0026 -0.0256
 6763W        W10827   8.067   5.104  10.215  0.0356 -0.0796 -0.2798
 6764W        W10828   3.648   2.906   9.748  0.0068 -0.0796 -0.0998
 6765W        W10829   4.573  10.893   0.584 -0.0970 -0.2171 -0.2448
 6766W        W10830   9.411   8.428   1.026 -0.3611 -0.2526 -0.1501
 6767W        W10831   1.667   2.836   2.387  0.2344 -0.2335  0.1020
 6768W        W10832   8.708   7.205   2.555  0.1785  0.0391 -0.2013
 6769W        W10833   1.354   7.983   9.662  0.0427 -0.0454 -0.0068
 6770W        W10834   2.009   2.080  10.334  0.2415  0.1246 -0.0212
 6771W        W10835   5.570   4.525   1.592 -0.3199  0.0948 -0.0017
 6772W        W10836   9.146  10.892   9.945  0.3287 -0.1786  0.2294
 6773W        W10837   3.943   3.232   7.238 -0.0575  0.2499  0.0713
 6774W        W10838   5.045   5.095   6.922  0.1232  0.1310 -0.0819
 6775W        W10839  10.008   2.766   0.262  0.1452  0.5119 -0.2033
 6776W        W10840   6.032   8.963   8.476  0.4001 -0.1060  0.0705
 6777W        W10841   0.028   3.267   7.889  0.2943 -0.2533  0.2240
 6778W        W10842   5.402   2.210   4.571  0.0495 -0.1930 -0.0843
 6779W        W10843  10.419   7.171   3.264  0.2362 -0.0675 -0.0252
 6780W        W10844   9.649   6.359  10.881  0.2294  0.0626 -0.1295
 6781W        W10845   0.954   9.638   8.335 -0.1095 -0.1358 -0.0029
 6782W        W10846   7.562   4.944   8.408 -0.1339 -0.1015  0.0601
 6783W        W10847   1.485   9.658   2.227  0.0138 -0.0418  0.1360
 6784W        W10848  10.010   2.300   7.735  0.0470 -0.1249 -0.0870
 6785W        W10849   0.646   2.459   1.463  0.0958  0.1518 -0.0817
 6786W        W10850  10.101   2.691   2.118  0.1652 -0.2324  0.2137
 6787W        W10851   1.760   4.409   1.512  0.3592 -0.1214  0.0410
 6788W        W10852   9.283   8.632  10.288 -0.0170 -0.1775  0.1334
 6789W        W10853   2.257   3.594   1.225  0.2502 -0.3378 -0.0877
 6790W        W10854   6.184   8.910   0.311  0.1250  0.3968  0.1095
 6791W        W10855   0.144   8.144   9.922 -0.2022 -0.0048  0.0636
 6792W        W10856   6.293   4.327  10.261  0.1225 -0.1498 -0.0180
 6793W        W10857   0.675   9.131   2.080  0.1091 -0.1038  0.1069
 6794W        W10858   8.949   2.365   1.840 -0.1165  0.0873 -0.2954
 6795W        W10859   4.562   4.919   0.516  0.1384  0.0075 -0.0285
 6796W        W10860   8.101   8.309   2.066 -0.1392  0.0111  0.1789
 6797W        W10861   1.520   2.992   0.325 -0.2850  0.1149  0.0913
 6798W        W10862   4.269   1.383   2.598 -0.1994  0.1187 -0.0790
 6799W        W10863   9.916   8.680   7.792 -0.1904 -0.1723  0.3429
 6800W        W10864   7.537   3.528   0.672  0.0053  0.1529 -0.1833
 6801W        W10865   6.261   1.070   8.163  0.0895 -0.1849  0.1266
 6802W        W10866   4.805   1.658  10.821 -0.1858 -0.1557 -0.3241
 6803W        W10867   9.014   8.556   8.977 -0.1375  0.3667 -0.0688
 6804W        W10868   3.124   8.043   1.154  0.1026 -0.2054  0.1035
 6805W        W10869   3.981  10.370   9.315  0.0896  0.1695  0.0468
 6806W        W10870  10.223   8.242   0.334 -0.4164  0.0132  0.1148
 6807W        W10871   3.833   8.016   9.634  0.0659  0.0341 -0.0903
 6808W        W10872   3.521   3.833   2.091  0.1930 -0.0738 -0.0899
 6809W        W10873  10.165   0.539   2.141 -0.1709 -0.0111  0.1839
 6810W        W10874   6.703   5.313   8.067 -0.0586  0.1883 -0.0049
 6811W        W10875   8.597   5.137   0.480  0.3027 -0.1689 -0.0342
 6812W        W10876   1.668  10.566  10.689  0.0628 -0.4632 -0.0538
 6813W        W10877   7.475  10.736   1.023 -0.0547  0.0306 -0.0667
 6814W        W10878   5.897   3.021   0.794  0.1540  0.1714  0.0656
 6815W        W10879   1.760   2.111   8.783  0.1210  0.1988 -0.2083
 6816W        W10880   6.065  10.475   0.902  0.2366 -0.1600 -0.3132
 6817W        W10881   1.420   0.833   2.686  0.2100 -0.1940 -0.1539
 6818W        W10882   6.526   8.880   7.947 -0.0427 -0.2337 -0.0580
 6819W        W10883   9.372   9.050   0.359  0.1454 -0.1695 -0.0101
 6820W        W10884  10.557   7.586   8.942 -0.0111 -0.5486  0.0168
 6821W        W10885   4.818   6.555   0.181 -0.2909  0.1045  0.1710
 6822W        W10886   8.513   9.103   2.713 -0.1251  0.0433  0.3485
 6823W        W10887   7.026   5.849   1.116  0.0666 -0.1631  0.1938
 6824W        W10888  10.825   8.710   2.394  0.2413  0.4430 -0.0629
 6825W        W10889   8.981   2.185   3.885  0.2061  0.0930 -0.0861
 6826W        W10890   1.180   3.718   7.270 -0.0148 -0.4484  0.1678
 6827W        W10891   5.786   2.008   1.520 -0.0448  0.0179 -0.0585
 6828W        W10892  10.434   5.731   9.103 -0.0246  0.3315 -0.0541
 6829W        W10893   2.047   0.759   7.329  0.1730 -0.2344 -0.0358
 6830W        W10894   1.206   0.328   2.743  0.0068  0.0231  0.0184
 6831W        W10895   1.181  10.538  10.560 -0.0555  0.0387 -0.1856
 6832W        W10896   0.371   9.238   2.885  0.0555  0.1466  0.1881
 6833W        W10897   9.548   1.039   0.731  0.0887  0.2288 -0.1124
 6834W        W10898  10.866   4.945   9.533  0.1991  0.0686  0.0479
 6835W        W10899   1.841   5.093   9.296  0.0897  0.2004  0.2418
 6836W        W10900   7.154   3.905   2.885  0.0490  0.2957  0.1419
 6837W        W10901   8.660   2.072   9.196 -0.0988  0.1892  0.3485
 6838W        W10902   4.134  10.285   8.679  0.0515  0.0416 -0.0898
 6839W        W10903   5.719   0.933   0.913  0.0323 -0.3247  0.0483
 6840W        W10904   8.669   4.385   9.293 -0.1158 -0.0797 -0.2632
 6841W        W10905   6.731   7.622  10.109  0.1164  0.0634 -0.1245
 6842W        W10906   8.690   7.358  10.710  0.1496  0.1862  0.1738
 6843W        W10907   4.846   2.859   9.234 -0.0528 -0.0228  0.4683
 6844W        W10908   0.623   9.162   0.826 -0.1673  0.1418  0.1027
 6845W        W10909   4.804   4.153  10.615  0.1048 -0.0372  0.1154
 6846W        W10910   1.428   5.128   7.073 -0.3603 -0.2557 -0.0576
 6847W        W10911   9.804   0.948   3.652  0.0414  0.1799 -0.0915
 6848W        W10912   5.057  10.417   0.937  0.1022 -0.3083  0.0187
 6849W        W10913   5.139   2.626  10.698  0.1616  0.1193 -0.3242
 6850W        W10914   8.177  10.725   7.566  0.2844 -0.0140  0.1562
 6851W        W10915   4.594   0.985   2.512 -0.1965  0.0737 -0.0885
 6852W        W10916   3.615   7.617   9.235 -0.2425 -0.4769  0.1258
 6853W        W10917   9.553   0.962  10.928  0.0392 -0.0567 -0.3662
 6854W        W10918   2.823   8.902   9.765 -0.0318 -0.0517  0.1444
 6855W        W10919   3.245   4.466  10.686  0.0868  0.1025  0.1603
 6856W        W10920   5.801   4.312   9.768 -0.0082 -0.2111  0.0945
 6857W        W10921   0.248   5.483   1.905  0.2216  0.0165 -0.1857
 6858W        W10922  10.065   4.644   9.490 -0.1550 -0.0419 -0.0498
 6859W        W10923   4.014  10.675   1.985  0.0156  0.2653 -0.4879
 6860W        W10924   2.212   0.600  10.728 -0.1289  0.2152  0.1684
 6861W        W10925   9.906   8.997   1.584 -0.0635  0.0280 -0.2062
 6862W        W10926   8.936   5.618   7.812  0.1632  0.3188 -0.1134
 6863W        W10927   7.074   8.360   9.191  0.3975 -0.1214 -0.1160
 6864W        W10928   8.880   3.776   3.198  0.2181 -0.1724 -0.1827
 6865W        W10929   8.951   9.462   9.516  0.2984 -0.2936  0.1231
 6866W        W10930   1.235   9.752   0.679 -0.1604  0.1141  0.1366
 6867W        W10931  10.252   4.461   0.509 -0.2350 -0.1849  0.0875
 6868W        W10932   3.472   6.532   9.654  0.2744 -0.1745 -0.3097
 6869W        W10933   0.410   4.333   2.793 -0.2980 -0.1880  0.2060
 6870W        W10934   8.291   3.859  10.440 -0.0013  0.0455 -0.0641
 6871W        W10935   4.721   4.429   7.669  0.0418 -0.1926  0.1541
 6872W        W10936  10.504   8.156   7.475  0.2411  0.2888  0.2843
 6873W        W10937   1.678   7.945   7.629  0.1082 -0.0583 -0.0645
 6874W        W10938   9.877   7.218   7.828 -0.3718 -0.0569 -0.1034
 6875W        W10939   2.179   5.144  10.259  0.0243  0.3077  0.4496
 6876W        W10940   3.425   8.107   8.442 -0.4936 -0.3244  0.1126
 6877W        W10941   7.311   4.309   3.774  0.1228  0.2065 -0.3897
 6878W        W10942   2.274   7.813   5.743 -0.0883 -0.1650  0.1270
 6879W        W10943  10.717   9.944  10.302  0.2039  0.1687  0.1708
 6880W        W10944   8.183   1.110   0.058 -0.0196 -0.0379 -0.2281
 6881W        W10945   8.221   5.571   1.948  0.1610  0.0094 -0.0615
 6882W        W10946   5.505   3.526  10.789 -0.0018  0.3248  0.0875
 6883W        W10947   2.698  10.718   7.768  0.3777 -0.3701  0.2905
 6884W        W10948   6.734   6.794   7.235 -0.1019  0.2536 -0.2513
 6885W        W10949   7.098   2.271   1.713 -0.1140  0.1886  0.2059
 6886W        W10950   1.018   1.118   3.874  0.1273  0.2690  0.2387
 6887W        W10951   0.381   7.207   8.284 -0.4420 -0.2488  0.1703
 6888W        W10952   9.697   4.864   0.499  0.1002 -0.0268  0.0627
 6889W        W10953   7.012  10.738   0.784 -0.1922 -0.1528 -0.2046
 6890W        W10954  10.034   6.336   1.067  0.0896 -0.1457  0.0247
 6891W        W10955   9.170   0.945   0.225 -0.0541 -0.0481 -0.0798
 6892W        W10956   5.961   6.268   9.011  0.0933  0.3461 -0.0529
 6893W        W10957   7.293   2.860   2.399 -0.3185 -0.2690 -0.1233
 6894W        W10958   3.545   2.880   2.443  0.0318  0.1466 -0.2316
 6895W        W10959   2.319   6.680  10.194 -0.2059 -0.1729 -0.2583
 6896W        W10960   0.471   5.965   6.909  0.4402  0.1067  0.1604
 6897W        W10961   4.177   7.103   2.620 -0.1578  0.0085 -0.1601
 6898W        W10962   3.027   1.028   8.360  0.0733  0.3754  0.0682
 6899W        W10963   6.408  10.733   9.744 -0.1182  0.1732  0.1309
 6900W        W10964   7.053  10.048   8.909  0.0727 -0.1877 -0.1806
 6901W        W10965   0.836   5.708   0.510 -0.1768 -0.0826  0.0630
 6902W        W10966  10.760   9.354   8.774 -0.2252 -0.0882 -0.3890
 6903W        W10967   8.375   3.718   8.328 -0.2737 -0.0875 -0.2319
 6904W        W10968   3.425   8.795   7.658  0.0466  0.2944 -0.1661
 6905W        W10969   5.877   1.811  10.600  0.1985  0.0781  0.0380
 6906W        W10970   5.810   5.404   2.523  0.2957 -0.1718 -0.0925
 6907W        W10971   2.551   0.989   8.491 -0.0708 -0.0278  0.4231
 6908W        W10972   1.012  10.655   9.794 -0.0509 -0.2589  0.1451
 6909W        W10973   4.030   6.944   1.045  0.0098  0.0087 -0.1329
 6910W        W10974   2.083   8.160   9.086  0.0820 -0.3458  0.2077
 6911W        W10975   9.652   3.586  10.747 -0.0900 -0.2097 -0.0809
 6912W        W10976  10.860   4.236  10.267 -0.6286 -0.0896  0.0284
 6913W        W10977   3.422   0.693   7.575  0.1263  0.0495  0.1118
 6914W        W10978   0.958   8.201   0.854 -0.1235  0.0315  0.2495
 6915W        W10979   0.233   2.559   1.088 -0.2035 -0.1547  0.5174
 6916W        W10980   7.682   3.626   3.211  0.0829 -0.3197 -0.2112
 6917W        W10981   1.425   0.177  10.691  0.1649 -0.1797  0.0115
 6918W        W10982   8.343   3.969   9.566  0.0473 -0.0530  0.0802
 6919W        W10983   2.123   3.938   8.210 -0.1817  0.0790 -0.0080
 6920W        W10984   5.258  10.823  10.360 -0.0373  0.1738  0.0750
 6921W        W10985  10.476   1.046  10.601  0.0240  0.4989  0.0685
 6922W        W10986   5.932   4.033  10.394 -0.0451  0.0846 -0.1653
 6923W        W10987   2.909   4.076   0.017  0.3693 -0.2078  0.4128
 6924W        W10988   6.526   0.425   9.138 -0.1007 -0.4409 -0.0057
 6925W        W10989   9.100   4.770   1.946 -0.1392  0.1583  0.2129
 6926W        W10990   1.815   3.476  10.117  0.0828  0.0838 -0.1754
 6927W        W10991   5.367   9.425   8.898  0.0010 -0.3535  0.1394
 6928W        W10992   8.092   6.125   2.254  0.0003  0.0463  0.1165
 6929W        W10993   5.064   4.548   1.904  0.0258  0.0571 -0.0996
 6930W        W10994   3.659   2.226   4.109  0.1348 -0.0614  0.2237
 6931W        W10995   9.551   7.136   0.360 -0.2040 -0.1979 -0.1269
 6932W        W10996   9.258   8.229   2.674  0.1177 -0.0291 -0.0943
 6933W        W10997  10.901   6.170   1.348  0.0198  0.4633 -0.1165
 6934W        W10998   3.216   8.231   3.299  0.1326 -0.1431 -0.0173
 6935W        W10999   7.326   2.536  10.067 -0.4865 -0.2728  0.0844
 6936W        W11000   0.933   6.025   1.516  0.1698  0.3519 -0.0386
 6937W        W11001   0.343   8.316   3.726 -0.1136 -0.1148 -0.1088
 6938W        W11002   8.231   6.797   8.875 -0.2399  0.0281  0.1125
 6939W        W11003   8.475   7.269   9.114 -0.1336  0.0091 -0.4119
 6940W        W11004   7.016   4.523   9.712  0.1732  0.1584  0.1176
 6941W        W11005   6.563   3.439   8.417 -0.2200 -0.1861  0.4346
 6942W        W11006   2.787  10.328  10.335  0.1484 -0.0781  0.2689
 6943W        W11007   6.816   4.029   2.336  0.0543 -0.3130 -0.0061
 6944W        W11008   8.702   8.193  10.669 -0.1422 -0.0667  0.2644
 6945W        W11009   5.909   0.472   0.040 -0.0545 -0.0216  0.0485
 6946W        W11010   7.000   2.388  10.380 -0.2555  0.0511 -0.2193
 6947W        W11011   7.207   3.313  10.844  0.1066  0.2842  0.0705
 6948W        W11012   7.209   8.705   7.860  0.0990  0.0433  0.1609
 6949W        W11013   0.084   7.673   8.148  0.2144 -0.1968 -0.0312
 6950W        W11014   5.547   8.875   7.891  0.0501 -0.1148  0.1735
 6951W        W11015   5.934  10.035   2.312  0.1041  0.0288  0.1030
 6952W        W11016   1.515  10.051   6.391  0.1167  0.3043  0.4564
 6953W        W11017   1.626   4.230   0.152  0.3367 -0.1593  0.0681
 6954W        W11018   1.349   5.160   7.880  0.1196 -0.1586  0.1763
 6955W        W11019   0.145   4.148   2.441 -0.0195  0.0750 -0.1271
 6956W        W11020   2.470   1.317  10.894  0.1424  0.5321  0.2137
 6957W        W11021   4.188   0.179   1.790 -0.0677 -0.1502 -0.0182
 6958W        W11022  10.411   9.540  10.112 -0.1894  0.1091  0.2144
 6959W        W11023   1.722   7.910   0.543  0.4464 -0.2946  0.0242
 6960W        W11024   7.541  10.222   1.674  0.1201 -0.0988  0.0289
 6961W        W11025  10.098   8.830  10.548  0.2155 -0.1715  0.0671
 6962W        W11026   7.399   2.669   0.985 -0.2826  0.2690  0.1335
 6963W        W11027   6.352   5.316   7.699  0.2466  0.2114  0.1203
 6964W        W11028   8.630   8.567   1.523  0.3790  0.0603 -0.1163
 6965W        W11029   9.392   7.658   1.460  0.2127  0.1206  0.0340
 6966W        W11030   0.301   9.571  10.635  0.2095 -0.1313  0.1492
 6967W        W11031   7.206   4.971   7.987 -0.1114 -0.0451 -0.1674
 6968W        W11032   0.676  10.219   9.295  0.1582  0.0566 -0.2702
 6969W        W11033  10.874   1.434   9.197  0.0718 -0.0471  0.2863
 6970W        W11034   2.489   7.232   9.593  0.1189 -0.1407 -0.2774
 6971W        W11035   1.867   4.942   1.412  0.1745  0.1448  0.0866
 6972W        W11036   1.687   7.136   2.499 -0.3157  0.1045 -0.2527
 6973W        W11037   8.279  10.140   7.456  0.0446 -0.2093  0.1045
 6974W        W11038   6.146   1.502  11.039 -0.0396  0.4616  0.2611
 6975W        W11039   8.138   2.823   3.285  0.0808 -0.1314 -0.0712
 6976W        W11040   7.871   4.395   1.438  0.1900 -0.0616 -0.0099
 6977W        W11041   3.917   6.530  10.614 -0.1776  0.1306  0.2183
 6978W        W11042   9.143   4.249   8.585  0.3598 -0.0615  0.2157
 6979W        W11043  10.004   0.583  10.111  0.1754  0.0473  0.0306
 6980W        W11044   0.401   3.203   2.622 -0.0753  0.2270  0.0595
 6981W        W11045   7.985  10.312   3.405 -0.0924  0.2649  0.1506
 6982W        W11046   5.452   9.991   9.784  0.3304  0.2226 -0.0425
 6983W        W11047   0.021  10.412   2.000  0.0646  0.0334 -0.3265
 6984W        W11048   9.801   3.044   8.723 -0.1871 -0.2560 -0.1544
 6985W        W11049   9.020   6.184   0.606  0.0100  0.0859 -0.0216
 6986W        W11050   6.637   2.464   8.967  0.0408  0.1086 -0.1382
 6987W        W11051   5.536   4.800   9.885 -0.3077  0.1261  0.0276
 6988W        W11052   2.216   1.252   8.895  0.1336  0.3020  0.1539
 6989W        W11053   0.220   6.686   9.276 -0.0018  0.1903  0.0878
 6990W        W11054   3.979   6.240   9.213 -0.2790  0.2878 -0.3362
 6991W        W11055   0.691   2.054   8.303  0.0634  0.0480  0.0498
 6992W        W11056   9.419   0.560   0.751  0.0503 -0.1591  0.2283
 6993W        W11057   8.663   1.824  10.605  0.2679 -0.3125 -0.1123
 6994W        W11058   4.560   2.222   1.625  0.1062 -0.1965 -0.0955
 6995W        W11059   2.369   1.278   2.558  0.0574  0.1965  0.1187
 6996W        W11060   5.858   8.849   0.816 -0.0121  0.0503  0.0267
 6997W        W11061   7.584  10.116   2.810  0.1482 -0.0056 -0.1624
 6998W        W11062   9.013  10.822   2.643 -0.0073 -0.1171 -0.1229
 6999W        W11063  10.446   1.709   3.160 -0.0277  0.0144  0.0579
 7000W        W11064   4.204   4.079   9.015 -0.1487  0.1775  0.1211
 7001W        W11065   2.737   5.632   1.944  0.2804  0.2322 -0.1084
 7002W        W11066   4.365   4.702   2.580 -0.2643 -0.1853 -0.1101
 7003W        W11067   8.669  10.003  10.801  0.1565  0.3761 -0.0492
 7004W        W11068   6.700   6.735   8.104  0.0832  0.0718 -0.1851
 7005W        W11069   1.923   4.600   7.851 -0.0778 -0.0340 -0.2299
 7006W        W11070   5.505   9.741   8.471  0.0887  0.2216 -0.2106
 7007W        W11071   3.004   3.699   1.960 -0.0624  0.2725  0.0109
 7008W        W11072   9.693   3.958   8.298  0.4128  0.1652 -0.0188
 7009W        W11073   3.901   5.205   3.785 -0.2791 -0.1661  0.4071
 7010W        W11074   9.045   3.825   3.714 -0.0884 -0.0932 -0.0698
 7011W        W11075   6.711   0.151   3.019 -0.1858  0.1899 -0.1019
 7012W        W11076   9.744   8.729   0.666  0.0199 -0.0018  0.4958
 7013W        W11077   8.095   7.164   8.188 -0.2727  0.0116  0.0343
 7014W        W11078   4.618   1.766   1.683 -0.0269  0.1915 -0.2558
 7015W        W11079   5.322   9.368   2.903 -0.1927  0.0497 -0.4634
 7016W        W11080   7.713   8.447   1.820 -0.1385  0.1562  0.2418
 7017W        W11081   4.674   7.169   0.943 -0.0257 -0.0925  0.1139
 7018W        W11082  10.183   9.682  10.847 -0.2033 -0.1999 -0.1001
 7019W        W11083   4.163   5.448   8.979 -0.3387 -0.0816 -0.1892
 7020W        W11084   1.413   6.991   7.746  0.0054 -0.2127  0.3304
 7021W        W11085   9.482   1.293   1.376 -0.1650 -0.0569  0.3054
 7022W        W11086   1.468   3.756   3.156  0.0744 -0.0675 -0.0892
 7023W        W11087   3.340   6.422   3.439 -0.1056  0.1652  0.0058
 7024W        W11088  10.289   4.132   0.157 -0.1154 -0.0556  0.0183
 7025W        W11089   3.371   8.114  10.682 -0.1344 -0.3163 -0.1487
 7026W        W11090   4.525  10.238   1.713  0.2058 -0.0524  0.2389
 7027W        W11091   0.295   9.728   3.037 -0.1337  0.3389 -0.3010
 7028W        W11092   7.138   2.663   0.487  0.0416  0.1890  0.0974
 7029W        W11093   8.431   1.813   8.080 -0.0219  0.2251 -0.1847
 7030W        W11094   3.786   3.897   9.205 -0.2723 -0.0599 -0.0620
 7031W        W11095   3.847   8.837  10.744 -0.2064 -0.0484  0.0813
 7032W        W11096   9.474   7.489  10.142  0.0673 -0.0417 -0.1848
 7033W        W11097   6.455   0.045   0.598  0.2065 -0.0721  0.2457
 7034W        W11098   9.200   2.665   8.689  0.2242  0.1060 -0.0159
 7035W        W11099   6.574   1.733   2.969 -0.1200  0.2994 -0.3537
 7036W        W11100   4.312   7.278  10.906 -0.3283  0.4418  0.0387
 7037W        W11101   4.904   9.115   8.971  0.0327 -0.3803 -0.0839
 7038W        W11102   7.069  10.812   2.005  0.0762  0.1153  0.0476
 7039W        W11103  10.231   2.436   0.638  0.0093  0.3262  0.0043
 7040W        W11104   7.116   9.194  10.480  0.0650 -0.0264  0.2057
 7041W        W11105  10.682   3.473  10.526  0.3134  0.0165  0.0559
 7042W        W11106   4.556  10.414   0.088 -0.0648 -0.1240 -0.1716
 7043W        W11107   9.891   3.331   0.432  0.0609  0.0366  0.0219
 7044W        W11108   3.159   9.130   9.361 -0.0923 -0.0035  0.3617
 7045W        W11109   7.670   6.000  10.191  0.2693 -0.0912  0.2170
 7046W        W11110   6.915   5.970  10.711 -0.0398  0.1772  0.2553
 7047W        W11111   0.169   0.637   0.981  0.1492  0.0643 -0.0078
 7048W        W11112   7.925   9.310   9.454  0.1007  0.1376  0.4069
 7049W        W11113   7.008   1.408   7.285 -0.1183  0.3620 -0.0916
 7050W        W11114   2.167   0.915   0.643 -0.1548  0.3903 -0.0232
 7051W        W11115   7.140  10.310   0.024 -0.0650  0.2286 -0.0237
 7052W        W11116   3.714   0.604   9.142 -0.0424  0.0709 -0.1500
 7053W        W11117   8.904   1.429   3.570  0.1261  0.2484 -0.0497
 7054W        W11118   2.814   6.454   1.736 -0.0320  0.3503  0.1377
 7055W        W11119   1.141   5.185  10.022 -0.0888  0.1571  0.2047
 7056W        W11120   0.314   8.154   8.288  0.0552  0.2157  0.1999
 7057W        W11121   7.400   2.226   0.611  0.0932  0.3073  0.2107
 7058W        W11122   7.040   7.228  10.189  0.3782 -0.0266  0.0566
 7059W        W11123   9.737   8.497  10.647 -0.0612 -0.3400  0.2691
 7060W        W11124   6.106   8.088   0.288 -0.3497 -0.3960  0.2284
 7061W        W11125   6.318   3.083   2.266  0.0809  0.0985  0.0158
 7062W        W11126   3.142   9.129   3.833  0.4186  0.0038  0.0934
 7063W        W11127   2.808   4.218   2.577 -0.0261  0.0382 -0.2395
 7064W        W11128   1.424   6.719   2.413 -0.2021  0.0905  0.1329
 7065W        W11129   2.384   4.281   2.189  0.2501  0.1518 -0.1013
 7066W        W11130  10.244   6.796   0.828  0.1199  0.0880 -0.3564
 7067W        W11131   0.936   3.629   3.978  0.1547 -0.1800 -0.2732
 7068W        W11132   9.679   2.005   2.608 -0.1219  0.1315  0.4431
 7069W        W11133   4.295   4.109   2.018 -0.0787 -0.0629  0.1035
 7070W        W11134   1.841  10.736   8.018 -0.0550 -0.3708 -0.1228
 7071W        W11135   0.662   1.840  10.899  0.2971  0.1864  0.0531
 7072W        W11136  10.142   9.323   8.836  0.0284 -0.3624 -0.0732
 7073W        W11137   8.065   4.995   8.039  0.1063 -0.1814 -0.5512
 7074W        W11138   4.579   1.139   9.496 -0.3469  0.1084 -0.0889
 7075W        W11139   1.140   0.579  10.830 -0.1752  0.2301 -0.0400
 7076W        W11140   5.897   4.970   2.843 -0.0816 -0.0742  0.4978
 7077W        W11141   5.122   3.316   1.238 -0.0336  0.1063  0.1706
 7078W        W11142  10.354   8.792   1.348  0.0895 -0.0229  0.3671
 7079W        W11143   0.890   9.261   7.601  0.0078 -0.1544 -0.1743
 7080W        W11144   7.278   4.230   2.507  0.0316  0.0221  0.2773
 7081W        W11145   1.696   4.147   2.921 -0.1048 -0.0705 -0.1394
 7082W        W11146   8.662   5.861   7.461 -0.3869 -0.0015 -0.0543
 7083W        W11147   0.463   1.369   1.612 -0.0736 -0.0214  0.2252
 7084W        W11148   0.038   1.668   7.814  0.1119  0.0693  0.1980
 7085W        W11149   8.496   0.025   7.954  0.0598 -0.1404  0.0044
 7086W        W11150   4.308  10.258  10.794  0.0860  0.2272  0.0835
 7087W        W11151  10.033   4.278   8.173 -0.3963  0.0411 -0.0628
 7088W        W11152   2.832   5.228   9.133 -0.2186  0.2446 -0.2384
 7089W        W11153   0.377   6.356   8.569 -0.2408  0.1791  0.2407
 7090W        W11154   8.078   3.829   1.842  0.2956 -0.2781  0.1627
 7091W        W11155  10.197   4.919   8.610  0.0593 -0.1592  0.0454
 7092W        W11156   6.513   8.089  10.040 -0.2316  0.0271  0.0697
 7093W        W11157   7.758   5.093   0.922 -0.2060 -0.0175 -0.1411
 7094W        W11158   6.889   1.018   2.814 -0.1282 -0.2161 -0.0183
 7095W        W11159   7.977   5.036   7.526 -0.1545  0.2035  0.0899
 7096W        W11160   1.461   7.417   8.032 -0.3749  0.2377  0.0238
 7097W        W11161   6.440   1.673  10.660 -0.0679 -0.3975 -0.0686
 7098W        W11162   3.817   1.751   9.516  0.2036 -0.0777 -0.1696
 7099W        W11163   7.297   3.019  10.006  0.2717 -0.2302  0.0199
 7100W        W11164   7.502   3.629   2.592 -0.3662  0.0728 -0.1000
 7101W        W11165   2.516   3.217   0.610  0.1770  0.3224 -0.3490
 7102W        W11166   6.148   9.785   3.066  0.1421 -0.0302 -0.0263
 7103W        W11167  10.146   9.375   1.340  0.0649  0.2586  0.2319
 7104W        W11168   8.815   5.161  10.674 -0.2414  0.0229  0.0705
 7105W        W11169   8.409   0.608  10.826  0.0840 -0.0521 -0.0974
 7106W        W11170   7.557   9.102   8.068  0.4766  0.2188 -0.0072
 7107W        W11171   8.683   4.523   0.532  0.0002  0.2145  0.3407
 7108W        W11172  10.852   2.566   3.898  0.0566 -0.0067  0.2843
 7109W        W11173   9.062   3.029   9.475  0.1053 -0.2370  0.3833
 7110W        W11174   3.324   6.892   2.048  0.0169  0.0169 -0.0118
 7111W        W11175   3.164   5.961   7.293  0.3598 -0.1494 -0.2251
 7112W        W11176   9.497   1.806   0.088 -0.0399  0.1651 -0.1550
 7113W        W11177   3.265   6.277   7.658 -0.3442 -0.0847 -0.0170
 7114W        W11178  10.723   6.518   1.718  0.1859  0.0008  0.1915
 7115W        W11179  10.728   7.139   0.291  0.0936 -0.0591  0.0375
 7116W        W11180   9.905   2.197   1.424  0.0019 -0.1967  0.0955
 7117W        W11181   8.201   5.678   2.634 -0.0143 -0.1195  0.1007
 7118W        W11182   2.613   6.009   0.280 -0.1512 -0.2757  0.3061
 7119W        W11183   7.602   2.008   1.893  0.3532 -0.0255  0.2853
 7120W        W11184   1.830   8.611   3.870 -0.0089 -0.3015 -0.0079
 7121W        W11185   6.423   3.002   1.632 -0.0854 -0.1234 -0.0542
 7122W        W11186   2.457   6.358   9.803  0.1605  0.0652 -0.0905
 7123W        W11187   7.800  10.484   1.279  0.0492 -0.1652 -0.0619
 7124W        W11188   5.234   8.579   8.597 -0.3826 -0.2348 -0.1100
 7125W        W11189   9.489   5.528   1.214  0.2489 -0.2058  0.1644
 7126W        W11190   4.928   6.175   0.582 -0.0037 -0.1335  0.2234
 7127W        W11191   8.258   1.137   2.297 -0.0820 -0.2998 -0.1692
 7128W        W11192   0.756   7.979   2.366  0.1136  0.1551  0.0535
 7129W        W11193   4.848   7.912   9.797 -0.1780 -0.0681 -0.2066
 7130W        W11194   8.104   4.402   9.447  0.0209  0.0918  0.2517
 7131W        W11195   8.704  10.249   9.215 -0.3704  0.2310  0.1289
 7132W        W11196   5.747   0.351   8.501  0.1762 -0.0944  0.1056
 7133W        W11197   5.642   2.020   3.159 -0.1816  0.3939  0.1543
 7134W        W11198   8.931   0.785   0.639 -0.1357  0.0253  0.0189
 7135W        W11199   5.827   1.039  10.221  0.2414  0.0124  0.0533
 7136W        W11200   2.917   4.663   3.163 -0.3754  0.0331  0.5023
 7137W        W11201   7.165  10.022   3.203  0.3041 -0.1539 -0.0241
 7138W        W11202   6.066   9.920   8.408  0.0165  0.0215 -0.0443
 7139W        W11203   5.625   6.754   2.904  0.0854 -0.0772 -0.0014
 7140W        W11204   6.045   4.782   9.835  0.3233  0.0126  0.1829
 7141W        W11205   9.283   0.347   4.342  0.0401  0.0535  0.0948
 7142W        W11206   2.241   7.959   2.238 -0.5132 -0.0066  0.2262
 7143W        W11207   2.289   1.847   0.475 -0.2216  0.1405 -0.0946
 7144W        W11208   9.484   7.431   8.800  0.0045  0.1568  0.2019
 7145W        W11209   0.188   5.877  10.093 -0.0791 -0.0585  0.0406
 7146W        W11210   3.992   7.515   9.783 -0.1947  0.2459  0.1559
 7147W        W11211   1.375   8.141  10.168 -0.1811 -0.0212 -0.3075
 7148W        W11212   1.417   0.086   1.271 -0.0257 -0.1224  0.0213
 7149W        W11213   1.061   8.600   7.993 -0.0961 -0.0477  0.0549
 7150W        W11214   8.608   8.575   2.826  0.0493  0.4091  0.0875
 7151W        W11215  10.852   2.039   0.412  0.4546 -0.0907 -0.0939
 7152W        W11216   4.565   9.656   9.903  0.1141  0.0400  0.0632
 7153W        W11217   6.766  10.029   0.887  0.3890  0.3163 -0.2654
 7154W        W11218   4.234   3.829   9.472  0.2583 -0.3872  0.2818
 7155W        W11219   0.619   1.645   1.149 -0.1107  0.2566  0.2669
 7156W        W11220   6.657   5.270   9.888 -0.0159  0.1143  0.2656
 7157W        W11221   3.348   0.718  10.157 -0.3702  0.0774 -0.2643
 7158W        W11222   5.680   6.867   0.512  0.1450  0.0016 -0.1348
 7159W        W11223   8.545   2.088  10.148  0.0488 -0.1796 -0.1701
 7160W        W11224   3.136   4.769  11.027 -0.1278 -0.1944 -0.1043
 7161W        W11225  10.398   1.814   8.366 -0.2265 -0.0242  0.1694
 7162W        W11226   2.822   0.257   8.882  0.1318 -0.0768  0.1954
 7163W        W11227  10.503   1.336   0.673 -0.0034  0.0064  0.0398
 7164W        W11228   0.781   0.540   8.694 -0.0497  0.2665 -0.4191
 7165W        W11229   4.338  10.720   9.441  0.1382  0.1119  0.0259
 7166W        W11230   9.365  10.380   0.765  0.1109  0.1214  0.2493
 7167W        W11231   4.547   2.439   1.147  0.0360 -0.1435 -0.0183
 7168W        W11232   1.811   6.256   3.297 -0.1625 -0.0215 -0.1214
 7169W        W11233   3.523   0.117   3.346  0.2890  0.0187 -0.2065
 7170W        W11234   9.892  10.722   9.028  0.0188  0.1055 -0.0617
 7171W        W11235   2.564   2.963   3.348 -0.1354 -0.1001 -0.0604
 7172W        W11236   0.236   7.019   8.712  0.1186 -0.1515  0.1028
 7173W        W11237   3.837   6.814   0.553 -0.0035 -0.3320 -0.0376
 7174W        W11238   3.814   0.204   8.825  0.0404  0.0542 -0.0937
 7175W        W11239   1.383   5.667   7.919 -0.3904 -0.3477 -0.0308
 7176W        W11240   4.083   2.784   8.034  0.0052 -0.2349 -0.3455
 7177W        W11241  10.279   3.190   3.524 -0.1085 -0.1800  0.0662
 7178W        W11242   8.226   8.616   8.469 -0.1627  0.0401 -0.4203
 7179W        W11243   5.388   7.884   3.590 -0.0590  0.0677 -0.3114
 7180W        W11244   7.459   0.237   1.870  0.2251  0.1903 -0.1702
 7181W        W11245   7.526   1.206   9.984 -0.0625  0.1685 -0.0934
 7182W        W11246   2.357   6.394   1.556  0.0842 -0.2096  0.1814
 7183W        W11247   9.347  10.713   0.229  0.2087 -0.1883 -0.0197
 7184W        W11248   5.289   9.533   2.458  0.1342 -0.0801  0.2963
 7185W        W11249   9.197   3.830   1.917  0.0484 -0.0553 -0.1474
 7186W        W11250   1.254   1.804   3.085  0.0392  0.2952 -0.0062
 7187W        W11251   5.905   5.653   9.208 -0.2962  0.4200 -0.1730
 7188W        W11252   7.551  10.551   3.274  0.0202 -0.0369  0.0655
 7189W        W11253   7.263   6.860   3.815  0.0495 -0.3749  0.0362
 7190W        W11254   0.716   2.731   2.801 -0.3321  0.0735  0.1870
 7191W        W11255   1.108   0.763   3.462  0.1302 -0.2778  0.1412
 7192W        W11256   1.487   2.969   8.807 -0.3614  0.0931 -0.4328
 7193W        W11257   2.685   0.790  10.812 -0.0192 -0.0656  0.0169
 7194W        W11258   5.125   1.277   7.622 -0.0148  0.1551 -0.0302
 7195W        W11259   8.632   1.586   0.215  0.2764  0.0805 -0.1097
 7196W        W11260   9.198   7.672   1.927  0.3879  0.0942 -0.2046
 7197W        W11261   9.073   9.223   1.212  0.1673  0.4679  0.2415
 7198W        W11262   2.647   2.761   7.889  0.3304  0.3451  0.1139
 7199W        W11263   7.617  10.217  10.878  0.0034  0.0614  0.0997
 7200W        W11264   1.382   6.359   0.629  0.2573  0.3437 -0.2173
 7201W        W11265   6.240   8.945   9.509  0.0178 -0.0105 -0.0611
 7202W        W11266   4.574   1.911   2.239  0.0502  0.0148 -0.3101
 7203W        W11267   0.689   4.067   2.500  0.1942 -0.1681 -0.2188
 7204W        W11268   4.330   4.020   1.357 -0.0552  0.1047 -0.2484
 7205W        W11269   7.192   8.847   9.212  0.1589 -0.1907  0.2034
 7206W        W11270   2.922   4.461  10.046 -0.0246 -0.1353 -0.0409
 7207W        W11271   0.859   2.190   3.211 -0.0234  0.0083  0.0322
 7208W        W11272   2.074   3.097   2.977  0.2624  0.0599 -0.2166
 7209W        W11273   8.139   3.147   9.011 -0.0097 -0.1188 -0.1484
 7210W        W11274   3.512   4.910   2.892  0.0687  0.1130 -0.1832
 7211W        W11275  10.187   8.512  10.198  0.0354  0.2805 -0.2385
 7212W        W11276   5.556   7.069   3.303  0.2498 -0.0731 -0.2729
 7213W        W11277   1.022   3.068   8.336 -0.0413 -0.0817 -0.2864
 7214W        W11278   7.783   5.703   0.617  0.3122  0.0658 -0.1033
 7215W        W11279   1.669   7.530   6.827  0.1893  0.2420  0.3324
 7216W        W11280   9.339   1.685  10.523 -0.0681 -0.1729  0.1582
 7217W        W11281   9.621   9.530  10.422 -0.1963 -0.1673  0.0191
 7218W        W11282   9.168   1.298   1.797 -0.0465 -0.0810  0.1128
 7219W        W11283   6.754   2.007   1.455  0.3446  0.3260  0.3084
 7220W        W11284   5.998   5.193   0.849 -0.1065  0.0440  0.1384
 7221W        W11285  10.164   9.090  10.990  0.1050 -0.0852  0.0294
 7222W        W11286   8.825   3.464  10.939 -0.1355 -0.2150  0.1026
 7223W        W11287  10.512   4.771   9.191  0.2086 -0.1406 -0.0365
 7224W        W11288   6.302   5.612   2.432  0.1632 -0.0075  0.2519
 7225W        W11289   4.174  10.215   2.964 -0.0622 -0.1339  0.0102
 7226W        W11290   3.887   5.315   3.260 -0.1964  0.2038 -0.2386
 7227W        W11291   1.030   0.850   1.623 -0.1447  0.1766  0.1240
 7228W        W11292   3.285   0.620   8.516 -0.2942 -0.2269 -0.0463
 7229W        W11293   0.605   0.692   1.996 -0.1340  0.3042 -0.0345
 7230W        W11294   6.821   3.697   1.967  0.0425  0.0900 -0.4040
 7231W        W11295   2.732   8.216   1.586  0.0452  0.0117  0.0932
 7232W        W11296   9.639   5.344   0.639 -0.2045  0.0486  0.0961
 7233W        W11297   0.813   5.248   3.351  0.2712 -0.1274  0.3331
 7234W        W11298   3.311   2.432   7.631 -0.1604 -0.1916  0.1328
 7235W        W11299   0.657   0.197   9.246 -0.0673 -0.0467  0.3743
 7236W        W11300   2.851   5.468   6.737 -0.1786  0.0133 -0.3276
 7237W        W11301   9.025   7.187   7.570  0.2090 -0.0580  0.0600
 7238W        W11302   8.936   1.761  10.226  0.0331  0.0521  0.0647
 7239W        W11303   2.379   6.284  10.497  0.0476 -0.0003 -0.0010
 7240W        W11304   6.157   0.918   0.135  0.2371  0.0710  0.1002
 7241W        W11305  10.833   2.417   8.188  0.1123  0.3427 -0.3903
 7242W        W11306   8.805   0.601   0.175 -0.1695  0.0278  0.2327
 7243W        W11307   4.472   7.998   9.116 -0.2310 -0.1892  0.1217
 7244W        W11308   8.356   1.221   8.159  0.0390  0.0657 -0.1986
 7245W        W11309   4.982   8.037   1.097  0.2572 -0.3895  0.1468
 7246W        W11310   3.550   6.586   0.010  0.0734  0.0167  0.0260
 7247W        W11311   4.470   0.537   1.552 -0.1931 -0.0530 -0.1521
 7248W        W11312   7.228   5.152   2.810  0.0218 -0.3829  0.2521
 7249W        W11313   7.675   2.572   3.513  0.0777 -0.0774  0.1482
 7250W        W11314   8.190   0.748   7.744 -0.0442 -0.0633  0.3062
 7251W        W11315   7.248   7.911   2.147  0.2524  0.0999  0.1036
 7252W        W11316   1.951   4.621   1.894 -0.2181  0.0938  0.2975
 7253W        W11317   2.870   8.570   0.260  0.4008  0.1885 -0.0299
 7254W        W11318   9.966   2.539   1.053  0.2466  0.3272 -0.2672
 7255W        W11319   4.589   6.111   2.433 -0.0911  0.0570 -0.0351
 7256W        W11320   1.685   2.307   8.302  0.1414 -0.2395  0.0797
 7257W        W11321   7.273   9.683   8.674  0.0491 -0.0401 -0.0581
 7258W        W11322   5.057   6.346   1.024  0.1056  0.2274 -0.1577
 7259W        W11323   9.798   5.800   0.417 -0.0250 -0.0184  0.0079
 7260W        W11324   3.271   5.441   8.818 -0.3451 -0.2181 -0.3785
 7261W        W11325   7.882   6.023   1.828  0.0119  0.2294  0.0976
 7262W        W11326   6.066   3.662   1.524  0.0524  0.2335 -0.1686
 7263W        W11327   1.903   7.263   1.725 -0.1714  0.3718 -0.2554
 7264W        W11328  10.528   0.949   0.028  0.1975  0.2897  0.0207
 7265W        W11329   1.191   8.910   7.082 -0.3551 -0.0920 -0.1481
 7266W        W11330   0.072   4.989   1.840 -0.1086  0.0259  0.1132
 7267W        W11331   3.943   5.116  10.851  0.2601 -0.6194 -0.0519
 7268W        W11332   1.777   9.076   8.240  0.1057  0.3629  0.0508
 7269W        W11333  10.730   6.759   1.017 -0.0783  0.1244  0.2303
 7270W        W11334   1.602   9.361  10.091 -0.2375 -0.0313  0.2212
 7271W        W11335  10.215   3.014   2.877  0.0101 -0.0320 -0.0945
 7272W        W11336   7.626   5.559   9.877 -0.2710  0.1012  0.0028
 7273W        W11337  10.471   0.603   9.719  0.0571  0.3066 -0.1809
 7274W        W11338   3.729   9.857   8.407  0.0222  0.1667  0.0377
 7275W        W11339   4.905   1.497   8.241  0.3350 -0.3470  0.3222
 7276W        W11340   0.445   5.693   9.712  0.1406 -0.3504 -0.0150
 7277W        W11341   9.922   2.037   9.243 -0.0983  0.1615 -0.0065
 7278W        W11342   3.349   0.148   2.676  0.0037  0.2103  0.0722
 7279W        W11343   1.777   2.234   4.196 -0.1533  0.0947 -0.1385
 7280W        W11344   3.811   9.143   1.882 -0.1078  0.1665 -0.1043
 7281W        W11345   1.543   6.731   7.190 -0.1165  0.1366 -0.0229
 7282W        W11346   2.420   7.087   8.429  0.1026 -0.0820 -0.0279
 7283W        W11347   7.482   0.754   9.830  0.0363 -0.0854  0.3860
 7284W        W11348   7.151  10.888   2.755 -0.0869  0.2394 -0.1348
 7285W        W11349   3.121   2.351   8.830  0.3040 -0.0976  0.1707
 7286W        W11350   5.011   1.954   1.432  0.2180  0.2439 -0.3397
 7287W        W11351   1.695   0.239   9.369  0.2962  0.2415 -0.0877
 7288W        W11352   8.652   6.672   1.410 -0.1286 -0.0375 -0.2630
 7289W        W11353  10.786   2.885   1.251 -0.2660 -0.0906 -0.1792
 7290W        W11354   9.876   2.172   0.315  0.1466  0.3617 -0.0505
 7291W        W11355   0.204  10.157   9.413  0.2504  0.2465  0.1347
 7292W        W11356   0.413   0.860   9.736  0.1903 -0.0903  0.0132
 7293W        W11357   8.454   5.297   7.838 -0.0896 -0.0438  0.3654
 7294W        W11358   7.853   9.947   3.757  0.0238 -0.0960  0.0990
 7295W        W11359   1.003   6.943  11.036  0.0599  0.0553  0.0012
 7296W        W11360   1.991   6.728   9.793 -0.0327  0.0741 -0.1364
 7297W        W11361   7.913   4.448   0.115 -0.0673 -0.2638 -0.0298
 7298W        W11362   6.838   5.435   2.703 -0.3279 -0.1724  0.0228
 7299W        W11363   4.871   4.900  10.561  0.1410  0.3467 -0.2507
 7300W        W11364   5.183   5.102   1.203 -0.0779 -0.0081  0.3925
 7301W        W11365   6.171   1.739   1.983  0.0683 -0.4327  0.0436
 7302W        W11366   9.958   8.866   8.648  0.0330  0.1582  0.3232
 7303W        W11367   7.930   6.374   3.229 -0.1940  0.1306 -0.2071
 7304W        W11368   5.690   2.560   1.772  0.0357 -0.2445  0.1375
 7305W        W11369   3.912   9.776   7.886  0.0727 -0.0228  0.1371
 7306W        W11370   1.697   4.045   0.626 -0.0047  0.0496 -0.0673
 7307W        W11371   7.222   6.772   7.962 -0.0916 -0.1776  0.2640
 7308W        W11372   0.135   0.630   0.369 -0.3666 -0.0352  0.0714
 7309W        W11373   5.538   1.084   3.051  0.1472 -0.3425 -0.0020
 7310W        W11374   3.455   4.576  10.231 -0.3158 -0.1819  0.2375
 7311W        W11375   6.520   8.335   2.735 -0.0917 -0.1092 -0.1020
 7312W        W11376   1.419   5.292   1.645 -0.1422  0.3526 -0.1889
 7313ION    NA+11377   5.292   9.790   7.946  0.0306 -0.3870  0.0637
 7314ION    NA+11378   5.603   8.420   7.755  0.3208  0.0379 -0.2467
 7315ION    NA+11379   5.822   3.026   4.155 -0.2572 -0.0732 -0.0545
 7316ION    NA+11380   2.158   8.983   8.588  0.0805  0.2966 -0.3682
 7317ION    NA+11381   9.467   2.504   2.573  0.2012  0.1735  0.3276
 7318ION    NA+11382   9.669   3.398   3.457  0.1696 -0.2857  0.1394
 7319ION    NA+11383   4.420   2.670   9.549 -0.2628 -0.3135  0.1791
 7320ION    NA+11384   3.498   4.227   3.801  0.0112  0.0497  0.0977
 7321ION    NA+11385  10.872   9.814   3.497 -0.4873 -0.2263  0.0307
 7322ION    NA+11386   2.381   9.060   1.227  0.1732 -0.2102 -0.0052
 7323ION    NA+11387   3.430   9.592   8.052 -0.1379  0.3666 -0.3310
 7324ION    NA+11388   9.707   4.033   7.761 -0.2669  0.2561 -0.0515
 7325ION    NA+11389  10.752   9.879   7.983 -0.1232  0.0209  0.5061
 7326ION    NA+11390   6.688   9.834   3.093  0.0844  0.0305 -0.4663
 7327ION    NA+11391   3.492   9.157  10.903 -0.1258 -0.0679 -0.0856
 7328ION    NA+11392   6.241   7.346   8.520 -0.0417 -0.2708  0.2098
 7329ION    NA+11393   6.672   5.147   3.693 -0.2621 -0.0891 -0.2609
 7330ION    NA+11394   4.902   2.460   8.842  0.1130  0.0959 -0.2088
 7331ION    NA+11395   0.615   5.900   1.950  0.1007  0.1509 -0.2773
 7332ION    NA+11396   7.227   4.152   8.754 -0.0158 -0.1912 -0.2911
 7333ION    NA+11397   5.595   5.724   2.901 -0.1681 -0.0192  0.0387
 7334ION    NA+11398   3.126   6.816   8.898 -0.1366 -0.1294 -0.1347
 7335ION    NA+11399   2.632   8.067   2.600  0.3766  0.0778 -0.1639
 7336ION    NA+11400   5.759   1.271   9.723 -0.0613  0.1143 -0.0308
 7337ION    NA+11401   2.110   1.474   2.119 -0.2220  0.1096 -0.1161
 7338ION    NA+11402  10.388   9.719   9.034  0.3167  0.1770  0.0217
 7339ION    NA+11403   4.026   3.173  11.000  0.0891  0.1262  0.1741
 7340ION    NA+11404   0.527   8.084   7.176  0.0817 -0.1961  0.0621
 7341ION    NA+11405   2.811   9.894   9.850 -0.1362  0.2061  0.1707
 7342ION    NA+11406   1.611   4.466  10.571  0.2779 -0.0079 -0.0681
 7343ION    NA+11407   0.621   4.518   7.760 -0.0195  0.6175 -0.4244
 7344ION    NA+11408   0.859   6.385   3.157 -0.1802 -0.0855 -0.0370
 7345ION    NA+11409   1.413   7.061   3.097  0.0761  0.1728 -0.1156
 7346ION    NA+11410   8.530   2.134   2.154  0.1002  0.1402  0.3454
 7347ION    NA+11411   4.741  10.270   7.484 -0.3000  0.2701  0.2204
 7348ION    NA+11412   7.669   6.747   0.473  0.1471 -0.0825 -0.0605
 7349ION    NA+11413   6.805   5.129   7.616 -0.2547  0.0424  0.0436
 7350ION    NA+11414   8.060   3.552   0.519  0.0844  0.2192  0.0336
 7351ION    NA+11415   8.743   5.952   1.388 -0.1747 -0.0558  0.1478
 7352ION    NA+11416   4.640   3.642  10.344  0.0240  0.1720  0.2210
 7353ION    NA+11417  10.043   9.901   0.571  0.1580 -0.0956 -0.1114
 7354ION    NA+11418   4.637   1.475   0.866 -0.1291 -0.2388 -0.2955
 7355ION    NA+11419   0.178   9.603   1.388 -0.1359  0.0522  0.1798
 7356ION    NA+11420  10.829   0.986   9.544 -0.1110 -0.0334  0.1504
 7357ION    NA+11421   7.396   0.133   2.339  0.3018  0.2801  0.3345
 7358ION    NA+11422   9.531   2.996   0.635 -0.0458 -0.1214 -0.0907
 7359ION    NA+11423   0.706   0.122   2.132  0.0077 -0.0515  0.2832
 7360ION    NA+11424   2.410   2.909   7.454  0.0085  0.0623 -0.0043
 7361ION    NA+11425   6.019   0.466   9.357  0.1748 -0.0871  0.1551
 7362ION    NA+11426   8.474   4.239  10.056 -0.1862 -0.1049 -0.0120
 7363ION    NA+11427   3.325   6.739   2.614 -0.1867 -0.1494 -0.1272
 7364ION    NA+11428   6.077   5.883  10.976  0.3654 -0.1479 -0.0587
 7365ION    NA+11429   7.857  10.408   2.349  0.0780  0.4044 -0.1425
 7366ION    NA+11430   5.050   0.645   9.476  0.0025 -0.0493 -0.4263
 7367ION    NA+11431   2.891   3.695   7.569 -0.6182  0.1826 -0.4773
 7368ION    NA+11432   9.357   4.457  10.059 -0.1734  0.1450 -0.0239
 7369ION    NA+11433   9.922   2.034   3.783 -0.1433  0.0848 -0.1030
 7370ION    NA+11434   5.648   5.519   0.552 -0.1856  0.0875  0.1907
 7371ION    NA+11435   1.354   1.370   7.542  0.1655 -0.2880 -0.3153
 7372ION    NA+11436   9.266   9.710   7.514 -0.3824 -0.1752  0.0776
 7373ION    NA+11437  10.009  10.405   7.909 -0.3558 -0.0779  0.0284
 7374ION    NA+11438   3.090   6.438   8.192 -0.0157  0.0305  0.0112
 7375ION    NA+11439   1.686   8.777   6.856 -0.0570  0.0290 -0.2322
 7376ION    NA+11440   0.307   9.408   0.545 -0.0087 -0.0491  0.0021
 7377ION    NA+11441   0.980   2.125   0.095 -0.3107  0.1894 -0.1882
 7378ION    NA+11442   6.331   4.185   9.196 -0.1221  0.0813  0.1505
 7379ION    NA+11443   6.890   8.353   7.680 -0.0697  0.3222 -0.0330
 7380ION    NA+11444   2.714   8.059   8.372 -0.1697  0.2859 -0.1422
 7381ION    NA+11445   5.105  10.169   9.370 -0.1926  0.5713 -0.1248
 7382ION    NA+11446  10.713   0.756   3.439  0.2190  0.2653 -0.1311
 7383ION    NA+11447   5.010   6.043   7.488 -0.0247 -0.1390  0.2633
 7384ION    NA+11448  10.389   6.500   2.747  0.1019  0.0192  0.1307
 7385ION    NA+11449   4.015   0.720   7.551 -0.1830  0.2733 -0.2280
 7386ION    NA+11450   2.327   9.492   9.544  0.0691 -0.0192 -0.1023
 7387ION    NA+11451   9.586   2.510   7.721 -0.0777  0.2054 -0.0566
 7388ION    NA+11452   8.538   3.457   8.823  0.1431  0.1016  0.1224
 7389ION    NA+11453  10.023   5.383   8.966 -0.0687  0.1301  0.1175
 7390ION    CL-11454   5.529   5.619   0.032 -0.0170  0.0937  0.1234
 7391ION    CL-11455   3.731   6.988   9.702 -0.0596  0.0019 -0.1148
 7392ION    CL-11456   4.600   9.928   9.385  0.4419 -0.0106 -0.2458
 7393ION    CL-11457   3.459   4.564   7.932  0.1847  0.0280  0.0480
 7394ION    CL-11458   2.608   9.879   9.358  0.0559 -0.2984  0.0220
 7395ION    CL-11459   9.933   4.634   1.366 -0.4221  0.0237  0.2344
 7396ION    CL-11460   5.932   0.731   9.759  0.0033 -0.1629  0.0189
 7397ION    CL-11461   9.037   6.023   8.155  0.3524  0.0455 -0.0415
 7398ION    CL-11462   3.296   5.947   8.906 -0.1407 -0.0037 -0.1588
 7399ION    CL-11463   5.622   8.685   8.346 -0.0227 -0.1667  0.1052
 7400ION    CL-11464   2.883   9.399   9.626  0.0137 -0.0599  0.0554
 7401ION    CL-11465   7.726   3.429   8.665  0.2717 -0.0036 -0.1172
 7402ION    CL-11466  10.265   0.508   3.454 -0.0912 -0.2111  0.0370
 7403ION    CL-11467   8.430   6.047   1.755 -0.2263  0.3632  0.2160
 7404ION    CL-11468   3.002   2.074   3.546 -0.3961  0.0198 -0.0197
 7405ION    CL-11469   2.704   7.115   8.881  0.1242  0.1228 -0.2078
 7406ION    CL-11470   6.033   0.209   8.945 -0.1545  0.1177 -0.0623
 7407ION    CL-11471  10.582   9.303   9.251  0.0435 -0.0579  0.4417
 7408ION    CL-11472   9.641   9.990   0.906  0.0038 -0.0962  0.2217
 7409ION    CL-11473   5.898   6.973   8.408 -0.2821  0.1408 -0.1175
 7410ION    CL-11474   8.893   4.377   9.790  0.0526 -0.1758  0.1197
 7411ION    CL-11475   3.542   9.488   2.894 -0.1402 -0.1889  0.2535
 7412ION    CL-11476   8.332   2.481   2.922  0.1014  0.0961  0.0754
 7413ION    CL-11477   4.396   5.728   8.205  0.3159  0.0213 -0.0263
 7414ION    CL-11478   7.665   5.175   2.490 -0.0273  0.0245  0.1312
 7415ION    CL-11479   4.821   7.693   2.159  0.0754  0.3245 -0.2489
 7416ION    CL-11480   6.864   3.927   9.037 -0.0465  0.2617 -0.2855
 7417ION    CL-11481   9.360   6.263   2.876 -0.0227  0.0929  0.1455
 7418ION    CL-11482   4.425   4.006   9.931 -0.0607 -0.1396 -0.3597
 7419ION    CL-11483   0.326   0.422   2.345 -0.0078  0.3104  0.0315
 7420ION    CL-11484   7.075   9.017   8.240  0.2451 -0.0619  0.0277
 7421ION    CL-11485   8.561   5.570  10.346  0.2620 -0.0137 -0.2854
 7422ION    CL-11486   2.958   1.189   9.333 -0.0061  0.1004  0.0260
 7423ION    CL-11487   2.977   7.707   2.725  0.3312  0.1030 -0.2962
 7424ION    CL-11488   0.453   6.716   2.270  0.5513 -0.0649  0.2921
 7425ION    CL-11489   2.385   1.172   1.654 -0.0104 -0.0778 -0.0825
 7426ION    CL-11490   1.546   8.636   7.944 -0.0605  0.3902  0.4343
 7427ION    CL-11491   8.235   5.410   8.269  0.0672  0.1998 -0.0073
 7428ION    CL-11492   1.754   9.261   8.772 -0.1597  0.2052 -0.1225
 7429ION    CL-11493   3.376   6.788   8.466  0.0943  0.0016  0.1637
 7430ION    CL-11494   0.897  10.388   8.856 -0.1427 -0.0553  0.5605
 7431ION    CL-11495   8.947   3.687   8.582 -0.1788  0.0697 -0.1367
 7432ION    CL-11496   6.619   7.234   8.197 -0.0295  0.0080  0.0663
 7433ION    CL-11497   8.979   8.512   8.462  0.0679  0.0176 -0.1872
 7434ION    CL-11498   1.029  10.592   1.895 -0.0318 -0.2681  0.1963
 7435ION    CL-11499  10.197   3.797   8.164  0.2166 -0.2047  0.1289
 7436ION    CL-11500   3.336   8.579   8.126  0.1335  0.0908  0.2923
 7437ION    CL-11501   2.071   9.250  10.142 -0.2594  0.2655 -0.0558
 7438ION    CL-11502  10.042  10.275   9.468 -0.0280  0.3140  0.1566
 7439ION    CL-11503   6.846   8.676   1.353 -0.0227  0.1772  0.2425
 7440ION    CL-11504   9.181   5.967   1.124  0.1268 -0.0411 -0.1100
 7441ION    CL-11505   2.237   8.192   3.250  0.0124 -0.0801 -0.1085
 7442ION    CL-11506   5.749   8.117   8.191 -0.2126  0.0026  0.1307
 7443ION    CL-11507   6.075  10.152   2.774  0.0225 -0.2352 -0.2557
 7444ION    CL-11508  10.709   6.831   2.949 -0.1631  0.0243 -0.1157
 7445ION    CL-11509   3.856   3.544   3.130 -0.4245  0.2111  0.3796
 7446ION    CL-11510   2.171  10.562   9.854 -0.0823  0.0681 -0.2541
 7447ION    CL-11511   7.911   4.779  10.688  0.0719  0.1703 -0.1264
 7448ION    CL-11512   9.766   3.278   1.036  0.3131 -0.0103 -0.0247
 7449ION    CL-11513   5.200   7.704   3.031  0.0025 -0.0049 -0.0232
 7450ION    CL-11514   9.847   2.304   2.266  0.0738  0.1362 -0.0547
 7451ION    CL-11515   3.620   9.653  10.981  0.3277 -0.0071  0.3103
 7452ION    CL-11516  10.003   3.597   2.396 -0.1092 -0.1116 -0.1373
 7453ION    CL-11517   7.343   4.032   8.310 -0.1508 -0.1414  0.0430
 7454ION    CL-11518   8.730   4.926   1.045 -0.4576  0.3529 -0.0165
 7455ION    CL-11519   5.758   9.127   0.328  0.3397 -0.1128  0.1066
 7456ION    CL-11520  10.568  10.592   8.482  0.1873 -0.2411  0.3286
 7457ION    CL-11521   1.634   6.026   8.354  0.0163  0.1220  0.1932
 7458ION    CL-11522   5.374   9.314   8.147  0.0420  0.0615  0.1008
 7459ION    CL-11523   9.971   5.984  11.051 -0.1804  0.0530  0.0734
 7460ION    CL-11524  10.621   9.043   7.973  0.2808 -0.0741  0.4618
 7461ION    CL-11525   6.651  10.188   2.727  0.0015  0.1384 -0.3888
 7462ION    CL-11526  10.898   0.602   8.531 -0.1395 -0.0827 -0.1119
 7463ION    CL-11527   7.874   0.013   2.257  0.0906  0.2073 -0.2324
 7464ION    CL-11528   6.855   8.761  10.490 -0.2535 -0.4607  0.2908
 7465ION    CL-11529   4.842   1.961   9.132  0.2473  0.1221  0.0109
 7466ION    CL-11530   3.381   2.989  10.515 -0.1414  0.2399  0.0173
  10.90076  10.90076  11.06647
