#include "/media/jje63/easystore1/Single_NP/Martini_Scripts/martini_v2.2.itp"
#include "/media/jje63/easystore1/Single_NP/C5/Dodecanethiol/Replica1/setup/cg.itp"
#include "/media/jje63/easystore1/Single_NP/Martini_Scripts/martini_v2.0_solvents.itp"
#include "/media/jje63/easystore1/Single_NP/Martini_Scripts/martini_v2.0_lipids_all_201506.itp"
#include "/media/jje63/easystore1/Single_NP/Martini_Scripts/martini_v2.0_ions.itp"


[ system ]
; name
Protein in INSANE! Membrane UpperLeaflet>POPC=1.0 LowerLeaflet>POPC=1.0


[ molecules ]
; name  number
AU             1
POPC           142
POPC           143
W             6418
NA+             71
CL-             71
