Protein in INSANE! Membrane UpperLeaflet>POPC=1.0 LowerLeaflet>POPC=1.0
12914
    1AU     AUC    1   9.849   8.091   6.784  0.0558 -0.0124  0.0957
    1AU     AUC    2   9.740   7.805   6.863 -0.0784  0.0805  0.0064
    1AU     AUC    3   9.593   8.093   7.025 -0.0604 -0.0719  0.0137
    1AU     AUC    4  10.036   8.125   6.515  0.0759 -0.0395 -0.0125
    1AU     AUC    5   9.949   8.417   6.751 -0.0183  0.0256  0.1093
    1AU     AUC    6  10.128   8.185   6.879  0.0610 -0.0037 -0.0315
    1AU     AUC    7   9.922   7.964   7.067 -0.0072  0.0432  0.1683
    1AU     AUC    8   9.732   8.252   6.524  0.0965  0.1024  0.0116
    1AU     AUC    9   9.508   8.021   6.715 -0.0052 -0.0967  0.0640
    1AU     AUC   10   9.604   8.338   6.802  0.0662 -0.0382 -0.0872
    1AU     AUC   11   9.862   8.297   7.017 -0.0932  0.0172 -0.0017
    1AU     AUC   12   9.804   7.903   6.531 -0.0247 -0.0203 -0.0020
    1AU     AUC   13  10.035   7.858   6.759  0.0076 -0.0515 -0.0358
    1AU     AUC   14   9.641   7.455   6.996 -0.0146 -0.0805 -0.0004
    1AU     AUC   15   9.461   7.741   7.161 -0.0302  0.0096 -0.0294
    1AU     AUC   16   9.344   8.075   7.252 -0.0892  0.0097 -0.0108
    1AU     AUC   17  10.250   8.195   6.255  0.0353  0.0089  0.0319
    1AU     AUC   18  10.174   8.490   6.452  0.0849 -0.0170  0.0651
    1AU     AUC   19  10.064   8.737   6.665  0.0722  0.1188  0.0354
    1AU     AUC   20  10.450   8.232   6.984 -0.0926 -0.0076 -0.0136
    1AU     AUC   21  10.271   8.025   7.200  0.1855 -0.0122 -0.0201
    1AU     AUC   22  10.031   7.825   7.376 -0.1119  0.1270  0.0153
    1AU     AUC   23   9.612   8.374   6.239 -0.0225 -0.0534 -0.0529
    1AU     AUC   24   9.378   8.145   6.384 -0.0322  0.0259  0.0253
    1AU     AUC   25   9.171   7.945   6.597 -0.0077  0.0588  0.0848
    1AU     AUC   26   9.344   8.597   6.814 -0.0291 -0.0048  0.0255
    1AU     AUC   27   9.605   8.589   7.058  0.0384 -0.0263 -0.0190
    1AU     AUC   28   9.866   8.520   7.309  0.0391  0.0435 -0.0263
    1AU     AUC   29   9.744   7.666   6.320  0.0642  0.0688 -0.1501
    1AU     AUC   30  10.039   7.606   6.482  0.0105  0.0807  0.0341
    1AU     AUC   31  10.280   7.612   6.739  0.0532  0.0374  0.0239
    1AU     AUC   32   9.304   8.333   7.019 -0.0693  0.0075  0.0029
    1AU     AUC   33   9.568   8.318   7.293 -0.0449 -0.0464  0.0277
    1AU     AUC   34   9.715   7.499   6.647 -0.0658 -0.0306 -0.0590
    1AU     AUC   35   9.965   7.515   6.855  0.0327  0.0709  0.0481
    1AU     AUC   36   9.722   8.709   6.794  0.0233 -0.0234 -0.0121
    1AU     AUC   37   9.983   8.648   7.022 -0.0224 -0.1079 -0.1034
    1AU     AUC   38  10.006   7.929   6.281  0.0027  0.0236 -0.0373
    1AU     AUC   39  10.289   7.884   6.442  0.0880  0.0267  0.0373
    1AU     AUC   40   9.840   7.644   7.216 -0.0310  0.0073  0.0985
    1AU     AUC   41   9.690   7.946   7.318 -0.0411  0.0297  0.0310
    1AU     AUC   42  10.380   8.198   6.620 -0.0412  0.0467 -0.0257
    1AU     AUC   43  10.298   8.507   6.828  0.1693  0.0253 -0.0488
    1AU     AUC   44   9.409   7.684   6.800  0.0293 -0.0395 -0.0687
    1AU     AUC   45   9.239   7.970   6.920  0.0362  0.0160 -0.0463
    1AU     AUC   46   9.925   8.332   6.227  0.0621  0.0618  0.1002
    1AU     AUC   47   9.828   8.578   6.469  0.0440 -0.0864  0.0937
    1AU     AUC   48  10.183   8.357   7.173  0.0824  0.0115  0.0475
    1AU     AUC   49   9.964   8.176   7.362 -0.0016 -0.1022  0.0339
    1AU     AUC   50   9.476   8.493   6.508 -0.0091 -0.0569  0.0311
    1AU     AUC   51   9.259   8.263   6.667 -0.0604 -0.0525  0.0196
    1AU     AUC   52  10.360   7.942   6.829 -0.0162 -0.0239 -0.0288
    1AU     AUC   53  10.156   7.710   7.077 -0.0931  0.0961  0.1073
    1AU     AUC   54   9.661   8.021   6.227  0.0249  0.0060 -0.0190
    1AU     AUC   55   9.449   7.769   6.483 -0.0184  0.0222  0.0420
    1AU    AUSL   56   9.149   8.407   7.372 -0.0352 -0.0393 -0.0718
    1AU    AUSL   57   8.987   8.487   6.927  0.0109  0.0730 -0.0045
    1AU     AUL   58   8.811   8.403   7.256  0.0409 -0.0050  0.0406
    1AU       S   59   8.507   8.347   6.866  0.1132 -0.3736 -0.0853
    1AU     LIG   60   8.136   8.541   7.052 -0.0954 -0.2150  0.2377
    1AU     LIG   61   7.642   8.553   7.075  0.0914 -0.1013  0.0980
    1AU     LIG   62   7.255   8.773   6.912  0.0318  0.0062  0.1445
    1AU     LIG   63   6.951   8.870   6.716  0.1834 -0.4048  0.1731
    1AU     LIG   64   6.668   9.043   6.878  0.1691 -0.1541  0.1033
    1AU       S   65   8.896   8.798   7.479 -0.4434  0.2161  0.0543
    1AU     LIG   66   8.725   9.124   7.478 -0.1312 -0.1429 -0.1998
    1AU     LIG   67   8.409   9.440   7.415  0.0396 -0.2979 -0.0867
    1AU     LIG   68   8.275   9.725   7.193 -0.3602  0.0145 -0.3327
    1AU     LIG   69   8.148   9.986   6.778 -0.0987 -0.0192  0.0253
    1AU     LIG   70   8.172   9.858   6.342  0.2763 -0.0091 -0.1942
    1AU    AUSL   71   9.251   8.768   7.139 -0.0396  0.0808 -0.0290
    1AU    AUSL   72   9.722   8.924   7.296  0.0158  0.0352  0.0152
    1AU     AUL   73   9.368   8.994   7.398  0.0891  0.0568  0.0911
    1AU       S   74   9.000   8.916   7.168 -0.0065  0.1667 -0.0367
    1AU     LIG   75   8.499   8.924   7.013  0.2195 -0.2701 -0.2528
    1AU     LIG   76   8.023   9.090   7.126  0.0582  0.2324  0.0309
    1AU     LIG   77   7.818   9.479   7.232  0.2038  0.0303  0.2478
    1AU     LIG   78   7.387   9.705   7.091  0.3600  0.1263 -0.2781
    1AU     LIG   79   7.079   9.896   6.820 -0.4545  0.3168  0.0461
    1AU       S   80   9.630   9.326   7.197 -0.0432  0.0766 -0.4760
    1AU     LIG   81   9.285   9.650   7.360 -0.0034 -0.0488 -0.1898
    1AU     LIG   82   8.922   9.718   7.501 -0.1724 -0.0743  0.1607
    1AU     LIG   83   8.671   9.536   7.816 -0.1369 -0.4451 -0.0984
    1AU     LIG   84   8.267   9.536   7.941 -0.0253  0.0924  0.0738
    1AU     LIG   85   8.095   9.591   8.366 -0.1596  0.1576  0.1363
    1AU    AUSL   86   9.578   8.519   7.314  0.0333  0.0335 -0.0788
    1AU    AUSL   87   9.436   8.211   7.611 -0.0254 -0.1256 -0.0673
    1AU     AUL   88   9.333   8.571   7.619 -0.0285  0.0414 -0.0326
    1AU       S   89   9.693   8.901   7.741  0.4846  0.1161 -0.0148
    1AU     LIG   90   9.834   9.187   7.915  0.4750 -0.0770  0.0012
    1AU     LIG   91  10.048   9.574   7.972 -0.4894 -0.0073 -0.3708
    1AU     LIG   92   9.737   9.825   8.168  0.0723  0.1872 -0.1122
    1AU     LIG   93   9.355   9.936   8.327  0.0389  0.0277  0.2317
    1AU     LIG   94   9.080  10.303   8.379 -0.0836 -0.0749 -0.1001
    1AU       S   95   9.377   8.215   7.980 -0.0755 -0.0471 -0.0945
    1AU     LIG   96   8.977   8.431   8.091 -0.0755  0.2254  0.0514
    1AU     LIG   97   8.873   8.906   8.001 -0.2426 -0.0440 -0.3720
    1AU     LIG   98   9.138   9.206   7.928 -0.0056 -0.0422 -0.0131
    1AU     LIG   99   9.347   9.573   7.857  0.0432  0.1907  0.0549
    1AU     LIG  100   9.570   9.939   7.703  0.4223  0.4907  0.3100
    1AU    AUSL  101   9.906   7.150   6.846  0.0488  0.0237 -0.0591
    1AU    AUSL  102  10.197   7.469   6.990 -0.0571 -0.0176 -0.0376
    1AU     AUL  103  10.327   7.191   6.965  0.0272  0.0694  0.0480
    1AU       S  104  10.126   6.826   6.645 -0.1376  0.0259 -0.3566
    1AU     LIG  105  10.398   6.549   6.742  0.1622 -0.0717  0.0733
    1AU     LIG  106  10.704   6.405   7.067 -0.0522 -0.1034 -0.0570
    1AU     LIG  107  11.037   6.088   6.869  0.1980 -0.2612  0.3284
    1AU     LIG  108  11.254   5.786   6.653  0.0681  0.0098  0.1928
    1AU     LIG  109  11.406   5.407   6.460 -0.0182  0.1804 -0.0481
    1AU       S  110  10.043   6.997   7.259 -0.0816 -0.4175 -0.0082
    1AU     LIG  111  10.156   6.551   7.173 -0.0128  0.3438 -0.1871
    1AU     LIG  112  10.264   6.123   6.986 -0.2616 -0.0303  0.0056
    1AU     LIG  113  10.580   5.897   6.865 -0.3295 -0.2265 -0.1574
    1AU     LIG  114  10.801   5.694   6.551  0.1132 -0.3193  0.2621
    1AU     LIG  115  10.873   5.424   6.285 -0.0979 -0.1768  0.1468
    1AU    AUSL  116   9.797   7.217   6.432 -0.0371  0.0248  0.0379
    1AU    AUSL  117   9.484   7.221   6.776  0.0286 -0.0566 -0.0968
    1AU     AUL  118   9.648   6.969   6.768 -0.0206 -0.0173  0.0268
    1AU       S  119   9.185   6.948   6.568  0.1715  0.1826 -0.0310
    1AU     LIG  120   9.145   6.476   6.664  0.0140  0.2802 -0.0561
    1AU     LIG  121   8.939   6.015   6.846  0.0003 -0.1854 -0.1068
    1AU     LIG  122   8.827   5.593   7.133  0.0414 -0.4785  0.2938
    1AU     LIG  123   8.537   5.261   7.116  0.0729 -0.4691  0.3959
    1AU     LIG  124   8.466   4.908   6.894  0.3394  0.0043  0.1085
    1AU       S  125   9.971   6.820   6.432  0.0047  0.0957 -0.1167
    1AU     LIG  126   9.849   6.379   6.798 -0.1138  0.3839  0.0127
    1AU     LIG  127   9.508   6.109   6.793  0.0852 -0.1820 -0.1482
    1AU     LIG  128   9.158   6.107   6.336 -0.2508 -0.5545 -0.0136
    1AU     LIG  129   8.861   6.003   6.052 -0.2015 -0.3019  0.0406
    1AU     LIG  130   8.653   5.714   5.781 -0.2244 -0.0789 -0.0236
    1AU    AUSL  131  10.200   7.352   6.568 -0.0262  0.0090 -0.0448
    1AU    AUSL  132   9.993   7.546   6.214 -0.0438 -0.0051 -0.0065
    1AU     AUL  133  10.024   7.215   6.202 -0.0040 -0.0071 -0.0760
    1AU       S  134  10.299   7.342   5.885  0.0000  0.1735  0.2423
    1AU     LIG  135  10.438   6.781   6.036 -0.1273 -0.1013  0.2199
    1AU     LIG  136  10.356   6.482   6.244  0.3314  0.1369 -0.1044
    1AU     LIG  137  10.031   6.139   6.396  0.1547 -0.1495  0.0626
    1AU     LIG  138   9.980   5.833   6.727 -0.1097  0.1517 -0.0598
    1AU     LIG  139   9.899   5.459   6.660  0.1232  0.1910 -0.3780
    1AU       S  140  10.264   6.994   6.537 -0.0570  0.1150 -0.3489
    1AU     LIG  141  10.686   6.793   6.424 -0.1544  0.2798  0.0145
    1AU     LIG  142  10.978   6.736   6.819  0.1121  0.2453 -0.1097
    1AU     LIG  143  11.417   6.817   6.785  0.0271  0.1259  0.0679
    1AU     LIG  144  11.638   6.626   6.438 -0.0036 -0.1274  0.2104
    1AU     LIG  145  12.143   6.862   6.312 -0.2048 -0.0419 -0.3157
    1AU    AUSL  146   9.949   8.991   6.922  0.1135  0.0138 -0.0719
    1AU    AUSL  147  10.091   8.708   7.276 -0.0160 -0.1182 -0.0461
    1AU     AUL  148  10.002   9.062   7.311 -0.1009 -0.0782  0.0853
    1AU       S  149   9.668   9.369   7.037 -0.0401  0.3064  0.1924
    1AU     LIG  150   9.593   9.792   6.968  0.2861  0.0056  0.0048
    1AU     LIG  151   9.673  10.176   6.874  0.0519  0.3895  0.3272
    1AU     LIG  152   9.752  10.516   7.088  0.0617 -0.1754 -0.1458
    1AU     LIG  153   9.627  10.785   7.385 -0.0635  0.1102  0.1119
    1AU     LIG  154   9.935  10.997   7.729  0.5495 -0.0673 -0.0535
    1AU       S  155  10.511   9.001   7.289  0.0759 -0.0573  0.0620
    1AU     LIG  156  10.780   9.243   7.309  0.1071  0.1717  0.2208
    1AU     LIG  157  10.887   9.747   7.207 -0.0070 -0.0404  0.3300
    1AU     LIG  158  10.959  10.189   7.013  0.1008  0.1221  0.2404
    1AU     LIG  159  11.267  10.561   7.052 -0.2657 -0.0303 -0.1973
    1AU     LIG  160  11.542  10.574   6.765 -0.0262 -0.4942 -0.3320
    1AU    AUSL  161   9.583   8.779   6.887  0.0325  0.1251 -0.0168
    1AU    AUSL  162   9.743   9.044   6.528  0.0046  0.0212  0.0143
    1AU     AUL  163   9.932   9.159   6.737  0.1117  0.0033 -0.1688
    1AU       S  164   9.545   9.327   6.482 -0.1451  0.2816 -0.1689
    1AU     LIG  165   9.604   9.756   6.444 -0.2787  0.0612 -0.1421
    1AU     LIG  166   9.564  10.206   6.347 -0.2115 -0.0047  0.1537
    1AU     LIG  167   9.347  10.455   6.687  0.2173 -0.2972  0.1867
    1AU     LIG  168   9.243  10.625   7.056 -0.0539 -0.0638  0.1720
    1AU     LIG  169   9.094  10.853   7.412  0.0851  0.1007 -0.0243
    1AU       S  170   9.473   9.121   6.962 -0.0290  0.0733  0.2896
    1AU     LIG  171   9.037   9.353   7.023 -0.3920 -0.3019  0.2015
    1AU     LIG  172   8.609   9.402   6.983 -0.2143  0.0534 -0.2134
    1AU     LIG  173   8.139   9.486   6.755  0.0463  0.0889  0.0299
    1AU     LIG  174   7.730   9.732   6.731 -0.0108  0.1010 -0.0538
    1AU     LIG  175   7.727  10.167   6.536 -0.0251  0.1223  0.1514
    1AU    AUSL  176  10.250   7.847   6.011 -0.0471  0.0249  0.0276
    1AU    AUSL  177   9.801   7.877   6.020  0.0018  0.0608 -0.0430
    1AU     AUL  178   9.943   7.630   5.877 -0.0580  0.0020 -0.0738
    1AU       S  179  10.364   7.473   5.779 -0.2371 -0.1944 -0.1949
    1AU     LIG  180  10.608   7.159   5.573  0.1167 -0.0137 -0.0555
    1AU     LIG  181  10.805   6.749   5.677 -0.0116 -0.3896 -0.0219
    1AU     LIG  182  11.068   6.636   6.163  0.4152  0.2709  0.1801
    1AU     LIG  183  11.254   6.414   6.554 -0.3011 -0.2415 -0.4419
    1AU     LIG  184  11.509   6.341   6.977 -0.0156  0.1257 -0.1823
    1AU       S  185   9.960   7.962   5.561 -0.0222  0.0518 -0.1179
    1AU     LIG  186   9.917   7.761   5.291  0.0477 -0.2423 -0.4478
    1AU     LIG  187   9.650   7.656   5.069  0.0994 -0.3132 -0.1547
    1AU     LIG  188   9.218   7.818   4.852 -0.0758 -0.2487 -0.3808
    1AU     LIG  189   8.978   7.520   4.715 -0.2843 -0.3596 -0.0557
    1AU     LIG  190   8.590   7.359   4.530  0.2018 -0.1170  0.1839
    1AU    AUSL  191  10.444   7.549   6.301  0.1981 -0.1008  0.0710
    1AU    AUSL  192  10.576   7.999   6.299  0.0131  0.0795 -0.0265
    1AU     AUL  193  10.588   7.787   6.017  0.1163  0.0604  0.0094
    1AU       S  194  10.968   7.906   6.229  0.4048  0.0528 -0.0724
    1AU     LIG  195  11.372   7.991   5.964  0.1320 -0.2569  0.2293
    1AU     LIG  196  11.766   8.144   6.034  0.2160  0.0907 -0.1044
    1AU     LIG  197  12.189   7.965   6.102 -0.1916 -0.1202 -0.0930
    1AU     LIG  198  12.403   7.729   6.368  0.1252  0.4305  0.1066
    1AU     LIG  199  12.569   7.474   6.737  0.1361 -0.0787 -0.0402
    1AU       S  200  10.482   7.347   6.070  0.1173  0.1152  0.5416
    1AU     LIG  201  10.871   7.162   6.086 -0.3533 -0.2726  0.2369
    1AU     LIG  202  11.192   7.072   6.402  0.0693 -0.2408  0.5316
    1AU     LIG  203  11.311   7.272   6.669  0.0617 -0.0314  0.2355
    1AU     LIG  204  11.279   7.208   7.063  0.1891  0.1525  0.0181
    1AU     LIG  205  11.545   7.263   7.420  0.1322  0.1371  0.0630
    1AU    AUSL  206   9.783   7.618   7.575  0.0723 -0.0688  0.0737
    1AU    AUSL  207   9.791   7.393   7.177  0.0029  0.0029  0.0666
    1AU     AUL  208   9.778   7.320   7.665 -0.0002 -0.0997 -0.0733
    1AU       S  209   9.777   7.038   7.277 -0.0176 -0.1041 -0.0787
    1AU     LIG  210   9.678   6.578   7.292 -0.0006 -0.1672  0.3163
    1AU     LIG  211   9.744   6.210   7.253  0.0633  0.0015 -0.0672
    1AU     LIG  212   9.936   5.810   7.245  0.0574  0.0668  0.0709
    1AU     LIG  213  10.064   5.402   7.314 -0.1169  0.0397 -0.0776
    1AU     LIG  214  10.498   5.474   7.463 -0.5117 -0.1839  0.3571
    1AU       S  215   9.455   7.505   7.903  0.1302  0.1621 -0.0825
    1AU     LIG  216   8.948   7.376   8.047 -0.3210  0.0458  0.1566
    1AU     LIG  217   8.578   7.074   7.874  0.0887 -0.1934 -0.3381
    1AU     LIG  218   8.287   7.338   7.589  0.0250  0.0887 -0.1233
    1AU     LIG  219   8.047   7.314   7.213  0.2633  0.1821  0.0117
    1AU     LIG  220   7.625   7.098   7.067 -0.0499 -0.0358 -0.2674
    1AU    AUSL  221   9.413   7.397   7.389 -0.0533  0.0824  0.0782
    1AU    AUSL  222   9.050   7.712   7.292 -0.0242 -0.0197  0.0162
    1AU     AUL  223   9.065   7.344   7.416 -0.0284  0.0037  0.0214
    1AU       S  224   9.316   7.451   7.779 -0.0825  0.4628 -0.4199
    1AU     LIG  225   9.331   7.081   8.097 -0.0265  0.1327 -0.1997
    1AU     LIG  226   9.566   6.783   8.228 -0.0038  0.4751 -0.1390
    1AU     LIG  227   9.616   6.505   7.873  0.0213 -0.1328 -0.0839
    1AU     LIG  228   9.386   6.322   7.618 -0.2924 -0.2090 -0.0306
    1AU     LIG  229   9.237   5.980   7.305 -0.3076  0.1277 -0.1398
    1AU       S  230   8.676   7.503   7.211 -0.5145 -0.0341  0.1836
    1AU     LIG  231   8.347   7.660   7.167  0.0782  0.0050  0.0629
    1AU     LIG  232   8.013   7.865   7.429 -0.0144 -0.1603  0.1095
    1AU     LIG  233   7.700   8.157   7.355  0.0344  0.2715  0.0670
    1AU     LIG  234   7.249   8.172   7.354  0.0273  0.0510 -0.1489
    1AU     LIG  235   6.830   8.168   7.127 -0.4092  0.3085  0.1895
    1AU    AUSL  236   9.452   7.835   7.392 -0.0453 -0.0723 -0.0493
    1AU    AUSL  237   9.841   8.043   7.534 -0.1229  0.0549  0.0850
    1AU     AUL  238   9.653   7.897   7.755  0.0709 -0.0578 -0.0098
    1AU       S  239   9.612   8.191   8.093  0.3138  0.0171  0.2826
    1AU     LIG  240  10.009   8.075   8.434  0.2138  0.0510  0.2656
    1AU     LIG  241  10.389   8.237   8.405  0.2170 -0.1520 -0.2133
    1AU     LIG  242  10.812   8.238   8.279  0.0182 -0.2428 -0.0895
    1AU     LIG  243  11.210   8.444   8.145  0.1010  0.1624 -0.0627
    1AU     LIG  244  11.533   8.330   7.734 -0.0884  0.0172 -0.1397
    1AU       S  245   9.227   7.716   7.758 -0.0891 -0.3519  0.4617
    1AU     LIG  246   9.084   7.895   8.092 -0.0373  0.0756  0.2932
    1AU     LIG  247   9.028   8.085   8.501 -0.2649 -0.0221  0.1619
    1AU     LIG  248   8.849   8.425   8.528  0.1381  0.0954  0.4305
    1AU     LIG  249   8.929   8.699   8.861 -0.1843 -0.4210 -0.1561
    1AU     LIG  250   8.779   8.939   9.104  0.4262  0.0824 -0.0247
    1AU    AUSL  251  10.607   8.441   6.773 -0.0107 -0.0292  0.0301
    1AU    AUSL  252  10.312   8.760   6.891 -0.0663 -0.0011 -0.0179
    1AU     AUL  253  10.741   8.768   6.835 -0.0513  0.0352 -0.1147
    1AU       S  254  10.415   9.028   7.036  0.1658  0.0609  0.2718
    1AU     LIG  255  10.585   9.457   6.803  0.1860 -0.2598 -0.4727
    1AU     LIG  256  10.505   9.827   6.830  0.1848 -0.3752  0.1495
    1AU     LIG  257  10.573  10.241   6.569 -0.1748  0.0498  0.4456
    1AU     LIG  258  10.559  10.181   6.259 -0.0859  0.0776  0.0833
    1AU     LIG  259  10.491   9.799   5.978 -0.1046  0.1033  0.2152
    1AU       S  260  10.961   8.376   6.975  0.0651 -0.4855  0.1027
    1AU     LIG  261  11.343   8.563   6.679 -0.1472  0.2102  0.1555
    1AU     LIG  262  11.775   8.577   6.835  0.1921 -0.2097  0.5503
    1AU     LIG  263  12.153   8.809   6.844 -0.1569  0.2021 -0.2143
    1AU     LIG  264  12.557   8.905   6.794 -0.1808  0.0974 -0.1952
    1AU     LIG  265  12.839   8.978   6.529  0.1964 -0.0188  0.3595
    1AU    AUSL  266  10.422   8.373   6.380 -0.0192  0.0297  0.0335
    1AU    AUSL  267  10.802   8.062   6.676  0.1539  0.0304 -0.0228
    1AU     AUL  268  10.782   8.312   6.411 -0.0856  0.0335  0.0163
    1AU       S  269  10.597   8.266   5.895  0.1579  0.1669  0.2221
    1AU     LIG  270  11.028   8.358   5.826 -0.1257 -0.3078  0.2295
    1AU     LIG  271  11.361   8.445   6.088 -0.0107 -0.1680  0.1116
    1AU     LIG  272  11.675   8.619   6.314  0.2589  0.1655  0.3482
    1AU     LIG  273  12.019   8.903   6.358 -0.2730 -0.0674 -0.1397
    1AU     LIG  274  12.374   9.015   6.351  0.0343  0.2925 -0.4695
    1AU       S  275  11.130   8.030   6.654 -0.1572  0.1773 -0.3684
    1AU     LIG  276  11.484   8.077   6.519 -0.1449  0.6138 -0.0469
    1AU     LIG  277  11.789   8.042   6.752 -0.0611  0.1341  0.1001
    1AU     LIG  278  12.206   8.237   6.944 -0.1492  0.2341  0.0796
    1AU     LIG  279  12.659   8.157   6.791  0.2511  0.1293 -0.0813
    1AU     LIG  280  12.985   7.804   6.767 -0.0812 -0.1948  0.0505
    1AU    AUSL  281  10.452   8.808   6.480  0.0620  0.0172  0.0424
    1AU    AUSL  282  10.285   8.601   6.057  0.0285 -0.0194  0.1268
    1AU     AUL  283  10.588   8.675   6.185 -0.0253 -0.0267  0.0454
    1AU       S  284  10.230   8.992   6.031  0.1914  0.3328  0.1542
    1AU     LIG  285  10.689   9.223   6.057 -0.1198 -0.0915  0.2323
    1AU     LIG  286  11.017   9.651   5.932  0.3440 -0.0976  0.1036
    1AU     LIG  287  11.183   9.948   6.224 -0.3627  0.2055 -0.3401
    1AU     LIG  288  11.339  10.179   6.542 -0.0610  0.4513 -0.0300
    1AU     LIG  289  11.482  10.115   6.947  0.1438 -0.1552  0.3406
    1AU       S  290  10.514   9.053   6.519 -0.4088  0.4370  0.2797
    1AU     LIG  291  10.901   9.294   6.511  0.0668  0.0205 -0.3746
    1AU     LIG  292  11.310   9.358   6.360  0.0735 -0.1863 -0.0363
    1AU     LIG  293  11.555   9.629   6.341 -0.3240 -0.0934 -0.2689
    1AU     LIG  294  11.711   9.987   6.195 -0.2642  0.1516 -0.2398
    1AU     LIG  295  11.756  10.418   6.367  0.3411  0.0005  0.2220
    1AU    AUSL  296   9.005   7.718   6.849 -0.0553  0.0555 -0.0074
    1AU    AUSL  297   9.142   8.088   7.089 -0.0997 -0.0358 -0.0181
    1AU     AUL  298   8.875   7.944   7.213  0.0583 -0.0167  0.0623
    1AU       S  299   8.773   7.600   6.885  0.2596  0.1611  0.5074
    1AU     LIG  300   8.332   7.308   6.680 -0.0295  0.3347 -0.2231
    1AU     LIG  301   7.994   7.004   6.747  0.1356 -0.1950 -0.1804
    1AU     LIG  302   7.989   6.528   6.751  0.3996 -0.4652  0.2392
    1AU     LIG  303   8.014   6.082   6.613  0.0071 -0.2390 -0.1619
    1AU     LIG  304   8.009   5.670   6.414 -0.3290 -0.1399 -0.1271
    1AU       S  305   8.554   8.129   6.959  0.1231 -0.2247 -0.0076
    1AU     LIG  306   8.090   8.062   6.919  0.2734  0.3947  0.0923
    1AU     LIG  307   7.671   8.070   6.838  0.4055 -0.0904 -0.0908
    1AU     LIG  308   7.272   8.131   6.865 -0.5177 -0.2404 -0.0331
    1AU     LIG  309   7.004   8.405   6.658 -0.0474 -0.1573  0.2175
    1AU     LIG  310   6.517   8.501   6.599  0.4266  0.2731  0.2456
    1AU    AUSL  311   9.394   7.557   7.002  0.0420 -0.0218 -0.0630
    1AU    AUSL  312   9.165   7.448   6.555  0.0539  0.0001 -0.0385
    1AU     AUL  313   9.153   7.308   6.920 -0.0879 -0.0621  0.0594
    1AU       S  314   8.736   7.366   7.078 -0.0836  0.1605 -0.2341
    1AU     LIG  315   8.456   7.018   7.118  0.2883 -0.1308  0.1644
    1AU     LIG  316   8.180   6.736   7.159 -0.3657  0.2891 -0.0924
    1AU     LIG  317   8.125   6.270   7.166  0.0243 -0.2809  0.0683
    1AU     LIG  318   7.768   6.073   7.090  0.1420 -0.4658  0.0585
    1AU     LIG  319   7.561   5.984   6.727  0.1739 -0.2342  0.1491
    1AU       S  320   9.020   7.167   6.486 -0.2226 -0.2024  0.0557
    1AU     LIG  321   8.699   7.003   6.554 -0.1158  0.0586  0.2977
    1AU     LIG  322   8.371   6.774   6.342 -0.1679  0.0954 -0.0287
    1AU     LIG  323   8.088   6.433   6.261 -0.4245  0.3185 -0.0574
    1AU     LIG  324   7.683   6.482   6.381 -0.0723 -0.2580  0.1268
    1AU     LIG  325   7.238   6.457   6.355 -0.0999 -0.0278 -0.0507
    1AU    AUSL  326   9.841   8.651   6.033  0.0227 -0.0360 -0.0246
    1AU    AUSL  327  10.069   8.229   6.034 -0.0306  0.0071  0.0685
    1AU     AUL  328  10.119   8.536   5.811  0.0351 -0.0383 -0.0447
    1AU       S  329  10.079   8.108   5.673  0.0182 -0.1397  0.2913
    1AU     LIG  330  10.272   8.238   5.221 -0.1539 -0.0407  0.5013
    1AU     LIG  331   9.993   8.038   4.889  0.0589 -0.0346  0.1437
    1AU     LIG  332  10.085   7.638   4.818 -0.0983  0.0540  0.2182
    1AU     LIG  333  10.136   7.248   4.862 -0.2827 -0.0110 -0.2486
    1AU     LIG  334  10.195   6.781   4.845  0.3335  0.0436  0.0888
    1AU       S  335  10.073   9.055   5.992  0.0435  0.0763 -0.1937
    1AU     LIG  336  10.142   9.354   5.640 -0.0493 -0.0312  0.1243
    1AU     LIG  337  10.347   9.324   5.121  0.1391 -0.4467  0.0247
    1AU     LIG  338  10.456   9.292   4.760  0.3113 -0.1712  0.2144
    1AU     LIG  339  10.665   9.368   4.400  0.2979 -0.2324 -0.0377
    1AU     LIG  340  10.929   9.397   4.099 -0.6274 -0.4518 -0.1090
    1AU    AUSL  341  10.035   8.735   6.421  0.0209 -0.1023  0.0339
    1AU    AUSL  342   9.583   8.669   6.385  0.0339  0.1162  0.0609
    1AU     AUL  343   9.699   8.899   6.178  0.0589 -0.0492 -0.0540
    1AU       S  344   9.370   9.224   6.264 -0.2528 -0.0442 -0.1041
    1AU     LIG  345   9.689   9.445   5.953  0.6395 -0.0272 -0.0319
    1AU     LIG  346  10.029   9.627   6.106  0.0669 -0.1074  0.1656
    1AU     LIG  347  10.099   9.854   6.512  0.2717 -0.2171  0.0593
    1AU     LIG  348  10.050   9.914   7.034 -0.2922 -0.1752  0.1294
    1AU     LIG  349   9.868  10.160   7.363  0.0656 -0.3198 -0.2683
    1AU       S  350  10.132   9.047   6.250  0.0847 -0.3637  0.1836
    1AU     LIG  351  10.426   9.495   6.353  0.0412  0.0054 -0.1029
    1AU     LIG  352  10.784   9.794   6.450  0.3683  0.2424 -0.0281
    1AU     LIG  353  11.121   9.659   6.732  0.2456 -0.1682  0.0031
    1AU     LIG  354  11.598   9.562   6.827  0.1948  0.0159 -0.2515
    1AU     LIG  355  11.857   9.294   6.989 -0.1222 -0.1084 -0.1035
    1AU    AUSL  356  10.183   8.365   7.540  0.1081 -0.0614  0.0437
    1AU    AUSL  357  10.481   8.491   7.197 -0.0667 -0.0538  0.1154
    1AU     AUL  358  10.306   8.651   7.555 -0.1130  0.0179  0.1125
    1AU       S  359  10.673   8.606   7.273  0.0400  0.2233  0.2336
    1AU     LIG  360  11.017   8.827   7.439 -0.1725 -0.4842 -0.1466
    1AU     LIG  361  11.282   9.125   7.536 -0.3901  0.2496 -0.1958
    1AU     LIG  362  11.473   9.648   7.361  0.0851  0.0571 -0.2087
    1AU     LIG  363  11.822   9.870   7.181 -0.0794  0.3400  0.1385
    1AU     LIG  364  12.207  10.167   7.175 -0.1376  0.0315  0.0199
    1AU       S  365  10.461   8.305   7.866  0.0175 -0.1624  0.1143
    1AU     LIG  366  10.565   8.670   8.308 -0.0866  0.0610  0.0994
    1AU     LIG  367  10.999   8.884   8.317  0.0986 -0.0293  0.1448
    1AU     LIG  368  11.292   9.253   8.165  0.0297  0.1091  0.1356
    1AU     LIG  369  11.458   9.586   7.929  0.2796  0.3090 -0.3049
    1AU     LIG  370  11.930   9.617   7.890 -0.0339 -0.1872  0.2311
    1AU    AUSL  371  10.552   8.153   7.447  0.0344 -0.0235  0.0806
    1AU    AUSL  372  10.327   7.809   7.285 -0.0470  0.0087 -0.0162
    1AU     AUL  373  10.625   7.798   7.547 -0.0726  0.0162  0.0202
    1AU       S  374  10.671   8.274   7.666  0.2535 -0.2982  0.1318
    1AU     LIG  375  10.877   8.609   7.862  0.1797 -0.6876 -0.3390
    1AU     LIG  376  10.820   9.076   7.808  0.0531  0.2523  0.3402
    1AU     LIG  377  11.009   9.466   7.876  0.1044 -0.0348  0.2875
    1AU     LIG  378  11.101   9.831   7.695  0.1445 -0.0039  0.1316
    1AU     LIG  379  11.269  10.110   7.431  0.0976  0.1284 -0.2734
    1AU       S  380  10.955   7.895   7.253 -0.0178 -0.0001 -0.1607
    1AU     LIG  381  11.151   8.303   7.482  0.0550 -0.3851 -0.0027
    1AU     LIG  382  11.467   8.518   7.306 -0.1291  0.3825 -0.1526
    1AU     LIG  383  11.464   8.918   7.097  0.0103  0.0540 -0.0985
    1AU     LIG  384  11.308   9.110   6.826  0.3981 -0.0649 -0.2404
    1AU     LIG  385  11.562   9.015   6.561  0.2456 -0.1991 -0.0530
    1AU    AUSL  386  10.224   7.934   7.692  0.1028  0.0297 -0.0439
    1AU    AUSL  387   9.789   8.455   7.699  0.1290 -0.0101 -0.0416
    1AU     AUL  388  10.024   8.177   7.813  0.0145  0.0049  0.0025
    1AU       S  389   9.612   8.422   8.002  0.0403  0.2622  0.1127
    1AU     LIG  390   9.796   8.566   8.432 -0.0040  0.2711  0.4403
    1AU     LIG  391   9.744   8.335   8.828  0.1079 -0.2044  0.0211
    1AU     LIG  392   9.815   7.994   8.989  0.2272  0.1540 -0.0976
    1AU     LIG  393   9.596   7.557   9.084  0.3756 -0.1914 -0.1540
    1AU     LIG  394   9.427   7.264   9.450  0.2156  0.1547 -0.3178
    1AU       S  395  10.459   8.014   7.916  0.1763  0.1685  0.3873
    1AU     LIG  396  10.412   7.769   8.265 -0.0824  0.1548  0.1268
    1AU     LIG  397  10.429   7.339   8.345  0.5614  0.3283 -0.2158
    1AU     LIG  398  10.726   7.083   8.166  0.3048 -0.1632 -0.0850
    1AU     LIG  399  10.863   6.877   7.779 -0.1994 -0.2150  0.3253
    1AU     LIG  400  11.049   6.775   7.346 -0.0579  0.1204 -0.1492
    1AU    AUSL  401   9.192   8.521   6.539  0.0456 -0.0039  0.1398
    1AU    AUSL  402   8.967   8.126   6.693  0.0771  0.0337  0.0357
    1AU     AUL  403   8.904   8.586   6.669  0.0193  0.0348  0.0718
    1AU       S  404   8.782   8.648   6.214  0.2146  0.4902 -0.3868
    1AU     LIG  405   8.458   8.905   6.387  0.0882  0.3138  0.3918
    1AU     LIG  406   8.152   8.931   6.661  0.0769 -0.3254  0.0312
    1AU     LIG  407   7.747   8.943   6.776  0.0662  0.1345 -0.0955
    1AU     LIG  408   7.443   9.253   6.866 -0.0787  0.4109  0.4694
    1AU     LIG  409   7.048   9.255   7.144 -0.0639 -0.1748  0.3621
    1AU       S  410   8.727   8.121   6.724  0.0358 -0.1138  0.1310
    1AU     LIG  411   8.444   7.789   6.581 -0.1827  0.6629  0.0828
    1AU     LIG  412   7.968   7.696   6.584 -0.3306 -0.1906 -0.4609
    1AU     LIG  413   7.625   7.439   6.678 -0.2670 -0.2161  0.2322
    1AU     LIG  414   7.274   7.322   6.716  0.4090  0.3399 -0.1095
    1AU     LIG  415   7.150   7.068   6.990 -0.2077  0.1376  0.1727
    1AU    AUSL  416   9.325   8.509   6.100  0.0978  0.0142  0.1044
    1AU    AUSL  417   9.304   8.928   6.614 -0.0339 -0.0080 -0.0006
    1AU     AUL  418   9.210   8.776   6.279 -0.0287  0.0082 -0.0312
    1AU       S  419   8.934   8.616   5.967  0.3343 -0.2430 -0.0332
    1AU     LIG  420   8.522   8.334   5.774  0.1651 -0.1097  0.0425
    1AU     LIG  421   8.074   8.285   5.903 -0.2599  0.5300  0.2344
    1AU     LIG  422   7.789   8.135   6.146  0.2233  0.1752 -0.0865
    1AU     LIG  423   7.336   7.898   5.971 -0.2034 -0.1101  0.0864
    1AU     LIG  424   7.095   7.997   5.597 -0.0101 -0.0233 -0.2150
    1AU       S  425   9.261   9.265   6.561  0.0742 -0.2533  0.0982
    1AU     LIG  426   9.181   9.710   6.681 -0.1586 -0.1126 -0.1995
    1AU     LIG  427   9.080   9.993   6.941  0.2002 -0.0409 -0.1122
    1AU     LIG  428   8.834  10.176   7.244 -0.3290  0.1174 -0.2928
    1AU     LIG  429   8.907  10.377   7.596  0.3735 -0.1993 -0.0273
    1AU     LIG  430   9.051  10.472   7.908 -0.1539  0.0736 -0.0319
    1AU    AUSL  431   9.017   8.234   6.278 -0.0052  0.0376  0.0955
    1AU    AUSL  432   9.427   8.103   6.178 -0.0108 -0.0860 -0.0150
    1AU     AUL  433   9.192   8.250   5.940  0.0394  0.0397  0.0317
    1AU       S  434   8.975   7.851   5.989 -0.0811  0.0353  0.0573
    1AU     LIG  435   8.510   7.939   6.048  0.2447  0.3062  0.1097
    1AU     LIG  436   8.123   7.760   6.173  0.4133 -0.5314 -0.1079
    1AU     LIG  437   8.099   7.356   6.230 -0.1121 -0.2689  0.0252
    1AU     LIG  438   7.908   6.924   5.993 -0.0352 -0.0078 -0.2289
    1AU     LIG  439   7.834   6.552   5.844  0.1445 -0.2602 -0.0696
    1AU       S  440   8.817   8.366   6.221  0.0204  0.1222  0.1177
    1AU     LIG  441   8.356   8.277   6.364 -0.1844  0.1240 -0.1919
    1AU     LIG  442   7.973   8.435   6.611  0.1607 -0.0274  0.0791
    1AU     LIG  443   7.539   8.404   6.498  0.1277 -0.0487 -0.3474
    1AU     LIG  444   7.209   8.368   6.229  0.4415 -0.1093 -0.1347
    1AU     LIG  445   7.031   8.551   5.797 -0.3130  0.0781  0.0610
    1AU    AUSL  446  10.613   7.588   7.027  0.0894 -0.0601 -0.0586
    1AU    AUSL  447  10.161   7.450   7.422  0.0365  0.0277  0.0261
    1AU     AUL  448  10.492   7.446   7.297  0.0235  0.0613 -0.1332
    1AU       S  449  10.967   7.596   7.212  0.1113  0.0836  0.0551
    1AU     LIG  450  11.310   7.712   7.512 -0.0376  0.0741  0.0833
    1AU     LIG  451  11.779   7.850   7.650 -0.1039  0.1035 -0.2248
    1AU     LIG  452  11.918   7.739   7.259 -0.0256 -0.4577  0.0548
    1AU     LIG  453  12.208   7.410   7.121  0.1425 -0.4821  0.1015
    1AU     LIG  454  12.501   7.227   7.420  0.3663  0.2628  0.2244
    1AU       S  455  10.189   7.124   7.421  0.2805  0.0847 -0.1421
    1AU     LIG  456  10.550   6.775   7.430  0.0477  0.1127 -0.0509
    1AU     LIG  457  10.434   6.310   7.448 -0.2015  0.1166 -0.1052
    1AU     LIG  458  10.743   5.935   7.285  0.3722  0.1101 -0.0279
    1AU     LIG  459  10.994   5.590   7.065 -0.1476 -0.0663  0.0894
    1AU     LIG  460  11.349   5.419   6.952 -0.0071 -0.0410 -0.0265
    1AU    AUSL  461  10.569   8.061   7.034 -0.0337 -0.0316  0.0132
    1AU    AUSL  462  10.460   7.760   6.662  0.0876 -0.0978  0.0170
    1AU     AUL  463  10.802   7.731   6.793 -0.0055  0.0068  0.0190
    1AU       S  464  10.883   7.968   7.177  0.1992 -0.1929  0.0840
    1AU     LIG  465  11.391   7.987   7.067 -0.2461 -0.3051  0.1608
    1AU     LIG  466  11.600   7.604   6.911 -0.1670 -0.2951 -0.0018
    1AU     LIG  467  11.797   7.135   6.888 -0.0480  0.2734 -0.1477
    1AU     LIG  468  11.929   6.676   6.902 -0.1513  0.1378  0.0150
    1AU     LIG  469  12.129   6.445   6.632 -0.2736 -0.2114  0.1108
    1AU       S  470  10.909   7.703   6.349 -0.0653  0.1654 -0.2903
    1AU     LIG  471  11.350   7.621   6.275 -0.1748 -0.3532  0.1795
    1AU     LIG  472  11.753   7.690   6.380  0.0585 -0.1009  0.0646
    1AU     LIG  473  12.050   7.425   6.596 -0.2724  0.0748  0.2295
    1AU     LIG  474  12.265   7.014   6.791  0.5616 -0.2984  0.1911
    1AU     LIG  475  12.402   6.760   7.124  0.0391  0.4295  0.1677
    1AU    AUSL  476   9.411   7.702   6.024 -0.0272  0.0545 -0.0339
    1AU    AUSL  477   9.676   8.273   5.858  0.0230  0.0123  0.0386
    1AU     AUL  478   9.509   7.948   5.794  0.0779 -0.1052  0.0479
    1AU       S  479   9.842   8.236   5.575  0.3839 -0.3453 -0.4112
    1AU     LIG  480   9.804   8.465   5.185 -0.2479 -0.4123  0.2133
    1AU     LIG  481   9.432   8.693   5.088  0.0945 -0.4128 -0.1102
    1AU     LIG  482   9.230   9.029   5.219  0.2098  0.1955  0.1507
    1AU     LIG  483   8.946   8.991   5.573 -0.2850  0.2565  0.2517
    1AU     LIG  484   8.643   8.762   5.556  0.2008 -0.1602 -0.0870
    1AU       S  485   9.033   7.720   5.825  0.1574 -0.1516 -0.0826
    1AU     LIG  486   8.626   7.571   5.758 -0.0937 -0.1050 -0.0467
    1AU     LIG  487   8.303   7.421   5.803 -0.0638 -0.0690 -0.0387
    1AU     LIG  488   7.853   7.478   5.769 -0.1613 -0.4024 -0.1031
    1AU     LIG  489   7.664   7.544   6.163 -0.0004  0.1732  0.0475
    1AU     LIG  490   7.342   7.812   6.457 -0.1951 -0.3544 -0.0252
    1AU    AUSL  491   9.164   7.835   6.400  0.0335  0.0103  0.0268
    1AU    AUSL  492   9.544   7.549   6.413  0.0790  0.0388 -0.0710
    1AU     AUL  493   9.251   7.485   6.185 -0.0622  0.0253 -0.0426
    1AU       S  494   8.903   7.787   6.234  0.1650 -0.0977  0.4865
    1AU     LIG  495   8.632   7.435   6.265 -0.3918  0.3724 -0.0363
    1AU     LIG  496   8.706   7.096   6.035 -0.3024  0.1325  0.4427
    1AU     LIG  497   8.572   6.760   5.819 -0.2550  0.2262  0.2580
    1AU     LIG  498   8.250   6.654   5.594 -0.2659 -0.2558 -0.3076
    1AU     LIG  499   8.246   6.541   5.174 -0.1154  0.3152  0.0224
    1AU       S  500   9.365   7.073   6.339  0.0523  0.0243  0.1165
    1AU     LIG  501   9.115   6.888   6.083  0.2740 -0.2105  0.1121
    1AU     LIG  502   8.881   6.510   6.179 -0.0952 -0.1081 -0.0247
    1AU     LIG  503   8.633   6.319   6.460  0.2599  0.0419 -0.0173
    1AU     LIG  504   8.547   6.529   6.819  0.4258 -0.2253  0.2781
    1AU     LIG  505   8.817   6.721   7.088 -0.1542  0.1231  0.3342
    2POPC   NC3  506   3.280   8.099   9.028 -0.1444  0.2600  0.0393
    2POPC   PO4  507   3.304   7.675   9.147  0.2309 -0.1599 -0.3613
    2POPC   GL1  508   2.970   7.725   8.859 -0.2967  0.0248  0.1343
    2POPC   GL2  509   2.901   7.458   8.679 -0.0701 -0.3007  0.1439
    2POPC   C1A  510   2.929   7.976   8.415  0.0256  0.0200 -0.0984
    2POPC   D2A  511   3.104   7.871   7.982 -0.1620 -0.3616 -0.0288
    2POPC   C3A  512   3.295   7.998   7.593  0.1568 -0.0788  0.0959
    2POPC   C4A  513   3.196   8.159   7.225 -0.0446  0.1801  0.1854
    2POPC   C1B  514   2.890   7.385   8.247  0.2185 -0.1117  0.1973
    2POPC   C2B  515   2.894   7.254   7.816  0.0765 -0.1915 -0.3700
    2POPC   C3B  516   3.196   7.360   7.555  0.3053  0.0590 -0.1996
    2POPC   C4B  517   3.273   7.259   7.171  0.0482 -0.2583  0.1526
    3POPC   NC3  518   4.398   2.347   9.007  0.2836 -0.0692 -0.0770
    3POPC   PO4  519   4.751   2.363   8.667  0.0655  0.4292 -0.1331
    3POPC   GL1  520   4.502   2.513   8.385  0.0306  0.1672  0.0996
    3POPC   GL2  521   4.381   2.863   8.435  0.2377  0.1403 -0.0032
    3POPC   C1A  522   4.407   2.461   7.942 -0.1640 -0.0595  0.4007
    3POPC   D2A  523   4.553   2.759   7.557  0.1224  0.0157 -0.4992
    3POPC   C3A  524   4.874   2.523   7.267  0.0095 -0.0940  0.0258
    3POPC   C4A  525   5.293   2.551   7.139 -0.0409 -0.3211  0.0127
    3POPC   C1B  526   4.260   2.947   7.969 -0.0633 -0.0079 -0.1307
    3POPC   C2B  527   3.841   3.106   7.884 -0.1421  0.1113  0.2188
    3POPC   C3B  528   3.546   2.909   8.005 -0.1092 -0.1838 -0.0812
    3POPC   C4B  529   3.183   2.873   7.892 -0.2029 -0.0528 -0.0391
    4POPC   NC3  530   0.430   3.770   8.937  0.0692  0.1333  0.4214
    4POPC   PO4  531   0.422   3.309   8.951 -0.3374  0.1471 -0.2831
    4POPC   GL1  532   0.299   3.430   8.602  0.1964 -0.2000 -0.1893
    4POPC   GL2  533   0.197   3.200   8.475  0.1616  0.1129  0.2779
    4POPC   C1A  534   0.488   3.392   8.128 -0.1303 -0.0408 -0.1012
    4POPC   D2A  535   0.283   3.634   7.809  0.1429  0.0381 -0.0064
    4POPC   C3A  536   0.419   3.463   7.382  0.1137 -0.0509 -0.0395
    4POPC   C4A  537   0.614   3.158   7.136  0.0508 -0.0988 -0.1947
    4POPC   C1B  538   0.298   2.930   8.051 -0.1657 -0.0622 -0.0012
    4POPC   C2B  539  -0.001   3.037   7.710 -0.2479 -0.1032  0.1510
    4POPC   C3B  540  -0.126   3.383   7.408  0.0353  0.3193  0.1690
    4POPC   C4B  541   0.117   3.415   6.986  0.1950  0.1815 -0.1225
    5POPC   NC3  542   2.684   1.235   8.691 -0.0690  0.1480  0.0610
    5POPC   PO4  543   2.303   1.378   8.554  0.0928 -0.1241 -0.2797
    5POPC   GL1  544   2.455   1.334   8.160  0.2239 -0.0846 -0.0831
    5POPC   GL2  545   2.232   1.432   8.049  0.0706 -0.3311 -0.0532
    5POPC   C1A  546   2.625   1.216   7.761 -0.1154 -0.0122 -0.2788
    5POPC   D2A  547   2.537   1.019   7.354 -0.0483  0.0030  0.0814
    5POPC   C3A  548   2.980   1.001   7.098  0.1530 -0.0484  0.1488
    5POPC   C4A  549   3.251   1.015   6.832 -0.1002 -0.0539 -0.1776
    5POPC   C1B  550   2.156   1.638   7.729  0.2006 -0.1904  0.0859
    5POPC   C2B  551   2.125   1.840   7.362  0.1201 -0.0769  0.3219
    5POPC   C3B  552   2.192   2.024   6.925 -0.0301 -0.1793  0.3222
    5POPC   C4B  553   1.872   2.040   6.617  0.1471 -0.2671  0.4759
    6POPC   NC3  554   5.605   5.044   8.482 -0.0066 -0.0961 -0.2484
    6POPC   PO4  555   5.298   5.274   8.335  0.0858  0.1273  0.0255
    6POPC   GL1  556   5.615   5.288   8.068  0.1724 -0.1139  0.1769
    6POPC   GL2  557   5.526   5.194   7.791 -0.1771 -0.1076 -0.1191
    6POPC   C1A  558   5.771   5.715   7.692  0.0701 -0.0399 -0.3419
    6POPC   D2A  559   5.712   5.705   7.228  0.0848 -0.0198  0.0952
    6POPC   C3A  560   5.385   5.781   6.984  0.0458  0.0280 -0.0932
    6POPC   C4A  561   5.001   5.759   7.103 -0.1046  0.0832  0.2945
    6POPC   C1B  562   5.881   5.214   7.460 -0.2344  0.1792 -0.0443
    6POPC   C2B  563   5.942   5.289   7.091  0.2218  0.2395 -0.3454
    6POPC   C3B  564   6.102   5.161   6.722  0.1225  0.0735  0.0070
    6POPC   C4B  565   5.824   5.253   6.347 -0.0439 -0.0580 -0.0565
    7POPC   NC3  566   5.502   0.444   9.284  0.1105 -0.1456 -0.2509
    7POPC   PO4  567   5.434   0.783   9.075 -0.0919  0.0507 -0.1322
    7POPC   GL1  568   5.531   0.797   8.561 -0.1923 -0.3011  0.4219
    7POPC   GL2  569   5.204   0.595   8.489  0.0366 -0.0717  0.0768
    7POPC   C1A  570   5.491   0.764   8.159 -0.1508  0.0412  0.0851
    7POPC   D2A  571   5.462   0.751   7.670  0.2201 -0.4168  0.0960
    7POPC   C3A  572   5.307   1.050   7.415 -0.0781  0.4096  0.1146
    7POPC   C4A  573   5.063   1.529   7.378 -0.2227  0.1109 -0.0373
    7POPC   C1B  574   5.144   0.260   8.161  0.2871 -0.2150 -0.0946
    7POPC   C2B  575   5.312   0.280   7.773  0.3892  0.0738 -0.0582
    7POPC   C3B  576   5.526   0.245   7.462 -0.0477  0.1047 -0.3842
    7POPC   C4B  577   5.883   0.173   7.469 -0.1863  0.0034  0.1926
    8POPC   NC3  578   4.946   2.624   9.364 -0.0400 -0.2657 -0.1969
    8POPC   PO4  579   4.666   2.766   8.976 -0.1937 -0.0831 -0.1662
    8POPC   GL1  580   4.795   3.023   8.589  0.3043  0.0438 -0.0281
    8POPC   GL2  581   4.952   2.912   8.444 -0.2577  0.1987  0.1608
    8POPC   C1A  582   4.569   3.281   8.168 -0.0475 -0.1325 -0.1918
    8POPC   D2A  583   4.624   3.704   8.085 -0.1956  0.0908 -0.1051
    8POPC   C3A  584   4.322   3.921   7.740 -0.1588  0.0588  0.0246
    8POPC   C4A  585   4.228   3.836   7.274  0.0973  0.1082  0.0600
    8POPC   C1B  586   4.840   2.789   7.991  0.3123 -0.3907 -0.2160
    8POPC   C2B  587   4.890   2.393   7.809  0.2834 -0.0761 -0.0182
    8POPC   C3B  588   4.577   2.133   7.572  0.1086  0.1208 -0.0448
    8POPC   C4B  589   4.351   1.744   7.538  0.2565  0.0601  0.3271
    9POPC   NC3  590   7.719   1.303   9.148  0.0731  0.1692 -0.1990
    9POPC   PO4  591   7.623   1.544   8.766  0.0683 -0.3753 -0.3466
    9POPC   GL1  592   7.447   1.548   8.323  0.0939  0.1050 -0.4604
    9POPC   GL2  593   7.513   1.809   8.199 -0.0114 -0.1288 -0.2443
    9POPC   C1A  594   7.425   1.341   8.031 -0.0867  0.1327 -0.1233
    9POPC   D2A  595   7.696   1.293   7.709 -0.0909 -0.0664  0.1670
    9POPC   C3A  596   8.135   1.226   7.695 -0.0234  0.0830 -0.0039
    9POPC   C4A  597   8.584   1.209   7.471 -0.0005  0.0812 -0.1975
    9POPC   C1B  598   7.382   1.737   7.695 -0.1732 -0.1264 -0.0063
    9POPC   C2B  599   7.365   1.509   7.341 -0.0768  0.0362 -0.1892
    9POPC   C3B  600   7.531   1.146   7.161 -0.1780  0.0799  0.0973
    9POPC   C4B  601   7.403   0.715   7.003 -0.1840 -0.2951 -0.0728
   10POPC   NC3  602   3.726   1.855   9.335 -0.1574 -0.2014 -0.3783
   10POPC   PO4  603   4.071   1.891   9.074 -0.3560 -0.1165  0.0101
   10POPC   GL1  604   3.974   2.011   8.623  0.5086 -0.3572 -0.0392
   10POPC   GL2  605   4.048   2.381   8.535  0.2487 -0.1908 -0.3440
   10POPC   C1A  606   4.220   2.091   8.159  0.2789 -0.0379 -0.2184
   10POPC   D2A  607   4.018   2.094   7.773 -0.0898 -0.1880 -0.0787
   10POPC   C3A  608   4.111   2.207   7.378 -0.1648  0.2536  0.1453
   10POPC   C4A  609   4.261   1.931   7.041  0.0533 -0.2878  0.0727
   10POPC   C1B  610   3.936   2.554   8.049 -0.2480  0.0134 -0.4849
   10POPC   C2B  611   4.039   2.654   7.662  0.2255  0.0115 -0.3456
   10POPC   C3B  612   4.161   2.671   7.285  0.2918 -0.5282 -0.1399
   10POPC   C4B  613   4.510   2.975   7.051  0.1720  0.3231  0.2944
   11POPC   NC3  614   9.561   6.288   9.555  0.0720  0.1531 -0.1715
   11POPC   PO4  615   9.543   6.580   9.925  0.1135  0.0795  0.2089
   11POPC   GL1  616   9.710   6.884   9.807 -0.0563  0.0979  0.3202
   11POPC   GL2  617   9.583   6.796   9.470 -0.2232 -0.2636  0.2491
   11POPC   C1A  618   9.895   7.261   9.570 -0.2256 -0.1913  0.0908
   11POPC   D2A  619  10.116   7.577   9.139 -0.0570 -0.0201  0.0551
   11POPC   C3A  620  10.542   7.561   8.981  0.1712 -0.0924  0.3639
   11POPC   C4A  621  10.731   7.691   8.692  0.3521  0.1494  0.0617
   11POPC   C1B  622   9.807   7.139   9.083 -0.2353  0.1460 -0.0036
   11POPC   C2B  623  10.179   7.225   8.831  0.2513 -0.1066  0.1781
   11POPC   C3B  624  10.541   7.002   8.723 -0.0925 -0.0482 -0.0971
   11POPC   C4B  625  10.901   7.199   8.686  0.2129 -0.0838 -0.0279
   12POPC   NC3  626   9.887   1.035   8.500 -0.0172 -0.1116 -0.3580
   12POPC   PO4  627  10.045   1.424   8.533  0.0700 -0.2610  0.0298
   12POPC   GL1  628  10.264   1.236   8.166 -0.3319 -0.2917  0.0722
   12POPC   GL2  629   9.963   1.049   7.952 -0.1533  0.4146  0.0650
   12POPC   C1A  630  10.538   1.159   7.828  0.2138  0.2377 -0.0057
   12POPC   D2A  631  10.519   1.055   7.419  0.1879 -0.0638 -0.1800
   12POPC   C3A  632  10.392   0.722   7.156  0.0290 -0.0945 -0.0317
   12POPC   C4A  633  10.471   0.557   6.704  0.2630  0.1773  0.2183
   12POPC   C1B  634  10.079   0.918   7.504  0.1248  0.0499 -0.5837
   12POPC   C2B  635   9.904   0.673   7.228 -0.4308  0.1689 -0.2553
   12POPC   C3B  636  10.084   0.354   6.982  0.0980 -0.1979 -0.1660
   12POPC   C4B  637  10.192  -0.050   6.840 -0.0659  0.0288  0.1422
   13POPC   NC3  638   1.923   0.613   9.324  0.3085 -0.1109  0.0938
   13POPC   PO4  639   1.836   0.794   8.987  0.1760  0.1831 -0.3013
   13POPC   GL1  640   1.727   0.666   8.612 -0.0072 -0.3731  0.1120
   13POPC   GL2  641   2.033   0.656   8.319  0.0230  0.2108  0.1858
   13POPC   C1A  642   1.470   0.658   8.239  0.1094  0.1484  0.0734
   13POPC   D2A  643   1.139   0.444   7.958 -0.3764  0.1535  0.0773
   13POPC   C3A  644   0.768   0.529   7.994  0.0968  0.1276 -0.2338
   13POPC   C4A  645   0.470   0.277   7.682 -0.1232  0.6319 -0.1505
   13POPC   C1B  646   2.083   0.945   7.999 -0.1463  0.0385  0.0303
   13POPC   C2B  647   2.154   1.112   7.674  0.1657 -0.2026  0.1053
   13POPC   C3B  648   2.086   1.184   7.226  0.0134  0.0345 -0.0423
   13POPC   C4B  649   1.970   1.118   6.793  0.2080  0.0174 -0.1232
   14POPC   NC3  650   7.425   4.136   8.878  0.1010  0.1096 -0.1102
   14POPC   PO4  651   7.087   4.388   8.999  0.3334 -0.2485 -0.3587
   14POPC   GL1  652   7.034   4.213   8.547  0.1423 -0.1126  0.0924
   14POPC   GL2  653   7.133   3.811   8.424 -0.0502 -0.2883 -0.2805
   14POPC   C1A  654   6.964   4.496   8.226 -0.0852  0.2686 -0.1063
   14POPC   D2A  655   6.879   4.340   7.752 -0.1280  0.2995  0.2801
   14POPC   C3A  656   6.858   3.866   7.661  0.1731  0.2241  0.0039
   14POPC   C4A  657   6.808   3.605   7.295  0.1364  0.2917  0.0991
   14POPC   C1B  658   7.230   4.052   8.090 -0.1731  0.0817 -0.0835
   14POPC   C2B  659   7.347   4.138   7.693 -0.0449 -0.0828 -0.2181
   14POPC   C3B  660   7.166   4.088   7.271  0.1317 -0.1001 -0.0515
   14POPC   C4B  661   6.931   3.890   6.833 -0.0804 -0.0899 -0.2040
   15POPC   NC3  662   2.332   9.224   8.976 -0.2086  0.0970  0.0582
   15POPC   PO4  663   2.215   9.666   8.892 -0.1215 -0.2168 -0.1288
   15POPC   GL1  664   1.959   9.494   8.622 -0.0003  0.0533  0.0221
   15POPC   GL2  665   1.739   9.728   8.535 -0.1165  0.1575  0.0564
   15POPC   C1A  666   1.861   9.391   8.174 -0.3222 -0.0998 -0.2614
   15POPC   D2A  667   1.757   9.115   7.760  0.1170 -0.3120 -0.2975
   15POPC   C3A  668   1.930   8.912   7.338  0.4711 -0.1892 -0.1580
   15POPC   C4A  669   2.013   8.530   7.161 -0.3683  0.1676 -0.2083
   15POPC   C1B  670   1.386   9.821   8.356  0.2284 -0.1628 -0.1889
   15POPC   C2B  671   1.052   9.583   8.546 -0.0669 -0.2356  0.3545
   15POPC   C3B  672   0.661   9.583   8.771  0.0061  0.0723  0.1391
   15POPC   C4B  673   0.209   9.420   8.821 -0.1267 -0.2669 -0.0455
   16POPC   NC3  674   4.909   9.245   8.682 -0.0673  0.0340 -0.1496
   16POPC   PO4  675   5.235   9.062   8.611  0.2212 -0.2866  0.0116
   16POPC   GL1  676   5.221   9.271   8.271  0.0118  0.1535 -0.1914
   16POPC   GL2  677   4.827   9.357   8.111 -0.0554 -0.3086  0.0153
   16POPC   C1A  678   5.195   9.209   7.835 -0.0934  0.2002 -0.1286
   16POPC   D2A  679   5.162   9.341   7.428 -0.0391 -0.2006 -0.2230
   16POPC   C3A  680   4.947   8.965   7.242 -0.0696 -0.1244  0.2283
   16POPC   C4A  681   4.520   8.968   7.174  0.2626 -0.0947  0.1229
   16POPC   C1B  682   4.751   8.905   8.112  0.1393  0.1281 -0.2057
   16POPC   C2B  683   4.512   8.491   8.071 -0.0524  0.0035  0.0846
   16POPC   C3B  684   4.268   8.210   7.708 -0.1431  0.4728  0.3504
   16POPC   C4B  685   3.922   8.044   7.462 -0.1003  0.4750 -0.4630
   17POPC   NC3  686   0.966   4.259   8.915  0.2942 -0.1778 -0.1383
   17POPC   PO4  687   0.525   4.205   8.802 -0.3393  0.2169 -0.1700
   17POPC   GL1  688   0.362   4.279   8.357  0.1918  0.1973  0.3821
   17POPC   GL2  689   0.303   4.611   8.471 -0.0792 -0.0113  0.0221
   17POPC   C1A  690   0.325   4.111   7.902 -0.1500 -0.1461  0.0285
   17POPC   D2A  691   0.181   4.349   7.491 -0.0717 -0.0528 -0.0286
   17POPC   C3A  692  -0.204   4.329   7.206 -0.0903  0.1045  0.0504
   17POPC   C4A  693  -0.702   4.257   7.218 -0.1847  0.1647  0.0059
   17POPC   C1B  694   0.072   4.618   8.103 -0.0518  0.0247 -0.2721
   17POPC   C2B  695  -0.195   4.662   7.778  0.1864 -0.2041  0.1138
   17POPC   C3B  696   0.004   4.778   7.315  0.0037  0.0114  0.1136
   17POPC   C4B  697  -0.155   4.617   6.830 -0.0897  0.1909 -0.1846
   18POPC   NC3  698   6.703   5.345   9.241  0.0508 -0.2818  0.1085
   18POPC   PO4  699   7.085   5.253   8.923 -0.0595 -0.0468  0.0517
   18POPC   GL1  700   7.417   5.077   8.582  0.0928  0.1000 -0.0251
   18POPC   GL2  701   7.647   5.271   8.486  0.0834  0.1905 -0.3667
   18POPC   C1A  702   7.275   5.188   8.181  0.1824  0.5967  0.3070
   18POPC   D2A  703   7.100   5.425   7.870 -0.0949 -0.0203 -0.0638
   18POPC   C3A  704   6.743   5.517   7.472 -0.1881  0.2245 -0.4200
   18POPC   C4A  705   6.515   5.354   7.092 -0.2913 -0.3181 -0.0406
   18POPC   C1B  706   7.731   5.275   8.054 -0.0212  0.1920 -0.0493
   18POPC   C2B  707   7.967   5.469   7.661  0.0843  0.0391 -0.4699
   18POPC   C3B  708   8.052   5.407   7.272  0.2419  0.0609 -0.0377
   18POPC   C4B  709   8.100   5.640   6.932 -0.1679  0.1978  0.0509
   19POPC   NC3  710   4.185   4.061   8.738 -0.1967 -0.0115 -0.2681
   19POPC   PO4  711   3.948   3.762   8.616 -0.0434  0.0534 -0.0396
   19POPC   GL1  712   4.103   3.806   8.247  0.0409 -0.0152 -0.1496
   19POPC   GL2  713   3.801   3.975   8.072 -0.0149 -0.0634 -0.0933
   19POPC   C1A  714   4.205   3.496   7.966  0.2349 -0.2238 -0.1517
   19POPC   D2A  715   4.149   3.146   7.521 -0.0132  0.0600 -0.1358
   19POPC   C3A  716   3.901   3.329   7.164  0.1254  0.1112  0.1608
   19POPC   C4A  717   3.732   3.366   6.691  0.2630  0.2893  0.1957
   19POPC   C1B  718   3.920   4.200   7.644 -0.0108  0.0584  0.0360
   19POPC   C2B  719   3.876   4.347   7.179  0.2180 -0.1258 -0.0185
   19POPC   C3B  720   3.427   4.204   6.949 -0.0515 -0.2510  0.0952
   19POPC   C4B  721   3.109   3.973   7.032 -0.2045 -0.2370  0.1186
   20POPC   NC3  722   0.090   6.504   9.723  0.3035 -0.1446  0.2634
   20POPC   PO4  723  -0.109   6.173   9.340 -0.1012 -0.0063 -0.0589
   20POPC   GL1  724  -0.165   6.545   9.300 -0.1985 -0.1662 -0.1143
   20POPC   GL2  725  -0.443   6.716   9.236 -0.0802  0.1157 -0.2510
   20POPC   C1A  726  -0.127   7.059   9.252 -0.1711  0.2102  0.4641
   20POPC   D2A  727   0.147   7.261   9.398  0.1209 -0.2299  0.1726
   20POPC   C3A  728   0.442   7.394   9.219 -0.0656  0.2232  0.0484
   20POPC   C4A  729   0.731   7.662   8.872 -0.0019 -0.0830 -0.1318
   20POPC   C1B  730  -0.451   6.749   8.798  0.1863 -0.0037 -0.1505
   20POPC   C2B  731  -0.230   6.860   8.386  0.0568 -0.0295 -0.0086
   20POPC   C3B  732  -0.195   6.872   7.886 -0.0543 -0.0355 -0.0038
   20POPC   C4B  733  -0.508   6.717   7.648  0.0469 -0.2411 -0.1660
   21POPC   NC3  734   4.223   4.572   8.642 -0.3328 -0.1202 -0.1348
   21POPC   PO4  735   4.297   4.311   8.292  0.2229  0.2655  0.2095
   21POPC   GL1  736   4.419   4.459   7.870  0.2039  0.0662  0.0757
   21POPC   GL2  737   4.545   4.806   7.759 -0.0325  0.0225  0.1800
   21POPC   C1A  738   4.385   4.322   7.455 -0.0976  0.1085  0.3692
   21POPC   D2A  739   4.378   4.245   6.974 -0.0728 -0.0519 -0.2535
   21POPC   C3A  740   4.018   4.327   6.628  0.2964  0.0860 -0.1965
   21POPC   C4A  741   3.686   4.417   6.229 -0.2232  0.3951 -0.1956
   21POPC   C1B  742   4.522   5.085   7.500  0.1296 -0.0203  0.1580
   21POPC   C2B  743   4.503   5.336   7.125  0.1674  0.3576 -0.1311
   21POPC   C3B  744   4.546   5.462   6.606 -0.1947  0.1616 -0.1105
   21POPC   C4B  745   4.222   5.616   6.253  0.1390  0.0476  0.0313
   22POPC   NC3  746   1.539   9.811   8.960  0.1321 -0.1220  0.1536
   22POPC   PO4  747   1.435   9.675   9.365  0.2379  0.1814  0.0851
   22POPC   GL1  748   1.524   9.324   9.076 -0.0729 -0.1740  0.1173
   22POPC   GL2  749   1.781   9.135   8.937  0.0314 -0.1080  0.1381
   22POPC   C1A  750   1.494   9.294   8.570 -0.5153 -0.0240  0.2130
   22POPC   D2A  751   1.338   9.253   8.216  0.1319 -0.0205  0.0317
   22POPC   C3A  752   1.266   9.214   7.703  0.1578  0.0167 -0.1351
   22POPC   C4A  753   1.532   9.466   7.431  0.2394 -0.4494  0.2883
   22POPC   C1B  754   1.962   8.991   8.554  0.2879  0.1111 -0.1406
   22POPC   C2B  755   2.012   8.814   8.257 -0.1433  0.0275  0.0831
   22POPC   C3B  756   2.375   8.624   7.980 -0.1536  0.0514  0.0956
   22POPC   C4B  757   2.718   8.882   7.883  0.0095  0.2104 -0.1092
   23POPC   NC3  758   7.829   4.965   8.878  0.1760  0.0235 -0.0971
   23POPC   PO4  759   7.763   4.483   8.790  0.1565 -0.0763  0.1369
   23POPC   GL1  760   7.823   4.636   8.467  0.1554  0.0038  0.2002
   23POPC   GL2  761   7.926   4.859   8.403 -0.1957 -0.3904 -0.1980
   23POPC   C1A  762   8.134   4.635   8.064 -0.2321  0.0579 -0.2768
   23POPC   D2A  763   8.389   4.674   7.789  0.1068 -0.0758 -0.2778
   23POPC   C3A  764   8.529   4.712   7.338  0.1086 -0.0174 -0.0268
   23POPC   C4A  765   8.828   4.829   7.306 -0.0303  0.0660  0.3033
   23POPC   C1B  766   7.534   4.798   8.067 -0.1833  0.0827 -0.3537
   23POPC   C2B  767   7.267   4.646   7.873 -0.0807 -0.0090 -0.2302
   23POPC   C3B  768   7.315   4.599   7.474  0.0239 -0.0330 -0.3001
   23POPC   C4B  769   7.621   4.599   7.208 -0.0584 -0.0039 -0.1485
   24POPC   NC3  770   8.225   6.426   9.617 -0.3110  0.2168 -0.0759
   24POPC   PO4  771   8.628   6.281   9.400  0.1795 -0.1144 -0.0556
   24POPC   GL1  772   8.663   6.411   8.863  0.3108  0.1959  0.1683
   24POPC   GL2  773   8.447   6.227   8.582 -0.1858 -0.1099 -0.3731
   24POPC   C1A  774   8.763   6.854   8.834 -0.2554 -0.0887 -0.0061
   24POPC   D2A  775   8.408   7.176   8.924 -0.0068 -0.2107 -0.3058
   24POPC   C3A  776   8.070   7.113   8.563  0.1189  0.0822  0.1134
   24POPC   C4A  777   8.052   7.147   8.123 -0.0229  0.0944  0.1875
   24POPC   C1B  778   8.308   6.696   8.563  0.1096  0.0188  0.1210
   24POPC   C2B  779   8.493   7.124   8.373  0.1361 -0.1964  0.1221
   24POPC   C3B  780   8.417   7.467   8.048 -0.1588 -0.1355 -0.0531
   24POPC   C4B  781   8.301   7.813   7.839  0.3620 -0.0106 -0.0099
   25POPC   NC3  782   9.130   7.114  10.551 -0.0108 -0.1956 -0.3176
   25POPC   PO4  783   9.034   7.362  10.238 -0.0328  0.2550 -0.2636
   25POPC   GL1  784   9.097   7.602   9.844  0.1396  0.1874  0.0323
   25POPC   GL2  785   8.950   7.391   9.612  0.1532 -0.0726 -0.1320
   25POPC   C1A  786   9.167   8.046   9.789 -0.1513  0.1451  0.1899
   25POPC   D2A  787   9.495   8.371   9.828  0.0200  0.1930 -0.2169
   25POPC   C3A  788   9.937   8.506   9.772 -0.2054 -0.0434 -0.0140
   25POPC   C4A  789  10.262   8.639   9.476  0.4897  0.1369  0.2575
   25POPC   C1B  790   8.959   7.207   9.270  0.1086  0.0665  0.3767
   25POPC   C2B  791   9.169   7.100   8.866 -0.1002  0.0240 -0.2608
   25POPC   C3B  792   9.021   7.055   8.486  0.0119  0.0399  0.1719
   25POPC   C4B  793   8.927   6.576   8.449 -0.2481  0.4190  0.0630
   26POPC   NC3  794   7.154   7.963  10.170 -0.1350 -0.2787 -0.4510
   26POPC   PO4  795   7.321   7.915   9.739  0.2063  0.0069 -0.2145
   26POPC   GL1  796   7.469   8.027   9.301 -0.1940  0.1457 -0.0118
   26POPC   GL2  797   7.649   8.277   9.198 -0.3815 -0.1107  0.1341
   26POPC   C1A  798   7.744   7.856   9.000 -0.0613 -0.0639  0.0599
   26POPC   D2A  799   8.066   7.930   8.645  0.1924 -0.0958  0.2417
   26POPC   C3A  800   8.061   8.180   8.296 -0.3485 -0.1937  0.1094
   26POPC   C4A  801   7.639   8.364   8.242 -0.0248 -0.0703  0.0038
   26POPC   C1B  802   7.755   8.254   8.721 -0.2995 -0.2454 -0.0935
   26POPC   C2B  803   7.570   7.963   8.503  0.1231 -0.0724 -0.0088
   26POPC   C3B  804   7.583   7.884   8.115  0.0681  0.1782 -0.0690
   26POPC   C4B  805   7.550   7.815   7.687  0.0545  0.2117 -0.4972
   27POPC   NC3  806   3.700   6.146   8.879  0.3318 -0.0112  0.2477
   27POPC   PO4  807   4.212   6.202   8.670  0.1930  0.1641 -0.1782
   27POPC   GL1  808   4.281   6.403   8.335 -0.1428 -0.0274  0.1391
   27POPC   GL2  809   4.041   6.581   8.288  0.0884  0.2309  0.0591
   27POPC   C1A  810   4.363   6.439   7.911 -0.2291 -0.2061  0.1665
   27POPC   D2A  811   4.345   6.468   7.547  0.0110 -0.0941 -0.0699
   27POPC   C3A  812   4.355   6.217   7.350 -0.0169  0.3273 -0.0108
   27POPC   C4A  813   4.137   5.695   7.419  0.2305  0.1924  0.0375
   27POPC   C1B  814   3.922   6.658   7.794 -0.4006 -0.3439  0.0895
   27POPC   C2B  815   4.145   6.863   7.372 -0.2437  0.4206  0.1510
   27POPC   C3B  816   4.455   6.853   7.107 -0.0391  0.2451  0.2088
   27POPC   C4B  817   4.823   6.680   6.928  0.0849 -0.1269 -0.1131
   28POPC   NC3  818  10.128   0.982   9.137  0.0906 -0.0644  0.0586
   28POPC   PO4  819  10.483   0.748   9.323 -0.0574  0.0991  0.0813
   28POPC   GL1  820  10.513   0.545   8.888 -0.2876  0.0521  0.1602
   28POPC   GL2  821  10.404   0.836   8.769  0.1986 -0.0179  0.0332
   28POPC   C1A  822  10.547   0.337   8.515  0.0402  0.2060  0.0562
   28POPC   D2A  823  10.722   0.408   8.120  0.2665 -0.0446  0.2782
   28POPC   C3A  824  10.871   0.743   7.809  0.1985 -0.0948 -0.1776
   28POPC   C4A  825  10.991   1.082   7.558  0.1517  0.0280 -0.1532
   28POPC   C1B  826  10.458   0.785   8.314  0.0012  0.3075  0.2294
   28POPC   C2B  827  10.365   0.669   7.938  0.1827 -0.0525 -0.2405
   28POPC   C3B  828  10.482   0.418   7.556  0.0504  0.0989 -0.0467
   28POPC   C4B  829  10.602   0.229   7.117 -0.1566  0.0224  0.0548
   29POPC   NC3  830   3.074   2.693   8.702  0.1914 -0.1170 -0.2140
   29POPC   PO4  831   2.871   3.111   8.694 -0.2427 -0.1504 -0.2985
   29POPC   GL1  832   2.841   3.102   8.266 -0.0852 -0.2744 -0.2985
   29POPC   GL2  833   2.881   2.805   8.253  0.1004  0.0488 -0.1382
   29POPC   C1A  834   2.406   3.300   8.019 -0.2630 -0.1745  0.2875
   29POPC   D2A  835   2.276   3.096   7.598  0.3636  0.2380 -0.0850
   29POPC   C3A  836   2.349   3.072   7.102  0.2277 -0.2518 -0.2749
   29POPC   C4A  837   2.715   3.230   6.904 -0.1041 -0.0742  0.3425
   29POPC   C1B  838   2.678   2.825   7.872  0.1901 -0.0636 -0.1900
   29POPC   C2B  839   2.538   2.650   7.452  0.0327  0.3982 -0.1035
   29POPC   C3B  840   2.378   2.570   6.978 -0.1690 -0.2709 -0.2906
   29POPC   C4B  841   2.156   2.544   6.598 -0.0005 -0.0776 -0.1545
   30POPC   NC3  842   6.779  10.022   8.944  0.1124  0.1158  0.1416
   30POPC   PO4  843   6.996  10.400   8.869 -0.2110  0.3086  0.1599
   30POPC   GL1  844   7.103  10.088   8.592  0.1037 -0.0670  0.1207
   30POPC   GL2  845   7.320  10.177   8.347 -0.4142  0.1102  0.1263
   30POPC   C1A  846   7.069   9.762   8.353  0.1231 -0.3508  0.1866
   30POPC   D2A  847   6.755   9.693   8.094 -0.3353 -0.3554 -0.2317
   30POPC   C3A  848   6.927   9.576   7.673 -0.0681 -0.3908  0.2085
   30POPC   C4A  849   6.851   9.825   7.290  0.0165  0.4178  0.0091
   30POPC   C1B  850   7.455   9.985   7.988  0.2030 -0.1381  0.0771
   30POPC   C2B  851   7.497   9.928   7.614 -0.2504 -0.1924  0.0028
   30POPC   C3B  852   7.729  10.041   7.142 -0.2537 -0.3611  0.2235
   30POPC   C4B  853   7.906  10.418   6.943 -0.1994  0.0699  0.1043
   31POPC   NC3  854   9.068   9.520  10.045 -0.2111  0.3555  0.1840
   31POPC   PO4  855   9.528   9.456  10.148 -0.2077  0.1678  0.0522
   31POPC   GL1  856   9.495   9.301   9.670 -0.3866  0.0049 -0.3286
   31POPC   GL2  857   9.846   9.437   9.636  0.1284  0.2534 -0.4631
   31POPC   C1A  858   9.584   8.949   9.506 -0.1505 -0.0896  0.0062
   31POPC   D2A  859   9.893   8.836   9.026 -0.1627 -0.1809 -0.0911
   31POPC   C3A  860  10.200   8.476   9.049 -0.0467 -0.2128  0.2205
   31POPC   C4A  861  10.580   8.555   9.105  0.1346  0.0803 -0.2092
   31POPC   C1B  862   9.685   9.328   9.177  0.1731  0.0884 -0.3734
   31POPC   C2B  863   9.696   9.143   8.697 -0.2136  0.2740 -0.2264
   31POPC   C3B  864   9.911   9.047   8.352 -0.0535 -0.2350  0.3076
   31POPC   C4B  865  10.336   9.115   8.257  0.1000  0.0345  0.0902
   32POPC   NC3  866   8.689   3.477   8.649  0.2595 -0.2967  0.1285
   32POPC   PO4  867   8.526   3.776   8.727  0.1378  0.2906 -0.1590
   32POPC   GL1  868   8.603   3.764   8.260 -0.1060 -0.2936 -0.2489
   32POPC   GL2  869   8.290   3.694   8.253 -0.0301  0.2592  0.1302
   32POPC   C1A  870   8.611   3.836   7.824  0.1653  0.1662 -0.2907
   32POPC   D2A  871   8.508   3.779   7.473 -0.0502 -0.1186  0.0590
   32POPC   C3A  872   8.858   3.949   7.130 -0.1842  0.2042 -0.1160
   32POPC   C4A  873   9.028   4.417   7.020 -0.1991  0.2785 -0.1023
   32POPC   C1B  874   8.179   3.633   7.842 -0.1415  0.1876 -0.0223
   32POPC   C2B  875   7.793   3.456   7.648  0.0617 -0.0130  0.0363
   32POPC   C3B  876   7.610   3.124   7.557 -0.1271  0.1026 -0.0496
   32POPC   C4B  877   7.490   2.755   7.393  0.3781  0.1317  0.0215
   33POPC   NC3  878   7.425   6.199   8.936  0.3550  0.0895  0.1662
   33POPC   PO4  879   7.419   5.661   8.713  0.0270 -0.1296  0.0590
   33POPC   GL1  880   7.234   5.632   8.331  0.2381 -0.0076 -0.1792
   33POPC   GL2  881   6.946   5.801   8.212  0.0000  0.1605 -0.0988
   33POPC   C1A  882   7.426   5.878   7.956  0.0384 -0.1619  0.1680
   33POPC   D2A  883   7.673   5.811   7.667  0.1752  0.1946 -0.2146
   33POPC   C3A  884   8.121   5.912   7.535  0.1033  0.2477 -0.3370
   33POPC   C4A  885   8.405   5.630   7.796 -0.0021  0.1619  0.0613
   33POPC   C1B  886   6.951   5.950   7.709  0.0080 -0.0230  0.0014
   33POPC   C2B  887   7.225   5.769   7.483  0.2613 -0.0336 -0.0416
   33POPC   C3B  888   7.664   5.614   7.173 -0.1352  0.3803 -0.0834
   33POPC   C4B  889   7.614   5.126   7.085 -0.1234 -0.3126  0.1358
   34POPC   NC3  890   0.312   5.723   9.466 -0.2103 -0.0382  0.0501
   34POPC   PO4  891   0.427   5.471   9.122 -0.1074 -0.0766  0.1975
   34POPC   GL1  892   0.377   5.617   8.655 -0.0169  0.3069 -0.0738
   34POPC   GL2  893   0.211   5.879   8.455  0.2588 -0.3587  0.0826
   34POPC   C1A  894   0.436   5.534   8.213  0.0360  0.1746 -0.2525
   34POPC   D2A  895   0.468   5.422   7.736 -0.0754  0.3526 -0.0940
   34POPC   C3A  896   0.901   5.309   7.503  0.2764 -0.2772 -0.1101
   34POPC   C4A  897   1.295   5.446   7.558  0.0922 -0.0354 -0.1801
   34POPC   C1B  898   0.035   6.306   8.327  0.3943  0.2299 -0.2338
   34POPC   C2B  899   0.160   6.470   7.856  0.1112  0.0326  0.0465
   34POPC   C3B  900   0.396   6.307   7.591 -0.3087  0.0684 -0.1914
   34POPC   C4B  901   0.783   6.298   7.407 -0.1922  0.1346 -0.2402
   35POPC   NC3  902   7.832   3.361   9.106 -0.0378 -0.2404 -0.0316
   35POPC   PO4  903   7.801   3.180   8.619  0.0964 -0.0332 -0.1310
   35POPC   GL1  904   8.167   3.156   8.308 -0.0045  0.2229  0.2238
   35POPC   GL2  905   8.044   3.070   7.943  0.1954  0.1413 -0.1393
   35POPC   C1A  906   8.549   3.161   7.983  0.2326  0.2473  0.0203
   35POPC   D2A  907   8.662   3.067   7.574  0.0367  0.1639  0.1311
   35POPC   C3A  908   8.778   3.342   7.279  0.1041 -0.1075  0.1661
   35POPC   C4A  909   8.970   3.474   6.965 -0.6045 -0.3135 -0.0462
   35POPC   C1B  910   8.182   3.111   7.492  0.2249 -0.4370  0.0437
   35POPC   C2B  911   8.312   3.275   7.160 -0.0101 -0.1408 -0.1998
   35POPC   C3B  912   8.619   3.202   6.742  0.0981 -0.0630 -0.1270
   35POPC   C4B  913   8.917   2.970   6.432 -0.1311 -0.0898 -0.2661
   36POPC   NC3  914   1.230   7.177   9.433 -0.0489  0.1169  0.2945
   36POPC   PO4  915   0.956   6.837   9.542 -0.0791  0.1859  0.0378
   36POPC   GL1  916   0.829   6.917   9.141 -0.4095 -0.1877 -0.0118
   36POPC   GL2  917   0.497   6.881   9.155  0.0070  0.0053 -0.2735
   36POPC   C1A  918   0.905   6.751   8.652  0.1082 -0.0617  0.1550
   36POPC   D2A  919   0.749   6.802   8.137  0.2300  0.0558  0.0263
   36POPC   C3A  920   0.771   7.204   7.924 -0.1913  0.0213  0.1499
   36POPC   C4A  921   0.982   7.532   7.968  0.0982 -0.0775  0.1259
   36POPC   C1B  922   0.392   6.679   8.654 -0.1545  0.1286  0.0537
   36POPC   C2B  923   0.585   6.332   8.341  0.0570  0.1338  0.0722
   36POPC   C3B  924   0.400   6.068   8.035  0.1326 -0.0179 -0.3444
   36POPC   C4B  925   0.027   5.958   7.771 -0.2089  0.3856 -0.1650
   37POPC   NC3  926   3.665   8.903   9.323 -0.0111  0.2182  0.0381
   37POPC   PO4  927   3.646   8.464   9.181  0.2578  0.1869 -0.0012
   37POPC   GL1  928   3.360   8.574   8.870  0.2282 -0.0948 -0.0638
   37POPC   GL2  929   3.339   8.841   8.828 -0.2440 -0.1141 -0.1409
   37POPC   C1A  930   2.975   8.598   8.585 -0.0350  0.3969  0.0513
   37POPC   D2A  931   2.917   8.544   8.176 -0.0402  0.0983 -0.2946
   37POPC   C3A  932   2.781   8.269   7.962  0.2181 -0.0520  0.0567
   37POPC   C4A  933   2.796   8.184   7.510  0.0003 -0.5733 -0.0951
   37POPC   C1B  934   3.321   8.924   8.440  0.0133 -0.2078  0.0062
   37POPC   C2B  935   3.382   8.918   8.031 -0.1985  0.1845 -0.0771
   37POPC   C3B  936   3.492   8.791   7.664  0.1335  0.1645 -0.0282
   37POPC   C4B  937   3.575   8.408   7.441 -0.2073 -0.1154 -0.4837
   38POPC   NC3  938  10.030   2.706   8.952  0.1051 -0.0952 -0.0836
   38POPC   PO4  939  10.422   2.366   8.998  0.1783 -0.0650 -0.1295
   38POPC   GL1  940  10.307   2.273   8.617 -0.0788  0.1694  0.1493
   38POPC   GL2  941  10.590   2.130   8.509 -0.0740 -0.1758  0.0332
   38POPC   C1A  942  10.092   2.312   8.132 -0.0533 -0.2125 -0.0065
   38POPC   D2A  943   9.740   2.467   7.961 -0.0052  0.0778 -0.2502
   38POPC   C3A  944   9.768   2.469   7.552  0.0872  0.0663  0.0070
   38POPC   C4A  945  10.013   2.476   7.161  0.1414 -0.0943 -0.0306
   38POPC   C1B  946  10.568   2.151   8.152 -0.1756  0.1387 -0.0735
   38POPC   C2B  947  10.509   2.360   7.788 -0.1490 -0.2829  0.1076
   38POPC   C3B  948  10.553   2.564   7.403 -0.3016 -0.3580 -0.3632
   38POPC   C4B  949  10.577   2.893   7.086 -0.4570 -0.4801 -0.0700
   39POPC   NC3  950   8.303   4.673   8.668  0.3570  0.1077 -0.4533
   39POPC   PO4  951   8.708   4.851   8.619 -0.1688 -0.2250 -0.2043
   39POPC   GL1  952   8.624   4.861   8.195 -0.1258  0.3224 -0.0172
   39POPC   GL2  953   8.746   5.213   8.139  0.0199 -0.1275  0.1126
   39POPC   C1A  954   8.859   4.838   7.806  0.0409 -0.1449  0.0813
   39POPC   D2A  955   9.217   5.026   7.718 -0.1599  0.1991  0.0291
   39POPC   C3A  956   9.499   5.221   7.383 -0.0380 -0.1793 -0.1450
   39POPC   C4A  957   9.654   5.172   6.997  0.1798 -0.1172 -0.3012
   39POPC   C1B  958   8.885   5.523   7.998  0.1273 -0.1180 -0.0155
   39POPC   C2B  959   8.756   5.893   7.651 -0.0074 -0.1482 -0.0060
   39POPC   C3B  960   8.606   6.138   7.272 -0.1103 -0.0582  0.0669
   39POPC   C4B  961   8.459   6.034   6.866 -0.3459  0.4540  0.0666
   40POPC   NC3  962   8.679  10.321   9.742 -0.0426 -0.1123 -0.0015
   40POPC   PO4  963   8.604  10.583   9.331 -0.4675  0.0352 -0.3033
   40POPC   GL1  964   8.752  10.498   8.942 -0.0695 -0.0601  0.1804
   40POPC   GL2  965   8.789  10.694   8.680 -0.0349 -0.0475  0.0861
   40POPC   C1A  966   9.045  10.314   8.863 -0.1811  0.0285 -0.3456
   40POPC   D2A  967   9.453  10.252   8.907  0.1345  0.3334 -0.2861
   40POPC   C3A  968   9.766  10.151   8.567 -0.0548 -0.1207  0.1443
   40POPC   C4A  969  10.150   9.976   8.584 -0.1971 -0.0103 -0.3028
   40POPC   C1B  970   8.716  10.710   8.199 -0.0727 -0.1400 -0.0162
   40POPC   C2B  971   8.682  10.837   7.804 -0.2012  0.2029 -0.1172
   40POPC   C3B  972   8.615  10.779   7.391 -0.3314  0.4128 -0.0755
   40POPC   C4B  973   8.714  10.690   7.047  0.0976 -0.1866  0.2078
   41POPC   NC3  974   5.426   9.511   8.817  0.0965  0.0621 -0.2683
   41POPC   PO4  975   5.015   9.677   8.917  0.1209 -0.0024  0.1820
   41POPC   GL1  976   5.144   9.713   8.506  0.1231  0.0966  0.2880
   41POPC   GL2  977   5.408   9.806   8.395  0.3615 -0.0852  0.3035
   41POPC   C1A  978   5.109   9.764   8.006 -0.1291  0.1170 -0.5762
   41POPC   D2A  979   4.940   9.753   7.583  0.0402 -0.0707  0.2292
   41POPC   C3A  980   4.693   9.451   7.223 -0.1055 -0.1508  0.0032
   41POPC   C4A  981   4.788   9.233   6.821 -0.2140  0.1327  0.0908
   41POPC   C1B  982   5.541   9.508   8.014  0.2325 -0.3282 -0.3000
   41POPC   C2B  983   5.722   9.383   7.632  0.0248 -0.0926 -0.0472
   41POPC   C3B  984   5.722   9.394   7.239  0.1629  0.0059  0.4177
   41POPC   C4B  985   5.975   9.504   6.839  0.3178  0.2429  0.3433
   42POPC   NC3  986   8.684   0.542   9.070  0.0715 -0.0347  0.0207
   42POPC   PO4  987   8.483   0.909   8.857 -0.0328  0.2589  0.0146
   42POPC   GL1  988   8.462   0.680   8.512 -0.0945 -0.4455 -0.0763
   42POPC   GL2  989   8.695   0.697   8.203  0.3003 -0.0779  0.1937
   42POPC   C1A  990   8.243   0.321   8.344 -0.0602 -0.0966  0.1597
   42POPC   D2A  991   8.086  -0.036   8.469  0.3324  0.0757  0.0552
   42POPC   C3A  992   8.478  -0.252   8.521  0.1763  0.1745 -0.1304
   42POPC   C4A  993   8.487  -0.606   8.857 -0.1959  0.0817 -0.0043
   42POPC   C1B  994   8.563   0.902   7.860 -0.2699  0.0695 -0.0355
   42POPC   C2B  995   8.296   0.716   7.546 -0.0112 -0.0174  0.0867
   42POPC   C3B  996   7.995   0.373   7.310  0.0278  0.0364 -0.3058
   42POPC   C4B  997   7.580   0.183   7.244 -0.0265 -0.0775 -0.5413
   43POPC   NC3  998   0.495   7.375  10.123 -0.2356  0.0958 -0.2882
   43POPC   PO4  999   0.151   7.364   9.880 -0.4117  0.1366 -0.0243
   43POPC   GL1 1000   0.072   7.760   9.641  0.3717  0.2778 -0.0827
   43POPC   GL2 1001  -0.051   8.075   9.769 -0.1002 -0.3941 -0.1562
   43POPC   C1A 1002  -0.071   7.979   9.244 -0.2068  0.2194 -0.2310
   43POPC   D2A 1003  -0.158   7.997   8.864  0.1457 -0.0901  0.1801
   43POPC   C3A 1004  -0.426   7.701   8.678  0.0252  0.0146 -0.3759
   43POPC   C4A 1005  -0.723   7.566   8.583 -0.0289 -0.1713 -0.1182
   43POPC   C1B 1006   0.242   8.196   9.556 -0.2351 -0.3503  0.1164
   43POPC   C2B 1007   0.423   8.018   9.206 -0.0044 -0.1835  0.2465
   43POPC   C3B 1008   0.322   8.168   8.818 -0.1203  0.1758 -0.1276
   43POPC   C4B 1009   0.508   8.500   8.642 -0.0106 -0.2365 -0.1209
   44POPC   NC3 1010   0.987   2.429   8.720  0.3034  0.1068  0.0786
   44POPC   PO4 1011   1.452   2.498   8.607 -0.2956 -0.1478 -0.0226
   44POPC   GL1 1012   1.181   2.582   8.204 -0.0572  0.1883  0.1521
   44POPC   GL2 1013   1.185   2.171   8.238  0.2000 -0.0538 -0.3490
   44POPC   C1A 1014   0.982   2.573   7.807 -0.1916 -0.0091 -0.0168
   44POPC   D2A 1015   1.012   2.780   7.434  0.1747  0.2033  0.0190
   44POPC   C3A 1016   1.320   3.208   7.319  0.2074 -0.0952  0.1348
   44POPC   C4A 1017   1.567   3.274   7.000  0.0479  0.0395 -0.0867
   44POPC   C1B 1018   1.306   2.009   7.793  0.0015 -0.2582  0.1840
   44POPC   C2B 1019   1.272   1.687   7.373 -0.2414  0.3270  0.0401
   44POPC   C3B 1020   1.445   1.735   6.989 -0.1806  0.1078  0.2576
   44POPC   C4B 1021   1.834   1.624   6.839 -0.0787 -0.1046 -0.0902
   45POPC   NC3 1022   7.839   2.729   8.300 -0.1402 -0.0098  0.2387
   45POPC   PO4 1023   8.152   2.730   8.619  0.2155 -0.0093  0.1826
   45POPC   GL1 1024   8.311   2.690   8.168 -0.1069 -0.0579 -0.1788
   45POPC   GL2 1025   8.663   2.460   8.177 -0.0150 -0.1308 -0.0725
   45POPC   C1A 1026   8.394   2.683   7.752  0.2480 -0.3405 -0.0638
   45POPC   D2A 1027   8.688   2.539   7.497 -0.2696 -0.1341 -0.0679
   45POPC   C3A 1028   8.671   2.749   7.067 -0.0702 -0.2653  0.0286
   45POPC   C4A 1029   8.330   2.814   6.744 -0.1089 -0.0014  0.2350
   45POPC   C1B 1030   8.688   2.121   7.942 -0.2846  0.0954  0.1588
   45POPC   C2B 1031   8.429   1.866   7.781  0.1650  0.2281  0.2847
   45POPC   C3B 1032   8.325   1.631   7.455  0.1311  0.5706 -0.0475
   45POPC   C4B 1033   8.380   1.311   7.016  0.0006 -0.3221  0.0499
   46POPC   NC3 1034   8.375   5.627   8.766 -0.1025  0.5197 -0.0808
   46POPC   PO4 1035   8.359   5.186   8.758  0.0590  0.1791 -0.2139
   46POPC   GL1 1036   8.133   5.414   8.381  0.1914  0.1650 -0.1676
   46POPC   GL2 1037   8.373   5.607   8.283 -0.0205 -0.2139 -0.0959
   46POPC   C1A 1038   8.267   5.136   8.072  0.0384 -0.0569  0.2214
   46POPC   D2A 1039   8.335   5.167   7.618 -0.0237  0.1803 -0.0352
   46POPC   C3A 1040   8.784   5.289   7.517  0.0139  0.1963  0.2120
   46POPC   C4A 1041   9.143   5.535   7.538  0.1749  0.0161 -0.0619
   46POPC   C1B 1042   8.758   5.990   8.240 -0.0091 -0.1271  0.1232
   46POPC   C2B 1043   8.842   6.260   8.007  0.0928  0.2010 -0.1995
   46POPC   C3B 1044   8.938   6.485   7.528  0.2278 -0.0151  0.1923
   46POPC   C4B 1045   9.209   6.415   7.140  0.2330  0.1609  0.2544
   47POPC   NC3 1046   0.436   0.572   9.574 -0.0848  0.3058  0.2882
   47POPC   PO4 1047   0.373   0.214   9.213  0.4305  0.3013  0.0529
   47POPC   GL1 1048   0.449   0.142   8.731 -0.1388 -0.2229 -0.0400
   47POPC   GL2 1049   0.532   0.460   8.669 -0.0413  0.1535  0.0296
   47POPC   C1A 1050   0.480  -0.159   8.389 -0.1053  0.0828 -0.0639
   47POPC   D2A 1051   0.550  -0.251   7.930  0.0175 -0.1271 -0.2614
   47POPC   C3A 1052   0.155  -0.229   7.629  0.1300  0.0760  0.0265
   47POPC   C4A 1053  -0.026  -0.343   7.230  0.1352  0.0897  0.1917
   47POPC   C1B 1054   0.903   0.465   8.471 -0.1533  0.0893  0.1561
   47POPC   C2B 1055   0.910   0.082   8.175 -0.2695 -0.1978 -0.1185
   47POPC   C3B 1056   1.000  -0.027   7.749  0.2579  0.2918 -0.1336
   47POPC   C4B 1057   1.169  -0.098   7.315 -0.0570  0.0788 -0.0534
   48POPC   NC3 1058   6.254   9.976   9.030 -0.0964  0.1696  0.0591
   48POPC   PO4 1059   6.550   9.514   8.938  0.2288  0.0277 -0.3088
   48POPC   GL1 1060   6.643   9.294   8.523 -0.2124  0.1510  0.0107
   48POPC   GL2 1061   6.944   9.260   8.307 -0.0971 -0.0313 -0.2773
   48POPC   C1A 1062   6.451   9.153   8.124 -0.0109 -0.2792 -0.1422
   48POPC   D2A 1063   6.321   9.308   7.674 -0.4980 -0.1902 -0.1764
   48POPC   C3A 1064   6.136   9.645   7.399  0.1527  0.0046  0.1346
   48POPC   C4A 1065   6.307  10.004   7.147  0.0310 -0.0995  0.2349
   48POPC   C1B 1066   7.256   9.360   7.962 -0.1223  0.1210  0.1499
   48POPC   C2B 1067   7.637   9.388   7.713  0.0821  0.3484 -0.1961
   48POPC   C3B 1068   8.045   9.130   7.631  0.1417 -0.2531  0.1363
   48POPC   C4B 1069   8.335   8.808   7.528  0.0856 -0.0171 -0.3825
   49POPC   NC3 1070   3.534   4.835   8.832  0.0400  0.0810 -0.0474
   49POPC   PO4 1071   3.361   4.320   8.673 -0.0190  0.2663  0.0027
   49POPC   GL1 1072   3.379   4.331   8.177 -0.2454 -0.0118 -0.0580
   49POPC   GL2 1073   3.318   4.075   7.944 -0.2581  0.3385  0.2791
   49POPC   C1A 1074   3.388   4.474   7.770  0.0564  0.1140 -0.1128
   49POPC   D2A 1075   3.411   4.254   7.416 -0.3015 -0.1986 -0.2687
   49POPC   C3A 1076   3.184   4.561   7.188  0.3239 -0.2165  0.2582
   49POPC   C4A 1077   3.083   4.748   6.807 -0.1689  0.0554 -0.1001
   49POPC   C1B 1078   3.099   3.939   7.571 -0.0818  0.0657 -0.1035
   49POPC   C2B 1079   2.947   3.588   7.230 -0.3688  0.4518 -0.1033
   49POPC   C3B 1080   2.667   3.729   6.833 -0.0932 -0.5688 -0.1854
   49POPC   C4B 1081   2.246   3.854   6.765  0.0317  0.0414 -0.0277
   50POPC   NC3 1082   3.171   9.750   8.864 -0.1103 -0.1549  0.1286
   50POPC   PO4 1083   3.467   9.739   8.564 -0.0729  0.2399  0.0231
   50POPC   GL1 1084   3.338   9.441   8.441 -0.0624  0.1435  0.1416
   50POPC   GL2 1085   3.186   9.297   8.682  0.0100 -0.1401  0.0261
   50POPC   C1A 1086   3.265   9.410   8.015  0.2755  0.4104  0.0029
   50POPC   D2A 1087   3.160   9.163   7.706 -0.0938  0.2307  0.3387
   50POPC   C3A 1088   3.024   9.345   7.244 -0.0240 -0.2609  0.1668
   50POPC   C4A 1089   2.924   9.183   6.915  0.0788  0.1339  0.1233
   50POPC   C1B 1090   2.914   9.108   8.297 -0.1735 -0.1030  0.2108
   50POPC   C2B 1091   2.768   9.364   7.899  0.0914 -0.0275 -0.0664
   50POPC   C3B 1092   2.614   9.341   7.510 -0.2447 -0.2280 -0.1037
   50POPC   C4B 1093   2.493   9.176   7.174  0.0056  0.1500 -0.0578
   51POPC   NC3 1094   5.270   5.376   8.855  0.1156 -0.1850 -0.1323
   51POPC   PO4 1095   5.712   5.538   8.524 -0.2257 -0.3687  0.0290
   51POPC   GL1 1096   6.003   5.317   8.329 -0.0460  0.0385  0.3438
   51POPC   GL2 1097   6.230   5.146   8.443 -0.0471 -0.0351  0.0024
   51POPC   C1A 1098   6.082   5.352   7.903 -0.0756  0.2440 -0.0240
   51POPC   D2A 1099   6.428   5.114   7.539  0.1540  0.2156 -0.2463
   51POPC   C3A 1100   6.369   4.848   7.170 -0.1064 -0.0260 -0.0088
   51POPC   C4A 1101   6.097   4.589   6.862 -0.2203  0.1363 -0.1392
   51POPC   C1B 1102   6.317   4.909   8.046 -0.3299  0.0929  0.1144
   51POPC   C2B 1103   5.923   4.893   7.822 -0.1442 -0.0215  0.2172
   51POPC   C3B 1104   5.973   4.694   7.436 -0.1652 -0.3746  0.2629
   51POPC   C4B 1105   6.184   4.371   7.325 -0.1109 -0.1529  0.1952
   52POPC   NC3 1106   2.624   2.035   9.139  0.0418  0.3337  0.0214
   52POPC   PO4 1107   2.815   2.273   8.833  0.1110 -0.1080  0.0582
   52POPC   GL1 1108   2.848   2.081   8.438  0.2379 -0.0817 -0.3006
   52POPC   GL2 1109   2.798   2.243   8.260  0.1947  0.0253  0.0809
   52POPC   C1A 1110   3.070   1.913   7.983  0.3186 -0.0047 -0.1185
   52POPC   D2A 1111   3.069   1.899   7.562 -0.0569  0.2495 -0.2117
   52POPC   C3A 1112   3.307   1.726   7.280  0.0176  0.3452  0.2074
   52POPC   C4A 1113   3.531   1.345   7.238 -0.0446 -0.0472  0.0096
   52POPC   C1B 1114   2.913   2.380   7.790  0.3227 -0.1396 -0.2187
   52POPC   C2B 1115   3.075   2.436   7.378  0.0235  0.1434  0.1081
   52POPC   C3B 1116   3.057   2.164   6.983  0.1327 -0.1455  0.0012
   52POPC   C4B 1117   3.078   1.896   6.589  0.0500  0.0111 -0.0767
   53POPC   NC3 1118   2.477   4.632   8.709 -0.0301 -0.0257  0.0795
   53POPC   PO4 1119   2.098   4.812   8.499 -0.1260  0.0039  0.1438
   53POPC   GL1 1120   2.206   4.907   8.076 -0.0354  0.0880  0.0150
   53POPC   GL2 1121   2.492   4.782   8.173  0.2963  0.1245  0.1135
   53POPC   C1A 1122   2.162   4.884   7.628  0.3304 -0.1832 -0.3691
   53POPC   D2A 1123   2.126   4.952   7.208 -0.5243 -0.3205  0.1644
   53POPC   C3A 1124   2.253   4.533   6.915 -0.0766 -0.2160  0.0644
   53POPC   C4A 1125   2.068   4.364   6.467 -0.1039  0.3775 -0.2110
   53POPC   C1B 1126   2.353   4.298   7.964  0.1103 -0.0057 -0.0917
   53POPC   C2B 1127   2.052   4.157   7.726 -0.0183  0.1490  0.2528
   53POPC   C3B 1128   1.630   4.320   7.703 -0.1852 -0.2630  0.0063
   53POPC   C4B 1129   1.464   4.636   7.404 -0.2986  0.0312  0.0758
   54POPC   NC3 1130   6.207   2.504   9.029  0.2217  0.0230 -0.1500
   54POPC   PO4 1131   5.702   2.570   9.049  0.0562 -0.1124  0.0002
   54POPC   GL1 1132   5.671   2.534   8.637  0.0803  0.2643  0.2932
   54POPC   GL2 1133   5.528   2.708   8.439 -0.1378 -0.0344  0.2316
   54POPC   C1A 1134   5.554   2.206   8.226  0.3669 -0.2229 -0.4229
   54POPC   D2A 1135   5.380   2.170   7.884 -0.1594 -0.1439  0.0301
   54POPC   C3A 1136   5.620   1.931   7.557 -0.1629 -0.1487 -0.0699
   54POPC   C4A 1137   5.886   1.918   7.153 -0.0061  0.1484 -0.2740
   54POPC   C1B 1138   5.366   2.668   7.967  0.0549  0.0929  0.0111
   54POPC   C2B 1139   5.208   2.743   7.616  0.1058 -0.2266  0.3899
   54POPC   C3B 1140   5.011   3.005   7.237  0.2899  0.1727  0.3576
   54POPC   C4B 1141   5.159   2.970   6.777  0.2183  0.1826 -0.1306
   55POPC   NC3 1142   7.127   2.491   9.028  0.0828  0.1817 -0.0534
   55POPC   PO4 1143   7.088   2.535   8.610 -0.0824 -0.0374  0.3182
   55POPC   GL1 1144   6.797   2.695   8.323 -0.0747 -0.0617 -0.1092
   55POPC   GL2 1145   6.578   2.977   8.427  0.1975 -0.3027  0.2447
   55POPC   C1A 1146   6.418   2.601   8.168  0.0923 -0.0730  0.3109
   55POPC   D2A 1147   6.227   2.220   8.003  0.0091  0.2658  0.0764
   55POPC   C3A 1148   5.877   2.250   7.830  0.0723 -0.1370  0.2315
   55POPC   C4A 1149   5.624   2.459   7.514 -0.0392  0.0064  0.1446
   55POPC   C1B 1150   6.862   3.122   8.130 -0.5332  0.0359 -0.2423
   55POPC   C2B 1151   6.990   3.560   8.040 -0.0890 -0.0527 -0.0681
   55POPC   C3B 1152   7.351   3.604   7.794  0.0574 -0.0873 -0.1299
   55POPC   C4B 1153   7.425   3.586   7.416 -0.0032  0.1354 -0.0665
   56POPC   NC3 1154   8.210   4.161   8.860 -0.2273 -0.2839 -0.1423
   56POPC   PO4 1155   7.834   3.962   9.037 -0.1300 -0.3398 -0.1438
   56POPC   GL1 1156   7.684   4.095   8.489  0.1847 -0.3118  0.3025
   56POPC   GL2 1157   8.016   4.131   8.408  0.0113 -0.0863  0.0865
   56POPC   C1A 1158   7.698   4.345   8.019  0.0592  0.0990 -0.1260
   56POPC   D2A 1159   7.801   4.530   7.709 -0.0102 -0.1766  0.3678
   56POPC   C3A 1160   7.805   4.956   7.612  0.2289 -0.1982  0.3318
   56POPC   C4A 1161   7.468   5.300   7.527  0.3281 -0.1166 -0.1134
   56POPC   C1B 1162   8.188   4.132   7.990  0.2270 -0.0379 -0.2303
   56POPC   C2B 1163   8.246   4.261   7.559  0.1965 -0.0186 -0.0261
   56POPC   C3B 1164   8.089   4.549   7.228  0.0419 -0.1535 -0.0520
   56POPC   C4B 1165   8.026   4.902   7.146  0.1630 -0.0654 -0.0815
   57POPC   NC3 1166   2.253   0.547   8.856 -0.1355 -0.0101 -0.0077
   57POPC   PO4 1167   2.593   0.754   8.883  0.1198 -0.2747 -0.0595
   57POPC   GL1 1168   2.508   0.894   8.324  0.2310  0.0813 -0.2902
   57POPC   GL2 1169   2.849   0.988   8.218 -0.0353  0.1294 -0.0211
   57POPC   C1A 1170   2.554   0.735   7.915  0.0163 -0.0033 -0.0345
   57POPC   D2A 1171   2.310   0.659   7.571 -0.0763  0.0830 -0.2807
   57POPC   C3A 1172   2.319   0.719   7.027 -0.0586 -0.0150  0.0785
   57POPC   C4A 1173   2.714   0.647   6.791  0.0589  0.0056 -0.1746
   57POPC   C1B 1174   2.986   0.482   8.125  0.3123  0.0733 -0.2283
   57POPC   C2B 1175   3.428   0.397   7.993 -0.1719  0.2510  0.2776
   57POPC   C3B 1176   3.641   0.112   7.786 -0.3257 -0.2963 -0.4088
   57POPC   C4B 1177   3.759   0.147   7.336 -0.0793  0.0702 -0.2070
   58POPC   NC3 1178   6.012   7.330   8.561 -0.1150  0.0178 -0.0372
   58POPC   PO4 1179   5.833   6.984   8.697 -0.3076 -0.0205 -0.1307
   58POPC   GL1 1180   5.626   7.107   8.321  0.0766  0.2072 -0.2659
   58POPC   GL2 1181   5.408   7.350   8.259 -0.4471  0.0111  0.0052
   58POPC   C1A 1182   5.616   6.955   7.943 -0.1322 -0.2535  0.2463
   58POPC   D2A 1183   5.486   6.863   7.500 -0.2425  0.1515 -0.1751
   58POPC   C3A 1184   5.782   6.700   7.274  0.0030 -0.0252 -0.0747
   58POPC   C4A 1185   5.988   6.737   6.887 -0.1048  0.0990  0.1956
   58POPC   C1B 1186   5.528   7.411   7.835 -0.2613  0.0235  0.2722
   58POPC   C2B 1187   5.419   7.341   7.345  0.2036 -0.2959 -0.2877
   58POPC   C3B 1188   5.179   7.434   7.023  0.2095  0.0556 -0.0550
   58POPC   C4B 1189   4.794   7.277   6.961 -0.0050 -0.0895  0.0010
   59POPC   NC3 1190   3.846   5.316   8.835  0.0881  0.0348 -0.0088
   59POPC   PO4 1191   4.211   5.260   8.558  0.0237 -0.2236 -0.2277
   59POPC   GL1 1192   4.370   5.497   8.179 -0.1507  0.1598 -0.3868
   59POPC   GL2 1193   4.711   5.741   8.235 -0.2519  0.3463 -0.1742
   59POPC   C1A 1194   4.285   5.358   7.810  0.1563 -0.1285  0.2679
   59POPC   D2A 1195   3.947   5.253   7.617 -0.1399  0.0027 -0.0850
   59POPC   C3A 1196   3.485   5.184   7.627  0.0501 -0.0967  0.3667
   59POPC   C4A 1197   3.221   5.071   7.222  0.2483  0.0966 -0.0610
   59POPC   C1B 1198   4.461   5.911   7.811 -0.0375 -0.2174  0.1635
   59POPC   C2B 1199   4.665   5.788   7.462  0.1123  0.1293 -0.1112
   59POPC   C3B 1200   4.470   5.868   7.001  0.1054 -0.0091  0.1965
   59POPC   C4B 1201   4.241   6.058   6.568 -0.0454 -0.0383  0.0786
   60POPC   NC3 1202   2.490   2.565   8.471 -0.2612 -0.3352 -0.1201
   60POPC   PO4 1203   2.349   2.167   8.617 -0.0803 -0.0439 -0.3005
   60POPC   GL1 1204   2.427   1.856   8.343 -0.2456 -0.1850 -0.0033
   60POPC   GL2 1205   2.144   1.873   8.177  0.0699 -0.0592  0.0755
   60POPC   C1A 1206   2.599   1.786   7.972  0.0132  0.1766  0.1875
   60POPC   D2A 1207   2.617   1.650   7.557 -0.2828 -0.0746 -0.0505
   60POPC   C3A 1208   2.837   1.538   7.201 -0.4593  0.0120  0.1692
   60POPC   C4A 1209   3.012   1.445   6.797 -0.3121 -0.0352  0.0142
   60POPC   C1B 1210   1.694   1.698   7.913  0.0258  0.1638 -0.2314
   60POPC   C2B 1211   1.714   1.512   7.472 -0.0513 -0.2257  0.0692
   60POPC   C3B 1212   1.601   1.176   7.186 -0.3205 -0.0936  0.1804
   60POPC   C4B 1213   1.238   1.050   6.966  0.2764 -0.1000 -0.3987
   61POPC   NC3 1214   5.568   6.421   8.851 -0.1568 -0.0909  0.0347
   61POPC   PO4 1215   5.181   6.377   8.670 -0.2227  0.4027  0.4523
   61POPC   GL1 1216   5.048   6.218   8.274 -0.2844  0.1329  0.1017
   61POPC   GL2 1217   4.768   6.392   8.217 -0.2111 -0.4416 -0.1667
   61POPC   C1A 1218   4.993   5.955   7.842  0.1106 -0.0666 -0.1587
   61POPC   D2A 1219   4.830   6.296   7.607  0.2601  0.0303  0.1004
   61POPC   C3A 1220   4.783   6.232   7.186 -0.0936 -0.1819 -0.0949
   61POPC   C4A 1221   5.103   6.187   6.889  0.0507  0.1492 -0.2092
   61POPC   C1B 1222   5.077   6.603   7.939 -0.1580 -0.0474  0.1794
   61POPC   C2B 1223   5.499   6.437   7.822  0.0376 -0.1824  0.0456
   61POPC   C3B 1224   5.948   6.506   7.727  0.0710  0.1914 -0.0219
   61POPC   C4B 1225   6.060   6.853   7.699 -0.1156  0.0100 -0.3330
   62POPC   NC3 1226   2.224   7.606   9.589  0.0218 -0.1504  0.0962
   62POPC   PO4 1227   2.393   7.978   9.506 -0.0596  0.0417  0.0076
   62POPC   GL1 1228   2.343   7.926   9.059 -0.1512 -0.1269 -0.0251
   62POPC   GL2 1229   2.452   7.625   8.933 -0.1223 -0.0131 -0.2483
   62POPC   C1A 1230   2.038   7.990   8.703  0.2877  0.0061  0.2552
   62POPC   D2A 1231   1.961   8.353   8.481 -0.1304 -0.1183  0.0021
   62POPC   C3A 1232   1.909   8.404   7.946  0.1630  0.1895  0.3805
   62POPC   C4A 1233   1.971   8.557   7.669  0.2458  0.1933  0.2334
   62POPC   C1B 1234   2.495   7.688   8.502  0.0143 -0.1835 -0.3058
   62POPC   C2B 1235   2.592   7.790   8.072  0.0291  0.0976  0.3137
   62POPC   C3B 1236   2.796   7.703   7.695  0.4823  0.0442  0.0481
   62POPC   C4B 1237   2.867   7.767   7.179  0.0215  0.6063 -0.0053
   63POPC   NC3 1238   1.892   2.280   8.849 -0.4118  0.0101  0.1350
   63POPC   PO4 1239   1.959   2.569   8.497 -0.0393 -0.0772 -0.1083
   63POPC   GL1 1240   2.093   2.368   8.215 -0.0273 -0.1350 -0.1626
   63POPC   GL2 1241   2.378   2.384   8.066  0.0411 -0.1048  0.1445
   63POPC   C1A 1242   1.936   2.151   7.821 -0.0525 -0.1244  0.3449
   63POPC   D2A 1243   1.773   2.038   7.560  0.0419  0.0751  0.0389
   63POPC   C3A 1244   1.500   2.213   7.374 -0.1177 -0.4771  0.3132
   63POPC   C4A 1245   1.073   2.251   7.389 -0.0028 -0.1429  0.1042
   63POPC   C1B 1246   2.467   2.237   7.733 -0.1578 -0.0191 -0.3920
   63POPC   C2B 1247   2.683   2.122   7.292  0.0018  0.2643  0.3013
   63POPC   C3B 1248   2.646   1.934   6.887 -0.0923  0.1751 -0.0513
   63POPC   C4B 1249   2.518   1.955   6.487  0.3860  0.3618 -0.1964
   64POPC   NC3 1250   3.227   6.790   8.642  0.2157 -0.1910 -0.0087
   64POPC   PO4 1251   3.334   6.471   8.328  0.0454 -0.3118  0.1376
   64POPC   GL1 1252   3.519   6.518   7.993  0.1573 -0.0964 -0.1624
   64POPC   GL2 1253   3.585   6.184   7.876 -0.1570  0.0313  0.2991
   64POPC   C1A 1254   3.572   6.496   7.517 -0.0348  0.0434 -0.0774
   64POPC   D2A 1255   3.863   6.452   7.284 -0.1753  0.5223  0.1543
   64POPC   C3A 1256   3.840   5.983   7.159  0.2423 -0.1918  0.0528
   64POPC   C4A 1257   4.005   5.683   6.918  0.0422  0.1615  0.2694
   64POPC   C1B 1258   3.164   6.119   7.576 -0.1809  0.2042 -0.0390
   64POPC   C2B 1259   2.814   5.914   7.616 -0.0678 -0.2851  0.0770
   64POPC   C3B 1260   2.694   5.635   7.242 -0.0307 -0.1753 -0.1542
   64POPC   C4B 1261   2.890   5.372   6.964  0.0239 -0.1160 -0.0804
   65POPC   NC3 1262   7.232   7.589   9.362 -0.0572  0.0056  0.0365
   65POPC   PO4 1263   7.370   7.167   9.205  0.1024  0.0914 -0.0740
   65POPC   GL1 1264   7.401   7.187   8.732  0.1755 -0.2561  0.1312
   65POPC   GL2 1265   7.633   6.898   8.485  0.5809  0.1295  0.0186
   65POPC   C1A 1266   7.653   7.440   8.473  0.0092  0.1638 -0.0430
   65POPC   D2A 1267   7.999   7.674   8.200  0.3325 -0.1067  0.2266
   65POPC   C3A 1268   7.928   8.161   7.827  0.2714 -0.0811 -0.5051
   65POPC   C4A 1269   7.899   8.552   7.615 -0.1491  0.0570 -0.0204
   65POPC   C1B 1270   7.592   6.913   8.067 -0.2606 -0.2598  0.1077
   65POPC   C2B 1271   7.371   6.820   7.626  0.0764 -0.2012 -0.0516
   65POPC   C3B 1272   7.169   6.624   7.296 -0.3178 -0.2085 -0.1410
   65POPC   C4B 1273   6.815   6.369   7.151  0.0188  0.2622 -0.0086
   66POPC   NC3 1274   3.332   3.100   8.942  0.0278  0.2554  0.2340
   66POPC   PO4 1275   3.564   2.725   8.827 -0.0686  0.0165 -0.0511
   66POPC   GL1 1276   3.568   2.509   8.402 -0.0004  0.0572 -0.1026
   66POPC   GL2 1277   3.244   2.452   8.250 -0.0828  0.1141  0.2623
   66POPC   C1A 1278   3.675   2.117   8.193 -0.2786 -0.2691 -0.0428
   66POPC   D2A 1279   3.714   1.704   8.200 -0.4335  0.1702  0.1943
   66POPC   C3A 1280   4.095   1.571   7.940 -0.2007  0.0527  0.0904
   66POPC   C4A 1281   4.200   1.263   7.802  0.1624  0.0147  0.2292
   66POPC   C1B 1282   3.495   2.328   7.766  0.0119  0.2453  0.2550
   66POPC   C2B 1283   3.511   2.170   7.319 -0.0260 -0.0717 -0.0557
   66POPC   C3B 1284   3.653   1.934   6.920  0.0362  0.1870  0.2623
   66POPC   C4B 1285   3.539   1.600   6.820  0.1010  0.0545  0.1814
   67POPC   NC3 1286   0.767   5.079   9.200  0.2001  0.2180  0.0680
   67POPC   PO4 1287   0.290   4.999   9.098 -0.0099  0.0580  0.1177
   67POPC   GL1 1288   0.226   5.102   8.702  0.0608 -0.3279 -0.2437
   67POPC   GL2 1289   0.555   5.148   8.538 -0.1269 -0.3562 -0.5177
   67POPC   C1A 1290  -0.105   5.421   8.475 -0.0766  0.1190 -0.1242
   67POPC   D2A 1291  -0.446   5.650   8.551  0.0392 -0.1091  0.1984
   67POPC   C3A 1292  -0.277   5.923   8.242 -0.1342 -0.1530 -0.1916
   67POPC   C4A 1293  -0.438   6.435   8.067  0.2754 -0.2990  0.1771
   67POPC   C1B 1294   0.394   4.981   8.148 -0.1449  0.1010  0.0564
   67POPC   C2B 1295   0.225   4.983   7.688 -0.2609  0.0217 -0.1117
   67POPC   C3B 1296   0.397   5.162   7.263  0.2158  0.0425  0.1378
   67POPC   C4B 1297   0.659   4.990   6.971  0.2172 -0.0162 -0.1354
   68POPC   NC3 1298   4.167   8.387   9.105  0.0043 -0.0298 -0.0958
   68POPC   PO4 1299   4.193   7.882   8.968  0.1044  0.3392  0.0203
   68POPC   GL1 1300   3.870   8.037   8.831  0.4960 -0.1509 -0.4562
   68POPC   GL2 1301   3.801   8.401   8.657  0.3136  0.2445 -0.1713
   68POPC   C1A 1302   3.873   7.999   8.377  0.0152 -0.0702  0.0001
   68POPC   D2A 1303   3.852   8.126   8.021  0.2308  0.2309 -0.1851
   68POPC   C3A 1304   3.917   8.563   7.868 -0.1467 -0.2734 -0.0231
   68POPC   C4A 1305   4.046   8.768   7.448 -0.3003 -0.1456  0.0332
   68POPC   C1B 1306   3.415   8.192   8.376  0.0896 -0.1238 -0.0071
   68POPC   C2B 1307   3.351   8.339   7.942 -0.0914 -0.1387  0.0947
   68POPC   C3B 1308   3.088   8.556   7.614  0.0127  0.0344  0.0612
   68POPC   C4B 1309   2.896   8.883   7.368 -0.0193 -0.1749  0.3394
   69POPC   NC3 1310   4.353   0.095   8.936  0.0799 -0.0458  0.1088
   69POPC   PO4 1311   4.127  -0.278   8.752 -0.2033 -0.2063  0.1348
   69POPC   GL1 1312   4.120  -0.512   8.306 -0.3725 -0.3704  0.0269
   69POPC   GL2 1313   3.856  -0.395   8.269  0.3942 -0.6241 -0.2796
   69POPC   C1A 1314   4.255  -0.674   7.859  0.2796  0.1213 -0.2218
   69POPC   D2A 1315   4.544  -0.988   7.739  0.0557 -0.1433  0.3317
   69POPC   C3A 1316   4.657  -1.406   7.644 -0.0898  0.2139 -0.2341
   69POPC   C4A 1317   4.595  -1.858   7.521 -0.1729  0.0265 -0.3056
   69POPC   C1B 1318   3.642  -0.642   7.958 -0.0491  0.2502 -0.0838
   69POPC   C2B 1319   3.364  -0.742   7.634 -0.2838  0.1826  0.0536
   69POPC   C3B 1320   3.375  -0.801   7.120 -0.2572 -0.2250 -0.0950
   69POPC   C4B 1321   3.431  -1.183   6.847  0.0245 -0.0437 -0.0089
   70POPC   NC3 1322   9.089   5.024   9.038  0.1011 -0.0322  0.0455
   70POPC   PO4 1323   9.159   4.683   8.851 -0.1113  0.2271  0.0067
   70POPC   GL1 1324   9.407   4.672   8.522  0.0476  0.2566 -0.1002
   70POPC   GL2 1325   9.364   4.319   8.443  0.1079  0.0348 -0.3675
   70POPC   C1A 1326   9.706   4.959   8.218 -0.1708 -0.1659 -0.1704
   70POPC   D2A 1327   9.903   5.280   8.225 -0.1450 -0.0605 -0.0919
   70POPC   C3A 1328   9.764   5.739   8.107  0.1734 -0.2391 -0.1787
   70POPC   C4A 1329   9.758   6.100   8.315  0.1529  0.2242 -0.1091
   70POPC   C1B 1330   9.023   4.264   8.203 -0.0401  0.0172  0.3864
   70POPC   C2B 1331   8.791   4.324   7.923 -0.0997 -0.1495 -0.0249
   70POPC   C3B 1332   8.704   4.254   7.495 -0.2065 -0.4255  0.1250
   70POPC   C4B 1333   8.473   4.244   7.106 -0.1787 -0.3183 -0.0353
   71POPC   NC3 1334   1.290   0.144   9.374 -0.0252  0.0216 -0.1089
   71POPC   PO4 1335   1.633   0.236   9.112 -0.2022 -0.0383 -0.3774
   71POPC   GL1 1336   1.736   0.181   8.735  0.0485  0.2194  0.1988
   71POPC   GL2 1337   2.035   0.171   8.616  0.2609  0.1067  0.3458
   71POPC   C1A 1338   1.597  -0.246   8.509  0.1902  0.2799  0.3231
   71POPC   D2A 1339   1.321  -0.232   8.059 -0.1571  0.2565 -0.0161
   71POPC   C3A 1340   0.945  -0.478   8.176  0.1963 -0.0411  0.0525
   71POPC   C4A 1341   0.601  -0.745   8.301 -0.2676  0.0429 -0.0066
   71POPC   C1B 1342   1.943  -0.002   8.247 -0.1437 -0.0485  0.1122
   71POPC   C2B 1343   2.072   0.256   7.849  0.0447  0.2744  0.0334
   71POPC   C3B 1344   2.011   0.298   7.456 -0.0290  0.1720 -0.3244
   71POPC   C4B 1345   1.802   0.673   7.243  0.0802  0.2376  0.0388
   72POPC   NC3 1346   5.589   3.992   8.685  0.0894 -0.0547 -0.0092
   72POPC   PO4 1347   5.598   3.742   8.319 -0.0080 -0.1696 -0.0770
   72POPC   GL1 1348   5.468   3.674   7.912 -0.0937 -0.0688  0.2154
   72POPC   GL2 1349   5.046   3.656   7.804  0.2482  0.2480 -0.0354
   72POPC   C1A 1350   5.317   4.022   7.528 -0.2374 -0.3163  0.3641
   72POPC   D2A 1351   5.234   3.844   7.219  0.1040 -0.0737  0.1422
   72POPC   C3A 1352   5.684   3.817   7.020  0.1129 -0.2743  0.0540
   72POPC   C4A 1353   5.717   3.834   6.621 -0.0650  0.0756 -0.1963
   72POPC   C1B 1354   4.975   3.480   7.407 -0.0453 -0.0942 -0.0280
   72POPC   C2B 1355   4.836   3.445   6.949 -0.1130  0.1117 -0.3039
   72POPC   C3B 1356   4.835   3.530   6.559  0.2222 -0.1673  0.0028
   72POPC   C4B 1357   4.758   3.804   6.184 -0.5330  0.1281 -0.1988
   73POPC   NC3 1358   1.813   5.357   9.197 -0.1441 -0.2992 -0.1135
   73POPC   PO4 1359   1.409   5.577   9.113 -0.2428 -0.2661 -0.0768
   73POPC   GL1 1360   1.142   5.672   8.712  0.2541  0.3001  0.1563
   73POPC   GL2 1361   0.866   5.446   8.778  0.1935 -0.2327 -0.0491
   73POPC   C1A 1362   0.863   5.846   8.293  0.1232 -0.2194  0.2105
   73POPC   D2A 1363   0.929   6.195   7.880  0.2315 -0.1157 -0.0146
   73POPC   C3A 1364   1.179   5.995   7.427 -0.0032  0.1503 -0.2339
   73POPC   C4A 1365   1.067   5.827   7.126 -0.1936 -0.1774 -0.0709
   73POPC   C1B 1366   0.908   5.355   8.319 -0.0765 -0.0581  0.2178
   73POPC   C2B 1367   0.964   5.110   7.951  0.1588  0.2602  0.0508
   73POPC   C3B 1368   1.314   4.962   7.728 -0.1142 -0.1246  0.4611
   73POPC   C4B 1369   1.649   4.826   7.807 -0.0988 -0.1381  0.2686
   74POPC   NC3 1370   4.376   4.807   8.245  0.2068  0.0548  0.0620
   74POPC   PO4 1371   4.654   4.960   8.383 -0.0478  0.1311 -0.2663
   74POPC   GL1 1372   4.824   5.176   8.151 -0.1725 -0.1144  0.1741
   74POPC   GL2 1373   5.011   4.985   7.985 -0.0682 -0.3888 -0.2268
   74POPC   C1A 1374   4.977   5.421   7.786 -0.2360 -0.1991  0.1241
   74POPC   D2A 1375   5.284   5.576   7.516 -0.0849  0.0558 -0.0755
   74POPC   C3A 1376   5.294   6.002   7.422 -0.1551  0.0241  0.0292
   74POPC   C4A 1377   5.324   6.427   7.317  0.0866 -0.2209 -0.1948
   74POPC   C1B 1378   5.153   5.029   7.455  0.2340 -0.2023 -0.2987
   74POPC   C2B 1379   5.433   5.210   7.175 -0.0199  0.1452  0.0929
   74POPC   C3B 1380   5.588   5.307   6.776  0.1055  0.0853  0.1066
   74POPC   C4B 1381   5.737   5.722   6.614  0.1153 -0.0939  0.2420
   75POPC   NC3 1382   5.823   2.056   8.803  0.1499 -0.4296  0.0499
   75POPC   PO4 1383   6.120   1.878   8.500 -0.0443 -0.0125  0.2538
   75POPC   GL1 1384   6.395   1.672   8.132 -0.3492  0.2306 -0.1048
   75POPC   GL2 1385   6.280   1.355   8.141 -0.1628 -0.0760 -0.0609
   75POPC   C1A 1386   6.668   1.868   7.770  0.3696 -0.2184  0.2695
   75POPC   D2A 1387   6.998   1.837   7.421 -0.0292 -0.1922 -0.1875
   75POPC   C3A 1388   6.999   1.795   7.046 -0.0035  0.0476  0.0148
   75POPC   C4A 1389   6.759   1.945   6.724 -0.0020 -0.1556  0.1882
   75POPC   C1B 1390   6.405   1.308   7.749 -0.2092 -0.0775 -0.3490
   75POPC   C2B 1391   6.569   1.533   7.415  0.2195 -0.1568 -0.0321
   75POPC   C3B 1392   6.470   1.785   7.090 -0.2278  0.2857  0.2118
   75POPC   C4B 1393   6.314   2.131   6.929  0.2821  0.1411 -0.2397
   76POPC   NC3 1394   9.406   2.564   8.442  0.0285  0.3770 -0.1608
   76POPC   PO4 1395   9.021   2.572   8.625  0.3064  0.1391 -0.0800
   76POPC   GL1 1396   8.989   2.853   8.301 -0.0964 -0.3737 -0.1046
   76POPC   GL2 1397   8.965   3.334   8.275 -0.1082 -0.4716  0.1690
   76POPC   C1A 1398   8.917   2.737   7.915 -0.3201  0.1682 -0.1651
   76POPC   D2A 1399   9.252   2.575   7.661  0.2347 -0.0406 -0.0001
   76POPC   C3A 1400   9.364   2.363   7.163 -0.3384 -0.0237 -0.3043
   76POPC   C4A 1401   9.627   2.025   6.971 -0.0172  0.2111 -0.1970
   76POPC   C1B 1402   8.945   3.371   7.818 -0.1690 -0.1400 -0.0000
   76POPC   C2B 1403   9.152   3.515   7.483 -0.0686  0.1429  0.1832
   76POPC   C3B 1404   9.317   3.799   7.273 -0.0190  0.0655 -0.0077
   76POPC   C4B 1405   9.414   4.055   6.966  0.1606 -0.3699  0.2636
   77POPC   NC3 1406   8.528   1.460   8.756  0.1468 -0.1822 -0.0663
   77POPC   PO4 1407   8.984   1.232   8.773 -0.1073  0.2270  0.1316
   77POPC   GL1 1408   8.898   1.176   8.391 -0.2161  0.0944 -0.1656
   77POPC   GL2 1409   8.521   1.143   8.325 -0.0422 -0.1077  0.3661
   77POPC   C1A 1410   8.998   1.136   7.942  0.0587  0.2576 -0.4838
   77POPC   D2A 1411   9.107   1.277   7.480 -0.1743  0.2478 -0.1328
   77POPC   C3A 1412   9.482   1.247   7.238 -0.5190 -0.6294  0.0735
   77POPC   C4A 1413   9.632   1.012   6.957  0.0960 -0.0704  0.1547
   77POPC   C1B 1414   8.525   1.380   8.019 -0.0879  0.0606  0.0856
   77POPC   C2B 1415   8.801   1.607   7.754 -0.4186 -0.1871  0.1576
   77POPC   C3B 1416   8.782   1.627   7.290  0.1193  0.3274  0.0458
   77POPC   C4B 1417   8.688   1.801   6.916 -0.0669  0.1021  0.2439
   78POPC   NC3 1418   6.460   6.668   9.079 -0.0828  0.4381  0.1052
   78POPC   PO4 1419   6.379   6.291   8.818 -0.0397  0.0167 -0.3104
   78POPC   GL1 1420   6.466   6.347   8.394 -0.0588 -0.2017  0.0479
   78POPC   GL2 1421   6.695   6.281   8.207  0.1751  0.1287 -0.2417
   78POPC   C1A 1422   6.470   6.754   8.005 -0.0712 -0.0031 -0.1667
   78POPC   D2A 1423   6.566   6.947   7.593  0.1373 -0.1109  0.2449
   78POPC   C3A 1424   6.692   6.858   7.112 -0.0085  0.0254 -0.1263
   78POPC   C4A 1425   6.907   6.700   6.798  0.0046 -0.1049 -0.0223
   78POPC   C1B 1426   6.476   6.043   7.868 -0.0972  0.1030  0.0286
   78POPC   C2B 1427   6.586   5.968   7.375 -0.1002 -0.1373  0.2342
   78POPC   C3B 1428   6.647   5.961   7.012 -0.1116  0.4657  0.1096
   78POPC   C4B 1429   6.491   6.277   6.769  0.1311 -0.1113 -0.2385
   79POPC   NC3 1430   9.189   0.769   9.100 -0.1273  0.1226  0.2519
   79POPC   PO4 1431   9.520   0.952   8.824  0.0492  0.1749  0.1386
   79POPC   GL1 1432   9.332   0.897   8.355 -0.0480 -0.0232 -0.0918
   79POPC   GL2 1433   9.407   1.250   8.286 -0.0789  0.0249 -0.1278
   79POPC   C1A 1434   9.602   0.614   8.102  0.0839  0.2558 -0.0844
   79POPC   D2A 1435   9.522   0.328   7.886  0.1127 -0.2101  0.2830
   79POPC   C3A 1436   9.901  -0.030   7.749 -0.2440 -0.2099  0.2012
   79POPC   C4A 1437  10.161   0.057   7.419 -0.0852  0.2816  0.1647
   79POPC   C1B 1438   9.478   1.143   7.811 -0.5870 -0.0971 -0.0018
   79POPC   C2B 1439   9.462   0.851   7.461 -0.1249  0.1015  0.0001
   79POPC   C3B 1440   9.224   0.747   7.088  0.0565  0.0376  0.2978
   79POPC   C4B 1441   9.053   0.596   6.758 -0.0323 -0.2580 -0.0929
   80POPC   NC3 1442   6.599   4.385   8.847  0.2350 -0.1681 -0.1302
   80POPC   PO4 1443   6.622   3.985   8.584 -0.0916 -0.0605  0.1125
   80POPC   GL1 1444   6.589   3.870   8.207  0.1139  0.0102 -0.0275
   80POPC   GL2 1445   6.710   4.136   8.100 -0.1417 -0.0422 -0.0268
   80POPC   C1A 1446   6.514   3.516   7.921  0.2383 -0.1992 -0.0929
   80POPC   D2A 1447   6.339   3.585   7.537 -0.2289  0.1129 -0.2152
   80POPC   C3A 1448   6.425   3.236   7.267 -0.1312 -0.0548  0.1379
   80POPC   C4A 1449   6.518   3.371   6.902  0.1281  0.2384 -0.0893
   80POPC   C1B 1450   6.456   4.122   7.722  0.1406  0.2600 -0.0004
   80POPC   C2B 1451   6.567   4.019   7.279 -0.1222 -0.1307  0.1216
   80POPC   C3B 1452   6.454   3.892   6.996  0.0118  0.3230 -0.1076
   80POPC   C4B 1453   6.245   4.154   6.612 -0.2170 -0.2772  0.0554
   81POPC   NC3 1454   4.921   7.161   9.239 -0.3073 -0.0316 -0.1212
   81POPC   PO4 1455   5.066   7.265   8.786 -0.1444  0.1468  0.0625
   81POPC   GL1 1456   4.870   7.337   8.402 -0.0647  0.0272 -0.1001
   81POPC   GL2 1457   4.522   7.422   8.264 -0.0007 -0.0870  0.1519
   81POPC   C1A 1458   4.971   7.433   8.027 -0.2361 -0.1807  0.0347
   81POPC   D2A 1459   5.150   7.153   7.873  0.1081  0.3308  0.2011
   81POPC   C3A 1460   4.995   7.248   7.489  0.0470  0.0689 -0.4207
   81POPC   C4A 1461   4.846   7.657   7.316  0.1835 -0.0147  0.0368
   81POPC   C1B 1462   4.515   7.295   7.793  0.0110 -0.0650 -0.1452
   81POPC   C2B 1463   4.462   7.268   7.340  0.1130  0.1514  0.3364
   81POPC   C3B 1464   4.234   7.618   7.175  0.0783 -0.0365  0.3074
   81POPC   C4B 1465   3.900   7.988   6.960  0.1333  0.1754 -0.0534
   82POPC   NC3 1466   5.079   1.021   8.840  0.2732 -0.5176  0.2836
   82POPC   PO4 1467   4.621   0.952   8.764 -0.0937 -0.0087 -0.2338
   82POPC   GL1 1468   4.897   0.978   8.346 -0.0452 -0.2554 -0.1146
   82POPC   GL2 1469   5.214   1.125   8.335  0.2733  0.0564 -0.1690
   82POPC   C1A 1470   4.916   0.748   7.930  0.0789  0.1319  0.2924
   82POPC   D2A 1471   5.050   0.576   7.525  0.1248  0.2436 -0.2077
   82POPC   C3A 1472   4.840   0.745   7.090  0.2317 -0.0374 -0.2122
   82POPC   C4A 1473   4.525   0.599   6.843 -0.1811  0.3047 -0.0400
   82POPC   C1B 1474   5.214   1.244   7.936 -0.0995  0.0743  0.3937
   82POPC   C2B 1475   5.436   1.466   7.742 -0.0231 -0.3460  0.0219
   82POPC   C3B 1476   5.599   1.492   7.370  0.0258 -0.1118  0.0347
   82POPC   C4B 1477   5.589   1.443   6.892 -0.2350  0.0463  0.0175
   83POPC   NC3 1478   8.526   2.445   8.784 -0.0855 -0.0487  0.0027
   83POPC   PO4 1479   8.299   2.201   8.472 -0.4697 -0.0466  0.0618
   83POPC   GL1 1480   8.041   2.210   8.127 -0.0293 -0.1091 -0.1549
   83POPC   GL2 1481   7.704   2.298   8.155  0.3704  0.0873 -0.1389
   83POPC   C1A 1482   8.169   2.268   7.771  0.2575  0.1597  0.3676
   83POPC   D2A 1483   8.078   2.173   7.351  0.0121  0.0959  0.0852
   83POPC   C3A 1484   8.565   2.144   7.394 -0.1646  0.1699 -0.1445
   83POPC   C4A 1485   8.948   2.080   7.538 -0.0362 -0.0233  0.0343
   83POPC   C1B 1486   7.647   2.230   7.735  0.2650 -0.2892  0.4419
   83POPC   C2B 1487   7.545   1.972   7.292  0.1111 -0.0835  0.0897
   83POPC   C3B 1488   7.574   1.629   6.918 -0.3920 -0.1015 -0.0580
   83POPC   C4B 1489   7.212   1.334   6.809 -0.0826 -0.0978  0.1822
   84POPC   NC3 1490  10.324   7.713  10.120  0.0036 -0.1045  0.1754
   84POPC   PO4 1491   9.982   7.636  10.373  0.2723 -0.0214 -0.3021
   84POPC   GL1 1492   9.960   7.680   9.831  0.1988 -0.0020  0.2617
   84POPC   GL2 1493  10.003   7.839   9.588 -0.0159  0.3062  0.0012
   84POPC   C1A 1494   9.548   7.693   9.665 -0.0791 -0.0701 -0.1958
   84POPC   D2A 1495   9.428   7.925   9.430 -0.1481  0.1036  0.1385
   84POPC   C3A 1496   9.175   7.726   9.314  0.1016  0.1524  0.2553
   84POPC   C4A 1497   9.056   7.590   8.906  0.0317 -0.2130  0.2052
   84POPC   C1B 1498   9.983   8.159   9.407  0.0069  0.1510  0.3524
   84POPC   C2B 1499   9.663   8.422   9.324 -0.0483  0.1104 -0.2013
   84POPC   C3B 1500   9.272   8.557   9.353 -0.1172  0.2670  0.1439
   84POPC   C4B 1501   8.937   8.594   9.557 -0.1171 -0.0387 -0.3048
   85POPC   NC3 1502   6.195   5.575   8.723  0.0696 -0.0060  0.0198
   85POPC   PO4 1503   6.455   5.831   8.517  0.0787 -0.1272 -0.1166
   85POPC   GL1 1504   6.533   5.539   8.291 -0.2226  0.2312 -0.1419
   85POPC   GL2 1505   6.768   5.214   8.319 -0.2599 -0.0520 -0.0714
   85POPC   C1A 1506   6.548   5.549   7.873 -0.1522  0.3036  0.0400
   85POPC   D2A 1507   6.227   5.604   7.482  0.0207  0.4789  0.0898
   85POPC   C3A 1508   6.130   6.000   7.351  0.0213  0.0110  0.1258
   85POPC   C4A 1509   5.773   6.188   7.344  0.0296 -0.1744 -0.3490
   85POPC   C1B 1510   6.859   4.904   7.961 -0.3855  0.0859 -0.2242
   85POPC   C2B 1511   6.946   5.009   7.616  0.1805 -0.2565 -0.1739
   85POPC   C3B 1512   7.112   4.950   7.137 -0.0611  0.0737 -0.0734
   85POPC   C4B 1513   7.137   4.543   6.925 -0.6323  0.1518 -0.2465
   86POPC   NC3 1514  10.036  10.282   9.184 -0.1170  0.4104 -0.3026
   86POPC   PO4 1515   9.673  10.637   9.182  0.1699  0.1335  0.0403
   86POPC   GL1 1516   9.554  10.722   8.733 -0.1746  0.2108 -0.0846
   86POPC   GL2 1517   9.388  10.972   8.705  0.3457 -0.1713  0.4189
   86POPC   C1A 1518   9.647  10.623   8.380 -0.0045 -0.0176 -0.1527
   86POPC   D2A 1519   9.519  10.316   8.084 -0.0826  0.1367 -0.1519
   86POPC   C3A 1520   9.416  10.414   7.605  0.2144  0.0780 -0.1973
   86POPC   C4A 1521   9.385  10.147   7.268  0.1252 -0.0578  0.0791
   86POPC   C1B 1522   9.201  10.821   8.267  0.2797  0.0256  0.0781
   86POPC   C2B 1523   9.040  11.082   7.879 -0.3010  0.0403  0.1307
   86POPC   C3B 1524   8.860  11.307   7.461  0.1330  0.2665  0.0070
   86POPC   C4B 1525   8.595  11.304   7.184  0.2439 -0.4382  0.2428
   87POPC   NC3 1526   4.647   7.788   8.735 -0.0062  0.0252  0.2294
   87POPC   PO4 1527   4.629   8.194   8.781  0.0953  0.0291  0.0314
   87POPC   GL1 1528   4.643   8.163   8.376  0.0500 -0.0784 -0.1495
   87POPC   GL2 1529   4.723   7.858   8.182  0.3426 -0.2290 -0.2993
   87POPC   C1A 1530   4.963   8.276   7.956  0.0432  0.1120 -0.1116
   87POPC   D2A 1531   5.041   8.670   7.712 -0.0603  0.0586  0.1091
   87POPC   C3A 1532   5.241   8.561   7.277 -0.1052 -0.1661  0.2458
   87POPC   C4A 1533   5.322   8.316   7.003  0.1623  0.3221 -0.0835
   87POPC   C1B 1534   4.278   7.862   8.091 -0.0190  0.0555  0.1097
   87POPC   C2B 1535   3.993   7.553   8.158 -0.1088 -0.1085 -0.0564
   87POPC   C3B 1536   3.794   7.284   8.289 -0.2044  0.2460  0.0189
   87POPC   C4B 1537   3.730   6.977   8.259  0.0491  0.0379  0.1374
   88POPC   NC3 1538   1.733   7.041   9.345 -0.0004  0.0788  0.2124
   88POPC   PO4 1539   1.921   6.656   9.153  0.0201  0.2681 -0.2018
   88POPC   GL1 1540   1.906   6.955   8.897  0.0381 -0.2962  0.2100
   88POPC   GL2 1541   2.009   6.893   8.594 -0.1114  0.0095  0.2666
   88POPC   C1A 1542   2.037   7.412   8.630  0.0277 -0.1267  0.1900
   88POPC   D2A 1543   1.987   7.618   8.221  0.0087  0.2017  0.2731
   88POPC   C3A 1544   1.905   7.604   7.799  0.1738  0.2350 -0.2818
   88POPC   C4A 1545   1.921   7.798   7.440 -0.2471 -0.0770  0.1359
   88POPC   C1B 1546   1.927   7.133   8.209  0.1438 -0.0305  0.0907
   88POPC   C2B 1547   1.749   7.126   7.953 -0.0156 -0.0181 -0.0132
   88POPC   C3B 1548   1.828   6.769   7.667 -0.2031 -0.1049  0.1292
   88POPC   C4B 1549   2.207   6.636   7.610  0.0611  0.0189 -0.1121
   89POPC   NC3 1550   1.448   1.503   8.700  0.1061  0.0856  0.0052
   89POPC   PO4 1551   0.971   1.514   8.771 -0.0570  0.1185 -0.0274
   89POPC   GL1 1552   0.795   1.599   8.284 -0.2405  0.0327  0.1405
   89POPC   GL2 1553   1.106   1.705   8.155 -0.2674 -0.0180 -0.3427
   89POPC   C1A 1554   0.818   1.415   7.843 -0.2156  0.1286  0.0040
   89POPC   D2A 1555   1.042   1.219   7.429 -0.0127  0.2294  0.0368
   89POPC   C3A 1556   0.856   0.940   7.249  0.1009  0.1164 -0.0967
   89POPC   C4A 1557   0.413   0.680   7.286  0.3051 -0.1322 -0.2418
   89POPC   C1B 1558   1.342   1.370   7.831 -0.2423 -0.2095 -0.4318
   89POPC   C2B 1559   1.665   1.072   7.791  0.3078  0.1045 -0.3389
   89POPC   C3B 1560   1.714   0.602   7.778 -0.1348 -0.0706  0.0481
   89POPC   C4B 1561   1.587   0.249   7.959  0.1506 -0.2186  0.2836
   90POPC   NC3 1562   5.591   7.838   9.129  0.3435  0.0513 -0.1071
   90POPC   PO4 1563   5.922   8.000   8.758 -0.0053  0.3999 -0.0948
   90POPC   GL1 1564   6.038   7.766   8.418 -0.0020  0.0873 -0.0755
   90POPC   GL2 1565   5.786   7.695   8.254  0.0514  0.1077  0.0636
   90POPC   C1A 1566   6.158   7.652   7.921 -0.0187  0.0269 -0.0528
   90POPC   D2A 1567   5.959   7.402   7.599  0.2924 -0.3136  0.1958
   90POPC   C3A 1568   6.156   7.172   7.337  0.1213  0.1282 -0.3168
   90POPC   C4A 1569   6.333   7.266   7.018 -0.2500  0.1836 -0.0064
   90POPC   C1B 1570   5.729   7.850   7.817 -0.0702 -0.0625  0.1217
   90POPC   C2B 1571   5.674   7.809   7.301  0.2875  0.1711  0.1348
   90POPC   C3B 1572   5.460   7.818   6.924 -0.1213  0.1045 -0.1865
   90POPC   C4B 1573   5.002   7.868   6.822 -0.0827  0.0651  0.3840
   91POPC   NC3 1574   2.948   4.552   8.398 -0.2310 -0.0908 -0.0134
   91POPC   PO4 1575   2.934   4.952   8.680 -0.4156  0.1352  0.5333
   91POPC   GL1 1576   2.916   5.135   8.180 -0.0028  0.0178 -0.1734
   91POPC   GL2 1577   2.609   5.290   8.104  0.1300  0.0987 -0.4192
   91POPC   C1A 1578   2.957   5.065   7.722  0.2668  0.0628  0.1533
   91POPC   D2A 1579   2.674   5.020   7.259  0.0607 -0.0530  0.0595
   91POPC   C3A 1580   2.612   4.942   6.851  0.1545  0.3704 -0.1795
   91POPC   C4A 1581   2.162   4.959   6.688  0.1055 -0.0161 -0.0874
   91POPC   C1B 1582   2.605   5.410   7.713 -0.0153  0.0222  0.0935
   91POPC   C2B 1583   2.319   5.357   7.412 -0.2766 -0.2744  0.0556
   91POPC   C3B 1584   2.058   5.673   7.131  0.1060  0.1593 -0.0541
   91POPC   C4B 1585   2.046   6.102   6.880 -0.1750  0.0202 -0.0062
   92POPC   NC3 1586   8.231   9.293   9.785  0.1214  0.2771 -0.0217
   92POPC   PO4 1587   8.541   9.668   9.767  0.0375  0.2201  0.0884
   92POPC   GL1 1588   8.636   9.542   9.331  0.1128 -0.1448 -0.0447
   92POPC   GL2 1589   8.434   9.308   9.119  0.0148  0.3182  0.0849
   92POPC   C1A 1590   8.916   9.408   9.000  0.0254 -0.2746  0.2430
   92POPC   D2A 1591   9.228   9.376   8.683  0.0055 -0.2120  0.1639
   92POPC   C3A 1592   9.430   9.741   8.866 -0.0461 -0.0760 -0.5601
   92POPC   C4A 1593   9.533   9.799   9.224 -0.1138 -0.0578  0.0874
   92POPC   C1B 1594   8.417   9.418   8.667 -0.4195  0.1471 -0.3113
   92POPC   C2B 1595   8.567   9.743   8.281 -0.2807 -0.0225 -0.0295
   92POPC   C3B 1596   8.819  10.036   8.095 -0.0885 -0.0775 -0.0040
   92POPC   C4B 1597   9.123   9.986   7.911  0.0793 -0.1032  0.0494
   93POPC   NC3 1598   9.223   4.140   8.995 -0.0681 -0.0179 -0.2551
   93POPC   PO4 1599   9.469   3.870   8.785 -0.1414 -0.3151  0.0126
   93POPC   GL1 1600   9.521   3.848   8.374  0.0978 -0.0188 -0.1735
   93POPC   GL2 1601   9.725   4.030   8.311  0.4649  0.0387  0.4270
   93POPC   C1A 1602   9.208   3.778   8.125  0.1158 -0.3729 -0.1007
   93POPC   D2A 1603   9.064   3.963   7.708 -0.0953 -0.0316  0.2794
   93POPC   C3A 1604   9.206   4.403   7.509 -0.1300  0.2096  0.2948
   93POPC   C4A 1605   9.440   4.648   7.195  0.0379  0.0532  0.5301
   93POPC   C1B 1606   9.834   3.829   7.928 -0.1052  0.1004  0.1827
   93POPC   C2B 1607   9.883   3.701   7.407  0.4917  0.1818 -0.2520
   93POPC   C3B 1608  10.116   3.659   6.992 -0.1658  0.0822 -0.0491
   93POPC   C4B 1609  10.284   3.592   6.581 -0.2015  0.0641 -0.0701
   94POPC   NC3 1610   9.954   4.111   8.813 -0.0563  0.0598  0.3726
   94POPC   PO4 1611   9.901   4.559   8.792 -0.1484 -0.0010 -0.1425
   94POPC   GL1 1612   9.856   4.572   8.438 -0.0236  0.2390 -0.0265
   94POPC   GL2 1613  10.162   4.820   8.406  0.2680  0.1058 -0.0021
   94POPC   C1A 1614   9.808   4.526   8.049  0.5336  0.2237 -0.0395
   94POPC   D2A 1615   9.636   4.712   7.655 -0.2086  0.1855 -0.1783
   94POPC   C3A 1616   9.894   4.890   7.361 -0.0907  0.0071 -0.1041
   94POPC   C4A 1617  10.109   5.065   6.936  0.1560  0.3505 -0.0021
   94POPC   C1B 1618  10.414   5.049   8.223 -0.1778  0.0404  0.3695
   94POPC   C2B 1619  10.487   5.512   8.019  0.1959 -0.0166 -0.1474
   94POPC   C3B 1620  10.103   5.748   7.779  0.0750 -0.3039  0.0280
   94POPC   C4B 1621   9.965   6.102   7.675  0.3616 -0.1894  0.1369
   95POPC   NC3 1622   5.376   8.604   8.843 -0.2279  0.2291 -0.1249
   95POPC   PO4 1623   5.582   8.322   9.049  0.1397  0.0576 -0.0042
   95POPC   GL1 1624   5.765   8.400   8.519 -0.3692 -0.0905 -0.0440
   95POPC   GL2 1625   6.087   8.391   8.497  0.0498  0.2219 -0.0598
   95POPC   C1A 1626   5.848   8.526   8.069  0.0437  0.1083  0.1104
   95POPC   D2A 1627   5.958   8.546   7.660 -0.0428  0.0810 -0.0835
   95POPC   C3A 1628   6.271   8.485   7.260  0.1654  0.0748  0.5271
   95POPC   C4A 1629   6.203   8.246   6.912  0.0330  0.0243  0.0489
   95POPC   C1B 1630   6.259   8.111   8.103  0.2118 -0.1474  0.1243
   95POPC   C2B 1631   6.181   8.057   7.626 -0.1427  0.0198 -0.2525
   95POPC   C3B 1632   6.162   7.910   7.283 -0.3651 -0.3795 -0.1496
   95POPC   C4B 1633   6.457   7.780   6.945  0.2178 -0.0221  0.0320
   96POPC   NC3 1634   0.234   1.948   9.080 -0.1125  0.0177  0.1796
   96POPC   PO4 1635  -0.096   1.737   8.735  0.1642 -0.2310 -0.0745
   96POPC   GL1 1636  -0.106   1.705   8.302 -0.0143  0.0282  0.0216
   96POPC   GL2 1637  -0.339   1.857   8.192 -0.7058 -0.4989 -0.0540
   96POPC   C1A 1638  -0.060   1.631   7.917 -0.3317  0.1958  0.0208
   96POPC   D2A 1639   0.264   1.521   7.596  0.0848 -0.3573  0.1744
   96POPC   C3A 1640   0.105   1.578   7.066  0.0902  0.2285 -0.0982
   96POPC   C4A 1641   0.171   1.911   6.749  0.3914 -0.0126  0.0940
   96POPC   C1B 1642  -0.356   1.998   7.684  0.2038 -0.1491 -0.2335
   96POPC   C2B 1643  -0.625   1.988   7.388 -0.4401 -0.0752 -0.0672
   96POPC   C3B 1644  -0.770   1.648   7.504  0.0230  0.1190  0.2760
   96POPC   C4B 1645  -1.111   1.619   7.794  0.2127 -0.0191 -0.1340
   97POPC   NC3 1646   4.291   0.999   9.208 -0.2599 -0.0663  0.1619
   97POPC   PO4 1647   4.336   0.555   8.912  0.0889 -0.2187 -0.0334
   97POPC   GL1 1648   4.306   0.372   8.465 -0.0708  0.1675  0.0490
   97POPC   GL2 1649   4.186   0.009   8.351  0.0884 -0.1612  0.0167
   97POPC   C1A 1650   4.604   0.372   8.095 -0.0706  0.0316  0.2159
   97POPC   D2A 1651   4.817   0.108   7.779  0.1101 -0.1959 -0.1623
   97POPC   C3A 1652   5.126  -0.292   7.696 -0.1405 -0.0687 -0.0656
   97POPC   C4A 1653   5.424  -0.272   7.302  0.0679 -0.1982 -0.0671
   97POPC   C1B 1654   4.457  -0.164   8.010  0.0943  0.2450  0.1510
   97POPC   C2B 1655   4.474  -0.317   7.584 -0.1002 -0.0204  0.0692
   97POPC   C3B 1656   4.815  -0.355   7.306  0.1809  0.3277 -0.1618
   97POPC   C4B 1657   4.985  -0.213   6.907 -0.2297  0.0337  0.3563
   98POPC   NC3 1658   1.770   4.401   9.409 -0.1046 -0.0926  0.1568
   98POPC   PO4 1659   1.627   4.786   9.147 -0.0157  0.1171 -0.2084
   98POPC   GL1 1660   1.665   4.753   8.661  0.2638  0.0514 -0.1401
   98POPC   GL2 1661   1.443   4.942   8.395 -0.1122  0.1199 -0.1070
   98POPC   C1A 1662   1.603   4.487   8.194 -0.0490 -0.0089 -0.1570
   98POPC   D2A 1663   1.179   4.557   8.072  0.0087 -0.2785 -0.1684
   98POPC   C3A 1664   1.001   4.633   7.548  0.3295 -0.0892  0.2426
   98POPC   C4A 1665   1.134   4.929   7.194  0.0013 -0.0675 -0.0645
   98POPC   C1B 1666   1.470   5.275   8.135 -0.2568  0.2460 -0.2235
   98POPC   C2B 1667   1.311   5.634   8.049  0.2098  0.0703 -0.3590
   98POPC   C3B 1668   0.873   5.654   7.842  0.1293  0.0666 -0.0526
   98POPC   C4B 1669   0.670   5.860   7.513  0.1418  0.3537  0.2625
   99POPC   NC3 1670   1.161   7.854   9.796  0.1770  0.3225  0.0171
   99POPC   PO4 1671   1.545   7.566   9.619 -0.1328 -0.0072 -0.0261
   99POPC   GL1 1672   1.408   7.593   9.152 -0.1075 -0.1515  0.1605
   99POPC   GL2 1673   1.569   7.407   8.940  0.0008  0.1557  0.3463
   99POPC   C1A 1674   1.228   7.779   8.827  0.1483 -0.0888 -0.1154
   99POPC   D2A 1675   1.186   7.652   8.489 -0.0350  0.2314  0.0041
   99POPC   C3A 1676   1.462   7.514   8.098 -0.0717 -0.0897  0.3029
   99POPC   C4A 1677   1.509   7.375   7.597  0.0415  0.3235 -0.1641
   99POPC   C1B 1678   1.650   7.724   8.628  0.1510 -0.0896 -0.0774
   99POPC   C2B 1679   1.620   7.953   8.254 -0.0130 -0.3116  0.0512
   99POPC   C3B 1680   1.467   8.173   7.947 -0.0721 -0.0696  0.0667
   99POPC   C4B 1681   1.577   8.228   7.551 -0.2049  0.1516 -0.0695
  100POPC   NC3 1682   9.834   5.257   9.390  0.1058 -0.1021  0.4507
  100POPC   PO4 1683   9.427   5.291   9.329 -0.4291 -0.1087 -0.0793
  100POPC   GL1 1684   9.528   5.365   8.885  0.2865 -0.2191  0.0224
  100POPC   GL2 1685   9.389   5.200   8.632  0.2396 -0.0285  0.3098
  100POPC   C1A 1686   9.513   5.763   8.643 -0.3683  0.0209  0.0610
  100POPC   D2A 1687   9.244   6.053   8.336 -0.1209 -0.3972  0.2267
  100POPC   C3A 1688   9.209   5.857   7.978  0.1981  0.0392  0.2336
  100POPC   C4A 1689   9.559   5.753   7.638  0.3601 -0.3149  0.0516
  100POPC   C1B 1690   9.244   5.070   8.207  0.0147  0.2695 -0.0066
  100POPC   C2B 1691   9.308   4.655   8.051  0.0292 -0.3531  0.1562
  100POPC   C3B 1692   9.416   4.232   7.915  0.0923  0.0899 -0.0161
  100POPC   C4B 1693   9.568   4.066   7.645 -0.2849 -0.0630  0.4037
  101POPC   NC3 1694   7.962   0.853   9.027 -0.0371 -0.2799  0.0018
  101POPC   PO4 1695   8.057   1.265   8.722  0.2069 -0.0844  0.0096
  101POPC   GL1 1696   7.997   1.224   8.374 -0.2106 -0.0430 -0.0029
  101POPC   GL2 1697   7.766   0.995   8.198 -0.1816 -0.0957 -0.0190
  101POPC   C1A 1698   8.015   1.602   8.036  0.2058  0.2485 -0.0890
  101POPC   D2A 1699   7.918   1.800   7.711 -0.0927  0.0731  0.0937
  101POPC   C3A 1700   7.865   1.596   7.327  0.2909  0.0999 -0.0956
  101POPC   C4A 1701   8.082   1.727   7.036  0.0125  0.3126 -0.0469
  101POPC   C1B 1702   8.090   0.628   7.975  0.0121  0.2906 -0.3349
  101POPC   C2B 1703   8.151   0.244   7.835  0.0912  0.0381  0.0613
  101POPC   C3B 1704   8.409  -0.047   7.813 -0.1928 -0.0482 -0.2591
  101POPC   C4B 1705   8.229  -0.406   8.068 -0.2236  0.2035 -0.1233
  102POPC   NC3 1706   2.248  10.087   9.243  0.1767 -0.1883  0.2398
  102POPC   PO4 1707   2.365  10.275   8.803 -0.1739 -0.1764  0.1872
  102POPC   GL1 1708   2.416  10.169   8.402  0.0249  0.2306 -0.0093
  102POPC   GL2 1709   2.114  10.052   8.428  0.1285 -0.2663  0.2365
  102POPC   C1A 1710   2.327  10.119   7.959 -0.0058  0.0090  0.1111
  102POPC   D2A 1711   2.167  10.270   7.686  0.1856  0.0955 -0.0807
  102POPC   C3A 1712   1.695  10.412   7.614 -0.3545  0.2410  0.0379
  102POPC   C4A 1713   1.375  10.041   7.597  0.1041 -0.1885 -0.1127
  102POPC   C1B 1714   1.799   9.996   8.111  0.1167 -0.1193  0.2202
  102POPC   C2B 1715   1.855   9.895   7.624  0.2171 -0.0565  0.1189
  102POPC   C3B 1716   2.152   9.884   7.309  0.0021 -0.2075 -0.6576
  102POPC   C4B 1717   2.587   9.841   7.465  0.1647 -0.0967 -0.0764
  103POPC   NC3 1718   6.131  10.390   9.520  0.0074  0.2594  0.2974
  103POPC   PO4 1719   5.881  10.546   9.084 -0.2552 -0.0632  0.0558
  103POPC   GL1 1720   5.807  10.572   8.568  0.0110  0.0965  0.1216
  103POPC   GL2 1721   5.890  10.848   8.406  0.3710 -0.2768 -0.2070
  103POPC   C1A 1722   5.448  10.345   8.235  0.2217 -0.4511 -0.0236
  103POPC   D2A 1723   4.958  10.244   8.193  0.2717  0.2651 -0.1219
  103POPC   C3A 1724   4.667   9.812   8.242  0.1520  0.0907 -0.0275
  103POPC   C4A 1725   4.268   9.507   8.249  0.1472  0.0756 -0.1235
  103POPC   C1B 1726   6.184  10.729   8.194  0.1935 -0.0704  0.2871
  103POPC   C2B 1727   6.326  10.871   7.787  0.1762  0.0378  0.2621
  103POPC   C3B 1728   6.431  10.806   7.230  0.1050 -0.1054 -0.2336
  103POPC   C4B 1729   6.322  10.461   6.903  0.2514  0.2287 -0.2531
  104POPC   NC3 1730   3.667  10.463   8.487 -0.1366  0.0997 -0.2984
  104POPC   PO4 1731   3.808  10.919   8.727 -0.0816  0.3293 -0.0483
  104POPC   GL1 1732   3.871  10.875   8.244 -0.2447 -0.0273  0.0398
  104POPC   GL2 1733   3.745  11.279   8.163 -0.4379  0.1358  0.3241
  104POPC   C1A 1734   4.067  10.837   7.924 -0.0766  0.0287 -0.2516
  104POPC   D2A 1735   4.141  10.518   7.570 -0.1765 -0.1415  0.1226
  104POPC   C3A 1736   3.930  10.193   7.621 -0.2700  0.1133 -0.0175
  104POPC   C4A 1737   3.834   9.797   7.443 -0.1748 -0.2662  0.0094
  104POPC   C1B 1738   3.929  11.293   7.762  0.3849  0.0771 -0.2913
  104POPC   C2B 1739   4.076  11.024   7.301 -0.2356  0.0518 -0.0481
  104POPC   C3B 1740   4.058  10.890   6.846 -0.1105  0.0480 -0.3419
  104POPC   C4B 1741   4.104  10.582   6.543  0.0167 -0.3117  0.1936
  105POPC   NC3 1742   6.290   1.780   9.386 -0.0627  0.0187 -0.1336
  105POPC   PO4 1743   6.364   2.058   8.967 -0.0528  0.0384 -0.1318
  105POPC   GL1 1744   6.479   2.255   8.569  0.2859  0.4366 -0.1374
  105POPC   GL2 1745   6.199   2.438   8.546 -0.1557  0.6081 -0.0729
  105POPC   C1A 1746   6.701   2.227   8.163 -0.1159 -0.2621  0.1304
  105POPC   D2A 1747   6.600   2.439   7.715  0.2862  0.1087  0.0051
  105POPC   C3A 1748   6.685   2.208   7.384 -0.1436  0.0752 -0.2020
  105POPC   C4A 1749   6.846   2.348   6.977 -0.1744  0.0261  0.0348
  105POPC   C1B 1750   5.915   2.643   8.182  0.1282  0.2170  0.1623
  105POPC   C2B 1751   6.082   2.715   7.788 -0.0661  0.3614 -0.0203
  105POPC   C3B 1752   6.125   2.796   7.484  0.1591 -0.0383 -0.0500
  105POPC   C4B 1753   6.523   2.627   7.228 -0.2171  0.0002  0.1472
  106POPC   NC3 1754   2.972   3.982   8.638 -0.0143 -0.0847  0.2161
  106POPC   PO4 1755   3.019   4.041   8.272  0.2188  0.2415 -0.1973
  106POPC   GL1 1756   2.873   4.307   7.921 -0.0264  0.1807  0.0202
  106POPC   GL2 1757   2.877   4.629   7.939 -0.0812 -0.0185  0.0503
  106POPC   C1A 1758   2.794   4.299   7.362 -0.0437  0.1674 -0.0650
  106POPC   D2A 1759   2.744   4.319   6.979 -0.0334  0.1332 -0.0178
  106POPC   C3A 1760   2.981   4.205   6.594  0.0016 -0.1543 -0.3887
  106POPC   C4A 1761   3.341   4.042   6.398  0.3061 -0.1363  0.0817
  106POPC   C1B 1762   2.594   4.626   7.680  0.0873  0.4371  0.0246
  106POPC   C2B 1763   2.333   4.478   7.402  0.0104  0.1137  0.1863
  106POPC   C3B 1764   1.933   4.553   7.325  0.0640  0.0927  0.2293
  106POPC   C4B 1765   1.772   4.710   6.909  0.2143 -0.3030  0.1612
  107POPC   NC3 1766   2.831   5.253   9.031 -0.0306  0.0616 -0.2000
  107POPC   PO4 1767   2.534   5.626   8.813 -0.3998 -0.1642  0.0172
  107POPC   GL1 1768   2.274   5.688   8.318 -0.2291  0.2300 -0.0268
  107POPC   GL2 1769   2.518   5.770   8.098  0.0921 -0.1111  0.3878
  107POPC   C1A 1770   2.116   5.397   7.925 -0.0679  0.1626 -0.2384
  107POPC   D2A 1771   1.792   5.246   7.596  0.0795 -0.2291 -0.3096
  107POPC   C3A 1772   1.659   5.108   7.272  0.2661 -0.2306  0.1009
  107POPC   C4A 1773   1.781   5.281   6.802  0.0042 -0.0525  0.0383
  107POPC   C1B 1774   2.328   5.806   7.702  0.3829 -0.0009 -0.0383
  107POPC   C2B 1775   2.303   6.069   7.376  0.0501 -0.2201 -0.0808
  107POPC   C3B 1776   2.555   6.191   7.105  0.0185  0.0035  0.2112
  107POPC   C4B 1777   2.776   6.315   6.747 -0.0724 -0.0776  0.0294
  108POPC   NC3 1778   2.801  10.046   8.781 -0.0117 -0.0746 -0.0131
  108POPC   PO4 1779   2.714   9.593   8.955 -0.1412 -0.0075  0.1456
  108POPC   GL1 1780   2.622   9.610   8.536 -0.4937  0.0798  0.1108
  108POPC   GL2 1781   2.964   9.796   8.380 -0.0936  0.1290 -0.1231
  108POPC   C1A 1782   2.264   9.623   8.202 -0.0769 -0.1093 -0.0530
  108POPC   D2A 1783   2.251   9.611   7.790 -0.1393 -0.2244  0.0544
  108POPC   C3A 1784   2.140   9.356   7.490  0.1961 -0.1320 -0.2273
  108POPC   C4A 1785   1.966   9.341   7.070  0.1881  0.0467  0.1877
  108POPC   C1B 1786   3.032  10.010   8.042  0.1415 -0.0097 -0.1177
  108POPC   C2B 1787   2.810  10.282   7.852  0.0941 -0.1864  0.0373
  108POPC   C3B 1788   2.707  10.322   7.441 -0.0910 -0.0600  0.2123
  108POPC   C4B 1789   2.292  10.442   7.219 -0.2267  0.3766  0.0409
  109POPC   NC3 1790   1.691   6.243   9.376 -0.1797 -0.0846 -0.2379
  109POPC   PO4 1791   1.722   6.015   8.966 -0.3383 -0.1795 -0.0851
  109POPC   GL1 1792   1.562   6.023   8.558  0.1631 -0.0580 -0.0368
  109POPC   GL2 1793   1.618   5.728   8.487  0.2081  0.0531 -0.0574
  109POPC   C1A 1794   1.459   6.136   8.068 -0.0149  0.0267 -0.0578
  109POPC   D2A 1795   1.380   6.386   7.730 -0.0181  0.1168 -0.0473
  109POPC   C3A 1796   1.484   6.523   7.399  0.6219 -0.0712  0.0956
  109POPC   C4A 1797   1.536   6.959   7.312  0.3109  0.2240  0.3701
  109POPC   C1B 1798   1.783   5.726   8.162  0.0500  0.1747 -0.3159
  109POPC   C2B 1799   1.776   5.777   7.709  0.0644 -0.1645  0.2074
  109POPC   C3B 1800   1.594   5.724   7.253 -0.0717 -0.1147  0.0928
  109POPC   C4B 1801   1.372   5.458   6.946  0.0285 -0.0554  0.0267
  110POPC   NC3 1802   2.602   8.372   9.360  0.0266 -0.0782 -0.0122
  110POPC   PO4 1803   2.381   8.779   9.203  0.0134  0.3737 -0.2919
  110POPC   GL1 1804   2.550   8.576   8.852  0.0738  0.3030 -0.1027
  110POPC   GL2 1805   2.762   8.184   8.863  0.0593 -0.0069 -0.1949
  110POPC   C1A 1806   2.487   8.789   8.427 -0.0389 -0.1015 -0.0989
  110POPC   D2A 1807   2.402   9.184   8.369  0.0825 -0.0642  0.0120
  110POPC   C3A 1808   2.290   9.168   7.950  0.1462  0.0212  0.0177
  110POPC   C4A 1809   2.370   8.866   7.514  0.2041 -0.0421 -0.0500
  110POPC   C1B 1810   2.465   8.142   8.461  0.4553 -0.3625 -0.1593
  110POPC   C2B 1811   2.193   8.052   8.207 -0.0189  0.1062 -0.0670
  110POPC   C3B 1812   2.215   7.950   7.841  0.0496  0.0471 -0.1116
  110POPC   C4B 1813   2.279   8.130   7.325 -0.0460 -0.0397  0.1092
  111POPC   NC3 1814   1.873   3.296   8.779 -0.0408  0.0535  0.1975
  111POPC   PO4 1815   1.710   2.975   8.581  0.2838 -0.4893 -0.0143
  111POPC   GL1 1816   1.658   2.871   8.115  0.2401  0.1217  0.0765
  111POPC   GL2 1817   1.684   2.579   8.114  0.0827  0.0170 -0.1057
  111POPC   C1A 1818   1.940   2.679   7.693  0.0399 -0.2030 -0.2841
  111POPC   D2A 1819   2.081   2.428   7.385  0.3482 -0.0908  0.1913
  111POPC   C3A 1820   1.885   2.424   7.041 -0.1523 -0.5202 -0.0062
  111POPC   C4A 1821   1.636   2.607   6.664  0.0185 -0.0737  0.1808
  111POPC   C1B 1822   1.455   2.552   7.696  0.0582 -0.1841 -0.1669
  111POPC   C2B 1823   1.446   2.706   7.252  0.0921  0.2968 -0.0702
  111POPC   C3B 1824   1.234   2.916   6.900 -0.0857 -0.1017 -0.1005
  111POPC   C4B 1825   1.051   3.262   6.736  0.0400  0.1018 -0.0500
  112POPC   NC3 1826  10.447   4.147   9.644  0.1626  0.0217  0.1834
  112POPC   PO4 1827  10.271   4.315   9.187 -0.1976 -0.5227 -0.2228
  112POPC   GL1 1828  10.499   4.141   8.780 -0.2584  0.2306  0.0115
  112POPC   GL2 1829  10.338   4.336   8.567  0.3293 -0.0096 -0.1586
  112POPC   C1A 1830  10.536   3.778   8.371 -0.1000 -0.1307  0.0999
  112POPC   D2A 1831  10.277   3.568   8.006 -0.4178  0.3635  0.2172
  112POPC   C3A 1832   9.956   3.337   7.749  0.1769  0.0204 -0.1071
  112POPC   C4A 1833   9.637   2.954   7.724  0.0175  0.0461  0.2372
  112POPC   C1B 1834  10.206   4.275   8.173  0.3105  0.2332 -0.2603
  112POPC   C2B 1835  10.251   4.072   7.805  0.2769  0.3113  0.1542
  112POPC   C3B 1836  10.475   3.870   7.398 -0.1393  0.1497  0.2598
  112POPC   C4B 1837  10.769   3.877   7.036 -0.2056 -0.2505  0.0953
  113POPC   NC3 1838   0.474   1.723   8.661  0.2615 -0.1853  0.0823
  113POPC   PO4 1839   0.805   1.976   8.599  0.1843  0.1831  0.1278
  113POPC   GL1 1840   0.621   2.194   8.179 -0.2264  0.0177  0.0626
  113POPC   GL2 1841   0.814   2.132   7.948  0.0977  0.1721 -0.2145
  113POPC   C1A 1842   0.490   2.491   7.863 -0.0530  0.1517 -0.1827
  113POPC   D2A 1843   0.541   2.977   7.654 -0.0504  0.1682  0.1215
  113POPC   C3A 1844   0.820   3.271   7.709 -0.2925  0.0882  0.1722
  113POPC   C4A 1845   0.898   3.467   7.375 -0.2785  0.0536  0.1888
  113POPC   C1B 1846   0.836   1.796   7.555  0.1781 -0.5363  0.0198
  113POPC   C2B 1847   0.652   1.526   7.230  0.0569  0.0871 -0.1027
  113POPC   C3B 1848   0.409   1.165   7.068  0.1715  0.1377 -0.1627
  113POPC   C4B 1849   0.128   1.072   6.761  0.0807  0.2509  0.0491
  114POPC   NC3 1850   4.351   5.723   8.669 -0.1023  0.1540 -0.1315
  114POPC   PO4 1851   3.959   5.784   8.690 -0.2040  0.0326  0.1815
  114POPC   GL1 1852   3.825   5.489   8.325 -0.2302  0.0410  0.0208
  114POPC   GL2 1853   3.563   5.686   8.088  0.1425  0.2384 -0.0855
  114POPC   C1A 1854   3.853   5.052   8.022  0.1773 -0.0495  0.0731
  114POPC   D2A 1855   4.052   4.802   7.646 -0.1061  0.1741  0.0097
  114POPC   C3A 1856   3.741   4.811   7.272  0.1801 -0.0539  0.2954
  114POPC   C4A 1857   3.600   4.656   6.782  0.0138  0.3588 -0.0632
  114POPC   C1B 1858   3.623   5.723   7.661 -0.0081 -0.1245 -0.0897
  114POPC   C2B 1859   3.719   5.456   7.245  0.2673  0.1692  0.1293
  114POPC   C3B 1860   4.018   5.173   7.040 -0.4239  0.1396  0.1955
  114POPC   C4B 1861   4.204   4.765   7.156 -0.2192 -0.0126 -0.1006
  115POPC   NC3 1862   7.535   5.321   9.084  0.1159 -0.1880  0.2795
  115POPC   PO4 1863   7.898   5.524   8.839 -0.3563 -0.0226  0.2424
  115POPC   GL1 1864   7.967   5.888   8.558  0.0595  0.0518  0.0582
  115POPC   GL2 1865   7.805   5.780   8.301  0.3950  0.2967 -0.1020
  115POPC   C1A 1866   7.838   6.324   8.317  0.0260  0.0763  0.2163
  115POPC   D2A 1867   8.039   6.661   8.060  0.0899 -0.0374 -0.0488
  115POPC   C3A 1868   8.525   6.659   8.093  0.0964  0.0099 -0.2099
  115POPC   C4A 1869   9.007   6.782   7.882 -0.0095 -0.0475 -0.2563
  115POPC   C1B 1870   8.055   5.972   8.041  0.0121 -0.0427 -0.1113
  115POPC   C2B 1871   8.354   6.118   8.001 -0.0927 -0.1620 -0.2063
  115POPC   C3B 1872   8.417   6.417   7.674  0.0587 -0.2323 -0.3394
  115POPC   C4B 1873   8.552   6.791   7.529 -0.4296 -0.1334  0.4670
  116POPC   NC3 1874   6.144   8.450   9.126 -0.0054 -0.0782 -0.2127
  116POPC   PO4 1875   5.932   8.671   8.930 -0.3281  0.3749 -0.0644
  116POPC   GL1 1876   5.733   8.908   8.561  0.0313 -0.4790  0.1439
  116POPC   GL2 1877   5.995   9.006   8.324  0.0265 -0.0640 -0.1099
  116POPC   C1A 1878   5.548   8.908   7.988 -0.0195  0.0443  0.2448
  116POPC   D2A 1879   5.521   8.868   7.566 -0.1092 -0.2608 -0.2788
  116POPC   C3A 1880   5.460   8.962   7.070 -0.1818  0.1439  0.2262
  116POPC   C4A 1881   5.326   9.287   6.856  0.2399 -0.2737 -0.4307
  116POPC   C1B 1882   6.028   9.022   7.866  0.0654 -0.2828  0.1275
  116POPC   C2B 1883   6.038   9.041   7.420  0.0144 -0.2399  0.1859
  116POPC   C3B 1884   6.181   9.032   6.984 -0.1895 -0.0724 -0.0447
  116POPC   C4B 1885   6.250   9.130   6.638  0.0478 -0.1450 -0.0488
  117POPC   NC3 1886   0.980   3.317   8.960  0.1824 -0.2015  0.0392
  117POPC   PO4 1887   1.392   3.344   8.923  0.0552 -0.1928  0.1586
  117POPC   GL1 1888   1.552   3.520   8.531  0.0905  0.0987 -0.1801
  117POPC   GL2 1889   1.224   3.491   8.315 -0.2083  0.1739  0.0684
  117POPC   C1A 1890   1.653   3.701   8.116 -0.0898 -0.2394  0.0626
  117POPC   D2A 1891   1.720   3.763   7.682 -0.2336 -0.2502 -0.0907
  117POPC   C3A 1892   1.797   3.524   7.458 -0.1887  0.0836 -0.0599
  117POPC   C4A 1893   2.079   3.505   7.145 -0.1976 -0.0033  0.0562
  117POPC   C1B 1894   1.276   3.520   7.827  0.0075 -0.1860 -0.0045
  117POPC   C2B 1895   1.342   3.727   7.407  0.2960  0.0288  0.0258
  117POPC   C3B 1896   1.133   3.762   7.008  0.4944 -0.1854 -0.0052
  117POPC   C4B 1897   0.693   3.600   6.820  0.0888 -0.2795 -0.1570
  118POPC   NC3 1898   7.621   9.675   9.261 -0.1302 -0.1329  0.2615
  118POPC   PO4 1899   7.744   9.444   9.734  0.1620  0.0721 -0.0054
  118POPC   GL1 1900   7.728   9.146   9.386 -0.0317 -0.0983 -0.0566
  118POPC   GL2 1901   7.932   9.218   9.091  0.2985  0.0875 -0.1024
  118POPC   C1A 1902   7.460   8.811   9.195 -0.5184 -0.0138  0.1322
  118POPC   D2A 1903   7.358   8.565   8.874 -0.0544 -0.0558  0.0475
  118POPC   C3A 1904   7.467   8.779   8.610  0.1188  0.1574 -0.2492
  118POPC   C4A 1905   7.360   9.077   8.315  0.1404  0.2852  0.1908
  118POPC   C1B 1906   7.759   9.244   8.610  0.2859 -0.0018  0.0112
  118POPC   C2B 1907   7.861   9.231   8.128 -0.0379 -0.0150  0.0236
  118POPC   C3B 1908   7.642   8.900   7.863 -0.0244  0.1342  0.1127
  118POPC   C4B 1909   7.185   8.745   7.953  0.0417 -0.2347  0.0956
  119POPC   NC3 1910   7.574   3.672   8.711  0.0967 -0.0933 -0.0122
  119POPC   PO4 1911   7.325   3.361   8.702 -0.0393  0.0935 -0.0234
  119POPC   GL1 1912   7.401   3.383   8.257 -0.2952  0.1520 -0.0898
  119POPC   GL2 1913   7.732   3.481   8.217 -0.1699  0.1981  0.0825
  119POPC   C1A 1914   7.358   3.121   7.975  0.0213  0.0395  0.1160
  119POPC   D2A 1915   7.616   2.732   7.850  0.0111 -0.3097 -0.0151
  119POPC   C3A 1916   7.916   2.652   7.583 -0.1616 -0.2413  0.0379
  119POPC   C4A 1917   8.240   2.661   7.287 -0.4710 -0.1436 -0.2228
  119POPC   C1B 1918   7.734   3.841   8.070  0.0432  0.0039 -0.1790
  119POPC   C2B 1919   7.765   3.947   7.651 -0.4335 -0.0467  0.0072
  119POPC   C3B 1920   7.772   4.107   7.291  0.1230  0.2292 -0.2036
  119POPC   C4B 1921   7.593   4.221   6.910 -0.1574  0.2167 -0.0076
  120POPC   NC3 1922   2.888   7.361   9.145 -0.1276 -0.1716  0.0646
  120POPC   PO4 1923   3.255   7.232   8.903 -0.2186 -0.0257  0.2168
  120POPC   GL1 1924   3.327   7.271   8.519 -0.3229  0.1045  0.0948
  120POPC   GL2 1925   3.217   7.009   8.173  0.1917  0.1081  0.0512
  120POPC   C1A 1926   3.404   7.472   8.057  0.2583 -0.4793 -0.1338
  120POPC   D2A 1927   3.685   7.653   7.797 -0.0834 -0.1126  0.0114
  120POPC   C3A 1928   3.702   7.619   7.351  0.2399  0.1386  0.0078
  120POPC   C4A 1929   3.433   7.724   7.032  0.0183  0.1486 -0.2228
  120POPC   C1B 1930   3.480   6.990   7.830  0.1213 -0.0476 -0.2092
  120POPC   C2B 1931   3.638   6.982   7.439  0.0058 -0.2515 -0.0376
  120POPC   C3B 1932   3.960   7.211   7.089  0.0809  0.1212 -0.5038
  120POPC   C4B 1933   4.321   7.198   6.839  0.1161  0.1979 -0.0496
  121POPC   NC3 1934   7.995   7.496   9.830  0.0056 -0.2109 -0.2761
  121POPC   PO4 1935   8.169   7.941   9.999 -0.1387 -0.1099  0.1068
  121POPC   GL1 1936   8.391   7.811   9.632  0.0576  0.0902  0.1135
  121POPC   GL2 1937   8.231   7.817   9.362  0.4106  0.0117 -0.0378
  121POPC   C1A 1938   8.734   7.968   9.379 -0.5953 -0.1968 -0.5828
  121POPC   D2A 1939   8.917   8.263   9.076 -0.4025  0.2398  0.3606
  121POPC   C3A 1940   9.276   8.195   8.954  0.1001 -0.3995 -0.2274
  121POPC   C4A 1941   9.462   7.992   8.648  0.2246  0.2623 -0.3516
  121POPC   C1B 1942   8.293   8.137   9.099 -0.5202 -0.0093 -0.2193
  121POPC   C2B 1943   8.328   8.372   8.697  0.1237  0.1221 -0.0876
  121POPC   C3B 1944   8.417   8.601   8.322  0.1308 -0.1421  0.2000
  121POPC   C4B 1945   8.097   8.756   8.004 -0.0488  0.0704 -0.0897
  122POPC   NC3 1946   1.712   8.504   9.476  0.1828 -0.0869 -0.3785
  122POPC   PO4 1947   1.910   8.015   9.406 -0.0782  0.2296  0.0348
  122POPC   GL1 1948   1.659   8.038   9.087 -0.0645  0.2607 -0.0292
  122POPC   GL2 1949   1.363   8.202   9.333 -0.0154 -0.0029 -0.1433
  122POPC   C1A 1950   1.533   8.171   8.759  0.0799  0.0553 -0.3180
  122POPC   D2A 1951   1.232   8.167   8.477  0.0146  0.2155  0.1317
  122POPC   C3A 1952   1.052   8.012   8.145 -0.2430  0.1007 -0.1183
  122POPC   C4A 1953   0.660   8.023   7.876 -0.1238  0.2899  0.1587
  122POPC   C1B 1954   1.198   8.468   8.968 -0.0127  0.1731 -0.0760
  122POPC   C2B 1955   1.013   8.590   8.569 -0.0948 -0.1066  0.2466
  122POPC   C3B 1956   1.050   8.841   8.193  0.4580  0.1966 -0.0809
  122POPC   C4B 1957   0.888   8.800   7.839  0.0408  0.0247 -0.1864
  123POPC   NC3 1958   5.486   1.312   8.749  0.2142 -0.3195 -0.0426
  123POPC   PO4 1959   5.355   1.654   8.638 -0.1197 -0.1311 -0.0959
  123POPC   GL1 1960   5.605   1.702   8.369  0.0438 -0.3431  0.0772
  123POPC   GL2 1961   5.809   1.503   8.446  0.2835 -0.1179 -0.2038
  123POPC   C1A 1962   5.789   1.725   8.010 -0.0776 -0.1543  0.5206
  123POPC   D2A 1963   6.112   1.794   7.615  0.0356 -0.0298  0.1349
  123POPC   C3A 1964   6.200   2.298   7.410  0.0472 -0.0969 -0.1712
  123POPC   C4A 1965   5.952   2.475   7.067 -0.0861 -0.2313 -0.0509
  123POPC   C1B 1966   5.730   1.228   8.119 -0.2691  0.0225 -0.0455
  123POPC   C2B 1967   5.840   1.107   7.693  0.0991  0.1071  0.2148
  123POPC   C3B 1968   6.162   1.213   7.360  0.2381 -0.1074 -0.0201
  123POPC   C4B 1969   6.447   1.094   7.127 -0.2590  0.0268 -0.0036
  124POPC   NC3 1970   6.361   3.531   8.549 -0.0873 -0.2209 -0.0153
  124POPC   PO4 1971   6.037   3.795   8.626 -0.0119  0.0268  0.0704
  124POPC   GL1 1972   6.080   3.732   8.205  0.0198  0.1877  0.2612
  124POPC   GL2 1973   5.967   3.890   7.917 -0.1975 -0.0161  0.0013
  124POPC   C1A 1974   6.029   3.383   7.913 -0.0001  0.4176 -0.0768
  124POPC   D2A 1975   6.221   3.050   8.063  0.0859 -0.1452 -0.1787
  124POPC   C3A 1976   6.632   2.991   7.729  0.3648 -0.1147  0.1932
  124POPC   C4A 1977   7.049   3.256   7.566  0.0168 -0.2317  0.3360
  124POPC   C1B 1978   5.916   4.053   7.515 -0.1136  0.0159  0.0038
  124POPC   C2B 1979   5.710   4.256   7.237  0.0586 -0.1040  0.3928
  124POPC   C3B 1980   5.462   4.292   6.872 -0.0442 -0.1907  0.0177
  124POPC   C4B 1981   5.004   4.237   6.931 -0.0163  0.1404 -0.1727
  125POPC   NC3 1982   6.789   0.389   8.891 -0.0451  0.0395  0.5111
  125POPC   PO4 1983   7.118   0.732   8.742 -0.0158  0.1253 -0.1291
  125POPC   GL1 1984   7.232   0.864   8.319 -0.2211 -0.0277 -0.1653
  125POPC   GL2 1985   7.317   0.645   8.045 -0.2025 -0.1735  0.0973
  125POPC   C1A 1986   7.017   1.012   7.943  0.0959  0.1921  0.1211
  125POPC   D2A 1987   6.762   0.949   7.657  0.2036 -0.3389  0.0373
  125POPC   C3A 1988   6.815   0.632   7.375  0.1932  0.0157 -0.1735
  125POPC   C4A 1989   7.212   0.494   7.416  0.0547 -0.1083  0.2811
  125POPC   C1B 1990   6.830   0.389   7.949 -0.1788 -0.0301 -0.2607
  125POPC   C2B 1991   6.799   0.226   7.599  0.1277  0.1488 -0.1045
  125POPC   C3B 1992   6.682  -0.177   7.304  0.1785 -0.1011  0.1032
  125POPC   C4B 1993   6.845  -0.189   6.972 -0.3744 -0.2121  0.2686
  126POPC   NC3 1994   7.255   9.999   9.533  0.3711 -0.1084  0.0077
  126POPC   PO4 1995   7.253   9.985   9.098 -0.1767  0.0233 -0.0830
  126POPC   GL1 1996   7.551  10.059   8.763 -0.1426  0.3423  0.0302
  126POPC   GL2 1997   7.493   9.741   8.707  0.1391 -0.1373 -0.0026
  126POPC   C1A 1998   7.818   9.997   8.379 -0.1831  0.2534 -0.1160
  126POPC   D2A 1999   7.829  10.396   7.987  0.0688 -0.1003 -0.2684
  126POPC   C3A 2000   7.890  10.348   7.523  0.1743  0.0671 -0.0390
  126POPC   C4A 2001   8.282  10.474   7.211  0.1456 -0.0054  0.0288
  126POPC   C1B 2002   7.549   9.573   8.318 -0.2928 -0.0268 -0.0480
  126POPC   C2B 2003   7.852   9.764   7.916 -0.0979 -0.1956  0.0958
  126POPC   C3B 2004   8.007   9.881   7.607 -0.2503  0.2888 -0.4163
  126POPC   C4B 2005   8.412   9.922   7.657  0.1673  0.2105  0.1471
  127POPC   NC3 2006   7.204   1.739   8.673  0.1767  0.2423  0.0439
  127POPC   PO4 2007   7.460   2.088   8.795  0.2074 -0.2697  0.0431
  127POPC   GL1 2008   7.207   2.182   8.277 -0.2086  0.2384  0.0628
  127POPC   GL2 2009   7.269   2.529   8.162  0.0511  0.2081 -0.0870
  127POPC   C1A 2010   7.106   2.256   7.740 -0.0227 -0.0229 -0.1088
  127POPC   D2A 2011   7.220   2.349   7.336  0.1606  0.2233 -0.3523
  127POPC   C3A 2012   7.310   2.232   6.930 -0.0039 -0.0650 -0.2022
  127POPC   C4A 2013   7.276   1.946   6.613  0.0529  0.2385 -0.0688
  127POPC   C1B 2014   7.123   2.698   7.884  0.3258 -0.1184 -0.2959
  127POPC   C2B 2015   7.000   2.784   7.427  0.1528  0.2464  0.4644
  127POPC   C3B 2016   6.876   3.111   7.054  0.0430 -0.2515 -0.0383
  127POPC   C4B 2017   6.847   3.025   6.658 -0.0548 -0.1963  0.0731
  128POPC   NC3 2018  10.063   0.427   9.124  0.2501 -0.1568  0.1809
  128POPC   PO4 2019   9.858   0.594   8.861  0.0871 -0.2322 -0.1489
  128POPC   GL1 2020  10.059   0.427   8.547 -0.0240  0.1443 -0.1511
  128POPC   GL2 2021  10.013   0.079   8.787 -0.2164 -0.0665  0.1835
  128POPC   C1A 2022  10.161   0.218   8.121 -0.2521  0.2677 -0.2083
  128POPC   D2A 2023  10.504  -0.058   8.048 -0.0535 -0.1063 -0.0247
  128POPC   C3A 2024  10.649  -0.490   8.110 -0.1674  0.0680  0.0699
  128POPC   C4A 2025  10.575  -0.944   7.942  0.2252  0.0666 -0.0135
  128POPC   C1B 2026  10.255  -0.096   8.493  0.1779  0.1239 -0.0729
  128POPC   C2B 2027  10.126  -0.379   8.049 -0.1646 -0.2167 -0.1599
  128POPC   C3B 2028  10.261  -0.536   7.688 -0.1262  0.0327 -0.0428
  128POPC   C4B 2029  10.484  -0.811   7.445 -0.0288 -0.0804 -0.2859
  129POPC   NC3 2030   6.159   9.255   8.744  0.0811 -0.0213  0.3565
  129POPC   PO4 2031   5.894   9.649   8.991 -0.0261 -0.0680  0.0706
  129POPC   GL1 2032   5.859   9.723   8.652 -0.0172 -0.3261 -0.1785
  129POPC   GL2 2033   5.756   9.458   8.475  0.0623  0.1162  0.1088
  129POPC   C1A 2034   5.828   9.900   8.244  0.1466  0.3574 -0.2453
  129POPC   D2A 2035   5.602  10.071   7.860  0.0736 -0.0577 -0.1717
  129POPC   C3A 2036   5.443   9.804   7.530  0.5068 -0.1889 -0.1648
  129POPC   C4A 2037   5.290   9.748   7.098 -0.1553  0.3836 -0.0057
  129POPC   C1B 2038   6.076   9.470   8.077 -0.0295  0.4274 -0.0689
  129POPC   C2B 2039   6.260   9.788   7.842 -0.0232 -0.0507  0.1909
  129POPC   C3B 2040   6.593   9.964   7.694  0.3565 -0.0268  0.0715
  129POPC   C4B 2041   7.009  10.113   7.779  0.3530 -0.0008  0.4631
  130POPC   NC3 2042   6.334   1.282   8.614 -0.1446  0.2058 -0.0212
  130POPC   PO4 2043   6.302   0.857   8.802 -0.4547  0.0421  0.0296
  130POPC   GL1 2044   6.679   0.961   8.439  0.2561  0.2930 -0.1783
  130POPC   GL2 2045   6.721   0.607   8.439 -0.1331  0.1007 -0.0331
  130POPC   C1A 2046   6.930   1.358   8.323 -0.0015 -0.0124 -0.1757
  130POPC   D2A 2047   6.962   1.662   8.116 -0.1155  0.1313 -0.0261
  130POPC   C3A 2048   7.001   1.418   7.701  0.0202  0.4890  0.0585
  130POPC   C4A 2049   6.934   1.232   7.246  0.3570  0.1182 -0.0686
  130POPC   C1B 2050   6.435   0.792   8.010  0.1268 -0.2598  0.2392
  130POPC   C2B 2051   6.275   0.870   7.636  0.0530  0.2166 -0.2106
  130POPC   C3B 2052   5.985   0.658   7.416  0.1012  0.0239 -0.0346
  130POPC   C4B 2053   5.895   0.391   6.962 -0.3060 -0.0916 -0.2639
  131POPC   NC3 2054   9.796   1.816   8.749 -0.1972 -0.3980  0.0189
  131POPC   PO4 2055   9.731   2.148   8.647 -0.0169 -0.1918 -0.0234
  131POPC   GL1 2056   9.725   1.994   8.285  0.3011 -0.1415 -0.0037
  131POPC   GL2 2057   9.685   1.663   8.286  0.0049 -0.1222 -0.4317
  131POPC   C1A 2058   9.685   1.981   7.863  0.3246  0.1485 -0.0405
  131POPC   D2A 2059   9.436   2.061   7.580  0.0311 -0.2763  0.1361
  131POPC   C3A 2060   9.289   1.760   7.247 -0.3692  0.0106 -0.5292
  131POPC   C4A 2061   9.229   1.577   6.927  0.1053  0.1022 -0.2329
  131POPC   C1B 2062   9.911   1.509   7.922 -0.1324  0.0170  0.1028
  131POPC   C2B 2063  10.235   1.482   7.519  0.2351  0.0173 -0.1904
  131POPC   C3B 2064  10.069   1.682   7.105  0.0064  0.0092  0.2598
  131POPC   C4B 2065   9.712   1.545   6.965  0.3138  0.1316 -0.0366
  132POPC   NC3 2066   1.834   6.435   8.710 -0.0408 -0.0725  0.0211
  132POPC   PO4 2067   2.335   6.508   8.687 -0.0895  0.1760 -0.0143
  132POPC   GL1 2068   2.341   6.289   8.290  0.2164  0.0596 -0.1113
  132POPC   GL2 2069   1.889   6.266   8.220  0.0987  0.4058  0.0304
  132POPC   C1A 2070   2.503   6.285   7.882 -0.3224  0.0317  0.0936
  132POPC   D2A 2071   2.629   6.422   7.535 -0.0575 -0.1824  0.0290
  132POPC   C3A 2072   2.418   6.638   7.115  0.0928  0.0730 -0.2787
  132POPC   C4A 2073   2.278   7.071   7.026 -0.2405  0.2340  0.2643
  132POPC   C1B 2074   1.906   6.249   7.836 -0.2040  0.0363  0.3471
  132POPC   C2B 2075   1.784   6.173   7.395 -0.1070  0.1048  0.0117
  132POPC   C3B 2076   1.525   6.126   6.969  0.0251 -0.3922 -0.0583
  132POPC   C4B 2077   1.672   5.957   6.645 -0.0016  0.0423  0.0474
  133POPC   NC3 2078   0.297   2.967   9.340  0.0663 -0.2610 -0.1261
  133POPC   PO4 2079   0.678   2.872   9.037  0.0017  0.0499  0.1894
  133POPC   GL1 2080   0.644   2.811   8.684 -0.0295 -0.2825 -0.1207
  133POPC   GL2 2081   0.649   3.058   8.565 -0.0905  0.0347 -0.0074
  133POPC   C1A 2082   0.438   2.590   8.392 -0.0525 -0.0505 -0.1376
  133POPC   D2A 2083  -0.038   2.678   8.272  0.0474 -0.1100 -0.0024
  133POPC   C3A 2084  -0.331   2.731   7.887 -0.1457  0.0863  0.0140
  133POPC   C4A 2085  -0.419   2.935   7.464 -0.0617 -0.1024  0.0388
  133POPC   C1B 2086   0.828   2.970   8.141  0.1392 -0.2782 -0.2745
  133POPC   C2B 2087   1.221   3.047   7.846 -0.1121  0.1117 -0.2122
  133POPC   C3B 2088   1.618   3.070   7.713 -0.1114  0.0503  0.3009
  133POPC   C4B 2089   1.848   3.300   7.902 -0.2371  0.1895  0.1300
  134POPC   NC3 2090   6.315   0.317   8.777 -0.0594 -0.0242  0.4758
  134POPC   PO4 2091   6.480  -0.011   9.117  0.1542 -0.2027  0.0093
  134POPC   GL1 2092   6.427  -0.161   8.702 -0.1435 -0.0383  0.3691
  134POPC   GL2 2093   6.658   0.027   8.568 -0.0183 -0.1218 -0.0559
  134POPC   C1A 2094   6.237  -0.312   8.299  0.1299  0.0790 -0.1236
  134POPC   D2A 2095   6.123  -0.213   8.011 -0.1189  0.1814 -0.0556
  134POPC   C3A 2096   5.819   0.045   7.974 -0.2352 -0.0407 -0.2093
  134POPC   C4A 2097   5.832   0.496   7.880  0.2731 -0.0891 -0.3957
  134POPC   C1B 2098   6.847  -0.184   8.276  0.3681 -0.0412 -0.1329
  134POPC   C2B 2099   6.574  -0.093   7.901 -0.3977  0.0376  0.2379
  134POPC   C3B 2100   6.271  -0.107   7.519 -0.1519 -0.2057 -0.0726
  134POPC   C4B 2101   5.977  -0.353   7.535  0.0340  0.0431 -0.0408
  135POPC   NC3 2102   4.061   0.932   8.718 -0.0576 -0.1007  0.1926
  135POPC   PO4 2103   3.662   1.215   8.779 -0.2447 -0.1676  0.1483
  135POPC   GL1 2104   3.952   1.243   8.271 -0.0254  0.0902  0.0485
  135POPC   GL2 2105   4.381   1.167   8.357  0.2613  0.1064  0.1971
  135POPC   C1A 2106   3.711   1.278   7.905  0.2248 -0.3114 -0.0244
  135POPC   D2A 2107   3.565   1.560   7.697 -0.0378 -0.0068  0.1143
  135POPC   C3A 2108   3.858   1.741   7.414  0.0623  0.1692 -0.3332
  135POPC   C4A 2109   3.999   1.511   7.065  0.3245 -0.1610 -0.0016
  135POPC   C1B 2110   4.413   0.829   7.971  0.1407 -0.0584  0.1509
  135POPC   C2B 2111   4.460   0.650   7.707  0.1676  0.1264 -0.0656
  135POPC   C3B 2112   4.625   0.388   7.401 -0.0373 -0.2100  0.0906
  135POPC   C4B 2113   4.545   0.121   6.994  0.0414 -0.0363  0.1167
  136POPC   NC3 2114   7.343   6.654   9.262  0.1745  0.1031 -0.0377
  136POPC   PO4 2115   7.320   6.695   8.841  0.0824 -0.1723 -0.3591
  136POPC   GL1 2116   7.400   6.452   8.427  0.1212  0.1662  0.5161
  136POPC   GL2 2117   7.350   6.131   8.328 -0.0007  0.0743 -0.0552
  136POPC   C1A 2118   7.146   6.389   7.963  0.1470 -0.0193  0.1678
  136POPC   D2A 2119   7.331   6.231   7.535 -0.4085 -0.1302 -0.0356
  136POPC   C3A 2120   7.188   6.068   7.066 -0.3527 -0.2996  0.4447
  136POPC   C4A 2121   7.067   5.599   7.003  0.3902  0.0447 -0.0781
  136POPC   C1B 2122   7.615   6.370   7.905 -0.3240  0.0752 -0.1481
  136POPC   C2B 2123   7.851   6.365   7.564  0.1512  0.1170 -0.0817
  136POPC   C3B 2124   7.688   6.615   7.163  0.0654  0.1421 -0.1100
  136POPC   C4B 2125   7.406   6.451   6.823 -0.4981 -0.2328 -0.0062
  137POPC   NC3 2126   4.020   9.269   9.031  0.2697  0.2508  0.1900
  137POPC   PO4 2127   3.946   8.811   8.924 -0.2632  0.0373  0.0424
  137POPC   GL1 2128   3.842   9.189   8.520 -0.1509 -0.0864 -0.3648
  137POPC   GL2 2129   3.957   8.876   8.338  0.1620 -0.0610 -0.3227
  137POPC   C1A 2130   3.754   9.363   8.099 -0.0322  0.4147 -0.4412
  137POPC   D2A 2131   3.776   9.416   7.720 -0.2198  0.1868  0.0769
  137POPC   C3A 2132   3.563   9.271   7.339 -0.1928 -0.1015 -0.1857
  137POPC   C4A 2133   3.596   8.890   7.158 -0.0390  0.1971  0.0041
  137POPC   C1B 2134   4.213   8.917   8.082  0.0840  0.1906  0.3634
  137POPC   C2B 2135   4.158   9.130   7.817 -0.0567 -0.2824  0.2983
  137POPC   C3B 2136   4.168   9.348   7.381  0.5619 -0.2132 -0.3165
  137POPC   C4B 2137   4.328   9.811   7.206 -0.0342 -0.2706  0.0807
  138POPC   NC3 2138   2.556   6.061   8.656  0.1687  0.0077 -0.1152
  138POPC   PO4 2139   3.100   6.103   8.617 -0.1395  0.2046 -0.1535
  138POPC   GL1 2140   3.051   5.874   8.171 -0.2918  0.1735  0.1755
  138POPC   GL2 2141   2.955   6.174   8.070 -0.3292  0.4623 -0.2839
  138POPC   C1A 2142   3.130   5.577   7.900  0.1063  0.1216 -0.0264
  138POPC   D2A 2143   3.150   5.489   7.506  0.2660  0.0664  0.1230
  138POPC   C3A 2144   3.242   5.657   7.246 -0.1416 -0.2198  0.1948
  138POPC   C4A 2145   3.126   5.839   6.892 -0.0895 -0.1220  0.0421
  138POPC   C1B 2146   3.012   6.612   7.829  0.0171  0.1913  0.1403
  138POPC   C2B 2147   3.089   6.690   7.416  0.2081 -0.2952  0.3898
  138POPC   C3B 2148   2.970   6.849   7.057 -0.2654 -0.0559 -0.1982
  138POPC   C4B 2149   2.691   6.842   6.712  0.1128  0.0077  0.1185
  139POPC   NC3 2150   8.896   5.621   9.627  0.2625 -0.0901  0.0262
  139POPC   PO4 2151   9.122   5.975   9.436  0.1865 -0.1490  0.0841
  139POPC   GL1 2152   9.012   6.138   9.051 -0.2896  0.0752  0.2679
  139POPC   GL2 2153   9.056   5.946   8.777  0.2363  0.1519  0.0178
  139POPC   C1A 2154   9.177   6.550   8.850  0.0348 -0.0276  0.0265
  139POPC   D2A 2155   9.546   6.762   8.881  0.3977  0.0867 -0.0498
  139POPC   C3A 2156   9.600   7.093   8.636 -0.2168  0.1718  0.0848
  139POPC   C4A 2157   9.858   7.184   8.333 -0.1917 -0.0062 -0.2174
  139POPC   C1B 2158   9.165   5.579   8.383  0.1147  0.1889 -0.1220
  139POPC   C2B 2159   9.402   5.417   7.952 -0.2984 -0.3025 -0.1146
  139POPC   C3B 2160   9.811   5.335   7.764 -0.0425 -0.1278  0.1345
  139POPC   C4B 2161  10.198   5.146   7.701 -0.2780  0.2281 -0.1019
  140POPC   NC3 2162   0.213   4.534   8.976  0.0030 -0.1615  0.3123
  140POPC   PO4 2163   0.629   4.667   8.925 -0.2400  0.0766  0.0367
  140POPC   GL1 2164   0.776   4.535   8.522  0.2123 -0.0564 -0.0291
  140POPC   GL2 2165   0.854   4.825   8.409 -0.0768  0.1555  0.2044
  140POPC   C1A 2166   0.888   4.182   8.263 -0.0061  0.1414  0.2372
  140POPC   D2A 2167   0.723   3.846   8.116  0.0500 -0.0526 -0.1261
  140POPC   C3A 2168   0.814   3.819   7.705 -0.0877 -0.0638  0.3704
  140POPC   C4A 2169   0.497   3.908   7.471  0.2915 -0.3680 -0.0111
  140POPC   C1B 2170   0.676   4.680   7.934  0.0248 -0.2058 -0.1702
  140POPC   C2B 2171   0.742   4.310   7.758 -0.0287  0.1049  0.0369
  140POPC   C3B 2172   0.625   4.377   7.376 -0.2447 -0.3619 -0.2619
  140POPC   C4B 2173   0.549   4.710   7.387  0.0974  0.3014  0.1471
  141POPC   NC3 2174  10.474  10.326   9.758 -0.1487  0.2013  0.1299
  141POPC   PO4 2175  10.369   9.832   9.741 -0.1636  0.4671  0.1928
  141POPC   GL1 2176  10.402   9.699   9.286 -0.0464  0.4087  0.0655
  141POPC   GL2 2177  10.439   9.856   9.004  0.0641  0.0019  0.0980
  141POPC   C1A 2178  10.029   9.636   8.990  0.0200  0.3641 -0.3037
  141POPC   D2A 2179  10.002   9.529   8.445  0.3556  0.2097  0.0030
  141POPC   C3A 2180  10.418   9.536   8.427 -0.0227 -0.2901 -0.2321
  141POPC   C4A 2181  10.816   9.302   8.353  0.0114  0.0762  0.1754
  141POPC   C1B 2182  10.871  10.048   8.878 -0.3116  0.4369  0.1840
  141POPC   C2B 2183  11.271  10.099   8.798 -0.1082 -0.3202 -0.0102
  141POPC   C3B 2184  11.568  10.327   8.572  0.0904 -0.0672  0.2354
  141POPC   C4B 2185  11.826  10.692   8.360  0.1986  0.1284  0.0807
  142POPC   NC3 2186   7.937   8.706  10.000 -0.1599  0.0793 -0.1113
  142POPC   PO4 2187   8.369   8.815   9.841 -0.1210  0.0053 -0.2263
  142POPC   GL1 2188   8.183   8.919   9.394  0.3242  0.0749  0.0541
  142POPC   GL2 2189   8.432   8.618   9.259 -0.2435 -0.0699  0.0947
  142POPC   C1A 2190   7.957   8.635   9.012  0.1199 -0.1983  0.0609
  142POPC   D2A 2191   7.953   8.715   8.578 -0.3081 -0.0989  0.0175
  142POPC   C3A 2192   8.179   9.044   8.468 -0.1028 -0.2319 -0.0662
  142POPC   C4A 2193   8.467   9.211   8.186  0.0894 -0.1293 -0.0146
  142POPC   C1B 2194   8.414   8.849   8.838  0.0736  0.0136  0.1431
  142POPC   C2B 2195   8.698   9.049   8.561 -0.0887  0.1213  0.0202
  142POPC   C3B 2196   9.099   8.980   8.444  0.0318 -0.1982  0.1099
  142POPC   C4B 2197   9.407   8.821   8.195 -0.0724  0.0787  0.1534
  143POPC   NC3 2198   4.646   6.542   8.719 -0.2445  0.1742 -0.2131
  143POPC   PO4 2199   4.211   6.764   8.682  0.0069 -0.1270  0.1893
  143POPC   GL1 2200   4.223   7.033   8.358  0.1696  0.0676  0.1024
  143POPC   GL2 2201   4.528   6.862   8.163 -0.1961 -0.3319 -0.1488
  143POPC   C1A 2202   4.121   7.082   7.981  0.1347  0.1964  0.2542
  143POPC   D2A 2203   4.014   7.301   7.680  0.1175 -0.2336 -0.2339
  143POPC   C3A 2204   4.272   7.713   7.636  0.0411 -0.2895 -0.2595
  143POPC   C4A 2205   4.651   7.805   7.752 -0.1188 -0.0972  0.3714
  143POPC   C1B 2206   4.643   6.843   7.680 -0.0897  0.2378  0.0069
  143POPC   C2B 2207   4.974   6.773   7.431 -0.1233  0.1774  0.1835
  143POPC   C3B 2208   5.191   6.932   7.115  0.1592 -0.0242  0.2483
  143POPC   C4B 2209   5.277   7.076   6.763 -0.0116 -0.0794  0.4972
  144POPC   NC3 2210   3.237   0.998   9.055  0.1662  0.1577 -0.3592
  144POPC   PO4 2211   3.178   1.351   8.791  0.3523  0.0017 -0.1624
  144POPC   GL1 2212   3.340   1.149   8.381  0.1029  0.0325 -0.0431
  144POPC   GL2 2213   3.411   1.282   8.298 -0.3357  0.1259  0.1797
  144POPC   C1A 2214   3.270   0.891   7.869  0.0637  0.1468 -0.2149
  144POPC   D2A 2215   2.916   0.750   7.593  0.1953  0.2794  0.0574
  144POPC   C3A 2216   3.120   0.545   7.162  0.2813  0.0269  0.1359
  144POPC   C4A 2217   3.137   0.492   6.682 -0.1045 -0.3071 -0.0081
  144POPC   C1B 2218   3.156   1.381   7.920  0.0175 -0.0607  0.3556
  144POPC   C2B 2219   3.105   1.273   7.626 -0.0464  0.0479 -0.2424
  144POPC   C3B 2220   3.399   0.896   7.422 -0.1816 -0.2758 -0.1103
  144POPC   C4B 2221   3.520   0.560   7.533  0.0783  0.2675 -0.1306
  145POPC   NC3 2222   2.404   6.704   9.260  0.0154 -0.0869  0.0015
  145POPC   PO4 2223   2.347   7.143   9.099 -0.1270  0.0495  0.3849
  145POPC   GL1 2224   2.421   7.144   8.631  0.2321  0.1785  0.1611
  145POPC   GL2 2225   2.511   6.909   8.472 -0.1577 -0.1557  0.0438
  145POPC   C1A 2226   2.360   7.304   8.235 -0.4520 -0.1668 -0.1238
  145POPC   D2A 2227   2.278   7.257   7.850  0.0050  0.0356  0.1618
  145POPC   C3A 2228   2.358   7.546   7.503 -0.1378 -0.3517 -0.0357
  145POPC   C4A 2229   2.309   7.625   7.187 -0.0389 -0.1014  0.0796
  145POPC   C1B 2230   2.583   6.871   7.959  0.3406  0.0284 -0.2988
  145POPC   C2B 2231   2.660   6.938   7.509 -0.2310  0.1997 -0.1770
  145POPC   C3B 2232   2.765   7.242   7.302  0.0650  0.1156 -0.0723
  145POPC   C4B 2233   2.925   7.326   6.810  0.0407 -0.1253  0.0980
  146POPC   NC3 2234   7.028   7.515   8.896  0.1073  0.0417 -0.4541
  146POPC   PO4 2235   6.810   7.858   9.093  0.1012 -0.0003 -0.0278
  146POPC   GL1 2236   6.863   7.940   8.695  0.0999 -0.0310  0.1901
  146POPC   GL2 2237   7.175   8.062   8.792 -0.0722 -0.0286 -0.2612
  146POPC   C1A 2238   6.655   8.151   8.385  0.0509  0.0153  0.0183
  146POPC   D2A 2239   6.778   8.353   7.995 -0.0497 -0.0227 -0.0148
  146POPC   C3A 2240   6.866   8.439   7.643  0.1778  0.0538  0.1047
  146POPC   C4A 2241   6.886   8.710   7.313 -0.2594 -0.1663 -0.0319
  146POPC   C1B 2242   7.136   7.861   8.342 -0.0490  0.0593 -0.1851
  146POPC   C2B 2243   7.118   7.758   8.015 -0.1327  0.2401 -0.0056
  146POPC   C3B 2244   7.011   7.415   7.832  0.4486  0.0408 -0.3266
  146POPC   C4B 2245   7.199   7.250   7.473  0.0030 -0.2596  0.3979
  147POPC   NC3 2246   8.621   9.764  10.218 -0.1012  0.0190  0.0863
  147POPC   PO4 2247   8.893   9.955   9.976  0.1859 -0.1754 -0.0870
  147POPC   GL1 2248   9.017   9.836   9.618  0.1685  0.5236  0.1864
  147POPC   GL2 2249   9.087   9.589   9.570 -0.1250 -0.0771  0.0913
  147POPC   C1A 2250   9.057   9.867   9.128  0.2026  0.0312  0.0559
  147POPC   D2A 2251   8.948   9.839   8.645  0.0412  0.0336 -0.0985
  147POPC   C3A 2252   8.976   9.516   8.275 -0.1413  0.0898  0.2993
  147POPC   C4A 2253   9.457   9.313   8.285  0.0638  0.3564 -0.3344
  147POPC   C1B 2254   9.137   9.254   9.409  0.2944  0.6370 -0.1480
  147POPC   C2B 2255   9.268   9.046   9.066  0.1111 -0.0104  0.1571
  147POPC   C3B 2256   9.391   8.747   8.745  0.1208 -0.0223 -0.1588
  147POPC   C4B 2257   9.345   8.421   8.469  0.0791 -0.0903 -0.1185
  148POPC   NC3 2258   0.704   8.909  10.063 -0.2513 -0.2427  0.1284
  148POPC   PO4 2259   1.029   9.149   9.855 -0.1130 -0.0884 -0.2001
  148POPC   GL1 2260   0.653   9.183   9.561 -0.3679 -0.0010 -0.1335
  148POPC   GL2 2261   0.700   9.219   9.240  0.1611 -0.0526 -0.1409
  148POPC   C1A 2262   0.161   9.102   9.250 -0.0761  0.0055 -0.1267
  148POPC   D2A 2263  -0.231   9.188   9.178  0.1436  0.4300 -0.1006
  148POPC   C3A 2264  -0.186   9.117   8.784 -0.0021  0.1691 -0.1718
  148POPC   C4A 2265  -0.307   8.704   8.626  0.1337 -0.1971  0.1709
  148POPC   C1B 2266   0.700   8.840   9.164  0.0317  0.3709 -0.2654
  148POPC   C2B 2267   0.698   8.406   9.086  0.0054  0.2841  0.1752
  148POPC   C3B 2268   0.852   8.136   8.869 -0.0174  0.0252  0.1503
  148POPC   C4B 2269   0.725   8.038   8.491  0.2651 -0.1650  0.1640
  149POPC   NC3 2270   7.462   0.034   8.897  0.2920  0.1974  0.0133
  149POPC   PO4 2271   7.583   0.472   8.913  0.1321 -0.0590 -0.1405
  149POPC   GL1 2272   7.444   0.462   8.548 -0.0745  0.1181  0.0098
  149POPC   GL2 2273   7.122   0.234   8.492 -0.0532 -0.0944  0.0701
  149POPC   C1A 2274   7.656   0.342   8.229  0.0348  0.0256 -0.2910
  149POPC   D2A 2275   7.655   0.346   7.699  0.0219 -0.0204 -0.0467
  149POPC   C3A 2276   7.605   0.777   7.553 -0.4283 -0.1954  0.2373
  149POPC   C4A 2277   7.255   0.989   7.548 -0.1200  0.0931  0.1014
  149POPC   C1B 2278   7.189   0.089   8.046 -0.1382 -0.0837 -0.2279
  149POPC   C2B 2279   7.286   0.023   7.676  0.0727  0.2464  0.2267
  149POPC   C3B 2280   7.223  -0.194   7.289  0.1311  0.0739 -0.1244
  149POPC   C4B 2281   7.336  -0.132   6.909 -0.2321  0.2800 -0.2749
  150POPC   NC3 2282   3.156   3.465   8.403 -0.2252 -0.0372  0.2111
  150POPC   PO4 2283   2.723   3.564   8.493  0.0708 -0.1834  0.0836
  150POPC   GL1 2284   2.704   3.728   8.051  0.0039  0.5576 -0.3577
  150POPC   GL2 2285   2.896   3.611   7.819 -0.3013 -0.2600 -0.0763
  150POPC   C1A 2286   2.586   3.996   7.680 -0.0768  0.0469 -0.0997
  150POPC   D2A 2287   2.320   3.965   7.309  0.1856  0.1298  0.2458
  150POPC   C3A 2288   1.910   3.953   7.220  0.2283  0.2522 -0.1328
  150POPC   C4A 2289   1.593   3.758   6.976 -0.1240 -0.2319  0.1891
  150POPC   C1B 2290   2.883   3.262   7.630 -0.1068 -0.2286 -0.1305
  150POPC   C2B 2291   3.105   2.913   7.357  0.2027  0.0308 -0.3409
  150POPC   C3B 2292   2.864   2.736   6.977  0.3755  0.2734  0.0598
  150POPC   C4B 2293   2.984   2.767   6.595 -0.2841 -0.1270  0.1329
  151POPC   NC3 2294   5.604   3.013   8.812 -0.0794  0.0090 -0.2696
  151POPC   PO4 2295   5.405   3.532   8.706  0.2476  0.3198 -0.2400
  151POPC   GL1 2296   5.348   3.282   8.437  0.1972 -0.0567 -0.0184
  151POPC   GL2 2297   5.114   3.296   8.155  0.1064 -0.1460 -0.2373
  151POPC   C1A 2298   5.630   3.100   8.132  0.4135 -0.3154  0.0717
  151POPC   D2A 2299   5.666   2.943   7.686 -0.2732 -0.0850  0.0052
  151POPC   C3A 2300   5.624   2.952   7.269 -0.0850 -0.0003 -0.1338
  151POPC   C4A 2301   5.661   3.192   6.914 -0.0583  0.2347  0.2813
  151POPC   C1B 2302   5.255   3.214   7.725  0.1966 -0.0938 -0.3140
  151POPC   C2B 2303   5.508   3.447   7.456  0.1400 -0.0786 -0.2552
  151POPC   C3B 2304   5.933   3.290   7.367 -0.2531  0.0897  0.0383
  151POPC   C4B 2305   6.082   2.984   6.991 -0.0595  0.1405 -0.0802
  152POPC   NC3 2306   1.623   3.763   9.022 -0.0736  0.0703  0.2820
  152POPC   PO4 2307   1.162   3.783   8.808 -0.2081 -0.1170 -0.2429
  152POPC   GL1 2308   1.291   3.937   8.419  0.0274  0.3346  0.0670
  152POPC   GL2 2309   1.528   4.022   8.460  0.1985  0.1973 -0.1625
  152POPC   C1A 2310   1.199   4.015   7.918 -0.2502  0.1463 -0.2541
  152POPC   D2A 2311   1.043   4.167   7.423 -0.0172 -0.1603 -0.1487
  152POPC   C3A 2312   1.417   4.170   7.201  0.0854 -0.1201 -0.1657
  152POPC   C4A 2313   1.647   4.240   6.880  0.0429  0.3393  0.0225
  152POPC   C1B 2314   1.954   4.126   8.214  0.1023 -0.3509  0.3245
  152POPC   C2B 2315   2.175   3.737   8.108 -0.0438 -0.0713  0.0607
  152POPC   C3B 2316   2.194   3.646   7.710  0.0378  0.3930 -0.2726
  152POPC   C4B 2317   2.482   3.549   7.466  0.0115 -0.2019 -0.0145
  153POPC   NC3 2318   5.470   8.003   8.602  0.1200  0.1278  0.0411
  153POPC   PO4 2319   5.146   7.770   8.548  0.1923  0.1141 -0.0743
  153POPC   GL1 2320   5.221   7.801   8.206 -0.0191  0.0222  0.0430
  153POPC   GL2 2321   5.471   8.173   8.157  0.3342 -0.2061 -0.0199
  153POPC   C1A 2322   5.209   7.762   7.707 -0.0271 -0.1661 -0.0108
  153POPC   D2A 2323   4.994   8.087   7.479  0.0389 -0.4519 -0.0422
  153POPC   C3A 2324   4.552   8.123   7.301 -0.0202 -0.1227 -0.1209
  153POPC   C4A 2325   4.194   8.395   7.162 -0.2018 -0.1394  0.1918
  153POPC   C1B 2326   5.449   8.391   7.843  0.0733  0.1587 -0.0397
  153POPC   C2B 2327   5.479   8.197   7.551  0.1976  0.0398  0.0334
  153POPC   C3B 2328   5.795   8.289   7.180  0.0171  0.1984  0.3838
  153POPC   C4B 2329   5.856   8.696   7.002  0.1995 -0.1043 -0.2236
  154POPC   NC3 2330   3.028   0.822   8.664  0.0350 -0.3829  0.4151
  154POPC   PO4 2331   3.006   0.493   8.787 -0.0058  0.0296 -0.1277
  154POPC   GL1 2332   2.790   0.162   8.632  0.1084 -0.0433  0.0789
  154POPC   GL2 2333   2.578   0.385   8.485 -0.3863 -0.0417 -0.0770
  154POPC   C1A 2334   3.010  -0.025   8.307  0.0674 -0.0720  0.0874
  154POPC   D2A 2335   3.291  -0.074   8.084 -0.2641 -0.1035  0.3115
  154POPC   C3A 2336   3.288  -0.244   7.686  0.0916 -0.2341  0.0121
  154POPC   C4A 2337   3.520  -0.311   7.345  0.0131  0.0570  0.2703
  154POPC   C1B 2338   2.548   0.090   8.148  0.2943 -0.1938 -0.0094
  154POPC   C2B 2339   2.569   0.212   7.668  0.0535 -0.0294 -0.2898
  154POPC   C3B 2340   2.652   0.372   7.277 -0.3201 -0.0507  0.0519
  154POPC   C4B 2341   2.871   0.159   6.898 -0.1397 -0.0487 -0.2042
  155POPC   NC3 2342   0.921   6.413   9.233  0.0572  0.1646  0.0258
  155POPC   PO4 2343   1.400   6.675   9.366 -0.3260  0.0118 -0.1230
  155POPC   GL1 2344   1.338   6.966   9.024  0.0353 -0.3984  0.0433
  155POPC   GL2 2345   1.411   6.879   8.716 -0.1263 -0.0310  0.0799
  155POPC   C1A 2346   1.068   7.240   8.798 -0.1228 -0.0773 -0.1864
  155POPC   D2A 2347   0.892   7.180   8.389  0.0096 -0.2301 -0.1463
  155POPC   C3A 2348   0.622   7.552   8.357  0.1149 -0.1668  0.1523
  155POPC   C4A 2349   0.400   7.684   8.164 -0.1023 -0.0414  0.1692
  155POPC   C1B 2350   1.402   7.048   8.378  0.2111 -0.1064 -0.3207
  155POPC   C2B 2351   1.281   6.979   7.927  0.0954 -0.0806  0.1348
  155POPC   C3B 2352   0.997   6.717   7.649 -0.2565  0.3853  0.3513
  155POPC   C4B 2353   1.041   6.718   7.263  0.2743  0.1576  0.4519
  156POPC   NC3 2354   6.694   9.248   9.383  0.0936  0.3450  0.0648
  156POPC   PO4 2355   6.851   9.022   8.949 -0.3223  0.0770 -0.2329
  156POPC   GL1 2356   6.955   8.833   8.592 -0.1693  0.3970 -0.3388
  156POPC   GL2 2357   6.912   8.501   8.725  0.3668 -0.0049  0.0561
  156POPC   C1A 2358   6.753   8.744   8.279  0.1838 -0.2296  0.0965
  156POPC   D2A 2359   6.405   8.660   8.136 -0.1888  0.1200  0.3090
  156POPC   C3A 2360   6.452   8.711   7.790  0.0862  0.3169 -0.0042
  156POPC   C4A 2361   6.793   9.064   7.814  0.0101  0.2105  0.1025
  156POPC   C1B 2362   7.153   8.380   8.351 -0.1801 -0.0611 -0.1161
  156POPC   C2B 2363   7.293   8.281   7.889 -0.0960  0.1867  0.0980
  156POPC   C3B 2364   7.395   8.611   7.522  0.1708 -0.1012  0.0266
  156POPC   C4B 2365   7.455   8.941   7.379  0.1497 -0.0559 -0.0063
  157POPC   NC3 2366   9.922   3.172   9.172 -0.1733 -0.2471  0.1596
  157POPC   PO4 2367   9.594   2.941   8.864  0.1341 -0.0352  0.2897
  157POPC   GL1 2368   9.529   3.079   8.453 -0.3289 -0.1616  0.3238
  157POPC   GL2 2369   9.546   3.370   8.223  0.1760  0.0857  0.0207
  157POPC   C1A 2370   9.277   3.047   7.993  0.0964  0.0357 -0.2941
  157POPC   D2A 2371   9.185   3.048   7.522 -0.0804 -0.1383  0.0418
  157POPC   C3A 2372   9.110   2.849   7.254  0.2191  0.2502 -0.0702
  157POPC   C4A 2373   9.091   2.701   6.774 -0.0020 -0.2472  0.0276
  157POPC   C1B 2374   9.481   3.491   7.841 -0.1158 -0.0199  0.1542
  157POPC   C2B 2375   9.583   3.282   7.363 -0.0682  0.0096  0.1069
  157POPC   C3B 2376   9.593   2.921   7.203  0.0736  0.0352  0.0663
  157POPC   C4B 2377   9.694   2.809   6.836 -0.1807  0.1234 -0.1299
  158POPC   NC3 2378   5.059   3.750   8.337  0.0773  0.0347  0.1663
  158POPC   PO4 2379   4.758   3.999   8.449  0.1351  0.0271  0.0808
  158POPC   GL1 2380   4.820   4.143   8.111 -0.2928 -0.0835 -0.1688
  158POPC   GL2 2381   4.856   4.478   8.271 -0.1297  0.0275  0.1976
  158POPC   C1A 2382   4.786   4.099   7.634 -0.0211  0.1927  0.1115
  158POPC   D2A 2383   4.710   3.925   7.176 -0.0118  0.2342  0.0262
  158POPC   C3A 2384   4.512   3.450   7.281  0.1768 -0.1231  0.1924
  158POPC   C4A 2385   4.632   3.265   7.673 -0.2668 -0.1620 -0.2892
  158POPC   C1B 2386   4.916   4.514   7.888  0.1872  0.1247  0.2637
  158POPC   C2B 2387   4.808   4.588   7.369  0.2326 -0.1223 -0.1422
  158POPC   C3B 2388   4.629   4.814   6.997 -0.0398  0.1027 -0.2051
  158POPC   C4B 2389   4.600   4.969   6.594  0.1190  0.1143 -0.1294
  159POPC   NC3 2390   0.664   1.625   9.192 -0.0846 -0.0693 -0.1875
  159POPC   PO4 2391   0.487   1.325   8.944  0.2253  0.2316 -0.0135
  159POPC   GL1 2392   0.603   1.069   8.612  0.2157  0.0954  0.0502
  159POPC   GL2 2393   0.383   0.928   8.366 -0.0896  0.2217  0.2058
  159POPC   C1A 2394   0.879   0.944   8.214 -0.1015 -0.2179 -0.2018
  159POPC   D2A 2395   0.986   0.947   7.787 -0.0795  0.0730 -0.0089
  159POPC   C3A 2396   1.304   0.697   7.557 -0.1528 -0.2542  0.0586
  159POPC   C4A 2397   1.442   0.308   7.465 -0.3328  0.0114  0.3824
  159POPC   C1B 2398   0.448   1.291   8.158  0.0987 -0.1473  0.0837
  159POPC   C2B 2399   0.396   1.796   8.052  0.0536  0.2934 -0.3816
  159POPC   C3B 2400   0.393   2.052   7.591 -0.0742  0.4598 -0.1681
  159POPC   C4B 2401   0.460   2.089   7.170  0.0401  0.0622  0.3132
  160POPC   NC3 2402   1.196   6.020   9.268 -0.0193  0.0215  0.1517
  160POPC   PO4 2403   0.688   6.047   9.458  0.2791  0.0175 -0.1321
  160POPC   GL1 2404   0.543   5.988   9.044 -0.2456 -0.1840  0.0163
  160POPC   GL2 2405   0.862   6.055   8.869  0.3618 -0.1804  0.2295
  160POPC   C1A 2406   0.318   6.238   8.831 -0.1202  0.0119  0.2283
  160POPC   D2A 2407  -0.047   6.450   8.766 -0.0188  0.1905 -0.0199
  160POPC   C3A 2408  -0.457   6.195   8.738  0.0461  0.2050  0.1971
  160POPC   C4A 2409  -0.903   6.237   8.735  0.0739 -0.1133 -0.0818
  160POPC   C1B 2410   1.072   6.247   8.523 -0.2345 -0.1517 -0.3089
  160POPC   C2B 2411   1.296   6.577   8.318 -0.1355  0.0489 -0.1998
  160POPC   C3B 2412   1.657   6.676   8.094  0.3907  0.2173 -0.1334
  160POPC   C4B 2413   2.121   6.648   8.085  0.1888  0.3865 -0.1839
  161POPC   NC3 2414   1.536   8.971   9.790  0.0730  0.4289  0.2059
  161POPC   PO4 2415   1.798   9.005   9.415 -0.0836 -0.3593 -0.0943
  161POPC   GL1 2416   1.490   8.809   9.170 -0.2270 -0.1696 -0.0294
  161POPC   GL2 2417   1.688   8.623   9.000  0.1469  0.4508  0.1984
  161POPC   C1A 2418   1.128   8.977   8.889 -0.2653 -0.0267 -0.2078
  161POPC   D2A 2419   0.851   9.132   8.676  0.1472 -0.1651  0.4015
  161POPC   C3A 2420   0.453   9.036   8.767 -0.0677 -0.1005 -0.1203
  161POPC   C4A 2421   0.205   8.829   8.747  0.0908 -0.2847  0.2010
  161POPC   C1B 2422   1.494   8.727   8.588 -0.2225 -0.1993 -0.0519
  161POPC   C2B 2423   1.547   8.650   8.144  0.0497 -0.2414 -0.0059
  161POPC   C3B 2424   1.397   8.696   7.722  0.0424 -0.1476  0.3449
  161POPC   C4B 2425   1.419   8.830   7.268  0.0522  0.2176 -0.1498
  162POPC   NC3 2426   8.696   6.835   9.816 -0.1570 -0.0373  0.1303
  162POPC   PO4 2427   8.361   7.209   9.963 -0.1936 -0.0890 -0.1051
  162POPC   GL1 2428   8.387   7.310   9.561 -0.0295  0.0634  0.0057
  162POPC   GL2 2429   8.048   7.369   9.315 -0.1202 -0.0108 -0.0794
  162POPC   C1A 2430   8.596   7.560   9.154  0.0856  0.2070 -0.1776
  162POPC   D2A 2431   8.633   7.960   8.813 -0.3210 -0.1856 -0.2284
  162POPC   C3A 2432   8.540   8.005   8.334  0.1477 -0.2982 -0.3019
  162POPC   C4A 2433   8.454   8.261   7.993  0.0204 -0.1746 -0.0147
  162POPC   C1B 2434   8.053   7.494   8.968 -0.1306  0.0100  0.2300
  162POPC   C2B 2435   8.417   7.560   8.660  0.2631 -0.2158 -0.0256
  162POPC   C3B 2436   8.769   7.513   8.523 -0.0593  0.0031  0.0490
  162POPC   C4B 2437   9.262   7.492   8.423  0.0849  0.1557 -0.3040
  163POPC   NC3 2438   6.965   6.115   8.693  0.0447  0.1642  0.0075
  163POPC   PO4 2439   6.828   6.552   8.744 -0.2126  0.1761 -0.1172
  163POPC   GL1 2440   7.027   6.861   8.428 -0.2520 -0.1587  0.4333
  163POPC   GL2 2441   6.962   7.154   8.538  0.1803  0.0323 -0.1170
  163POPC   C1A 2442   6.951   6.906   7.945 -0.1226 -0.0588 -0.1268
  163POPC   D2A 2443   6.805   6.530   7.636  0.3603 -0.0984  0.1304
  163POPC   C3A 2444   6.433   6.433   7.601 -0.2219  0.1140 -0.2422
  163POPC   C4A 2445   6.285   6.571   7.294  0.0386 -0.1940  0.1112
  163POPC   C1B 2446   7.228   7.310   8.293 -0.0597  0.2299  0.1454
  163POPC   C2B 2447   7.574   7.416   7.984  0.3450 -0.1058  0.1962
  163POPC   C3B 2448   7.673   7.249   7.678 -0.0470 -0.0841 -0.0668
  163POPC   C4B 2449   7.919   6.916   7.599  0.1380  0.0924  0.6290
  164POPC   NC3 2450   4.936   1.924   8.570  0.2276 -0.0219  0.0306
  164POPC   PO4 2451   4.796   1.460   8.603  0.2766  0.0531  0.0903
  164POPC   GL1 2452   4.741   1.493   8.262 -0.2249  0.3788  0.0533
  164POPC   GL2 2453   5.064   1.640   8.190 -0.0927  0.2588  0.0798
  164POPC   C1A 2454   4.747   1.310   7.899 -0.1859  0.1632  0.1917
  164POPC   D2A 2455   4.797   1.062   7.541  0.1838  0.0266 -0.0204
  164POPC   C3A 2456   4.420   1.147   7.291 -0.4325 -0.3042  0.0579
  164POPC   C4A 2457   4.356   1.091   6.890  0.2073 -0.0236  0.0177
  164POPC   C1B 2458   4.962   1.827   7.780 -0.0335 -0.1799 -0.1738
  164POPC   C2B 2459   5.120   2.111   7.422  0.2873  0.2180 -0.1292
  164POPC   C3B 2460   5.355   1.894   7.143 -0.1391 -0.5762  0.1695
  164POPC   C4B 2461   5.633   1.918   6.742 -0.0705 -0.0212  0.3146
  165POPC   NC3 2462   6.113   4.218   8.355 -0.2099 -0.0488 -0.1433
  165POPC   PO4 2463   5.724   4.235   8.250 -0.1242 -0.0957 -0.0609
  165POPC   GL1 2464   5.766   4.345   7.949 -0.1525 -0.2888  0.2666
  165POPC   GL2 2465   6.161   4.425   7.904 -0.1246 -0.2492  0.3052
  165POPC   C1A 2466   5.450   4.560   7.652 -0.2320 -0.0252 -0.4743
  165POPC   D2A 2467   5.368   4.626   7.271 -0.2527 -0.2411 -0.0872
  165POPC   C3A 2468   5.145   4.767   7.042 -0.1222  0.0971  0.0167
  165POPC   C4A 2469   5.201   4.963   6.638 -0.0789  0.2208  0.0981
  165POPC   C1B 2470   6.483   4.627   7.661  0.3555 -0.1990  0.4350
  165POPC   C2B 2471   6.733   4.495   7.290  0.1535 -0.1028  0.1950
  165POPC   C3B 2472   6.679   4.354   6.818  0.0216 -0.3093  0.0326
  165POPC   C4B 2473   6.732   4.221   6.354  0.2824 -0.3297  0.2902
  166POPC   NC3 2474   6.330   7.729   9.185 -0.0842  0.0685 -0.1848
  166POPC   PO4 2475   6.447   7.659   8.784 -0.2148  0.2148  0.1189
  166POPC   GL1 2476   6.478   7.577   8.369  0.1054 -0.0540 -0.2059
  166POPC   GL2 2477   6.713   7.615   8.283  0.2348 -0.4050 -0.2848
  166POPC   C1A 2478   6.563   7.302   7.979  0.1178  0.0244 -0.1592
  166POPC   D2A 2479   6.531   7.415   7.532 -0.0316 -0.1346 -0.0461
  166POPC   C3A 2480   6.793   7.469   7.236  0.4580 -0.1528 -0.0320
  166POPC   C4A 2481   7.044   7.706   6.919  0.0827  0.1867 -0.0779
  166POPC   C1B 2482   6.617   7.860   7.908  0.2831  0.4544  0.2758
  166POPC   C2B 2483   6.693   7.882   7.575 -0.5005 -0.1567  0.0979
  166POPC   C3B 2484   7.152   7.715   7.433 -0.0672  0.0402  0.1152
  166POPC   C4B 2485   7.521   7.608   7.236  0.1366  0.2578  0.2950
  167POPC   NC3 2486   4.073   3.291   8.712 -0.0156 -0.0512  0.0086
  167POPC   PO4 2487   3.645   3.316   8.623 -0.1487 -0.0472 -0.0172
  167POPC   GL1 2488   3.622   3.428   8.162  0.4079 -0.0258  0.0438
  167POPC   GL2 2489   3.387   3.508   7.920  0.1478 -0.0488 -0.1889
  167POPC   C1A 2490   3.822   3.583   7.691 -0.1029  0.0330  0.1047
  167POPC   D2A 2491   3.565   3.828   7.419  0.0166 -0.3414 -0.1192
  167POPC   C3A 2492   3.433   3.547   7.076  0.0149  0.2842  0.1304
  167POPC   C4A 2493   3.270   3.127   6.918  0.4350  0.0125 -0.2539
  167POPC   C1B 2494   3.372   3.320   7.584 -0.2806 -0.0774  0.0239
  167POPC   C2B 2495   3.546   3.004   7.275  0.0339 -0.1067 -0.2097
  167POPC   C3B 2496   3.689   2.679   7.302 -0.5004  0.0027 -0.1141
  167POPC   C4B 2497   3.839   2.373   6.954 -0.0249  0.0210  0.2994
  168POPC   NC3 2498   6.332   2.103   5.310 -0.2627  0.0402  0.1759
  168POPC   PO4 2499   5.994   2.329   5.370  0.0783  0.0357 -0.0763
  168POPC   GL1 2500   6.035   2.467   5.744 -0.2570  0.0507 -0.2090
  168POPC   GL2 2501   5.807   2.704   5.811  0.1664 -0.1408  0.1772
  168POPC   C1A 2502   6.207   2.554   6.160 -0.1412 -0.0031 -0.3010
  168POPC   D2A 2503   6.520   2.302   6.400 -0.2576 -0.0523  0.1411
  168POPC   C3A 2504   6.967   2.435   6.475  0.0929 -0.0080 -0.2136
  168POPC   C4A 2505   7.140   2.776   6.356  0.1775 -0.1455 -0.2442
  168POPC   C1B 2506   5.602   2.572   6.172 -0.0967 -0.2000 -0.3513
  168POPC   C2B 2507   5.300   2.269   6.340  0.4621  0.2828 -0.1042
  168POPC   C3B 2508   5.189   2.272   6.749  0.0722  0.1608  0.1613
  168POPC   C4B 2509   4.902   2.116   6.979 -0.1503  0.1538  0.1282
  169POPC   NC3 2510   8.342   3.981   4.982  0.0778  0.2046 -0.2158
  169POPC   PO4 2511   8.085   4.040   4.722 -0.0319 -0.0662  0.2064
  169POPC   GL1 2512   7.874   4.345   5.096  0.2402  0.1250  0.0941
  169POPC   GL2 2513   8.137   4.359   5.428 -0.2932 -0.2114  0.4849
  169POPC   C1A 2514   7.734   4.668   5.343 -0.3254 -0.1663  0.1097
  169POPC   D2A 2515   7.834   5.017   5.410 -0.1090  0.1049 -0.0724
  169POPC   C3A 2516   7.857   5.197   5.774 -0.1578 -0.0308 -0.2275
  169POPC   C4A 2517   7.787   5.513   6.030  0.0211 -0.0843 -0.0074
  169POPC   C1B 2518   7.876   4.403   5.791  0.0772 -0.0173 -0.1730
  169POPC   C2B 2519   7.671   4.588   6.123 -0.1984 -0.1710  0.0522
  169POPC   C3B 2520   7.463   4.651   6.445  0.0096  0.3767 -0.0954
  169POPC   C4B 2521   7.367   5.053   6.694 -0.1838 -0.0826 -0.0599
  170POPC   NC3 2522   9.924   3.236   5.176  0.0899  0.2388  0.0928
  170POPC   PO4 2523  10.226   3.028   5.136 -0.2061  0.2431 -0.2388
  170POPC   GL1 2524  10.451   2.890   5.567 -0.1141 -0.0236 -0.2509
  170POPC   GL2 2525  10.290   2.659   5.631 -0.1599  0.1387  0.0156
  170POPC   C1A 2526  10.491   2.838   6.041 -0.0632 -0.0581  0.2713
  170POPC   D2A 2527  10.411   3.194   6.351  0.2198  0.0984  0.0660
  170POPC   C3A 2528  10.315   3.114   6.688 -0.0345 -0.0451  0.1808
  170POPC   C4A 2529  10.109   3.147   7.020 -0.1144 -0.0958  0.4310
  170POPC   C1B 2530  10.144   2.494   6.100 -0.1339  0.2368 -0.4388
  170POPC   C2B 2531  10.389   2.528   6.463 -0.2172  0.1047 -0.3037
  170POPC   C3B 2532  10.667   2.812   6.614 -0.0411  0.0879 -0.0548
  170POPC   C4B 2533  10.944   3.144   6.693  0.0006 -0.1033 -0.0667
  171POPC   NC3 2534   8.923   0.958   5.297  0.1251  0.1195 -0.2570
  171POPC   PO4 2535   8.587   0.978   5.019  0.1481 -0.0333  0.4475
  171POPC   GL1 2536   8.432   0.802   5.292  0.0010 -0.0167  0.2601
  171POPC   GL2 2537   8.081   0.848   5.285  0.2257  0.2861  0.1231
  171POPC   C1A 2538   8.452   0.668   5.746 -0.3573  0.2136  0.3175
  171POPC   D2A 2539   8.363   0.736   6.243  0.2571  0.0400 -0.0892
  171POPC   C3A 2540   8.485   1.109   6.553 -0.1078 -0.3103  0.0715
  171POPC   C4A 2541   8.371   1.520   6.496 -0.0209 -0.0612 -0.1123
  171POPC   C1B 2542   7.933   1.082   5.659 -0.0955  0.0986 -0.1672
  171POPC   C2B 2543   7.659   1.361   5.923  0.1096  0.1643 -0.1042
  171POPC   C3B 2544   7.312   1.145   6.309 -0.0942  0.0095 -0.0935
  171POPC   C4B 2545   7.012   0.889   6.276  0.1604  0.0426  0.1920
  172POPC   NC3 2546   2.815   0.712   5.244 -0.1812  0.0401 -0.0915
  172POPC   PO4 2547   2.569   0.307   5.307  0.1691  0.1050 -0.1516
  172POPC   GL1 2548   2.476   0.601   5.582  0.1134  0.1135  0.0141
  172POPC   GL2 2549   2.509   0.419   5.867  0.3222  0.2558  0.2378
  172POPC   C1A 2550   2.566   0.896   5.793 -0.0336  0.0460  0.0318
  172POPC   D2A 2551   2.859   1.163   5.954 -0.0359  0.1420 -0.2311
  172POPC   C3A 2552   2.765   1.556   5.817 -0.0260  0.0954 -0.3084
  172POPC   C4A 2553   2.908   2.095   5.687  0.0323 -0.1519  0.0802
  172POPC   C1B 2554   2.330   0.101   6.101 -0.0346  0.1799 -0.0639
  172POPC   C2B 2555   2.203  -0.270   6.258 -0.0862  0.2656  0.0626
  172POPC   C3B 2556   2.253  -0.722   6.395 -0.2282  0.0500 -0.0091
  172POPC   C4B 2557   2.051  -1.075   6.584  0.1455 -0.0261 -0.0502
  173POPC   NC3 2558   3.135  10.350   4.967 -0.1151  0.2386  0.1592
  173POPC   PO4 2559   3.021   9.987   5.045 -0.0141  0.2892 -0.2232
  173POPC   GL1 2560   2.960   9.732   5.374 -0.0072  0.1840  0.0339
  173POPC   GL2 2561   3.000   9.348   5.352 -0.0117 -0.0016  0.1213
  173POPC   C1A 2562   2.950   9.783   5.786  0.1735  0.2489 -0.1684
  173POPC   D2A 2563   2.765   9.709   6.173  0.1592  0.3846 -0.1725
  173POPC   C3A 2564   2.691   9.986   6.532  0.0190  0.0369  0.1950
  173POPC   C4A 2565   2.649  10.211   6.927 -0.0755 -0.2410 -0.2079
  173POPC   C1B 2566   3.095   9.296   5.690  0.3288 -0.0014 -0.0077
  173POPC   C2B 2567   3.187   9.403   6.111 -0.0081  0.2059 -0.4144
  173POPC   C3B 2568   3.095   9.461   6.480  0.0857 -0.1887 -0.2354
  173POPC   C4B 2569   2.941   9.690   6.883  0.2881 -0.0321  0.1269
  174POPC   NC3 2570   9.890   1.077   4.284  0.2084 -0.2307 -0.1067
  174POPC   PO4 2571  10.124   0.939   4.615 -0.1391  0.0528 -0.0328
  174POPC   GL1 2572  10.316   0.912   4.966  0.1658  0.1454 -0.0761
  174POPC   GL2 2573  10.157   0.986   5.350  0.2833 -0.0523  0.2697
  174POPC   C1A 2574  10.688   0.908   5.173  0.0220 -0.0430  0.0542
  174POPC   D2A 2575  10.978   0.984   5.527  0.0856  0.1671 -0.1175
  174POPC   C3A 2576  11.102   1.316   5.531  0.2062 -0.0856  0.0636
  174POPC   C4A 2577  11.206   1.514   5.944  0.2149 -0.3584 -0.0239
  174POPC   C1B 2578   9.966   0.762   5.611  0.0652 -0.1505  0.2019
  174POPC   C2B 2579   9.919   0.595   6.070  0.3616 -0.1329  0.0691
  174POPC   C3B 2580   9.658   0.804   6.426  0.0612 -0.1841 -0.1920
  174POPC   C4B 2581   9.313   0.999   6.561 -0.0176  0.3059 -0.1689
  175POPC   NC3 2582   6.952   6.328   4.175  0.2717 -0.2071 -0.0215
  175POPC   PO4 2583   7.083   6.798   4.192 -0.0726 -0.0676 -0.3335
  175POPC   GL1 2584   7.225   7.110   4.437  0.1112  0.2558  0.1371
  175POPC   GL2 2585   7.025   7.145   4.792  0.1013  0.0218 -0.0063
  175POPC   C1A 2586   7.649   7.043   4.704 -0.2061  0.1280 -0.1902
  175POPC   D2A 2587   7.881   7.334   4.983 -0.0498 -0.2247 -0.0711
  175POPC   C3A 2588   7.818   7.718   5.040 -0.2171 -0.3769  0.0467
  175POPC   C4A 2589   8.203   8.001   5.183 -0.2414 -0.4149  0.0021
  175POPC   C1B 2590   6.907   7.060   5.230  0.0540 -0.1776 -0.0542
  175POPC   C2B 2591   6.880   7.078   5.634  0.0810 -0.1653  0.1102
  175POPC   C3B 2592   6.978   6.936   6.049 -0.0431 -0.2923  0.1828
  175POPC   C4B 2593   6.928   7.057   6.470  0.1162  0.1465  0.0142
  176POPC   NC3 2594   8.914   3.992   5.013  0.3838  0.1734  0.1484
  176POPC   PO4 2595   8.584   4.387   5.158 -0.2315  0.1823 -0.2652
  176POPC   GL1 2596   8.428   4.802   5.367  0.3258 -0.0393 -0.1461
  176POPC   GL2 2597   8.674   4.882   5.582  0.0735  0.0017  0.0524
  176POPC   C1A 2598   8.149   4.769   5.730 -0.1896  0.1953  0.0903
  176POPC   D2A 2599   8.102   4.898   6.170  0.2187 -0.1331 -0.1292
  176POPC   C3A 2600   8.264   4.657   6.530 -0.0745  0.2841  0.1630
  176POPC   C4A 2601   8.039   4.405   6.725  0.1535 -0.1115 -0.2483
  176POPC   C1B 2602   8.711   4.954   5.933  0.2707 -0.2463 -0.2866
  176POPC   C2B 2603   8.517   5.083   6.406  0.0500  0.2969  0.1132
  176POPC   C3B 2604   8.082   5.206   6.705 -0.2034  0.0374  0.0594
  176POPC   C4B 2605   7.859   4.938   6.679 -0.0882 -0.1148 -0.1231
  177POPC   NC3 2606   2.462   9.029   4.731 -0.0131 -0.1919  0.0871
  177POPC   PO4 2607   2.886   8.990   4.765  0.3203  0.1009 -0.0680
  177POPC   GL1 2608   2.791   8.882   5.159  0.1995 -0.0331 -0.1718
  177POPC   GL2 2609   2.774   8.806   5.496 -0.1206 -0.0971  0.2127
  177POPC   C1A 2610   2.405   8.577   5.344 -0.0043  0.0197 -0.0460
  177POPC   D2A 2611   2.268   8.392   5.790  0.2194  0.0876 -0.0289
  177POPC   C3A 2612   2.433   8.623   6.154  0.1390 -0.1123  0.0958
  177POPC   C4A 2613   2.550   8.312   6.509  0.0420  0.1411  0.1880
  177POPC   C1B 2614   2.705   9.004   5.865  0.0733  0.0151  0.0062
  177POPC   C2B 2615   2.800   9.122   6.238  0.1718 -0.1745  0.1286
  177POPC   C3B 2616   2.566   9.429   6.631 -0.2026 -0.0488  0.1647
  177POPC   C4B 2617   2.392   9.709   6.953  0.0038  0.0407 -0.0649
  178POPC   NC3 2618   2.006   4.064   4.818 -0.0902 -0.1810 -0.1354
  178POPC   PO4 2619   1.960   3.706   5.037  0.0930  0.1650  0.1324
  178POPC   GL1 2620   2.167   3.960   5.313  0.2306 -0.1332  0.0360
  178POPC   GL2 2621   2.334   4.229   5.194 -0.1673  0.3144  0.0174
  178POPC   C1A 2622   2.331   3.969   5.764  0.1276  0.1874  0.0479
  178POPC   D2A 2623   2.251   3.726   6.187  0.1140  0.1604  0.1844
  178POPC   C3A 2624   2.423   3.399   6.556  0.2227  0.1286 -0.1904
  178POPC   C4A 2625   2.362   2.984   6.557  0.2576  0.1263 -0.1125
  178POPC   C1B 2626   2.491   4.610   5.455 -0.1528  0.2961 -0.0044
  178POPC   C2B 2627   2.549   4.661   5.958  0.3023 -0.1325  0.2503
  178POPC   C3B 2628   2.202   4.771   6.184 -0.0485 -0.0145 -0.0138
  178POPC   C4B 2629   2.102   5.157   6.247 -0.0384 -0.3910  0.1746
  179POPC   NC3 2630   2.582   8.171   4.509  0.2041  0.3759 -0.3869
  179POPC   PO4 2631   2.659   7.792   4.845  0.0961  0.0521 -0.0266
  179POPC   GL1 2632   2.297   7.872   5.051  0.0600 -0.1691 -0.1833
  179POPC   GL2 2633   2.310   7.578   5.270 -0.0324  0.3166 -0.0313
  179POPC   C1A 2634   2.112   8.047   5.433 -0.0282 -0.0843  0.0213
  179POPC   D2A 2635   1.792   8.299   5.598  0.1782  0.0976  0.0089
  179POPC   C3A 2636   1.776   8.491   6.058 -0.1063  0.1965 -0.0526
  179POPC   C4A 2637   1.602   8.284   6.436 -0.2073  0.1600 -0.2013
  179POPC   C1B 2638   2.465   7.871   5.717 -0.0044 -0.1610  0.2469
  179POPC   C2B 2639   2.219   7.912   5.976 -0.3152  0.2951 -0.2618
  179POPC   C3B 2640   2.155   8.122   6.263  0.1161 -0.1985 -0.2156
  179POPC   C4B 2641   2.044   8.527   6.417  0.0983 -0.0802  0.2282
  180POPC   NC3 2642   9.657   9.472   3.198 -0.1530  0.0418 -0.0991
  180POPC   PO4 2643   9.768   9.579   3.600  0.3591 -0.0077 -0.1471
  180POPC   GL1 2644   9.786   9.384   3.915 -0.0202  0.1940  0.0683
  180POPC   GL2 2645  10.052   9.480   4.206  0.0622 -0.1181  0.1032
  180POPC   C1A 2646   9.768   9.070   4.233 -0.0119 -0.2027  0.2793
  180POPC   D2A 2647  10.043   9.122   4.539 -0.0453 -0.1023 -0.3102
  180POPC   C3A 2648  10.286   8.820   4.562 -0.1562  0.2182 -0.2884
  180POPC   C4A 2649  10.078   8.515   4.317 -0.1351 -0.2503 -0.0282
  180POPC   C1B 2650  10.273   9.090   4.063  0.1776 -0.5454 -0.1877
  180POPC   C2B 2651  10.683   8.899   4.216 -0.1197 -0.3156 -0.3274
  180POPC   C3B 2652  10.763   8.565   4.448  0.0308  0.0829 -0.4434
  180POPC   C4B 2653  10.919   8.041   4.546 -0.2331  0.3133  0.0544
  181POPC   NC3 2654   2.687   6.118   5.256 -0.0592 -0.3076  0.1033
  181POPC   PO4 2655   2.796   5.816   4.939 -0.2281  0.3172 -0.2866
  181POPC   GL1 2656   2.889   5.629   5.350 -0.0327 -0.0680 -0.2973
  181POPC   GL2 2657   3.086   5.817   5.623  0.2552 -0.5186 -0.0794
  181POPC   C1A 2658   3.032   5.261   5.566  0.2824  0.2715  0.4981
  181POPC   D2A 2659   2.928   4.985   5.825 -0.0637 -0.1097 -0.1389
  181POPC   C3A 2660   2.834   4.925   6.378 -0.0861  0.5355 -0.1996
  181POPC   C4A 2661   2.661   4.559   6.485 -0.0465 -0.1605  0.1825
  181POPC   C1B 2662   2.863   5.647   5.898 -0.3188  0.3270  0.1022
  181POPC   C2B 2663   2.622   5.704   6.201  0.2418 -0.1537 -0.1520
  181POPC   C3B 2664   2.542   5.354   6.520 -0.0322  0.3297  0.1638
  181POPC   C4B 2665   2.359   5.361   6.897  0.3500  0.0128  0.3789
  182POPC   NC3 2666   9.023   0.317   3.889  0.2831  0.2072  0.3331
  182POPC   PO4 2667   8.958   0.022   4.201  0.3571 -0.0624  0.2775
  182POPC   GL1 2668   9.179  -0.174   4.456  0.0464 -0.0713 -0.1263
  182POPC   GL2 2669   9.372  -0.033   4.696 -0.0970  0.4267  0.0046
  182POPC   C1A 2670   9.313  -0.607   4.557 -0.1674 -0.2444 -0.0106
  182POPC   D2A 2671   9.183  -1.096   4.736 -0.0165  0.1363 -0.2042
  182POPC   C3A 2672   8.783  -1.320   4.651 -0.0062 -0.1976 -0.0193
  182POPC   C4A 2673   8.665  -1.622   4.560  0.2193 -0.0187 -0.2389
  182POPC   C1B 2674   9.312  -0.219   5.086  0.0595  0.1146  0.1411
  182POPC   C2B 2675   9.099  -0.633   5.096  0.2050  0.1065 -0.0121
  182POPC   C3B 2676   9.024  -0.701   5.439  0.4748  0.2985 -0.5169
  182POPC   C4B 2677   9.220  -1.059   5.778 -0.1463 -0.0200  0.0225
  183POPC   NC3 2678   6.196   9.454   4.100 -0.1151  0.4579  0.0684
  183POPC   PO4 2679   6.210   9.536   4.526  0.3342  0.4114 -0.0799
  183POPC   GL1 2680   6.127   9.405   5.042 -0.3013 -0.1141  0.1731
  183POPC   GL2 2681   6.335   9.140   5.102  0.1944 -0.1697 -0.2107
  183POPC   C1A 2682   5.953   9.121   5.394  0.0145 -0.1006 -0.4061
  183POPC   D2A 2683   5.896   8.902   5.841  0.0390  0.2354  0.2251
  183POPC   C3A 2684   5.821   8.967   6.210 -0.0144 -0.1903 -0.1647
  183POPC   C4A 2685   5.732   9.098   6.633 -0.0246  0.0227 -0.3077
  183POPC   C1B 2686   6.607   9.147   5.442  0.2138 -0.2940  0.1947
  183POPC   C2B 2687   6.768   9.241   5.852  0.1201 -0.1470  0.1441
  183POPC   C3B 2688   6.957   9.463   6.167 -0.1627 -0.1687  0.1247
  183POPC   C4B 2689   6.963   9.460   6.584 -0.0861 -0.1174  0.1894
  184POPC   NC3 2690   6.587   4.669   4.273  0.1651  0.1233  0.0593
  184POPC   PO4 2691   6.382   4.987   4.525 -0.3713  0.2373 -0.5681
  184POPC   GL1 2692   6.103   5.148   4.897 -0.3456 -0.1171 -0.1216
  184POPC   GL2 2693   6.229   5.383   5.087 -0.3235 -0.1073 -0.0784
  184POPC   C1A 2694   6.025   5.058   5.382 -0.2415  0.0050  0.1688
  184POPC   D2A 2695   5.844   5.202   5.811 -0.1284 -0.1671 -0.1924
  184POPC   C3A 2696   5.463   5.171   6.046 -0.1070 -0.2010  0.1191
  184POPC   C4A 2697   5.055   5.171   6.045  0.1381 -0.1041  0.0053
  184POPC   C1B 2698   6.579   5.238   5.331  0.1917  0.2568 -0.0264
  184POPC   C2B 2699   6.816   5.300   5.683  0.0846  0.3205  0.0197
  184POPC   C3B 2700   7.205   5.107   5.949  0.3668  0.2248 -0.0965
  184POPC   C4B 2701   7.655   5.105   6.201 -0.0008  0.0032 -0.0084
  185POPC   NC3 2702   6.964   8.885   3.941  0.0926 -0.0757  0.1287
  185POPC   PO4 2703   6.758   8.846   4.292  0.5650  0.0499 -0.0407
  185POPC   GL1 2704   6.967   8.662   4.689  0.0406 -0.0312  0.0209
  185POPC   GL2 2705   6.681   8.665   4.967 -0.0207  0.4036 -0.2949
  185POPC   C1A 2706   7.165   8.515   5.061 -0.0338 -0.1365 -0.0409
  185POPC   D2A 2707   7.408   8.419   5.412 -0.1962 -0.0315 -0.2186
  185POPC   C3A 2708   7.754   8.211   5.339 -0.0379  0.0592 -0.3353
  185POPC   C4A 2709   8.187   8.431   5.448  0.2024  0.0526  0.2234
  185POPC   C1B 2710   6.746   8.700   5.386 -0.0709  0.0367 -0.0589
  185POPC   C2B 2711   7.102   8.929   5.472  0.1573 -0.1549 -0.0658
  185POPC   C3B 2712   7.238   9.001   5.861 -0.1793  0.0897  0.0005
  185POPC   C4B 2713   7.388   8.884   6.254  0.0887  0.1388 -0.2342
  186POPC   NC3 2714   1.811   5.019   4.669 -0.2921  0.2372 -0.1144
  186POPC   PO4 2715   1.369   4.861   4.583 -0.2516  0.0300 -0.0288
  186POPC   GL1 2716   1.252   5.112   5.001 -0.0472  0.3263 -0.4475
  186POPC   GL2 2717   1.019   4.953   5.222 -0.0933 -0.3540  0.2908
  186POPC   C1A 2718   1.489   5.179   5.343 -0.0767 -0.2986 -0.1558
  186POPC   D2A 2719   1.491   5.551   5.602 -0.0136 -0.1316  0.1048
  186POPC   C3A 2720   1.786   5.452   5.953  0.4228  0.0603 -0.0453
  186POPC   C4A 2721   1.707   5.474   6.373  0.1979  0.2743  0.1794
  186POPC   C1B 2722   1.093   5.170   5.641  0.1845  0.4538  0.1471
  186POPC   C2B 2723   1.264   5.392   6.070 -0.1340  0.4606 -0.1070
  186POPC   C3B 2724   1.372   5.792   6.162  0.1295 -0.0023 -0.2663
  186POPC   C4B 2725   1.763   5.926   6.152 -0.0858  0.1871  0.0703
  187POPC   NC3 2726   4.170   4.159   4.568 -0.3784 -0.1421  0.2635
  187POPC   PO4 2727   3.724   4.127   4.852 -0.3286 -0.1221  0.3178
  187POPC   GL1 2728   3.804   4.378   5.114 -0.0159 -0.1021 -0.1204
  187POPC   GL2 2729   3.601   4.573   5.318  0.1092 -0.1585 -0.1235
  187POPC   C1A 2730   4.108   4.655   5.375 -0.1972 -0.5843 -0.1664
  187POPC   D2A 2731   4.035   5.054   5.566  0.2512 -0.1522 -0.2346
  187POPC   C3A 2732   4.228   5.244   5.888  0.1109 -0.1568 -0.0471
  187POPC   C4A 2733   4.569   5.092   6.141  0.1991 -0.0554 -0.2175
  187POPC   C1B 2734   3.621   4.232   5.590  0.1028 -0.0819 -0.1590
  187POPC   C2B 2735   3.707   3.957   5.986  0.0387 -0.0634  0.0177
  187POPC   C3B 2736   3.824   3.864   6.486 -0.1926 -0.3083  0.1996
  187POPC   C4B 2737   3.825   3.839   6.916 -0.0660  0.1394  0.0991
  188POPC   NC3 2738   7.446   4.296   4.501 -0.1553 -0.3808  0.0569
  188POPC   PO4 2739   7.129   4.681   4.416 -0.0765 -0.1374  0.2439
  188POPC   GL1 2740   6.875   4.836   4.776 -0.2040  0.0649  0.1757
  188POPC   GL2 2741   6.981   4.995   5.071 -0.1742  0.1129  0.0788
  188POPC   C1A 2742   6.557   4.746   5.126 -0.0068 -0.0040  0.1527
  188POPC   D2A 2743   6.363   4.781   5.537  0.2516  0.3022  0.2253
  188POPC   C3A 2744   6.456   4.597   5.994 -0.1852 -0.1408  0.1957
  188POPC   C4A 2745   6.233   4.201   6.104  0.4350  0.2153 -0.2386
  188POPC   C1B 2746   6.932   4.866   5.443  0.1131  0.0781  0.1561
  188POPC   C2B 2747   6.935   4.703   5.835  0.0983  0.0474  0.1923
  188POPC   C3B 2748   6.849   4.759   6.319  0.0413 -0.0260 -0.1882
  188POPC   C4B 2749   6.793   4.972   6.745  0.0393  0.2722  0.1922
  189POPC   NC3 2750   5.515   3.235   4.938  0.2064 -0.0984  0.0474
  189POPC   PO4 2751   5.915   3.177   5.039  0.1086 -0.3225 -0.2324
  189POPC   GL1 2752   5.816   3.290   5.430  0.0465  0.4376  0.0205
  189POPC   GL2 2753   5.524   3.239   5.403 -0.3683 -0.4983  0.1064
  189POPC   C1A 2754   5.998   3.497   5.740  0.1899  0.0643 -0.2151
  189POPC   D2A 2755   6.298   3.854   5.792 -0.0987 -0.0997 -0.0936
  189POPC   C3A 2756   6.513   3.525   6.035  0.2994 -0.0594 -0.0281
  189POPC   C4A 2757   6.823   3.273   6.075 -0.2381  0.0578 -0.2491
  189POPC   C1B 2758   5.460   3.574   5.673  0.1733 -0.0787  0.1664
  189POPC   C2B 2759   5.687   3.522   6.157 -0.0932  0.0035  0.0327
  189POPC   C3B 2760   6.041   3.711   6.215  0.0709 -0.1798 -0.3343
  189POPC   C4B 2761   6.457   3.707   6.496  0.1691  0.2874 -0.1231
  190POPC   NC3 2762   3.691   7.135   5.208  0.0090  0.1341 -0.3039
  190POPC   PO4 2763   3.634   7.597   5.271 -0.1194 -0.0125 -0.1634
  190POPC   GL1 2764   3.597   7.479   5.686 -0.0189  0.2703  0.1989
  190POPC   GL2 2765   3.626   7.840   5.748 -0.2488 -0.2139 -0.1333
  190POPC   C1A 2766   3.544   7.162   5.945  0.2795 -0.0549 -0.1482
  190POPC   D2A 2767   3.581   7.133   6.351  0.2054 -0.1605 -0.0625
  190POPC   C3A 2768   3.692   6.925   6.736  0.1410  0.2782  0.0271
  190POPC   C4A 2769   3.460   6.726   7.035  0.2765  0.0043 -0.0943
  190POPC   C1B 2770   4.072   7.733   5.963  0.0597 -0.0076  0.1498
  190POPC   C2B 2771   4.470   7.505   5.858  0.2826  0.0419  0.0257
  190POPC   C3B 2772   4.928   7.441   5.998 -0.0560 -0.1346 -0.0565
  190POPC   C4B 2773   5.160   7.482   6.427 -0.0700  0.1006  0.0651
  191POPC   NC3 2774   4.475  10.471   5.220 -0.0703 -0.1040  0.0559
  191POPC   PO4 2775   4.889  10.677   5.161  0.4061 -0.1695  0.1384
  191POPC   GL1 2776   4.981  10.513   5.612  0.2640 -0.0577 -0.0012
  191POPC   GL2 2777   5.407  10.466   5.583  0.0183 -0.2122  0.0164
  191POPC   C1A 2778   5.037  10.126   5.909  0.2378 -0.3440  0.3494
  191POPC   D2A 2779   4.936   9.973   6.364 -0.3564  0.0011  0.0638
  191POPC   C3A 2780   4.550  10.029   6.348 -0.0352  0.2639  0.1071
  191POPC   C4A 2781   4.252  10.071   6.711 -0.3312  0.1565  0.0929
  191POPC   C1B 2782   5.365  10.506   6.034 -0.0099  0.3715 -0.1684
  191POPC   C2B 2783   5.326  10.570   6.532 -0.4930  0.1730 -0.4889
  191POPC   C3B 2784   5.528  10.580   6.832 -0.0258 -0.4856  0.0247
  191POPC   C4B 2785   5.786  10.398   7.068 -0.2320  0.0847 -0.1548
  192POPC   NC3 2786   5.130   8.328   4.838 -0.1077 -0.3952  0.1251
  192POPC   PO4 2787   5.436   8.124   5.002 -0.1003 -0.3459 -0.0185
  192POPC   GL1 2788   5.581   8.187   5.282  0.1793  0.3225 -0.1076
  192POPC   GL2 2789   5.361   8.012   5.495  0.0257 -0.2719 -0.0673
  192POPC   C1A 2790   5.812   8.207   5.537 -0.2967 -0.1806 -0.1804
  192POPC   D2A 2791   6.085   8.390   5.809  0.2641  0.0064 -0.2977
  192POPC   C3A 2792   6.220   8.219   6.171  0.2205 -0.0663 -0.1348
  192POPC   C4A 2793   6.343   7.957   6.471 -0.1392 -0.0020  0.0633
  192POPC   C1B 2794   5.449   8.113   5.861  0.1205  0.1648 -0.2384
  192POPC   C2B 2795   5.203   8.345   6.219 -0.0417 -0.0407  0.5399
  192POPC   C3B 2796   5.065   8.359   6.606  0.2281 -0.0261  0.1641
  192POPC   C4B 2797   4.753   8.362   6.940  0.0585 -0.2315 -0.0653
  193POPC   NC3 2798   8.816   4.440   4.712 -0.2288  0.1271 -0.0396
  193POPC   PO4 2799   9.113   4.501   5.015  0.1529  0.0017 -0.2017
  193POPC   GL1 2800   8.971   4.547   5.369  0.1579  0.0515  0.3492
  193POPC   GL2 2801   9.298   4.606   5.528  0.1048 -0.0540 -0.1211
  193POPC   C1A 2802   8.807   4.473   5.812  0.1760 -0.0130  0.1075
  193POPC   D2A 2803   8.636   4.475   6.203  0.2175 -0.0487  0.1821
  193POPC   C3A 2804   8.853   4.669   6.593 -0.0412  0.0568 -0.2598
  193POPC   C4A 2805   9.247   4.890   6.744  0.0880  0.2516 -0.1211
  193POPC   C1B 2806   9.256   4.660   6.081  0.0485  0.1861 -0.1221
  193POPC   C2B 2807   9.135   5.041   6.253 -0.0622  0.1958 -0.1934
  193POPC   C3B 2808   8.947   5.217   6.621 -0.2589 -0.2289 -0.1723
  193POPC   C4B 2809   9.153   5.233   7.063 -0.0022 -0.0845  0.0092
  194POPC   NC3 2810   7.971   0.425   4.122  0.0972 -0.0794 -0.1049
  194POPC   PO4 2811   7.917   0.365   4.559  0.3413 -0.3231 -0.1184
  194POPC   GL1 2812   7.999   0.214   4.911  0.0099 -0.0352 -0.0367
  194POPC   GL2 2813   7.831  -0.092   4.915  0.0037  0.1821 -0.3426
  194POPC   C1A 2814   8.168   0.324   5.318  0.0660  0.0922  0.0542
  194POPC   D2A 2815   8.109   0.174   5.697 -0.1780 -0.0564  0.3345
  194POPC   C3A 2816   8.320   0.297   6.076 -0.2123 -0.4895 -0.0952
  194POPC   C4A 2817   8.721   0.329   6.086  0.2829  0.0694  0.0811
  194POPC   C1B 2818   7.843  -0.136   5.297  0.2327 -0.0772  0.1031
  194POPC   C2B 2819   7.665  -0.230   5.672 -0.2798  0.3606  0.0058
  194POPC   C3B 2820   7.454  -0.261   6.100  0.3949 -0.3261  0.1346
  194POPC   C4B 2821   7.349  -0.638   6.389 -0.2118  0.0408  0.2181
  195POPC   NC3 2822   5.493   6.889   4.672 -0.2549 -0.0758  0.1259
  195POPC   PO4 2823   5.308   6.561   4.881 -0.2236  0.1225  0.0811
  195POPC   GL1 2824   5.405   6.665   5.284 -0.0535 -0.0799 -0.3592
  195POPC   GL2 2825   5.680   6.779   5.181  0.2523 -0.2737  0.0868
  195POPC   C1A 2826   5.163   6.634   5.724  0.1837  0.1513 -0.0295
  195POPC   D2A 2827   4.898   6.729   6.098  0.0913  0.0544 -0.1322
  195POPC   C3A 2828   4.863   7.098   6.376 -0.1706  0.0177  0.2731
  195POPC   C4A 2829   4.577   7.501   6.506 -0.0750  0.2975  0.2077
  195POPC   C1B 2830   5.706   6.677   5.619  0.0704 -0.1297 -0.3561
  195POPC   C2B 2831   5.661   6.523   5.900 -0.1438  0.4586  0.1647
  195POPC   C3B 2832   5.313   6.470   6.172 -0.0266  0.1657 -0.2698
  195POPC   C4B 2833   5.104   6.556   6.515 -0.1713 -0.1356  0.0207
  196POPC   NC3 2834   7.991   5.929   4.540  0.0992  0.1404  0.0095
  196POPC   PO4 2835   7.955   6.268   4.275  0.0245 -0.0677 -0.0199
  196POPC   GL1 2836   8.217   6.490   4.540  0.1538 -0.0792 -0.0060
  196POPC   GL2 2837   8.218   6.330   4.730  0.0500 -0.2235 -0.0330
  196POPC   C1A 2838   8.579   6.803   4.719 -0.3951  0.3532  0.0411
  196POPC   D2A 2839   8.722   7.160   4.978  0.3937  0.1331  0.4290
  196POPC   C3A 2840   8.669   7.755   5.076  0.3382 -0.0014 -0.2261
  196POPC   C4A 2841   8.930   7.951   5.423 -0.2138 -0.0104  0.2854
  196POPC   C1B 2842   7.818   6.578   4.913 -0.1570  0.6731  0.1163
  196POPC   C2B 2843   7.850   6.774   5.336 -0.1448  0.2143  0.0508
  196POPC   C3B 2844   7.711   7.103   5.521  0.0130  0.0072 -0.3434
  196POPC   C4B 2845   7.400   7.292   5.725  0.1665 -0.0902  0.0456
  197POPC   NC3 2846   5.278   9.282   4.557 -0.3645 -0.1909 -0.0053
  197POPC   PO4 2847   5.102   8.974   4.753  0.3212  0.0284 -0.3046
  197POPC   GL1 2848   5.232   9.040   5.184  0.1718  0.0240 -0.6242
  197POPC   GL2 2849   4.958   9.012   5.424 -0.0280 -0.2012  0.0482
  197POPC   C1A 2850   5.441   9.049   5.592  0.0601  0.0145  0.2048
  197POPC   D2A 2851   5.446   9.196   6.060 -0.0972  0.0314  0.3646
  197POPC   C3A 2852   5.364   8.776   6.247  0.1156  0.0509  0.0592
  197POPC   C4A 2853   5.560   8.572   6.638 -0.2993  0.0003  0.1881
  197POPC   C1B 2854   5.081   8.815   5.855  0.0299 -0.0819 -0.0114
  197POPC   C2B 2855   4.854   8.708   6.252 -0.0825  0.2223  0.3250
  197POPC   C3B 2856   4.570   8.775   6.663 -0.0584 -0.1317 -0.3796
  197POPC   C4B 2857   4.098   8.901   6.855 -0.0640 -0.0967 -0.1967
  198POPC   NC3 2858   2.513   9.884   5.256  0.2310 -0.0837 -0.0932
  198POPC   PO4 2859   2.783  10.317   5.323 -0.2462 -0.1739  0.0269
  198POPC   GL1 2860   2.703  10.412   5.804 -0.0411  0.0394 -0.1544
  198POPC   GL2 2861   2.412  10.325   5.677  0.0624  0.3033  0.1028
  198POPC   C1A 2862   2.700  10.261   6.172 -0.0113 -0.0585 -0.0216
  198POPC   D2A 2863   3.030  10.345   6.534 -0.0659  0.0294 -0.0821
  198POPC   C3A 2864   3.211  10.124   6.928  0.1735 -0.3432 -0.0146
  198POPC   C4A 2865   3.037   9.957   7.311 -0.2187 -0.1051  0.3438
  198POPC   C1B 2866   1.933  10.312   5.735 -0.2564 -0.0106  0.1407
  198POPC   C2B 2867   1.722  10.151   6.103  0.1621 -0.0196 -0.1050
  198POPC   C3B 2868   1.797   9.854   6.455 -0.1619 -0.2934  0.0028
  198POPC   C4B 2869   1.765   9.809   6.871  0.1804 -0.3203 -0.0230
  199POPC   NC3 2870   0.441   7.035   3.408  0.1691  0.2778  0.2091
  199POPC   PO4 2871   0.535   7.442   3.321 -0.1823 -0.1685 -0.0873
  199POPC   GL1 2872   0.173   7.420   3.611  0.0032  0.1234 -0.0180
  199POPC   GL2 2873   0.075   7.054   3.778 -0.2784 -0.1318  0.2239
  199POPC   C1A 2874  -0.166   7.487   3.801  0.0463  0.2357  0.1534
  199POPC   D2A 2875  -0.508   7.440   3.928 -0.2501 -0.2237  0.0227
  199POPC   C3A 2876  -0.754   7.784   3.925 -0.2085  0.0295  0.1440
  199POPC   C4A 2877  -0.669   8.287   4.000  0.1969  0.1610  0.2428
  199POPC   C1B 2878  -0.162   7.122   4.124  0.0213 -0.0842  0.1659
  199POPC   C2B 2879  -0.153   7.311   4.406 -0.1316 -0.2163 -0.1080
  199POPC   C3B 2880   0.105   7.543   4.620  0.0639 -0.0336  0.1128
  199POPC   C4B 2881   0.437   7.545   4.759 -0.2403  0.0612 -0.0739
  200POPC   NC3 2882   3.308   6.506   4.921  0.2578  0.1901 -0.0796
  200POPC   PO4 2883   3.761   6.354   4.874  0.0010 -0.1203  0.1020
  200POPC   GL1 2884   3.875   6.462   5.302  0.0487 -0.1870  0.0247
  200POPC   GL2 2885   3.499   6.364   5.354 -0.1336 -0.0456 -0.0668
  200POPC   C1A 2886   4.104   6.184   5.571 -0.0348 -0.3094 -0.1117
  200POPC   D2A 2887   4.429   5.985   5.939 -0.1218 -0.2936 -0.0476
  200POPC   C3A 2888   4.910   5.904   5.803  0.0302 -0.1135  0.0238
  200POPC   C4A 2889   5.251   6.115   5.833 -0.1009  0.4502 -0.2191
  200POPC   C1B 2890   3.217   6.325   5.611  0.1945 -0.0257  0.4688
  200POPC   C2B 2891   3.022   6.171   5.980  0.1079  0.0242 -0.0523
  200POPC   C3B 2892   2.953   6.026   6.361 -0.1026  0.0985  0.0840
  200POPC   C4B 2893   2.675   5.793   6.689  0.4716  0.1511 -0.1494
  201POPC   NC3 2894   2.014  10.196   4.418  0.0927 -0.2579  0.0056
  201POPC   PO4 2895   1.968   9.839   4.674 -0.1639 -0.0979  0.0227
  201POPC   GL1 2896   2.043   9.655   5.064  0.0902 -0.0900  0.0210
  201POPC   GL2 2897   1.833   9.396   4.853 -0.1115 -0.0714  0.0720
  201POPC   C1A 2898   1.911   9.844   5.470  0.0643  0.1677  0.1705
  201POPC   D2A 2899   1.528   9.845   5.741  0.1119  0.2117 -0.1419
  201POPC   C3A 2900   1.481   9.540   6.054  0.1125  0.1795 -0.1213
  201POPC   C4A 2901   1.493   9.349   6.511  0.2422 -0.0362 -0.1372
  201POPC   C1B 2902   1.780   9.320   5.299  0.0789  0.0738  0.0478
  201POPC   C2B 2903   1.792   9.393   5.646 -0.2218 -0.2265 -0.0296
  201POPC   C3B 2904   1.646   9.076   5.917  0.1927 -0.0117  0.0721
  201POPC   C4B 2905   1.396   8.779   5.847 -0.2644  0.1972 -0.0635
  202POPC   NC3 2906   9.066   3.199   5.149  0.1068 -0.1582  0.1310
  202POPC   PO4 2907   8.754   3.518   5.114  0.4078  0.3780 -0.1795
  202POPC   GL1 2908   8.766   3.282   5.541  0.0191 -0.0065  0.2319
  202POPC   GL2 2909   8.498   3.022   5.665  0.0015 -0.1635  0.0330
  202POPC   C1A 2910   8.886   3.159   5.962  0.2342  0.1114 -0.0794
  202POPC   D2A 2911   9.274   2.863   6.183  0.0474 -0.3712  0.1058
  202POPC   C3A 2912   9.404   3.081   6.479  0.1948  0.2859  0.0897
  202POPC   C4A 2913   9.326   3.190   6.845  0.1871 -0.1601 -0.0909
  202POPC   C1B 2914   8.201   3.268   5.875  0.3058 -0.0645 -0.0071
  202POPC   C2B 2915   7.857   3.391   6.118 -0.0459 -0.2856 -0.1657
  202POPC   C3B 2916   7.849   3.693   6.380  0.0550  0.1065  0.0570
  202POPC   C4B 2917   7.747   4.124   6.261 -0.1465  0.3868  0.1431
  203POPC   NC3 2918   0.973   5.183   4.498  0.1809  0.1274 -0.1055
  203POPC   PO4 2919   1.087   5.487   4.689 -0.1464 -0.1040 -0.3053
  203POPC   GL1 2920   0.861   5.444   5.052 -0.3145 -0.0626  0.2842
  203POPC   GL2 2921   1.057   5.474   5.271 -0.0766  0.1704 -0.2408
  203POPC   C1A 2922   0.619   5.680   5.309  0.0252  0.3759 -0.0779
  203POPC   D2A 2923   0.545   5.829   5.642  0.4149  0.0351  0.0004
  203POPC   C3A 2924   0.780   6.235   5.760 -0.0835 -0.4769 -0.0015
  203POPC   C4A 2925   1.019   6.639   5.904  0.0247  0.4645  0.2044
  203POPC   C1B 2926   1.002   5.695   5.743  0.1994 -0.3030 -0.1300
  203POPC   C2B 2927   0.772   5.683   6.076  0.0700  0.4500  0.0069
  203POPC   C3B 2928   0.557   6.066   6.244  0.2351  0.0147  0.0836
  203POPC   C4B 2929   0.277   6.301   6.528  0.1649 -0.0961 -0.1660
  204POPC   NC3 2930   4.902   2.327   5.105 -0.1090  0.4203  0.0177
  204POPC   PO4 2931   4.780   2.047   4.944 -0.1417  0.0301  0.1481
  204POPC   GL1 2932   4.563   1.876   5.390  0.2920 -0.0100  0.0784
  204POPC   GL2 2933   4.406   2.136   5.615  0.3681 -0.1649 -0.0513
  204POPC   C1A 2934   4.680   1.783   5.899  0.2090  0.2379  0.0908
  204POPC   D2A 2935   4.757   1.445   6.259 -0.1870 -0.1233  0.2870
  204POPC   C3A 2936   4.526   1.012   6.426  0.2527 -0.2438  0.3819
  204POPC   C4A 2937   4.146   0.809   6.538 -0.2158  0.4414 -0.0670
  204POPC   C1B 2938   4.466   2.299   5.950 -0.0178  0.2470  0.1968
  204POPC   C2B 2939   4.829   2.324   6.210 -0.0631 -0.0238 -0.1675
  204POPC   C3B 2940   4.839   2.577   6.616 -0.1970  0.2372 -0.5440
  204POPC   C4B 2941   4.759   3.068   6.567  0.2555 -0.0994  0.1937
  205POPC   NC3 2942   3.820   1.581   4.761 -0.0615 -0.1564  0.1090
  205POPC   PO4 2943   4.115   1.375   4.898  0.2689  0.2160 -0.4691
  205POPC   GL1 2944   4.108   1.444   5.284  0.1353  0.0002  0.2666
  205POPC   GL2 2945   4.088   1.220   5.541 -0.1581 -0.1738 -0.1959
  205POPC   C1A 2946   4.209   1.706   5.723  0.1526  0.3113 -0.0031
  205POPC   D2A 2947   4.166   1.860   6.100  0.3155 -0.2605  0.6323
  205POPC   C3A 2948   4.420   1.857   6.295 -0.2934 -0.0411 -0.1221
  205POPC   C4A 2949   4.402   1.644   6.649  0.0338  0.3006 -0.1119
  205POPC   C1B 2950   4.279   0.788   5.677  0.0716 -0.0621 -0.0411
  205POPC   C2B 2951   4.432   0.704   5.977  0.0265  0.1213 -0.1619
  205POPC   C3B 2952   4.472   0.424   6.330 -0.2528 -0.2555  0.1620
  205POPC   C4B 2953   4.746   0.042   6.521  0.0872  0.1859  0.1942
  206POPC   NC3 2954   1.834   1.367   4.737  0.4053  0.0517 -0.0106
  206POPC   PO4 2955   2.017   1.750   4.787  0.3002  0.3472 -0.2245
  206POPC   GL1 2956   2.065   1.744   5.200  0.0826  0.1505  0.1247
  206POPC   GL2 2957   1.839   1.585   5.460 -0.1450  0.0727 -0.0028
  206POPC   C1A 2958   2.006   2.057   5.530  0.1011  0.0180  0.0448
  206POPC   D2A 2959   2.017   2.163   6.035  0.0649  0.0723 -0.1467
  206POPC   C3A 2960   2.327   2.312   6.195 -0.2014  0.1629 -0.0712
  206POPC   C4A 2961   2.656   2.416   6.548  0.0744  0.1605 -0.0081
  206POPC   C1B 2962   1.934   1.687   5.901 -0.0360  0.0320  0.1707
  206POPC   C2B 2963   2.105   1.674   6.315  0.1314  0.0726 -0.1642
  206POPC   C3B 2964   2.364   1.496   6.666 -0.2400  0.4162  0.2252
  206POPC   C4B 2965   2.550   1.203   6.917 -0.2040  0.2507 -0.2529
  207POPC   NC3 2966   6.174   6.216   4.769 -0.2450  0.3452  0.1090
  207POPC   PO4 2967   5.779   6.490   4.770 -0.1132  0.2518  0.1601
  207POPC   GL1 2968   5.876   6.327   5.206  0.0018 -0.2512  0.0273
  207POPC   GL2 2969   5.754   6.213   5.410  0.1816  0.4511 -0.3741
  207POPC   C1A 2970   6.162   6.530   5.514  0.0623 -0.2764 -0.2334
  207POPC   D2A 2971   6.247   6.396   6.003  0.1229  0.0306 -0.0960
  207POPC   C3A 2972   6.060   6.554   6.423  0.2470  0.0429  0.0216
  207POPC   C4A 2973   5.688   6.233   6.746 -0.0814 -0.0412  0.2434
  207POPC   C1B 2974   5.895   6.077   5.828 -0.0859 -0.0758  0.0986
  207POPC   C2B 2975   6.076   5.710   6.094  0.1351  0.1561  0.1535
  207POPC   C3B 2976   6.382   5.555   6.282 -0.0986  0.0044 -0.2520
  207POPC   C4B 2977   6.709   5.611   6.623  0.1554  0.0033 -0.3114
  208POPC   NC3 2978   6.306   3.546   4.919  0.1466  0.1308 -0.0018
  208POPC   PO4 2979   6.788   3.540   4.785  0.0631  0.1634 -0.1299
  208POPC   GL1 2980   6.819   3.605   5.202  0.1257  0.3333 -0.0791
  208POPC   GL2 2981   6.859   3.455   5.471  0.1970 -0.0673  0.0250
  208POPC   C1A 2982   6.682   3.885   5.483  0.1473  0.1329 -0.2218
  208POPC   D2A 2983   6.795   4.077   5.869  0.0108  0.4214 -0.3099
  208POPC   C3A 2984   6.904   3.775   6.259  0.0853  0.3059 -0.1454
  208POPC   C4A 2985   6.958   3.491   6.507 -0.2952  0.3034 -0.2411
  208POPC   C1B 2986   7.083   3.669   5.763  0.1216  0.1725  0.0513
  208POPC   C2B 2987   7.361   3.698   6.087  0.1566  0.2080 -0.0058
  208POPC   C3B 2988   7.353   3.742   6.531 -0.0002  0.0549  0.0260
  208POPC   C4B 2989   7.449   3.692   6.950  0.1873  0.2178  0.2470
  209POPC   NC3 2990   8.372   1.415   5.124 -0.2277 -0.0570  0.1143
  209POPC   PO4 2991   8.096   1.789   5.178  0.2247 -0.0849 -0.2179
  209POPC   GL1 2992   8.101   1.574   5.574 -0.0527  0.0061  0.3100
  209POPC   GL2 2993   8.404   1.774   5.711 -0.2595  0.1900  0.1805
  209POPC   C1A 2994   8.119   1.566   6.096  0.1500 -0.1023  0.2107
  209POPC   D2A 2995   7.926   1.593   6.504  0.2829  0.1151 -0.1702
  209POPC   C3A 2996   7.935   1.266   6.829  0.4560  0.0103 -0.1159
  209POPC   C4A 2997   8.027   0.962   7.240 -0.0184  0.0323  0.0525
  209POPC   C1B 2998   8.518   1.898   6.180 -0.1614 -0.2068 -0.0428
  209POPC   C2B 2999   8.904   1.839   6.497  0.3086  0.0122 -0.0230
  209POPC   C3B 3000   9.092   2.061   6.889 -0.0744 -0.1589  0.0309
  209POPC   C4B 3001   8.884   2.300   7.032 -0.0867 -0.0229 -0.1512
  210POPC   NC3 3002   3.016   0.204   5.524 -0.0663 -0.0315  0.0623
  210POPC   PO4 3003   3.200   0.551   5.542 -0.2318  0.0021  0.3941
  210POPC   GL1 3004   3.072   0.644   5.922 -0.1250 -0.1326  0.2372
  210POPC   GL2 3005   3.126   0.324   6.026 -0.1166 -0.1859 -0.1344
  210POPC   C1A 3006   2.749   0.634   6.268 -0.1189 -0.1970 -0.0954
  210POPC   D2A 3007   2.687   0.222   6.399 -0.0815  0.0638  0.1245
  210POPC   C3A 3008   2.384  -0.002   6.673 -0.0508 -0.0644  0.1121
  210POPC   C4A 3009   2.154  -0.307   6.754 -0.3165  0.4423 -0.1087
  210POPC   C1B 3010   3.305   0.189   6.320  0.1940 -0.0782 -0.1597
  210POPC   C2B 3011   3.478   0.116   6.826  0.2917 -0.1415  0.2280
  210POPC   C3B 3012   3.224   0.045   7.252  0.1400 -0.1837  0.0848
  210POPC   C4B 3013   3.059   0.237   7.587 -0.1630  0.3818  0.2570
  211POPC   NC3 3014   1.115   0.965   4.344  0.0771 -0.0964  0.0180
  211POPC   PO4 3015   0.817   0.920   4.761 -0.0361  0.1809  0.1263
  211POPC   GL1 3016   0.964   0.635   5.133  0.1630  0.0114  0.0293
  211POPC   GL2 3017   0.955   0.666   5.502 -0.0042 -0.2757  0.0648
  211POPC   C1A 3018   0.513   0.443   5.291 -0.0355 -0.1124  0.0891
  211POPC   D2A 3019   0.261   0.137   5.522 -0.2752  0.0326  0.0160
  211POPC   C3A 3020   0.177   0.197   6.037  0.0498  0.2325  0.1431
  211POPC   C4A 3021  -0.241   0.275   6.340  0.2407  0.1559 -0.0903
  211POPC   C1B 3022   1.006   0.702   5.995 -0.2739  0.2882  0.1312
  211POPC   C2B 3023   1.071   0.732   6.478 -0.1023  0.0758  0.0021
  211POPC   C3B 3024   0.920   0.564   6.956 -0.0781  0.2791  0.0210
  211POPC   C4B 3025   0.865   0.406   7.413  0.1327  0.0089 -0.0339
  212POPC   NC3 3026   3.199   2.333   4.632  0.4512  0.0173  0.3890
  212POPC   PO4 3027   3.615   2.557   4.861 -0.0330 -0.0514  0.1037
  212POPC   GL1 3028   3.435   2.705   5.224 -0.1494 -0.0216  0.0064
  212POPC   GL2 3029   3.710   2.889   5.369  0.1011 -0.1857 -0.3507
  212POPC   C1A 3030   3.254   3.027   5.613  0.1343  0.3688  0.1609
  212POPC   D2A 3031   3.169   3.377   5.894 -0.2311 -0.3427 -0.2541
  212POPC   C3A 3032   3.403   3.547   6.194  0.0120  0.1309 -0.0009
  212POPC   C4A 3033   3.803   3.482   6.183  0.2482 -0.0174 -0.2397
  212POPC   C1B 3034   3.565   2.566   5.691  0.0871 -0.2524 -0.1291
  212POPC   C2B 3035   3.491   2.241   5.975  0.0502 -0.3565  0.3386
  212POPC   C3B 3036   3.561   1.761   5.947 -0.3516  0.0683 -0.2188
  212POPC   C4B 3037   3.813   1.505   5.973 -0.0104 -0.0257 -0.1237
  213POPC   NC3 3038   3.391   5.142   4.706  0.1359 -0.0088  0.1835
  213POPC   PO4 3039   3.163   4.788   4.519 -0.2817  0.1945  0.1915
  213POPC   GL1 3040   3.180   4.781   4.998 -0.2371 -0.2208 -0.0371
  213POPC   GL2 3041   3.358   4.961   5.191 -0.1394 -0.1145 -0.1680
  213POPC   C1A 3042   3.063   4.560   5.423  0.4548  0.0408 -0.0096
  213POPC   D2A 3043   2.837   4.205   5.564  0.4084 -0.0796  0.1391
  213POPC   C3A 3044   2.828   4.217   6.120  0.0633  0.0002  0.3742
  213POPC   C4A 3045   2.521   4.068   6.411 -0.1707 -0.2209 -0.3483
  213POPC   C1B 3046   3.501   4.940   5.631 -0.0130  0.3443  0.1789
  213POPC   C2B 3047   3.658   4.867   6.003 -0.2080  0.0685 -0.0532
  213POPC   C3B 3048   4.042   4.786   6.234  0.3243 -0.4385 -0.0959
  213POPC   C4B 3049   4.117   4.847   6.642  0.4362  0.0599  0.2960
  214POPC   NC3 3050   8.683   5.740   3.944 -0.2383  0.0809 -0.2137
  214POPC   PO4 3051   8.423   5.819   4.283  0.0458  0.0680  0.0371
  214POPC   GL1 3052   8.599   5.882   4.664  0.0462  0.2989  0.1541
  214POPC   GL2 3053   8.396   5.782   4.842  0.0882  0.2704  0.1865
  214POPC   C1A 3054   8.654   6.213   4.994  0.0581  0.2013  0.0556
  214POPC   D2A 3055   8.775   6.594   5.126  0.2335 -0.1717  0.1072
  214POPC   C3A 3056   9.011   6.722   4.923 -0.0643 -0.2885 -0.3342
  214POPC   C4A 3057   9.028   7.013   4.592 -0.0207 -0.3760 -0.2983
  214POPC   C1B 3058   8.571   5.740   5.260  0.0168  0.2876 -0.4392
  214POPC   C2B 3059   8.965   5.780   5.418 -0.0717 -0.1523 -0.1329
  214POPC   C3B 3060   9.192   6.016   5.700  0.1439  0.0021 -0.2531
  214POPC   C4B 3061   9.219   6.441   5.783  0.1233  0.0890 -0.0128
  215POPC   NC3 3062   6.778  10.283   5.190 -0.0350  0.2345  0.2284
  215POPC   PO4 3063   7.227  10.303   4.840 -0.5141  0.1881  0.0036
  215POPC   GL1 3064   7.253  10.173   5.268 -0.0536 -0.0188  0.1708
  215POPC   GL2 3065   7.523   9.976   5.196  0.1035 -0.0943 -0.1613
  215POPC   C1A 3066   7.209  10.044   5.675 -0.1004  0.2194  0.0271
  215POPC   D2A 3067   6.975   9.921   6.012  0.1053 -0.1071 -0.0174
  215POPC   C3A 3068   6.752  10.011   6.357 -0.0332 -0.1226  0.1716
  215POPC   C4A 3069   6.414   9.973   6.599  0.2367  0.0717 -0.0740
  215POPC   C1B 3070   7.605   9.715   5.461 -0.1452  0.4683 -0.0516
  215POPC   C2B 3071   7.628   9.254   5.563 -0.1055 -0.0693  0.1007
  215POPC   C3B 3072   7.867   9.125   5.949  0.1338 -0.1854  0.2422
  215POPC   C4B 3073   7.880   8.790   6.223  0.1277 -0.0294  0.1782
  216POPC   NC3 3074   9.503   1.525   4.996 -0.1712  0.1930 -0.1112
  216POPC   PO4 3075   9.702   1.244   4.747 -0.0773 -0.0633  0.3495
  216POPC   GL1 3076   9.787   0.926   5.021  0.0762  0.1951  0.1496
  216POPC   GL2 3077   9.617   0.743   5.289  0.3040  0.3096 -0.0225
  216POPC   C1A 3078   9.982   0.524   5.129  0.0818  0.2489 -0.3674
  216POPC   D2A 3079  10.148   0.059   5.196 -0.0497 -0.0786  0.1200
  216POPC   C3A 3080   9.957  -0.215   5.446  0.1051 -0.2578 -0.2090
  216POPC   C4A 3081   9.559  -0.590   5.498  0.2901 -0.1845  0.2068
  216POPC   C1B 3082   9.551   0.429   5.669 -0.2149  0.0138 -0.0027
  216POPC   C2B 3083   9.635   0.164   6.118  0.2256 -0.1990 -0.1992
  216POPC   C3B 3084   9.772   0.197   6.595 -0.2741  0.2035 -0.1019
  216POPC   C4B 3085   9.546   0.497   6.843 -0.1180 -0.0006  0.2676
  217POPC   NC3 3086   2.291   2.480   4.627 -0.0961  0.1377 -0.3004
  217POPC   PO4 3087   1.971   2.714   4.992 -0.3027 -0.0638 -0.0781
  217POPC   GL1 3088   1.812   2.644   5.379 -0.2052 -0.2511  0.1381
  217POPC   GL2 3089   1.782   2.919   5.496 -0.2955 -0.1395  0.1446
  217POPC   C1A 3090   1.622   2.580   5.823  0.0119  0.4153 -0.1338
  217POPC   D2A 3091   1.841   2.711   6.242 -0.2259 -0.2215 -0.2021
  217POPC   C3A 3092   2.298   2.831   6.110 -0.1465 -0.2478  0.0923
  217POPC   C4A 3093   2.454   3.291   6.056 -0.0586  0.0372  0.1374
  217POPC   C1B 3094   2.108   2.577   5.723  0.2318  0.1097 -0.1874
  217POPC   C2B 3095   2.585   2.448   5.778 -0.0367 -0.2966  0.4569
  217POPC   C3B 3096   2.770   2.892   5.962 -0.4070  0.0995  0.1881
  217POPC   C4B 3097   2.926   3.228   6.315  0.1280 -0.1329 -0.1696
  218POPC   NC3 3098   4.502   3.148   4.674  0.1497 -0.0528 -0.1618
  218POPC   PO4 3099   4.640   2.780   4.968 -0.0163  0.2662  0.0925
  218POPC   GL1 3100   4.544   2.733   5.415  0.2665 -0.0580 -0.2858
  218POPC   GL2 3101   4.876   2.772   5.478  0.0875 -0.1217  0.1158
  218POPC   C1A 3102   4.283   2.729   5.772  0.0983  0.1567  0.1303
  218POPC   D2A 3103   3.935   2.649   6.021 -0.0477  0.1545  0.1842
  218POPC   C3A 3104   4.053   2.330   6.346 -0.1950  0.0938 -0.1910
  218POPC   C4A 3105   4.046   2.008   6.623 -0.0458 -0.1797  0.2875
  218POPC   C1B 3106   4.764   2.828   5.858 -0.0667  0.2667  0.3636
  218POPC   C2B 3107   4.489   2.823   6.184 -0.2723 -0.1179  0.2120
  218POPC   C3B 3108   4.344   2.745   6.524  0.1096 -0.2675 -0.3246
  218POPC   C4B 3109   3.981   2.923   6.837 -0.0409 -0.2024  0.1002
  219POPC   NC3 3110   3.851   9.743   4.847 -0.0137 -0.2103  0.0051
  219POPC   PO4 3111   3.625  10.120   5.115  0.1367 -0.0158  0.2293
  219POPC   GL1 3112   3.380  10.045   5.415 -0.0028 -0.4065 -0.1379
  219POPC   GL2 3113   3.232  10.269   5.704  0.0382 -0.0242 -0.2656
  219POPC   C1A 3114   3.466   9.743   5.641 -0.0830  0.0533  0.2267
  219POPC   D2A 3115   3.561   9.667   6.016  0.2489 -0.1423  0.3082
  219POPC   C3A 3116   3.668   9.393   6.349 -0.0255  0.2253 -0.2162
  219POPC   C4A 3117   3.764   9.114   6.580 -0.1307 -0.1078 -0.0503
  219POPC   C1B 3118   3.184  10.090   6.052 -0.0778 -0.3300 -0.0102
  219POPC   C2B 3119   3.243   9.937   6.362  0.2953  0.1122 -0.0792
  219POPC   C3B 3120   3.500   9.775   6.594 -0.0679  0.0993  0.0202
  219POPC   C4B 3121   3.822   9.725   6.850 -0.1365 -0.0018 -0.3252
  220POPC   NC3 3122   9.592   7.828   2.122  0.1158  0.1249 -0.0663
  220POPC   PO4 3123   9.674   8.197   2.500  0.0601 -0.1388  0.3573
  220POPC   GL1 3124   9.866   8.035   2.924  0.0308 -0.0739 -0.2870
  220POPC   GL2 3125   9.918   8.234   3.158 -0.2081  0.3927  0.3081
  220POPC   C1A 3126   9.801   7.745   3.335 -0.1213 -0.0576  0.1584
  220POPC   D2A 3127   9.614   7.338   3.604 -0.1010 -0.0819  0.4048
  220POPC   C3A 3128   9.472   7.359   4.009 -0.1062  0.1879 -0.1302
  220POPC   C4A 3129   9.354   7.722   4.285 -0.1384 -0.2404  0.1813
  220POPC   C1B 3130  10.030   8.200   3.514 -0.3712 -0.0991 -0.0194
  220POPC   C2B 3131  10.211   7.958   3.849 -0.1195  0.0146  0.0733
  220POPC   C3B 3132  10.521   8.134   4.229  0.2734 -0.2275 -0.1224
  220POPC   C4B 3133  10.449   8.108   4.635 -0.2295  0.2966 -0.1166
  221POPC   NC3 3134   2.613   6.857   4.528  0.0016 -0.0825  0.0953
  221POPC   PO4 3135   2.841   6.952   4.938 -0.2696 -0.1762  0.0644
  221POPC   GL1 3136   2.616   7.056   5.310 -0.2159 -0.0131  0.1694
  221POPC   GL2 3137   2.292   7.088   5.267  0.4088  0.3605  0.1140
  221POPC   C1A 3138   2.426   6.955   5.740  0.0173 -0.1499 -0.1880
  221POPC   D2A 3139   2.415   6.834   6.114  0.3724  0.2127 -0.2106
  221POPC   C3A 3140   2.580   7.217   6.448  0.1781 -0.1600 -0.3101
  221POPC   C4A 3141   2.456   7.593   6.286 -0.0073 -0.2247  0.0299
  221POPC   C1B 3142   1.919   7.066   5.637  0.0438 -0.1130  0.1670
  221POPC   C2B 3143   1.993   7.102   6.094 -0.1389 -0.2439 -0.2821
  221POPC   C3B 3144   2.109   6.843   6.490 -0.3048  0.0681 -0.1866
  221POPC   C4B 3145   2.279   6.539   6.667 -0.1291 -0.0451 -0.1568
  222POPC   NC3 3146   7.698   9.983   4.082  0.1661  0.0071 -0.3894
  222POPC   PO4 3147   7.515   9.594   4.289 -0.1181  0.0113  0.1222
  222POPC   GL1 3148   7.617   9.423   4.658  0.2037 -0.3034  0.0286
  222POPC   GL2 3149   7.492   9.483   4.931 -0.0737  0.3780  0.2253
  222POPC   C1A 3150   7.734   8.929   4.702  0.0792  0.1499 -0.0585
  222POPC   D2A 3151   7.731   8.491   4.917  0.0661 -0.3228  0.3233
  222POPC   C3A 3152   8.141   8.490   4.928 -0.1086 -0.1971  0.1297
  222POPC   C4A 3153   8.569   8.349   5.164  0.0494 -0.0534  0.4603
  222POPC   C1B 3154   7.947   9.399   5.082 -0.1693 -0.2977 -0.1596
  222POPC   C2B 3155   8.301   9.457   5.423 -0.3789  0.2288 -0.2230
  222POPC   C3B 3156   8.394   9.173   5.746 -0.2370  0.0708 -0.1981
  222POPC   C4B 3157   8.332   8.764   5.941  0.2231  0.2279 -0.0597
  223POPC   NC3 3158   5.032   2.770   4.357 -0.3846 -0.1312  0.1904
  223POPC   PO4 3159   5.072   2.959   4.743  0.1140 -0.1211  0.1524
  223POPC   GL1 3160   4.975   3.325   5.041  0.1794  0.1411  0.0504
  223POPC   GL2 3161   5.019   3.199   5.347  0.2455  0.1187  0.2061
  223POPC   C1A 3162   4.881   3.663   5.389  0.2184  0.3465 -0.3776
  223POPC   D2A 3163   5.125   3.950   5.686 -0.0697  0.0632 -0.2226
  223POPC   C3A 3164   5.234   3.697   6.175 -0.0629 -0.0582  0.0218
  223POPC   C4A 3165   5.215   3.846   6.687  0.1080  0.1313 -0.1083
  223POPC   C1B 3166   5.180   3.108   5.679  0.2225  0.0007 -0.3453
  223POPC   C2B 3167   5.526   3.101   5.935 -0.2667  0.0824 -0.1634
  223POPC   C3B 3168   5.659   3.000   6.349  0.2025  0.1848  0.3739
  223POPC   C4B 3169   5.521   2.651   6.714 -0.1034  0.2247 -0.0475
  224POPC   NC3 3170   6.024   2.625   4.921  0.1571  0.2576  0.1274
  224POPC   PO4 3171   6.378   2.435   4.942  0.2288  0.1816  0.2387
  224POPC   GL1 3172   6.431   2.654   5.277  0.1581 -0.1118  0.1391
  224POPC   GL2 3173   6.182   2.788   5.428  0.2094  0.2581 -0.2481
  224POPC   C1A 3174   6.586   2.511   5.734  0.1433  0.0739  0.3266
  224POPC   D2A 3175   6.751   2.269   5.938 -0.0172 -0.0041  0.3861
  224POPC   C3A 3176   6.887   1.890   6.060 -0.0966  0.1741  0.2277
  224POPC   C4A 3177   6.683   1.461   5.994  0.1219  0.2105  0.0565
  224POPC   C1B 3178   6.317   2.972   5.783 -0.2145  0.1185  0.1837
  224POPC   C2B 3179   6.094   3.220   6.114  0.0179  0.1037 -0.2259
  224POPC   C3B 3180   5.924   3.382   6.526  0.2042  0.2191 -0.1218
  224POPC   C4B 3181   6.056   3.520   6.952 -0.2947 -0.0563  0.1124
  225POPC   NC3 3182   7.117   3.220   5.102 -0.1062 -0.0168 -0.2382
  225POPC   PO4 3183   7.443   3.386   4.783  0.0004  0.2029 -0.0883
  225POPC   GL1 3184   7.542   3.527   5.174 -0.0123  0.0649 -0.1021
  225POPC   GL2 3185   7.404   3.700   5.260 -0.2437 -0.0815 -0.3678
  225POPC   C1A 3186   7.596   3.461   5.694 -0.0128  0.0896  0.1357
  225POPC   D2A 3187   7.990   3.795   5.885  0.2271  0.1832 -0.2265
  225POPC   C3A 3188   8.281   3.707   6.118 -0.0145 -0.1753  0.1708
  225POPC   C4A 3189   8.615   3.536   6.348 -0.2583 -0.2089 -0.3826
  225POPC   C1B 3190   7.608   3.934   5.641  0.1009 -0.0873 -0.0368
  225POPC   C2B 3191   7.390   4.203   5.925 -0.1317  0.3415 -0.0375
  225POPC   C3B 3192   7.160   4.250   6.141  0.2965 -0.2133  0.2734
  225POPC   C4B 3193   7.174   4.230   6.591 -0.0673  0.4144 -0.2417
  226POPC   NC3 3194   0.415  10.177   3.162  0.0368 -0.3096  0.0628
  226POPC   PO4 3195   0.173  10.135   3.652  0.0764  0.0042 -0.0828
  226POPC   GL1 3196   0.170   9.887   4.036 -0.1196 -0.0487  0.3458
  226POPC   GL2 3197   0.484   9.974   4.185  0.0069  0.0209 -0.0242
  226POPC   C1A 3198  -0.090   9.764   4.348  0.0931 -0.2584 -0.5237
  226POPC   D2A 3199  -0.175  10.149   4.558 -0.0041  0.2773 -0.3111
  226POPC   C3A 3200  -0.111   9.999   5.006  0.0786 -0.1291  0.0399
  226POPC   C4A 3201   0.084   9.756   5.417  0.0874  0.0424  0.2370
  226POPC   C1B 3202   0.360  10.067   4.587  0.0656  0.1130 -0.1874
  226POPC   C2B 3203   0.660  10.232   4.945 -0.0718 -0.1099  0.2830
  226POPC   C3B 3204   0.558  10.188   5.387  0.0282 -0.0017 -0.0768
  226POPC   C4B 3205   0.337  10.123   5.811  0.1189  0.0612 -0.0647
  227POPC   NC3 3206   0.336   2.632   4.797 -0.2181 -0.2226 -0.0292
  227POPC   PO4 3207   0.168   2.671   5.182 -0.0581  0.0166 -0.3110
  227POPC   GL1 3208   0.323   2.498   5.609  0.0842 -0.1562 -0.3224
  227POPC   GL2 3209   0.485   2.663   5.737 -0.2067  0.1905 -0.3909
  227POPC   C1A 3210   0.102   2.271   5.873  0.0368  0.3446  0.0664
  227POPC   D2A 3211  -0.225   2.005   5.882  0.0014 -0.0121 -0.1513
  227POPC   C3A 3212  -0.224   1.586   6.120  0.0604 -0.0631 -0.1924
  227POPC   C4A 3213  -0.098   1.557   6.575  0.2670  0.0905 -0.0679
  227POPC   C1B 3214   0.487   2.567   6.200  0.1874 -0.1334  0.2771
  227POPC   C2B 3215   0.417   2.304   6.604  0.0463  0.0101  0.0842
  227POPC   C3B 3216   0.102   2.350   6.934 -0.2051 -0.1661  0.1695
  227POPC   C4B 3217  -0.090   2.066   7.309  0.2713  0.0845 -0.0713
  228POPC   NC3 3218   6.423   5.974   4.298  0.0705  0.0746  0.0214
  228POPC   PO4 3219   6.847   5.936   4.456  0.0970 -0.3751  0.1029
  228POPC   GL1 3220   7.100   6.051   4.750  0.0083  0.1436 -0.2348
  228POPC   GL2 3221   6.965   5.849   4.961 -0.0515 -0.1593 -0.0596
  228POPC   C1A 3222   7.221   6.346   5.076  0.2574 -0.3675 -0.0529
  228POPC   D2A 3223   7.563   6.375   5.418  0.0307 -0.0292  0.1564
  228POPC   C3A 3224   7.953   6.196   5.566 -0.3496 -0.0560 -0.1669
  228POPC   C4A 3225   8.307   6.119   5.547  0.0402  0.2489  0.0763
  228POPC   C1B 3226   7.007   5.639   5.328  0.0230 -0.1158 -0.1045
  228POPC   C2B 3227   6.870   5.807   5.728 -0.1813 -0.2792 -0.1709
  228POPC   C3B 3228   6.828   5.541   6.122  0.1677  0.2445 -0.0643
  228POPC   C4B 3229   6.979   5.288   6.406  0.1259 -0.2706 -0.0302
  229POPC   NC3 3230   1.019   3.762   5.141 -0.4882 -0.3381 -0.2593
  229POPC   PO4 3231   1.418   4.063   4.971 -0.2949 -0.2893  0.1061
  229POPC   GL1 3232   1.247   4.199   5.402 -0.2182  0.0500 -0.0569
  229POPC   GL2 3233   0.956   4.374   5.466  0.0656  0.1384 -0.2125
  229POPC   C1A 3234   1.313   4.279   5.864 -0.0517  0.0057  0.0356
  229POPC   D2A 3235   1.504   4.423   6.290  0.1308 -0.2461 -0.1188
  229POPC   C3A 3236   1.342   4.615   6.632 -0.0552 -0.0863  0.2448
  229POPC   C4A 3237   1.022   4.907   6.662 -0.1050 -0.0068 -0.1742
  229POPC   C1B 3238   0.874   4.646   5.839  0.0099  0.0655 -0.0856
  229POPC   C2B 3239   0.654   4.524   6.188  0.2438 -0.1993  0.0047
  229POPC   C3B 3240   0.665   4.589   6.598 -0.0818 -0.0399 -0.0714
  229POPC   C4B 3241   0.327   4.577   6.877 -0.1346 -0.0899  0.3005
  230POPC   NC3 3242   1.593   3.017   5.003  0.0972  0.1557  0.2769
  230POPC   PO4 3243   1.241   2.850   5.334  0.1034  0.2174 -0.1949
  230POPC   GL1 3244   1.234   2.900   5.714  0.1782 -0.0280 -0.0177
  230POPC   GL2 3245   1.045   3.020   5.908  0.2422  0.0203  0.1335
  230POPC   C1A 3246   1.528   3.099   6.071  0.1691  0.0611  0.0771
  230POPC   D2A 3247   1.612   3.059   6.554 -0.0078  0.0385  0.2192
  230POPC   C3A 3248   1.936   2.989   6.800  0.3863 -0.0580 -0.1506
  230POPC   C4A 3249   1.868   2.985   7.300 -0.0781 -0.1498  0.0748
  230POPC   C1B 3250   1.118   3.403   6.207 -0.1071  0.1749 -0.3376
  230POPC   C2B 3251   1.328   3.605   6.539  0.0786  0.0481  0.0789
  230POPC   C3B 3252   1.341   3.968   6.546  0.1019  0.0691 -0.0803
  230POPC   C4B 3253   1.008   4.257   6.433 -0.0530  0.1000  0.2015
  231POPC   NC3 3254   1.495   0.817   4.683  0.3682 -0.3510 -0.2173
  231POPC   PO4 3255   1.293   1.189   4.739  0.1134 -0.1481 -0.0079
  231POPC   GL1 3256   1.102   1.110   5.197 -0.0062  0.3396 -0.1188
  231POPC   GL2 3257   1.325   0.966   5.392 -0.1014  0.3015  0.0310
  231POPC   C1A 3258   1.036   1.188   5.703 -0.1474 -0.2531 -0.0647
  231POPC   D2A 3259   1.152   1.174   6.112 -0.0672  0.2240  0.0481
  231POPC   C3A 3260   0.909   1.192   6.380 -0.0435 -0.2024  0.0610
  231POPC   C4A 3261   0.716   0.998   6.749 -0.0676  0.0517 -0.2948
  231POPC   C1B 3262   1.481   0.856   5.825  0.1798  0.0703 -0.0627
  231POPC   C2B 3263   1.456   0.583   6.161 -0.1241  0.2568  0.2094
  231POPC   C3B 3264   1.402   0.387   6.481 -0.1191 -0.0313 -0.0259
  231POPC   C4B 3265   1.361   0.466   6.918 -0.2284 -0.4038  0.1286
  232POPC   NC3 3266   7.134   5.465   4.648  0.2228  0.0941  0.2151
  232POPC   PO4 3267   7.532   5.741   4.614 -0.2581 -0.1343 -0.1702
  232POPC   GL1 3268   7.529   5.668   5.032  0.1827  0.1163 -0.1563
  232POPC   GL2 3269   7.479   5.279   5.112 -0.1496  0.1397  0.0661
  232POPC   C1A 3270   7.525   5.714   5.513 -0.0648  0.2948  0.1735
  232POPC   D2A 3271   7.305   5.574   5.911 -0.0155  0.3931 -0.0903
  232POPC   C3A 3272   7.430   5.744   6.305  0.2024  0.3789  0.1254
  232POPC   C4A 3273   7.634   5.501   6.695  0.2652  0.0384 -0.2837
  232POPC   C1B 3274   7.289   5.257   5.466 -0.2328 -0.0097 -0.2439
  232POPC   C2B 3275   7.427   4.805   5.679  0.0617  0.0184  0.3479
  232POPC   C3B 3276   7.274   4.461   5.447  0.1235 -0.0307  0.2228
  232POPC   C4B 3277   7.170   4.126   5.508 -0.1846  0.0088  0.0133
  233POPC   NC3 3278   6.350   8.991   4.596  0.2118  0.4071 -0.4138
  233POPC   PO4 3279   5.858   9.137   4.609  0.2031  0.0958  0.0850
  233POPC   GL1 3280   5.915   8.858   4.900  0.0907 -0.1139 -0.2059
  233POPC   GL2 3281   6.095   8.617   4.969 -0.3921  0.2044  0.0947
  233POPC   C1A 3282   5.683   8.653   5.345 -0.1375 -0.1766  0.0182
  233POPC   D2A 3283   5.526   8.603   5.813  0.1730  0.2067 -0.0108
  233POPC   C3A 3284   5.756   8.416   6.167 -0.0526 -0.0645  0.0192
  233POPC   C4A 3285   5.808   8.139   6.579  0.1091 -0.2553  0.3230
  233POPC   C1B 3286   6.282   8.679   5.417  0.2212 -0.0188  0.2351
  233POPC   C2B 3287   6.468   8.806   5.818 -0.2536 -0.2360 -0.2077
  233POPC   C3B 3288   6.261   8.756   6.186 -0.2742 -0.0855  0.1215
  233POPC   C4B 3289   6.050   8.668   6.518  0.0859  0.1827  0.3417
  234POPC   NC3 3290  10.047   1.382   5.066 -0.1221  0.0354  0.2959
  234POPC   PO4 3291  10.428   1.370   4.922  0.0660  0.0649  0.0836
  234POPC   GL1 3292  10.483   1.393   5.348  0.1262  0.0951  0.0404
  234POPC   GL2 3293  10.322   1.642   5.594  0.2461  0.0756 -0.2030
  234POPC   C1A 3294  10.497   1.104   5.682 -0.0773  0.1872  0.0274
  234POPC   D2A 3295  10.352   1.121   6.110 -0.1823 -0.0780  0.2196
  234POPC   C3A 3296  10.207   0.877   6.374  0.0216 -0.0164  0.0879
  234POPC   C4A 3297  10.021   0.719   6.688  0.2351  0.1719 -0.2167
  234POPC   C1B 3298  10.121   1.349   5.742  0.0448  0.0331 -0.0990
  234POPC   C2B 3299   9.888   1.264   6.173 -0.0566 -0.3092 -0.1546
  234POPC   C3B 3300  10.010   1.249   6.605  0.0137 -0.1712 -0.0008
  234POPC   C4B 3301  10.143   1.168   7.049  0.1051 -0.0176  0.1025
  235POPC   NC3 3302   4.950   6.892   4.997  0.1355  0.3263  0.2788
  235POPC   PO4 3303   4.799   7.267   5.069 -0.1020 -0.2979  0.1220
  235POPC   GL1 3304   4.826   7.521   5.449 -0.3623 -0.2045 -0.1652
  235POPC   GL2 3305   5.114   7.491   5.432 -0.1330 -0.1915  0.1282
  235POPC   C1A 3306   4.891   7.858   5.773 -0.0907 -0.0283  0.0765
  235POPC   D2A 3307   4.960   7.880   6.260  0.1953  0.2353 -0.0692
  235POPC   C3A 3308   5.393   7.900   6.407 -0.0426  0.1075  0.2342
  235POPC   C4A 3309   5.838   7.877   6.070 -0.0315 -0.3047  0.0051
  235POPC   C1B 3310   5.417   7.631   5.876 -0.1368  0.0221 -0.1420
  235POPC   C2B 3311   5.610   7.419   6.178 -0.3606 -0.0047 -0.0190
  235POPC   C3B 3312   5.641   7.440   6.587  0.0906  0.1789  0.2031
  235POPC   C4B 3313   5.679   7.118   6.988 -0.0010  0.1419  0.2723
  236POPC   NC3 3314   6.920   1.777   4.937  0.1371  0.2580  0.2754
  236POPC   PO4 3315   6.513   1.857   4.936 -0.0408 -0.2140 -0.1344
  236POPC   GL1 3316   6.673   1.797   5.388 -0.1684 -0.2392  0.1657
  236POPC   GL2 3317   6.390   1.627   5.519  0.0406 -0.0601 -0.2757
  236POPC   C1A 3318   7.053   1.850   5.608  0.1620 -0.0103 -0.2208
  236POPC   D2A 3319   7.181   1.537   5.957 -0.2045  0.1400  0.1575
  236POPC   C3A 3320   6.927   1.531   6.437 -0.2934 -0.3813  0.1927
  236POPC   C4A 3321   6.718   1.372   6.806  0.3786  0.1113 -0.0576
  236POPC   C1B 3322   6.250   1.270   5.798 -0.1812  0.3816  0.1646
  236POPC   C2B 3323   6.102   0.975   6.170 -0.1561 -0.2535 -0.0540
  236POPC   C3B 3324   6.094   0.987   6.629 -0.1257  0.1314  0.0778
  236POPC   C4B 3325   6.258   0.714   6.907  0.0969  0.2248 -0.0849
  237POPC   NC3 3326   7.732   7.297   3.192  0.4320 -0.3143  0.1171
  237POPC   PO4 3327   7.758   7.414   3.629  0.0330  0.0245  0.0575
  237POPC   GL1 3328   7.849   7.559   3.999  0.1089  0.1959 -0.0380
  237POPC   GL2 3329   7.643   7.455   4.314  0.1125 -0.1958 -0.0452
  237POPC   C1A 3330   8.090   7.607   4.397 -0.2060  0.3253 -0.2035
  237POPC   D2A 3331   8.312   7.635   4.800 -0.2019 -0.1455 -0.1070
  237POPC   C3A 3332   8.235   7.525   5.309  0.0761  0.2880  0.1075
  237POPC   C4A 3333   8.143   7.863   5.655 -0.2413 -0.3250 -0.0824
  237POPC   C1B 3334   7.646   7.818   4.471  0.1956  0.0707  0.0382
  237POPC   C2B 3335   7.983   8.074   4.703 -0.0519 -0.0181  0.1435
  237POPC   C3B 3336   8.364   8.089   4.664  0.2230 -0.2553  0.4296
  237POPC   C4B 3337   8.696   7.897   4.581 -0.3058 -0.2063  0.0101
  238POPC   NC3 3338   6.407   0.566   4.988 -0.6065  0.0620  0.1246
  238POPC   PO4 3339   6.481   0.222   5.170 -0.2130  0.2287 -0.0560
  238POPC   GL1 3340   6.365  -0.100   5.459  0.1281 -0.1817 -0.1629
  238POPC   GL2 3341   6.491  -0.235   5.745 -0.0229 -0.1542  0.1248
  238POPC   C1A 3342   5.940  -0.181   5.698 -0.4484 -0.0837  0.0825
  238POPC   D2A 3343   5.592  -0.401   5.785 -0.1684 -0.0642  0.2867
  238POPC   C3A 3344   5.479  -0.408   6.265  0.0381 -0.1689 -0.1806
  238POPC   C4A 3345   5.496  -0.452   6.666  0.3965  0.2037  0.1409
  238POPC   C1B 3346   6.512  -0.098   6.098 -0.2570  0.0100  0.0445
  238POPC   C2B 3347   6.530   0.022   6.493  0.2415  0.1238 -0.0264
  238POPC   C3B 3348   6.681   0.284   6.776  0.0763 -0.0518 -0.2425
  238POPC   C4B 3349   6.959   0.278   7.082 -0.0969  0.1627  0.1195
  239POPC   NC3 3350   7.994   3.495   4.755  0.0006 -0.0468 -0.2141
  239POPC   PO4 3351   8.214   3.453   5.058 -0.1166 -0.1055  0.0824
  239POPC   GL1 3352   8.344   3.586   5.422  0.1596  0.3804  0.1402
  239POPC   GL2 3353   8.335   3.924   5.474 -0.1980 -0.1583 -0.3402
  239POPC   C1A 3354   8.657   3.661   5.794 -0.0608  0.0910  0.1021
  239POPC   D2A 3355   8.894   3.868   5.975 -0.3631 -0.0671  0.0281
  239POPC   C3A 3356   8.798   3.980   6.289  0.0242 -0.1639  0.3248
  239POPC   C4A 3357   8.997   4.066   6.626 -0.2854  0.0093  0.0972
  239POPC   C1B 3358   8.377   4.125   5.884  0.0957  0.3147  0.1745
  239POPC   C2B 3359   8.279   4.166   6.315 -0.0597  0.1318 -0.1252
  239POPC   C3B 3360   8.492   4.033   6.702 -0.0351 -0.0730 -0.0048
  239POPC   C4B 3361   8.536   3.679   6.902  0.0696  0.1948  0.2680
  240POPC   NC3 3362  10.205   1.855   5.135  0.2551 -0.1420  0.1232
  240POPC   PO4 3363   9.821   1.905   5.030  0.0726 -0.0358  0.0297
  240POPC   GL1 3364   9.803   1.593   5.479 -0.2269  0.0966  0.1289
  240POPC   GL2 3365   9.668   1.302   5.426 -0.0605  0.0365  0.0127
  240POPC   C1A 3366   9.828   1.673   5.911 -0.3532  0.0274  0.0130
  240POPC   D2A 3367   9.862   2.087   6.165  0.0635  0.0458  0.0313
  240POPC   C3A 3368  10.266   2.080   6.404  0.2519 -0.0481 -0.1987
  240POPC   C4A 3369  10.643   1.881   6.226  0.3149  0.1031 -0.1686
  240POPC   C1B 3370   9.674   1.127   5.763 -0.0403 -0.0125  0.0401
  240POPC   C2B 3371   9.348   0.894   6.013 -0.2363  0.2135 -0.0888
  240POPC   C3B 3372   9.236   0.515   6.309 -0.0669  0.0422  0.2298
  240POPC   C4B 3373   8.911   0.158   6.528 -0.1299  0.3191  0.2177
  241POPC   NC3 3374   8.919   6.890   3.555  0.0492 -0.1815  0.3236
  241POPC   PO4 3375   9.412   6.761   3.502  0.0053  0.2032 -0.2623
  241POPC   GL1 3376   9.514   6.866   3.923  0.2061 -0.0420  0.4698
  241POPC   GL2 3377   9.838   6.936   4.026 -0.0858 -0.1935 -0.2449
  241POPC   C1A 3378   9.420   6.983   4.336 -0.2814 -0.2202 -0.2560
  241POPC   D2A 3379   9.578   6.950   4.824 -0.0257  0.0755 -0.1606
  241POPC   C3A 3380   9.733   7.169   5.200 -0.0302 -0.0823 -0.3348
  241POPC   C4A 3381  10.178   7.243   5.345 -0.1408 -0.1639 -0.0735
  241POPC   C1B 3382   9.846   7.194   4.447 -0.0276 -0.2926 -0.2336
  241POPC   C2B 3383   9.505   7.403   4.675  0.2532 -0.0562 -0.1777
  241POPC   C3B 3384   9.283   7.211   5.097  0.2439 -0.1555 -0.1081
  241POPC   C4B 3385   9.103   7.473   5.364  0.0935  0.1975  0.2233
  242POPC   NC3 3386   9.861   4.464   4.669 -0.0011  0.1823 -0.0786
  242POPC   PO4 3387  10.263   4.265   4.924  0.0674 -0.3200 -0.0881
  242POPC   GL1 3388  10.267   4.550   5.364  0.1479 -0.0786  0.1942
  242POPC   GL2 3389  10.367   4.840   5.422  0.1649  0.1301 -0.0548
  242POPC   C1A 3390  10.104   4.621   5.805  0.0318 -0.2864  0.0658
  242POPC   D2A 3391  10.148   4.577   6.177 -0.0146  0.1855 -0.1963
  242POPC   C3A 3392  10.083   4.261   6.485 -0.0572  0.5902 -0.2300
  242POPC   C4A 3393  10.302   4.057   6.777 -0.3811  0.2536 -0.2270
  242POPC   C1B 3394   9.998   5.079   5.682  0.2142 -0.0817 -0.2160
  242POPC   C2B 3395  10.080   5.561   5.656  0.1138  0.3907 -0.0031
  242POPC   C3B 3396  10.066   6.011   5.777  0.1302  0.0569 -0.0558
  242POPC   C4B 3397  10.327   6.421   5.656 -0.1575 -0.1563 -0.1003
  243POPC   NC3 3398   8.956   0.260   4.606 -0.1562  0.0354  0.1580
  243POPC   PO4 3399   8.605   0.470   4.445 -0.1742 -0.0338  0.0545
  243POPC   GL1 3400   8.507   0.238   4.836  0.0399 -0.2514 -0.1039
  243POPC   GL2 3401   8.702   0.412   5.102 -0.1642 -0.0030 -0.1218
  243POPC   C1A 3402   8.323  -0.106   5.057  0.0278 -0.1017  0.2628
  243POPC   D2A 3403   8.369  -0.193   5.409 -0.0054 -0.0472 -0.0352
  243POPC   C3A 3404   8.147  -0.359   5.809 -0.0185 -0.0473  0.0355
  243POPC   C4A 3405   7.784  -0.575   6.044  0.2176 -0.1214 -0.3086
  243POPC   C1B 3406   8.689   0.199   5.542  0.1540 -0.1751  0.1291
  243POPC   C2B 3407   8.577  -0.079   5.867  0.3756  0.4118 -0.0223
  243POPC   C3B 3408   8.574  -0.284   6.115  0.0232 -0.2475  0.1610
  243POPC   C4B 3409   8.593  -0.434   6.536  0.1450 -0.1099 -0.2247
  244POPC   NC3 3410   3.175   7.267   5.463 -0.2732  0.1423 -0.2123
  244POPC   PO4 3411   3.250   6.879   5.238 -0.2177  0.3130  0.2113
  244POPC   GL1 3412   3.305   6.780   5.617 -0.0047  0.1019 -0.2649
  244POPC   GL2 3413   3.722   6.814   5.593 -0.0108 -0.2468 -0.0117
  244POPC   C1A 3414   3.387   6.703   6.050  0.0373 -0.2798  0.1727
  244POPC   D2A 3415   3.565   6.409   6.290 -0.1729  0.0923  0.0096
  244POPC   C3A 3416   3.317   6.222   6.626  0.1677  0.4127  0.0581
  244POPC   C4A 3417   3.256   6.257   7.136  0.1914 -0.2151  0.2406
  244POPC   C1B 3418   3.741   6.448   5.829  0.0940  0.2595 -0.0084
  244POPC   C2B 3419   3.963   6.175   6.089  0.0505  0.0983 -0.2212
  244POPC   C3B 3420   3.811   5.910   6.452 -0.1778 -0.1235 -0.0854
  244POPC   C4B 3421   3.590   5.748   6.722  0.0640 -0.0996 -0.6521
  245POPC   NC3 3422   9.264   8.840   2.479 -0.0384  0.0441 -0.0782
  245POPC   PO4 3423   9.270   8.704   2.855  0.3896  0.3431  0.1116
  245POPC   GL1 3424   9.451   8.472   3.132 -0.3601  0.0990  0.0369
  245POPC   GL2 3425   9.674   8.565   3.431 -0.1363  0.0357 -0.1688
  245POPC   C1A 3426   9.481   8.065   3.343  0.0441 -0.0777 -0.0543
  245POPC   D2A 3427   9.291   7.684   3.377 -0.0514 -0.2549 -0.1042
  245POPC   C3A 3428   9.138   7.649   3.756 -0.0607 -0.1720 -0.0708
  245POPC   C4A 3429   8.899   7.501   4.110  0.0727 -0.2492 -0.0747
  245POPC   C1B 3430   9.393   8.583   3.765  0.2696 -0.2262  0.1602
  245POPC   C2B 3431   9.078   8.603   4.193  0.2715 -0.4021  0.2908
  245POPC   C3B 3432   9.075   8.669   4.634 -0.3333 -0.0333 -0.2781
  245POPC   C4B 3433   8.903   8.777   5.009 -0.1862  0.1863 -0.1215
  246POPC   NC3 3434   1.252   7.444   3.735  0.3408 -0.1874 -0.1341
  246POPC   PO4 3435   1.024   7.102   3.886  0.1360 -0.0558  0.2645
  246POPC   GL1 3436   0.938   7.149   4.291  0.0777 -0.1591  0.0455
  246POPC   GL2 3437   0.734   6.964   4.350  0.0063 -0.0686  0.0370
  246POPC   C1A 3438   1.015   7.436   4.636  0.0402 -0.1460  0.3612
  246POPC   D2A 3439   1.170   7.720   4.874  0.1482 -0.1475 -0.1510
  246POPC   C3A 3440   1.370   7.887   5.156 -0.1532  0.4550  0.0093
  246POPC   C4A 3441   1.432   7.919   5.565  0.1364 -0.1570  0.0520
  246POPC   C1B 3442   0.664   7.037   4.721 -0.3397 -0.0253  0.0833
  246POPC   C2B 3443   0.796   7.356   5.050 -0.0344  0.0157 -0.2812
  246POPC   C3B 3444   0.980   7.432   5.422 -0.1488  0.1139  0.2551
  246POPC   C4B 3445   1.140   7.580   5.802 -0.2867  0.2215  0.0745
  247POPC   NC3 3446   6.800   7.243   4.166 -0.1789  0.2023  0.1952
  247POPC   PO4 3447   6.548   7.387   4.456  0.3293  0.0892  0.0281
  247POPC   GL1 3448   6.583   7.667   4.693  0.0027  0.1800  0.0494
  247POPC   GL2 3449   6.371   7.963   4.859  0.1934  0.1328  0.0654
  247POPC   C1A 3450   6.907   7.728   4.951  0.1102  0.1317  0.0723
  247POPC   D2A 3451   7.036   7.523   5.307  0.1089 -0.0353 -0.1130
  247POPC   C3A 3452   6.951   7.535   5.820  0.2409  0.2630 -0.0680
  247POPC   C4A 3453   7.155   7.406   6.205  0.2035 -0.2288 -0.1851
  247POPC   C1B 3454   6.405   8.201   5.314  0.1216  0.0168  0.1500
  247POPC   C2B 3455   6.559   8.282   5.731  0.0138 -0.0044  0.1145
  247POPC   C3B 3456   6.690   8.280   6.157 -0.0128  0.1036  0.0377
  247POPC   C4B 3457   6.843   7.970   6.473  0.1064 -0.2008 -0.1068
  248POPC   NC3 3458   7.068   7.932   3.641  0.1068 -0.0815 -0.0142
  248POPC   PO4 3459   6.683   7.843   3.756  0.0200  0.0381  0.0442
  248POPC   GL1 3460   6.929   7.766   4.090 -0.2307 -0.1558  0.1029
  248POPC   GL2 3461   7.219   7.985   4.140 -0.1260  0.0361  0.3593
  248POPC   C1A 3462   7.145   7.664   4.557  0.0327  0.2860  0.3179
  248POPC   D2A 3463   7.368   7.522   4.877 -0.2443 -0.1275 -0.5755
  248POPC   C3A 3464   7.380   7.234   5.156  0.1298 -0.0706  0.0174
  248POPC   C4A 3465   7.380   6.816   5.039 -0.0770 -0.0773 -0.0142
  248POPC   C1B 3466   6.841   8.038   4.525  0.3681 -0.2596 -0.0490
  248POPC   C2B 3467   6.831   8.220   4.850  0.0258  0.1837 -0.1683
  248POPC   C3B 3468   6.859   8.152   5.237  0.1380 -0.3406  0.0242
  248POPC   C4B 3469   6.654   7.816   5.424 -0.5238  0.1167 -0.1635
  249POPC   NC3 3470   7.474   0.231   4.830  0.0367 -0.3443  0.0344
  249POPC   PO4 3471   6.988   0.256   4.875  0.2431 -0.0404 -0.1580
  249POPC   GL1 3472   7.176   0.186   5.282  0.5185  0.0514 -0.0811
  249POPC   GL2 3473   6.937   0.068   5.535  0.0186 -0.0548 -0.5033
  249POPC   C1A 3474   7.485   0.166   5.435  0.0287 -0.1724 -0.0932
  249POPC   D2A 3475   7.572   0.209   5.887 -0.3887  0.1961 -0.4475
  249POPC   C3A 3476   7.915   0.012   6.131  0.4006 -0.0541  0.1287
  249POPC   C4A 3477   8.168   0.011   6.472  0.1806  0.1352  0.0200
  249POPC   C1B 3478   7.014  -0.070   6.026 -0.0266 -0.0383  0.0515
  249POPC   C2B 3479   7.063  -0.068   6.431 -0.0327  0.0629 -0.2146
  249POPC   C3B 3480   7.229   0.325   6.691 -0.2314 -0.1369 -0.0541
  249POPC   C4B 3481   7.387   0.662   6.509  0.2891  0.1464  0.2615
  250POPC   NC3 3482   4.178   9.082   5.071  0.5060 -0.0711 -0.0471
  250POPC   PO4 3483   4.331   9.518   4.816 -0.0505 -0.0191  0.1164
  250POPC   GL1 3484   4.204   9.588   5.192  0.1013  0.1808  0.2425
  250POPC   GL2 3485   3.921   9.694   5.397 -0.1812  0.1376 -0.3149
  250POPC   C1A 3486   4.378   9.558   5.602 -0.2890 -0.0408 -0.0992
  250POPC   D2A 3487   4.677   9.808   5.900  0.1885 -0.1884  0.0702
  250POPC   C3A 3488   4.482  10.259   5.941  0.3142 -0.3223 -0.1371
  250POPC   C4A 3489   4.680  10.532   5.996  0.0878 -0.0316  0.0191
  250POPC   C1B 3490   3.970   9.462   5.824  0.1848 -0.2618 -0.0883
  250POPC   C2B 3491   4.004   9.143   6.144 -0.0662 -0.1620  0.0591
  250POPC   C3B 3492   4.239   8.965   6.354 -0.1193  0.1416 -0.2620
  250POPC   C4B 3493   4.314   8.638   6.004 -0.3672  0.2660 -0.2076
  251POPC   NC3 3494   9.023   1.747   4.577 -0.1506  0.0600  0.1036
  251POPC   PO4 3495   9.263   1.941   4.980 -0.2285 -0.0482  0.0795
  251POPC   GL1 3496   9.403   1.836   5.343 -0.1297  0.0281  0.1976
  251POPC   GL2 3497   9.184   1.589   5.405 -0.0505 -0.0768 -0.0714
  251POPC   C1A 3498   9.397   1.925   5.763  0.2192  0.0567 -0.2138
  251POPC   D2A 3499   9.400   1.797   6.204 -0.0923 -0.1477  0.2596
  251POPC   C3A 3500   9.414   2.005   6.505 -0.1663  0.2304 -0.2576
  251POPC   C4A 3501   9.410   2.351   6.645 -0.0165  0.0114  0.4757
  251POPC   C1B 3502   9.264   1.420   5.731 -0.2499  0.1249 -0.1956
  251POPC   C2B 3503   9.336   1.346   6.159 -0.1702  0.0764 -0.2683
  251POPC   C3B 3504   9.524   1.421   6.489  0.0815  0.1310 -0.0514
  251POPC   C4B 3505   9.880   1.713   6.492  0.0181 -0.1686 -0.0382
  252POPC   NC3 3506   0.272   3.662   4.963 -0.2060  0.0534 -0.0118
  252POPC   PO4 3507  -0.141   3.540   5.156  0.0943  0.1086  0.0935
  252POPC   GL1 3508  -0.253   3.372   5.601  0.0404 -0.2176 -0.0424
  252POPC   GL2 3509  -0.551   3.532   5.669  0.1523  0.0578 -0.1482
  252POPC   C1A 3510  -0.422   3.130   5.927 -0.0647  0.4162  0.0935
  252POPC   D2A 3511  -0.524   3.020   6.274 -0.6303  0.4584 -0.0870
  252POPC   C3A 3512  -0.619   3.371   6.584  0.1600 -0.0403 -0.1699
  252POPC   C4A 3513  -0.714   3.901   6.617 -0.0074 -0.0810  0.3372
  252POPC   C1B 3514  -0.231   3.596   6.072 -0.0962  0.1894  0.0960
  252POPC   C2B 3515  -0.023   3.981   6.168  0.1236  0.1145  0.3625
  252POPC   C3B 3516   0.458   4.113   5.960  0.1797 -0.0622  0.2338
  252POPC   C4B 3517   0.881   4.084   5.883  0.1396  0.0610  0.1449
  253POPC   NC3 3518   1.291   9.127   4.507  0.0562 -0.0482  0.0770
  253POPC   PO4 3519   1.621   8.933   4.647  0.1679 -0.0437 -0.1949
  253POPC   GL1 3520   1.480   8.889   5.060  0.1993  0.3928  0.0363
  253POPC   GL2 3521   1.318   9.214   5.062 -0.0223  0.1833  0.5085
  253POPC   C1A 3522   1.428   8.467   5.328  0.2638  0.1563 -0.0491
  253POPC   D2A 3523   1.151   8.390   5.600 -0.3102 -0.2013  0.3231
  253POPC   C3A 3524   0.931   7.953   5.501 -0.0594 -0.1250 -0.1384
  253POPC   C4A 3525   0.726   7.921   5.018  0.0517 -0.2243 -0.0107
  253POPC   C1B 3526   0.879   9.329   4.937  0.1842  0.1600  0.0406
  253POPC   C2B 3527   0.594   9.159   4.706  0.1535  0.0054 -0.2557
  253POPC   C3B 3528   0.244   8.846   4.946 -0.0833  0.3730 -0.2469
  253POPC   C4B 3529  -0.115   8.673   5.088 -0.0370 -0.0417  0.1253
  254POPC   NC3 3530   6.957   2.697   4.838  0.0921 -0.1661  0.2531
  254POPC   PO4 3531   7.375   2.881   4.868 -0.2729  0.0552 -0.2128
  254POPC   GL1 3532   7.510   3.011   5.396  0.0028  0.0447  0.1537
  254POPC   GL2 3533   7.240   3.104   5.621  0.2392  0.0431 -0.0494
  254POPC   C1A 3534   7.633   2.902   5.877 -0.1808  0.2269  0.0038
  254POPC   D2A 3535   7.619   2.801   6.210 -0.1826 -0.2569  0.3462
  254POPC   C3A 3536   7.827   2.809   6.589 -0.1310 -0.1743 -0.0958
  254POPC   C4A 3537   7.857   2.900   7.047 -0.1242 -0.0950 -0.1050
  254POPC   C1B 3538   7.309   3.158   6.074  0.1727 -0.0005 -0.1100
  254POPC   C2B 3539   7.450   3.275   6.426  0.1645 -0.0818  0.2023
  254POPC   C3B 3540   7.614   3.234   6.768  0.0143  0.0086 -0.0258
  254POPC   C4B 3541   7.845   3.401   7.124  0.0043  0.3134  0.0768
  255POPC   NC3 3542   7.257   0.686   4.838  0.1845 -0.0213 -0.0527
  255POPC   PO4 3543   7.259   1.153   4.908 -0.2018 -0.1841 -0.1697
  255POPC   GL1 3544   7.167   1.170   5.326 -0.4856  0.1363 -0.0357
  255POPC   GL2 3545   6.897   1.408   5.292 -0.2875  0.1255  0.0726
  255POPC   C1A 3546   7.220   1.121   5.741 -0.0101  0.0421  0.3961
  255POPC   D2A 3547   7.514   0.797   5.957 -0.0067  0.1812 -0.0049
  255POPC   C3A 3548   7.233   0.425   6.134 -0.1254  0.1489 -0.0204
  255POPC   C4A 3549   6.786   0.392   6.230 -0.1285 -0.2532  0.2579
  255POPC   C1B 3550   6.729   0.965   5.539 -0.0108 -0.0015  0.0716
  255POPC   C2B 3551   6.579   0.896   5.993 -0.0031 -0.2235  0.0532
  255POPC   C3B 3552   6.586   0.819   6.461  0.2481 -0.0502  0.0452
  255POPC   C4B 3553   6.873   0.813   6.744  0.1570  0.1605  0.1670
  256POPC   NC3 3554   4.113   3.792   4.893  0.4178  0.1169  0.0727
  256POPC   PO4 3555   4.504   3.837   4.714  0.1070 -0.3304  0.1552
  256POPC   GL1 3556   4.499   3.647   5.150  0.1579  0.2330  0.0703
  256POPC   GL2 3557   4.512   3.246   5.198 -0.2055 -0.2152 -0.0491
  256POPC   C1A 3558   4.539   3.997   5.539 -0.0617  0.1891 -0.1315
  256POPC   D2A 3559   4.669   4.285   5.822 -0.1481  0.0238  0.1236
  256POPC   C3A 3560   5.084   4.260   6.058 -0.1617 -0.0196  0.2404
  256POPC   C4A 3561   5.178   4.293   6.429 -0.1296 -0.1960 -0.1414
  256POPC   C1B 3562   4.524   3.293   5.626  0.0381  0.2223  0.3275
  256POPC   C2B 3563   4.544   3.285   6.092  0.1995 -0.0170  0.0677
  256POPC   C3B 3564   4.298   3.488   6.379  0.0080 -0.0167  0.3023
  256POPC   C4B 3565   4.267   3.521   6.864 -0.0853  0.0306 -0.0946
  257POPC   NC3 3566   8.865   9.627   2.795 -0.1596 -0.0391 -0.0176
  257POPC   PO4 3567   9.113   9.489   3.141  0.0679  0.3119 -0.0685
  257POPC   GL1 3568   9.254   9.460   3.574  0.1636  0.0701 -0.1068
  257POPC   GL2 3569   9.314   9.643   3.880  0.0916 -0.0769 -0.0668
  257POPC   C1A 3570   9.239   9.056   3.900  0.3000  0.1334  0.3985
  257POPC   D2A 3571   9.213   9.039   4.393 -0.2054 -0.1265 -0.0784
  257POPC   C3A 3572   9.486   9.007   4.679 -0.2648 -0.1904  0.0292
  257POPC   C4A 3573   9.812   8.635   4.700  0.0918 -0.1289  0.5119
  257POPC   C1B 3574   9.412   9.477   4.228 -0.2737 -0.1479 -0.2123
  257POPC   C2B 3575   9.608   9.423   4.516 -0.0711 -0.0235 -0.0244
  257POPC   C3B 3576   9.766   9.327   4.948 -0.1635 -0.1403 -0.0784
  257POPC   C4B 3577   9.955   8.949   5.072 -0.0162  0.0387 -0.1300
  258POPC   NC3 3578   9.106   0.764   4.263 -0.0733 -0.0006  0.1226
  258POPC   PO4 3579   8.976   0.758   4.761 -0.1155  0.0697 -0.2177
  258POPC   GL1 3580   9.299   0.474   4.976 -0.3681 -0.1228  0.2675
  258POPC   GL2 3581   9.557   0.386   4.876  0.0716 -0.0169  0.0817
  258POPC   C1A 3582   9.192   0.254   5.335 -0.0060 -0.3009 -0.3139
  258POPC   D2A 3583   9.054   0.415   5.732  0.0419 -0.0234 -0.0763
  258POPC   C3A 3584   9.168   0.107   6.024  0.3364  0.0096  0.1473
  258POPC   C4A 3585   9.055  -0.258   6.296  0.2121  0.0616  0.2152
  258POPC   C1B 3586   9.658   0.120   5.287 -0.2206 -0.0281 -0.0451
  258POPC   C2B 3587   9.550  -0.105   5.716 -0.0762 -0.1838 -0.0901
  258POPC   C3B 3588   9.861  -0.237   5.956  0.2056  0.0990 -0.0020
  258POPC   C4B 3589  10.048  -0.204   6.293 -0.1539  0.0775 -0.3225
  259POPC   NC3 3590   1.357   9.758   3.738 -0.3071 -0.2820 -0.1209
  259POPC   PO4 3591   1.363   9.738   4.157  0.0720  0.0482  0.0922
  259POPC   GL1 3592   1.083   9.547   4.420 -0.2195  0.3910 -0.0153
  259POPC   GL2 3593   1.255   9.666   4.678 -0.2905 -0.0059 -0.2309
  259POPC   C1A 3594   0.680   9.631   4.532 -0.1179 -0.0475  0.1732
  259POPC   D2A 3595   0.324   9.595   4.875 -0.1988  0.0656 -0.1773
  259POPC   C3A 3596   0.366   9.257   5.156 -0.4649 -0.0079  0.0978
  259POPC   C4A 3597   0.212   9.263   5.529  0.1363  0.1218 -0.0292
  259POPC   C1B 3598   0.921   9.790   4.986 -0.1367  0.1467 -0.0165
  259POPC   C2B 3599   0.659   9.656   5.320 -0.0625  0.1452 -0.4320
  259POPC   C3B 3600   0.719   9.263   5.541  0.1231  0.1069  0.0486
  259POPC   C4B 3601   0.601   9.002   5.969 -0.0789  0.0309 -0.2073
  260POPC   NC3 3602   3.438   5.522   4.312  0.1246  0.1231  0.3913
  260POPC   PO4 3603   3.075   5.539   4.522  0.0294 -0.1639 -0.0248
  260POPC   GL1 3604   3.263   5.636   4.999 -0.0853 -0.0011  0.1017
  260POPC   GL2 3605   3.404   5.418   5.238  0.0183  0.2319  0.2025
  260POPC   C1A 3606   3.564   5.883   5.364 -0.1290 -0.2536  0.0845
  260POPC   D2A 3607   3.502   5.994   5.848  0.1310  0.0476 -0.0473
  260POPC   C3A 3608   3.334   5.674   6.084  0.1016  0.4344 -0.0411
  260POPC   C4A 3609   3.050   5.475   6.436  0.0648  0.0811 -0.2158
  260POPC   C1B 3610   3.479   5.416   5.752 -0.2562  0.0461  0.1189
  260POPC   C2B 3611   3.233   5.173   6.086 -0.0552 -0.2187  0.0974
  260POPC   C3B 3612   3.420   4.992   6.427  0.0913 -0.3930 -0.3510
  260POPC   C4B 3613   3.499   5.198   6.838 -0.1516 -0.0565 -0.2013
  261POPC   NC3 3614   5.121   5.359   4.534 -0.0603  0.5014 -0.1704
  261POPC   PO4 3615   4.793   5.473   4.755  0.0564 -0.0174 -0.1916
  261POPC   GL1 3616   4.687   5.531   5.253  0.1259  0.0955 -0.3103
  261POPC   GL2 3617   4.977   5.541   5.453  0.3221 -0.2241  0.0119
  261POPC   C1A 3618   4.277   5.597   5.463  0.0549  0.0312  0.0428
  261POPC   D2A 3619   3.895   5.652   5.716 -0.1316 -0.1740  0.2027
  261POPC   C3A 3620   3.745   5.411   6.151 -0.0791  0.1799 -0.5747
  261POPC   C4A 3621   3.900   5.315   6.512  0.3887 -0.1502 -0.1079
  261POPC   C1B 3622   4.718   5.471   5.829  0.0507  0.1450 -0.2653
  261POPC   C2B 3623   4.786   5.620   6.238  0.1491 -0.2987 -0.1815
  261POPC   C3B 3624   4.834   5.844   6.599  0.1628 -0.1721 -0.0525
  261POPC   C4B 3625   4.699   6.231   6.678  0.2381  0.3316  0.2848
  262POPC   NC3 3626   8.731   2.418   4.982 -0.1843  0.2752  0.1513
  262POPC   PO4 3627   8.966   2.276   5.252 -0.0330 -0.0530 -0.0551
  262POPC   GL1 3628   8.936   2.010   5.609  0.0526 -0.1358 -0.0028
  262POPC   GL2 3629   8.787   2.177   5.827  0.0263 -0.1649  0.0099
  262POPC   C1A 3630   8.945   1.719   5.954 -0.2712 -0.0020  0.0800
  262POPC   D2A 3631   8.707   1.472   6.123 -0.3866  0.0848  0.1359
  262POPC   C3A 3632   8.870   1.360   6.503  0.0638  0.2272 -0.1385
  262POPC   C4A 3633   8.960   1.176   6.941 -0.0048 -0.0307 -0.1776
  262POPC   C1B 3634   8.443   2.335   5.921 -0.2770  0.0800 -0.1973
  262POPC   C2B 3635   8.064   2.029   5.985  0.2386 -0.1838  0.0709
  262POPC   C3B 3636   7.764   1.866   5.817  0.1572 -0.3025 -0.2434
  262POPC   C4B 3637   7.536   1.692   5.506  0.1597 -0.1119  0.0899
  263POPC   NC3 3638   6.436   7.201   4.927  0.0969 -0.0328 -0.0646
  263POPC   PO4 3639   5.985   7.192   5.034 -0.2264 -0.1264 -0.2966
  263POPC   GL1 3640   6.076   7.012   5.409 -0.2845  0.0050  0.0680
  263POPC   GL2 3641   6.439   6.969   5.452 -0.0113 -0.2240 -0.0742
  263POPC   C1A 3642   6.120   6.900   5.825  0.1164 -0.0545  0.3346
  263POPC   D2A 3643   5.882   6.919   6.096 -0.1716  0.0680  0.2665
  263POPC   C3A 3644   6.135   7.062   6.444  0.0768 -0.0277  0.1682
  263POPC   C4A 3645   6.482   6.968   6.665 -0.2596  0.2031  0.0693
  263POPC   C1B 3646   6.625   6.621   5.698 -0.0616 -0.0543  0.2409
  263POPC   C2B 3647   6.888   6.338   5.934 -0.0543 -0.0132  0.2749
  263POPC   C3B 3648   7.072   5.986   6.130  0.1997  0.0615  0.0771
  263POPC   C4B 3649   7.067   6.053   6.608 -0.1706  0.3043 -0.1610
  264POPC   NC3 3650   1.020   8.410   4.024  0.4621 -0.0143 -0.0678
  264POPC   PO4 3651   1.433   8.162   4.253  0.0931  0.0577  0.4296
  264POPC   GL1 3652   1.423   8.164   4.736 -0.1190 -0.1244  0.0293
  264POPC   GL2 3653   1.607   8.425   4.891  0.0313 -0.0252  0.1125
  264POPC   C1A 3654   1.052   8.283   5.053  0.0933 -0.0837 -0.0941
  264POPC   D2A 3655   0.680   8.411   5.338  0.2022 -0.0209  0.2923
  264POPC   C3A 3656   0.467   8.005   5.495  0.2542  0.2460  0.0283
  264POPC   C4A 3657   0.646   7.644   5.729 -0.1930  0.1267 -0.2050
  264POPC   C1B 3658   1.752   8.153   5.108  0.0478 -0.0130 -0.1247
  264POPC   C2B 3659   1.794   7.666   5.321  0.2545 -0.2314 -0.2693
  264POPC   C3B 3660   1.541   7.338   5.531 -0.1658 -0.1513 -0.2025
  264POPC   C4B 3661   1.340   7.076   5.740 -0.1817  0.1807  0.1748
  265POPC   NC3 3662   4.592   9.894   5.074 -0.1239  0.3280 -0.0314
  265POPC   PO4 3663   4.950  10.156   5.276  0.2164  0.2901  0.0048
  265POPC   GL1 3664   5.122   9.890   5.475 -0.0180  0.1170 -0.2855
  265POPC   GL2 3665   4.958   9.672   5.322  0.0793 -0.2404 -0.1264
  265POPC   C1A 3666   5.209   9.643   5.783 -0.2680 -0.1523  0.1392
  265POPC   D2A 3667   5.045   9.525   6.138  0.2286  0.3200  0.1143
  265POPC   C3A 3668   5.054   9.238   6.373 -0.0739  0.4780  0.1319
  265POPC   C4A 3669   5.135   8.834   6.675 -0.1100 -0.0034  0.2400
  265POPC   C1B 3670   4.846   9.386   5.671 -0.2142 -0.2484 -0.0947
  265POPC   C2B 3671   4.521   9.297   6.045 -0.0583  0.1780  0.1365
  265POPC   C3B 3672   4.594   9.489   6.457  0.0321  0.0347  0.0438
  265POPC   C4B 3673   4.705   9.741   6.806 -0.3226  0.1205  0.1900
  266POPC   NC3 3674   1.011   6.570   4.124  0.3022 -0.2299  0.0747
  266POPC   PO4 3675   0.767   6.743   3.703 -0.0512 -0.0453  0.1569
  266POPC   GL1 3676   0.527   6.880   3.894  0.0130 -0.2395  0.0813
  266POPC   GL2 3677   0.298   6.683   4.063  0.2070  0.2836  0.3092
  266POPC   C1A 3678   0.355   7.260   4.184 -0.1717  0.2346 -0.0789
  266POPC   D2A 3679   0.098   7.648   4.117 -0.2571  0.1429  0.2329
  266POPC   C3A 3680  -0.271   7.759   4.305  0.0768  0.1136 -0.0477
  266POPC   C4A 3681  -0.708   7.926   4.422 -0.1264  0.0920  0.1117
  266POPC   C1B 3682   0.177   6.890   4.454 -0.0581  0.0351 -0.0071
  266POPC   C2B 3683   0.134   7.004   4.777  0.1435 -0.1131 -0.1157
  266POPC   C3B 3684   0.101   7.398   5.102  0.3349  0.2528 -0.1039
  266POPC   C4B 3685   0.377   7.532   5.338 -0.1769 -0.0622 -0.0673
  267POPC   NC3 3686   2.439   4.359   4.668  0.4070  0.1892  0.0748
  267POPC   PO4 3687   2.185   4.667   4.538 -0.0075 -0.0126  0.0418
  267POPC   GL1 3688   2.063   4.655   4.943  0.1953  0.1652 -0.1164
  267POPC   GL2 3689   1.780   4.778   5.230 -0.1445 -0.0997  0.1879
  267POPC   C1A 3690   2.216   4.896   5.273  0.2214 -0.1727  0.2284
  267POPC   D2A 3691   2.594   5.067   5.408 -0.2106 -0.1158 -0.2992
  267POPC   C3A 3692   2.470   5.369   5.587 -0.0283 -0.0100 -0.1759
  267POPC   C4A 3693   2.494   5.226   5.932  0.1009  0.2377  0.0160
  267POPC   C1B 3694   1.895   4.589   5.583 -0.0063  0.0358  0.2074
  267POPC   C2B 3695   1.975   4.333   5.811  0.3470 -0.2778 -0.1523
  267POPC   C3B 3696   1.778   4.117   6.000  0.1706  0.2383  0.0337
  267POPC   C4B 3697   1.793   3.894   6.425 -0.2729 -0.1622 -0.2453
  268POPC   NC3 3698   8.295   2.789   4.851  0.2688 -0.1331  0.0198
  268POPC   PO4 3699   8.122   2.816   5.303  0.0819 -0.2581  0.0353
  268POPC   GL1 3700   8.141   2.680   5.842  0.0697 -0.1319  0.2272
  268POPC   GL2 3701   7.976   2.456   5.895 -0.0805 -0.3502 -0.0912
  268POPC   C1A 3702   8.089   2.877   6.194 -0.1664 -0.2316 -0.0635
  268POPC   D2A 3703   8.197   3.153   6.420  0.0557  0.0156 -0.1421
  268POPC   C3A 3704   8.130   3.472   6.706  0.0495 -0.1297  0.1217
  268POPC   C4A 3705   7.999   3.870   6.867  0.0019 -0.4200 -0.4120
  268POPC   C1B 3706   7.657   2.257   6.265  0.1406 -0.5794  0.3019
  268POPC   C2B 3707   7.470   2.454   6.546 -0.0887  0.0899  0.2922
  268POPC   C3B 3708   7.286   2.757   6.889  0.0379  0.2611 -0.2057
  268POPC   C4B 3709   7.373   3.189   7.162 -0.0262 -0.1127  0.1213
  269POPC   NC3 3710   8.095   8.246   3.619 -0.1427 -0.1925 -0.3987
  269POPC   PO4 3711   8.046   8.641   3.735 -0.0785 -0.0074 -0.0531
  269POPC   GL1 3712   7.797   8.328   4.048 -0.1176  0.2759  0.3745
  269POPC   GL2 3713   8.041   7.999   4.093 -0.1089  0.0905 -0.0122
  269POPC   C1A 3714   7.613   8.364   4.433 -0.1373  0.0165  0.3530
  269POPC   D2A 3715   7.282   8.109   4.715  0.2922 -0.1703  0.2084
  269POPC   C3A 3716   7.361   7.962   5.140 -0.3162  0.1106  0.3933
  269POPC   C4A 3717   7.533   7.802   5.461  0.2360  0.1301  0.0083
  269POPC   C1B 3718   8.136   8.419   4.355 -0.5303 -0.0160  0.1896
  269POPC   C2B 3719   8.120   8.841   4.376  0.1000 -0.1276  0.2908
  269POPC   C3B 3720   8.281   9.070   4.777 -0.1292  0.3000  0.0604
  269POPC   C4B 3721   8.415   9.443   4.952  0.0887 -0.1841  0.3935
  270POPC   NC3 3722   2.021   0.593   5.076  0.2608 -0.1177 -0.1584
  270POPC   PO4 3723   1.834   1.031   5.100 -0.0009  0.0309 -0.0573
  270POPC   GL1 3724   1.809   1.047   5.504 -0.3292 -0.0158  0.1251
  270POPC   GL2 3725   1.994   0.729   5.672 -0.5999  0.2399  0.2934
  270POPC   C1A 3726   1.888   1.131   5.891 -0.0492 -0.0834 -0.1505
  270POPC   D2A 3727   2.095   1.132   6.249 -0.0053 -0.2036 -0.0917
  270POPC   C3A 3728   2.432   0.974   6.448  0.2616 -0.0969 -0.0913
  270POPC   C4A 3729   2.841   1.058   6.506 -0.0346  0.0499 -0.2406
  270POPC   C1B 3730   2.199   0.655   6.109 -0.1927  0.0955  0.2235
  270POPC   C2B 3731   2.252   0.491   6.504  0.1018 -0.0736 -0.1580
  270POPC   C3B 3732   2.052   0.262   6.892  0.0939 -0.0615 -0.0864
  270POPC   C4B 3733   1.685   0.124   7.073  0.1271 -0.0265 -0.1881
  271POPC   NC3 3734   5.275  10.392   4.996 -0.3372 -0.0277  0.0947
  271POPC   PO4 3735   5.601  10.681   5.133 -0.0268 -0.5558 -0.1598
  271POPC   GL1 3736   5.511  11.016   5.393 -0.0721 -0.0275  0.1880
  271POPC   GL2 3737   5.214  10.929   5.488  0.0713 -0.2796  0.0492
  271POPC   C1A 3738   5.412  11.164   5.889 -0.0470 -0.3890  0.0244
  271POPC   D2A 3739   5.439  10.949   6.272  0.2711 -0.0465 -0.1477
  271POPC   C3A 3740   5.857  10.894   6.471  0.0044  0.0322  0.1930
  271POPC   C4A 3741   6.270  10.905   6.433  0.0014  0.1448 -0.2906
  271POPC   C1B 3742   4.966  10.940   5.897  0.1081 -0.3028 -0.2257
  271POPC   C2B 3743   4.972  10.960   6.357 -0.0730 -0.1707 -0.0848
  271POPC   C3B 3744   5.057  10.878   6.852  0.1564  0.0875 -0.2684
  271POPC   C4B 3745   5.056  10.657   7.224 -0.2950  0.0054 -0.0227
  272POPC   NC3 3746   4.475   7.707   5.106  0.2489  0.1747 -0.1451
  272POPC   PO4 3747   4.410   8.124   4.958 -0.1555  0.1464 -0.0250
  272POPC   GL1 3748   4.282   8.036   5.394  0.2480 -0.0247  0.2834
  272POPC   GL2 3749   3.923   8.098   5.469  0.1872 -0.0435  0.0960
  272POPC   C1A 3750   4.442   8.114   5.747 -0.3100  0.1175  0.0453
  272POPC   D2A 3751   4.632   8.260   6.077 -0.0304 -0.0094 -0.1299
  272POPC   C3A 3752   4.559   8.137   6.467 -0.1228  0.1603  0.0985
  272POPC   C4A 3753   4.498   7.932   6.899  0.1346 -0.0390  0.3965
  272POPC   C1B 3754   3.986   8.248   5.769  0.0516 -0.0235 -0.0072
  272POPC   C2B 3755   4.061   8.239   6.107 -0.1712 -0.0856 -0.3105
  272POPC   C3B 3756   4.134   7.865   6.482  0.3778 -0.0668  0.2660
  272POPC   C4B 3757   3.925   7.571   6.771 -0.3108 -0.0482  0.1568
  273POPC   NC3 3758   2.535   5.596   4.600  0.0660 -0.3010 -0.0117
  273POPC   PO4 3759   2.349   6.073   4.879 -0.3218  0.2000 -0.1283
  273POPC   GL1 3760   2.228   5.910   5.297 -0.1145 -0.2087  0.3754
  273POPC   GL2 3761   2.402   5.808   5.512  0.0866 -0.3613  0.1331
  273POPC   C1A 3762   1.947   5.563   5.461  0.2478  0.1586  0.1863
  273POPC   D2A 3763   2.015   5.079   5.638  0.0449 -0.0524 -0.0439
  273POPC   C3A 3764   1.767   4.775   5.997  0.0148  0.0539 -0.0142
  273POPC   C4A 3765   1.674   4.963   6.416 -0.0106  0.1006  0.0856
  273POPC   C1B 3766   2.499   6.054   5.887  0.3370 -0.0022 -0.0095
  273POPC   C2B 3767   2.566   6.344   6.210  0.1300  0.1753  0.2009
  273POPC   C3B 3768   2.933   6.612   6.266 -0.0869 -0.3938 -0.0041
  273POPC   C4B 3769   3.193   6.807   6.570 -0.2696  0.3006 -0.1220
  274POPC   NC3 3770   9.483   2.320   5.149  0.1071  0.2590  0.1096
  274POPC   PO4 3771   9.196   2.719   5.054  0.0473  0.3404 -0.0710
  274POPC   GL1 3772   9.073   2.753   5.467  0.0470  0.1327  0.2035
  274POPC   GL2 3773   9.270   2.882   5.709  0.1624 -0.1977 -0.1077
  274POPC   C1A 3774   8.821   2.680   5.825 -0.3119 -0.2089 -0.1504
  274POPC   D2A 3775   8.515   2.785   6.211  0.0239  0.1381  0.1950
  274POPC   C3A 3776   8.133   2.439   6.454 -0.0836  0.0957  0.1208
  274POPC   C4A 3777   8.209   1.975   6.529  0.0694  0.1463 -0.1151
  274POPC   C1B 3778   9.548   3.233   6.018  0.0905 -0.0619  0.0058
  274POPC   C2B 3779   9.739   3.607   6.157 -0.1302 -0.1326 -0.2586
  274POPC   C3B 3780   9.932   4.003   6.080 -0.1107  0.0185 -0.1367
  274POPC   C4B 3781  10.151   4.145   5.764  0.0182 -0.0344 -0.0190
  275POPC   NC3 3782   5.602   7.590   4.890  0.0660  0.1166  0.1135
  275POPC   PO4 3783   5.357   7.224   5.007  0.0757  0.2783  0.2015
  275POPC   GL1 3784   5.603   7.209   5.417  0.2840 -0.3660  0.0071
  275POPC   GL2 3785   5.654   7.506   5.431  0.0792  0.0173  0.1046
  275POPC   C1A 3786   5.361   7.043   5.871  0.1533  0.0317  0.0694
  275POPC   D2A 3787   5.326   7.006   6.207 -0.0103 -0.2054 -0.0680
  275POPC   C3A 3788   5.659   6.899   6.526  0.0624 -0.1177 -0.1293
  275POPC   C4A 3789   5.462   6.617   6.894  0.0801  0.0857 -0.1510
  275POPC   C1B 3790   5.924   7.409   5.750  0.1650  0.0143 -0.4262
  275POPC   C2B 3791   6.165   7.434   6.098 -0.0053 -0.0706  0.1226
  275POPC   C3B 3792   6.162   7.533   6.536 -0.2929  0.1357 -0.2403
  275POPC   C4B 3793   5.988   7.768   6.886 -0.4612 -0.0430  0.1260
  276POPC   NC3 3794   7.883   8.715   3.262  0.1192  0.0700  0.1144
  276POPC   PO4 3795   8.206   8.402   3.122 -0.1277 -0.2262  0.0074
  276POPC   GL1 3796   8.574   8.369   3.416  0.0089 -0.1977  0.0413
  276POPC   GL2 3797   8.639   8.097   3.651 -0.1220  0.1205  0.1001
  276POPC   C1A 3798   8.757   8.700   3.679 -0.0977 -0.0575  0.1262
  276POPC   D2A 3799   8.491   8.815   4.036 -0.0731 -0.2514  0.3678
  276POPC   C3A 3800   8.790   9.113   4.140  0.1366 -0.0080 -0.0993
  276POPC   C4A 3801   8.951   9.529   4.260  0.0350 -0.0392  0.0337
  276POPC   C1B 3802   8.653   8.363   4.089  0.1144  0.1445 -0.0469
  276POPC   C2B 3803   8.729   8.352   4.423  0.1221  0.1721 -0.4892
  276POPC   C3B 3804   8.977   8.217   4.815  0.3366 -0.1020 -0.0504
  276POPC   C4B 3805   9.082   8.381   5.242  0.0330 -0.1803  0.0078
  277POPC   NC3 3806   5.391   3.692   4.646  0.2485  0.0684 -0.1527
  277POPC   PO4 3807   5.036   3.978   4.555  0.2409  0.0551 -0.2891
  277POPC   GL1 3808   4.945   3.901   4.974 -0.0629  0.1108  0.0566
  277POPC   GL2 3809   4.801   4.225   5.111 -0.2909  0.3707  0.1649
  277POPC   C1A 3810   5.355   3.931   5.292 -0.0848 -0.2853 -0.0090
  277POPC   D2A 3811   5.513   4.288   5.562  0.2419 -0.1723 -0.0956
  277POPC   C3A 3812   5.999   4.401   5.721  0.1990  0.1527  0.0128
  277POPC   C4A 3813   6.028   4.703   5.875  0.1729 -0.0233 -0.1258
  277POPC   C1B 3814   4.637   4.602   5.394 -0.1452  0.1020 -0.2253
  277POPC   C2B 3815   4.366   4.660   5.780  0.1839 -0.0384  0.0007
  277POPC   C3B 3816   3.997   4.440   5.842  0.0775  0.1450  0.1440
  277POPC   C4B 3817   4.070   4.181   5.723  0.1540  0.2978  0.1605
  278POPC   NC3 3818   9.565   4.801   4.323  0.2904 -0.0595  0.0796
  278POPC   PO4 3819   9.851   5.113   4.487  0.0361 -0.0470  0.0175
  278POPC   GL1 3820   9.920   5.262   4.871 -0.2113  0.0186  0.0607
  278POPC   GL2 3821   9.977   5.002   5.120  0.2577 -0.1242 -0.0574
  278POPC   C1A 3822   9.763   5.477   5.199  0.1740 -0.0513 -0.2059
  278POPC   D2A 3823   9.524   5.623   5.505  0.1348  0.0746 -0.0509
  278POPC   C3A 3824   9.640   5.814   5.875  0.1435  0.0083  0.0572
  278POPC   C4A 3825   9.620   5.836   6.376  0.0677  0.1273 -0.1371
  278POPC   C1B 3826   9.740   4.714   5.434  0.1193 -0.1134 -0.5250
  278POPC   C2B 3827   9.709   4.350   5.725  0.1732  0.2574 -0.2495
  278POPC   C3B 3828   9.684   4.431   6.125  0.0843  0.0345 -0.1487
  278POPC   C4B 3829   9.711   4.803   6.298  0.0584 -0.0942 -0.5133
  279POPC   NC3 3830  10.238   8.799   2.622  0.2567 -0.0524  0.2687
  279POPC   PO4 3831  10.559   8.723   2.913  0.1138 -0.0585 -0.1491
  279POPC   GL1 3832  10.433   8.745   3.354 -0.0408 -0.0631 -0.0206
  279POPC   GL2 3833  10.167   8.666   3.520 -0.1712  0.1357  0.0087
  279POPC   C1A 3834  10.552   8.457   3.737 -0.1093 -0.0297  0.1101
  279POPC   D2A 3835  10.885   8.294   3.983  0.1066 -0.0719  0.1099
  279POPC   C3A 3836  11.026   7.848   4.089 -0.2104  0.0782  0.1545
  279POPC   C4A 3837  11.182   7.599   4.273 -0.0733  0.3783  0.1351
  279POPC   C1B 3838   9.880   8.752   3.868 -0.4064 -0.0558 -0.2198
  279POPC   C2B 3839   9.529   8.631   4.277  0.0237  0.0994 -0.1714
  279POPC   C3B 3840   9.341   8.288   4.441 -0.1060  0.0768  0.2132
  279POPC   C4B 3841   9.500   8.229   4.845 -0.3029  0.1297  0.2129
  280POPC   NC3 3842   1.241   0.401   4.810  0.1717 -0.0872 -0.0063
  280POPC   PO4 3843   1.510   0.575   5.114 -0.0146 -0.3318  0.0023
  280POPC   GL1 3844   1.688   0.427   5.490  0.1487  0.5032 -0.1913
  280POPC   GL2 3845   1.394   0.449   5.635 -0.3559  0.0260  0.1060
  280POPC   C1A 3846   1.800   0.209   5.931  0.3085 -0.1979 -0.0366
  280POPC   D2A 3847   1.833   0.225   6.347 -0.0170 -0.0766 -0.0193
  280POPC   C3A 3848   1.724  -0.125   6.569  0.1798  0.0245  0.2339
  280POPC   C4A 3849   1.436  -0.221   6.823  0.2313 -0.3270  0.1465
  280POPC   C1B 3850   1.185   0.217   5.941  0.4249 -0.0502 -0.4060
  280POPC   C2B 3851   0.869   0.317   6.293  0.0335 -0.3301 -0.1734
  280POPC   C3B 3852   0.585   0.537   6.458 -0.1535 -0.0005 -0.0333
  280POPC   C4B 3853   0.422   0.612   6.820 -0.3661 -0.2817 -0.4093
  281POPC   NC3 3854   5.439   1.485   5.255  0.2622  0.0892 -0.1231
  281POPC   PO4 3855   5.851   1.732   5.337 -0.0768 -0.0621 -0.5042
  281POPC   GL1 3856   5.927   1.911   5.796 -0.1292 -0.0404  0.0343
  281POPC   GL2 3857   6.260   1.993   5.814  0.2271 -0.1891 -0.3139
  281POPC   C1A 3858   5.877   2.081   6.192  0.1481  0.1281 -0.1400
  281POPC   D2A 3859   5.899   2.336   6.499 -0.1694 -0.1630 -0.1831
  281POPC   C3A 3860   6.136   2.760   6.586  0.0322  0.2325  0.3095
  281POPC   C4A 3861   6.537   2.692   6.726 -0.0938  0.2823 -0.2275
  281POPC   C1B 3862   6.380   1.810   6.244  0.2204  0.1000  0.0609
  281POPC   C2B 3863   6.119   1.795   6.659  0.0376 -0.1106  0.0604
  281POPC   C3B 3864   6.102   1.423   6.869 -0.2938 -0.2084  0.2315
  281POPC   C4B 3865   5.751   0.983   7.038 -0.2408 -0.1297 -0.2333
  282POPC   NC3 3866   0.188   0.513   4.001 -0.0725  0.1167 -0.0633
  282POPC   PO4 3867   0.397   0.270   4.422 -0.2943  0.2031 -0.0553
  282POPC   GL1 3868   0.223   0.058   4.773 -0.1936 -0.1100 -0.3089
  282POPC   GL2 3869  -0.074   0.187   4.765 -0.0981 -0.2511  0.1112
  282POPC   C1A 3870   0.174  -0.141   5.124  0.0300  0.0387 -0.0693
  282POPC   D2A 3871  -0.019  -0.287   5.473 -0.0276 -0.0152 -0.0571
  282POPC   C3A 3872  -0.130  -0.032   5.712 -0.0233 -0.1370 -0.0381
  282POPC   C4A 3873  -0.392   0.228   5.695  0.1584 -0.0610  0.0230
  282POPC   C1B 3874   0.039   0.380   5.173  0.2522 -0.1560  0.1386
  282POPC   C2B 3875  -0.079   0.554   5.538  0.2059  0.2936 -0.1197
  282POPC   C3B 3876  -0.026   0.663   5.989  0.0835  0.0297 -0.0677
  282POPC   C4B 3877   0.236   0.853   6.323 -0.3440  0.1879 -0.1149
  283POPC   NC3 3878   9.622   5.603   4.336  0.3040  0.1302  0.0727
  283POPC   PO4 3879   9.381   6.046   4.107  0.1052  0.0198 -0.1529
  283POPC   GL1 3880   9.509   6.005   4.613  0.0087  0.1327  0.0696
  283POPC   GL2 3881   9.739   5.779   4.796 -0.3419 -0.0212  0.0223
  283POPC   C1A 3882   9.279   6.026   4.989  0.2022  0.2108  0.2696
  283POPC   D2A 3883   9.115   6.266   5.281 -0.3686 -0.0123  0.2266
  283POPC   C3A 3884   8.778   6.339   5.577  0.0864  0.1402  0.0128
  283POPC   C4A 3885   8.492   6.281   5.936  0.0725 -0.1328  0.0515
  283POPC   C1B 3886   9.847   5.944   5.246  0.1253 -0.0185 -0.0168
  283POPC   C2B 3887   9.604   6.256   5.508 -0.1215  0.1961  0.0469
  283POPC   C3B 3888   9.814   6.403   5.940 -0.0934  0.0920  0.0864
  283POPC   C4B 3889   9.560   6.482   6.299 -0.0390 -0.3466  0.1780
  284POPC   NC3 3890  10.065   2.455   5.226  0.0909  0.3613  0.2796
  284POPC   PO4 3891   9.946   2.132   5.445  0.1024 -0.1222 -0.0836
  284POPC   GL1 3892   9.784   2.431   5.618  0.2276 -0.0784 -0.1755
  284POPC   GL2 3893   9.351   2.395   5.631 -0.1490  0.4051 -0.1248
  284POPC   C1A 3894   9.701   2.664   5.938  0.2567 -0.2870 -0.0157
  284POPC   D2A 3895   9.723   2.579   6.372  0.0231  0.0737  0.3757
  284POPC   C3A 3896   9.941   2.384   6.659  0.0808  0.2697  0.0016
  284POPC   C4A 3897  10.188   2.096   6.852 -0.1180  0.2216  0.2300
  284POPC   C1B 3898   9.297   2.349   6.085  0.3831  0.0418 -0.2300
  284POPC   C2B 3899   8.900   2.490   6.301 -0.0888  0.2300 -0.1393
  284POPC   C3B 3900   8.581   2.290   6.555  0.1549 -0.0460 -0.1350
  284POPC   C4B 3901   8.388   2.203   6.903 -0.1571  0.0151 -0.0976
  285POPC   NC3 3902   1.746   7.763   4.474  0.5098  0.0161 -0.0336
  285POPC   PO4 3903   2.209   7.641   4.523 -0.0097 -0.0795 -0.1394
  285POPC   GL1 3904   1.933   7.430   4.883 -0.0652  0.0805 -0.0752
  285POPC   GL2 3905   1.631   7.324   4.700 -0.0144  0.1988 -0.2245
  285POPC   C1A 3906   1.813   7.064   5.130  0.0037  0.0583 -0.1784
  285POPC   D2A 3907   1.532   6.804   5.316  0.0896 -0.2711 -0.1170
  285POPC   C3A 3908   1.682   6.572   5.728  0.0956 -0.2382  0.0673
  285POPC   C4A 3909   1.532   6.346   6.129  0.0026 -0.4988  0.1722
  285POPC   C1B 3910   1.304   7.258   5.048  0.0301  0.0334  0.2248
  285POPC   C2B 3911   1.098   6.963   5.029 -0.0467 -0.0325 -0.0860
  285POPC   C3B 3912   0.966   6.735   5.345 -0.0255  0.0576 -0.2013
  285POPC   C4B 3913   0.843   6.268   5.319  0.0774  0.0636  0.0885
  286POPC   NC3 3914   5.741   2.785   5.277 -0.0171  0.4428  0.2849
  286POPC   PO4 3915   5.264   2.722   5.176 -0.0712 -0.1923 -0.0668
  286POPC   GL1 3916   5.318   2.623   5.536 -0.0899  0.1278  0.0021
  286POPC   GL2 3917   5.505   2.312   5.550  0.0019 -0.2081  0.2059
  286POPC   C1A 3918   5.173   2.510   5.954 -0.0657  0.4360 -0.2159
  286POPC   D2A 3919   5.182   2.776   6.335 -0.3531  0.2233  0.1639
  286POPC   C3A 3920   5.097   3.238   6.211  0.4000 -0.1438 -0.1641
  286POPC   C4A 3921   4.907   3.479   5.830  0.0316 -0.2491 -0.1577
  286POPC   C1B 3922   5.464   2.044   5.804  0.0503 -0.3646 -0.3717
  286POPC   C2B 3923   5.604   1.707   6.185 -0.1513  0.0155  0.1337
  286POPC   C3B 3924   5.998   1.429   6.339  0.1252 -0.3160 -0.0147
  286POPC   C4B 3925   6.424   1.294   6.409 -0.0104 -0.0090  0.1303
  287POPC   NC3 3926   6.115   8.159   4.465  0.0244  0.0132 -0.5113
  287POPC   PO4 3927   5.866   8.097   4.731  0.0825 -0.1201  0.0619
  287POPC   GL1 3928   5.965   7.860   5.158 -0.1830  0.0543 -0.0953
  287POPC   GL2 3929   6.148   7.602   5.250  0.1207  0.0297 -0.2848
  287POPC   C1A 3930   6.173   7.879   5.652 -0.1540  0.0525 -0.0654
  287POPC   D2A 3931   6.469   7.794   5.938  0.0541  0.2003  0.0043
  287POPC   C3A 3932   6.619   7.557   6.300 -0.1476  0.0046  0.5608
  287POPC   C4A 3933   6.769   7.485   6.614 -0.1021  0.0541  0.1061
  287POPC   C1B 3934   6.396   7.430   5.631  0.0045 -0.1264 -0.1989
  287POPC   C2B 3935   6.527   7.169   5.997 -0.0658  0.2975 -0.1757
  287POPC   C3B 3936   6.477   6.778   6.181 -0.1370 -0.0296 -0.1791
  287POPC   C4B 3937   6.614   6.506   6.367  0.0317  0.3509 -0.0810
  288POPC   NC3 3938   0.697   3.004   5.506  0.2297  0.0139  0.0619
  288POPC   PO4 3939   0.639   3.476   5.339  0.0483  0.0236  0.1973
  288POPC   GL1 3940   0.605   3.395   5.774 -0.1570 -0.0930  0.1151
  288POPC   GL2 3941   0.238   3.258   5.903 -0.0794  0.0434 -0.2173
  288POPC   C1A 3942   0.574   3.652   6.142 -0.3483 -0.0605 -0.0681
  288POPC   D2A 3943   0.889   3.781   6.378  0.0411 -0.3195 -0.3345
  288POPC   C3A 3944   0.693   4.100   6.836 -0.1101  0.0285  0.0599
  288POPC   C4A 3945   1.052   4.420   6.949  0.1607  0.1040 -0.2070
  288POPC   C1B 3946   0.535   3.146   6.232 -0.0439  0.3546 -0.0104
  288POPC   C2B 3947   0.814   2.887   6.432 -0.0683 -0.2417  0.3242
  288POPC   C3B 3948   1.158   2.822   6.402 -0.0900  0.1049 -0.0125
  288POPC   C4B 3949   1.444   2.453   6.258  0.0816 -0.1462  0.1987
  289POPC   NC3 3950   1.546  10.059   4.452 -0.2336 -0.0577 -0.1910
  289POPC   PO4 3951   1.655  10.358   4.736 -0.0730  0.1028 -0.1881
  289POPC   GL1 3952   1.810  10.130   5.069 -0.2683 -0.0609  0.2142
  289POPC   GL2 3953   1.660  10.242   5.335  0.1765  0.0202  0.1542
  289POPC   C1A 3954   1.552   9.748   5.144  0.1435 -0.1481 -0.2123
  289POPC   D2A 3955   1.221   9.589   5.418 -0.2359 -0.2022 -0.0221
  289POPC   C3A 3956   1.276   9.123   5.565  0.0002 -0.1782  0.3174
  289POPC   C4A 3957   0.939   8.840   5.649  0.2469  0.0194 -0.0665
  289POPC   C1B 3958   1.324  10.283   5.759  0.0360  0.2936  0.0578
  289POPC   C2B 3959   0.876  10.307   5.944 -0.1539 -0.3411 -0.1510
  289POPC   C3B 3960   0.505  10.418   6.319 -0.0922  0.1863  0.0841
  289POPC   C4B 3961   0.323  10.642   6.679 -0.1560 -0.1458 -0.4369
  290POPC   NC3 3962   5.594   4.534   4.216  0.1787 -0.1633 -0.0904
  290POPC   PO4 3963   5.348   4.904   4.386 -0.2564 -0.1251 -0.3357
  290POPC   GL1 3964   5.342   4.894   4.812  0.0933 -0.4222  0.3941
  290POPC   GL2 3965   5.632   4.798   4.925  0.1648  0.0137  0.0902
  290POPC   C1A 3966   5.099   4.669   5.126 -0.1790 -0.0244  0.0104
  290POPC   D2A 3967   5.133   4.553   5.469  0.4011  0.1628  0.0013
  290POPC   C3A 3968   4.887   4.786   5.800 -0.3962 -0.0098 -0.1723
  290POPC   C4A 3969   4.898   4.696   6.242 -0.1127  0.1060  0.2233
  290POPC   C1B 3970   5.588   4.840   5.381 -0.0507 -0.0451  0.3353
  290POPC   C2B 3971   5.511   4.738   5.810 -0.1678  0.1492 -0.1483
  290POPC   C3B 3972   5.461   4.721   6.167  0.0084  0.1858 -0.3517
  290POPC   C4B 3973   5.642   4.835   6.575 -0.7707  0.1550 -0.3464
  291POPC   NC3 3974   0.482   4.668   4.096  0.3099  0.1299  0.0107
  291POPC   PO4 3975   0.338   4.933   4.502  0.0934 -0.0467 -0.0559
  291POPC   GL1 3976   0.401   5.279   4.808  0.1151  0.1720 -0.1403
  291POPC   GL2 3977   0.326   5.495   4.921  0.1358  0.2216  0.2397
  291POPC   C1A 3978   0.533   5.110   5.233 -0.1861  0.0638  0.0159
  291POPC   D2A 3979   0.558   5.239   5.740 -0.0042  0.2355  0.1572
  291POPC   C3A 3980   0.815   5.058   6.113 -0.0747 -0.1160  0.0042
  291POPC   C4A 3981   1.178   4.856   6.182  0.2200 -0.0696  0.1010
  291POPC   C1B 3982   0.202   5.484   5.302  0.0762 -0.1049 -0.1404
  291POPC   C2B 3983   0.056   5.274   5.646 -0.1128 -0.0384 -0.0702
  291POPC   C3B 3984  -0.155   5.139   6.049  0.4617 -0.0354  0.1390
  291POPC   C4B 3985  -0.152   5.117   6.476 -0.0412 -0.1528  0.3220
  292POPC   NC3 3986   6.191   5.604   4.660  0.0313 -0.1655 -0.1581
  292POPC   PO4 3987   6.476   5.802   4.799  0.2677 -0.4866 -0.0781
  292POPC   GL1 3988   6.481   5.785   5.258  0.2720 -0.1520  0.0049
  292POPC   GL2 3989   6.312   6.041   5.253 -0.0219 -0.2357 -0.1872
  292POPC   C1A 3990   6.437   5.647   5.623 -0.2656 -0.1074  0.1047
  292POPC   D2A 3991   6.325   5.235   5.758  0.3271 -0.0219 -0.3232
  292POPC   C3A 3992   6.330   5.037   6.175 -0.0406 -0.0939 -0.2068
  292POPC   C4A 3993   6.369   4.767   6.481  0.2487  0.6057  0.2497
  292POPC   C1B 3994   6.510   6.135   5.693  0.2777  0.5423 -0.0667
  292POPC   C2B 3995   6.546   5.988   6.168  0.1302  0.0626  0.2488
  292POPC   C3B 3996   6.195   6.004   6.404  0.0506 -0.1343 -0.4839
  292POPC   C4B 3997   6.213   5.755   6.892  0.1261  0.0087 -0.0348
  293POPC   NC3 3998   2.827   7.521   5.194 -0.0450  0.0482 -0.0873
  293POPC   PO4 3999   3.164   7.759   5.275 -0.2680 -0.1205 -0.1759
  293POPC   GL1 4000   2.983   7.719   5.712 -0.0676  0.3023  0.0926
  293POPC   GL2 4001   2.731   7.416   5.738  0.0158  0.0087  0.0201
  293POPC   C1A 4002   3.243   7.741   6.059 -0.0419 -0.0716  0.0603
  293POPC   D2A 4003   3.559   8.032   6.239  0.0108 -0.1986  0.0495
  293POPC   C3A 4004   3.770   8.147   6.534 -0.0734 -0.3879 -0.0812
  293POPC   C4A 4005   4.090   8.401   6.638  0.0037  0.2788 -0.0843
  293POPC   C1B 4006   2.277   7.435   5.773  0.1424  0.1707 -0.0095
  293POPC   C2B 4007   1.940   7.561   5.798  0.0858  0.1686 -0.0271
  293POPC   C3B 4008   1.605   7.441   6.093  0.3528  0.0740  0.1434
  293POPC   C4B 4009   1.199   7.186   6.318 -0.1698 -0.1765  0.0372
  294POPC   NC3 4010   0.658   8.744   3.722 -0.3520 -0.0118  0.2786
  294POPC   PO4 4011   0.828   8.883   4.130  0.2584 -0.4129  0.0659
  294POPC   GL1 4012   0.950   8.751   4.579 -0.3640 -0.0577  0.0551
  294POPC   GL2 4013   1.199   8.612   4.669 -0.0951  0.1527 -0.2129
  294POPC   C1A 4014   0.645   8.515   4.819  0.0645  0.1326 -0.0244
  294POPC   D2A 4015   0.300   8.321   4.992 -0.2298 -0.1627  0.1146
  294POPC   C3A 4016   0.204   7.934   5.031 -0.1324  0.3233 -0.0021
  294POPC   C4A 4017  -0.002   7.787   5.410 -0.2377 -0.0665 -0.0521
  294POPC   C1B 4018   0.955   8.847   5.030  0.3278  0.1481  0.1459
  294POPC   C2B 4019   0.747   8.906   5.166  0.2192  0.2845 -0.0517
  294POPC   C3B 4020   0.428   8.806   5.509 -0.1777  0.0352 -0.0601
  294POPC   C4B 4021   0.137   8.464   5.441 -0.0308  0.0475  0.0191
  295POPC   NC3 4022   3.039   4.333   4.317  0.1413 -0.1389 -0.1172
  295POPC   PO4 4023   2.871   4.174   4.648  0.2345 -0.1635 -0.1798
  295POPC   GL1 4024   2.842   4.129   5.089  0.0852  0.1552  0.0886
  295POPC   GL2 4025   3.238   4.159   5.256  0.1553  0.1939 -0.0722
  295POPC   C1A 4026   2.659   3.773   5.398 -0.0817  0.3076 -0.2036
  295POPC   D2A 4027   2.229   3.474   5.530  0.2454 -0.0561  0.0467
  295POPC   C3A 4028   1.949   3.688   5.781 -0.0154  0.1600  0.1891
  295POPC   C4A 4029   1.436   3.758   6.072 -0.3167 -0.2007  0.5905
  295POPC   C1B 4030   3.569   3.803   5.330 -0.3266 -0.0261  0.1504
  295POPC   C2B 4031   3.700   3.412   5.618 -0.0678  0.0447 -0.3258
  295POPC   C3B 4032   3.649   3.034   5.924  0.0803 -0.2287  0.3435
  295POPC   C4B 4033   3.267   2.838   6.129  0.0779 -0.3184 -0.0774
  296POPC   NC3 4034   0.355   1.562   4.670  0.1689  0.0123 -0.0303
  296POPC   PO4 4035   0.201   1.830   4.960  0.0828  0.1039  0.1873
  296POPC   GL1 4036   0.376   1.715   5.347  0.0561  0.1408  0.0307
  296POPC   GL2 4037   0.605   1.851   5.438  0.1146  0.0682  0.2380
  296POPC   C1A 4038   0.295   1.739   5.776  0.1848  0.2581  0.0420
  296POPC   D2A 4039   0.221   1.417   6.044 -0.1688 -0.0556 -0.0489
  296POPC   C3A 4040   0.440   1.333   6.348  0.0565  0.1006  0.3102
  296POPC   C4A 4041   0.493   1.554   6.722  0.0992  0.1748 -0.0436
  296POPC   C1B 4042   0.541   2.117   5.943 -0.2489 -0.0476 -0.1985
  296POPC   C2B 4043   0.648   1.984   6.271  0.1122  0.1110 -0.0784
  296POPC   C3B 4044   0.853   1.986   6.719  0.0527  0.0085  0.2267
  296POPC   C4B 4045   0.957   1.905   7.039 -0.0097  0.2872  0.0945
  297POPC   NC3 4046   7.722   2.524   5.215  0.1849 -0.2012  0.3865
  297POPC   PO4 4047   7.259   2.556   5.211  0.0032 -0.0226 -0.1273
  297POPC   GL1 4048   7.216   2.363   5.605 -0.0120 -0.0005  0.0884
  297POPC   GL2 4049   7.552   2.256   5.591  0.1540  0.0799 -0.1303
  297POPC   C1A 4050   7.236   2.592   5.928 -0.4907 -0.0734  0.1527
  297POPC   D2A 4051   6.933   2.819   5.899  0.1827  0.4191  0.2533
  297POPC   C3A 4052   6.622   2.837   6.166  0.2267  0.5603 -0.0075
  297POPC   C4A 4053   6.390   3.130   6.511 -0.0158 -0.2456 -0.0429
  297POPC   C1B 4054   7.326   2.083   5.970  0.0579  0.1947  0.0233
  297POPC   C2B 4055   7.535   1.789   6.242 -0.1098 -0.1004  0.0016
  297POPC   C3B 4056   7.753   2.036   6.708  0.2537 -0.1921  0.0884
  297POPC   C4B 4057   7.801   2.424   7.020 -0.0665 -0.1269  0.0043
  298POPC   NC3 4058   0.923   4.367   4.895  0.0758  0.0229 -0.2631
  298POPC   PO4 4059   0.578   4.417   5.076 -0.0936 -0.1088  0.2175
  298POPC   GL1 4060   0.391   4.465   5.442  0.1956  0.0564  0.1298
  298POPC   GL2 4061   0.368   4.789   5.565 -0.1946 -0.0500 -0.2177
  298POPC   C1A 4062   0.118   4.480   5.861  0.1106  0.1717  0.0543
  298POPC   D2A 4063   0.177   4.423   6.323 -0.1777 -0.1754 -0.1617
  298POPC   C3A 4064   0.355   4.093   6.498 -0.1071 -0.1759 -0.1811
  298POPC   C4A 4065   0.282   3.690   6.568  0.0010 -0.1119  0.0599
  298POPC   C1B 4066   0.286   4.906   6.015 -0.2421  0.1909  0.2208
  298POPC   C2B 4067   0.368   4.954   6.410  0.3717 -0.2092 -0.2483
  298POPC   C3B 4068   0.295   5.224   6.742 -0.0377 -0.1167 -0.3825
  298POPC   C4B 4069  -0.090   5.451   6.950  0.1358  0.1654  0.0727
  299POPC   NC3 4070   8.032   0.889   4.389 -0.0018  0.0179 -0.3421
  299POPC   PO4 4071   7.753   0.863   4.770  0.3675  0.1107 -0.0905
  299POPC   GL1 4072   7.696   0.661   5.057 -0.0498 -0.1577 -0.0255
  299POPC   GL2 4073   7.510   0.837   5.257 -0.0684 -0.1226  0.2025
  299POPC   C1A 4074   7.766   0.551   5.579  0.0225 -0.2890  0.4049
  299POPC   D2A 4075   7.956   0.651   5.962  0.0771  0.1638  0.0195
  299POPC   C3A 4076   7.752   0.466   6.313  0.2470  0.0143  0.3333
  299POPC   C4A 4077   7.540   0.120   6.391  0.0307 -0.1255  0.1413
  299POPC   C1B 4078   7.255   0.601   5.546 -0.2651 -0.2642  0.0397
  299POPC   C2B 4079   6.900   0.557   5.768  0.1186 -0.0961  0.0623
  299POPC   C3B 4080   6.563   0.438   5.791  0.0985 -0.0451  0.0942
  299POPC   C4B 4081   6.200   0.441   5.923  0.1627  0.5382 -0.0421
  300POPC   NC3 4082   9.794  10.358   3.640 -0.2614  0.2077 -0.0453
  300POPC   PO4 4083   9.380  10.391   3.953  0.2227  0.0869 -0.1825
  300POPC   GL1 4084   9.677  10.299   4.266  0.0070  0.1869  0.1424
  300POPC   GL2 4085   9.877  10.482   4.483 -0.1007  0.3622  0.1914
  300POPC   C1A 4086   9.835   9.955   4.481 -0.1201  0.1248  0.2190
  300POPC   D2A 4087  10.059   9.707   4.761  0.1674 -0.0849 -0.2804
  300POPC   C3A 4088   9.971   9.683   5.247  0.0876 -0.4075  0.0761
  300POPC   C4A 4089  10.106   9.893   5.707 -0.0130 -0.1433 -0.0628
  300POPC   C1B 4090   9.830  10.162   4.909  0.1168 -0.2848 -0.1753
  300POPC   C2B 4091   9.579   9.823   4.987  0.0441  0.0481 -0.1463
  300POPC   C3B 4092   9.396   9.477   5.285 -0.1953  0.1890 -0.0684
  300POPC   C4B 4093   9.722   9.283   5.449 -0.0540  0.1965 -0.1092
  301POPC   NC3 4094   1.838   8.540   4.374 -0.1589 -0.0276  0.1687
  301POPC   PO4 4095   2.270   8.586   4.511  0.1905 -0.1037  0.0430
  301POPC   GL1 4096   2.034   8.751   4.903 -0.1235 -0.0887 -0.0357
  301POPC   GL2 4097   2.175   9.094   5.111  0.0998  0.0756 -0.2075
  301POPC   C1A 4098   1.849   8.751   5.332  0.1628 -0.1905  0.0444
  301POPC   D2A 4099   2.075   8.807   5.601  0.3303  0.0823  0.0809
  301POPC   C3A 4100   2.149   9.070   5.844 -0.0707  0.0294 -0.1775
  301POPC   C4A 4101   2.358   9.348   6.149  0.0332  0.0565 -0.0324
  301POPC   C1B 4102   2.457   9.208   5.388 -0.0614  0.3104  0.2850
  301POPC   C2B 4103   2.575   9.501   5.735  0.3188  0.2022  0.0339
  301POPC   C3B 4104   2.366   9.880   5.899  0.2809  0.0406 -0.1453
  301POPC   C4B 4105   2.012   9.703   5.979 -0.0451  0.1744  0.0828
  302POPC   NC3 4106   3.630   3.297   4.395  0.1547 -0.1252 -0.4054
  302POPC   PO4 4107   3.973   3.339   4.739  0.1208  0.1534 -0.0748
  302POPC   GL1 4108   3.962   3.373   5.164  0.0118 -0.2667 -0.0227
  302POPC   GL2 4109   4.092   3.157   5.473 -0.0765  0.1883  0.3761
  302POPC   C1A 4110   4.166   3.618   5.538 -0.1548 -0.0453 -0.1258
  302POPC   D2A 4111   4.251   3.832   6.003 -0.0674 -0.1512  0.3768
  302POPC   C3A 4112   4.461   4.224   6.245 -0.0673 -0.3694  0.2361
  302POPC   C4A 4113   4.666   4.471   6.628 -0.0586 -0.3505  0.3106
  302POPC   C1B 4114   4.111   3.149   5.935  0.0315  0.1199  0.0221
  302POPC   C2B 4115   3.995   3.000   6.334  0.0535 -0.2574 -0.1290
  302POPC   C3B 4116   3.675   2.634   6.475 -0.0918  0.2250 -0.0133
  302POPC   C4B 4117   3.378   2.590   6.817 -0.2557  0.0138 -0.0152
  303POPC   NC3 4118   4.958   0.695   5.117  0.0725 -0.2447 -0.1496
  303POPC   PO4 4119   4.945   1.162   5.146 -0.0425  0.2622 -0.0222
  303POPC   GL1 4120   4.979   1.018   5.551 -0.1641  0.1743  0.3230
  303POPC   GL2 4121   5.312   1.179   5.631  0.0291 -0.0590  0.2467
  303POPC   C1A 4122   4.858   0.961   5.932  0.0036  0.1050  0.2980
  303POPC   D2A 4123   5.168   0.891   6.260  0.0463 -0.1111 -0.1607
  303POPC   C3A 4124   4.970   0.931   6.587  0.0180  0.0367  0.1018
  303POPC   C4A 4125   5.287   1.035   6.885  0.1874 -0.0507  0.2571
  303POPC   C1B 4126   5.159   1.368   5.999  0.0412 -0.2868  0.1787
  303POPC   C2B 4127   5.241   1.417   6.455  0.1337 -0.0601 -0.0640
  303POPC   C3B 4128   5.026   1.483   6.886 -0.0001  0.4425 -0.1952
  303POPC   C4B 4129   4.636   1.569   7.128 -0.1968  0.0619  0.0206
  304POPC   NC3 4130   8.314   9.552   4.270  0.3016 -0.0360 -0.2562
  304POPC   PO4 4131   7.999   9.700   4.450  0.0333 -0.0481  0.0727
  304POPC   GL1 4132   8.006   9.897   4.911  0.0952  0.3750 -0.1414
  304POPC   GL2 4133   8.371   9.931   4.866  0.1528 -0.1491 -0.1759
  304POPC   C1A 4134   8.079   9.884   5.385 -0.0641  0.1835  0.0916
  304POPC   D2A 4135   7.996   9.554   5.791  0.0560 -0.1224  0.1474
  304POPC   C3A 4136   8.289   9.401   6.164 -0.2125  0.0820  0.0395
  304POPC   C4A 4137   8.654   9.490   6.456 -0.0130 -0.1502 -0.0098
  304POPC   C1B 4138   8.545   9.845   5.239  0.1518 -0.3436 -0.2924
  304POPC   C2B 4139   8.600   9.838   5.679 -0.0152 -0.3480  0.1852
  304POPC   C3B 4140   8.834   9.621   5.955 -0.0895 -0.1988 -0.1782
  304POPC   C4B 4141   8.857   9.186   6.067 -0.1276 -0.1233  0.3625
  305POPC   NC3 4142   1.963   6.468   4.688 -0.0272 -0.1019  0.1881
  305POPC   PO4 4143   2.367   6.659   4.982  0.0805 -0.4454  0.2084
  305POPC   GL1 4144   2.462   6.573   5.339 -0.1722  0.0379 -0.1563
  305POPC   GL2 4145   2.873   6.586   5.301 -0.2769 -0.0251  0.4925
  305POPC   C1A 4146   2.268   6.512   5.674 -0.0287 -0.0423  0.1080
  305POPC   D2A 4147   2.077   6.454   6.181  0.1028  0.2098  0.0518
  305POPC   C3A 4148   2.237   6.080   6.390  0.1564  0.0856  0.0039
  305POPC   C4A 4149   2.074   5.699   6.517 -0.0938 -0.1251 -0.2088
  305POPC   C1B 4150   2.769   6.601   5.763 -0.0286  0.1743  0.2816
  305POPC   C2B 4151   2.874   6.956   5.947 -0.4859 -0.1008  0.0331
  305POPC   C3B 4152   3.061   7.188   6.208 -0.2420  0.0587  0.1774
  305POPC   C4B 4153   3.322   7.480   6.557 -0.0325  0.2034  0.0053
  306POPC   NC3 4154   1.575   5.867   4.472  0.2903 -0.0279  0.1174
  306POPC   PO4 4155   1.218   6.069   4.190 -0.4172 -0.2660 -0.0952
  306POPC   GL1 4156   1.088   6.002   4.566  0.0637  0.2583 -0.1694
  306POPC   GL2 4157   1.186   5.914   4.918 -0.3552 -0.0162 -0.1181
  306POPC   C1A 4158   0.746   6.070   4.900  0.1141 -0.0536 -0.0257
  306POPC   D2A 4159   0.372   5.982   5.029 -0.3129 -0.2696  0.0830
  306POPC   C3A 4160   0.314   6.244   5.419  0.2390  0.2457  0.2676
  306POPC   C4A 4161   0.295   6.253   5.824 -0.2956 -0.0788  0.2365
  306POPC   C1B 4162   1.201   5.932   5.362  0.0482  0.2643 -0.2462
  306POPC   C2B 4163   1.286   6.123   5.741  0.0399  0.4176 -0.2501
  306POPC   C3B 4164   1.057   6.213   6.188 -0.1709 -0.0867 -0.0389
  306POPC   C4B 4165   1.173   6.032   6.562  0.2571  0.3720 -0.1500
  307POPC   NC3 4166   8.750   4.879   4.980 -0.0615  0.0148 -0.1766
  307POPC   PO4 4167   9.097   4.933   4.726 -0.1663 -0.1053  0.2209
  307POPC   GL1 4168   9.172   5.110   5.117  0.0508  0.0212  0.1229
  307POPC   GL2 4169   8.907   5.233   5.290  0.4510 -0.1049 -0.3854
  307POPC   C1A 4170   9.407   5.117   5.425  0.1038  0.3098 -0.2118
  307POPC   D2A 4171   9.488   5.041   5.799 -0.0494 -0.1269 -0.1104
  307POPC   C3A 4172   9.701   5.313   6.088 -0.3382  0.1354  0.0994
  307POPC   C4A 4173  10.150   5.659   6.248  0.0283 -0.0727 -0.0033
  307POPC   C1B 4174   8.993   5.356   5.721 -0.0969  0.2268  0.0162
  307POPC   C2B 4175   9.231   5.503   6.089  0.1172  0.0209  0.0169
  307POPC   C3B 4176   9.420   5.373   6.556 -0.1933  0.0050 -0.0435
  307POPC   C4B 4177   9.523   5.632   6.938  0.1396 -0.1469 -0.1230
  308POPC   NC3 4178   6.737   9.777   4.238  0.1590 -0.0863 -0.0119
  308POPC   PO4 4179   6.663   9.379   4.387  0.2895  0.1869  0.1123
  308POPC   GL1 4180   6.871   9.201   4.741  0.1352  0.1434 -0.2857
  308POPC   GL2 4181   6.810   9.344   4.982 -0.1980  0.0500 -0.0895
  308POPC   C1A 4182   7.292   9.027   4.936  0.0103  0.1456  0.2711
  308POPC   D2A 4183   7.652   8.836   5.221  0.3550 -0.1259 -0.2109
  308POPC   C3A 4184   7.668   8.737   5.611  0.1320  0.4471 -0.1784
  308POPC   C4A 4185   7.606   8.482   5.926 -0.0968 -0.1838  0.1952
  308POPC   C1B 4186   7.094   9.433   5.302 -0.0201 -0.0811  0.1141
  308POPC   C2B 4187   7.147   9.521   5.692 -0.1394 -0.2245 -0.1186
  308POPC   C3B 4188   7.420   9.600   5.975  0.1069  0.0003 -0.3165
  308POPC   C4B 4189   7.798   9.486   6.281  0.1068 -0.0160  0.0246
  309POPC   NC3 4190   2.805   1.483   4.843  0.0404 -0.0922 -0.0875
  309POPC   PO4 4191   2.783   1.134   5.053  0.1133  0.0178  0.0917
  309POPC   GL1 4192   2.681   1.391   5.363  0.0420  0.0755  0.0583
  309POPC   GL2 4193   2.363   1.319   5.458 -0.0043 -0.0605 -0.2327
  309POPC   C1A 4194   2.583   1.758   5.405 -0.1137  0.1275  0.2492
  309POPC   D2A 4195   2.407   1.944   5.758  0.1747 -0.0189 -0.0824
  309POPC   C3A 4196   2.645   1.953   6.055 -0.1171 -0.3247  0.0977
  309POPC   C4A 4197   3.109   1.946   6.100  0.2720  0.1307 -0.0628
  309POPC   C1B 4198   2.345   1.352   5.876 -0.1630 -0.0945  0.3665
  309POPC   C2B 4199   2.627   1.452   6.280 -0.5451  0.3603 -0.0171
  309POPC   C3B 4200   2.970   1.499   6.310  0.1931 -0.2533 -0.1729
  309POPC   C4B 4201   3.424   1.504   6.319 -0.1954 -0.0370 -0.1894
  310POPC   NC3 4202   8.519   1.998   5.315 -0.0422 -0.1129 -0.1462
  310POPC   PO4 4203   8.750   1.738   5.224  0.1242 -0.1526 -0.1095
  310POPC   GL1 4204   8.773   1.434   5.585 -0.2037  0.0082  0.0587
  310POPC   GL2 4205   8.542   1.187   5.652 -0.2117 -0.3930  0.3999
  310POPC   C1A 4206   8.900   1.022   5.989  0.0590  0.1974  0.5363
  310POPC   D2A 4207   8.890   0.855   6.353  0.0258 -0.2105  0.0644
  310POPC   C3A 4208   8.602   0.632   6.668 -0.0012 -0.1336 -0.1103
  310POPC   C4A 4209   8.253   0.376   6.782  0.0928  0.1449  0.0887
  310POPC   C1B 4210   8.355   1.132   5.993  0.0568 -0.2211 -0.1023
  310POPC   C2B 4211   8.022   1.109   6.230  0.1445  0.3902  0.0298
  310POPC   C3B 4212   7.960   0.801   6.640 -0.2121 -0.0877 -0.0661
  310POPC   C4B 4213   7.786   0.472   6.877 -0.0610 -0.1488 -0.0434
  311POPC   NC3 4214   9.884   6.758   3.579 -0.1940 -0.0721  0.3206
  311POPC   PO4 4215  10.281   6.580   3.570 -0.0778  0.2112  0.1967
  311POPC   GL1 4216  10.223   6.479   3.996  0.1834  0.1746 -0.3143
  311POPC   GL2 4217  10.471   6.269   4.146 -0.1438 -0.1105  0.1343
  311POPC   C1A 4218  10.049   6.623   4.372 -0.1995  0.1324 -0.1397
  311POPC   D2A 4219   9.969   6.365   4.699 -0.0244  0.0556  0.1173
  311POPC   C3A 4220   9.620   6.366   5.015  0.1263 -0.0336  0.1181
  311POPC   C4A 4221   9.412   6.706   5.205  0.4825 -0.0631 -0.1471
  311POPC   C1B 4222  10.652   6.381   4.569  0.0144  0.1356 -0.2100
  311POPC   C2B 4223  10.624   6.603   5.059 -0.1197  0.1580 -0.0103
  311POPC   C3B 4224  10.356   6.745   5.350 -0.1016 -0.1201  0.0241
  311POPC   C4B 4225  10.126   6.867   5.720 -0.0102 -0.1091  0.2890
  312POPC   NC3 4226   1.429   2.372   5.167  0.4122 -0.1149  0.2504
  312POPC   PO4 4227   0.987   2.280   5.125  0.0334  0.1896 -0.1775
  312POPC   GL1 4228   0.942   2.441   5.582  0.2178 -0.6469  0.2494
  312POPC   GL2 4229   1.230   2.330   5.619  0.0633  0.2724  0.0101
  312POPC   C1A 4230   0.917   2.472   6.053 -0.0004 -0.0345 -0.0221
  312POPC   D2A 4231   0.895   2.393   6.444 -0.0039 -0.0174 -0.4623
  312POPC   C3A 4232   0.840   2.631   6.888  0.2587  0.4849  0.2309
  312POPC   C4A 4233   0.579   2.660   7.226 -0.0751 -0.2699 -0.1579
  312POPC   C1B 4234   1.067   1.984   5.832 -0.0801 -0.0547  0.0527
  312POPC   C2B 4235   1.122   1.712   6.187 -0.1286 -0.1547  0.2299
  312POPC   C3B 4236   1.350   1.522   6.553 -0.2068 -0.3076 -0.1949
  312POPC   C4B 4237   1.028   1.485   6.809  0.0909  0.6396  0.2860
  313POPC   NC3 4238   1.188   0.163   4.087 -0.0108  0.2806  0.0622
  313POPC   PO4 4239   1.209   0.035   4.497  0.1940 -0.2419 -0.1319
  313POPC   GL1 4240   1.132  -0.146   4.902 -0.0409  0.0628 -0.1045
  313POPC   GL2 4241   1.305   0.086   5.140 -0.1048  0.0218 -0.2179
  313POPC   C1A 4242   1.062  -0.412   5.328 -0.0556  0.0397  0.1400
  313POPC   D2A 4243   0.966  -0.603   5.705  0.4022  0.0932  0.0586
  313POPC   C3A 4244   1.039  -0.972   5.874  0.0253  0.0422  0.1243
  313POPC   C4A 4245   1.136  -1.388   6.070  0.1704 -0.0402 -0.1763
  313POPC   C1B 4246   0.914   0.089   5.391  0.2571 -0.0918 -0.1328
  313POPC   C2B 4247   0.682   0.216   5.733  0.2391  0.0479  0.1772
  313POPC   C3B 4248   0.502   0.577   5.906  0.5381  0.3077  0.0185
  313POPC   C4B 4249   0.590   0.992   6.042  0.1228  0.1652 -0.1173
  314POPC   NC3 4250   3.328   9.037   5.009  0.1157 -0.0668 -0.1057
  314POPC   PO4 4251   3.729   9.239   4.898  0.1911 -0.0581 -0.1667
  314POPC   GL1 4252   3.806   9.072   5.361 -0.0707 -0.0701  0.0954
  314POPC   GL2 4253   3.615   9.244   5.469  0.1074 -0.0311  0.0429
  314POPC   C1A 4254   3.981   8.862   5.691 -0.2500  0.2283  0.2087
  314POPC   D2A 4255   4.504   8.987   5.632 -0.1924  0.3186  0.0185
  314POPC   C3A 4256   4.674   8.613   5.582  0.1164  0.1734  0.1243
  314POPC   C4A 4257   5.023   8.303   5.761 -0.0688 -0.0682  0.0034
  314POPC   C1B 4258   3.543   9.139   5.846  0.0785  0.6074  0.1346
  314POPC   C2B 4259   3.434   8.970   6.238  0.4434 -0.1628 -0.0796
  314POPC   C3B 4260   3.168   8.941   6.588 -0.1923  0.0612  0.0721
  314POPC   C4B 4261   3.172   8.710   6.968  0.2491 -0.0701 -0.0828
  315POPC   NC3 4262   8.135   6.659   4.072 -0.2813  0.1145 -0.0471
  315POPC   PO4 4263   8.060   6.922   3.845  0.2677 -0.2634 -0.0206
  315POPC   GL1 4264   8.084   7.183   4.216  0.0160 -0.2966 -0.1384
  315POPC   GL2 4265   8.409   7.054   4.197  0.0093  0.1742  0.0118
  315POPC   C1A 4266   8.167   7.136   4.631 -0.0450 -0.2474  0.0515
  315POPC   D2A 4267   8.238   7.055   5.083 -0.0578  0.1847  0.1345
  315POPC   C3A 4268   8.576   7.076   5.425  0.2055 -0.0975 -0.1116
  315POPC   C4A 4269   9.048   6.905   5.490 -0.4101 -0.1373 -0.1543
  315POPC   C1B 4270   8.421   7.489   4.000  0.1315  0.0457 -0.2206
  315POPC   C2B 4271   8.520   7.888   4.092  0.2148  0.1977 -0.0332
  315POPC   C3B 4272   8.968   8.011   4.130 -0.1636 -0.2434 -0.0170
  315POPC   C4B 4273   9.332   8.090   3.929  0.0951  0.0890 -0.3833
  316POPC   NC3 4274   7.865   5.280   4.725  0.1685  0.1092  0.4446
  316POPC   PO4 4275   8.326   5.329   4.664 -0.4679 -0.0206  0.1293
  316POPC   GL1 4276   8.401   5.306   5.085  0.1106  0.0599  0.1678
  316POPC   GL2 4277   7.999   5.550   5.186 -0.2525 -0.1152  0.0830
  316POPC   C1A 4278   8.371   5.284   5.622  0.1082  0.0101 -0.1476
  316POPC   D2A 4279   8.330   5.356   6.019  0.2510  0.0462  0.1755
  316POPC   C3A 4280   8.757   5.414   6.160  0.0610 -0.1762 -0.0575
  316POPC   C4A 4281   8.929   5.709   6.436  0.0974 -0.1920 -0.0644
  316POPC   C1B 4282   8.015   5.630   5.579  0.2465  0.2293  0.1795
  316POPC   C2B 4283   8.185   5.840   5.912 -0.1139  0.0496  0.2098
  316POPC   C3B 4284   8.448   5.872   6.301 -0.2413 -0.0933  0.1893
  316POPC   C4B 4285   8.446   5.589   6.597 -0.2674  0.2028  0.1931
  317POPC   NC3 4286   2.604   2.841   4.895 -0.0782 -0.1021  0.0436
  317POPC   PO4 4287   2.796   2.551   4.828 -0.0364 -0.1015 -0.1677
  317POPC   GL1 4288   2.959   2.671   5.277  0.0055 -0.2247 -0.3701
  317POPC   GL2 4289   2.774   2.887   5.426 -0.1222  0.0416 -0.1812
  317POPC   C1A 4290   3.055   2.556   5.702 -0.2066  0.0831 -0.1913
  317POPC   D2A 4291   2.943   2.471   6.157 -0.1747  0.0174  0.1420
  317POPC   C3A 4292   3.334   2.301   6.421  0.1343 -0.1179 -0.1459
  317POPC   C4A 4293   3.575   1.962   6.429  0.0045  0.1480  0.0226
  317POPC   C1B 4294   2.372   2.952   5.635 -0.0754  0.2947  0.2200
  317POPC   C2B 4295   2.016   3.160   5.838  0.1323 -0.0242  0.3705
  317POPC   C3B 4296   1.906   3.358   6.226 -0.0205 -0.1156 -0.1671
  317POPC   C4B 4297   1.881   3.470   6.606  0.0762  0.1626  0.2218
  318POPC   NC3 4298   2.996   8.584   4.526 -0.0462  0.1015 -0.0497
  318POPC   PO4 4299   3.198   8.547   4.972  0.2183 -0.0570 -0.1703
  318POPC   GL1 4300   3.057   8.426   5.372 -0.3954  0.1852  0.2074
  318POPC   GL2 4301   3.228   8.202   5.535 -0.1364  0.0143  0.1447
  318POPC   C1A 4302   2.776   8.412   5.760 -0.0603  0.1100 -0.0593
  318POPC   D2A 4303   2.715   8.052   6.065 -0.2878  0.1315  0.2026
  318POPC   C3A 4304   3.009   7.951   6.387  0.0945 -0.4214 -0.2814
  318POPC   C4A 4305   3.017   7.816   6.715  0.2833  0.2017 -0.1942
  318POPC   C1B 4306   3.248   8.264   5.891  0.1440  0.1036 -0.1270
  318POPC   C2B 4307   3.377   8.443   6.362  0.4548  0.0713 -0.0545
  318POPC   C3B 4308   3.165   8.293   6.747 -0.0793  0.0772 -0.1035
  318POPC   C4B 4309   2.784   8.240   6.958 -0.0180 -0.1500  0.0519
  319POPC   NC3 4310  10.319   5.156   4.447  0.1486 -0.0632  0.0216
  319POPC   PO4 4311  10.476   5.470   4.539 -0.0499  0.1711 -0.0046
  319POPC   GL1 4312  10.234   5.612   4.696  0.1694 -0.1946 -0.0765
  319POPC   GL2 4313  10.225   5.900   4.533  0.1319  0.1226 -0.0594
  319POPC   C1A 4314  10.245   5.632   5.090  0.0763 -0.0314 -0.1271
  319POPC   D2A 4315  10.449   5.867   5.395  0.0909 -0.2746  0.0689
  319POPC   C3A 4316  10.560   5.826   5.822 -0.0938 -0.0294 -0.0105
  319POPC   C4A 4317  10.559   5.973   6.203 -0.0078 -0.2411  0.3430
  319POPC   C1B 4318  10.334   6.111   4.956  0.1164 -0.0674 -0.2712
  319POPC   C2B 4319  10.139   6.338   5.168 -0.0032  0.0594 -0.0401
  319POPC   C3B 4320   9.879   6.677   5.385 -0.0932  0.0629 -0.0067
  319POPC   C4B 4321   9.559   6.937   5.637  0.0472  0.3963  0.2402
  320POPC   NC3 4322   3.863   8.387   4.798  0.0568  0.2266  0.3152
  320POPC   PO4 4323   3.708   8.726   5.000 -0.1282  0.0745 -0.0626
  320POPC   GL1 4324   3.581   8.568   5.413 -0.0861 -0.0845  0.0906
  320POPC   GL2 4325   3.409   8.767   5.440  0.2579 -0.0114 -0.1640
  320POPC   C1A 4326   3.620   8.581   5.899  0.1008 -0.1855  0.1861
  320POPC   D2A 4327   3.880   8.664   6.242  0.0381 -0.0207 -0.2977
  320POPC   C3A 4328   3.691   8.618   6.663 -0.0314  0.1139  0.0089
  320POPC   C4A 4329   3.567   8.378   6.962 -0.2862 -0.1526 -0.3099
  320POPC   C1B 4330   3.145   8.726   5.846  0.4322 -0.0563 -0.1011
  320POPC   C2B 4331   2.913   8.598   6.258  0.0490  0.0259  0.1243
  320POPC   C3B 4332   2.716   8.735   6.732 -0.3793  0.1456 -0.1092
  320POPC   C4B 4333   2.475   8.692   7.078 -0.1319 -0.0711 -0.0351
  321POPC   NC3 4334   1.517   7.031   3.979 -0.0018 -0.0291 -0.0179
  321POPC   PO4 4335   1.358   6.919   4.359  0.1926 -0.2145 -0.0933
  321POPC   GL1 4336   1.018   6.622   4.662 -0.0190  0.1581 -0.0586
  321POPC   GL2 4337   1.119   6.454   4.860 -0.1979  0.1634 -0.2374
  321POPC   C1A 4338   0.631   6.538   4.970 -0.0427  0.2039  0.2258
  321POPC   D2A 4339   0.526   6.959   5.256  0.1562  0.1122 -0.0335
  321POPC   C3A 4340   0.691   7.034   5.640  0.2425  0.0544 -0.0584
  321POPC   C4A 4341   0.873   7.190   5.953  0.0738  0.4357 -0.1734
  321POPC   C1B 4342   1.393   6.371   5.245  0.1901  0.2756  0.0252
  321POPC   C2B 4343   1.698   5.983   5.409  0.0616  0.1874 -0.0586
  321POPC   C3B 4344   2.013   5.950   5.760 -0.0237 -0.0054  0.2650
  321POPC   C4B 4345   2.175   5.689   5.979 -0.0237 -0.0460  0.3073
  322POPC   NC3 4346   5.738   3.573   4.168  0.0582 -0.0337 -0.1543
  322POPC   PO4 4347   5.832   3.524   4.681  0.1354 -0.1917  0.2266
  322POPC   GL1 4348   5.835   3.900   4.893  0.1362  0.0951 -0.0460
  322POPC   GL2 4349   5.751   3.674   5.161 -0.1886 -0.0868  0.0366
  322POPC   C1A 4350   5.756   4.268   5.060  0.1652  0.0686  0.0182
  322POPC   D2A 4351   6.019   4.458   5.228  0.1212  0.2800 -0.1262
  322POPC   C3A 4352   6.325   4.232   5.246 -0.2241  0.3572  0.4943
  322POPC   C4A 4353   6.807   4.393   5.289 -0.1997 -0.0393 -0.1672
  322POPC   C1B 4354   5.899   3.933   5.502  0.1124 -0.1699  0.2945
  322POPC   C2B 4355   5.677   3.981   5.881 -0.0496  0.2128 -0.0423
  322POPC   C3B 4356   5.692   4.229   6.204 -0.0010  0.0046 -0.0295
  322POPC   C4B 4357   5.960   4.583   6.314 -0.4441 -0.2160 -0.2101
  323POPC   NC3 4358   6.651   6.884   4.605  0.2739 -0.1054  0.0537
  323POPC   PO4 4359   6.471   6.478   4.461 -0.1006 -0.1250 -0.3248
  323POPC   GL1 4360   6.662   6.365   4.894  0.0729 -0.3074 -0.0484
  323POPC   GL2 4361   6.782   6.598   5.109 -0.1057 -0.1537 -0.4938
  323POPC   C1A 4362   6.783   6.165   5.282  0.1117 -0.2805  0.0030
  323POPC   D2A 4363   7.204   6.071   5.482  0.1721 -0.0838 -0.0639
  323POPC   C3A 4364   7.405   6.193   5.879 -0.0903 -0.0425  0.0872
  323POPC   C4A 4365   7.753   6.085   6.019  0.0045 -0.2186 -0.0181
  323POPC   C1B 4366   7.090   6.619   5.521 -0.2180  0.0710 -0.0420
  323POPC   C2B 4367   7.370   6.775   5.824 -0.2498  0.2359  0.0795
  323POPC   C3B 4368   7.475   6.946   6.223 -0.3810 -0.5841 -0.1227
  323POPC   C4B 4369   7.560   6.860   6.681  0.0657 -0.2747  0.0119
  324POPC   NC3 4370   8.013  10.184   4.465 -0.1424 -0.0611  0.3491
  324POPC   PO4 4371   8.224  10.039   4.059  0.3304  0.0422  0.1909
  324POPC   GL1 4372   8.587   9.994   4.374  0.0316 -0.3579 -0.1508
  324POPC   GL2 4373   8.646  10.246   4.572  0.1517 -0.0279 -0.0853
  324POPC   C1A 4374   8.800   9.696   4.730  0.1290 -0.2208  0.1536
  324POPC   D2A 4375   8.860   9.355   5.135 -0.3215  0.1651  0.2097
  324POPC   C3A 4376   8.535   9.065   5.207 -0.5567  0.0101  0.4280
  324POPC   C4A 4377   8.199   8.916   5.285  0.1584  0.3936 -0.1864
  324POPC   C1B 4378   8.810  10.266   5.010 -0.0786 -0.0100  0.2581
  324POPC   C2B 4379   8.906  10.216   5.473 -0.2205 -0.2514 -0.2213
  324POPC   C3B 4380   9.024  10.139   5.819 -0.0398  0.2674 -0.1377
  324POPC   C4B 4381   9.347   9.898   5.997  0.3110  0.1875 -0.2578
  325POPC   NC3 4382   4.007   0.904   5.138 -0.0044  0.1646  0.1957
  325POPC   PO4 4383   3.706   0.512   5.199 -0.0664 -0.0533 -0.2330
  325POPC   GL1 4384   3.703   0.365   5.728  0.1217 -0.0966  0.0315
  325POPC   GL2 4385   3.831   0.678   5.762  0.0787 -0.0182 -0.3340
  325POPC   C1A 4386   3.597   0.043   5.953 -0.1688 -0.3913  0.2077
  325POPC   D2A 4387   3.735  -0.247   6.239 -0.1929  0.0501 -0.2480
  325POPC   C3A 4388   3.733  -0.293   6.682  0.1985 -0.0769 -0.0459
  325POPC   C4A 4389   4.058  -0.266   7.094  0.0329 -0.1802  0.0036
  325POPC   C1B 4390   3.959   0.949   6.106  0.0627 -0.2436  0.0550
  325POPC   C2B 4391   3.672   1.130   6.457  0.0890 -0.2461  0.2204
  325POPC   C3B 4392   3.862   1.119   6.878 -0.0530 -0.1383  0.0018
  325POPC   C4B 4393   3.945   0.976   7.319  0.0456  0.0592  0.0606
  326POPC   NC3 4394   3.967   0.398   4.832 -0.0618 -0.1866  0.1236
  326POPC   PO4 4395   3.964   0.002   5.130 -0.0942  0.4132  0.0189
  326POPC   GL1 4396   3.853  -0.143   5.553 -0.1906 -0.3822 -0.0447
  326POPC   GL2 4397   4.079  -0.059   5.735 -0.0715  0.0430 -0.1102
  326POPC   C1A 4398   3.941  -0.499   5.782 -0.4633  0.2727  0.0109
  326POPC   D2A 4399   4.136  -0.665   6.194 -0.1839  0.5625  0.4066
  326POPC   C3A 4400   4.113  -1.013   6.515 -0.1263 -0.2211 -0.1020
  326POPC   C4A 4401   4.291  -1.080   6.918 -0.0136  0.1956 -0.1299
  326POPC   C1B 4402   4.201   0.282   5.914  0.2376 -0.0539  0.3416
  326POPC   C2B 4403   3.849   0.445   6.269 -0.0104  0.0096  0.2938
  326POPC   C3B 4404   3.633   0.680   6.605  0.2835  0.1018 -0.0751
  326POPC   C4B 4405   3.616   0.612   7.059 -0.0144  0.1558 -0.0135
  327POPC   NC3 4406   2.338   3.365   4.685 -0.0713  0.0978 -0.1458
  327POPC   PO4 4407   2.787   3.234   4.656 -0.1005  0.0724  0.1740
  327POPC   GL1 4408   2.898   3.325   5.082  0.1549  0.0114 -0.4329
  327POPC   GL2 4409   2.566   3.273   5.137  0.0719 -0.3485 -0.0967
  327POPC   C1A 4410   3.093   3.571   5.412  0.0560 -0.0558  0.1578
  327POPC   D2A 4411   3.223   3.883   5.775  0.2009  0.1511 -0.0694
  327POPC   C3A 4412   3.252   4.288   5.896  0.3173 -0.2917  0.1393
  327POPC   C4A 4413   3.151   4.611   6.207 -0.0295  0.0696  0.1919
  327POPC   C1B 4414   2.700   3.365   5.623  0.2482  0.0515  0.0692
  327POPC   C2B 4415   2.772   3.779   5.971  0.1106 -0.2455 -0.3784
  327POPC   C3B 4416   2.877   3.717   6.358 -0.0207  0.1337 -0.2692
  327POPC   C4B 4417   3.092   3.573   6.730 -0.1918 -0.1049  0.2510
  328POPC   NC3 4418   4.616   1.483   4.994  0.1421 -0.1918  0.1928
  328POPC   PO4 4419   5.049   1.633   4.968 -0.4882 -0.2156 -0.1154
  328POPC   GL1 4420   4.957   1.512   5.441  0.1642  0.0627 -0.1497
  328POPC   GL2 4421   5.127   1.690   5.623 -0.2327 -0.3148  0.2373
  328POPC   C1A 4422   4.620   1.364   5.637 -0.0729 -0.0728 -0.1948
  328POPC   D2A 4423   4.409   1.222   5.926 -0.1599 -0.0043 -0.1468
  328POPC   C3A 4424   4.233   1.403   6.154  0.1205 -0.0449  0.0131
  328POPC   C4A 4425   3.933   1.583   6.478  0.0582 -0.0916 -0.0238
  328POPC   C1B 4426   5.112   1.827   6.126  0.1018  0.2109 -0.3141
  328POPC   C2B 4427   4.905   1.836   6.535 -0.0818 -0.1012  0.2270
  328POPC   C3B 4428   4.554   2.178   6.636 -0.0998 -0.3963  0.2566
  328POPC   C4B 4429   4.448   2.473   6.933  0.2405  0.0382 -0.2559
  329POPC   NC3 4430   3.207   1.832   4.066 -0.1255 -0.0948 -0.1744
  329POPC   PO4 4431   2.973   1.807   4.507 -0.0620  0.2895 -0.1430
  329POPC   GL1 4432   3.002   1.955   5.014 -0.0126 -0.2355 -0.0779
  329POPC   GL2 4433   2.899   2.189   5.158  0.2287 -0.0578  0.1045
  329POPC   C1A 4434   3.088   1.702   5.395  0.0800 -0.1516  0.2404
  329POPC   D2A 4435   3.325   1.453   5.647 -0.4371 -0.1182  0.0976
  329POPC   C3A 4436   3.414   1.127   5.971  0.1484  0.0380 -0.2250
  329POPC   C4A 4437   3.300   0.872   6.302  0.0999 -0.0871  0.1311
  329POPC   C1B 4438   3.308   2.225   5.357 -0.3993  0.1136 -0.3602
  329POPC   C2B 4439   3.615   1.966   5.505  0.0895 -0.2794 -0.2265
  329POPC   C3B 4440   3.945   2.191   5.723  0.3187  0.5537  0.1720
  329POPC   C4B 4441   3.990   2.444   5.381  0.2593 -0.0315  0.0372
  330POPC   NC3 4442   4.043   6.067   4.537 -0.0672  0.1502  0.0606
  330POPC   PO4 4443   4.242   6.387   4.894 -0.2893  0.1368 -0.4464
  330POPC   GL1 4444   4.387   6.552   5.268 -0.1521 -0.0765  0.2860
  330POPC   GL2 4445   4.655   6.681   5.353 -0.2271  0.5291  0.1132
  330POPC   C1A 4446   4.312   6.648   5.699  0.1138 -0.3784  0.0179
  330POPC   D2A 4447   4.425   6.516   6.097 -0.0925  0.1592 -0.3331
  330POPC   C3A 4448   4.562   6.711   6.506 -0.0052 -0.0924  0.0528
  330POPC   C4A 4449   4.277   6.476   6.900  0.1735 -0.2564 -0.0883
  330POPC   C1B 4450   4.749   6.354   5.728  0.0025 -0.0421  0.1981
  330POPC   C2B 4451   4.809   6.188   6.190  0.2991  0.0646 -0.0527
  330POPC   C3B 4452   5.169   6.071   6.388 -0.3019 -0.1528 -0.2145
  330POPC   C4B 4453   5.611   5.993   6.202 -0.2374 -0.4924 -0.2418
  331POPC   NC3 4454   9.563   3.470   4.579  0.3927  0.0033 -0.4045
  331POPC   PO4 4455   9.294   3.611   4.991  0.0673 -0.2031  0.1606
  331POPC   GL1 4456   9.122   3.774   5.390  0.0880  0.0966  0.0234
  331POPC   GL2 4457   9.175   4.080   5.535 -0.0155  0.1705 -0.1211
  331POPC   C1A 4458   9.225   3.543   5.794 -0.4129 -0.1189  0.0443
  331POPC   D2A 4459   9.086   3.521   6.285 -0.2869 -0.1045 -0.0124
  331POPC   C3A 4460   9.340   3.649   6.593 -0.0101 -0.1052 -0.0511
  331POPC   C4A 4461   9.634   3.568   6.941  0.1795  0.0723 -0.0843
  331POPC   C1B 4462   9.388   3.993   5.833  0.0886 -0.2648  0.2414
  331POPC   C2B 4463   9.378   4.098   6.205  0.1989 -0.3668  0.0009
  331POPC   C3B 4464   9.330   4.408   6.597  0.1894 -0.0244  0.2495
  331POPC   C4B 4465   9.717   4.634   6.781 -0.2550  0.0994  0.0622
  332POPC   NC3 4466   5.453   6.110   5.011 -0.2349 -0.2564 -0.0722
  332POPC   PO4 4467   5.859   5.870   4.997  0.2924  0.1483  0.1684
  332POPC   GL1 4468   5.806   5.604   5.341  0.1336  0.0511 -0.0028
  332POPC   GL2 4469   5.966   5.667   5.526 -0.2009 -0.0293 -0.0981
  332POPC   C1A 4470   5.552   5.323   5.481  0.0622  0.2578  0.3024
  332POPC   D2A 4471   5.183   5.083   5.536 -0.1323 -0.1701  0.0409
  332POPC   C3A 4472   4.896   5.075   5.342  0.1818  0.2594  0.2386
  332POPC   C4A 4473   4.573   5.060   5.551 -0.0063 -0.1080  0.0708
  332POPC   C1B 4474   5.636   5.607   5.922 -0.0884 -0.3157  0.1408
  332POPC   C2B 4475   5.249   5.648   6.109  0.0039 -0.0039  0.3243
  332POPC   C3B 4476   5.263   5.538   6.461  0.1941 -0.0624  0.0528
  332POPC   C4B 4477   4.974   5.346   6.837  0.0272 -0.0477 -0.4942
  333POPC   NC3 4478   6.087   1.548   4.887 -0.1045 -0.0477 -0.0682
  333POPC   PO4 4479   5.830   1.242   5.013 -0.3180 -0.3040  0.0018
  333POPC   GL1 4480   5.801   1.112   5.446 -0.2409 -0.1445  0.0565
  333POPC   GL2 4481   5.801   1.378   5.700  0.1757 -0.2373 -0.0302
  333POPC   C1A 4482   5.910   0.742   5.693  0.1136 -0.2159  0.0308
  333POPC   D2A 4483   5.719   0.305   5.856  0.0327 -0.0966 -0.1705
  333POPC   C3A 4484   5.811   0.019   6.166  0.1033 -0.4003  0.0616
  333POPC   C4A 4485   5.912  -0.040   6.570  0.0432  0.1288 -0.0269
  333POPC   C1B 4486   5.672   1.150   6.088 -0.1785 -0.0349  0.0136
  333POPC   C2B 4487   5.639   1.009   6.490 -0.0376 -0.0134 -0.2039
  333POPC   C3B 4488   5.485   0.639   6.713  0.2653 -0.1786 -0.1769
  333POPC   C4B 4489   5.409   0.627   7.185 -0.0189  0.1206  0.1498
  334POPC   NC3 4490   4.081   6.851   4.992  0.1100  0.1605 -0.1844
  334POPC   PO4 4491   4.264   7.294   4.956 -0.0588  0.2224 -0.0804
  334POPC   GL1 4492   4.449   7.126   5.378  0.4341 -0.0044  0.2281
  334POPC   GL2 4493   4.172   7.039   5.442 -0.0173  0.1916  0.0561
  334POPC   C1A 4494   4.652   7.041   5.729 -0.1819  0.2576 -0.4328
  334POPC   D2A 4495   4.410   7.041   6.086 -0.1286  0.2189 -0.1032
  334POPC   C3A 4496   4.102   7.359   6.289 -0.3969 -0.1535  0.0380
  334POPC   C4A 4497   3.761   7.617   6.303 -0.0980  0.0846  0.1810
  334POPC   C1B 4498   4.071   7.185   5.775 -0.0134  0.1092  0.1182
  334POPC   C2B 4499   3.922   6.894   6.093  0.0816 -0.4037 -0.0654
  334POPC   C3B 4500   4.036   6.561   6.455 -0.5570 -0.2312 -0.1014
  334POPC   C4B 4501   3.785   6.376   6.788 -0.2226  0.4033  0.1660
  335POPC   NC3 4502   6.367  10.270   4.891  0.0413 -0.2555 -0.2183
  335POPC   PO4 4503   6.423   9.958   5.246 -0.3631  0.1382 -0.0433
  335POPC   GL1 4504   6.505   9.633   5.472  0.3621 -0.0604 -0.0911
  335POPC   GL2 4505   6.697   9.674   5.621  0.0232  0.0007  0.1018
  335POPC   C1A 4506   6.259   9.436   5.674 -0.0505 -0.0683  0.1805
  335POPC   D2A 4507   6.210   9.255   6.106 -0.1242  0.1574  0.1598
  335POPC   C3A 4508   6.646   9.088   6.300  0.1244  0.2345 -0.1513
  335POPC   C4A 4509   6.911   8.769   6.193 -0.0381  0.1564 -0.0425
  335POPC   C1B 4510   6.463   9.758   6.061  0.0532  0.0954 -0.0542
  335POPC   C2B 4511   6.477   9.522   6.462  0.2821 -0.0100 -0.0093
  335POPC   C3B 4512   6.473   9.584   6.955 -0.4184  0.2257  0.2172
  335POPC   C4B 4513   6.594   9.443   7.318 -0.1559 -0.0563  0.3686
  336POPC   NC3 4514   5.348   9.481   5.068  0.2418 -0.3043 -0.1972
  336POPC   PO4 4515   5.511   9.942   5.119 -0.0385  0.1314 -0.1115
  336POPC   GL1 4516   5.738   9.649   5.319 -0.2419  0.1215  0.2155
  336POPC   GL2 4517   5.976   9.771   5.389 -0.0435 -0.0403 -0.1870
  336POPC   C1A 4518   5.739   9.487   5.693  0.0284 -0.2107  0.0205
  336POPC   D2A 4519   5.803   9.565   6.144 -0.2534 -0.0718  0.1818
  336POPC   C3A 4520   5.497   9.589   6.462 -0.5658 -0.0158 -0.0364
  336POPC   C4A 4521   5.142   9.651   6.658 -0.0434 -0.1818 -0.3043
  336POPC   C1B 4522   6.068   9.850   5.784 -0.0536 -0.0619 -0.0082
  336POPC   C2B 4523   6.107  10.032   6.230 -0.1733 -0.0373 -0.1607
  336POPC   C3B 4524   5.970  10.001   6.723  0.1530  0.0784 -0.1215
  336POPC   C4B 4525   5.742   9.874   7.113 -0.2165  0.2925  0.1599
  337POPC   NC3 4526   0.724   1.802   4.932 -0.1727  0.1773 -0.5085
  337POPC   PO4 4527   0.936   1.589   5.061  0.0239  0.2863  0.0560
  337POPC   GL1 4528   1.192   1.619   5.426  0.2774 -0.1202  0.0080
  337POPC   GL2 4529   1.313   1.873   5.381 -0.1574  0.1196 -0.0531
  337POPC   C1A 4530   1.405   1.503   5.713 -0.2204  0.1698  0.2557
  337POPC   D2A 4531   1.585   1.417   6.136 -0.0519  0.0955 -0.1107
  337POPC   C3A 4532   1.578   0.983   6.349  0.0450 -0.0410  0.3658
  337POPC   C4A 4533   1.738   0.718   6.618 -0.2206 -0.0395 -0.2133
  337POPC   C1B 4534   1.564   2.012   5.785 -0.0466 -0.0460 -0.2786
  337POPC   C2B 4535   1.557   1.973   6.220  0.1462  0.1506 -0.0159
  337POPC   C3B 4536   1.358   2.040   6.558  0.0315 -0.1866 -0.0113
  337POPC   C4B 4537   1.276   2.349   6.850 -0.1540  0.2669  0.1435
  338W        W 4538   8.435   6.732   0.854 -0.0294  0.0248  0.1868
  339W        W 4539   2.389   2.234  10.127  0.0270 -0.0891  0.0022
  340W        W 4540   2.657   0.444  10.672  0.0491 -0.0291 -0.2404
  341W        W 4541   1.077   2.245   9.558 -0.0105 -0.0213 -0.0364
  342W        W 4542   5.454   4.263   9.748  0.2750 -0.1620  0.2297
  343W        W 4543   5.722   0.227   4.541 -0.1577 -0.2277 -0.0295
  344W        W 4544   7.678   6.613   2.055 -0.2772  0.2621  0.0080
  345W        W 4545   0.475   3.348   1.830  0.1379  0.0018 -0.3125
  346W        W 4546   6.974   4.950  13.398  0.2564  0.3976  0.7649
  347W        W 4547   0.559   6.719  10.910 -0.3473 -0.0653  0.0841
  348W        W 4548  10.232   2.219  11.797 -0.0006 -0.1066  0.1359
  349W        W 4549   2.922   0.347  10.194 -0.0826 -0.2850 -0.4410
  350W        W 4550   5.137  10.102  12.614 -0.2690  0.0594 -0.3364
  351W        W 4551   9.701   0.110  10.055  0.0319  0.1172  0.2600
  352W        W 4552   8.608   7.463  10.490  0.0141 -0.1513  0.1328
  353W        W 4553   6.713   1.601  13.105  0.2481  0.1481  0.0205
  354W        W 4554   6.559   5.860   2.082  0.1336  0.1970 -0.3006
  355W        W 4555   7.527   5.304   4.293 -0.0147 -0.2580  0.1197
  356W        W 4556   5.563   5.726   1.948 -0.1981 -0.2408  0.0342
  357W        W 4557   9.905   2.691  11.439  0.0572 -0.0585  0.1106
  358W        W 4558   8.341   3.233   2.327 -0.2463 -0.0786  0.0240
  359W        W 4559   7.680   5.805   9.157 -0.0842 -0.0021 -0.2043
  360W        W 4560   4.201   3.398  12.300 -0.4223 -0.2730 -0.1262
  361W        W 4561   6.358  10.383  11.367 -0.0346 -0.3380 -0.2916
  362W        W 4562   7.165   2.021   4.196  0.0568 -0.1649 -0.0727
  363W        W 4563   8.657   6.626   4.250  0.0223 -0.0163 -0.0425
  364W        W 4564   0.774   4.077  12.081 -0.1806 -0.2153 -0.1699
  365W        W 4565   0.658   8.487   1.093 -0.1148 -0.3285  0.0067
  366W        W 4566   3.210   5.546   9.995  0.1733  0.0694 -0.0661
  367W        W 4567   0.051   4.134  12.267 -0.1589 -0.2247 -0.0796
  368W        W 4568   6.265   7.810   0.990 -0.0625  0.1511 -0.1692
  369W        W 4569   3.989   3.905   1.678 -0.3269  0.0652 -0.2524
  370W        W 4570   5.876  10.419  12.842 -0.2341  0.0382  0.0264
  371W        W 4571   3.109   3.057  10.726 -0.1265  0.1501 -0.2537
  372W        W 4572   7.330   8.856  12.864  0.0751  0.1450 -0.4055
  373W        W 4573   3.122   9.445  12.073 -0.0504 -0.1333 -0.0181
  374W        W 4574   3.640   9.458  12.216  0.1812  0.1073 -0.0858
  375W        W 4575   7.111   6.920  11.466  0.0685  0.0478 -0.0403
  376W        W 4576   1.399  10.027  12.985 -0.1020  0.0497  0.3415
  377W        W 4577   8.010   1.546  10.919  0.1849 -0.3991 -0.3393
  378W        W 4578   8.735   0.998  11.054 -0.1050 -0.1415  0.1948
  379W        W 4579   4.895   9.730  11.757 -0.0129 -0.1668 -0.1930
  380W        W 4580   6.613   3.599   2.626  0.2154  0.0292 -0.2061
  381W        W 4581   9.677   4.181  10.124  0.0415  0.1619 -0.0303
  382W        W 4582   8.454   9.301   1.007 -0.1201 -0.0154 -0.2400
  383W        W 4583   9.515   4.434   2.279  0.0667 -0.0426 -0.3571
  384W        W 4584   8.222  10.165   9.694  0.2570 -0.2473 -0.2920
  385W        W 4585   6.484   2.199  10.077  0.0467  0.3187  0.2974
  386W        W 4586   9.138   8.285   2.535  0.0532 -0.2576 -0.1504
  387W        W 4587   1.078   6.509  11.025 -0.4540  0.1508  0.0249
  388W        W 4588  10.151   4.323   3.347 -0.2350 -0.2128 -0.0663
  389W        W 4589   1.991   0.861   3.799  0.0454 -0.1827 -0.1170
  390W        W 4590   6.014   0.081  13.281 -0.1767 -0.0488  0.2127
  391W        W 4591   3.588   0.872   3.799  0.1203  0.1879 -0.4695
  392W        W 4592   2.666   3.902  13.000 -0.1474 -0.0166 -0.1237
  393W        W 4593   2.277   8.774   0.768 -0.0640  0.5733  0.0254
  394W        W 4594   8.616   5.552  11.429 -0.1097  0.2436  0.0235
  395W        W 4595   3.943   9.606   1.874  0.0180 -0.2170 -0.0129
  396W        W 4596   0.714   0.203   1.614  0.0970 -0.2490 -0.2431
  397W        W 4597   3.228   0.613  13.430  0.3154 -0.1651 -0.2665
  398W        W 4598   9.233  10.402   2.138 -0.0412  0.0293 -0.2352
  399W        W 4599   4.451   8.054   3.591 -0.1047  0.0174  0.0880
  400W        W 4600   6.555   3.844   3.240  0.1075  0.1170  0.1107
  401W        W 4601   5.432   7.436  11.550 -0.1095  0.3907  0.1386
  402W        W 4602   9.325   4.348   4.496 -0.0295 -0.0632 -0.1295
  403W        W 4603   5.401   3.000   2.945 -0.4073 -0.0764 -0.2377
  404W        W 4604   0.658   0.468   2.584  0.1408 -0.2840  0.1713
  405W        W 4605   3.981   7.203   2.114  0.1454 -0.1359  0.1995
  406W        W 4606   9.752   2.462   0.055  0.1030  0.3139  0.1099
  407W        W 4607   0.855   4.630  12.312  0.2390  0.2153 -0.3366
  408W        W 4608   6.464   9.443   9.769  0.2267 -0.0806 -0.0820
  409W        W 4609   4.670   7.974   9.248  0.2786 -0.1341  0.2385
  410W        W 4610   7.113   2.627   4.321  0.0554 -0.0862 -0.1606
  411W        W 4611   5.828   4.901  10.065 -0.2016 -0.1652 -0.1119
  412W        W 4612   7.729   2.834   2.081 -0.0421 -0.0686 -0.0775
  413W        W 4613   0.018   5.542   0.567 -0.2587 -0.1201 -0.0398
  414W        W 4614   5.649   3.852  10.167 -0.4750 -0.0751 -0.1442
  415W        W 4615   7.845   9.385  10.678  0.1564 -0.0770  0.1525
  416W        W 4616   7.639   7.915   3.709 -0.0524  0.0701 -0.0893
  417W        W 4617   3.565   2.024   3.252  0.3708  0.0314 -0.2521
  418W        W 4618   8.093   6.905   9.602 -0.2601 -0.2277 -0.1950
  419W        W 4619   7.814   7.125   2.472 -0.1214 -0.1384 -0.0140
  420W        W 4620   6.231   6.265  10.989 -0.1396  0.1849 -0.0757
  421W        W 4621   1.932   7.817  11.921  0.1646  0.2335 -0.0026
  422W        W 4622   6.125  10.469   4.353 -0.0640 -0.2521  0.2551
  423W        W 4623   2.387   9.120  12.475  0.1407 -0.3362  0.1591
  424W        W 4624   3.135   9.556   4.237 -0.3426 -0.0191 -0.2668
  425W        W 4625   9.111   1.138   1.967 -0.0514 -0.1918  0.0097
  426W        W 4626   6.764   4.118   9.471  0.0582 -0.2208 -0.1673
  427W        W 4627   5.714   0.566  11.665 -0.0901 -0.1115  0.2075
  428W        W 4628   7.131   8.309   0.549  0.1153  0.0100  0.0537
  429W        W 4629   6.764   2.016   3.576  0.3140  0.0823  0.0843
  430W        W 4630   3.717   5.659  10.076  0.1118  0.0645  0.0033
  431W        W 4631   9.950   5.182   1.804 -0.0267 -0.2984  0.1193
  432W        W 4632   1.853   7.044   0.441  0.1760  0.2649  0.0219
  433W        W 4633   7.723   5.266  11.305  0.1334  0.0171 -0.0467
  434W        W 4634   7.027   5.918   1.809  0.0859 -0.0778 -0.0115
  435W        W 4635   8.148   3.237  12.697  0.0207  0.0846  0.2271
  436W        W 4636   8.658   6.161   3.004  0.0699  0.1719 -0.0365
  437W        W 4637   0.875   6.095  13.351  0.2222  0.0803 -0.2206
  438W        W 4638   0.066   6.435  10.672  0.0578 -0.2032  0.0849
  439W        W 4639   4.325   5.990  12.787 -0.2980 -0.0948 -0.1563
  440W        W 4640   0.266   1.422   2.256 -0.1385 -0.0533  0.1693
  441W        W 4641   4.513   7.277  11.458  0.0465 -0.3944 -0.2455
  442W        W 4642   4.886   8.782   9.847  0.1467  0.0280 -0.3226
  443W        W 4643   3.192   2.776  11.176  0.1865  0.1000 -0.3107
  444W        W 4644   9.956   1.987   9.644 -0.2104 -0.2315  0.1201
  445W        W 4645   3.759   5.742  12.305  0.3902 -0.0688 -0.3202
  446W        W 4646   3.031   7.941   4.411  0.0713  0.1374  0.0497
  447W        W 4647   6.881   0.449   2.710 -0.1023 -0.1488 -0.0486
  448W        W 4648   7.737   1.686   1.267 -0.2333  0.0262  0.0389
  449W        W 4649   8.816   0.566   2.513  0.2943  0.0569 -0.0211
  450W        W 4650  10.189   7.487  12.324  0.0832 -0.1111 -0.1547
  451W        W 4651   0.152   2.316  12.375  0.0220 -0.0613  0.0949
  452W        W 4652   2.859   9.983   0.024 -0.1209 -0.2543 -0.1503
  453W        W 4653   7.917   6.038   9.604  0.1669  0.2365  0.0734
  454W        W 4654   2.437  10.356   4.180  0.2134  0.1689 -0.1341
  455W        W 4655   8.498   6.638  12.486  0.0136 -0.1515 -0.3690
  456W        W 4656   6.703   3.742  10.529 -0.3005 -0.0394  0.1907
  457W        W 4657   5.483   9.783   0.133 -0.1431 -0.1530  0.1495
  458W        W 4658   9.482   1.748   2.415 -0.0401  0.0603  0.1740
  459W        W 4659   6.422   7.042   0.964  0.0361  0.1021  0.1699
  460W        W 4660   9.921   1.398   2.368 -0.4427 -0.0396  0.0364
  461W        W 4661   8.000   5.598   0.858 -0.0465 -0.0783  0.0015
  462W        W 4662   9.553   2.110   4.621  0.2062  0.1407 -0.2356
  463W        W 4663   7.856   9.382  12.711  0.1626  0.2618  0.0154
  464W        W 4664   2.007   4.222  11.796 -0.0300 -0.3585  0.0793
  465W        W 4665   2.684   4.812  12.935  0.0765  0.2589 -0.2813
  466W        W 4666   9.499   3.096   4.940 -0.0430  0.0176  0.1881
  467W        W 4667   9.194   4.908  13.250  0.1386  0.0650  0.0890
  468W        W 4668   9.142   5.390  10.268 -0.1639 -0.0182  0.2232
  469W        W 4669   7.861   7.483   0.057 -0.0576  0.1302  0.1053
  470W        W 4670   1.379   0.325   9.984 -0.1309 -0.0297 -0.1936
  471W        W 4671   7.227   4.326   9.945 -0.1837 -0.0163  0.2138
  472W        W 4672   2.332   1.352  10.617  0.1395  0.2860  0.1143
  473W        W 4673   3.949   4.405   2.189  0.1697 -0.0122 -0.1451
  474W        W 4674   3.151   7.364  11.602 -0.2325 -0.1383  0.0173
  475W        W 4675   9.190   2.166   2.369  0.1232  0.1154 -0.0994
  476W        W 4676   5.062   8.258   8.543  0.1077 -0.3537  0.1081
  477W        W 4677   2.501   5.419   1.333 -0.0981 -0.2417 -0.0244
  478W        W 4678   4.659   6.788   3.483 -0.0805  0.0605 -0.4646
  479W        W 4679   4.932   1.522   9.100  0.1057  0.0789  0.0667
  480W        W 4680   6.749   3.336   0.947  0.1343  0.1641  0.1463
  481W        W 4681   4.965   7.798   4.978  0.1213  0.2864 -0.3502
  482W        W 4682   5.108   3.722   2.385  0.2351  0.0449  0.3056
  483W        W 4683   7.277   9.293  10.075  0.2809  0.0618 -0.0596
  484W        W 4684   7.310  10.422   2.030  0.0675 -0.1484  0.0046
  485W        W 4685   4.360   1.034  11.233  0.1489 -0.1885  0.2396
  486W        W 4686   2.736   6.426   9.540 -0.0061  0.0978 -0.0656
  487W        W 4687   7.878   2.798  11.397  0.1618  0.4621  0.0502
  488W        W 4688   6.021   3.787   3.196 -0.5167 -0.1613  0.0159
  489W        W 4689   2.061   1.708  10.883 -0.0472  0.3064  0.3086
  490W        W 4690   6.992   9.912  12.239 -0.1745  0.1416  0.1122
  491W        W 4691   0.310   5.046  10.758 -0.0609 -0.0062 -0.0340
  492W        W 4692   0.388   2.231   1.823  0.0512 -0.1497  0.0328
  493W        W 4693   1.600   2.508  12.172 -0.1261  0.0222  0.0764
  494W        W 4694   2.296   7.886  10.022  0.1018  0.2268 -0.1811
  495W        W 4695   5.976   0.580   3.358 -0.2598 -0.4031  0.1492
  496W        W 4696   7.169   0.584  10.095 -0.4270  0.1240 -0.2518
  497W        W 4697   5.198   5.806   0.884  0.2360  0.4198  0.1411
  498W        W 4698   3.817   1.780   2.884 -0.2768  0.0335  0.0564
  499W        W 4699   1.643   6.037  13.246  0.0166 -0.0407 -0.1865
  500W        W 4700   0.641   2.398   9.894  0.0287  0.1159  0.4286
  501W        W 4701   7.251   9.588  11.418  0.2530  0.3281  0.1452
  502W        W 4702   5.372   9.369  10.923 -0.0455 -0.1567 -0.1806
  503W        W 4703   2.741   2.555  13.255  0.2176  0.1196  0.0565
  504W        W 4704   5.217   5.841   2.230  0.3087  0.2575 -0.1215
  505W        W 4705   4.963   0.036  12.409  0.1967 -0.1702 -0.1362
  506W        W 4706   2.852   2.771   4.374 -0.3299 -0.0444  0.0945
  507W        W 4707   1.941   8.116   3.715  0.1445  0.0706  0.0428
  508W        W 4708   7.384   0.479   2.072 -0.0346 -0.1221 -0.1792
  509W        W 4709   7.603   2.226   4.346  0.1518  0.2161 -0.1492
  510W        W 4710   9.193   2.041   9.792 -0.2675 -0.1476  0.1191
  511W        W 4711   6.246   1.912   1.717 -0.0209  0.1086 -0.0588
  512W        W 4712   5.446   5.741   4.701 -0.1253  0.1381  0.0355
  513W        W 4713   3.827   0.676   9.708  0.0697  0.2416 -0.1602
  514W        W 4714   2.127   0.753  11.121 -0.2256  0.0045  0.2976
  515W        W 4715   8.138   3.385   0.715 -0.1778 -0.0936 -0.0581
  516W        W 4716   4.273   3.636   9.117  0.4219  0.2462  0.3224
  517W        W 4717   4.711   6.092   0.866 -0.5293 -0.1741 -0.2830
  518W        W 4718   9.468   8.251  13.139 -0.0732 -0.0229 -0.1653
  519W        W 4719   5.147   0.306  13.346  0.0383  0.1192 -0.0059
  520W        W 4720   2.736   3.515   0.458 -0.2672 -0.0830 -0.0257
  521W        W 4721   6.178   3.020   4.618 -0.0609  0.3099 -0.2242
  522W        W 4722   6.377   6.477   0.674  0.2656  0.2564 -0.1662
  523W        W 4723   4.958   0.703   0.917 -0.1527 -0.1125 -0.3581
  524W        W 4724   7.130   2.006  10.507  0.0788  0.2523  0.0942
  525W        W 4725  10.148   5.928   2.399  0.2584 -0.2323 -0.0464
  526W        W 4726   3.872  10.411   0.459  0.1363  0.0837 -0.1588
  527W        W 4727   1.937   6.519   0.527  0.0122  0.0960 -0.1457
  528W        W 4728   5.086   5.876  12.009  0.0192 -0.1988 -0.0048
  529W        W 4729   0.764  10.315  11.317 -0.0175  0.2031 -0.3088
  530W        W 4730   0.333   3.729  12.463  0.2004 -0.3521 -0.2660
  531W        W 4731   9.969   9.544   7.486 -0.0662  0.1355 -0.0255
  532W        W 4732   0.073   1.304   0.386  0.1044  0.0144 -0.1124
  533W        W 4733   4.343   5.837   0.618 -0.2020 -0.2137  0.0310
  534W        W 4734   0.247   3.713   4.008  0.0019 -0.1246  0.0019
  535W        W 4735   0.465   2.063   9.552 -0.2081  0.1235  0.1953
  536W        W 4736   0.643  10.388  13.353 -0.2749 -0.0614  0.0014
  537W        W 4737   9.159   3.733   1.403  0.3734  0.2080  0.2314
  538W        W 4738   0.185   2.447  10.167 -0.0428  0.0821 -0.0865
  539W        W 4739   9.805   4.350   5.157 -0.2866  0.0734 -0.3763
  540W        W 4740   7.926   0.231  12.999  0.0933  0.1052 -0.1679
  541W        W 4741   4.142  10.161   9.295  0.0643 -0.0598  0.2615
  542W        W 4742   8.071   5.677   0.273 -0.0265 -0.0050 -0.2338
  543W        W 4743   1.330   6.868   1.314  0.1442  0.1638 -0.2082
  544W        W 4744   3.369   0.225   2.559 -0.1311 -0.0790  0.0325
  545W        W 4745   6.679   4.344  12.577  0.1053  0.1379 -0.1565
  546W        W 4746  10.037   0.183   1.843 -0.0920 -0.1099 -0.0633
  547W        W 4747   2.684   8.343   1.345  0.1770 -0.2513  0.0220
  548W        W 4748   0.183   9.744   1.559 -0.1030  0.3324 -0.3795
  549W        W 4749   7.205   1.568  10.848 -0.1706 -0.2686  0.3187
  550W        W 4750   8.297   1.341   4.296 -0.0162 -0.2108 -0.2729
  551W        W 4751   8.714   3.332   9.256  0.1464  0.1853 -0.0344
  552W        W 4752   2.074   4.448   1.391  0.1521 -0.1172  0.1714
  553W        W 4753   7.466   2.974   9.059  0.0472  0.0268 -0.1434
  554W        W 4754   3.969   8.208  12.937 -0.0482 -0.3238  0.2335
  555W        W 4755  10.249   1.029  12.590 -0.3492  0.0030  0.1808
  556W        W 4756   4.864   7.628  11.325  0.1629 -0.1371 -0.3067
  557W        W 4757   2.333   2.173   1.437  0.0352  0.2027 -0.0795
  558W        W 4758   9.831   7.480  11.245  0.1808  0.1165 -0.0064
  559W        W 4759  10.133  10.330   1.117 -0.1237  0.0269  0.0202
  560W        W 4760   4.422   7.796  11.314  0.3522 -0.0134 -0.1993
  561W        W 4761   5.614   7.748   1.385  0.2432  0.0228  0.0287
  562W        W 4762   3.932   7.596  11.308 -0.0391 -0.0286 -0.0513
  563W        W 4763   3.791   3.911   0.576 -0.0359 -0.2350  0.1346
  564W        W 4764   9.511   9.779   9.759  0.1280 -0.1404 -0.1049
  565W        W 4765   4.364   4.852   1.009 -0.2466  0.1234  0.1471
  566W        W 4766   6.677   5.469   1.641  0.0298  0.0199 -0.0523
  567W        W 4767   4.258   1.605   3.107  0.3850 -0.0147  0.0079
  568W        W 4768   8.965   7.902  10.318 -0.1163 -0.0596  0.2175
  569W        W 4769   8.343   5.469  10.703 -0.1352  0.1226  0.0002
  570W        W 4770   5.831   2.492  13.058 -0.0479 -0.2066 -0.2496
  571W        W 4771   4.312   6.896  11.154 -0.0655 -0.0510  0.0306
  572W        W 4772   1.049   1.507  10.883 -0.0390 -0.1368 -0.0143
  573W        W 4773   2.523   1.702   2.750 -0.1709 -0.1109  0.3924
  574W        W 4774   2.106   8.096   4.696  0.1339 -0.1298 -0.0078
  575W        W 4775   4.656   6.180  10.796 -0.1825  0.1284 -0.2556
  576W        W 4776   0.631   8.717   2.853  0.1282 -0.2223  0.1416
  577W        W 4777   8.998   5.062  12.147  0.3156 -0.1501 -0.0418
  578W        W 4778   2.047   8.732   2.587 -0.2045  0.0614  0.1416
  579W        W 4779   0.197   9.070  10.016  0.1520 -0.0635 -0.0565
  580W        W 4780   4.579   7.329   2.923  0.0811  0.2499  0.1583
  581W        W 4781   8.062   8.033   0.605  0.2101  0.1327 -0.3061
  582W        W 4782   6.676   0.688  10.923  0.1553 -0.0107 -0.1127
  583W        W 4783   7.964   1.574  12.808  0.0730 -0.1925  0.0088
  584W        W 4784   5.974   0.973  11.465 -0.1418  0.4270 -0.2189
  585W        W 4785   1.017   6.608  13.208 -0.1009  0.0438  0.0692
  586W        W 4786   2.419   7.158   4.195 -0.1810  0.1995 -0.3604
  587W        W 4787   4.346   9.440  11.770  0.1618  0.2050  0.1763
  588W        W 4788   8.053   3.794  10.644  0.1383  0.2624 -0.3996
  589W        W 4789   9.071   2.922   1.485  0.0180 -0.3785  0.0777
  590W        W 4790   3.740   7.642   2.973  0.0268 -0.0361 -0.1004
  591W        W 4791   7.583   9.206  13.136 -0.0737 -0.2272 -0.0389
  592W        W 4792  10.409   6.359  11.627  0.0583 -0.1054 -0.1902
  593W        W 4793   0.712   2.403   3.719  0.1032 -0.3293 -0.2494
  594W        W 4794   7.953   9.870   8.905  0.0153 -0.0630  0.1405
  595W        W 4795   3.385   4.835   8.278 -0.2126 -0.0628 -0.1086
  596W        W 4796   5.780   8.794  12.005  0.4523 -0.1812 -0.4320
  597W        W 4797   8.675   3.316  13.445 -0.0094  0.0884 -0.1396
  598W        W 4798   1.667   0.063   4.274  0.0078 -0.1002  0.2455
  599W        W 4799   4.634  10.009   2.354  0.0285  0.1226  0.2786
  600W        W 4800   3.582   5.970  11.283 -0.0479 -0.0161 -0.1283
  601W        W 4801   4.732   0.027   0.912  0.1646  0.0182 -0.2715
  602W        W 4802  10.256  10.339   3.310  0.0348  0.1740  0.0994
  603W        W 4803   4.098   8.912   2.603 -0.2312 -0.2701  0.1035
  604W        W 4804   2.970   3.824   0.871 -0.0961  0.3545  0.0711
  605W        W 4805   4.946   4.476  11.439 -0.2212  0.0730  0.0422
  606W        W 4806   2.475   8.527  12.139  0.4552 -0.1598  0.1678
  607W        W 4807   3.896   5.484   0.942  0.2888 -0.2024  0.1606
  608W        W 4808  10.197   8.146   1.180 -0.1056  0.0922 -0.0549
  609W        W 4809   0.862   6.947  10.030 -0.1068 -0.1381  0.1047
  610W        W 4810   7.622   9.848  11.950 -0.0095  0.1866  0.2269
  611W        W 4811   9.589  10.135  10.747  0.1583 -0.0931 -0.1542
  612W        W 4812   6.448   4.508   1.647  0.3117  0.1890  0.0353
  613W        W 4813  10.073   3.636  10.888 -0.0843  0.0580 -0.0791
  614W        W 4814   4.905   1.431  11.995 -0.0124  0.1317  0.1364
  615W        W 4815   2.130   9.878  11.882  0.4261  0.1639 -0.0589
  616W        W 4816   2.382   3.656   2.153 -0.4206 -0.1830  0.1330
  617W        W 4817   1.840   7.928   0.869 -0.1841 -0.0250 -0.1704
  618W        W 4818   7.243   1.012   0.498  0.1787 -0.0675  0.0166
  619W        W 4819   5.894   6.566  11.737 -0.0542 -0.0230  0.0904
  620W        W 4820   6.140   7.949  11.882  0.0527  0.2414  0.1033
  621W        W 4821   2.270   6.950   0.714 -0.1140 -0.1805  0.2981
  622W        W 4822   4.655   0.634   1.926  0.0428  0.1279 -0.2445
  623W        W 4823   5.583   2.803   1.411 -0.2671 -0.0488 -0.1537
  624W        W 4824   1.748   5.703   0.842 -0.1126 -0.0050  0.0234
  625W        W 4825   3.296   3.330   2.918  0.1927 -0.1072  0.2334
  626W        W 4826   9.345   8.881   5.794 -0.0523  0.3603  0.1826
  627W        W 4827   6.630   8.192   2.294 -0.2726 -0.4765 -0.0834
  628W        W 4828   3.326   9.969   4.657 -0.0038  0.1347  0.2528
  629W        W 4829   1.242   2.193   2.174 -0.1325  0.2606  0.1584
  630W        W 4830   7.363   9.286   9.052 -0.2793  0.1435  0.0479
  631W        W 4831   0.139   1.740   1.710 -0.2129 -0.0318  0.1340
  632W        W 4832   6.089   9.967  10.395 -0.0402  0.0227 -0.2116
  633W        W 4833   3.648   1.456   2.045  0.0831 -0.0712 -0.0263
  634W        W 4834   4.066   0.935   0.230  0.3652 -0.1518  0.2258
  635W        W 4835   0.953   9.855   3.391 -0.2293 -0.2795 -0.0673
  636W        W 4836   7.395   9.202   0.194 -0.3830 -0.4226  0.2402
  637W        W 4837   3.279  10.026  13.197  0.2323 -0.2396 -0.0100
  638W        W 4838   0.316   7.118   7.119 -0.2243  0.2539 -0.0791
  639W        W 4839   2.806   1.099   3.778 -0.1195  0.2249  0.4653
  640W        W 4840   2.924   8.920  10.729 -0.0638 -0.0290  0.0448
  641W        W 4841   1.793   0.121   3.323  0.2700 -0.0327  0.1576
  642W        W 4842   2.665   5.084   0.227  0.0953 -0.1378  0.0546
  643W        W 4843   6.424   3.282  10.373  0.0039 -0.3343  0.0349
  644W        W 4844   0.659   5.041  10.006  0.2147 -0.1122 -0.2042
  645W        W 4845   4.851   8.038   0.950 -0.2487  0.2195  0.0436
  646W        W 4846   7.094   4.877  10.765 -0.1130 -0.1412  0.1125
  647W        W 4847   8.691   4.734   9.212  0.1268 -0.0235 -0.1315
  648W        W 4848   1.891   7.042   3.356 -0.2401  0.3936  0.0447
  649W        W 4849   8.733   3.465   2.773  0.0193 -0.1365 -0.0636
  650W        W 4850   3.791   0.811   1.647  0.3082 -0.0458  0.0335
  651W        W 4851   0.859   0.744  11.634 -0.3801  0.2100  0.1498
  652W        W 4852   0.235   7.483  13.390  0.2133  0.0470 -0.0912
  653W        W 4853   3.483   8.740   4.538 -0.1019 -0.1517  0.1487
  654W        W 4854   9.325   8.287   1.270  0.1195  0.0279 -0.2096
  655W        W 4855   1.919   6.195   1.762  0.1967  0.1392 -0.0985
  656W        W 4856   7.775   6.847   1.573  0.0538 -0.0859 -0.1590
  657W        W 4857   9.534   4.288  12.041 -0.0615  0.2048  0.2358
  658W        W 4858   0.207  10.391   4.116 -0.0127  0.0571  0.0964
  659W        W 4859   6.232   2.706  12.794  0.1353  0.1093  0.0834
  660W        W 4860   9.793   2.471  10.424  0.0060  0.0583  0.3357
  661W        W 4861   9.681  10.246   0.977  0.0061  0.2318 -0.2737
  662W        W 4862   0.995   3.112   2.130 -0.4852  0.0132 -0.0440
  663W        W 4863   8.016   1.429   2.458  0.0338 -0.2222 -0.1096
  664W        W 4864   8.069   7.240   1.404  0.0260  0.2093 -0.1984
  665W        W 4865   1.179   8.682   9.555 -0.1252  0.0782  0.2510
  666W        W 4866   1.877   0.737  13.120 -0.4072  0.1089 -0.1476
  667W        W 4867   1.612   5.833   9.753 -0.1066  0.0025 -0.0824
  668W        W 4868   8.217   2.794  10.184  0.2055 -0.3709 -0.1012
  669W        W 4869   7.421   4.777   0.154  0.1374  0.0259 -0.0283
  670W        W 4870   2.394   8.364  10.506  0.0441  0.1661 -0.3306
  671W        W 4871   1.232   8.979  13.165 -0.1873  0.0307 -0.2413
  672W        W 4872   3.084   7.245   0.697 -0.2262 -0.0440 -0.3999
  673W        W 4873   6.786   6.680   0.813 -0.1780 -0.1877  0.2644
  674W        W 4874   5.000   8.052  10.386  0.1889  0.1102 -0.2091
  675W        W 4875   5.443   3.251   4.429 -0.2635  0.0021  0.1322
  676W        W 4876   7.120   2.341   9.561  0.3262 -0.2393  0.1356
  677W        W 4877   7.189   1.847  11.256  0.1003 -0.2299 -0.0903
  678W        W 4878   5.834   6.336  10.610 -0.0229 -0.0478 -0.0548
  679W        W 4879   7.398   3.138   1.840  0.1572 -0.0782 -0.6649
  680W        W 4880   0.303   7.325   1.845  0.0729  0.0149 -0.2340
  681W        W 4881   2.171   2.085   4.166 -0.2228  0.1424 -0.2033
  682W        W 4882   5.603  10.105   8.862 -0.0911 -0.2718 -0.0224
  683W        W 4883   5.855   0.543   8.889 -0.2544 -0.0686  0.0727
  684W        W 4884   1.697   3.999   3.034 -0.0286 -0.3124 -0.0938
  685W        W 4885   4.211   8.013  12.527 -0.0193 -0.0709 -0.2873
  686W        W 4886   4.116   4.161   3.552  0.2272 -0.0125 -0.1357
  687W        W 4887   1.824   6.911  13.345  0.1089 -0.0434 -0.0912
  688W        W 4888   7.324   2.746   2.517 -0.0128 -0.1074 -0.0445
  689W        W 4889   3.871   7.723   0.899  0.1405  0.1280  0.0021
  690W        W 4890   2.374   3.540  12.866 -0.0067  0.1723  0.0046
  691W        W 4891   1.897   9.476  10.260 -0.2735  0.1287  0.2229
  692W        W 4892   2.303  10.350   5.190  0.1313  0.2143  0.1839
  693W        W 4893   2.985   4.097  11.669  0.0845  0.1018  0.1110
  694W        W 4894   5.318   2.660   9.720  0.0706  0.0347  0.0604
  695W        W 4895  10.007   2.825  12.952  0.0238 -0.1355  0.2636
  696W        W 4896   5.802   2.518   9.572  0.0107 -0.0238 -0.0208
  697W        W 4897   2.859   5.658  13.397  0.0269  0.0519  0.2847
  698W        W 4898   7.257   7.109  12.526 -0.2805 -0.0145 -0.1769
  699W        W 4899   8.912   8.834  10.532  0.0956  0.0037 -0.1426
  700W        W 4900   0.036   1.429  10.124 -0.1525 -0.3015  0.1468
  701W        W 4901   2.209   5.227   0.429  0.1182  0.0884 -0.0113
  702W        W 4902   9.790   2.972  10.843  0.2360 -0.3988  0.1012
  703W        W 4903   1.146   7.160   2.172  0.1796  0.1357 -0.1529
  704W        W 4904   5.383   7.683  12.454 -0.1084 -0.0460 -0.1736
  705W        W 4905   6.065   0.936   2.907 -0.0549 -0.1516 -0.2871
  706W        W 4906   1.236   6.376   2.759 -0.0485 -0.1007 -0.1402
  707W        W 4907   3.677   0.066   1.276 -0.0842 -0.0823 -0.1679
  708W        W 4908   4.386   8.946   4.251 -0.1219 -0.0294 -0.0279
  709W        W 4909   5.798   9.568  11.199 -0.0434  0.2491 -0.2277
  710W        W 4910   9.974   3.637   8.418 -0.0387 -0.2754  0.1424
  711W        W 4911   7.045   0.413   0.976 -0.1827 -0.3226 -0.0406
  712W        W 4912   2.708   4.686   4.866 -0.1085 -0.2383 -0.0456
  713W        W 4913   0.513   1.244   5.085 -0.0582  0.3606  0.1865
  714W        W 4914   5.218   7.020   4.207 -0.0276 -0.2190  0.0495
  715W        W 4915   3.733   3.520   1.509 -0.0466  0.2153  0.0256
  716W        W 4916   2.782   0.635  12.107  0.1586 -0.2164 -0.1067
  717W        W 4917   5.530   8.623   4.856 -0.0013  0.2036  0.0055
  718W        W 4918   9.348   5.033   2.194 -0.2027 -0.0155 -0.1677
  719W        W 4919   6.639   0.215   3.177 -0.4661 -0.1002  0.1282
  720W        W 4920   8.211   9.240   1.419  0.0075 -0.1635  0.1050
  721W        W 4921   1.717   5.422  11.623  0.0006  0.0387  0.1579
  722W        W 4922   8.210  10.349   1.829 -0.3403 -0.0753 -0.1478
  723W        W 4923   8.521   1.783   3.226  0.0952  0.2101  0.1683
  724W        W 4924   9.101   1.880   0.036  0.0491 -0.1217 -0.3440
  725W        W 4925   2.418   6.756  10.356  0.1485 -0.0352 -0.3125
  726W        W 4926   8.119   9.977  13.141 -0.2115  0.1557  0.2674
  727W        W 4927   5.332   4.247  10.925  0.2829  0.3790  0.3674
  728W        W 4928   1.150   4.080   1.720  0.1195  0.0178 -0.0598
  729W        W 4929   7.342  10.464   9.372  0.0936  0.1606  0.2774
  730W        W 4930   0.149   2.303  11.050  0.0534  0.0488 -0.0513
  731W        W 4931   9.235   9.060   3.306  0.0184 -0.0137 -0.2032
  732W        W 4932   5.772   4.994   3.340  0.0998 -0.1886 -0.0565
  733W        W 4933   4.682   4.541   8.695 -0.1116 -0.1003 -0.0734
  734W        W 4934   4.421   2.195  12.124 -0.0386  0.0700  0.2333
  735W        W 4935   5.443   6.293  10.266  0.0935 -0.0906 -0.1941
  736W        W 4936   0.102   6.477   0.073 -0.1831 -0.0664  0.0675
  737W        W 4937   1.145   3.315   3.686  0.0660 -0.1994  0.1894
  738W        W 4938   0.968   3.716   3.389  0.1175 -0.1077  0.0451
  739W        W 4939   6.124   1.794   2.445 -0.2217 -0.3527 -0.0180
  740W        W 4940   7.323   2.061   3.674 -0.0272  0.1044 -0.2180
  741W        W 4941   2.385   6.330  10.577 -0.3427  0.0289 -0.0174
  742W        W 4942   4.761   2.567  10.046 -0.0525  0.1200 -0.1282
  743W        W 4943   3.528   6.270   2.964 -0.0752 -0.0462  0.0368
  744W        W 4944   8.427   0.626  10.321  0.0392  0.0330  0.0673
  745W        W 4945   8.637   3.908   1.450 -0.0953  0.1349  0.1898
  746W        W 4946   4.353   2.876   3.859 -0.1340 -0.1508 -0.1652
  747W        W 4947   6.344   7.451  12.743 -0.0530  0.1137 -0.1757
  748W        W 4948   7.370   8.695   2.645  0.0174 -0.1542 -0.4445
  749W        W 4949   6.677   1.839  12.045 -0.0201  0.4204  0.1673
  750W        W 4950   9.312   2.044   9.256 -0.0310  0.0409 -0.3633
  751W        W 4951   9.174   0.915   3.798 -0.0131  0.1498  0.1130
  752W        W 4952   5.580   2.367   2.799 -0.0535  0.1395  0.2944
  753W        W 4953   0.148   3.425   0.513  0.0309 -0.2024 -0.2778
  754W        W 4954   4.533   5.012  12.817  0.2053 -0.1897 -0.1791
  755W        W 4955   3.374   1.472   2.855 -0.0293 -0.3021  0.0909
  756W        W 4956   5.796   4.055   0.454 -0.3052  0.1827  0.0174
  757W        W 4957   4.411   0.743   2.977 -0.0558 -0.0832 -0.0478
  758W        W 4958   6.071   5.372  11.497 -0.1675 -0.1489  0.0636
  759W        W 4959   3.680   5.792  10.571 -0.1870  0.0988 -0.1640
  760W        W 4960   8.529   3.225   4.782 -0.0120  0.2039  0.2316
  761W        W 4961   0.732   3.407  12.580  0.3785  0.0411 -0.3945
  762W        W 4962   8.341   3.123   1.634 -0.2511  0.3071  0.0151
  763W        W 4963   0.574   1.412   0.385  0.1731 -0.3447 -0.0595
  764W        W 4964   4.458   5.556  11.230 -0.0765 -0.0196  0.1342
  765W        W 4965   9.750   0.840  11.363 -0.2260  0.0919  0.2508
  766W        W 4966  10.267   7.720   3.393 -0.3335  0.2961  0.0198
  767W        W 4967   6.691   1.968   9.649  0.1920 -0.0918  0.2688
  768W        W 4968   0.667   5.478  11.794  0.0731 -0.1200 -0.2346
  769W        W 4969   1.577   6.751  11.174  0.1350 -0.0227 -0.0043
  770W        W 4970   1.104   3.777   3.863 -0.0699  0.0120 -0.1264
  771W        W 4971   5.962   9.465   0.035  0.2945 -0.2756 -0.0054
  772W        W 4972   3.812   2.328   9.040  0.0145  0.1026 -0.1229
  773W        W 4973  10.086   1.519  12.599 -0.0080 -0.1306  0.3133
  774W        W 4974   3.619   6.820   1.991  0.1216  0.1341 -0.0431
  775W        W 4975   4.687   2.887   1.272 -0.2570  0.2570 -0.0390
  776W        W 4976   9.358   6.644  13.261 -0.2309  0.3415 -0.0902
  777W        W 4977  10.111   2.860   3.736 -0.1075 -0.0496 -0.2895
  778W        W 4978   5.816   9.782   3.839 -0.0582  0.0086 -0.1082
  779W        W 4979   5.788   9.004   1.888  0.0964  0.0226  0.0841
  780W        W 4980   9.702   9.974   2.378  0.1725  0.0582  0.1553
  781W        W 4981   7.712   7.313  12.536  0.2491  0.0161 -0.4506
  782W        W 4982   8.837  10.137  10.470 -0.0672 -0.0145  0.1978
  783W        W 4983   5.781   4.023  11.714  0.1928 -0.1433 -0.1511
  784W        W 4984   0.478  10.364  11.806  0.0124  0.1322 -0.0671
  785W        W 4985   6.890   3.105   0.551  0.3635  0.2109  0.4630
  786W        W 4986   7.320   0.289   2.540  0.3851 -0.1241  0.2421
  787W        W 4987   1.059   8.247   2.175  0.0380  0.2581 -0.1137
  788W        W 4988   3.677   6.903   4.719  0.4554  0.2511 -0.0957
  789W        W 4989   9.324   5.937   1.282 -0.0901  0.0656  0.0642
  790W        W 4990   6.228  10.139   0.679 -0.4587  0.3034  0.0531
  791W        W 4991   1.625   1.788  10.635  0.2374  0.0398  0.2084
  792W        W 4992   2.380   6.193  11.367 -0.0402  0.4587  0.0005
  793W        W 4993   6.020   5.241   3.725 -0.1740  0.2119  0.2126
  794W        W 4994   3.155   5.220   9.514  0.0557 -0.2736  0.0615
  795W        W 4995  10.208   9.608  12.549  0.0806 -0.2363 -0.1471
  796W        W 4996  10.222   5.723  12.225 -0.0406 -0.1397  0.0457
  797W        W 4997   5.785   4.496  11.010  0.1241 -0.5390 -0.0884
  798W        W 4998   7.377   4.459   1.332  0.2532 -0.0947  0.1313
  799W        W 4999   9.409   7.741   1.650  0.0329  0.4185 -0.0122
  800W        W 5000   0.290   6.876   0.949  0.2042 -0.2854  0.0325
  801W        W 5001   1.693   1.190   0.288  0.1886 -0.0722 -0.2763
  802W        W 5002   6.277   2.304   9.576 -0.2325 -0.3193 -0.3717
  803W        W 5003   5.948   9.415  12.162 -0.1110  0.1538 -0.1267
  804W        W 5004   1.079   3.662  10.228 -0.0015  0.3254 -0.0954
  805W        W 5005   2.211   4.320  10.063  0.1825 -0.0717  0.1422
  806W        W 5006   0.558   5.576   2.821  0.0250  0.4609  0.3315
  807W        W 5007   8.378   1.077  11.654  0.1870  0.2245 -0.2979
  808W        W 5008   7.039   3.589   2.374 -0.0004  0.0521 -0.0000
  809W        W 5009   7.335   8.813   1.399 -0.0615  0.1673  0.0938
  810W        W 5010   7.013   2.792  12.244  0.1169 -0.3892  0.0665
  811W        W 5011   5.476   9.631   9.385  0.1387 -0.2092 -0.1579
  812W        W 5012   1.562   5.474   4.863  0.1385  0.1221 -0.0882
  813W        W 5013   6.106   2.532   0.074  0.0459 -0.1194  0.4909
  814W        W 5014   7.495   6.640  10.814  0.0710  0.0892 -0.1302
  815W        W 5015   0.090   1.025   4.083  0.2423 -0.0403 -0.1661
  816W        W 5016   0.683   6.219   3.400  0.1810  0.1169 -0.3945
  817W        W 5017  10.463   3.067  10.884  0.1769 -0.2823  0.1038
  818W        W 5018   2.721  10.006  10.723 -0.0962  0.3612  0.0079
  819W        W 5019   1.572   5.236   8.757  0.0706 -0.1211 -0.1213
  820W        W 5020   0.314   5.919   3.090 -0.0083 -0.2119  0.3512
  821W        W 5021   3.679   1.811  10.394 -0.2473 -0.4521  0.2420
  822W        W 5022   7.107   0.663   1.400  0.0116 -0.2753 -0.1799
  823W        W 5023   7.957   4.309  10.247 -0.0238  0.1315 -0.0837
  824W        W 5024   8.761   2.883  12.557 -0.4502  0.0492 -0.0548
  825W        W 5025   1.885  10.369  11.745  0.0065 -0.0479 -0.1115
  826W        W 5026  10.021   3.344   4.244 -0.0333  0.0733  0.1152
  827W        W 5027   9.055   4.748   4.235 -0.1427 -0.0862 -0.0814
  828W        W 5028   9.184   1.224   4.562 -0.4160  0.3359  0.1434
  829W        W 5029   1.052   0.625   0.132 -0.1095  0.0342  0.0981
  830W        W 5030   3.110   7.335   1.698 -0.1188  0.0025 -0.1054
  831W        W 5031   7.737   0.562   1.589 -0.2550 -0.1103 -0.0975
  832W        W 5032   3.794   4.895   3.847 -0.1476  0.0549  0.1839
  833W        W 5033   3.311   7.731   1.959  0.4344  0.0944  0.4384
  834W        W 5034   3.908   2.131   0.285  0.0157 -0.2172  0.1136
  835W        W 5035   4.306   5.565  11.932  0.0287 -0.0935  0.0112
  836W        W 5036   4.137  10.481   0.924  0.2298 -0.0504  0.0018
  837W        W 5037   2.054   7.358   0.077 -0.0629  0.2353  0.5203
  838W        W 5038   6.032   0.331   5.451 -0.2583 -0.0753  0.2531
  839W        W 5039   5.836   0.888   4.188 -0.1007  0.3755  0.1686
  840W        W 5040   2.208   3.839  13.229 -0.0215 -0.0325 -0.0314
  841W        W 5041   3.539   0.761  11.148  0.2019 -0.0170 -0.0761
  842W        W 5042   4.989   3.703   1.598 -0.1501 -0.1241  0.5090
  843W        W 5043   3.713   5.778   4.777 -0.0279 -0.0434 -0.0000
  844W        W 5044   2.599   0.994   9.766  0.2113 -0.0497 -0.0770
  845W        W 5045   9.713   3.430   8.804  0.0871 -0.0620 -0.0297
  846W        W 5046   5.379   0.219   2.397 -0.0719  0.2624  0.1826
  847W        W 5047   4.102   1.962  11.617 -0.1528 -0.0418  0.0654
  848W        W 5048   6.502   6.540   0.191 -0.1178  0.0663 -0.1418
  849W        W 5049   3.265   6.390   9.053  0.2066 -0.2970  0.1321
  850W        W 5050   9.312   6.870  10.933  0.0519 -0.0494  0.0445
  851W        W 5051   0.144   9.016  13.277 -0.2913 -0.0695 -0.0334
  852W        W 5052   5.810   2.861   2.430 -0.1408  0.0517  0.4025
  853W        W 5053   5.482   1.486   4.117  0.1417  0.5047 -0.0454
  854W        W 5054   0.917  10.320   9.858 -0.2487  0.0059  0.0323
  855W        W 5055   2.372   2.836   2.480  0.0504 -0.2985  0.2616
  856W        W 5056   2.796   8.839  12.658  0.0006 -0.0566 -0.1789
  857W        W 5057   7.776   7.928   2.497 -0.0631 -0.1168  0.1626
  858W        W 5058   5.735   7.129  12.161 -0.1478 -0.0143 -0.0476
  859W        W 5059   9.545   7.039   2.180 -0.0033 -0.2347  0.2362
  860W        W 5060   9.510   8.613  12.704 -0.0188 -0.0801  0.0358
  861W        W 5061   5.486   5.919  10.573 -0.2884 -0.1163  0.0073
  862W        W 5062   6.243   5.657  10.138  0.2463 -0.0311 -0.3573
  863W        W 5063   1.393   1.184  11.138  0.2949  0.0120 -0.0406
  864W        W 5064  10.247   0.189  11.079  0.0210 -0.4656  0.2308
  865W        W 5065   5.456   9.196  12.910  0.1964 -0.0815  0.1866
  866W        W 5066   2.625   6.369  11.771  0.0340  0.1051  0.1987
  867W        W 5067   4.740   5.125   9.401  0.1195  0.1600  0.1204
  868W        W 5068   7.131   5.728  11.931 -0.3604  0.3668 -0.1659
  869W        W 5069   0.378   6.939   1.480  0.1386 -0.2523 -0.2273
  870W        W 5070   7.073  10.129   1.629 -0.0163 -0.1636 -0.0799
  871W        W 5071   8.882   7.478   0.532 -0.2458 -0.0980  0.0206
  872W        W 5072   4.295   3.873  12.321 -0.0963  0.1297  0.0514
  873W        W 5073   0.457   8.425   1.759  0.0397  0.0778 -0.0300
  874W        W 5074   2.185   1.689  11.349 -0.0241  0.0712 -0.2076
  875W        W 5075   8.091   3.536  11.515 -0.4466  0.3349  0.1478
  876W        W 5076   6.427   1.278   9.131 -0.0156 -0.1491 -0.2202
  877W        W 5077   1.894   0.479  11.733 -0.0286  0.3153 -0.0865
  878W        W 5078   7.248   0.005  11.335  0.0541 -0.2828 -0.2665
  879W        W 5079   3.722   1.538  12.742 -0.0077  0.1849  0.1187
  880W        W 5080   2.046   6.383  10.123  0.2337  0.0314  0.2101
  881W        W 5081   8.316   0.060  12.004 -0.0755 -0.0354  0.2324
  882W        W 5082   4.396   3.128  13.025  0.0192  0.1411  0.2859
  883W        W 5083   6.326   3.914  11.631  0.1900  0.1261  0.2169
  884W        W 5084   6.118   5.330   4.303  0.1498  0.2099  0.1118
  885W        W 5085   1.886  10.204   8.905  0.2068  0.1008 -0.0667
  886W        W 5086   4.640   9.714   1.888 -0.0783 -0.1710 -0.2259
  887W        W 5087   8.011   5.542   3.797  0.1008  0.0708 -0.0220
  888W        W 5088   2.691   7.554   9.693  0.0910  0.2279 -0.0704
  889W        W 5089   6.320   1.724   9.920 -0.3302  0.0657  0.0391
  890W        W 5090   4.870   1.369  10.442 -0.3664  0.1399 -0.0559
  891W        W 5091   0.149   2.614   9.708 -0.0189 -0.3781  0.0072
  892W        W 5092   0.462   2.634   4.278 -0.2205  0.3085 -0.0875
  893W        W 5093   7.664   4.413   9.257  0.4517 -0.1809 -0.0056
  894W        W 5094   8.156   7.948  12.597  0.3381  0.0510 -0.0498
  895W        W 5095   2.095   1.734   2.060 -0.1368  0.3430  0.2133
  896W        W 5096   6.201   5.618   3.348  0.2019 -0.1353  0.2717
  897W        W 5097   5.949   1.819  12.336 -0.0967  0.0839 -0.0755
  898W        W 5098   4.162   1.902   9.580 -0.1789 -0.0143 -0.0569
  899W        W 5099   3.037   9.245   1.437 -0.1969  0.0154  0.3693
  900W        W 5100   4.817   8.956   9.353  0.0075  0.0128 -0.0550
  901W        W 5101   3.698  10.182   0.933  0.0523 -0.1099 -0.2194
  902W        W 5102   2.114   3.839  10.052  0.1773 -0.4899 -0.1190
  903W        W 5103   8.890   3.720   0.213 -0.3016 -0.2451  0.1146
  904W        W 5104   9.987   3.121   3.354  0.0408  0.2800 -0.2715
  905W        W 5105   7.761   8.652   1.912 -0.1868 -0.0265  0.2064
  906W        W 5106   2.316   5.440   9.189  0.1287 -0.0184  0.0353
  907W        W 5107   5.682   8.537  10.434 -0.2562 -0.0104 -0.1688
  908W        W 5108   9.614   1.935   0.335 -0.0877 -0.1371 -0.2712
  909W        W 5109   7.851   2.619   4.724  0.0794  0.0517 -0.0242
  910W        W 5110  10.053   2.610   4.349 -0.3828  0.0050  0.2248
  911W        W 5111   0.875   4.890  10.571 -0.3789 -0.2396  0.2135
  912W        W 5112   0.974   2.384   0.968 -0.1862 -0.0870  0.0652
  913W        W 5113   0.365   5.128  11.290  0.0712  0.0772 -0.3866
  914W        W 5114   2.378   2.100   9.601 -0.2469  0.0036  0.1585
  915W        W 5115   4.288   9.582   9.520  0.2277  0.0007  0.2405
  916W        W 5116   6.844   3.926   9.922 -0.0638 -0.0032  0.2952
  917W        W 5117   3.864   8.207   3.817  0.2755 -0.2197 -0.0876
  918W        W 5118   7.861   1.577   9.535 -0.1019  0.0982  0.1335
  919W        W 5119   4.898   5.063  10.261 -0.0166  0.0324  0.0688
  920W        W 5120   0.337   1.917   2.275  0.0019  0.0501 -0.2013
  921W        W 5121   8.017   5.484   4.320  0.1162 -0.1104  0.2905
  922W        W 5122  10.185   1.405  10.466  0.1564  0.0435  0.2107
  923W        W 5123   3.489   9.006   1.624  0.2354  0.0546 -0.0563
  924W        W 5124   5.675   5.588  11.740 -0.0202 -0.1856  0.2533
  925W        W 5125   1.609   7.381  10.301  0.0803  0.1143  0.0371
  926W        W 5126   3.709   5.147  10.194 -0.3521  0.3436  0.1966
  927W        W 5127   6.680   2.552   2.352 -0.2480  0.1300  0.3495
  928W        W 5128   0.937   6.488   2.090 -0.0008 -0.3753  0.0146
  929W        W 5129   7.030   7.323   2.040 -0.1823 -0.1933 -0.0118
  930W        W 5130   2.231   0.488   2.698 -0.0077 -0.1058 -0.1043
  931W        W 5131   6.937   5.753   0.082 -0.1020 -0.5148 -0.1804
  932W        W 5132  10.238   8.616  12.075  0.2300 -0.2341  0.1010
  933W        W 5133   1.726   4.208   1.043 -0.1682 -0.1032 -0.1920
  934W        W 5134   1.113   0.760  11.226  0.3587  0.0324 -0.2560
  935W        W 5135   0.548   8.830   1.487 -0.3447 -0.1691 -0.3712
  936W        W 5136   4.398   6.251   9.512  0.3470  0.0959 -0.1362
  937W        W 5137   0.319   9.310  10.454 -0.0225  0.0682 -0.4811
  938W        W 5138   0.367   3.828  11.952  0.0784  0.2833  0.1635
  939W        W 5139   1.260   4.831   0.450  0.2502 -0.2557  0.1434
  940W        W 5140   2.755   1.554  12.528  0.0965 -0.0863 -0.2899
  941W        W 5141   1.641   8.992  10.364 -0.0837  0.0297  0.3368
  942W        W 5142   3.624   2.802   9.333 -0.0578  0.1400 -0.1958
  943W        W 5143   2.237   1.061   8.960  0.1062 -0.1604 -0.0448
  944W        W 5144   5.186   0.199   2.889 -0.2091  0.1006  0.1525
  945W        W 5145   2.149   7.865   0.282  0.3139 -0.1724 -0.3438
  946W        W 5146   1.054   2.469  12.341  0.1656  0.0207  0.0701
  947W        W 5147   8.701   8.644  12.762  0.2449  0.0414  0.2631
  948W        W 5148   2.568   6.778   1.749 -0.0805 -0.0328  0.3630
  949W        W 5149   6.009   7.562  13.409  0.3954  0.0519  0.2199
  950W        W 5150   4.532   9.843   0.377 -0.0286  0.1050  0.0424
  951W        W 5151   6.590   2.219  12.777 -0.1900 -0.0320 -0.3787
  952W        W 5152   8.676   2.742   9.229 -0.1804 -0.0808 -0.1503
  953W        W 5153   8.538   4.170   4.412  0.0882  0.1968  0.0732
  954W        W 5154   5.696   6.756  10.907 -0.0357  0.0122 -0.0476
  955W        W 5155   0.567   9.689  12.015  0.1837 -0.2827 -0.0514
  956W        W 5156   7.135   8.635   0.950 -0.0327  0.0270  0.2553
  957W        W 5157   3.405   1.230   3.442  0.0073 -0.2143  0.0745
  958W        W 5158   6.264   3.409   9.299 -0.3224 -0.0715 -0.1959
  959W        W 5159   4.353   6.531  12.054  0.3386 -0.1468 -0.1165
  960W        W 5160   6.963   2.999  10.973  0.4961 -0.1015  0.1275
  961W        W 5161   8.361   0.010   0.498  0.0927 -0.0587 -0.0581
  962W        W 5162   3.755   3.533  11.547 -0.0382  0.1449 -0.0944
  963W        W 5163   5.293   1.198   3.044  0.0968  0.0780  0.3039
  964W        W 5164   1.138   8.069   0.739 -0.3599 -0.0656 -0.1680
  965W        W 5165   4.859   3.811  10.538  0.1123  0.1381  0.0501
  966W        W 5166   4.816   8.718  12.245  0.1851  0.0242  0.3438
  967W        W 5167   1.560   8.900   3.665  0.0448 -0.3226  0.2698
  968W        W 5168   1.166   7.208  11.798  0.2949  0.2958 -0.5947
  969W        W 5169   5.036   8.063   4.197  0.0295 -0.3841 -0.3150
  970W        W 5170   3.340   4.404  12.349  0.2251 -0.0625 -0.4558
  971W        W 5171   3.896   1.006  11.411 -0.0176  0.1290 -0.3446
  972W        W 5172   3.538   9.799   3.971 -0.2800 -0.3542  0.2727
  973W        W 5173   4.026   2.675   0.029  0.0496 -0.0175  0.0263
  974W        W 5174   3.395   7.800  13.063 -0.2239 -0.0880  0.1859
  975W        W 5175   8.678   9.231  10.106  0.2461 -0.2021 -0.0851
  976W        W 5176   3.794   7.685  12.289 -0.0963 -0.0911  0.0239
  977W        W 5177   2.462   8.992   9.948 -0.2262  0.1421  0.1214
  978W        W 5178   2.017   6.907  10.119 -0.0913 -0.0459  0.0536
  979W        W 5179   2.237   1.387   0.350 -0.1111  0.0186 -0.2206
  980W        W 5180   0.951   7.695   1.288 -0.0321  0.2393 -0.3338
  981W        W 5181   6.173   0.035  12.453 -0.2123 -0.0065 -0.0144
  982W        W 5182   6.538   2.059   2.708 -0.1198  0.0787 -0.1109
  983W        W 5183   2.993   2.112   3.585 -0.2584  0.0617  0.0001
  984W        W 5184   0.466   6.301   0.874  0.2616 -0.2268  0.3187
  985W        W 5185   6.756   6.918  12.505 -0.0092  0.1919  0.1784
  986W        W 5186   7.576   0.249   1.235  0.3136 -0.0953 -0.0287
  987W        W 5187   0.375   4.550  12.798  0.0910  0.2608 -0.0720
  988W        W 5188   1.927   1.445  10.357 -0.3050  0.1028  0.2144
  989W        W 5189   2.469  10.471  10.044 -0.0652  0.0317  0.0555
  990W        W 5190   8.356   1.003   3.454 -0.0474 -0.1447 -0.2863
  991W        W 5191   2.843   0.352  12.743  0.3105  0.1705 -0.0171
  992W        W 5192   0.691   3.304   9.438  0.0197  0.1428 -0.0734
  993W        W 5193   4.446   8.308   1.326  0.1516  0.0649 -0.2908
  994W        W 5194   3.425   8.451  12.401 -0.0715  0.0157  0.2927
  995W        W 5195   1.997   9.622   0.044  0.3437 -0.2445  0.1629
  996W        W 5196   7.533   9.961   4.619  0.0731  0.3694 -0.1305
  997W        W 5197   0.072   1.551   3.978 -0.0174 -0.1145 -0.0100
  998W        W 5198   6.228   4.801  10.914  0.5436 -0.3184  0.0903
  999W        W 5199   0.180   9.676   3.242 -0.1448 -0.2208 -0.1931
 1000W        W 5200   9.325   7.007   0.540 -0.0613  0.1388  0.1149
 1001W        W 5201   3.539   2.726   2.192 -0.0623 -0.1601  0.2353
 1002W        W 5202   0.428   3.149   4.296 -0.2511 -0.3155 -0.2125
 1003W        W 5203   0.555   4.156  11.268 -0.1767  0.0628 -0.1606
 1004W        W 5204   7.199   4.321  10.886 -0.1578 -0.0442 -0.1030
 1005W        W 5205   7.731   3.460  11.929 -0.0297 -0.1986  0.0583
 1006W        W 5206   6.086   9.616  11.672 -0.1633 -0.0959  0.0341
 1007W        W 5207   0.465   2.478   9.292 -0.2035  0.2758 -0.4466
 1008W        W 5208   9.461   4.499  11.077  0.1702  0.1677  0.2867
 1009W        W 5209   0.963   7.113   3.350  0.2585  0.1487  0.1677
 1010W        W 5210   2.565   4.950  10.625  0.1322 -0.0320  0.3197
 1011W        W 5211   5.783   1.407   2.990  0.1668 -0.0671  0.3451
 1012W        W 5212   8.605  10.038   9.322  0.1137  0.0745  0.0066
 1013W        W 5213   4.417   7.478   2.107 -0.0371  0.2345  0.0261
 1014W        W 5214   8.829   2.073  10.539  0.2372  0.3325 -0.0895
 1015W        W 5215   7.248   4.516   4.919  0.0008  0.0049  0.1386
 1016W        W 5216   1.798   1.563  12.306  0.1113  0.0871 -0.2304
 1017W        W 5217   3.454   8.947   0.399  0.0258  0.0224  0.1549
 1018W        W 5218   8.425   8.745  12.268 -0.0524  0.0704  0.0264
 1019W        W 5219   3.357   5.292   9.063 -0.1768  0.0989 -0.0770
 1020W        W 5220   7.739   2.153   4.895 -0.0197 -0.2598 -0.0160
 1021W        W 5221   1.438  10.193   3.893 -0.1506  0.1181 -0.3298
 1022W        W 5222   4.788   5.027   2.496 -0.0269 -0.3991 -0.2051
 1023W        W 5223   2.737   7.595  11.920 -0.2771 -0.1457 -0.2444
 1024W        W 5224   8.624   7.173   1.567  0.3681  0.0813  0.0697
 1025W        W 5225   0.313   5.847   0.970  0.0522  0.4139 -0.1146
 1026W        W 5226   1.467   5.469   1.203  0.1989 -0.2059 -0.0892
 1027W        W 5227   9.669   1.636  12.861  0.4169  0.0289  0.0855
 1028W        W 5228   8.796   2.190   9.323  0.0189  0.3274  0.0263
 1029W        W 5229   9.675   6.300  10.404  0.0034  0.0930 -0.0462
 1030W        W 5230   6.096   9.497  10.170 -0.1634 -0.4851 -0.0104
 1031W        W 5231   8.599   5.220  11.046 -0.3235 -0.3244 -0.2969
 1032W        W 5232   7.706   0.220   2.942 -0.3221 -0.0200 -0.3057
 1033W        W 5233   9.931   5.002  11.319 -0.0629  0.1932 -0.4404
 1034W        W 5234   0.813   2.874   3.953  0.0213  0.3272 -0.0016
 1035W        W 5235   2.825   2.770   3.172  0.3754 -0.0812 -0.1822
 1036W        W 5236   4.572   6.469   2.069 -0.0997 -0.0682 -0.0476
 1037W        W 5237   3.259   0.072  12.701  0.4434 -0.2838  0.4100
 1038W        W 5238   4.836   7.514   4.176  0.1132 -0.2660  0.2682
 1039W        W 5239   2.115   8.290   0.601  0.1030  0.1052  0.1553
 1040W        W 5240   5.399   9.146   3.959  0.2377  0.1149 -0.1553
 1041W        W 5241   8.607   7.253  11.369  0.2219 -0.0057  0.0645
 1042W        W 5242   1.551   7.262   0.118  0.0054  0.0739 -0.4079
 1043W        W 5243   8.107   6.133   2.044  0.1074 -0.2559 -0.1461
 1044W        W 5244   1.197   0.395   0.550  0.0099  0.0569 -0.1229
 1045W        W 5245   9.339   3.224   9.180 -0.4760  0.1305 -0.0723
 1046W        W 5246   3.533   7.072   0.205  0.1518  0.1541 -0.3571
 1047W        W 5247   0.935   8.390   2.673 -0.2774  0.0144 -0.1109
 1048W        W 5248   1.259   3.617   9.345  0.2624 -0.0486 -0.1373
 1049W        W 5249   3.123   3.794   4.850 -0.0417  0.0617 -0.3351
 1050W        W 5250   2.676   3.145   0.829  0.2004 -0.4647 -0.0251
 1051W        W 5251   0.105   1.074  12.095  0.0859  0.4959  0.2458
 1052W        W 5252   6.235   3.288   9.840  0.0267 -0.3226  0.0859
 1053W        W 5253   1.467   9.489   1.339  0.1009 -0.2590 -0.2736
 1054W        W 5254   7.603   1.257  12.868 -0.1402  0.0160 -0.0068
 1055W        W 5255   1.698   7.797  11.102  0.1742 -0.1041  0.2149
 1056W        W 5256  10.483   2.183   0.775  0.2157  0.0150 -0.0524
 1057W        W 5257   2.246   2.130   2.990 -0.2265  0.1777 -0.0078
 1058W        W 5258   7.612   2.422   9.229 -0.0271  0.2102 -0.0475
 1059W        W 5259   4.543   9.092   2.940  0.0263 -0.0250  0.1195
 1060W        W 5260   0.308   9.114  11.318 -0.0614 -0.0021  0.2112
 1061W        W 5261   0.510   2.744   1.430  0.1495 -0.0321  0.1735
 1062W        W 5262   5.614   6.152   0.127  0.0559 -0.1269 -0.0791
 1063W        W 5263   2.699   0.537   9.734 -0.0576 -0.2304  0.1220
 1064W        W 5264   3.785   4.223   3.088 -0.1724  0.2272 -0.2785
 1065W        W 5265   9.993   5.461  13.181 -0.1720  0.1435  0.1959
 1066W        W 5266   5.890   5.680   9.491  0.1515  0.0222  0.0611
 1067W        W 5267   1.724   4.634   0.650  0.0251  0.1646 -0.1722
 1068W        W 5268   2.695   9.757  10.279 -0.3584  0.0596  0.3954
 1069W        W 5269   8.695   0.426   2.986 -0.0968  0.0626 -0.0618
 1070W        W 5270   6.949   4.930  11.611 -0.1986  0.2023  0.2541
 1071W        W 5271   9.890   0.229   3.331 -0.2314  0.1583 -0.0233
 1072W        W 5272   4.424   5.937   4.263 -0.1623 -0.2960  0.1119
 1073W        W 5273   5.587   5.926  12.126  0.0583  0.0985  0.2708
 1074W        W 5274   6.779   6.753  11.792 -0.0195 -0.4175 -0.0463
 1075W        W 5275   2.930   6.418   0.757  0.3311  0.1006 -0.4518
 1076W        W 5276   3.111   3.185  12.136 -0.0318 -0.2364  0.2380
 1077W        W 5277   2.633   5.184   3.026 -0.0396 -0.3104  0.0662
 1078W        W 5278   0.663   8.964  10.588  0.0166 -0.2324  0.1148
 1079W        W 5279   4.835   1.894  10.317  0.1044  0.0961 -0.0684
 1080W        W 5280   5.030   8.898   3.071  0.2886 -0.0922  0.0647
 1081W        W 5281   3.098   1.817   1.930 -0.0642 -0.0190  0.1447
 1082W        W 5282   6.452   3.306   1.809  0.1837 -0.1120 -0.0356
 1083W        W 5283   9.699  10.094  10.249  0.0143 -0.0724  0.0218
 1084W        W 5284   7.543   0.384   9.672 -0.1448  0.3353  0.1055
 1085W        W 5285   9.750   8.057   0.468 -0.1232 -0.2817 -0.1958
 1086W        W 5286   6.887   4.668   3.874 -0.2681 -0.0825 -0.0521
 1087W        W 5287   9.213   9.918   1.236 -0.0368 -0.3245  0.0901
 1088W        W 5288   5.598   1.748   9.117  0.0089 -0.0710  0.2589
 1089W        W 5289   6.876   7.276  12.922 -0.0917 -0.2318 -0.0439
 1090W        W 5290   3.734   0.276   1.727  0.0343  0.0795 -0.4575
 1091W        W 5291   4.276   6.206   2.424  0.1951  0.2556 -0.0603
 1092W        W 5292   2.053   4.279   0.555 -0.0090  0.0629  0.1401
 1093W        W 5293   1.784   0.371   4.632 -0.0328  0.1448 -0.1226
 1094W        W 5294   1.455   6.393   4.476 -0.0596  0.2356  0.1641
 1095W        W 5295   7.071   2.212   2.218 -0.1730  0.0489 -0.1142
 1096W        W 5296   3.548   3.585   4.805 -0.2078  0.1922 -0.2096
 1097W        W 5297   0.316   4.773  10.324  0.2162  0.0288 -0.0141
 1098W        W 5298   6.570   4.141   1.202 -0.0867 -0.2338  0.0512
 1099W        W 5299   4.654   7.941  11.802  0.1515  0.2015 -0.0101
 1100W        W 5300   8.304   8.415  10.732 -0.1115  0.0880 -0.2249
 1101W        W 5301   8.775   2.707  11.274  0.0544 -0.1228 -0.5095
 1102W        W 5302   1.545   1.800   2.284  0.0077  0.1373 -0.0533
 1103W        W 5303   4.074   7.845   4.066 -0.3903  0.3351 -0.1323
 1104W        W 5304   1.099   2.264   2.768 -0.0616 -0.0957  0.0068
 1105W        W 5305   3.266   4.124   3.054  0.1420  0.1214  0.0742
 1106W        W 5306   1.239   5.126   9.247  0.1149 -0.4053  0.3529
 1107W        W 5307   8.413   8.559   1.931  0.1691 -0.0501 -0.2322
 1108W        W 5308   5.878   6.434   2.159 -0.0135  0.1479 -0.0775
 1109W        W 5309   7.274   3.621   2.940 -0.4221  0.0606 -0.1513
 1110W        W 5310   1.106   7.737   2.118 -0.0894 -0.0803  0.2322
 1111W        W 5311   7.565   5.028   2.953 -0.2237  0.2246  0.0290
 1112W        W 5312   2.966   1.947  12.275  0.0813  0.0619  0.0074
 1113W        W 5313   9.659   3.869   5.429  0.0271  0.0438 -0.3378
 1114W        W 5314   7.205   9.155   2.533 -0.1438  0.2476 -0.0113
 1115W        W 5315   4.185   5.229  10.370 -0.2020 -0.2582 -0.1508
 1116W        W 5316   6.955   5.912   2.352 -0.3103 -0.0968 -0.0095
 1117W        W 5317   7.830   6.296   2.474  0.1130 -0.1152  0.2931
 1118W        W 5318   7.157   3.620  12.274  0.0662  0.1235 -0.0900
 1119W        W 5319   0.271   9.488  10.934 -0.1495  0.1038 -0.0919
 1120W        W 5320   3.922   1.705  10.782  0.0894 -0.0879  0.1788
 1121W        W 5321   2.552   4.153   8.407 -0.1493  0.2456 -0.0589
 1122W        W 5322   2.461   7.307   4.837  0.0318  0.0408  0.2094
 1123W        W 5323   4.414   1.186  10.115 -0.0051  0.2033  0.3518
 1124W        W 5324   8.372   6.506  10.488  0.0371 -0.3233 -0.2746
 1125W        W 5325   6.482   3.019   9.009 -0.3058 -0.0220 -0.2576
 1126W        W 5326   1.565   9.019   1.543  0.1514 -0.0090 -0.1361
 1127W        W 5327   2.092   6.563  12.768  0.2193 -0.0335  0.0162
 1128W        W 5328   8.374   0.785   3.012  0.0693  0.2180  0.0815
 1129W        W 5329   5.165   1.036   0.519 -0.0574  0.1011 -0.0625
 1130W        W 5330   4.394   1.078  11.762 -0.1731  0.1726  0.0292
 1131W        W 5331   1.759   4.273   5.297 -0.2492  0.2225 -0.1785
 1132W        W 5332   2.333   2.860  12.496  0.0592  0.4773 -0.0766
 1133W        W 5333   4.226   6.348   0.793 -0.1753 -0.1907 -0.1698
 1134W        W 5334   1.019   5.511   3.088  0.1367  0.1873 -0.0988
 1135W        W 5335   7.280   1.461   1.628 -0.0137  0.1230 -0.0168
 1136W        W 5336   4.276   0.511  11.333  0.1472 -0.1026 -0.3079
 1137W        W 5337   4.355   5.412   9.032 -0.0731 -0.1270  0.2190
 1138W        W 5338   9.289   6.183  13.111  0.2189 -0.3229  0.0608
 1139W        W 5339   9.577   5.615  10.133 -0.3910  0.1392  0.2833
 1140W        W 5340   0.018  10.474   8.905  0.2116  0.1832 -0.1334
 1141W        W 5341   2.359   7.551  10.959  0.2256  0.0578 -0.1948
 1142W        W 5342   3.419   2.558   1.719 -0.2549  0.0920  0.0184
 1143W        W 5343   9.191   3.326   1.792  0.1309  0.1152 -0.0679
 1144W        W 5344   1.595   8.205   3.260  0.0167 -0.0679 -0.0078
 1145W        W 5345   3.171   3.481  11.685  0.0609  0.0798 -0.1177
 1146W        W 5346   4.174   3.301  10.037  0.3031 -0.3557 -0.1116
 1147W        W 5347   3.801   6.351   3.404  0.0495  0.1250 -0.0170
 1148W        W 5348   3.499   8.785  10.720  0.0311  0.0426 -0.2716
 1149W        W 5349   6.724   2.801  12.664 -0.1309  0.5532  0.0878
 1150W        W 5350   2.607   9.790   3.268  0.1845  0.5153 -0.1401
 1151W        W 5351   7.852   3.226  11.199  0.3536  0.0544 -0.0603
 1152W        W 5352   2.584   4.866  12.386  0.1652  0.0955  0.2944
 1153W        W 5353   8.071   4.209  10.994 -0.0057  0.3795 -0.0494
 1154W        W 5354   2.107   0.146   9.169 -0.0230 -0.1281  0.2224
 1155W        W 5355   9.579   3.706   1.840  0.2031  0.0288  0.0210
 1156W        W 5356   8.266   1.781  13.180 -0.0181 -0.1422  0.1912
 1157W        W 5357   9.837   9.980   1.395  0.1450 -0.2782 -0.2031
 1158W        W 5358   7.350   3.558   3.796  0.2419 -0.3085 -0.1538
 1159W        W 5359   6.786   0.022   3.761 -0.1707  0.0059 -0.1774
 1160W        W 5360   9.108   2.879   2.912 -0.0974  0.1969  0.0923
 1161W        W 5361   1.353   7.872  10.256 -0.3004 -0.0584  0.1241
 1162W        W 5362  10.465   7.319  10.399  0.0198 -0.2736  0.1845
 1163W        W 5363   5.868  10.029  13.245  0.1569 -0.2163 -0.1384
 1164W        W 5364   1.234   5.028   1.883  0.0949 -0.2384 -0.1280
 1165W        W 5365  10.178   8.348   0.383  0.2914 -0.2225  0.0172
 1166W        W 5366   2.894   9.971   2.665 -0.0698 -0.0575  0.0108
 1167W        W 5367   7.380   5.604  13.242  0.0979  0.3092  0.1392
 1168W        W 5368   0.731   3.367   0.521  0.1001 -0.3120  0.2313
 1169W        W 5369   5.176  10.032   9.269 -0.1502  0.3053  0.0466
 1170W        W 5370   8.556   2.071   2.529 -0.0157  0.0754  0.0871
 1171W        W 5371   0.327   7.981  13.391 -0.1081  0.1022 -0.0595
 1172W        W 5372   4.073   7.557   9.328 -0.0864  0.3603  0.2222
 1173W        W 5373   2.801   7.131  11.976  0.0553 -0.0645 -0.1018
 1174W        W 5374   2.080   5.907  11.792 -0.0018 -0.1395  0.4471
 1175W        W 5375   6.023   9.229   1.025 -0.1915 -0.1649  0.2360
 1176W        W 5376   4.525   2.987  10.608 -0.2391 -0.2113 -0.0685
 1177W        W 5377   7.453   6.585   2.527  0.0997 -0.1571 -0.1197
 1178W        W 5378   0.492   5.378   0.756  0.0501 -0.1244  0.1218
 1179W        W 5379   6.600   2.036   4.069 -0.0170  0.0567  0.2945
 1180W        W 5380   7.435   3.863   2.505 -0.1446 -0.1724  0.3210
 1181W        W 5381   5.559   0.669   2.210 -0.1783 -0.5397 -0.1172
 1182W        W 5382   6.041   1.641   8.950 -0.0585 -0.0841  0.1022
 1183W        W 5383   5.152   1.541   0.655 -0.3225 -0.0590  0.1873
 1184W        W 5384   3.475   7.271   2.686 -0.0014 -0.0577 -0.2251
 1185W        W 5385   5.845   0.405   9.645  0.3036 -0.1247  0.0134
 1186W        W 5386   6.423   9.828   8.534  0.1579  0.1012  0.1383
 1187W        W 5387   2.952   0.101   2.879 -0.1186 -0.0982  0.1761
 1188W        W 5388   6.805   0.989   5.055 -0.2021 -0.1410 -0.2189
 1189W        W 5389   1.444   0.513   4.274  0.0733 -0.2766  0.1640
 1190W        W 5390   1.851   3.019  11.405 -0.0325 -0.1215  0.0376
 1191W        W 5391   7.489   7.955   1.490  0.0239  0.0682  0.0144
 1192W        W 5392   6.201  10.263   1.742  0.2035 -0.3994  0.0621
 1193W        W 5393   6.076   6.687  12.205  0.0188 -0.1749 -0.0505
 1194W        W 5394  10.156   1.907   2.500 -0.1629  0.1037 -0.1123
 1195W        W 5395   4.324   7.345   4.097 -0.1373 -0.0570  0.0940
 1196W        W 5396   1.176   6.064   2.276  0.0282 -0.1620  0.1457
 1197W        W 5397   7.634   1.668   4.950 -0.1069  0.2906 -0.1134
 1198W        W 5398   0.837   3.867  11.543 -0.0447 -0.1921 -0.2359
 1199W        W 5399   0.096   4.669   3.651 -0.1782  0.4852 -0.2786
 1200W        W 5400   9.124   8.191  10.652 -0.0722  0.3854  0.0231
 1201W        W 5401   5.197   5.565  13.031  0.0858 -0.1702  0.0293
 1202W        W 5402   3.334   5.879   3.287  0.0242  0.1232  0.0177
 1203W        W 5403   7.982   0.745  11.759  0.1279 -0.2470  0.0215
 1204W        W 5404   2.419   3.745  11.559 -0.0001  0.0897  0.2247
 1205W        W 5405   1.437   8.515  11.011  0.0466 -0.0145  0.2841
 1206W        W 5406   0.901   1.857   2.521  0.0817  0.2400 -0.3537
 1207W        W 5407   4.892   7.368  12.423  0.2713 -0.3994  0.3485
 1208W        W 5408   5.279   7.877   4.627 -0.1803  0.1931 -0.0303
 1209W        W 5409   1.853   6.448   0.016  0.0312  0.0455  0.1700
 1210W        W 5410   4.198   1.292   0.738  0.0331  0.1042 -0.0233
 1211W        W 5411   4.425   7.137   9.557 -0.0911 -0.4026  0.1392
 1212W        W 5412   8.265   8.014   1.435  0.1895 -0.1897 -0.0714
 1213W        W 5413   8.800   4.291   3.942  0.1453 -0.1307  0.1442
 1214W        W 5414   9.759   8.940  13.151  0.0382  0.3333  0.3701
 1215W        W 5415   1.428   9.140   0.607 -0.2218  0.2537 -0.2105
 1216W        W 5416   3.736   2.471   3.086 -0.0203 -0.0925 -0.1789
 1217W        W 5417   9.604   8.957   1.446 -0.1695 -0.3890  0.0795
 1218W        W 5418   5.455   8.659   2.033  0.2193  0.2478  0.1204
 1219W        W 5419   5.436   3.606   0.813  0.2820  0.0113  0.2320
 1220W        W 5420   5.254   4.722  11.097 -0.0759  0.3280  0.1015
 1221W        W 5421   4.029   6.709  10.244 -0.1770  0.0794 -0.2347
 1222W        W 5422   1.506   0.358   0.188  0.5361 -0.2186  0.1824
 1223W        W 5423   4.578   7.726  10.683  0.1495  0.2055  0.2104
 1224W        W 5424   0.843   4.426  10.966  0.0192 -0.0356 -0.1509
 1225W        W 5425   5.236   0.949   9.658 -0.2613  0.1303 -0.0319
 1226W        W 5426   5.564   7.478   8.738 -0.0181 -0.2077  0.0259
 1227W        W 5427   7.655   6.332   0.908 -0.0042  0.2689  0.1591
 1228W        W 5428   9.042   0.651   1.711 -0.1735 -0.0673 -0.1236
 1229W        W 5429   8.882   1.501   0.282 -0.0477 -0.1566  0.1163
 1230W        W 5430   9.543   7.017   1.567  0.0765 -0.0090  0.0129
 1231W        W 5431   8.703   4.433   2.901 -0.2971  0.1884 -0.1301
 1232W        W 5432   2.345   3.519   0.891 -0.1447  0.1871  0.1867
 1233W        W 5433   6.281   4.767  12.300  0.1238  0.0876  0.0680
 1234W        W 5434   8.957   8.919   2.074 -0.0744 -0.1795 -0.0804
 1235W        W 5435   4.544   6.930   2.437 -0.5998  0.2191  0.0209
 1236W        W 5436   8.585   8.105   1.851  0.2628  0.0129  0.2851
 1237W        W 5437   8.458   6.206  12.755  0.1839  0.0645 -0.1795
 1238W        W 5438   6.872   1.306   8.888 -0.1851  0.3521  0.0999
 1239W        W 5439   5.863   1.562   1.939  0.1668  0.2221  0.0119
 1240W        W 5440   5.596   7.319   4.429  0.0711  0.0126  0.0210
 1241W        W 5441   1.241   9.006  11.850 -0.2490  0.0625 -0.0440
 1242W        W 5442   3.409   5.562   1.150 -0.3713  0.0470  0.0268
 1243W        W 5443   4.081   3.984  10.770  0.2573  0.1955 -0.0080
 1244W        W 5444   3.709   9.786  13.425  0.1446  0.0106  0.3144
 1245W        W 5445   3.097   1.015   0.313 -0.1949  0.0540  0.1617
 1246W        W 5446   7.598   8.498  12.600  0.1835 -0.1870 -0.3117
 1247W        W 5447   7.500   9.838   2.503 -0.3681  0.1741 -0.2233
 1248W        W 5448  10.404   9.471   1.251 -0.1213  0.0719  0.0676
 1249W        W 5449   9.178   5.212   3.012 -0.0053  0.1785  0.0215
 1250W        W 5450   0.615   5.586   3.869  0.1666  0.2533 -0.2853
 1251W        W 5451  10.194   6.319   1.533 -0.0790  0.4396 -0.2348
 1252W        W 5452   5.738   1.761   3.777 -0.0969  0.1354  0.0079
 1253W        W 5453   7.505   0.749   0.858 -0.1916  0.1560  0.1339
 1254W        W 5454   5.573   5.544   2.582 -0.1474  0.1229  0.4668
 1255W        W 5455   3.489   6.839  12.581  0.0062 -0.3945 -0.1476
 1256W        W 5456   3.956   2.859  11.524 -0.0841  0.0196  0.0477
 1257W        W 5457   7.285   7.581  12.438 -0.1609  0.1066  0.0356
 1258W        W 5458   7.060   3.032   4.027  0.2114  0.0071 -0.0727
 1259W        W 5459   0.321   9.889  10.184  0.0602  0.3868  0.1318
 1260W        W 5460   6.874   6.165  12.170  0.0359 -0.2151  0.0353
 1261W        W 5461   2.494   7.567   1.141  0.2440  0.1417 -0.0216
 1262W        W 5462   1.625   3.751  10.249  0.1413 -0.0315  0.3913
 1263W        W 5463   9.514   5.839  11.982 -0.1981 -0.0636  0.3382
 1264W        W 5464   9.349   9.911   0.231  0.0090 -0.0357  0.1360
 1265W        W 5465   4.459   7.480   0.664 -0.1545  0.1062 -0.0749
 1266W        W 5466   8.886   9.739   0.397 -0.0700  0.1639 -0.0893
 1267W        W 5467   5.493   5.396   1.071  0.0147 -0.2070  0.1143
 1268W        W 5468   9.041   0.358   3.369 -0.0206 -0.1231 -0.0865
 1269W        W 5469   5.341  10.131   4.505  0.4221  0.0584  0.2944
 1270W        W 5470   3.772  10.464   9.006  0.2181  0.0209  0.1207
 1271W        W 5471   6.251   5.736   1.565  0.2908 -0.1670 -0.1279
 1272W        W 5472   6.009   1.725  13.253 -0.3099  0.0676  0.0444
 1273W        W 5473   4.622   9.291   5.175 -0.1026  0.2044  0.0662
 1274W        W 5474   3.498   2.186   3.695 -0.1576  0.0415 -0.1584
 1275W        W 5475   7.645   9.630  10.285 -0.0774  0.1770  0.2643
 1276W        W 5476   6.099   5.023   0.760 -0.4419  0.7010  0.0946
 1277W        W 5477   9.939   9.877   9.417  0.0048 -0.0558 -0.2867
 1278W        W 5478   3.293   1.617   9.650 -0.0562 -0.1837  0.3002
 1279W        W 5479   3.568   2.564  11.522 -0.1360  0.1031 -0.0686
 1280W        W 5480   0.986   1.132   3.714 -0.0889 -0.3408 -0.1513
 1281W        W 5481   4.062   1.782   0.713  0.3571  0.0810  0.0563
 1282W        W 5482   0.684   1.219  10.812  0.1648 -0.1210 -0.2034
 1283W        W 5483   9.521   0.288   3.650  0.0072  0.0000 -0.1423
 1284W        W 5484   8.213   7.108  12.355 -0.0883  0.0747 -0.1393
 1285W        W 5485   4.148   1.363   2.249 -0.0583 -0.2635  0.1371
 1286W        W 5486  10.220   3.811   4.122 -0.3475 -0.4239 -0.2587
 1287W        W 5487   6.517   3.347   4.011  0.1299 -0.1572 -0.1701
 1288W        W 5488   4.515   6.614  10.358  0.2861  0.0829 -0.2576
 1289W        W 5489   5.211   1.779  12.857 -0.0975  0.0262  0.1369
 1290W        W 5490   1.221   2.994   8.489 -0.3337 -0.0277  0.1895
 1291W        W 5491   7.483   1.298   3.638 -0.0646 -0.1088  0.0487
 1292W        W 5492   5.000   5.861   5.053  0.2745  0.0461  0.1873
 1293W        W 5493   5.217   7.829  11.852 -0.1234  0.1051 -0.0143
 1294W        W 5494   8.209   2.435   1.088  0.0522  0.0423  0.2827
 1295W        W 5495   7.360   0.508  12.256 -0.2095 -0.1158 -0.1508
 1296W        W 5496   0.944   3.707   9.740  0.0615  0.3086 -0.0451
 1297W        W 5497   2.345   1.206   3.605  0.3232 -0.0371 -0.0735
 1298W        W 5498   8.961   1.374   5.000  0.1705 -0.1722 -0.1279
 1299W        W 5499   8.972   1.887  11.047  0.1982 -0.1515  0.0019
 1300W        W 5500   7.148   4.870   9.916 -0.0542 -0.1106  0.0743
 1301W        W 5501   1.860   6.778   4.311  0.2041  0.2459  0.1001
 1302W        W 5502   9.828   8.974   0.988 -0.0964  0.0749  0.4296
 1303W        W 5503   1.503   7.515   2.380 -0.2239 -0.2907  0.0203
 1304W        W 5504   2.600   9.566  11.807  0.3460 -0.4146  0.0668
 1305W        W 5505   7.058   0.053   4.432 -0.0225  0.1026  0.0619
 1306W        W 5506   3.384   5.248   8.555 -0.2769 -0.0325  0.0290
 1307W        W 5507   1.215   4.554  10.653 -0.1004 -0.4267  0.2323
 1308W        W 5508   6.798   7.362   9.361  0.1154 -0.2164  0.1524
 1309W        W 5509   6.076   0.324   0.278 -0.0606  0.0242 -0.0932
 1310W        W 5510   7.240   0.900  13.022 -0.0810 -0.0314 -0.0748
 1311W        W 5511   8.472   0.273   9.894 -0.1199  0.1771  0.1017
 1312W        W 5512   9.830   6.729   0.726 -0.1394 -0.1509  0.1873
 1313W        W 5513   5.052   9.727   0.540  0.1433  0.0510 -0.0258
 1314W        W 5514   0.112   9.460   3.697  0.0712  0.1735  0.0445
 1315W        W 5515   0.420   5.881  12.466  0.2690 -0.2366 -0.0031
 1316W        W 5516   2.993   1.557   3.673 -0.3146 -0.0435  0.0008
 1317W        W 5517   1.749   2.163  10.911 -0.1430 -0.0643  0.2246
 1318W        W 5518  10.305   5.063   0.438  0.0781  0.0867 -0.0203
 1319W        W 5519   8.185   5.922  13.063  0.5187  0.2120 -0.1735
 1320W        W 5520   3.699   4.949  11.121 -0.0403 -0.4921 -0.2305
 1321W        W 5521   6.273   8.330   1.052  0.0212  0.0601  0.0611
 1322W        W 5522   4.833   6.231   2.424 -0.3120  0.2009  0.0714
 1323W        W 5523   5.896   3.534  11.042 -0.0605 -0.1106  0.0895
 1324W        W 5524   3.544   1.750   0.824  0.0455  0.0115  0.2507
 1325W        W 5525   9.824   3.443   2.276 -0.2315 -0.2769 -0.0491
 1326W        W 5526   4.436   0.114   3.523  0.0923  0.1060 -0.1058
 1327W        W 5527   8.283   9.371  10.327 -0.2458  0.0004 -0.1792
 1328W        W 5528   9.977   5.556   9.036 -0.0482 -0.1781  0.0474
 1329W        W 5529   4.726   1.933   2.392 -0.1202  0.3644 -0.1989
 1330W        W 5530  10.210   3.359  12.642 -0.0768  0.0997 -0.3295
 1331W        W 5531   8.262  10.031   2.266  0.1804  0.2524 -0.1129
 1332W        W 5532   7.637   0.165  12.575 -0.0068  0.1695 -0.1086
 1333W        W 5533   5.270   6.606   2.887  0.1079 -0.5760  0.2598
 1334W        W 5534   4.456   9.115   1.229  0.1605 -0.0124 -0.2697
 1335W        W 5535   1.186   5.862   1.407  0.0884  0.0285 -0.0115
 1336W        W 5536   0.683   5.708   3.391 -0.1900  0.0427 -0.2216
 1337W        W 5537   0.963   6.628   3.214  0.0195  0.0369 -0.1284
 1338W        W 5538   3.836  10.201   4.082 -0.2801 -0.1466 -0.2817
 1339W        W 5539   7.449   4.745   0.902 -0.0133 -0.0577 -0.1138
 1340W        W 5540   4.678   7.515   4.670  0.1285 -0.1085 -0.1332
 1341W        W 5541   0.408   8.861   2.014 -0.0372  0.1747 -0.2439
 1342W        W 5542   7.435   5.253  10.868 -0.3882 -0.2876 -0.3000
 1343W        W 5543   5.913   3.901   9.172 -0.1623  0.1739 -0.2441
 1344W        W 5544   9.874   6.896  13.259  0.2655  0.2636 -0.0739
 1345W        W 5545   0.481   1.251  12.471 -0.1267 -0.0702 -0.0650
 1346W        W 5546   7.980   0.693   8.508 -0.3498  0.2474  0.1865
 1347W        W 5547   2.005   1.601  13.366 -0.3892 -0.0206 -0.0786
 1348W        W 5548   9.080   3.282  10.282  0.2342 -0.0931  0.0727
 1349W        W 5549   4.083   0.983   3.229 -0.0371  0.0846 -0.1008
 1350W        W 5550   7.081   2.075   1.678 -0.3241  0.2964 -0.1743
 1351W        W 5551   4.204   7.868   2.791  0.2279  0.1761  0.1379
 1352W        W 5552   6.117   2.874   8.650 -0.0304  0.1282 -0.0377
 1353W        W 5553   0.578   7.314   0.980  0.2354  0.2549  0.3046
 1354W        W 5554   6.813   2.541   1.553  0.1188  0.0257 -0.2973
 1355W        W 5555   6.376  10.278  10.797  0.0907  0.2578  0.2913
 1356W        W 5556   8.097   0.005   2.704 -0.3554 -0.2948 -0.1294
 1357W        W 5557   4.702   9.230   3.388 -0.4211 -0.0831 -0.4309
 1358W        W 5558   3.173   9.246  11.075  0.1995 -0.0223  0.0926
 1359W        W 5559   4.334   3.351   3.106 -0.0630 -0.3167 -0.0203
 1360W        W 5560   6.929   8.278   9.859 -0.1356  0.2181 -0.0062
 1361W        W 5561   1.143   5.306   0.059  0.0202 -0.1195  0.1240
 1362W        W 5562   6.107   6.846   0.481  0.1385 -0.0973 -0.1460
 1363W        W 5563   5.412   8.435   3.329 -0.0427 -0.1955 -0.0114
 1364W        W 5564   5.807   0.867   0.295 -0.1338 -0.1275  0.1913
 1365W        W 5565   8.546   1.084   2.507  0.0349 -0.1379  0.0511
 1366W        W 5566   5.296   3.463  10.198 -0.1403 -0.4864  0.1201
 1367W        W 5567   3.391   9.247   3.918  0.1471 -0.1818  0.0382
 1368W        W 5568   7.073   6.452  12.559 -0.1541  0.2099 -0.2758
 1369W        W 5569   2.715   8.719   4.167  0.3130  0.4183 -0.0629
 1370W        W 5570   8.615   8.349   2.906 -0.1299 -0.1077  0.1673
 1371W        W 5571   2.011   0.087  10.133  0.3116 -0.2863  0.0596
 1372W        W 5572   6.351   1.490   2.066  0.1596 -0.3516 -0.1749
 1373W        W 5573   7.825   5.466  12.833  0.2128 -0.0925  0.1729
 1374W        W 5574   4.038   9.753  12.063 -0.2340 -0.3089  0.0776
 1375W        W 5575   5.394   8.205   0.170  0.1133  0.1485 -0.3829
 1376W        W 5576   2.638   9.291   4.311  0.0739  0.0284  0.1278
 1377W        W 5577   6.732   9.376  12.824  0.0578 -0.1846  0.1109
 1378W        W 5578   8.693   7.862  12.058 -0.3008  0.1291 -0.2350
 1379W        W 5579   6.572   3.961   4.894 -0.0241 -0.1522  0.0244
 1380W        W 5580   5.898   5.295   2.937  0.1926 -0.1122  0.2081
 1381W        W 5581   7.249   1.959   1.246  0.1234  0.0154  0.0874
 1382W        W 5582   3.621   1.411   5.208 -0.3695  0.0244  0.0339
 1383W        W 5583  10.347   4.546   1.207 -0.3610  0.0346 -0.0929
 1384W        W 5584   9.058   4.583  12.720 -0.0556  0.0551 -0.0928
 1385W        W 5585   5.262   0.597  10.848  0.1011 -0.1676  0.2328
 1386W        W 5586   5.315   2.514  12.261 -0.2006  0.2092 -0.1389
 1387W        W 5587   9.811   0.433  11.067 -0.3253  0.0452 -0.0489
 1388W        W 5588   1.065   7.152   0.074 -0.0286  0.1409 -0.0523
 1389W        W 5589   9.144   0.754   9.590 -0.3303  0.0847 -0.1520
 1390W        W 5590   3.126   6.157  13.414  0.1815 -0.1640  0.2304
 1391W        W 5591   9.985   1.634   4.634  0.2421 -0.0266  0.0897
 1392W        W 5592   4.816   7.286   3.374 -0.1693 -0.1822 -0.2471
 1393W        W 5593   3.280   3.540  12.433  0.2378 -0.2518  0.1799
 1394W        W 5594   4.048   2.803   3.274 -0.4847  0.0217 -0.0033
 1395W        W 5595   1.763   7.353   3.688 -0.0715 -0.0340 -0.0013
 1396W        W 5596   8.473   2.838   4.235 -0.0774  0.0076 -0.0122
 1397W        W 5597   3.903   3.456   2.680 -0.0664  0.3093  0.1467
 1398W        W 5598   6.584   4.620  13.232 -0.1515 -0.2498  0.2385
 1399W        W 5599   8.741   2.325   0.023 -0.1410 -0.0647 -0.1402
 1400W        W 5600   9.792   6.288   1.060 -0.2522  0.2472 -0.1153
 1401W        W 5601   7.983   2.931   2.540  0.1051  0.1705 -0.2391
 1402W        W 5602  10.061   9.686  12.010 -0.1891 -0.0956  0.2613
 1403W        W 5603   7.167   6.319  10.445  0.1647 -0.5873  0.1806
 1404W        W 5604   5.004   6.110  11.538  0.0938 -0.0100 -0.1280
 1405W        W 5605  10.237   0.189   4.305 -0.0103 -0.0107 -0.0014
 1406W        W 5606   5.047   1.470  12.480 -0.0022  0.0144  0.0578
 1407W        W 5607   1.083   5.443  11.574  0.2351 -0.0642  0.0260
 1408W        W 5608   4.334   4.442   9.093 -0.1988 -0.2899  0.1758
 1409W        W 5609  10.208   6.403  12.569 -0.0736 -0.2318  0.2251
 1410W        W 5610   3.822   6.115   0.645 -0.0044 -0.0591 -0.0435
 1411W        W 5611   5.806   6.239   9.745  0.1268 -0.2169  0.2206
 1412W        W 5612   0.836   6.731  10.493  0.1611  0.1529 -0.2272
 1413W        W 5613   5.252   0.625  11.723 -0.1250  0.1439  0.1249
 1414W        W 5614   3.014   2.599   3.595  0.0344 -0.1409 -0.1906
 1415W        W 5615   3.106   0.101   4.512  0.1375 -0.4094  0.2772
 1416W        W 5616   5.869   8.616   0.253  0.1361  0.0724  0.2628
 1417W        W 5617   4.741   4.341   2.988 -0.1028  0.1409 -0.3711
 1418W        W 5618  10.208   4.792   4.768 -0.3050  0.1412 -0.1864
 1419W        W 5619   4.997   4.225   3.967 -0.0229  0.0075 -0.0793
 1420W        W 5620   3.413   1.508  10.135 -0.0197 -0.3917 -0.3059
 1421W        W 5621   6.381   2.394  11.212 -0.1066  0.0209  0.1702
 1422W        W 5622   3.705  10.189   9.587  0.2759  0.0240  0.0118
 1423W        W 5623   8.468   8.304  13.449 -0.0591 -0.0701  0.0463
 1424W        W 5624   1.338   4.705   5.577  0.0282 -0.2545 -0.1695
 1425W        W 5625   2.614   8.371  11.475  0.0488  0.0654 -0.1905
 1426W        W 5626   6.932   5.408  13.184  0.0370 -0.2393 -0.0378
 1427W        W 5627   9.815   8.557   0.001  0.1309 -0.0118  0.1376
 1428W        W 5628   5.882   4.126   2.460 -0.1698 -0.1754  0.0976
 1429W        W 5629   0.236   0.931   9.900  0.1276  0.3614  0.0236
 1430W        W 5630   7.811   8.247  10.907 -0.0194  0.1179  0.0405
 1431W        W 5631   5.849   7.998   0.181  0.1803  0.1727 -0.3035
 1432W        W 5632   9.483   9.423   1.573  0.0706  0.0946  0.2901
 1433W        W 5633   8.977   7.206   0.115 -0.1755  0.1186  0.2359
 1434W        W 5634   5.363   0.445   9.893 -0.0726  0.2636  0.2307
 1435W        W 5635   9.712   2.158  11.535 -0.0124 -0.1794  0.1296
 1436W        W 5636   5.529   5.038  11.755 -0.1298 -0.0052  0.4573
 1437W        W 5637   1.487   3.212  13.392 -0.1923  0.0778  0.0209
 1438W        W 5638   0.998   0.668   3.935 -0.0404  0.2285  0.1095
 1439W        W 5639   0.212   5.463  11.642  0.2685 -0.0125  0.1040
 1440W        W 5640   9.551   4.799   4.903 -0.2048  0.0264 -0.1639
 1441W        W 5641   7.272   9.640   1.664  0.0353  0.1467  0.0114
 1442W        W 5642   9.898   4.749  12.653  0.2248  0.0379  0.1205
 1443W        W 5643   8.131   9.169   2.610  0.0813  0.2339  0.3085
 1444W        W 5644  10.107   7.740   2.125 -0.0025  0.2013  0.1249
 1445W        W 5645   5.763   7.764   4.220  0.1604 -0.1558  0.0339
 1446W        W 5646   5.635   2.958  12.236  0.2266  0.3305  0.0159
 1447W        W 5647   7.585   6.161   1.737  0.1273 -0.0162  0.0706
 1448W        W 5648   0.079   3.738   9.906  0.2242 -0.0690 -0.1090
 1449W        W 5649   6.630   5.614   0.666  0.0657  0.1341 -0.3115
 1450W        W 5650  10.355   7.881  12.017  0.0841 -0.4229 -0.1031
 1451W        W 5651   9.190   2.995  12.358  0.0399 -0.1692 -0.3617
 1452W        W 5652   5.968   2.142   9.947  0.0972 -0.0036 -0.3351
 1453W        W 5653   0.336   6.918   9.819 -0.2727 -0.0236  0.2604
 1454W        W 5654  10.168   2.546   0.277 -0.1016  0.1794 -0.0847
 1455W        W 5655   5.180   2.220   2.313  0.0429 -0.4021  0.3910
 1456W        W 5656   5.457   4.691   8.134 -0.0350  0.2323 -0.1076
 1457W        W 5657   7.052   8.857   9.474 -0.0701  0.1972 -0.3101
 1458W        W 5658   8.302   3.182   8.993 -0.0462 -0.0913 -0.5398
 1459W        W 5659   1.354   6.941   0.764  0.0256 -0.2224 -0.1899
 1460W        W 5660   6.635   9.774  12.528 -0.1336  0.1011 -0.1971
 1461W        W 5661   9.207   7.016   9.784  0.0652  0.1792  0.0405
 1462W        W 5662   2.889   3.690  12.121  0.0727  0.2986  0.0515
 1463W        W 5663   4.663   4.657   9.432 -0.2135  0.2362 -0.1847
 1464W        W 5664   1.199   0.179   1.699 -0.0839  0.1429 -0.1278
 1465W        W 5665   5.505   2.006   3.223  0.0236 -0.1044  0.0641
 1466W        W 5666  10.320   4.097  10.920  0.2916 -0.0231 -0.2247
 1467W        W 5667   5.560   3.278   1.286 -0.4352  0.3965  0.1669
 1468W        W 5668   9.475   4.658  10.537  0.1635  0.2215  0.2478
 1469W        W 5669   6.362   2.402   0.521  0.0335 -0.0684 -0.1739
 1470W        W 5670   8.140   5.114   9.294 -0.0138 -0.0150 -0.0401
 1471W        W 5671   2.204   9.608  11.267 -0.2606  0.0151  0.0100
 1472W        W 5672   1.428   4.073   4.090 -0.1510  0.1932 -0.1504
 1473W        W 5673   8.345   3.639   0.173 -0.0719  0.0229  0.0317
 1474W        W 5674   1.031   6.229  11.917 -0.2841  0.1057 -0.0069
 1475W        W 5675   1.943   3.444   1.152  0.1457  0.1394  0.3010
 1476W        W 5676   6.352   8.799   8.575 -0.3753  0.0170 -0.3135
 1477W        W 5677   4.034   8.008  10.353  0.0878  0.2262 -0.3849
 1478W        W 5678   0.726  10.433   4.361  0.1868  0.0115 -0.1793
 1479W        W 5679   7.038   2.558  13.031  0.0798  0.0959  0.1943
 1480W        W 5680   3.841   4.939   5.061 -0.2491  0.0205  0.2403
 1481W        W 5681   8.132   9.186  13.150  0.5159 -0.1664 -0.1795
 1482W        W 5682   4.598   8.984   0.719  0.0041 -0.1377  0.4126
 1483W        W 5683   6.503   6.877  12.976  0.0182 -0.2674  0.1231
 1484W        W 5684   7.513   5.423   3.727  0.1741  0.0780  0.0231
 1485W        W 5685   1.293   8.914   1.959 -0.2338 -0.1558 -0.0637
 1486W        W 5686   3.682   2.338   9.544 -0.1611  0.1591 -0.3417
 1487W        W 5687   8.416   6.704  12.033 -0.2827  0.1128  0.0211
 1488W        W 5688   3.466   9.011   3.449 -0.1681 -0.0370  0.0122
 1489W        W 5689   5.286   0.014   0.285 -0.2736 -0.1126 -0.0091
 1490W        W 5690   0.577   9.971   9.762  0.1025  0.2145 -0.0570
 1491W        W 5691   6.348   0.667   0.553  0.1274  0.2389 -0.0810
 1492W        W 5692   5.862   6.252   2.968 -0.1716 -0.1290 -0.1056
 1493W        W 5693   1.517   5.723   2.320 -0.0005 -0.0519  0.0731
 1494W        W 5694   0.980   5.359  10.324  0.1330  0.2282 -0.1832
 1495W        W 5695   5.486   2.106   9.843 -0.0547 -0.1091  0.0483
 1496W        W 5696   9.627   0.886  11.899 -0.1221  0.0940  0.3590
 1497W        W 5697   7.038   4.557   9.478 -0.1632  0.4548 -0.1110
 1498W        W 5698   5.516   3.054  10.194 -0.0522  0.1891 -0.0781
 1499W        W 5699   3.398   1.020   1.924  0.0906 -0.1105 -0.3784
 1500W        W 5700   9.634   3.459   9.545  0.3004 -0.4234  0.0431
 1501W        W 5701   1.577   3.888   2.575  0.3641 -0.0709  0.0137
 1502W        W 5702   8.923   0.273   1.989  0.0540  0.1974  0.4253
 1503W        W 5703   4.158   9.360   2.309  0.2570 -0.1886 -0.0323
 1504W        W 5704   6.535   4.125  10.336  0.1264 -0.1957 -0.1745
 1505W        W 5705   2.783  10.187   4.548 -0.0787 -0.1238 -0.3305
 1506W        W 5706   1.563   8.585  13.336  0.0355 -0.2382  0.2497
 1507W        W 5707   9.058   3.725  13.210 -0.2901  0.0565  0.2537
 1508W        W 5708   7.764   8.460   2.368 -0.1494  0.3372 -0.2290
 1509W        W 5709   0.566   4.463   3.665 -0.0216 -0.0216  0.0957
 1510W        W 5710   3.426   9.722   1.004 -0.2125  0.0743 -0.0048
 1511W        W 5711   8.493   9.864  10.663 -0.1322  0.1724  0.2323
 1512W        W 5712   6.796   2.322   5.213  0.0864 -0.1897  0.3052
 1513W        W 5713   5.531   8.859   4.337  0.0304  0.1008 -0.0447
 1514W        W 5714   6.863   1.268   1.991  0.1643 -0.0209  0.0831
 1515W        W 5715   2.217   7.780   2.704  0.2731 -0.0622 -0.1840
 1516W        W 5716   8.954   0.675   8.607 -0.2566 -0.0157  0.0156
 1517W        W 5717   5.824   5.986   2.502 -0.1853 -0.1636  0.1552
 1518W        W 5718   2.953  10.107   3.135  0.0303  0.2120  0.0896
 1519W        W 5719   9.075   1.708   2.122  0.0018  0.1650  0.0535
 1520W        W 5720   4.778   8.654   5.022 -0.2495 -0.0266 -0.1857
 1521W        W 5721   3.077   8.379  10.007 -0.3184  0.0157  0.1016
 1522W        W 5722   6.466   3.753   0.921 -0.0354 -0.5111 -0.1046
 1523W        W 5723  10.036   4.586   2.331  0.0635 -0.3379 -0.3233
 1524W        W 5724   4.672   6.684  10.855  0.1325 -0.1009  0.1058
 1525W        W 5725   7.167   8.664  13.322  0.3384 -0.1684  0.0917
 1526W        W 5726   1.811   4.388   3.931  0.0262  0.0898 -0.2917
 1527W        W 5727   0.018   6.955  13.172 -0.0222  0.2479 -0.3303
 1528W        W 5728   4.276   6.404  11.076  0.0196  0.1911 -0.0031
 1529W        W 5729   2.804   6.494   3.640  0.0006 -0.2650 -0.1112
 1530W        W 5730   0.470   6.426  10.182  0.1749 -0.0141 -0.1483
 1531W        W 5731   0.763   6.376  12.806 -0.2363 -0.0545  0.0741
 1532W        W 5732   0.400   1.187  11.634 -0.1503 -0.3015  0.0751
 1533W        W 5733   5.731   0.459   2.785  0.1952  0.0885  0.0307
 1534W        W 5734   8.165   2.647   1.534  0.1606 -0.3098  0.1731
 1535W        W 5735   8.747   9.708   2.239 -0.2398 -0.2706 -0.0602
 1536W        W 5736   7.366   9.450   3.277  0.2596 -0.1231  0.1286
 1537W        W 5737   6.553   8.334  10.571  0.1896  0.1997  0.0656
 1538W        W 5738   3.613   7.203   0.714 -0.2230 -0.0642  0.0059
 1539W        W 5739   9.469  10.387  13.407 -0.0729 -0.0995  0.2209
 1540W        W 5740   1.794   9.692  12.232  0.1976 -0.0468  0.1368
 1541W        W 5741   3.379   9.133   0.991 -0.0316 -0.3915  0.0805
 1542W        W 5742   7.983   7.578   2.832 -0.0567  0.0075  0.0491
 1543W        W 5743   6.530   1.347   9.667 -0.0392  0.0125  0.2062
 1544W        W 5744   4.819   8.533   9.042  0.1075  0.2479 -0.1778
 1545W        W 5745   3.014   6.471  12.605  0.1738 -0.3555  0.2922
 1546W        W 5746   2.776  10.169   3.593  0.0366 -0.1943  0.0688
 1547W        W 5747   8.000   2.382  10.277 -0.2538  0.1917 -0.1620
 1548W        W 5748   6.821   2.783   9.291 -0.4228 -0.3430 -0.0526
 1549W        W 5749   6.335   0.602  12.403  0.2521  0.3139 -0.0454
 1550W        W 5750   1.125   6.328   9.684 -0.0382 -0.1972  0.2191
 1551W        W 5751   9.605   1.399   1.987  0.0795  0.3643 -0.0183
 1552W        W 5752   5.906   8.243  13.217  0.0255  0.3659  0.2481
 1553W        W 5753   4.622   8.870   2.023  0.0846  0.0600  0.1671
 1554W        W 5754   3.893   5.464  12.828  0.2178  0.0804 -0.0584
 1555W        W 5755   8.189   7.040  11.223 -0.2334  0.0975 -0.2390
 1556W        W 5756   1.312   7.318   1.561  0.2942 -0.0121  0.1529
 1557W        W 5757   9.202   9.196  10.413  0.1093 -0.0773 -0.0653
 1558W        W 5758   7.533   3.205  11.553 -0.0356  0.0802 -0.0712
 1559W        W 5759   7.604   3.930   3.198 -0.0838  0.2591 -0.1825
 1560W        W 5760  10.342   4.488  12.599  0.0339 -0.0196  0.0696
 1561W        W 5761   5.375  10.460   1.116  0.4343  0.0154 -0.0666
 1562W        W 5762   9.080   3.025   8.827 -0.0301  0.1046 -0.1767
 1563W        W 5763   6.577   0.188   4.588  0.0997 -0.0712  0.2765
 1564W        W 5764   8.374   9.592   2.600 -0.0701  0.2440  0.2529
 1565W        W 5765   2.622   5.960   0.951 -0.0033  0.1910  0.2978
 1566W        W 5766   0.229   9.468   9.663 -0.3293  0.1559  0.0682
 1567W        W 5767  10.371   8.933   2.177  0.3463  0.0842 -0.0519
 1568W        W 5768   9.186   4.359   3.105  0.1867 -0.0692 -0.1032
 1569W        W 5769   6.914   2.487  10.229 -0.2557  0.1638 -0.1839
 1570W        W 5770   5.771   3.960  10.807  0.1365 -0.1571 -0.2298
 1571W        W 5771   5.650   2.233  10.854  0.2523  0.0339  0.1865
 1572W        W 5772   7.370   6.649   1.309  0.4095 -0.0910  0.1050
 1573W        W 5773   3.402   8.198   3.589 -0.0544 -0.0240  0.1181
 1574W        W 5774   3.024   0.221   9.413  0.0271  0.1432 -0.0631
 1575W        W 5775   3.690   0.125   3.254 -0.1923 -0.0090  0.0120
 1576W        W 5776   7.036   3.252  13.081 -0.0108 -0.0303 -0.2607
 1577W        W 5777   1.933   0.750   4.286  0.0280  0.0451  0.2637
 1578W        W 5778   5.420   6.812   3.807 -0.2095 -0.3072  0.2651
 1579W        W 5779   5.267  10.222  10.188 -0.0371 -0.0214  0.0006
 1580W        W 5780   9.942  10.412   2.311  0.0159  0.0588  0.3623
 1581W        W 5781   7.012   9.700   2.411 -0.1079 -0.2374 -0.0026
 1582W        W 5782   5.378   3.598  11.645 -0.2608 -0.2254  0.2503
 1583W        W 5783  10.181   1.698  11.395  0.0248 -0.1251 -0.1177
 1584W        W 5784   6.766   0.856   9.104 -0.0931 -0.1466 -0.0234
 1585W        W 5785   8.966   6.372   9.784  0.0817  0.1620 -0.0594
 1586W        W 5786   2.717   3.021   2.223 -0.0258 -0.0147 -0.3727
 1587W        W 5787   6.081   7.339   0.753 -0.1796 -0.2852  0.0023
 1588W        W 5788   9.596   1.072   3.189 -0.1159  0.2033  0.1032
 1589W        W 5789  10.467   9.183  12.728  0.1426 -0.3300 -0.0869
 1590W        W 5790   5.361   1.781   2.053 -0.1755 -0.2192  0.1750
 1591W        W 5791   9.819   4.496   0.982  0.0474  0.0229 -0.2226
 1592W        W 5792   0.746   2.684   1.955 -0.0863  0.1572 -0.1248
 1593W        W 5793   4.942   7.885  12.260  0.1362 -0.1988 -0.2752
 1594W        W 5794   1.672   4.914   2.768 -0.0669 -0.1674  0.0988
 1595W        W 5795   3.784   6.551   9.801 -0.1169  0.1271 -0.0949
 1596W        W 5796   9.917   0.554   4.455 -0.0943 -0.2188  0.3886
 1597W        W 5797   8.786   5.176   9.975 -0.1922 -0.2631 -0.1799
 1598W        W 5798   2.240   2.865  11.101  0.4302 -0.0731 -0.1790
 1599W        W 5799   8.773   2.096   8.528 -0.3072  0.0252  0.0960
 1600W        W 5800   4.066   2.829   9.997 -0.2266 -0.1410 -0.0097
 1601W        W 5801   3.755   6.724   3.000  0.0015 -0.0837 -0.1901
 1602W        W 5802   7.116   1.350   2.420  0.5749  0.0688 -0.0395
 1603W        W 5803   0.965  10.060  13.230 -0.1456  0.1473  0.0781
 1604W        W 5804   0.721   3.503   0.981  0.0513  0.1428 -0.0079
 1605W        W 5805   2.915   7.416  11.116 -0.3789 -0.1536 -0.0576
 1606W        W 5806   6.301   9.347  11.283  0.2422 -0.0700  0.1261
 1607W        W 5807   8.906   1.243   4.131  0.0121 -0.4097  0.2195
 1608W        W 5808   2.304   2.147  10.948 -0.3417 -0.0968 -0.1151
 1609W        W 5809   3.269   2.257  12.529  0.1128  0.2872  0.1188
 1610W        W 5810  10.446   5.157   4.987  0.0371 -0.1137  0.1117
 1611W        W 5811   1.173   4.287  12.319 -0.1422  0.2020 -0.0310
 1612W        W 5812   6.816   9.677   1.896 -0.0967 -0.4982  0.2471
 1613W        W 5813   2.443   6.351   4.468 -0.2175  0.1342 -0.1966
 1614W        W 5814   1.475   3.282   5.472  0.2142 -0.0527  0.0967
 1615W        W 5815   4.392   6.888   0.617  0.1363  0.0893 -0.0494
 1616W        W 5816   8.980   6.766  11.797  0.1449  0.0524  0.2496
 1617W        W 5817   0.184   2.649  10.649  0.1154 -0.1145 -0.3094
 1618W        W 5818  10.166   9.332  13.170 -0.0593 -0.0435  0.1678
 1619W        W 5819   7.345   7.633   3.343 -0.3445 -0.0202 -0.0344
 1620W        W 5820   9.966   4.117  12.260  0.3247 -0.0858  0.0463
 1621W        W 5821   8.674   0.783   3.805  0.1472 -0.0227  0.3379
 1622W        W 5822   9.349   7.240  11.876 -0.2047 -0.0473 -0.2057
 1623W        W 5823   7.510  10.232   1.503  0.0074  0.1845 -0.0510
 1624W        W 5824   4.276   7.788   1.697 -0.1851 -0.0010  0.1004
 1625W        W 5825   3.770   5.876   2.620 -0.0041  0.4527 -0.3867
 1626W        W 5826   6.285   2.863   2.315  0.1494  0.2622  0.2576
 1627W        W 5827   3.105   0.957   2.882 -0.0957  0.1290  0.0363
 1628W        W 5828   6.318   6.263   1.808  0.2520  0.1409 -0.1075
 1629W        W 5829   6.974   6.453   0.343 -0.1118  0.0885 -0.6821
 1630W        W 5830   6.603   5.499   3.599 -0.5134  0.0077 -0.2597
 1631W        W 5831   0.337   2.654   0.080  0.0693 -0.0286  0.0407
 1632W        W 5832   6.939   1.187   9.501  0.0598  0.1114  0.2031
 1633W        W 5833   4.095   6.180   3.990 -0.0047 -0.0990 -0.1889
 1634W        W 5834   8.977   1.796   3.507 -0.2356  0.2878  0.2334
 1635W        W 5835   9.250   0.515  11.743 -0.0973 -0.0789  0.0816
 1636W        W 5836   2.626   6.103  13.331  0.2280 -0.0801  0.1890
 1637W        W 5837   6.683   7.247   9.902 -0.2614 -0.1205 -0.0315
 1638W        W 5838   9.691   2.621   4.792  0.1206  0.0501  0.1243
 1639W        W 5839   8.624   6.922  10.331  0.1936  0.1495 -0.0404
 1640W        W 5840   5.615   8.756   0.653 -0.0773 -0.1095  0.2440
 1641W        W 5841   0.064   2.993   3.300 -0.0995 -0.2005 -0.0876
 1642W        W 5842   1.656   0.739  11.305  0.2552 -0.0151  0.0344
 1643W        W 5843   2.872   9.957   1.001 -0.4545 -0.1528 -0.0981
 1644W        W 5844   6.015   3.667   0.685  0.0062  0.2324 -0.2122
 1645W        W 5845   6.321   4.255   9.848 -0.1903 -0.1690 -0.2391
 1646W        W 5846   3.449   5.202   0.054  0.1231 -0.1190  0.3291
 1647W        W 5847  10.280   0.948  10.635 -0.2285  0.2803  0.3651
 1648W        W 5848   1.453   5.711   3.261 -0.2627 -0.3449  0.0839
 1649W        W 5849   5.687   9.246  11.768 -0.1205  0.0524 -0.0529
 1650W        W 5850   0.251   0.302  12.608  0.0315  0.2648 -0.0269
 1651W        W 5851   1.980   1.771   2.574 -0.3195  0.0114  0.0798
 1652W        W 5852   6.901   6.414   1.368 -0.4044  0.3046 -0.0624
 1653W        W 5853   3.914   8.424  12.233  0.0382 -0.0691 -0.3640
 1654W        W 5854   2.050   4.914   1.728  0.0101 -0.2414 -0.1155
 1655W        W 5855   7.579   4.790  12.157 -0.1579  0.0317 -0.1333
 1656W        W 5856   2.742   3.688   4.430 -0.1523 -0.0042  0.1294
 1657W        W 5857   9.025  10.216  13.276 -0.0374  0.0253  0.0837
 1658W        W 5858   6.679   2.622   8.808 -0.0794  0.1778 -0.0571
 1659W        W 5859   0.887   0.312   2.128 -0.2540  0.3490  0.0357
 1660W        W 5860   1.926  10.006  11.326 -0.4138 -0.1234 -0.0529
 1661W        W 5861   2.302  10.110   2.428 -0.0952  0.0830  0.5105
 1662W        W 5862   1.102   0.831  12.108  0.0011 -0.1704 -0.2207
 1663W        W 5863   2.659   3.562  13.379  0.1919 -0.3511 -0.0196
 1664W        W 5864   3.876   1.276   3.832  0.0743 -0.1572 -0.1764
 1665W        W 5865   5.264   9.127   1.832 -0.2850  0.3563 -0.1378
 1666W        W 5866   6.443   3.215  12.759 -0.1329  0.2072 -0.1215
 1667W        W 5867   2.336   5.705   9.773 -0.1534  0.1324 -0.0561
 1668W        W 5868   9.270  10.121  11.788 -0.0009  0.2246 -0.1446
 1669W        W 5869   5.283   6.417   9.713  0.1128 -0.0463  0.1840
 1670W        W 5870   9.785   1.145   0.044 -0.0607 -0.5256  0.2274
 1671W        W 5871   8.170   0.875   0.174  0.0844  0.2627  0.0652
 1672W        W 5872   1.319   9.955   0.531 -0.2943 -0.2539  0.0772
 1673W        W 5873   6.343   9.896  11.239 -0.1000 -0.1681  0.0166
 1674W        W 5874   1.070   2.387   3.334 -0.1482  0.1641  0.1163
 1675W        W 5875   0.652   1.051   3.308  0.1879  0.0930  0.3723
 1676W        W 5876   6.971   2.697   1.985  0.0817  0.2370  0.1047
 1677W        W 5877  10.302   0.575   0.891  0.0929 -0.3251 -0.0920
 1678W        W 5878   3.101   9.885   0.488  0.1133 -0.1796  0.2026
 1679W        W 5879   0.436   9.230  12.902 -0.2505  0.2971 -0.0779
 1680W        W 5880   3.325   3.513   1.882  0.2241 -0.1713  0.1757
 1681W        W 5881   0.653   7.473   0.213  0.3515  0.1520  0.0298
 1682W        W 5882   6.066   7.076   1.970  0.3314 -0.1762 -0.0759
 1683W        W 5883   1.073   3.285   3.174 -0.1003 -0.1403  0.1879
 1684W        W 5884   6.691   7.576  11.103  0.1079  0.0643  0.0407
 1685W        W 5885   9.733   0.273  12.772  0.0322  0.0982 -0.0977
 1686W        W 5886   8.595   4.369   2.453 -0.0533 -0.0067  0.1719
 1687W        W 5887   5.075   7.733   9.960 -0.0905 -0.1509  0.1367
 1688W        W 5888   0.385   2.543  13.027 -0.2712  0.1862  0.0216
 1689W        W 5889   1.091   5.547   2.065 -0.2795 -0.0882 -0.0261
 1690W        W 5890   6.246   1.540   2.924 -0.3432  0.2002 -0.0435
 1691W        W 5891   8.043   4.635   2.547 -0.1158  0.1419 -0.0039
 1692W        W 5892   2.228   0.771  10.042 -0.1045 -0.0981  0.0118
 1693W        W 5893   2.845   7.866   9.307 -0.2576  0.2649 -0.0336
 1694W        W 5894   7.010   9.552   8.785  0.2258  0.2291  0.0159
 1695W        W 5895   6.484   8.659   9.897 -0.0216 -0.0536  0.0420
 1696W        W 5896   0.628   3.439  11.706 -0.0280 -0.3493  0.2043
 1697W        W 5897   1.031   0.462  10.750 -0.1780 -0.1927 -0.0496
 1698W        W 5898   9.096  10.412  11.339  0.1396 -0.0639 -0.0041
 1699W        W 5899   0.945   4.038   2.224 -0.0722 -0.1474 -0.0117
 1700W        W 5900   8.647   4.688  12.254 -0.3640  0.1034  0.3696
 1701W        W 5901   9.315   1.593   0.559 -0.2691 -0.1196 -0.0255
 1702W        W 5902   0.544   9.312   1.421 -0.3142 -0.2229  0.0803
 1703W        W 5903   4.143   4.855  10.042 -0.1545  0.1543  0.0228
 1704W        W 5904   9.358   7.568  11.462  0.2982  0.0901  0.0295
 1705W        W 5905   1.828   3.203  10.212  0.0382 -0.0339 -0.0405
 1706W        W 5906   6.140   4.860   2.089 -0.4729  0.2024  0.0098
 1707W        W 5907   9.639   9.851   1.904 -0.1336 -0.1112  0.0243
 1708W        W 5908   1.104   2.902   1.632 -0.2524 -0.1535 -0.0390
 1709W        W 5909   1.150   5.730  13.172 -0.0324  0.2149 -0.0086
 1710W        W 5910   2.713   2.700  10.137  0.1187  0.0165  0.3116
 1711W        W 5911   0.894   2.867   1.142  0.0392 -0.2732 -0.0343
 1712W        W 5912   4.426   5.577   9.484 -0.0531  0.2624 -0.0738
 1713W        W 5913   4.536   4.787  10.421  0.3433  0.1030  0.1364
 1714W        W 5914   6.938   3.344   3.597 -0.0875  0.2776  0.2482
 1715W        W 5915   1.581   8.331   0.837  0.2325 -0.2840  0.0648
 1716W        W 5916   4.770   4.641  11.887  0.1038 -0.1823  0.0228
 1717W        W 5917  10.090   3.513   3.682 -0.0288  0.2489  0.0424
 1718W        W 5918   9.450   4.103   0.886 -0.2845  0.0224  0.0221
 1719W        W 5919   4.096   8.492  10.389  0.2291  0.2776  0.1632
 1720W        W 5920   3.476   1.689   3.628 -0.1306  0.0044  0.1004
 1721W        W 5921   8.659   1.723   1.748  0.0224 -0.3275 -0.3652
 1722W        W 5922   3.468   3.029   0.553  0.1918 -0.1242 -0.1299
 1723W        W 5923   0.675   3.008  12.903  0.1460  0.1628 -0.5206
 1724W        W 5924   2.045   5.175   3.894  0.2297 -0.0529  0.2090
 1725W        W 5925   3.152   6.046   9.414  0.0190  0.1502 -0.0476
 1726W        W 5926   8.817   9.430  12.089  0.2757 -0.0288 -0.1617
 1727W        W 5927   6.926   5.104   4.258 -0.1802 -0.1257  0.1855
 1728W        W 5928   5.546   6.877   2.075 -0.2249  0.0864  0.2747
 1729W        W 5929  10.192   2.022   1.734  0.2047  0.0488  0.2795
 1730W        W 5930   2.714   7.681   2.588  0.0664 -0.1822  0.1851
 1731W        W 5931   7.547   5.874  12.860 -0.3365 -0.0667 -0.0721
 1732W        W 5932   7.142   4.153   2.087  0.0977  0.1314  0.0921
 1733W        W 5933   7.572   8.196  11.760  0.0802  0.2206  0.0665
 1734W        W 5934   3.199   9.139   9.200 -0.4551  0.1657  0.0867
 1735W        W 5935   2.658   6.819   2.643  0.1298  0.0530 -0.0165
 1736W        W 5936  10.052   3.496   3.050  0.0711  0.0004  0.0213
 1737W        W 5937   2.610   6.722  12.747  0.2954 -0.0972  0.0763
 1738W        W 5938   9.412   4.167  10.555  0.1272 -0.0334 -0.1021
 1739W        W 5939   4.998   7.922   0.023 -0.2400 -0.2624 -0.0668
 1740W        W 5940   5.263  10.141   3.684 -0.2649  0.2513 -0.1345
 1741W        W 5941   2.348   7.814   0.715  0.2027  0.1370  0.1766
 1742W        W 5942   9.676   5.228  12.796  0.2283 -0.1365  0.0944
 1743W        W 5943   6.736   6.116  11.212  0.1921  0.0192  0.0247
 1744W        W 5944   6.890   3.722   0.587 -0.0425 -0.0588  0.2218
 1745W        W 5945   7.597   3.413  12.434 -0.2883  0.1906  0.1170
 1746W        W 5946   5.876   7.419   2.680  0.1544 -0.2185 -0.2646
 1747W        W 5947   2.644   4.632   4.275 -0.0323 -0.0804  0.1340
 1748W        W 5948   4.521   4.915   8.922 -0.0264 -0.1988  0.3104
 1749W        W 5949   1.305   0.889   0.464 -0.0723 -0.1916 -0.0577
 1750W        W 5950   4.410   0.386   0.714  0.1693 -0.0068 -0.1700
 1751W        W 5951   3.779   1.442   2.561  0.3436  0.2087 -0.0268
 1752W        W 5952   9.858   8.516   1.318 -0.0727 -0.0175  0.1225
 1753W        W 5953   1.540   3.374  11.153 -0.1290  0.1264  0.2507
 1754W        W 5954   4.511   7.466   9.119  0.1174 -0.0513  0.0284
 1755W        W 5955   9.835   3.028   4.582  0.1441  0.0014  0.2561
 1756W        W 5956   2.567   1.742   3.224  0.1701  0.0160 -0.3272
 1757W        W 5957   7.901   8.234   1.645 -0.0636  0.1936  0.0388
 1758W        W 5958   8.154   6.056   9.042 -0.2512  0.1175  0.2007
 1759W        W 5959   6.574   8.180  11.779  0.0817  0.6129  0.0120
 1760W        W 5960   0.941   0.343  11.981  0.3798 -0.1684  0.1713
 1761W        W 5961  10.270   8.356   2.769  0.1472  0.3112 -0.0671
 1762W        W 5962   1.019   9.440  11.336  0.1612  0.1659  0.1108
 1763W        W 5963   5.038   0.518   9.519  0.1173 -0.0559 -0.0541
 1764W        W 5964   8.155   0.862   1.662  0.1919  0.4376  0.1549
 1765W        W 5965   6.910   4.713   1.187  0.1876  0.2024 -0.2639
 1766W        W 5966   9.895   8.783  10.981  0.1665  0.0408 -0.1361
 1767W        W 5967   4.495   5.823   9.912 -0.1535  0.3913 -0.0452
 1768W        W 5968   9.175   5.504   1.750 -0.1722 -0.2076  0.3604
 1769W        W 5969   4.333   2.619  11.322  0.1058  0.0572 -0.0863
 1770W        W 5970   4.930   0.353  12.798  0.2666 -0.1257  0.2033
 1771W        W 5971   6.709   9.769   3.278  0.1759  0.1069 -0.0437
 1772W        W 5972   6.114   3.996  13.338  0.1589  0.1609 -0.0435
 1773W        W 5973   6.041   8.661  12.870  0.1632 -0.1354 -0.2316
 1774W        W 5974   8.167   3.270  13.317  0.0814  0.2610  0.1024
 1775W        W 5975   4.428   8.303   3.040  0.1634 -0.0398 -0.1514
 1776W        W 5976   3.594   4.004   3.478  0.0317  0.0451 -0.0009
 1777W        W 5977   9.785   0.287  13.289 -0.0509  0.0272  0.0585
 1778W        W 5978   2.757   1.673  13.034  0.2082 -0.0164 -0.1121
 1779W        W 5979   0.263   4.310   2.146  0.0694  0.0358 -0.0115
 1780W        W 5980   8.484   1.786  11.492  0.0476  0.2439  0.2034
 1781W        W 5981   2.728   8.536   0.862  0.0154 -0.0748 -0.2464
 1782W        W 5982   6.768   8.341   1.208 -0.0186 -0.0274 -0.2213
 1783W        W 5983   5.121   1.320   3.604  0.2837 -0.1616  0.3226
 1784W        W 5984   3.034   0.581  11.065  0.3080  0.0507  0.0417
 1785W        W 5985   6.490   9.366  13.261  0.1462  0.0486 -0.1177
 1786W        W 5986   8.584   9.203  10.735  0.2369 -0.1573 -0.2586
 1787W        W 5987   4.615   3.983  10.037  0.3200 -0.0336 -0.1512
 1788W        W 5988   2.357   1.903   0.899 -0.2794  0.1006 -0.0581
 1789W        W 5989   2.894   5.352   3.639  0.2564 -0.3364 -0.1418
 1790W        W 5990   1.721   3.881  11.013 -0.1562 -0.0748  0.1217
 1791W        W 5991   6.335   0.713  11.305  0.1656 -0.2402 -0.1030
 1792W        W 5992   4.696   9.844   4.529 -0.1096 -0.0092  0.2551
 1793W        W 5993   5.944   7.880   9.471 -0.1467  0.5139  0.2171
 1794W        W 5994   2.894   1.546   8.280 -0.1497  0.0007 -0.2862
 1795W        W 5995   6.185   3.305   2.520 -0.0796 -0.1249  0.0741
 1796W        W 5996   2.905   4.293   0.879  0.1909 -0.1123 -0.0844
 1797W        W 5997   2.587   5.284  12.778 -0.1387 -0.0770 -0.0706
 1798W        W 5998   5.645   4.340   1.407  0.2105  0.1473  0.0151
 1799W        W 5999   2.884   6.922  11.113 -0.1879 -0.0908 -0.1985
 1800W        W 6000   6.250   4.195   3.481 -0.1235 -0.1727  0.1155
 1801W        W 6001   3.318   6.141   2.520  0.3509 -0.2688  0.2038
 1802W        W 6002   2.618   9.154   0.554  0.0089  0.2024 -0.2667
 1803W        W 6003   9.451   0.605   3.268 -0.0186  0.1764  0.1307
 1804W        W 6004   6.659   6.527  10.876  0.0014  0.0779 -0.0351
 1805W        W 6005   1.620   3.866   4.585  0.2175 -0.0674 -0.1811
 1806W        W 6006   9.573  10.454  11.309  0.1557  0.1691 -0.0206
 1807W        W 6007   0.278   5.456   3.359 -0.0716 -0.0395 -0.2351
 1808W        W 6008   3.441   3.204  12.809  0.0601  0.0542 -0.1135
 1809W        W 6009   1.812   5.608  12.152  0.1769  0.1704  0.2405
 1810W        W 6010   3.049   7.489   1.160  0.3107 -0.0461 -0.1126
 1811W        W 6011   3.327   7.158   3.292 -0.1765  0.0485  0.1657
 1812W        W 6012   5.245   6.197  12.370 -0.2645 -0.1497  0.2304
 1813W        W 6013   8.144   6.229  10.069 -0.0455  0.1210 -0.4639
 1814W        W 6014  10.344   4.626  11.209  0.2084 -0.3059 -0.2037
 1815W        W 6015   3.249   8.475   3.106 -0.3803  0.3668 -0.0157
 1816W        W 6016   2.296   8.633  10.983 -0.1433  0.1799  0.0695
 1817W        W 6017   9.898   5.057   2.350 -0.1120 -0.0705  0.0808
 1818W        W 6018   0.449   1.268   4.256 -0.2384 -0.1512 -0.3115
 1819W        W 6019   7.429   5.697   2.116  0.0799  0.2672  0.2182
 1820W        W 6020   2.314   4.271   2.690 -0.1738 -0.1517  0.1442
 1821W        W 6021   1.604   2.939  10.821  0.0540 -0.1888 -0.0504
 1822W        W 6022   9.204   4.578   0.952  0.1503  0.1126  0.0443
 1823W        W 6023   0.380   3.349  12.176 -0.0677  0.1721  0.3589
 1824W        W 6024   0.944   1.259   9.678  0.0441 -0.2182 -0.0506
 1825W        W 6025  10.062   4.777   2.806 -0.0617 -0.1633 -0.0247
 1826W        W 6026   8.905   1.872  11.794  0.1167  0.2033 -0.0174
 1827W        W 6027   8.769   1.254   3.611  0.1777 -0.0371 -0.0892
 1828W        W 6028   4.814   6.361   4.928  0.0056  0.0016 -0.0242
 1829W        W 6029   4.763   5.942   2.004  0.0973  0.0182  0.1112
 1830W        W 6030   6.782   6.814   3.839 -0.0756  0.0875 -0.0602
 1831W        W 6031   6.404   3.912   0.408 -0.4559  0.0381 -0.0953
 1832W        W 6032   3.880   0.699  12.575 -0.1376  0.3968  0.0715
 1833W        W 6033   0.269   8.848   2.492  0.0990  0.0046 -0.2877
 1834W        W 6034   2.634  10.070   1.411 -0.0772 -0.0421  0.1983
 1835W        W 6035  10.040   4.973   9.752  0.0775 -0.4203 -0.0116
 1836W        W 6036   4.586   2.665  12.372 -0.2966  0.2554  0.0345
 1837W        W 6037   2.276   5.172  10.015 -0.4713  0.2928  0.0409
 1838W        W 6038   7.254   0.795   2.437 -0.1108  0.2296  0.2549
 1839W        W 6039   0.501  10.337   0.944 -0.0083 -0.2241  0.2413
 1840W        W 6040   1.459   9.769  11.337  0.2299  0.4273 -0.0525
 1841W        W 6041   8.225   0.546  12.285 -0.2471  0.0688 -0.1656
 1842W        W 6042   9.364   2.705  10.857 -0.5852 -0.2306  0.4397
 1843W        W 6043   6.132   1.031   1.634  0.2333 -0.3641  0.1418
 1844W        W 6044   5.316   8.403  12.432  0.0428 -0.1225 -0.0285
 1845W        W 6045   1.574   8.560  12.303 -0.1789 -0.1171  0.2369
 1846W        W 6046   0.467  10.338   0.407 -0.0640  0.4709  0.0786
 1847W        W 6047   6.289   4.773   8.811  0.2366  0.0013  0.3394
 1848W        W 6048   6.528   0.185  12.128 -0.0781 -0.2589 -0.1270
 1849W        W 6049   9.176   7.374   0.980 -0.0035 -0.1610  0.0549
 1850W        W 6050   3.121   2.896   4.861  0.1162 -0.1330  0.0705
 1851W        W 6051   5.886   0.477  11.199  0.3434 -0.2495 -0.2438
 1852W        W 6052   6.243   0.122   0.740 -0.0487  0.1183  0.0724
 1853W        W 6053   7.745   0.801  12.173  0.2327  0.3409 -0.4035
 1854W        W 6054   6.868   6.182   3.555  0.1551 -0.0167 -0.1081
 1855W        W 6055   3.838   8.864   9.766 -0.0647 -0.0371  0.2142
 1856W        W 6056   8.998   5.128   9.524 -0.3471  0.1010  0.4460
 1857W        W 6057   6.494   3.735   9.656 -0.1424  0.1155 -0.0188
 1858W        W 6058   0.845   6.156   1.182 -0.2126  0.1379 -0.0988
 1859W        W 6059   5.422   0.206  12.024  0.1824 -0.0798 -0.3106
 1860W        W 6060   2.757   2.895   9.710 -0.0349  0.2136  0.0909
 1861W        W 6061   8.858   0.211   0.002 -0.0240  0.0122 -0.0482
 1862W        W 6062   0.845   7.048   0.575 -0.1403  0.3008  0.0856
 1863W        W 6063   7.527   6.022  10.650  0.0343  0.1701 -0.0171
 1864W        W 6064   0.815   4.247   4.050 -0.0063 -0.0312  0.1391
 1865W        W 6065   3.921   2.323  11.323 -0.6639 -0.1412 -0.3485
 1866W        W 6066   5.559   1.653  13.133  0.0661  0.0168 -0.1219
 1867W        W 6067   4.532   8.548   4.620  0.1055 -0.1644 -0.0663
 1868W        W 6068   0.056   6.611   3.057 -0.0783 -0.2406  0.4016
 1869W        W 6069   0.422   0.457  12.057 -0.2436 -0.2378 -0.0282
 1870W        W 6070   0.737   4.944  11.030 -0.3971 -0.4581 -0.0188
 1871W        W 6071   6.934   8.509   3.605  0.2221  0.2679 -0.1101
 1872W        W 6072   3.537   0.694  12.119 -0.2495 -0.0881  0.0089
 1873W        W 6073   7.230   9.927   2.045 -0.0389  0.1813  0.1439
 1874W        W 6074  10.254   1.105   2.155  0.1562 -0.0393  0.0543
 1875W        W 6075   4.007   0.722  10.972  0.5678  0.3043  0.2498
 1876W        W 6076   1.989   9.879  10.685  0.2374  0.0357  0.3132
 1877W        W 6077   2.458  10.072   2.877 -0.0392 -0.2699  0.0134
 1878W        W 6078   3.618  10.465  10.554  0.2306  0.0599 -0.2290
 1879W        W 6079   1.470   7.018  12.221  0.0743  0.0636 -0.0196
 1880W        W 6080   9.668   4.589  11.529 -0.2912 -0.0927  0.0606
 1881W        W 6081   3.518   3.082  11.718 -0.0250  0.0142 -0.2241
 1882W        W 6082   0.903   5.939  12.578 -0.2275  0.2747  0.0206
 1883W        W 6083   3.093   6.936  12.855  0.1293  0.0074 -0.1030
 1884W        W 6084   6.035   5.697  10.714  0.0565 -0.2262  0.2411
 1885W        W 6085   4.415   4.646   2.082 -0.1381 -0.1655 -0.0128
 1886W        W 6086   6.001   9.683   9.681 -0.1569 -0.2060 -0.0794
 1887W        W 6087   3.120   2.231  13.052  0.0487  0.1324 -0.1069
 1888W        W 6088   2.668   2.228   4.424 -0.1810 -0.0215  0.0024
 1889W        W 6089   7.274   8.811   0.495 -0.2161 -0.1878 -0.3078
 1890W        W 6090   4.177   9.947   1.633  0.1947 -0.0749 -0.0054
 1891W        W 6091   4.570   3.768   3.127  0.0438 -0.4050 -0.1503
 1892W        W 6092   2.103   8.548   3.952  0.1255 -0.0930  0.3063
 1893W        W 6093   5.840   8.785   9.869 -0.2603 -0.5021 -0.0243
 1894W        W 6094   2.239   8.716   9.653 -0.1737  0.3788  0.2136
 1895W        W 6095   0.442   5.813  12.962 -0.0597 -0.1794  0.1865
 1896W        W 6096   2.013   5.393   9.662  0.1337 -0.0785  0.0502
 1897W        W 6097   1.384   2.631   1.281  0.0372  0.1748  0.2618
 1898W        W 6098   7.638   4.473  12.895 -0.0753  0.0035  0.1555
 1899W        W 6099   4.357  10.126   9.747  0.1247 -0.1476  0.0217
 1900W        W 6100   0.373   8.480  10.742 -0.3464  0.0331 -0.1746
 1901W        W 6101   6.464   1.384   1.544 -0.2880  0.2421  0.0040
 1902W        W 6102   4.238   1.758   2.580  0.2203  0.1575  0.0450
 1903W        W 6103   7.256   9.982   1.136 -0.1197  0.0209  0.0201
 1904W        W 6104   7.304   9.427  12.032 -0.0034 -0.3110  0.0343
 1905W        W 6105   4.060  10.261   3.415  0.3574  0.1231  0.1435
 1906W        W 6106   8.235   2.297  12.901  0.1464  0.0349 -0.2487
 1907W        W 6107   9.328   9.528  12.497 -0.0322  0.1614  0.3075
 1908W        W 6108   5.348   3.786  10.618  0.2160  0.3525  0.0694
 1909W        W 6109   0.909  10.276   1.790  0.3373  0.0034  0.0047
 1910W        W 6110  10.456   2.332   2.559  0.1062  0.0323 -0.1791
 1911W        W 6111   1.875   8.593  10.674  0.0925  0.3723  0.2660
 1912W        W 6112   2.497   3.552   9.897 -0.2132 -0.2231  0.0573
 1913W        W 6113   9.482   0.418  12.153 -0.2215  0.2468 -0.0073
 1914W        W 6114   7.006   8.084  12.396  0.1033  0.2484 -0.0409
 1915W        W 6115   5.517   6.852   1.183 -0.1445  0.1422  0.0235
 1916W        W 6116   2.040  10.460  12.583  0.0720 -0.2753  0.0152
 1917W        W 6117   4.739   2.417   2.530  0.0654  0.1821 -0.0210
 1918W        W 6118   3.625   6.714   9.202 -0.0669  0.1253  0.0411
 1919W        W 6119   3.551   2.138  13.370  0.0082  0.3487 -0.2231
 1920W        W 6120   8.850   4.895   0.759  0.2518  0.1662 -0.2203
 1921W        W 6121   4.799   1.002   4.229 -0.4137  0.1566  0.0091
 1922W        W 6122   4.177   2.820   8.908  0.1437  0.1398 -0.0337
 1923W        W 6123   7.680  10.132   1.019 -0.0183  0.1678  0.0081
 1924W        W 6124   4.360   0.137   4.744 -0.1322  0.0039 -0.2928
 1925W        W 6125   2.373   9.854   4.279  0.1092 -0.2316 -0.0321
 1926W        W 6126   3.982   5.094   0.117 -0.1719  0.0612 -0.1579
 1927W        W 6127   6.442   4.172  11.246 -0.1130  0.3300 -0.4951
 1928W        W 6128   8.624   9.347   1.986  0.0445  0.0550 -0.0461
 1929W        W 6129   2.200   6.409   1.451 -0.2103  0.0101 -0.2348
 1930W        W 6130   6.991   1.283   3.521 -0.0381  0.1798 -0.0677
 1931W        W 6131   7.959   5.120   2.390  0.0393  0.0354 -0.2055
 1932W        W 6132   2.596   3.273   9.403 -0.0774 -0.2850 -0.3935
 1933W        W 6133   3.952   9.700  11.529  0.2206 -0.4319 -0.1701
 1934W        W 6134   4.564   1.705  13.401  0.1266 -0.3850 -0.0752
 1935W        W 6135   3.834   1.473   3.337  0.2754  0.5680 -0.3539
 1936W        W 6136   1.576  10.269   1.851 -0.0258  0.3133  0.1580
 1937W        W 6137   9.395   7.373  10.989  0.2163 -0.1531  0.0255
 1938W        W 6138   6.387   1.603   1.070  0.0272  0.0388  0.1276
 1939W        W 6139   5.378   7.154   2.561  0.0111 -0.0622 -0.0152
 1940W        W 6140   5.294   6.931   9.550  0.0670  0.4164 -0.1773
 1941W        W 6141   7.652   7.254  10.128  0.0814  0.1012  0.0069
 1942W        W 6142   3.802   7.414   4.808 -0.0390  0.1835 -0.1763
 1943W        W 6143   0.225   2.363   3.554  0.2981  0.2086  0.0577
 1944W        W 6144   4.966   4.282   9.795 -0.0204  0.2676  0.3211
 1945W        W 6145   1.213   5.131  13.019  0.1104  0.1055  0.4713
 1946W        W 6146   5.237   6.938  12.943  0.0347 -0.0087 -0.0880
 1947W        W 6147   8.213   7.962  11.941 -0.2433 -0.3157  0.0555
 1948W        W 6148   3.058   4.628   2.857 -0.3141 -0.0165 -0.2043
 1949W        W 6149   3.750   8.913   4.179 -0.0651 -0.1049 -0.0507
 1950W        W 6150   6.281   2.008   0.143 -0.0664 -0.4054 -0.1351
 1951W        W 6151   9.089   7.347   1.465 -0.4429 -0.5457  0.0321
 1952W        W 6152   2.786   5.631  11.159  0.1310  0.0880 -0.0738
 1953W        W 6153   2.390   4.792  13.348  0.0238 -0.1856  0.1859
 1954W        W 6154   0.192   3.235   5.328  0.1336  0.0396 -0.1012
 1955W        W 6155   3.149   0.242  10.614 -0.1111 -0.0375 -0.0561
 1956W        W 6156   6.151   2.106  10.853  0.0382 -0.2690 -0.1311
 1957W        W 6157   3.027   2.409   4.139  0.3054 -0.1801 -0.0124
 1958W        W 6158   6.604   4.970  10.661  0.1421  0.3729  0.2957
 1959W        W 6159   4.652   5.157   3.860 -0.0878 -0.1973 -0.0520
 1960W        W 6160   5.253   0.371   1.882 -0.3377 -0.1229 -0.1726
 1961W        W 6161   9.019   7.963  11.733  0.0160 -0.1610  0.0846
 1962W        W 6162   0.648   2.235  12.241  0.2318  0.1180 -0.2337
 1963W        W 6163   4.231   2.709   1.492 -0.1532 -0.1116 -0.0494
 1964W        W 6164   6.287   7.494  10.206 -0.0858  0.0149  0.1502
 1965W        W 6165   2.592   6.606   3.083  0.1596  0.0560  0.2567
 1966W        W 6166  10.304   0.242   3.777 -0.0065  0.1927 -0.0265
 1967W        W 6167   1.864   6.881   1.082 -0.0995  0.2707  0.0047
 1968W        W 6168   7.627   1.289  12.272 -0.2394  0.0628  0.1418
 1969W        W 6169   9.932   5.115   8.729 -0.2217 -0.2049 -0.0997
 1970W        W 6170   8.435   0.893   9.610  0.0629  0.1951  0.0254
 1971W        W 6171  10.076   9.614   0.950 -0.1587 -0.2677 -0.1112
 1972W        W 6172   1.101   8.519   3.147 -0.0095 -0.0625  0.2296
 1973W        W 6173   3.931   0.550   4.250  0.3034  0.0680 -0.2725
 1974W        W 6174   3.513   3.126   9.847 -0.2659  0.0656 -0.0669
 1975W        W 6175   2.249   9.668   2.124 -0.0257  0.0952 -0.1419
 1976W        W 6176   5.435   7.146   9.139  0.0735  0.0617  0.1009
 1977W        W 6177   1.210   2.761   0.190 -0.2962  0.2269 -0.2586
 1978W        W 6178   2.531   0.683  12.996  0.3544  0.4102  0.1785
 1979W        W 6179   0.235   0.709  10.757 -0.0345  0.1426 -0.0092
 1980W        W 6180   7.304   4.629   3.537 -0.1539  0.0107  0.0360
 1981W        W 6181   9.751   4.238   2.725  0.3571 -0.1144  0.1803
 1982W        W 6182   5.051   9.713  10.073  0.0955  0.4130  0.0058
 1983W        W 6183   5.392   0.948   5.108  0.0408  0.3005  0.1115
 1984W        W 6184   8.883   2.987  11.984  0.1642  0.1782 -0.2769
 1985W        W 6185   0.426   5.164   9.556 -0.1919 -0.0570 -0.0783
 1986W        W 6186   6.660   3.953   1.972  0.0522  0.3371 -0.0223
 1987W        W 6187   9.939   9.283   2.729  0.2671  0.1279 -0.2445
 1988W        W 6188   5.531   6.743  10.431 -0.0100  0.0134 -0.2816
 1989W        W 6189   3.805   2.252   0.770 -0.0994  0.0529 -0.0228
 1990W        W 6190   5.896   0.270   1.080  0.1054 -0.0008  0.0360
 1991W        W 6191   4.858   4.075  10.949 -0.0232  0.1024 -0.1042
 1992W        W 6192   3.939   6.546   4.440 -0.1380  0.0096  0.0735
 1993W        W 6193   1.216   1.942   0.870  0.0132 -0.0635  0.2362
 1994W        W 6194   9.842   4.070  11.720  0.1757  0.3138  0.0252
 1995W        W 6195   4.702   7.106   4.396  0.1595 -0.0283  0.0074
 1996W        W 6196   9.433   1.924   2.975  0.1204 -0.0159  0.0522
 1997W        W 6197   6.226   8.869   1.673 -0.5668 -0.0686 -0.3346
 1998W        W 6198   0.740   6.330   2.508 -0.2895 -0.2365  0.1629
 1999W        W 6199   1.369   6.988  13.115  0.1636  0.2245  0.1189
 2000W        W 6200   1.330   5.391   0.613 -0.0502  0.0501  0.0663
 2001W        W 6201   1.610   8.226  11.807  0.0817 -0.2742  0.1772
 2002W        W 6202   6.559   7.160   1.947  0.1858  0.1298  0.0681
 2003W        W 6203   1.557   3.924   3.628  0.1135 -0.1233  0.0902
 2004W        W 6204   1.486   8.487   2.695 -0.2269  0.3114 -0.1260
 2005W        W 6205   5.537   1.384   9.695 -0.1776  0.0685  0.3268
 2006W        W 6206   2.148   8.959  12.031 -0.1802  0.1261 -0.3743
 2007W        W 6207   9.366   4.788   3.264 -0.3102  0.1130  0.1952
 2008W        W 6208   2.499   4.026   1.054  0.0560  0.5788 -0.0035
 2009W        W 6209   7.127   2.297   0.741 -0.4726 -0.0175 -0.1020
 2010W        W 6210   2.270  10.051  12.897  0.1323 -0.2432 -0.0114
 2011W        W 6211   6.011   3.767   1.211 -0.2143 -0.0433 -0.1693
 2012W        W 6212   1.119   9.966  10.547 -0.1780  0.1119  0.2523
 2013W        W 6213   5.050   6.699  12.517 -0.1741  0.1593  0.1965
 2014W        W 6214   3.682   9.404  10.083 -0.1773 -0.1364  0.1703
 2015W        W 6215   8.873   3.296  12.883 -0.0398  0.1436 -0.3055
 2016W        W 6216   2.519   0.193   0.445 -0.1212 -0.0211  0.1424
 2017W        W 6217   0.453   2.374   8.789  0.3331 -0.3568  0.2665
 2018W        W 6218   8.171   2.621   3.694 -0.1149 -0.4877  0.0762
 2019W        W 6219   2.306  10.043  11.045 -0.2096 -0.1304  0.0656
 2020W        W 6220   1.641   6.103   0.392  0.1412  0.2331 -0.0710
 2021W        W 6221   3.796  10.171   4.577  0.1155  0.1236 -0.0150
 2022W        W 6222   6.997   3.850   8.920  0.0089 -0.1242  0.0908
 2023W        W 6223   2.645   4.195   9.802 -0.0469 -0.1329  0.2688
 2024W        W 6224   8.221   9.794   3.138 -0.3998  0.2367  0.1476
 2025W        W 6225   6.192  10.431   3.842  0.2015  0.0558 -0.0632
 2026W        W 6226   6.563   6.749   2.959 -0.2518  0.0013  0.3659
 2027W        W 6227   2.253   1.446  11.823 -0.3928 -0.1841  0.0392
 2028W        W 6228   0.157   1.952   9.949 -0.1443 -0.0027  0.0425
 2029W        W 6229   8.376   8.241   7.460 -0.2090  0.2886 -0.3203
 2030W        W 6230   5.858   4.173  12.857 -0.1387 -0.1233  0.2551
 2031W        W 6231   3.714   4.886   2.503 -0.1715  0.4516  0.0328
 2032W        W 6232   2.681   4.633   2.262  0.5845  0.3103  0.0516
 2033W        W 6233   8.044   9.816   0.688  0.3479 -0.0182  0.2668
 2034W        W 6234   1.247   2.835   0.745 -0.1611  0.0981 -0.1576
 2035W        W 6235   9.631   5.170  10.383 -0.0037 -0.0297  0.1070
 2036W        W 6236   7.323   4.359   2.611  0.1717  0.0455 -0.1619
 2037W        W 6237   9.162   5.377  11.797  0.1736 -0.0924 -0.3251
 2038W        W 6238   9.365   5.897  10.465 -0.1832  0.0072 -0.1021
 2039W        W 6239   1.044   4.832   9.647 -0.2481  0.0920  0.0285
 2040W        W 6240   0.089   3.618   4.469  0.2225 -0.0410  0.2118
 2041W        W 6241   8.259   7.293  13.280 -0.1781 -0.3364  0.0472
 2042W        W 6242   4.630   7.146  12.751  0.2360  0.3387 -0.0659
 2043W        W 6243  10.179   2.278  10.061 -0.0824  0.0564  0.0649
 2044W        W 6244   6.283   6.144  12.383  0.1182  0.0452 -0.1027
 2045W        W 6245   4.513   4.169  12.700  0.2534 -0.2362  0.0222
 2046W        W 6246   5.413   0.537   3.181  0.0464 -0.0142 -0.0244
 2047W        W 6247   0.776   3.010  13.450 -0.0151  0.4403  0.0225
 2048W        W 6248   8.393   9.477   0.505 -0.1936 -0.1710  0.0574
 2049W        W 6249   8.590   3.342   9.881 -0.1140  0.1991  0.0193
 2050W        W 6250   2.813  10.286   2.274 -0.0269 -0.3058  0.2916
 2051W        W 6251   9.344   1.059   4.998  0.1585  0.0066 -0.0957
 2052W        W 6252   1.967   8.896   1.264 -0.1207 -0.3519 -0.1424
 2053W        W 6253   4.190   9.848   2.661 -0.2171 -0.0816  0.2660
 2054W        W 6254   7.313   5.342   0.654  0.1255 -0.0179  0.0428
 2055W        W 6255   9.339   9.098  10.873  0.0226 -0.1069 -0.0243
 2056W        W 6256   6.016   6.974   9.220 -0.2996 -0.0232 -0.0595
 2057W        W 6257   2.179   0.908  11.650  0.0183  0.1536 -0.1821
 2058W        W 6258   1.110   3.641   2.526 -0.2407  0.0396 -0.2515
 2059W        W 6259   2.677   0.886  10.892  0.3858  0.1119 -0.3626
 2060W        W 6260   2.698   8.054   5.343 -0.2202 -0.1890  0.2412
 2061W        W 6261   1.499   0.919   3.946 -0.3021  0.0229  0.0918
 2062W        W 6262   0.355   2.819   3.765 -0.0235 -0.0110  0.1690
 2063W        W 6263   6.326   7.841   9.719  0.1396  0.2422  0.2427
 2064W        W 6264   3.299   3.097   1.546  0.0284 -0.2388  0.3600
 2065W        W 6265   5.505   5.899   8.805  0.0210 -0.2322 -0.4259
 2066W        W 6266   5.783  10.374   1.409 -0.0514  0.0349 -0.2632
 2067W        W 6267   6.564   2.543   4.460  0.1435 -0.3066 -0.2447
 2068W        W 6268   7.278  10.174  11.745  0.3514 -0.3586 -0.0189
 2069W        W 6269   7.819   2.141   3.919  0.2040  0.1563  0.0689
 2070W        W 6270  10.121   1.961  12.694  0.1449 -0.0266 -0.2105
 2071W        W 6271   7.384   1.361  11.682  0.0069 -0.4053  0.2540
 2072W        W 6272   5.406   9.853  11.029 -0.3594  0.2547  0.4585
 2073W        W 6273   5.158   8.544   0.565 -0.0478 -0.0567 -0.1669
 2074W        W 6274   4.514   5.956   3.126  0.2278 -0.3573 -0.0632
 2075W        W 6275   5.421   6.327  11.891 -0.0082  0.2112 -0.2372
 2076W        W 6276   5.974   2.452   3.122 -0.1150 -0.2404  0.0225
 2077W        W 6277   3.113   5.185   4.047 -0.0157  0.2087  0.0507
 2078W        W 6278   0.689   0.691  11.072  0.0693 -0.0185 -0.0177
 2079W        W 6279   2.611   7.337   1.736  0.3068 -0.3784 -0.3316
 2080W        W 6280   8.978   0.047  10.863 -0.0432  0.3145  0.0326
 2081W        W 6281  10.048   1.502   9.837 -0.0150 -0.4196 -0.0130
 2082W        W 6282   5.982   4.634   1.688  0.5592  0.1787 -0.2173
 2083W        W 6283   2.076   8.445   2.085 -0.1480  0.2163  0.1469
 2084W        W 6284   2.797   6.880   4.004 -0.1412  0.0249  0.2020
 2085W        W 6285   9.029   2.072   1.020  0.1432  0.0993  0.0206
 2086W        W 6286   1.330   5.037  10.006  0.2656  0.2378  0.1099
 2087W        W 6287   1.780   0.900  11.992  0.0970 -0.1040 -0.0856
 2088W        W 6288   1.126   9.504   0.689 -0.2970  0.1418  0.0914
 2089W        W 6289   3.812   0.153  11.134 -0.0290  0.0551  0.1036
 2090W        W 6290   9.863   5.158   0.195  0.2613  0.2938  0.1576
 2091W        W 6291   5.504   1.767   1.563 -0.1969  0.1542 -0.1751
 2092W        W 6292   9.254   4.953   3.856 -0.1491 -0.2887 -0.1143
 2093W        W 6293   8.614   4.360  11.006  0.1214  0.0144  0.0185
 2094W        W 6294   3.791   2.913  13.095 -0.0486 -0.0734  0.0585
 2095W        W 6295   3.559   2.331   4.178  0.0066 -0.0090  0.1362
 2096W        W 6296   4.887   1.353   9.551  0.1963  0.1342 -0.3709
 2097W        W 6297   0.840   6.798  11.898 -0.1864  0.1671  0.0738
 2098W        W 6298   9.685   8.245  10.934 -0.1778 -0.2102  0.1405
 2099W        W 6299   1.988   7.388   2.448 -0.3702  0.0077 -0.1720
 2100W        W 6300   5.969   0.807  13.221  0.0641 -0.2645  0.3828
 2101W        W 6301   9.174   2.406   4.655 -0.0565  0.2802 -0.0053
 2102W        W 6302   6.778   8.368   0.230 -0.1552  0.0251 -0.1515
 2103W        W 6303   9.608   4.985   1.081  0.0549 -0.1170 -0.0551
 2104W        W 6304   7.186   1.677   3.318 -0.3412 -0.2642 -0.1232
 2105W        W 6305   2.018  10.429   3.774  0.0520  0.3149  0.0202
 2106W        W 6306   6.867   8.612   2.603 -0.0934  0.1993  0.2506
 2107W        W 6307   4.569  10.429  12.733  0.0515  0.3957 -0.3261
 2108W        W 6308   3.626   3.321  13.417 -0.0060  0.0279  0.1968
 2109W        W 6309   7.707   2.238  12.335  0.0228  0.0297 -0.1120
 2110W        W 6310   6.611   2.471   0.068 -0.3794  0.3391 -0.2195
 2111W        W 6311   4.371   2.118   1.881  0.1710 -0.0192 -0.0352
 2112W        W 6312   3.454   7.761   4.007  0.1340 -0.2836 -0.1062
 2113W        W 6313   0.733   3.106  10.339  0.1772 -0.1035 -0.4055
 2114W        W 6314   0.337   9.506  13.323 -0.3869 -0.0906 -0.2137
 2115W        W 6315   3.827   3.507  12.638 -0.2595  0.1825 -0.0867
 2116W        W 6316   4.639   9.548  10.335 -0.3672  0.0039 -0.1952
 2117W        W 6317   6.024   1.882  10.435  0.3171 -0.0359 -0.0597
 2118W        W 6318   0.959   1.402   4.134  0.2689  0.2522 -0.3062
 2119W        W 6319   1.951   5.798   2.095 -0.0638 -0.1602 -0.1564
 2120W        W 6320   6.699   2.079   0.427  0.0258  0.1187 -0.5084
 2121W        W 6321   3.217   1.045  10.869 -0.2326  0.2299  0.1917
 2122W        W 6322   6.509   4.814   0.282  0.2331  0.0888 -0.1560
 2123W        W 6323   0.138   3.673  10.963 -0.0049  0.1200  0.0403
 2124W        W 6324   0.181   9.070   1.152  0.3447  0.1126 -0.0361
 2125W        W 6325   6.785   7.417  12.427  0.0438 -0.2740  0.1110
 2126W        W 6326   4.937   5.783   4.349 -0.0941  0.1324  0.0900
 2127W        W 6327   9.991   0.127  11.529 -0.0998 -0.2998 -0.1524
 2128W        W 6328   8.325   8.070  11.085  0.3260  0.0250 -0.3477
 2129W        W 6329   5.481   7.837  10.791  0.4138 -0.0727 -0.1966
 2130W        W 6330   9.019   4.409  11.302 -0.1022  0.3800 -0.4851
 2131W        W 6331  10.222   0.863   1.334 -0.0302  0.1209 -0.0316
 2132W        W 6332   3.017   4.913   1.856 -0.3750 -0.2863  0.1645
 2133W        W 6333   7.719   9.393  11.668 -0.0943 -0.3055 -0.1059
 2134W        W 6334  10.113  10.133  12.569 -0.0877  0.2213  0.0735
 2135W        W 6335   6.760   7.779  12.058 -0.0006  0.0824  0.1436
 2136W        W 6336   4.882   1.939   1.922 -0.1134 -0.0940  0.1281
 2137W        W 6337   4.497   2.375   3.322  0.1932 -0.0224 -0.0458
 2138W        W 6338   9.251   9.077  12.729 -0.0597  0.1747 -0.2395
 2139W        W 6339   3.943   1.425   9.202 -0.3921 -0.1716 -0.2262
 2140W        W 6340   9.195   9.042  11.685 -0.0101  0.1965  0.3512
 2141W        W 6341   4.247   3.351  11.462  0.1582 -0.1504  0.1062
 2142W        W 6342   1.637   4.697   3.249  0.1164 -0.2855 -0.0734
 2143W        W 6343   5.073   8.596   4.385 -0.2829  0.1060 -0.3262
 2144W        W 6344   4.229   2.447   2.847 -0.2114 -0.0636  0.0078
 2145W        W 6345   5.226   4.106   1.907 -0.1860 -0.2055 -0.0717
 2146W        W 6346   6.471   6.247   9.323 -0.0990  0.1199 -0.0609
 2147W        W 6347   6.604   6.489  12.757 -0.0720 -0.0678  0.4103
 2148W        W 6348   6.861   3.412   3.044 -0.1303  0.3177  0.1839
 2149W        W 6349   3.691   6.612   8.668  0.1542 -0.0565 -0.0509
 2150W        W 6350   6.183   7.403   9.516  0.3051  0.0684  0.0335
 2151W        W 6351   6.905   2.432   3.894  0.0165 -0.0201  0.0204
 2152W        W 6352   5.715   2.855   3.365  0.2011 -0.0501 -0.0985
 2153W        W 6353   8.547   2.844   9.789 -0.0727  0.2604 -0.0283
 2154W        W 6354   4.552   2.024   2.940 -0.2362  0.1222 -0.0094
 2155W        W 6355   1.983   2.598  10.738  0.1642 -0.0999  0.1258
 2156W        W 6356   2.841   9.289   2.448  0.1478 -0.0469  0.2488
 2157W        W 6357   1.496   1.393  12.680  0.2324  0.0145  0.1274
 2158W        W 6358   9.265   3.659   0.588 -0.2088  0.2095 -0.0062
 2159W        W 6359   6.502   4.515   8.391 -0.1889 -0.1223  0.1325
 2160W        W 6360   1.391   2.673  11.732  0.2300  0.2039  0.0061
 2161W        W 6361   3.378   2.226   8.811 -0.0524  0.1865  0.1438
 2162W        W 6362   0.621   1.560  11.164  0.2189 -0.1361  0.1438
 2163W        W 6363   0.178   4.051   4.690 -0.3639 -0.2288 -0.1930
 2164W        W 6364   5.131   6.236   5.374 -0.1330 -0.0266  0.2932
 2165W        W 6365   3.126   1.697  11.555 -0.0449 -0.2036 -0.0945
 2166W        W 6366   6.473   5.336  11.815 -0.0465 -0.3410  0.1697
 2167W        W 6367   7.364   9.040   1.842  0.0949  0.0980  0.3598
 2168W        W 6368  10.089   7.839  11.039  0.1973  0.1166 -0.0829
 2169W        W 6369  10.238   9.942  11.409 -0.0929 -0.3146 -0.1309
 2170W        W 6370   5.953   3.389   8.941  0.3719 -0.3208  0.0246
 2171W        W 6371   8.205   1.361   1.970 -0.0997 -0.0526 -0.1031
 2172W        W 6372   5.962   6.009   8.624 -0.1577  0.1038 -0.1409
 2173W        W 6373   6.554   7.025   2.460 -0.2901 -0.0568 -0.2295
 2174W        W 6374   9.481   0.803   4.601 -0.3084  0.0995  0.0198
 2175W        W 6375   1.818   8.639  12.913 -0.1554  0.2449  0.0726
 2176W        W 6376   8.429   5.937  11.931 -0.1180  0.3067  0.1111
 2177W        W 6377   6.167   2.601   9.969 -0.1213  0.1122  0.1485
 2178W        W 6378   3.284   0.434   9.859  0.0991  0.1365  0.0518
 2179W        W 6379   6.295   4.976  11.405  0.0043  0.0282 -0.0460
 2180W        W 6380   1.716  10.136   3.097 -0.1218 -0.0095  0.1839
 2181W        W 6381   4.238   4.570   0.085  0.0256  0.2426  0.1237
 2182W        W 6382   7.894  10.438   4.033 -0.2170 -0.2609  0.2297
 2183W        W 6383   8.029   1.481  11.574 -0.2429 -0.3139  0.1264
 2184W        W 6384   1.799   1.979   0.805 -0.2949 -0.2304 -0.0527
 2185W        W 6385   4.796   8.788   1.320  0.3160 -0.0468  0.0841
 2186W        W 6386   2.521   9.650   0.756 -0.0999  0.0156  0.0348
 2187W        W 6387   2.289   0.080   4.722 -0.1672 -0.3399  0.2914
 2188W        W 6388   1.731   4.122  13.188 -0.1180 -0.0723  0.0689
 2189W        W 6389   4.551   2.123   4.517 -0.1508 -0.3421  0.1805
 2190W        W 6390   0.356   3.997  10.694  0.2986 -0.0627 -0.2516
 2191W        W 6391   4.855   9.411   0.914  0.0031  0.0253 -0.0033
 2192W        W 6392   2.359   8.722   3.139  0.4220 -0.2229 -0.0461
 2193W        W 6393   3.018   5.109  13.292 -0.0429  0.2757 -0.0341
 2194W        W 6394   8.426   1.715   8.357 -0.0907 -0.1155  0.0291
 2195W        W 6395   0.568   6.886   2.972  0.3448 -0.1302  0.2473
 2196W        W 6396   0.755   5.922   0.766 -0.1078  0.2074  0.2467
 2197W        W 6397   0.932   5.597   9.222  0.1315  0.0645  0.1281
 2198W        W 6398   0.387   7.590  10.694 -0.2157 -0.1211  0.0341
 2199W        W 6399   9.497   5.288  13.243 -0.3174  0.1023  0.0629
 2200W        W 6400   0.016   6.768  12.696 -0.0442 -0.2126 -0.3303
 2201W        W 6401   8.721   6.032   3.557 -0.1895 -0.0920 -0.2086
 2202W        W 6402   9.606   2.623  12.526  0.1220  0.1950 -0.1596
 2203W        W 6403   1.964   2.682  10.185  0.4165 -0.0759  0.0402
 2204W        W 6404  10.287   4.187   2.261 -0.1346 -0.2355  0.3895
 2205W        W 6405   2.185   6.020   0.710 -0.3650 -0.1377 -0.1367
 2206W        W 6406   3.912  10.260   2.846 -0.3132  0.0552  0.0767
 2207W        W 6407   7.104   0.154  10.322  0.2963 -0.0749  0.2063
 2208W        W 6408   3.791   9.192   0.178  0.0699  0.1953 -0.1608
 2209W        W 6409   5.903   9.984  10.938  0.0437 -0.0404 -0.0868
 2210W        W 6410   1.582   1.433   1.835  0.1213  0.3685 -0.0779
 2211W        W 6411   7.572   3.520   1.499  0.1256  0.2555  0.2236
 2212W        W 6412   0.290   4.171   3.382  0.0345 -0.0070  0.2067
 2213W        W 6413   4.486   4.485   2.534  0.0819  0.0004  0.0198
 2214W        W 6414   4.178   7.603   9.832 -0.1811 -0.0040 -0.0360
 2215W        W 6415   2.224   1.937  12.995 -0.3461 -0.2234  0.1103
 2216W        W 6416   4.481   8.593   9.564  0.1860  0.1041 -0.1279
 2217W        W 6417   5.114   3.063   9.000 -0.0946 -0.0845 -0.1277
 2218W        W 6418   7.435   2.409  10.179  0.0237 -0.4438  0.3486
 2219W        W 6419   2.377   1.507   9.063  0.0529 -0.1453 -0.1156
 2220W        W 6420   9.702   0.774   9.270  0.1377  0.2415 -0.0937
 2221W        W 6421   5.591   2.465   0.378 -0.1177  0.2725  0.0766
 2222W        W 6422   5.170   6.682   9.139 -0.2619 -0.0453  0.0325
 2223W        W 6423   1.452   4.441   3.601 -0.0686  0.3498 -0.0763
 2224W        W 6424   1.306   0.706  10.338  0.0711  0.0202  0.2152
 2225W        W 6425   1.733   7.228  11.125  0.1132 -0.2864 -0.1148
 2226W        W 6426   5.225   5.268   0.096  0.2060 -0.1126  0.2237
 2227W        W 6427   5.779  10.040   9.326  0.0115 -0.1800  0.0797
 2228W        W 6428   5.612   6.623   8.336  0.0840  0.1679 -0.0998
 2229W        W 6429   5.426   1.234   1.965 -0.4077 -0.1429 -0.0237
 2230W        W 6430   9.722   1.229   3.651  0.0405  0.0493  0.0505
 2231W        W 6431   1.876   5.162   0.757  0.0030  0.0703  0.2922
 2232W        W 6432   1.196   1.596  10.071 -0.1152 -0.2783  0.3043
 2233W        W 6433   4.686   3.670   0.492  0.0185 -0.0409 -0.0832
 2234W        W 6434   2.736   9.839  13.003  0.2071 -0.1050 -0.2488
 2235W        W 6435   1.875   1.706   0.372  0.2855  0.0196 -0.0455
 2236W        W 6436   7.810   4.126   1.316 -0.0184  0.0507  0.0409
 2237W        W 6437   5.571   7.305  13.098 -0.2655 -0.0682  0.3049
 2238W        W 6438   4.577   0.210   9.764  0.1305 -0.0108 -0.3123
 2239W        W 6439   3.373   3.598   9.834  0.2269 -0.1181  0.1853
 2240W        W 6440   7.718   1.068  11.497 -0.2563 -0.1407  0.1024
 2241W        W 6441   7.328   4.419   4.029  0.0970  0.0182 -0.0547
 2242W        W 6442   7.711   2.768  10.422  0.2657 -0.0155  0.1987
 2243W        W 6443   5.906   1.936   2.930  0.3334  0.2689  0.1360
 2244W        W 6444   3.122   8.453  10.570  0.3128 -0.1770 -0.0894
 2245W        W 6445   3.820   2.794   3.947  0.1409  0.1697 -0.1989
 2246W        W 6446   3.657   3.772   1.072 -0.0818 -0.2165 -0.1781
 2247W        W 6447   7.000   7.001   9.638 -0.1507 -0.1902 -0.1517
 2248W        W 6448   4.507   0.525   9.383  0.0337 -0.1799  0.2221
 2249W        W 6449   2.746   3.274   2.816 -0.2100 -0.0585  0.0595
 2250W        W 6450   2.879   7.926  12.277  0.3273  0.0702 -0.0032
 2251W        W 6451   5.991   5.011  11.821 -0.0901  0.1409 -0.0653
 2252W        W 6452   1.416  10.314   8.970  0.1826 -0.0290  0.0981
 2253W        W 6453   1.495   4.627  12.546 -0.0368  0.1834 -0.2389
 2254W        W 6454   5.431   7.268  10.627 -0.0905 -0.3090 -0.3179
 2255W        W 6455   7.308   1.484   1.129 -0.4402 -0.0629  0.0869
 2256W        W 6456   8.339   2.587  12.526  0.0872 -0.2016  0.1073
 2257W        W 6457   1.765  10.372  11.004 -0.1135 -0.1092 -0.5924
 2258W        W 6458   5.470   6.912  11.742 -0.2972  0.0845  0.1156
 2259W        W 6459   9.040   3.868  10.457  0.2232 -0.0303  0.1725
 2260W        W 6460   2.096  10.354   9.719  0.1522 -0.0314  0.4000
 2261W        W 6461   9.275   5.682   2.909 -0.0474  0.1500  0.3510
 2262W        W 6462   0.419   0.062   2.126 -0.2781 -0.0632 -0.0698
 2263W        W 6463   3.973   1.384   4.307  0.1278  0.0306  0.0220
 2264W        W 6464   7.973   7.604   2.154 -0.1123 -0.2127 -0.2492
 2265W        W 6465   1.803   1.287  10.831  0.1363 -0.1939  0.1406
 2266W        W 6466   7.527   3.140   1.148  0.0170  0.2594  0.1347
 2267W        W 6467   9.360   6.378  12.684 -0.1978 -0.1003 -0.0269
 2268W        W 6468   9.768   6.365  11.671 -0.0866 -0.3385  0.2792
 2269W        W 6469   1.543   6.499   1.938 -0.3218 -0.2420  0.1883
 2270W        W 6470   2.276   7.355   3.545  0.3306 -0.1571  0.0423
 2271W        W 6471   0.742   9.587   2.437 -0.1380 -0.1208  0.2804
 2272W        W 6472   7.154   4.206  12.307 -0.1536 -0.2523  0.2691
 2273W        W 6473   1.097   6.735  12.518  0.0083 -0.3292 -0.1095
 2274W        W 6474   4.613   4.389   4.677  0.2840  0.3627  0.1657
 2275W        W 6475  10.063   3.963   0.205  0.1229  0.1023  0.2632
 2276W        W 6476   1.016   1.551   3.460 -0.0324  0.1208 -0.0907
 2277W        W 6477   5.943   2.963   9.223 -0.2006  0.0334 -0.2923
 2278W        W 6478   1.623   8.961   2.520  0.2454  0.3989  0.2033
 2279W        W 6479   1.403   5.165   2.366 -0.1640 -0.1152  0.1577
 2280W        W 6480   8.314   3.712   2.433 -0.0999 -0.1100  0.0608
 2281W        W 6481   1.621   9.565   0.363  0.0243 -0.2182  0.2038
 2282W        W 6482   1.685   5.056  11.265 -0.3052 -0.0831 -0.2301
 2283W        W 6483   4.158   8.551   3.613 -0.4422  0.1757  0.1572
 2284W        W 6484   5.270   2.086   0.154 -0.3668 -0.4402  0.1770
 2285W        W 6485  10.032   8.205  11.757  0.0525  0.2087 -0.0543
 2286W        W 6486   1.092   7.904  12.853 -0.1089  0.4766 -0.0696
 2287W        W 6487   4.065   3.000   0.543 -0.1801  0.0498  0.2223
 2288W        W 6488   8.353   4.020   3.921  0.1310 -0.0272 -0.2054
 2289W        W 6489   6.459   9.389   2.984  0.2309  0.4780  0.0323
 2290W        W 6490   7.720   4.699   4.780 -0.0546  0.0945  0.4594
 2291W        W 6491   6.057   6.496   3.795 -0.2110 -0.0964 -0.0596
 2292W        W 6492   5.119   2.369   8.320 -0.0006  0.0168  0.0729
 2293W        W 6493   4.330   2.452  12.723 -0.1581 -0.1804  0.0402
 2294W        W 6494   8.144   0.361   8.868 -0.2882 -0.0498  0.0251
 2295W        W 6495   2.882   4.049   1.349 -0.2681  0.1667  0.2774
 2296W        W 6496   9.498   4.761   2.705 -0.0584  0.3426 -0.0865
 2297W        W 6497   9.391   0.347   9.528  0.2047  0.0187 -0.2280
 2298W        W 6498   2.340   4.333  13.079 -0.0047 -0.1099 -0.0944
 2299W        W 6499   0.457   1.561  12.964  0.1552  0.0540  0.1019
 2300W        W 6500   0.876   8.253   9.590  0.1205 -0.1508  0.0464
 2301W        W 6501   9.712   4.804   0.589  0.0747 -0.0457 -0.0701
 2302W        W 6502   4.456   1.281  13.262  0.1943 -0.0172 -0.0067
 2303W        W 6503   1.156   2.142  10.044 -0.0998  0.2829 -0.0286
 2304W        W 6504   2.927   8.751   2.823 -0.1086  0.0392  0.0023
 2305W        W 6505   2.038   5.547   8.772  0.1110 -0.1234 -0.0941
 2306W        W 6506   4.586  10.296  13.438  0.0598 -0.2370 -0.3587
 2307W        W 6507   4.338   0.063  11.104  0.0655 -0.0347  0.0949
 2308W        W 6508   6.570   0.180   0.398 -0.3913  0.1326 -0.1879
 2309W        W 6509   2.520   0.151   3.779  0.0633  0.0724 -0.0610
 2310W        W 6510   6.364   6.067   3.601  0.1355 -0.1831  0.2279
 2311W        W 6511   7.707   2.030   2.241  0.2171  0.2401  0.1421
 2312W        W 6512   4.944   2.539   3.542  0.0511 -0.1094 -0.0423
 2313W        W 6513   6.079   5.575  12.080 -0.1620  0.0559  0.3262
 2314W        W 6514  10.248   3.723   0.753 -0.2095 -0.3605  0.1562
 2315W        W 6515   8.727   2.414   1.219  0.1550  0.1020 -0.1872
 2316W        W 6516   9.803   2.348   3.846  0.5390  0.0897  0.0351
 2317W        W 6517   8.586   1.250   3.126  0.0360 -0.0948 -0.0871
 2318W        W 6518   7.900   3.074  12.241  0.1234  0.0401 -0.0061
 2319W        W 6519   6.026   9.392   1.546  0.1217 -0.0140 -0.0620
 2320W        W 6520   4.608   1.200   3.222 -0.0428  0.2810 -0.0651
 2321W        W 6521   6.383   5.775   9.631 -0.0442 -0.1812  0.1986
 2322W        W 6522   8.185   5.510  11.191  0.0821 -0.1218  0.1891
 2323W        W 6523   3.383   7.763   1.419 -0.0168  0.3441  0.0901
 2324W        W 6524   3.266   4.701   0.686  0.1003  0.2898 -0.0522
 2325W        W 6525   1.083   4.690  13.328 -0.2412  0.0286  0.2252
 2326W        W 6526   1.197   2.715   4.841  0.0671 -0.3005 -0.2792
 2327W        W 6527   4.497   3.954   1.587  0.1185  0.0173  0.0556
 2328W        W 6528   4.877   3.785   3.751 -0.0870 -0.0438 -0.1281
 2329W        W 6529   3.130   2.563   2.570  0.2365 -0.2980  0.2389
 2330W        W 6530   2.610   3.448  10.733  0.3246  0.1606  0.2623
 2331W        W 6531   5.881   2.218   3.552  0.0682  0.2218 -0.0700
 2332W        W 6532   8.612   1.967   4.757 -0.2426  0.1629  0.2684
 2333W        W 6533   8.319   8.403  10.161 -0.1239  0.3917 -0.0566
 2334W        W 6534   7.831   2.234   1.379  0.1838  0.0247 -0.1330
 2335W        W 6535   0.658   0.144  10.516  0.1378 -0.0886  0.0796
 2336W        W 6536   6.508   7.821  13.042  0.1040 -0.1310  0.1093
 2337W        W 6537   6.821   9.131   9.922 -0.2383  0.2610 -0.1815
 2338W        W 6538   1.295   4.426   8.569  0.1235 -0.3763  0.0484
 2339W        W 6539   3.130   6.890   9.233  0.0917 -0.2395  0.0582
 2340W        W 6540   0.317   4.212   1.500  0.1335  0.0218 -0.1900
 2341W        W 6541   9.274   2.947  12.863  0.2280 -0.1175  0.2222
 2342W        W 6542   9.964   8.581  10.343 -0.1745  0.2242  0.1126
 2343W        W 6543   9.563   1.546   3.266  0.0466  0.0376 -0.1021
 2344W        W 6544   7.306   5.026  11.264 -0.1398  0.0808 -0.0380
 2345W        W 6545   0.010   0.532  10.320  0.0576  0.0477 -0.1632
 2346W        W 6546   9.091   7.931   0.411 -0.1473  0.1672 -0.0526
 2347W        W 6547   7.385   0.581   2.957 -0.0317  0.0204  0.0293
 2348W        W 6548  10.247   9.043   9.716 -0.1110 -0.0923 -0.1902
 2349W        W 6549   2.262   0.636   0.517 -0.0310 -0.0363 -0.0491
 2350W        W 6550   4.630   9.379   2.350 -0.0244  0.1145  0.0246
 2351W        W 6551   7.859  10.289  12.123 -0.0364 -0.0470  0.2720
 2352W        W 6552   5.297   5.663  12.456  0.1788  0.0809 -0.2379
 2353W        W 6553   7.996   4.181  11.506  0.0590  0.0596 -0.1095
 2354W        W 6554   1.066   1.679   2.013 -0.0498  0.2570  0.0689
 2355W        W 6555   5.614   7.017   2.990  0.0751 -0.2719  0.1917
 2356W        W 6556   9.297   3.598   2.236 -0.3228 -0.0328  0.1575
 2357W        W 6557   7.135   4.756   2.971 -0.3993 -0.0181  0.2459
 2358W        W 6558   0.537   1.937  11.555 -0.3527  0.0453  0.2515
 2359W        W 6559   8.873   8.454   2.041 -0.1587  0.0805 -0.0100
 2360W        W 6560   9.583   7.459   2.959 -0.1061 -0.0436  0.2833
 2361W        W 6561   3.742   4.205   1.393  0.0066  0.2969  0.1008
 2362W        W 6562   2.856   1.257  10.553  0.0076  0.1313  0.0795
 2363W        W 6563   9.949   5.191  12.365 -0.1972  0.0668  0.4136
 2364W        W 6564   4.107   6.765  12.472  0.0897 -0.1396  0.2047
 2365W        W 6565   0.142   1.883  12.737  0.1018  0.1177  0.1106
 2366W        W 6566   2.241   9.617  12.684 -0.2156  0.0829 -0.1459
 2367W        W 6567   3.452   6.940   9.794 -0.0187  0.0569 -0.3152
 2368W        W 6568   8.386   9.804  11.464 -0.0354 -0.0557 -0.4453
 2369W        W 6569   7.520   3.872   4.204 -0.0313  0.1614 -0.1506
 2370W        W 6570   5.444   3.276   2.394  0.0164  0.1996 -0.0789
 2371W        W 6571   6.898   0.554  13.099  0.1191  0.0455  0.1438
 2372W        W 6572   6.987   1.082  10.746  0.2605 -0.3794  0.0290
 2373W        W 6573   6.376   9.193  10.480 -0.0574 -0.0898  0.2877
 2374W        W 6574   5.661   7.956   2.746  0.0464  0.1652 -0.1752
 2375W        W 6575   7.062   3.783   3.359  0.0618  0.0339  0.4194
 2376W        W 6576   8.237   5.597  12.203  0.0607  0.0472  0.0173
 2377W        W 6577   8.599   7.287   3.600  0.3563 -0.1878  0.1092
 2378W        W 6578  10.254   1.577   2.036 -0.0646  0.3700  0.2998
 2379W        W 6579   4.183   2.442   4.729  0.1337 -0.3103 -0.0664
 2380W        W 6580   4.710   9.487   3.869 -0.1283  0.0240 -0.2704
 2381W        W 6581   1.877   1.075  12.479  0.1637 -0.1159 -0.1035
 2382W        W 6582   5.391   2.265   9.377  0.2232  0.1809 -0.0345
 2383W        W 6583   7.258   2.737  10.710  0.0729  0.1278  0.3718
 2384W        W 6584   5.028   4.839  13.012  0.0377 -0.2500 -0.0281
 2385W        W 6585   4.859   6.650  13.417  0.0354 -0.1344 -0.1533
 2386W        W 6586   8.626   9.609  11.055 -0.0899  0.1840 -0.2109
 2387W        W 6587   8.243   0.632   4.804  0.2976 -0.1566 -0.0185
 2388W        W 6588   1.706  10.175  12.170 -0.3650 -0.0323  0.0084
 2389W        W 6589   9.147   9.595  11.085  0.1088  0.4410  0.1621
 2390W        W 6590   8.265   3.448  12.061  0.3792  0.0336  0.0736
 2391W        W 6591   7.232   7.148  13.299 -0.0069 -0.1234  0.2628
 2392W        W 6592  10.475   9.812  10.551  0.0303 -0.1331  0.2788
 2393W        W 6593   4.184   5.285   1.698  0.1692 -0.0256 -0.3694
 2394W        W 6594   9.591   4.057   1.374 -0.0093 -0.3398 -0.1760
 2395W        W 6595   8.364   9.320   3.793  0.2623  0.1470 -0.5004
 2396W        W 6596   0.932   3.240   9.926 -0.2688 -0.0263 -0.4167
 2397W        W 6597   8.054   5.723   2.399 -0.0460  0.1410 -0.2155
 2398W        W 6598   1.379   4.173  10.249  0.0140  0.0016  0.1640
 2399W        W 6599   8.770   8.704  10.063 -0.2489 -0.0003 -0.1600
 2400W        W 6600   0.127   0.053  12.147 -0.0831 -0.0018  0.1002
 2401W        W 6601   2.393   4.841   1.354  0.2159 -0.2215 -0.2134
 2402W        W 6602   2.932   6.786  11.637  0.1281  0.0456  0.0708
 2403W        W 6603   3.831   4.015   2.588 -0.1071  0.2772 -0.1446
 2404W        W 6604   7.739   3.604   0.925 -0.2297 -0.1324 -0.2305
 2405W        W 6605   8.110   4.219   1.806 -0.0360  0.0799  0.2404
 2406W        W 6606   9.516   6.613   1.862 -0.1934  0.0560  0.0002
 2407W        W 6607   3.629   9.880   0.553  0.1096 -0.1074  0.1818
 2408W        W 6608   8.312   2.335   9.825  0.0738  0.4146 -0.2180
 2409W        W 6609   7.852   3.065   1.540 -0.1364 -0.1665 -0.1148
 2410W        W 6610   7.322   4.601   1.780 -0.4612 -0.3576 -0.1040
 2411W        W 6611   9.406   8.450   2.153  0.3377 -0.0624  0.2778
 2412W        W 6612   9.672   6.198   1.601 -0.1894  0.2120 -0.1411
 2413W        W 6613   9.181   1.653   1.656 -0.3284 -0.2227 -0.1354
 2414W        W 6614   5.263   2.025  11.036 -0.1501 -0.0356 -0.1577
 2415W        W 6615   9.635   0.729   3.985  0.1950 -0.0124 -0.1256
 2416W        W 6616   1.480   7.479  12.074  0.0482 -0.2954 -0.0017
 2417W        W 6617   2.179   8.717  13.276  0.1497 -0.1039 -0.0031
 2418W        W 6618   4.253   8.690   1.073 -0.0539  0.0378 -0.0603
 2419W        W 6619   4.180   8.773  11.161  0.2910 -0.1606 -0.0798
 2420W        W 6620  10.051   2.169   1.154 -0.3885 -0.2210 -0.0364
 2421W        W 6621   0.668   3.508   2.845  0.0188  0.2093  0.2023
 2422W        W 6622   0.511   1.536   9.973 -0.0899 -0.3133  0.1614
 2423W        W 6623   9.045   4.205   2.189  0.2030 -0.3028  0.0951
 2424W        W 6624   4.128   2.885   4.916 -0.1567  0.1122 -0.1062
 2425W        W 6625   4.755   5.749   3.877 -0.2914 -0.1319  0.0951
 2426W        W 6626   7.386   0.953   4.439 -0.2933  0.0248  0.1686
 2427W        W 6627   1.383   8.016  13.259 -0.1113 -0.2947 -0.1238
 2428W        W 6628   8.435   1.543  11.947 -0.0866  0.0421  0.0163
 2429W        W 6629   0.722   3.020  11.286  0.2640  0.0104 -0.2791
 2430W        W 6630   2.410   3.751  11.061 -0.0756 -0.0479  0.0910
 2431W        W 6631   4.339   1.459   3.615  0.0674 -0.1783  0.0412
 2432W        W 6632   6.597   1.694   8.688  0.2304  0.0423  0.3729
 2433W        W 6633   5.995   2.041   4.919  0.2936 -0.2198  0.0249
 2434W        W 6634   0.249   7.243   6.577  0.0894  0.2444 -0.1163
 2435W        W 6635   7.512   2.228   2.647 -0.0958 -0.5038 -0.0326
 2436W        W 6636   5.237   6.122   1.794 -0.0190 -0.0320 -0.3062
 2437W        W 6637   6.360   8.387   1.652 -0.3783  0.0557  0.0111
 2438W        W 6638   3.031   6.200   1.692  0.0687  0.0600 -0.0515
 2439W        W 6639   0.529   4.933   2.578  0.3617  0.0076  0.0958
 2440W        W 6640   5.388   3.258   9.730  0.0812 -0.1028 -0.1301
 2441W        W 6641   9.021   4.095   0.528 -0.1772 -0.4640 -0.2390
 2442W        W 6642   1.325   7.294  12.669 -0.0169  0.0770  0.0318
 2443W        W 6643   3.907   8.946   3.690  0.0249 -0.0395 -0.0637
 2444W        W 6644  10.320  10.079  10.172  0.0523 -0.0061  0.2144
 2445W        W 6645   6.564   5.229   8.795  0.1257  0.0656  0.0370
 2446W        W 6646   6.317   7.532  12.206  0.2061 -0.1262  0.1443
 2447W        W 6647   8.605   9.613   3.365 -0.3218 -0.1761 -0.0080
 2448W        W 6648   2.666   1.746  10.760 -0.2028 -0.0103  0.2638
 2449W        W 6649   5.252   2.881  11.484 -0.2591  0.1271  0.2062
 2450W        W 6650   9.907   8.785   0.505 -0.2248 -0.0581 -0.2621
 2451W        W 6651  10.330   3.703  11.347  0.6756  0.2019 -0.1188
 2452W        W 6652   5.686  10.310   2.563 -0.1031 -0.1473  0.0739
 2453W        W 6653   5.894   3.599   3.666 -0.2991 -0.0279 -0.1311
 2454W        W 6654   7.197   2.771   3.590 -0.3561  0.0797 -0.0876
 2455W        W 6655   0.375   4.853   0.562 -0.0913 -0.2027  0.1442
 2456W        W 6656   6.538   1.579  11.450 -0.0974  0.0809 -0.1464
 2457W        W 6657   8.381   4.301  10.551  0.0844  0.0753  0.0367
 2458W        W 6658   4.000   6.134  11.885  0.1288  0.2619  0.0268
 2459W        W 6659   7.169   7.044  10.877 -0.2464 -0.0401 -0.3803
 2460W        W 6660   3.967   0.438   0.407 -0.1179  0.1667  0.0955
 2461W        W 6661   3.272   1.476  12.446 -0.2161  0.2650 -0.1244
 2462W        W 6662   8.657   5.315  12.481  0.0987 -0.0090 -0.0126
 2463W        W 6663   1.339   4.579   5.050  0.0325  0.3824  0.1912
 2464W        W 6664   4.878   3.203   3.105 -0.2070  0.3723 -0.2994
 2465W        W 6665   2.637   0.904  11.445  0.0467 -0.0130 -0.1933
 2466W        W 6666   2.672   9.494   3.874 -0.2070 -0.0326  0.1129
 2467W        W 6667   8.597   3.680   4.615  0.4656  0.0803  0.1927
 2468W        W 6668   4.825   5.440   2.088 -0.0978  0.2544 -0.0035
 2469W        W 6669   8.190   4.171  12.401  0.2156 -0.0942 -0.1027
 2470W        W 6670   5.925   3.549  11.523 -0.0431  0.2073  0.2405
 2471W        W 6671   8.926   5.382   2.176  0.0024  0.1178  0.0707
 2472W        W 6672   0.898   6.558  11.493 -0.3251  0.2753 -0.3585
 2473W        W 6673   0.035   9.262   2.931  0.1265  0.0747  0.1490
 2474W        W 6674   2.856   2.041   2.885 -0.0062 -0.0635  0.0433
 2475W        W 6675   9.052   1.446   3.113 -0.0866 -0.1217  0.3654
 2476W        W 6676   3.626   9.323  10.893  0.0080 -0.0505 -0.1870
 2477W        W 6677   3.967   3.610   2.175 -0.1260 -0.0822  0.1433
 2478W        W 6678   6.372   9.816   1.019 -0.2981 -0.1427  0.0353
 2479W        W 6679   9.301   5.550   0.400  0.0666 -0.2499  0.0989
 2480W        W 6680   8.532   6.742  11.496  0.1865  0.2780  0.0401
 2481W        W 6681   8.021   2.009   2.654  0.1328  0.1240  0.2030
 2482W        W 6682  10.342   7.908   2.497 -0.0281  0.0824  0.0225
 2483W        W 6683   1.645   7.568   1.826  0.0859 -0.0156 -0.2297
 2484W        W 6684   7.681   8.784   4.032 -0.0116  0.1276 -0.0570
 2485W        W 6685   6.555   8.077  10.976 -0.0031 -0.0668 -0.3043
 2486W        W 6686   9.337   2.403   2.935  0.1423 -0.0952 -0.1502
 2487W        W 6687   8.003   1.798   0.191  0.2130  0.0299  0.0669
 2488W        W 6688   4.764   7.111  13.263 -0.4902  0.1977 -0.0628
 2489W        W 6689   4.569   8.408  10.168  0.2343 -0.0076  0.1081
 2490W        W 6690   7.061   8.805   2.196 -0.0124  0.0371 -0.1756
 2491W        W 6691   3.398   8.233   4.658  0.0559 -0.0924 -0.3664
 2492W        W 6692   0.409   8.981   3.251  0.0134  0.1237 -0.3558
 2493W        W 6693   1.111   6.332   3.711 -0.0238 -0.2284  0.3773
 2494W        W 6694   9.570   4.859   9.011  0.0010 -0.1152  0.1172
 2495W        W 6695   3.139   8.696   1.434  0.0337  0.3029 -0.0403
 2496W        W 6696   4.333   1.461  10.502 -0.3119  0.0945 -0.1841
 2497W        W 6697   4.764   0.739  11.552  0.1194  0.0383 -0.1226
 2498W        W 6698   8.802   1.396  11.663  0.2604 -0.2260 -0.1274
 2499W        W 6699   2.414   0.369   1.285 -0.0222  0.1091 -0.1404
 2500W        W 6700   6.566   3.764  13.432  0.1726  0.3020  0.0877
 2501W        W 6701   5.975   8.577   2.081  0.0474 -0.1116  0.0682
 2502W        W 6702   4.426   4.818  11.409 -0.0789  0.1554  0.0961
 2503W        W 6703   9.236  10.268   9.853 -0.0635  0.0600 -0.0332
 2504W        W 6704   2.007   8.414   2.939  0.1479  0.1777 -0.2869
 2505W        W 6705   3.189  10.031  12.662  0.0268 -0.5322 -0.0148
 2506W        W 6706   8.933   5.528   1.340  0.0081 -0.2490 -0.0734
 2507W        W 6707   3.140   8.636   4.044  0.0958 -0.1355  0.2858
 2508W        W 6708   8.651   4.384   1.811 -0.1281  0.2891 -0.2013
 2509W        W 6709   4.820   5.173   0.341  0.1507  0.2439 -0.2695
 2510W        W 6710   4.834   3.376   0.112 -0.4246 -0.1869  0.1675
 2511W        W 6711   1.567   7.789  12.857 -0.2893  0.0878  0.1627
 2512W        W 6712   6.881   8.534   3.101 -0.0922  0.1410  0.2611
 2513W        W 6713   1.195   3.383  12.402  0.3673 -0.1684  0.1556
 2514W        W 6714   6.972   1.684   3.862  0.1866  0.1859  0.0878
 2515W        W 6715   8.746   7.570  12.575  0.2762 -0.0765 -0.1099
 2516W        W 6716   0.500   4.204   9.293  0.0225 -0.2478 -0.1672
 2517W        W 6717   6.828   0.798  12.662  0.0248  0.2939  0.1678
 2518W        W 6718   7.683   7.579   9.485  0.0986  0.1836 -0.0954
 2519W        W 6719   6.938   9.978   3.778  0.1150  0.1053  0.1152
 2520W        W 6720   2.944   7.423   3.405 -0.0470  0.0502 -0.0350
 2521W        W 6721   0.634   0.002   3.472 -0.0260  0.1133  0.2312
 2522W        W 6722   5.105   3.369   3.891 -0.1216  0.0975 -0.2080
 2523W        W 6723   2.657   4.147  11.257 -0.0063  0.3531 -0.1850
 2524W        W 6724   9.103   9.891  12.228 -0.3006  0.1905 -0.1454
 2525W        W 6725   6.896   4.996   1.720  0.2821 -0.4789  0.0049
 2526W        W 6726   7.056   5.712   2.840  0.1682  0.2392 -0.1240
 2527W        W 6727   8.086   7.544  10.336  0.1969 -0.1847 -0.1983
 2528W        W 6728   3.967   0.093   4.404  0.0156 -0.0065 -0.3174
 2529W        W 6729   1.855   3.902   1.917 -0.1156  0.2140  0.1328
 2530W        W 6730   6.576   2.073  11.580 -0.0743  0.2275 -0.0866
 2531W        W 6731   2.088   3.166   5.159  0.0759 -0.2288  0.4200
 2532W        W 6732   8.856   0.581  12.681  0.0589  0.2854 -0.1032
 2533W        W 6733   1.700   9.463   9.757  0.1878  0.0937 -0.2534
 2534W        W 6734   7.976   7.572   0.504  0.2166  0.1669 -0.1447
 2535W        W 6735   4.353   2.515  10.289 -0.2976  0.0647  0.4006
 2536W        W 6736   7.026   5.247   2.643 -0.0500  0.2128  0.0692
 2537W        W 6737   0.553   8.704  12.027  0.1415  0.2580  0.1438
 2538W        W 6738   5.339   5.490  10.842 -0.0692 -0.2080  0.3555
 2539W        W 6739   8.643   7.606   1.284  0.0306 -0.0105 -0.1289
 2540W        W 6740   8.041   6.053   0.593  0.2167  0.3147 -0.0893
 2541W        W 6741   7.480   9.100   2.962 -0.1366 -0.0711 -0.2525
 2542W        W 6742   3.241   5.981  10.323 -0.2133  0.0589  0.0483
 2543W        W 6743   8.893   5.848   0.169 -0.1647 -0.0572 -0.2078
 2544W        W 6744   6.529   6.868   8.468 -0.4536 -0.2709 -0.0555
 2545W        W 6745   9.326   0.790  12.437 -0.2861 -0.2204  0.1457
 2546W        W 6746   2.289  10.420  12.079 -0.0397  0.0320 -0.2287
 2547W        W 6747   9.105   9.840   1.759 -0.0236  0.0077 -0.1663
 2548W        W 6748   5.228   8.196   1.971  0.0495  0.0534  0.2785
 2549W        W 6749   9.450   3.597  10.309 -0.3199 -0.1637  0.3138
 2550W        W 6750   4.163   6.224  10.615 -0.3998 -0.2521 -0.3858
 2551W        W 6751   1.008   7.002  11.314 -0.0875  0.1146  0.0086
 2552W        W 6752   8.289   4.500   4.653  0.3135  0.4681 -0.4047
 2553W        W 6753   7.354   8.451   9.616 -0.1148  0.3527 -0.2246
 2554W        W 6754   3.321   5.577  12.060 -0.0554 -0.3671  0.0228
 2555W        W 6755   0.436   4.528   9.873 -0.0588  0.4556 -0.0473
 2556W        W 6756   6.082   5.924   9.088 -0.1215  0.0328  0.0837
 2557W        W 6757   3.973   9.114   1.058  0.0783 -0.0112  0.1050
 2558W        W 6758   6.639   3.069   1.431 -0.0519  0.3616 -0.2384
 2559W        W 6759   7.759   6.372   9.301 -0.1118  0.1158  0.1109
 2560W        W 6760   2.356   1.908   0.295 -0.0865 -0.0992  0.0298
 2561W        W 6761   0.528   8.911   0.269 -0.2216  0.0787  0.0865
 2562W        W 6762   9.791   8.809   5.525 -0.3466  0.0196 -0.3263
 2563W        W 6763   2.567   8.255   4.017  0.2185  0.2489 -0.1743
 2564W        W 6764   7.151   1.997   9.268 -0.1084  0.0505  0.2205
 2565W        W 6765   7.868   3.697   2.827  0.2000  0.2248  0.2632
 2566W        W 6766   4.073   2.729  12.214  0.3935  0.0922  0.0854
 2567W        W 6767   1.895   0.697   0.147 -0.0803  0.1082 -0.1392
 2568W        W 6768   4.491   8.970  11.610 -0.1852 -0.2794  0.1680
 2569W        W 6769   6.758   4.525  10.559  0.2941  0.1484  0.0483
 2570W        W 6770   5.977   1.452  12.790  0.2039  0.2044  0.1034
 2571W        W 6771   7.877   6.540  12.052  0.0069  0.0171  0.2945
 2572W        W 6772   2.609   7.319   0.661 -0.4574 -0.1714 -0.1726
 2573W        W 6773   7.942   8.103  11.430  0.0164 -0.0525 -0.1991
 2574W        W 6774   2.649   8.164   0.435  0.0814  0.3245 -0.0084
 2575W        W 6775   8.951   6.771   1.323  0.1058 -0.1828 -0.1514
 2576W        W 6776   4.131   7.569   5.493  0.0898  0.2088 -0.2443
 2577W        W 6777   4.335   3.601  12.779  0.1233 -0.0802  0.1718
 2578W        W 6778   2.446   4.201   1.591 -0.0271  0.0421  0.0631
 2579W        W 6779   2.706   0.140  11.920 -0.3430  0.3845  0.0428
 2580W        W 6780   4.268   4.245   3.015 -0.2948  0.2327  0.0927
 2581W        W 6781   4.142   1.126   2.726 -0.0210 -0.1693 -0.0588
 2582W        W 6782   7.949   4.325  13.271 -0.0709 -0.1845 -0.1143
 2583W        W 6783   9.329   7.885  11.069 -0.2687  0.2655 -0.0294
 2584W        W 6784   5.125   4.814   8.457  0.0926 -0.1132 -0.0136
 2585W        W 6785   2.918   4.321  12.951  0.4422  0.1218 -0.2546
 2586W        W 6786   8.318   4.240   9.892  0.1504 -0.2285 -0.3340
 2587W        W 6787   1.611   6.195  10.365 -0.1743 -0.2693 -0.0560
 2588W        W 6788   4.945   3.267  10.473  0.1508 -0.0898 -0.1188
 2589W        W 6789   2.153   6.243   9.645 -0.0766  0.0770 -0.2414
 2590W        W 6790   9.157   7.259   5.774 -0.3398  0.3182  0.1951
 2591W        W 6791  10.277   1.962  12.180 -0.0287 -0.1507  0.3045
 2592W        W 6792   8.454   0.866  12.679  0.2907  0.3726 -0.1988
 2593W        W 6793   0.735   3.600   8.533  0.1112 -0.0748 -0.1474
 2594W        W 6794   6.406   3.296  13.435  0.5707  0.0483  0.2414
 2595W        W 6795   1.250   9.321   3.508 -0.0789  0.0798 -0.0393
 2596W        W 6796   6.470   4.766  12.753 -0.1241  0.2355 -0.0233
 2597W        W 6797   6.049   0.202   4.916 -0.0403  0.1550  0.0722
 2598W        W 6798   7.835   2.872   3.478  0.1966  0.0257  0.1236
 2599W        W 6799   5.139   1.767   3.755  0.1466 -0.0729  0.3083
 2600W        W 6800   6.690   3.736  11.924 -0.3252 -0.2133  0.2920
 2601W        W 6801   9.091   7.930   2.180 -0.1782  0.2204  0.3238
 2602W        W 6802   2.686  10.057  12.566  0.0046  0.0943  0.0007
 2603W        W 6803   3.266   7.579  12.170  0.1538 -0.2111  0.2526
 2604W        W 6804   4.472   1.079   5.240  0.3196 -0.2171 -0.0035
 2605W        W 6805   7.320   4.801   9.066 -0.0012  0.0511 -0.0457
 2606W        W 6806   6.503   4.325   2.959  0.3043 -0.3313  0.0645
 2607W        W 6807   3.165   7.841  11.748 -0.0056 -0.0674  0.1151
 2608W        W 6808   7.159   7.974   0.155 -0.0814 -0.1056 -0.2181
 2609W        W 6809   6.044   7.205   8.084 -0.1435 -0.0358 -0.0767
 2610W        W 6810   6.830   6.883  13.402  0.1570 -0.2699  0.0650
 2611W        W 6811   4.383   0.495  11.839 -0.0771 -0.2472 -0.0220
 2612W        W 6812   6.081   6.229   0.282  0.1461  0.0257  0.1283
 2613W        W 6813   3.265  10.174   8.615 -0.2649  0.1451  0.0395
 2614W        W 6814   3.589   1.905  12.419 -0.1760  0.2409  0.0308
 2615W        W 6815   9.410   0.204   0.850 -0.2099  0.0897 -0.0088
 2616W        W 6816   9.854   5.881  11.590 -0.0608 -0.0743 -0.1367
 2617W        W 6817   8.999   6.065  11.268 -0.1191  0.1074  0.3372
 2618W        W 6818   1.981   5.824   9.342  0.0524 -0.2362  0.0196
 2619W        W 6819   9.515  10.388   3.223  0.0127  0.0629  0.1158
 2620W        W 6820   0.653   8.218  11.203 -0.1751 -0.0083  0.2946
 2621W        W 6821   5.316   1.316  10.214  0.0402 -0.0663  0.2366
 2622W        W 6822   8.067   2.941   1.054  0.2061 -0.0470 -0.0217
 2623W        W 6823   8.156   0.186  10.249  0.0339  0.1463 -0.0070
 2624W        W 6824   3.229   8.894   2.461  0.0083 -0.2533  0.3863
 2625W        W 6825   0.433   7.041  10.547 -0.0172  0.1179 -0.0941
 2626W        W 6826   4.621   0.216  11.578  0.0343  0.2686  0.2134
 2627W        W 6827   2.382   2.790   3.529  0.3256 -0.0445 -0.2056
 2628W        W 6828   0.628   3.426   4.781 -0.0192 -0.1125 -0.3827
 2629W        W 6829   6.939   4.144  11.654  0.2240 -0.0106  0.2566
 2630W        W 6830   7.039   1.393  11.292  0.0507 -0.3054  0.1682
 2631W        W 6831   1.467   6.784   0.186 -0.1311 -0.0291 -0.3954
 2632W        W 6832   2.116   1.925   9.171  0.1505  0.2867 -0.1565
 2633W        W 6833   8.156   4.896   4.963 -0.3854 -0.1698 -0.1497
 2634W        W 6834   6.702   4.611  11.019 -0.0533  0.1935  0.1687
 2635W        W 6835   5.032   0.440   1.333 -0.0428  0.1112  0.2003
 2636W        W 6836   1.249   7.034  10.393  0.3273  0.1176 -0.2032
 2637W        W 6837   0.962   6.632   0.253 -0.0022 -0.2491 -0.2593
 2638W        W 6838   6.356   9.182   0.307  0.3061 -0.2264 -0.1349
 2639W        W 6839   8.934   9.932  11.378 -0.1393 -0.0338  0.0139
 2640W        W 6840   4.352  10.094   3.048 -0.2125 -0.2819 -0.1364
 2641W        W 6841   8.209   1.174   4.743  0.0926  0.0503  0.1097
 2642W        W 6842   6.426   3.899   9.071 -0.2851 -0.1584 -0.3320
 2643W        W 6843   3.523   6.456   0.877 -0.0277  0.0769 -0.1232
 2644W        W 6844   3.785   7.179   3.211 -0.0415 -0.2287 -0.0736
 2645W        W 6845  10.171   5.213   3.049 -0.4629 -0.0232  0.1222
 2646W        W 6846   4.828   5.327   8.658  0.1459  0.0410 -0.0884
 2647W        W 6847   8.614   6.501   3.358  0.2341  0.3121  0.3540
 2648W        W 6848   7.302   6.385  12.984 -0.3584  0.0011 -0.0016
 2649W        W 6849   5.058  10.031   1.110 -0.0118  0.0005  0.0937
 2650W        W 6850   8.873   0.373  11.471 -0.0836  0.1067  0.2428
 2651W        W 6851   1.534   2.091   9.670  0.3337  0.1356 -0.1963
 2652W        W 6852   0.680   6.413  12.248 -0.0020  0.1033 -0.0835
 2653W        W 6853   2.671   2.907  11.509 -0.2801 -0.1168 -0.3428
 2654W        W 6854   6.215   8.092   2.007  0.0262  0.0918  0.1720
 2655W        W 6855   1.995   6.569   3.091  0.1985 -0.0461  0.2641
 2656W        W 6856   3.880   2.267   2.074 -0.2549 -0.3328  0.1473
 2657W        W 6857   7.878   5.081   3.982 -0.0816  0.3361 -0.1511
 2658W        W 6858   3.284   3.565   3.894 -0.0413  0.1559 -0.3266
 2659W        W 6859   2.129   4.095   9.622 -0.1047  0.1540 -0.0914
 2660W        W 6860   1.039   4.595  10.148  0.1484 -0.1494 -0.2372
 2661W        W 6861   9.282   1.312  12.639  0.1175 -0.0378 -0.2685
 2662W        W 6862   5.374   6.863   8.734 -0.2628  0.3311 -0.2089
 2663W        W 6863   3.475   1.022  12.624 -0.1531  0.2513 -0.0927
 2664W        W 6864   5.855   9.078  10.427 -0.0381  0.0615 -0.0179
 2665W        W 6865   8.676   7.168  12.227 -0.2138 -0.0418 -0.2531
 2666W        W 6866   5.281   4.356   8.508 -0.3318  0.2877  0.0578
 2667W        W 6867  10.381   3.191  12.212  0.1665 -0.1445 -0.0012
 2668W        W 6868   6.754   9.822  11.799 -0.0942 -0.1764  0.0327
 2669W        W 6869   8.025   9.201   0.192 -0.0048 -0.1884 -0.0463
 2670W        W 6870   6.758   1.742   1.811 -0.0673 -0.1840 -0.0473
 2671W        W 6871   0.734   9.265  13.348 -0.2558  0.2840 -0.3075
 2672W        W 6872   3.420  10.404  12.256  0.1053  0.3666 -0.1032
 2673W        W 6873   7.590   5.208  10.020  0.1144 -0.1011  0.0332
 2674W        W 6874   3.333   2.382   0.846 -0.0426 -0.1237  0.1913
 2675W        W 6875   5.667   0.101   0.628 -0.1683 -0.0485 -0.0541
 2676W        W 6876   7.261   4.268   3.219  0.2926 -0.2423  0.1018
 2677W        W 6877   7.497   9.466   2.131 -0.1880  0.0221  0.3659
 2678W        W 6878   3.343   7.722  11.300  0.0725 -0.1278  0.1089
 2679W        W 6879   9.487   2.054   1.397  0.0204 -0.1325  0.1748
 2680W        W 6880   7.061   4.049   5.039  0.0697 -0.0497  0.2092
 2681W        W 6881   7.122   5.150   9.415  0.2555  0.0681  0.0032
 2682W        W 6882   8.034   6.792  10.219  0.0126  0.0988  0.0733
 2683W        W 6883   5.944   6.978   2.471 -0.1820  0.1361  0.2278
 2684W        W 6884   9.505   5.701   9.677  0.1033  0.0078  0.0532
 2685W        W 6885   1.349   5.814  12.238 -0.1978  0.0869  0.0456
 2686W        W 6886   2.735   5.859   1.866 -0.1373 -0.0443 -0.2505
 2687W        W 6887   3.760   4.223   0.194 -0.0294  0.1235 -0.0387
 2688W        W 6888   3.612   2.039   9.961  0.2550 -0.2051  0.0690
 2689W        W 6889   6.468   1.111  11.652  0.1803  0.1989  0.1057
 2690W        W 6890   7.555   5.906   0.786 -0.2263 -0.0217 -0.5152
 2691W        W 6891   1.232   4.557   0.904 -0.0201 -0.1553  0.0602
 2692W        W 6892   0.200   2.120  13.246  0.0998 -0.2051  0.1038
 2693W        W 6893   0.563   1.671  10.599  0.0437  0.1782  0.0061
 2694W        W 6894   3.216   2.791  13.086 -0.2429 -0.3922  0.0311
 2695W        W 6895   1.037   2.905  12.597 -0.0349 -0.0556 -0.0849
 2696W        W 6896   7.718   9.900   1.872  0.2835  0.0812  0.0992
 2697W        W 6897   3.215   0.575  12.463  0.0279  0.2425 -0.1692
 2698W        W 6898   8.524   2.095   0.806  0.0054  0.0679  0.0628
 2699W        W 6899   2.664   7.346   3.807 -0.0376  0.0636 -0.1159
 2700W        W 6900   6.427   2.896  11.051 -0.0920 -0.0674 -0.2524
 2701W        W 6901   3.321   4.251   1.161 -0.3493 -0.1224 -0.1448
 2702W        W 6902   2.100   8.374   9.188 -0.2370 -0.3259  0.1595
 2703W        W 6903   0.029   0.305  11.689 -0.2178  0.0778  0.0728
 2704W        W 6904   2.524   8.156  10.995 -0.0777  0.2529  0.3372
 2705W        W 6905   2.035   6.778   1.754 -0.2709  0.1388 -0.1713
 2706W        W 6906   8.899   3.796  12.665  0.2685  0.1086 -0.2161
 2707W        W 6907   0.563   4.360   4.491 -0.1506 -0.2045 -0.0431
 2708W        W 6908   9.872   4.032   3.713 -0.0521 -0.4458 -0.2200
 2709W        W 6909   7.427   9.701  12.399 -0.0537  0.0440  0.0042
 2710W        W 6910   7.623   8.883   0.987  0.0859 -0.0172  0.1959
 2711W        W 6911   0.228   1.771   0.515  0.1078 -0.3934  0.1564
 2712W        W 6912   2.195  10.379   1.278 -0.1228 -0.2724  0.1873
 2713W        W 6913   4.110   5.051  12.572  0.1206  0.2046  0.0404
 2714W        W 6914   5.122   5.056  10.705  0.1500 -0.1931  0.0136
 2715W        W 6915   7.855   4.380  11.966  0.0353  0.0084 -0.3365
 2716W        W 6916   5.952   8.642   4.453  0.1923 -0.1500  0.0211
 2717W        W 6917   3.982   1.206  12.499  0.0819 -0.3747 -0.1085
 2718W        W 6918   2.782   2.192   1.090  0.1926  0.0389 -0.1047
 2719W        W 6919   7.556   7.762  11.532 -0.0970  0.1606 -0.0773
 2720W        W 6920   5.526   4.752   9.584  0.1191 -0.3066 -0.1665
 2721W        W 6921   5.044   3.719   3.293 -0.0411  0.0193  0.0405
 2722W        W 6922   4.991   2.992   9.950  0.1984 -0.0909 -0.0941
 2723W        W 6923   5.131   2.547   0.066  0.1474 -0.1081 -0.0462
 2724W        W 6924   3.744   4.338   3.861  0.3097 -0.1308 -0.0731
 2725W        W 6925   5.283   6.108   2.691 -0.2217 -0.0174 -0.3406
 2726W        W 6926   3.142   7.208  12.472  0.2860 -0.2902  0.0555
 2727W        W 6927   5.089   3.427  10.934  0.0260  0.0417 -0.0598
 2728W        W 6928   4.650   9.272  13.346 -0.1107  0.0715  0.1406
 2729W        W 6929  10.066   6.572   3.072 -0.0346  0.0397 -0.1106
 2730W        W 6930   2.701   2.475   9.375 -0.2866 -0.2730  0.2280
 2731W        W 6931   6.767   6.285  10.201  0.1237 -0.2186 -0.2470
 2732W        W 6932   1.198   4.607  11.790 -0.4358 -0.0679 -0.0130
 2733W        W 6933   5.562   5.849   9.918  0.4705  0.2394 -0.1854
 2734W        W 6934   1.531   6.162  10.972 -0.5528 -0.1836  0.0676
 2735W        W 6935  10.374   1.309  13.404 -0.0723  0.0750 -0.1319
 2736W        W 6936  10.027   4.724   4.253 -0.1606 -0.1378 -0.0867
 2737W        W 6937   8.890   1.421   1.315 -0.0241 -0.1701  0.0680
 2738W        W 6938   6.562   0.319   9.531  0.0893 -0.2777 -0.0970
 2739W        W 6939   1.768   2.747  13.331 -0.0128  0.1419 -0.1509
 2740W        W 6940   4.200   9.286   3.427  0.0418 -0.0248  0.2241
 2741W        W 6941   2.770   6.928   8.908  0.0532 -0.1072  0.3247
 2742W        W 6942   1.725   2.058  12.043 -0.2879 -0.0086  0.1209
 2743W        W 6943   7.901   2.674  12.659 -0.1644 -0.3155  0.0972
 2744W        W 6944   5.401   1.305   4.721  0.2404 -0.1648  0.0172
 2745W        W 6945   8.714   2.614   1.749 -0.0839  0.1214  0.0456
 2746W        W 6946   9.693   3.063   2.936 -0.0080 -0.0125 -0.2610
 2747W        W 6947   1.199   5.846  10.226  0.2730  0.0719  0.0185
 2748W        W 6948   5.478   0.795  11.223  0.1007 -0.1972  0.0832
 2749W        W 6949  10.234   5.467   1.038 -0.0017  0.1888  0.1072
 2750W        W 6950   3.098   5.315  12.444  0.4799 -0.0767 -0.0871
 2751W        W 6951   6.195   4.252  12.452  0.2076 -0.1267 -0.2643
 2752W        W 6952   5.388   5.777   5.427  0.0879 -0.0178 -0.0260
 2753W        W 6953   7.599   1.803  11.472 -0.1851 -0.0580  0.0250
 2754W        W 6954   1.341   7.095  10.869  0.0704 -0.0249  0.2401
 2755W        W 6955   0.847   1.203  10.339 -0.1928  0.1394  0.0309
 2756W        W 6956   1.584   2.624  11.213  0.3678 -0.0442 -0.1702
 2757W        W 6957   2.695   1.807  11.260  0.3630 -0.1842  0.0499
 2758W        W 6958   3.854   1.778  11.237 -0.2682  0.0141  0.1477
 2759W        W 6959   2.573   0.933   0.975  0.1102 -0.0949 -0.0905
 2760W        W 6960   9.468   3.148   2.421 -0.1701 -0.1435 -0.0046
 2761W        W 6961   7.874   8.871  12.349  0.1096 -0.0426  0.2523
 2762W        W 6962   7.358   7.462   0.174 -0.1526 -0.0598  0.0284
 2763W        W 6963   7.548   4.773   2.450 -0.3547  0.2569  0.2262
 2764W        W 6964   0.961   1.767   0.430 -0.1872 -0.1227 -0.2681
 2765W        W 6965   5.987   1.386   9.419  0.0238 -0.2934 -0.2466
 2766W        W 6966   8.623   6.699   1.659 -0.1502 -0.3934 -0.2615
 2767W        W 6967   9.856   1.670  13.358  0.1023  0.1627  0.0609
 2768W        W 6968   8.720   2.276  11.432 -0.1268  0.1099 -0.2444
 2769W        W 6969   8.134   8.508  12.614 -0.0893 -0.0907 -0.0056
 2770W        W 6970   4.830   6.124   3.523  0.4295  0.1721 -0.0709
 2771W        W 6971   5.609   8.730  13.232  0.3639 -0.3245 -0.0994
 2772W        W 6972   2.614   5.642   0.487  0.1042  0.0826  0.1341
 2773W        W 6973   7.219   1.316   4.089 -0.0110 -0.2351 -0.2831
 2774W        W 6974   5.157   6.017  12.865  0.1439 -0.2636 -0.0505
 2775W        W 6975   6.067   3.178   3.297  0.3628  0.1908 -0.3011
 2776W        W 6976   3.071   6.707   1.760 -0.0468 -0.0403  0.0490
 2777W        W 6977   2.793   5.994   4.431 -0.0512 -0.0039 -0.1072
 2778W        W 6978   2.525   0.061   2.631  0.1392 -0.1691  0.2134
 2779W        W 6979   8.554   0.546   0.391 -0.0689  0.1653 -0.2629
 2780W        W 6980   5.114   9.011  12.610 -0.2402  0.2694 -0.0980
 2781W        W 6981   9.164   7.389   2.021 -0.0203 -0.1155  0.0793
 2782W        W 6982   3.612   9.391   0.587 -0.0189 -0.2688 -0.0633
 2783W        W 6983   9.962   4.626  10.950 -0.0167 -0.3095  0.3580
 2784W        W 6984   7.707   9.509  11.122 -0.3703  0.1079 -0.1777
 2785W        W 6985   5.693   7.485  11.089  0.1029 -0.0749 -0.0896
 2786W        W 6986   8.732   9.169   9.597  0.0866  0.1021 -0.4401
 2787W        W 6987   5.989   2.679   1.166  0.1683  0.1054 -0.2101
 2788W        W 6988   8.458   3.560   3.210 -0.2408  0.1000 -0.3496
 2789W        W 6989   2.027   3.251   0.593  0.1624 -0.0920 -0.4182
 2790W        W 6990   5.783  10.194   3.531  0.0579 -0.1453  0.1435
 2791W        W 6991   2.086   1.382   1.668 -0.0964 -0.2965  0.2434
 2792W        W 6992   6.900   1.733   4.421  0.3638 -0.0894 -0.1380
 2793W        W 6993   4.628   1.987   3.669 -0.1837  0.0404  0.0543
 2794W        W 6994   5.668   1.199   3.761 -0.1402 -0.0330 -0.0143
 2795W        W 6995   7.454   7.517   2.326  0.0153 -0.1941  0.3738
 2796W        W 6996   9.525   1.614   4.425  0.1843 -0.0062  0.1101
 2797W        W 6997   6.563   2.039  10.540  0.5049 -0.2330  0.0618
 2798W        W 6998   8.532  10.245   0.003  0.1924 -0.2010  0.5278
 2799W        W 6999   6.980   7.344   2.572  0.0166 -0.0922 -0.0540
 2800W        W 7000   0.858   2.703   9.490 -0.1711  0.0735 -0.0955
 2801W        W 7001   2.208   0.207   0.837 -0.0914 -0.2245 -0.0136
 2802W        W 7002   4.635   1.801  11.380  0.0827  0.0956  0.0923
 2803W        W 7003   2.573   3.772   2.616  0.0601  0.0896  0.0733
 2804W        W 7004   7.625   0.337  11.441  0.1405  0.3853  0.0950
 2805W        W 7005   6.183   8.919  11.046 -0.0738 -0.0754  0.1412
 2806W        W 7006   4.304   8.429  13.250  0.1382  0.0059  0.2662
 2807W        W 7007   6.344   8.260  12.334 -0.0087 -0.3083  0.0350
 2808W        W 7008   7.784   2.305  11.233  0.1135 -0.0600  0.0187
 2809W        W 7009   8.758   6.449  13.424  0.4897 -0.1752 -0.1593
 2810W        W 7010   8.428   2.690  13.456  0.0464 -0.0763  0.0605
 2811W        W 7011   1.002   2.495  12.868  0.0131 -0.1966  0.0833
 2812W        W 7012   3.169   6.099   5.178  0.0422  0.2722  0.0560
 2813W        W 7013   5.228   1.658  10.642 -0.1546  0.0436  0.3309
 2814W        W 7014   8.950   3.757   0.918 -0.2171 -0.3519 -0.2597
 2815W        W 7015   6.409   7.380  10.686  0.0741  0.4492  0.0199
 2816W        W 7016   4.698   3.525   2.753 -0.1314  0.2297  0.3608
 2817W        W 7017   0.910   1.772   9.648  0.3222  0.2255 -0.2531
 2818W        W 7018   3.961   1.334  13.404  0.2205  0.2902 -0.0539
 2819W        W 7019   8.442   4.788  10.807 -0.0908 -0.1430  0.4184
 2820W        W 7020   8.761   3.388  11.158 -0.2891 -0.0065 -0.0507
 2821W        W 7021   3.056   3.828   3.572 -0.0244 -0.1770  0.1550
 2822W        W 7022   2.588   2.903  12.062 -0.2191  0.2389  0.1412
 2823W        W 7023   6.613   1.145   3.078 -0.2241 -0.2509  0.2600
 2824W        W 7024   9.755   1.254   9.481  0.2888  0.3073 -0.0580
 2825W        W 7025   5.871   5.939   4.494 -0.0291  0.1332  0.0771
 2826W        W 7026   5.709   4.363   2.076  0.0141 -0.0960  0.1681
 2827W        W 7027   6.310   3.768  10.819  0.1018 -0.1680  0.0784
 2828W        W 7028   8.570   6.924   0.024  0.0223  0.0725  0.0095
 2829W        W 7029   2.853   2.530  12.774 -0.0337 -0.1432 -0.0460
 2830W        W 7030   4.603   6.762   1.579 -0.0807 -0.1056  0.2675
 2831W        W 7031   7.863   0.298  12.057 -0.0974  0.1440 -0.1374
 2832W        W 7032   1.535   9.247  11.372 -0.2172 -0.0661  0.1655
 2833W        W 7033   7.023   4.060  12.812  0.0998  0.3318  0.1179
 2834W        W 7034  10.093   3.772   1.999 -0.2403 -0.1521 -0.0063
 2835W        W 7035   8.529   2.012  11.043  0.1152 -0.0119 -0.2631
 2836W        W 7036   1.432   1.522   3.949  0.3366  0.2105  0.1789
 2837W        W 7037   0.164  10.156   1.920 -0.2207  0.0271 -0.3541
 2838W        W 7038   3.001   6.129  12.109 -0.0369 -0.0937  0.0631
 2839W        W 7039  10.292   3.356   1.240 -0.1179 -0.1223 -0.1440
 2840W        W 7040   5.343   0.193   3.865 -0.1913 -0.0601 -0.0016
 2841W        W 7041   4.385   3.914  11.264  0.2929  0.0764 -0.3282
 2842W        W 7042   8.983   6.595  11.197 -0.0330  0.2708 -0.1251
 2843W        W 7043   9.374   8.691   1.018 -0.1695  0.0982 -0.0577
 2844W        W 7044   9.514   8.101  12.628  0.0991  0.0803  0.0328
 2845W        W 7045   6.475   1.094  10.616  0.1824  0.0270 -0.0897
 2846W        W 7046   5.190   7.452   0.001 -0.3305 -0.0808  0.0078
 2847W        W 7047   1.703   5.323  10.822  0.0251  0.3365  0.3525
 2848W        W 7048   1.862   5.590   1.494  0.2215  0.0604  0.0037
 2849W        W 7049   9.976   0.213   9.581  0.3046 -0.2367 -0.5079
 2850W        W 7050   7.969   0.683   9.989 -0.0815  0.1062 -0.0195
 2851W        W 7051   2.621   0.246   9.107  0.1181 -0.4777 -0.0231
 2852W        W 7052   0.004   4.598   2.573 -0.0241  0.3910 -0.3052
 2853W        W 7053   3.622   0.782   3.318 -0.1570  0.0761  0.1920
 2854W        W 7054   1.969   6.384   5.237 -0.2156 -0.3291  0.6180
 2855W        W 7055   9.330   4.435   3.988 -0.0334 -0.2383  0.1801
 2856W        W 7056   1.414  10.193   0.977 -0.4581 -0.2799  0.1092
 2857W        W 7057   1.073  10.402  12.851 -0.1203 -0.2030  0.1175
 2858W        W 7058   3.923   1.879  13.210 -0.1366  0.1948 -0.1927
 2859W        W 7059   3.228   9.144   2.937  0.4112 -0.4895  0.1746
 2860W        W 7060   0.121   6.322  11.144 -0.0900  0.1750  0.1056
 2861W        W 7061   6.143   4.781   4.143 -0.0724 -0.1180 -0.5627
 2862W        W 7062   2.037   5.060   8.903 -0.1876  0.1306  0.1675
 2863W        W 7063   8.865   7.913   2.695 -0.1467  0.1383 -0.1144
 2864W        W 7064   6.664   8.152   2.819  0.2653 -0.0193  0.1510
 2865W        W 7065   6.414   4.700   3.722 -0.0712  0.3236 -0.0068
 2866W        W 7066   7.773  10.045   3.621 -0.2392 -0.3375  0.2318
 2867W        W 7067   1.903   3.298   1.693  0.0663  0.0486  0.0895
 2868W        W 7068   8.075   3.909   3.280  0.2336 -0.0856  0.2195
 2869W        W 7069   0.271   0.675  12.973  0.0507 -0.1277 -0.0301
 2870W        W 7070   1.688  10.383   1.360 -0.0740 -0.1391  0.1637
 2871W        W 7071   7.583  10.272   2.787 -0.0989  0.0645 -0.1999
 2872W        W 7072   7.099   4.881   2.265 -0.4020 -0.3181  0.0328
 2873W        W 7073   8.311   1.341   0.070 -0.0139  0.0681  0.0784
 2874W        W 7074   5.402   5.252   9.848  0.2399 -0.0413 -0.3903
 2875W        W 7075   5.844   4.654  10.512 -0.2149 -0.3553 -0.0433
 2876W        W 7076   8.859   5.651  10.617  0.1253 -0.2236 -0.0272
 2877W        W 7077   0.263   1.964  12.040 -0.1235  0.1492 -0.0863
 2878W        W 7078   6.322   9.968   3.030 -0.1155 -0.0915  0.2682
 2879W        W 7079   1.343   5.100  10.540 -0.0876  0.0426  0.2288
 2880W        W 7080   7.516   2.180   0.389  0.0623 -0.0661  0.0736
 2881W        W 7081   5.106   8.994  13.168  0.0067  0.2792 -0.0701
 2882W        W 7082   2.581   4.676   2.890  0.0216  0.0888 -0.1640
 2883W        W 7083   0.162   3.528   3.544 -0.0854 -0.3552 -0.0500
 2884W        W 7084   2.452   8.152   2.886  0.0390 -0.3976  0.1468
 2885W        W 7085   6.482   3.334  11.654  0.1379  0.0368  0.5207
 2886W        W 7086  10.479  10.393   2.390 -0.0793 -0.3701 -0.0663
 2887W        W 7087   5.330   1.747   2.880 -0.2183 -0.1625  0.2185
 2888W        W 7088   1.134   2.044  13.453 -0.0195 -0.0312  0.2632
 2889W        W 7089   4.730   2.808   1.752  0.0337 -0.2192  0.2387
 2890W        W 7090   2.123   3.322  10.831  0.0249 -0.1912 -0.1109
 2891W        W 7091   2.319  10.012   3.839 -0.0097  0.1013  0.2469
 2892W        W 7092   1.238   1.112  11.691 -0.2363  0.1187 -0.1050
 2893W        W 7093   3.363   9.701  10.729 -0.1126 -0.1464  0.0981
 2894W        W 7094   8.518   9.237   3.058 -0.1251  0.5129  0.1447
 2895W        W 7095   9.933   9.061   3.159  0.0121  0.1514 -0.0061
 2896W        W 7096  10.476   5.929   1.385  0.1003 -0.1258  0.1150
 2897W        W 7097   7.530   1.060  13.400  0.0091  0.0331 -0.0188
 2898W        W 7098   7.656   2.313   3.446  0.1482 -0.0600  0.1641
 2899W        W 7099   0.450   1.449   2.751 -0.1864 -0.0212 -0.0899
 2900W        W 7100   8.309  10.095  12.562  0.1765 -0.1916 -0.0703
 2901W        W 7101   8.146   3.354  10.128  0.0945 -0.1449 -0.1101
 2902W        W 7102   7.906  10.267   0.556 -0.1847  0.0770  0.1429
 2903W        W 7103   0.721   3.771   4.217  0.2338 -0.0379 -0.2573
 2904W        W 7104   9.560   7.712   0.767  0.0256 -0.0882 -0.0571
 2905W        W 7105   5.301   2.163   8.818  0.1124 -0.1411 -0.2299
 2906W        W 7106   6.845  10.092  11.363  0.2054 -0.5333  0.0165
 2907W        W 7107   8.980   2.468   9.680 -0.1460 -0.1202  0.0819
 2908W        W 7108   5.242   0.101   4.368 -0.0539 -0.2295  0.0751
 2909W        W 7109   5.832   9.618  12.577  0.5277  0.2409  0.2580
 2910W        W 7110   9.958   7.240   2.312 -0.2814  0.0683  0.1007
 2911W        W 7111   1.209   2.196  11.889 -0.2154 -0.3917 -0.0762
 2912W        W 7112   6.879   9.238   2.105  0.1525  0.0254 -0.1394
 2913W        W 7113   1.659   5.008   9.576 -0.0196 -0.2716  0.0183
 2914W        W 7114   1.749   7.608   0.466 -0.1244  0.4473 -0.0421
 2915W        W 7115   5.421   1.338  11.958 -0.2159 -0.0335 -0.3360
 2916W        W 7116   6.959   1.651   0.322 -0.2293 -0.1173  0.2494
 2917W        W 7117  10.469   7.826  10.637  0.0410 -0.2519  0.1882
 2918W        W 7118   2.135   2.929   4.594 -0.1722  0.1066  0.3704
 2919W        W 7119   3.678   4.658   4.667 -0.3328  0.1182  0.0242
 2920W        W 7120   3.471   5.206  13.026 -0.2222  0.1050 -0.0773
 2921W        W 7121   2.007   0.241   0.325 -0.0238  0.0136  0.0702
 2922W        W 7122   3.932   4.543   8.089  0.3931  0.0654 -0.0169
 2923W        W 7123   5.493   9.853  10.379 -0.0066 -0.1481 -0.0008
 2924W        W 7124   7.305   4.969   1.437  0.1070  0.0071  0.0675
 2925W        W 7125   1.952   8.217  12.693  0.1241  0.3152 -0.0544
 2926W        W 7126   7.023   7.815   2.416 -0.4755  0.0527 -0.0618
 2927W        W 7127   6.780   8.271   4.073 -0.2316 -0.0171  0.3383
 2928W        W 7128   2.731   6.949  13.271 -0.3127 -0.2734  0.0736
 2929W        W 7129   9.536   5.865   3.371 -0.0560  0.2132  0.0290
 2930W        W 7130   6.068   4.308   4.099  0.0570 -0.3452  0.1389
 2931W        W 7131   5.023   1.845   4.492  0.1211  0.1667  0.1689
 2932W        W 7132   6.892   6.794   2.144  0.1136  0.0700 -0.1988
 2933W        W 7133   7.139   0.229   1.676  0.0068 -0.1875 -0.4430
 2934W        W 7134   7.994   5.307  10.352 -0.1479 -0.0199  0.0683
 2935W        W 7135   0.145   3.718   5.557 -0.1791 -0.0483 -0.3125
 2936W        W 7136   1.146   8.676   3.607 -0.1603  0.0376  0.3199
 2937W        W 7137   2.093   3.720   4.453 -0.0671  0.0796  0.1438
 2938W        W 7138   1.183   0.427   2.623  0.1502 -0.0070  0.0863
 2939W        W 7139   0.976   1.920   4.506  0.1908 -0.3463 -0.0410
 2940W        W 7140   5.057   7.581  10.680 -0.1911 -0.3781 -0.0359
 2941W        W 7141   4.114   4.379   1.686  0.0180  0.4689  0.0564
 2942W        W 7142   6.958   3.616   9.515 -0.0328  0.0467 -0.1601
 2943W        W 7143   6.335   2.385   1.604  0.0034 -0.2246 -0.0235
 2944W        W 7144   6.319  10.104  11.774  0.0718 -0.1701  0.1330
 2945W        W 7145   6.771   9.569  11.285 -0.0550  0.3539  0.0120
 2946W        W 7146   9.046   9.527  11.639 -0.0131  0.2124 -0.0160
 2947W        W 7147   6.686   8.770  11.755 -0.0695  0.1420  0.1374
 2948W        W 7148   9.538   4.983  11.013  0.1091 -0.0289 -0.2700
 2949W        W 7149   8.106   4.571  12.730 -0.3800  0.0837  0.5335
 2950W        W 7150   4.503   3.427  11.009  0.1670 -0.0911 -0.0426
 2951W        W 7151   3.715   3.551  10.191  0.2021 -0.3070 -0.3147
 2952W        W 7152  10.051   4.995   0.918 -0.1236 -0.1729  0.2575
 2953W        W 7153   2.121   4.570   9.075  0.0706 -0.2326 -0.3532
 2954W        W 7154   0.861   7.929   2.530  0.1955 -0.0807 -0.0081
 2955W        W 7155   2.967   6.374   2.152 -0.1287  0.1495  0.0434
 2956W        W 7156   7.130   1.090   9.972  0.0707 -0.0895 -0.1692
 2957W        W 7157   3.265   1.359  12.913 -0.1472 -0.0318  0.0742
 2958W        W 7158   4.462   8.205   2.493  0.0222 -0.3465 -0.4476
 2959W        W 7159   1.401   1.515   0.564  0.2089 -0.2639 -0.1382
 2960W        W 7160   6.863   2.872   5.388 -0.2057  0.0653 -0.1120
 2961W        W 7161   0.821  10.272  10.818  0.2743 -0.0298  0.0158
 2962W        W 7162   1.384   9.825   9.844  0.3959 -0.1578 -0.1285
 2963W        W 7163   1.304   6.864   2.868  0.2002 -0.4009  0.0735
 2964W        W 7164   5.746   2.214   0.782  0.0158 -0.0665 -0.0936
 2965W        W 7165   6.266   6.152   2.343  0.0901  0.1553 -0.2324
 2966W        W 7166   5.513   8.834   2.995  0.0667 -0.0824  0.0233
 2967W        W 7167   3.793   3.558   9.606 -0.1761  0.0185 -0.0972
 2968W        W 7168   8.932   5.474   0.711 -0.0360  0.0393 -0.1660
 2969W        W 7169   5.220   3.813   4.152 -0.0867 -0.0720 -0.0759
 2970W        W 7170   6.132   5.639   2.451  0.1906  0.2346  0.0589
 2971W        W 7171   1.269   6.376   1.038 -0.0522 -0.0429  0.0150
 2972W        W 7172   2.193   5.473  11.875 -0.2858  0.2506  0.1296
 2973W        W 7173   8.310   7.296   2.476  0.0138 -0.2790  0.1657
 2974W        W 7174   6.620   2.837  11.736 -0.2191  0.2132 -0.0118
 2975W        W 7175   6.936   3.513   4.170 -0.2560  0.0115  0.1218
 2976W        W 7176   2.258   3.006   9.842 -0.2185 -0.1567 -0.1032
 2977W        W 7177   9.454   5.289   2.576 -0.0863  0.0084 -0.0264
 2978W        W 7178   1.402   6.501   0.562 -0.1096 -0.2877 -0.1070
 2979W        W 7179   7.069   6.326  11.676  0.1918  0.0114  0.2026
 2980W        W 7180   8.535   2.894   1.262 -0.1084 -0.2614 -0.1943
 2981W        W 7181   8.250   2.250   4.957 -0.0277  0.2556  0.3297
 2982W        W 7182   9.821   7.199   0.798 -0.0029  0.1057  0.0424
 2983W        W 7183   3.419   5.329   2.491 -0.0138 -0.0489 -0.0455
 2984W        W 7184   1.859   4.787   1.078 -0.1441  0.2924  0.0928
 2985W        W 7185   2.373   2.053   2.443  0.0947 -0.1181  0.2774
 2986W        W 7186   1.274   1.497   2.568 -0.2436 -0.1237  0.1925
 2987W        W 7187   7.895   6.022  11.978 -0.3524 -0.4069 -0.1811
 2988W        W 7188   2.341   9.908  13.361  0.0342  0.0748  0.1398
 2989W        W 7189   2.795   5.232  10.166  0.0268 -0.1087  0.0923
 2990W        W 7190  10.008   4.816   9.235 -0.1234  0.2162 -0.2747
 2991W        W 7191  10.087   6.284   0.615  0.2875 -0.0493  0.1969
 2992W        W 7192   0.521   9.833   3.632 -0.0605  0.3267  0.1775
 2993W        W 7193   9.721   2.893   4.069  0.0704 -0.1402  0.2363
 2994W        W 7194   3.172   2.351   0.149  0.0385 -0.0249 -0.1303
 2995W        W 7195   6.617   1.281  12.691  0.1402 -0.0016 -0.1837
 2996W        W 7196   2.762   8.924   1.725  0.3058  0.1592 -0.1064
 2997W        W 7197   0.027   6.161   1.969 -0.0381 -0.0543  0.2430
 2998W        W 7198   4.954   6.699   3.966 -0.0136  0.0368 -0.2954
 2999W        W 7199   3.524   8.284   1.554  0.1691 -0.5560  0.0712
 3000W        W 7200   8.928   7.707   1.719  0.0535 -0.0126  0.2695
 3001W        W 7201   6.613   4.894   2.268  0.0440  0.0222  0.1353
 3002W        W 7202   7.505   3.957  12.042 -0.2291 -0.2010  0.1959
 3003W        W 7203   1.539   9.452  10.597  0.0070 -0.1420  0.0290
 3004W        W 7204   4.578   2.583  13.176  0.0506  0.1026 -0.0100
 3005W        W 7205   8.412   7.554   0.742 -0.0496  0.4315  0.0152
 3006W        W 7206   2.532   8.562   2.523 -0.1284 -0.3680 -0.1751
 3007W        W 7207   9.409   3.727   3.623 -0.1361  0.2410 -0.0074
 3008W        W 7208   0.167   3.386   2.511 -0.0318  0.1654 -0.1296
 3009W        W 7209   4.200   1.681   1.508 -0.1229 -0.1355 -0.2070
 3010W        W 7210   9.303   2.257  10.675 -0.1672 -0.0536 -0.1104
 3011W        W 7211   9.250   4.619   0.420  0.0934  0.2487  0.1261
 3012W        W 7212   5.701   8.159   1.859  0.0547  0.3652  0.0225
 3013W        W 7213   9.473   6.986   7.663  0.1495  0.1307  0.0856
 3014W        W 7214   4.842   0.219   0.255 -0.2389 -0.0354  0.0283
 3015W        W 7215   1.921   3.132   3.359  0.1798 -0.0001 -0.1370
 3016W        W 7216   0.602   8.015   0.866 -0.0220 -0.1219 -0.2460
 3017W        W 7217   7.245   8.163  11.348 -0.2317  0.1280  0.1916
 3018W        W 7218   5.373   0.039  12.758  0.3680 -0.1408  0.1341
 3019W        W 7219   3.145   1.830  12.808 -0.1155  0.0321 -0.1440
 3020W        W 7220   9.182   0.208  12.612 -0.2050 -0.0486  0.3425
 3021W        W 7221   4.569   0.941   9.676  0.1260 -0.1704 -0.3284
 3022W        W 7222   6.834   5.296   0.287  0.0607  0.1285  0.0451
 3023W        W 7223   4.565   9.342   9.071  0.1994 -0.0917  0.1529
 3024W        W 7224   7.263   9.342   1.269 -0.3331  0.2129 -0.0234
 3025W        W 7225   3.809   5.358   3.374  0.0777 -0.3026 -0.0712
 3026W        W 7226   8.956   3.471  11.820  0.2492  0.1927  0.1000
 3027W        W 7227   7.027   4.002   4.091 -0.0209  0.3778 -0.1400
 3028W        W 7228   3.243   2.411  10.162 -0.2448 -0.0856 -0.2630
 3029W        W 7229   8.447   7.974  10.442 -0.0532 -0.1939 -0.2241
 3030W        W 7230   3.230   9.568   2.569 -0.1199  0.2819  0.3088
 3031W        W 7231   5.001   5.062   3.035  0.2312 -0.2282 -0.1366
 3032W        W 7232   3.010   3.232  11.294 -0.0552  0.3494 -0.1234
 3033W        W 7233   6.454   8.686   3.507  0.1074  0.1471  0.0123
 3034W        W 7234   0.988   8.045   4.528 -0.1490 -0.4953  0.1035
 3035W        W 7235   7.247   6.450   3.775  0.0094  0.0886 -0.0142
 3036W        W 7236   2.726   9.124  12.018  0.2421 -0.0726 -0.0603
 3037W        W 7237   3.153   7.678  12.642 -0.0698 -0.0622 -0.1749
 3038W        W 7238   6.979   0.956   2.801  0.1138 -0.3091 -0.1951
 3039W        W 7239  10.298  10.175   1.561 -0.1926  0.0636 -0.2082
 3040W        W 7240   1.100   4.491   2.128  0.3155  0.0290 -0.2579
 3041W        W 7241   5.749   7.139   9.570  0.1845  0.2176 -0.2082
 3042W        W 7242   5.836   7.645   1.813  0.0278  0.2777  0.1788
 3043W        W 7243   4.085   3.026  12.637  0.0246 -0.2111  0.1269
 3044W        W 7244   9.809   3.190  10.329 -0.0929 -0.1141 -0.0103
 3045W        W 7245   8.730   6.047  13.176 -0.3251 -0.0384 -0.0560
 3046W        W 7246   1.402   1.231  12.198 -0.0027  0.1253 -0.0619
 3047W        W 7247   7.893   8.235  12.260 -0.2720 -0.0689 -0.1598
 3048W        W 7248   3.664   6.405   3.937  0.2880 -0.1945  0.0508
 3049W        W 7249   6.584   9.009  12.188 -0.0794  0.0042  0.2380
 3050W        W 7250   4.606   1.915   1.360 -0.2547  0.2823  0.2721
 3051W        W 7251   0.993   8.775   0.099  0.0647 -0.1745  0.1083
 3052W        W 7252   0.406   3.091   0.854 -0.1013 -0.0734  0.1666
 3053W        W 7253   3.250   5.206   0.886  0.1138  0.2544 -0.2917
 3054W        W 7254   0.618   2.978   2.829  0.0661 -0.1534 -0.2134
 3055W        W 7255   5.587   4.981   0.683 -0.0000 -0.0104 -0.0783
 3056W        W 7256   8.151   9.134   1.991  0.1052 -0.2657 -0.5621
 3057W        W 7257   6.607   3.840  12.392 -0.2983  0.0429 -0.0979
 3058W        W 7258  10.099  10.469   0.066 -0.3232 -0.4135  0.1327
 3059W        W 7259   5.136   1.018  12.111 -0.2031  0.2350  0.1333
 3060W        W 7260   2.312   9.492  13.151  0.0001  0.0774  0.2261
 3061W        W 7261   4.557   0.696   3.565 -0.0616 -0.1600 -0.2113
 3062W        W 7262   1.010   3.057  11.719 -0.0459 -0.2293  0.2973
 3063W        W 7263   7.026   4.806   0.552 -0.1725 -0.0604 -0.2416
 3064W        W 7264   9.663   0.037  11.906 -0.0283  0.0313  0.0386
 3065W        W 7265  10.030   2.453   2.150 -0.1382 -0.0046 -0.1489
 3066W        W 7266   1.648   3.380  12.106  0.2167  0.2149  0.1609
 3067W        W 7267   7.689   5.984  10.031 -0.3543 -0.6250 -0.2917
 3068W        W 7268   4.603   2.371   1.533  0.1091  0.1801 -0.0169
 3069W        W 7269   9.488   9.416  11.413  0.0820 -0.0661 -0.0118
 3070W        W 7270   9.879   0.187   1.353  0.0802 -0.0483  0.2723
 3071W        W 7271   8.032   4.815   0.621  0.1036  0.1538 -0.0851
 3072W        W 7272   2.129   6.670  12.303  0.0080 -0.0976 -0.2586
 3073W        W 7273   8.658   1.833  12.288  0.1076  0.4719  0.1017
 3074W        W 7274   4.814   2.424   0.390 -0.0461 -0.0911 -0.1091
 3075W        W 7275   3.136   4.815   9.208  0.1564 -0.1976 -0.0937
 3076W        W 7276   8.062   1.972   1.041 -0.2867 -0.0840 -0.0687
 3077W        W 7277   0.697   0.826   2.231  0.0994 -0.0787  0.2574
 3078W        W 7278   4.213   0.018   1.447 -0.1402 -0.0387  0.1211
 3079W        W 7279   6.726   3.427  10.007 -0.0936 -0.1869  0.0157
 3080W        W 7280   4.037   5.853  10.995  0.0685 -0.3683  0.0298
 3081W        W 7281   3.686   8.725   2.341 -0.2301 -0.0528  0.0566
 3082W        W 7282   5.932   1.285   4.478  0.3545  0.0517 -0.0629
 3083W        W 7283   2.780   2.286  11.885  0.2008  0.0681  0.1335
 3084W        W 7284   6.234  10.326   0.192 -0.0758 -0.0496  0.1436
 3085W        W 7285   2.503   9.968  11.481  0.4192  0.0102 -0.1325
 3086W        W 7286   6.715   1.847   2.286  0.2792  0.1990 -0.1901
 3087W        W 7287   3.299   7.736   2.431  0.1407  0.0812  0.2503
 3088W        W 7288   0.022   5.988   0.336  0.5045 -0.0391  0.1678
 3089W        W 7289   0.826   4.861   0.878 -0.0836  0.1209  0.4434
 3090W        W 7290   1.509   0.367   2.107  0.0034 -0.0516 -0.1473
 3091W        W 7291   4.444   1.418   1.122  0.0391 -0.1250  0.0060
 3092W        W 7292   8.757  10.269   2.176 -0.2472  0.1552 -0.2330
 3093W        W 7293   5.513   8.414   9.711  0.1680  0.0311  0.0130
 3094W        W 7294   2.393   9.730   1.701  0.1388 -0.1177 -0.2200
 3095W        W 7295   8.266   3.419  10.895  0.1938 -0.0808  0.0430
 3096W        W 7296   3.455   7.710   8.580  0.0238 -0.2218 -0.0305
 3097W        W 7297   5.208   8.517   9.338  0.3128 -0.1992  0.1577
 3098W        W 7298   0.652   0.657  12.518  0.1036  0.0172 -0.0409
 3099W        W 7299   7.443   9.257   0.687  0.2062  0.5354 -0.5313
 3100W        W 7300   0.225   0.510  11.240 -0.1227 -0.2588 -0.2643
 3101W        W 7301   6.705   4.225   0.685  0.0248 -0.1436 -0.1506
 3102W        W 7302   1.318   5.937   0.844  0.1345 -0.0618  0.1897
 3103W        W 7303   6.182   4.125   0.773  0.0452  0.0481 -0.0327
 3104W        W 7304   3.003   0.917   4.200 -0.1270 -0.0810  0.0628
 3105W        W 7305   6.126   4.490  11.318  0.3092 -0.1893  0.2359
 3106W        W 7306   8.480  10.033   0.494 -0.1919 -0.2851  0.0346
 3107W        W 7307   7.973   5.642   9.890 -0.0737 -0.0992 -0.0833
 3108W        W 7308   8.265   9.337  12.370 -0.3260  0.0362 -0.2602
 3109W        W 7309   1.931   0.217   1.863 -0.3618  0.3092  0.0163
 3110W        W 7310   5.269   7.385  12.054 -0.1351  0.2394 -0.0423
 3111W        W 7311   4.160   4.052   9.354  0.0448  0.0692 -0.0560
 3112W        W 7312   4.045   3.432  10.620 -0.6169  0.0255  0.0609
 3113W        W 7313   6.054   6.978   3.685  0.2710  0.1187 -0.1565
 3114W        W 7314   8.209   2.146  12.310  0.2091  0.3075 -0.0250
 3115W        W 7315   9.062   2.614   3.382 -0.0662 -0.0063 -0.0297
 3116W        W 7316   0.505   1.552   3.245  0.2059  0.0596 -0.0893
 3117W        W 7317   2.052   3.943   1.396 -0.0278 -0.1052  0.0374
 3118W        W 7318   2.494   9.491   4.949  0.2246  0.2052  0.1240
 3119W        W 7319   7.072   5.948   0.560  0.1602 -0.0205 -0.3401
 3120W        W 7320   1.306   9.904   2.991 -0.1031 -0.1923  0.0687
 3121W        W 7321   8.041   9.829  10.489  0.2987 -0.1733 -0.3442
 3122W        W 7322   4.949   5.811  10.600 -0.0931 -0.2368  0.3268
 3123W        W 7323   8.448   1.874   9.625 -0.3038 -0.0173 -0.0399
 3124W        W 7324   0.402   8.476   3.288  0.2220 -0.4355  0.0297
 3125W        W 7325   4.872   0.610   9.952  0.1361 -0.0808  0.0726
 3126W        W 7326   1.263   2.945  11.204  0.4403  0.1266  0.0075
 3127W        W 7327  10.187   6.674  11.284 -0.0188  0.0706  0.0614
 3128W        W 7328   5.322   2.680   2.538 -0.1831  0.0153  0.4755
 3129W        W 7329   4.632  10.156   1.386  0.2170 -0.3011  0.0807
 3130W        W 7330   0.932   9.652   9.647 -0.2556 -0.0336 -0.1663
 3131W        W 7331   4.909   8.199   3.256 -0.1845 -0.2148 -0.3099
 3132W        W 7332   4.067   9.111   0.567 -0.2234  0.1768  0.0608
 3133W        W 7333   4.610   3.147  12.479 -0.0568  0.2238  0.4160
 3134W        W 7334   8.617  10.255   3.811  0.2174 -0.2784 -0.1139
 3135W        W 7335   9.875   4.192  12.769 -0.0730  0.1050  0.0934
 3136W        W 7336  10.048   6.448   1.996  0.0491  0.0526 -0.1235
 3137W        W 7337   0.728   6.471   1.546 -0.0158 -0.2423 -0.1085
 3138W        W 7338  10.448   3.796   3.155  0.2858 -0.0400 -0.1771
 3139W        W 7339   0.940   8.169  11.617 -0.1367  0.2192  0.0868
 3140W        W 7340   2.457   0.667   2.304  0.0723  0.1551  0.2840
 3141W        W 7341   3.461   8.212   2.076  0.2193 -0.0276 -0.1297
 3142W        W 7342   6.254   3.519   4.407  0.0300 -0.1139  0.0659
 3143W        W 7343   9.281   9.394   0.262  0.0085  0.0052  0.1957
 3144W        W 7344   0.888   7.012  12.871 -0.0494  0.0662  0.1619
 3145W        W 7345   3.270   8.804  11.315 -0.1860  0.0598 -0.0174
 3146W        W 7346   8.270  10.176   0.977 -0.0499 -0.1569  0.2639
 3147W        W 7347   1.355   2.906  12.149  0.1811 -0.2646  0.2994
 3148W        W 7348   7.607   2.721  11.874 -0.2094  0.3505 -0.2831
 3149W        W 7349   3.545   1.095   9.919 -0.1131  0.1613  0.2862
 3150W        W 7350   4.007   8.884  10.690 -0.1234 -0.1138  0.0914
 3151W        W 7351   2.309   1.570   3.965  0.1609  0.3596 -0.3662
 3152W        W 7352   4.526   4.965  13.411 -0.1598  0.1653  0.2166
 3153W        W 7353   0.076   1.091   3.084 -0.1366 -0.1420  0.1000
 3154W        W 7354   1.104   0.970  10.743 -0.0656 -0.1968  0.1702
 3155W        W 7355   0.704   9.745   0.058 -0.1114  0.0171  0.0354
 3156W        W 7356   9.195   2.582   9.114 -0.0709 -0.1000  0.0561
 3157W        W 7357   0.230   2.775  11.184  0.2027  0.2434  0.0019
 3158W        W 7358   4.406  10.019  11.918 -0.0980 -0.2094 -0.3047
 3159W        W 7359   7.366   6.114   9.506  0.1646  0.1518 -0.0824
 3160W        W 7360   0.892   2.553  11.380 -0.0576  0.0877  0.0122
 3161W        W 7361   6.853  10.257   9.397 -0.1273 -0.4000  0.0594
 3162W        W 7362   9.243   9.669   0.740  0.0886 -0.1071  0.0997
 3163W        W 7363  10.463   3.221   3.939 -0.3386  0.0003  0.2055
 3164W        W 7364   5.663   2.538  10.067  0.2603 -0.2906  0.0541
 3165W        W 7365   2.345   3.640   1.663  0.1909  0.0293 -0.0017
 3166W        W 7366   0.460   0.389  10.093  0.4918  0.0761  0.0153
 3167W        W 7367   3.067   1.877   0.159  0.2921  0.3361  0.2009
 3168W        W 7368   9.016   5.547   9.147  0.5575  0.0143  0.2318
 3169W        W 7369   3.366   0.822   9.511 -0.3370  0.0656  0.0483
 3170W        W 7370   7.311  10.290  12.747 -0.1744  0.1938  0.2107
 3171W        W 7371   7.610   3.114   3.877  0.0307  0.4835  0.2103
 3172W        W 7372   6.001   9.544   2.825  0.1290 -0.0687  0.2473
 3173W        W 7373   4.514   5.273   9.929  0.0996  0.3676 -0.0085
 3174W        W 7374   0.598   3.299   3.817 -0.0763 -0.1803  0.0513
 3175W        W 7375   6.858   5.080   3.581 -0.1578  0.2158 -0.3865
 3176W        W 7376   3.442   2.190  10.576  0.0642 -0.0847  0.4615
 3177W        W 7377   3.655   3.177  12.333 -0.0311 -0.1622 -0.0598
 3178W        W 7378   7.238   2.080  13.074 -0.1323  0.3818  0.2442
 3179W        W 7379   9.606   9.003   0.136  0.1257 -0.2169  0.0402
 3180W        W 7380   9.048   0.686   0.231 -0.3466  0.1438 -0.0962
 3181W        W 7381   2.776   3.457   3.951 -0.0252  0.0051 -0.0114
 3182W        W 7382   6.507  10.133  12.207 -0.1340  0.0806 -0.0067
 3183W        W 7383   5.095   6.107   0.462  0.1150  0.0413 -0.3140
 3184W        W 7384   2.636   0.882  10.280  0.2321 -0.0502 -0.0049
 3185W        W 7385   9.175   1.074  13.388  0.1118  0.0563 -0.0944
 3186W        W 7386   4.839   6.703   9.577  0.0819 -0.3622  0.0349
 3187W        W 7387   4.880   2.080   0.982  0.2227  0.0357  0.2150
 3188W        W 7388   5.101   4.924  11.599 -0.2096 -0.2073 -0.0706
 3189W        W 7389   4.323   3.781   2.658  0.2389 -0.0783  0.2309
 3190W        W 7390   2.914   1.458  12.075  0.0021  0.0248  0.0567
 3191W        W 7391   1.346   4.585   4.161 -0.0966 -0.0665  0.1890
 3192W        W 7392   0.537   9.529  11.489  0.2112  0.0027  0.1139
 3193W        W 7393  10.223   2.655  12.024 -0.2079 -0.1343  0.0286
 3194W        W 7394   5.121   3.987   9.383  0.0246 -0.3198  0.0362
 3195W        W 7395   7.315   8.464   4.035  0.0415 -0.1284  0.4115
 3196W        W 7396   4.801   6.358   9.223  0.2009  0.1842  0.3672
 3197W        W 7397   5.399   2.414   1.833  0.1266 -0.2425 -0.2027
 3198W        W 7398   2.905   5.658   1.301 -0.1577 -0.0953 -0.2255
 3199W        W 7399   5.024  10.108   2.008  0.1437  0.2893 -0.0568
 3200W        W 7400   3.571   7.228   9.254  0.2147 -0.2734  0.1827
 3201W        W 7401   6.612   6.680   9.901  0.1998  0.1613 -0.3891
 3202W        W 7402   2.213   0.350   9.702  0.0829  0.0559  0.1898
 3203W        W 7403   8.844   6.320  12.356 -0.4666 -0.1050  0.1388
 3204W        W 7404   6.677   0.283  12.716  0.3264  0.3213  0.0460
 3205W        W 7405   1.390   5.798   0.133 -0.1137  0.2852 -0.2551
 3206W        W 7406   4.529   9.363   0.398  0.1145  0.1746 -0.1408
 3207W        W 7407  10.128   2.770   3.019 -0.3331 -0.2781 -0.2491
 3208W        W 7408   8.192   0.845   0.733 -0.0308 -0.0081 -0.1502
 3209W        W 7409   2.401   6.819   1.221 -0.0193  0.5658  0.1887
 3210W        W 7410   2.286   1.924  10.517 -0.0664  0.1850  0.0618
 3211W        W 7411   3.824   4.815  12.173 -0.2504  0.0081 -0.1238
 3212W        W 7412   5.614   1.947   2.470  0.2263  0.1892  0.1636
 3213W        W 7413   9.221   6.574   4.202  0.4056 -0.0901 -0.1431
 3214W        W 7414   7.950   8.790  13.420 -0.0001 -0.1179 -0.3362
 3215W        W 7415   2.069   1.695   3.128  0.0776  0.0339  0.0644
 3216W        W 7416   7.575   0.308   3.912  0.1099 -0.1378  0.1502
 3217W        W 7417   7.490   8.539  12.122 -0.0558  0.0693  0.1419
 3218W        W 7418   5.856   5.460   0.723  0.0319 -0.1169 -0.2443
 3219W        W 7419   1.553   9.730   0.908 -0.0276 -0.0671  0.1494
 3220W        W 7420   6.851   0.568  12.219 -0.2426 -0.0983 -0.2175
 3221W        W 7421   5.026   6.716  10.118 -0.3166  0.4424 -0.5075
 3222W        W 7422   0.993  10.385   1.270  0.0316 -0.0670  0.1882
 3223W        W 7423   6.953   0.872  11.578 -0.5994 -0.0109  0.0239
 3224W        W 7424   3.403  10.271   2.902  0.1664  0.1171  0.2249
 3225W        W 7425   9.514   3.906  12.525 -0.1384 -0.2500  0.5609
 3226W        W 7426   8.024   6.814  11.636  0.1131 -0.0645 -0.1166
 3227W        W 7427   0.930   8.172  10.091 -0.1165  0.1404  0.0611
 3228W        W 7428   6.363   8.614  11.396 -0.0342 -0.1027  0.1920
 3229W        W 7429   7.703   0.051   3.485  0.2550  0.1019  0.0182
 3230W        W 7430   9.877   1.882   2.107 -0.1468 -0.1465 -0.0719
 3231W        W 7431   8.248   8.611   1.483  0.0926 -0.1374 -0.1658
 3232W        W 7432   5.141   9.167   1.322 -0.0027  0.0479 -0.1456
 3233W        W 7433   9.653   2.335   9.151  0.1590  0.3311 -0.0403
 3234W        W 7434   4.078   8.783   4.656  0.0294  0.0367  0.0141
 3235W        W 7435   2.747   9.550   1.185 -0.2513  0.2730  0.0976
 3236W        W 7436   0.139   1.374   3.527  0.2021 -0.1175 -0.2063
 3237W        W 7437   4.975   6.372  11.083 -0.0985  0.0258  0.1152
 3238W        W 7438   1.777   8.558   1.672 -0.3097  0.0235  0.1091
 3239W        W 7439   2.413   9.520  10.620 -0.1005 -0.2835  0.3387
 3240W        W 7440   1.734   9.434   3.723  0.3976  0.1017  0.1463
 3241W        W 7441   4.662   8.343   1.781  0.0408 -0.4088 -0.1227
 3242W        W 7442  10.265   7.983   0.700  0.2154  0.3283 -0.0299
 3243W        W 7443   0.665   5.409  10.691  0.2025  0.4037  0.0213
 3244W        W 7444   9.247   1.380   3.624  0.1917 -0.0066  0.0544
 3245W        W 7445   9.704   0.958  10.320 -0.0076 -0.1227  0.1115
 3246W        W 7446   5.029   0.861   3.309  0.1623 -0.1098 -0.0820
 3247W        W 7447   5.136   8.161   2.461 -0.0275  0.1749  0.0189
 3248W        W 7448  10.012   3.763   1.495  0.1262 -0.2734 -0.2947
 3249W        W 7449   0.004  10.032  12.133  0.1329 -0.0367  0.0784
 3250W        W 7450  10.319   6.303  10.175  0.0858  0.0131 -0.0711
 3251W        W 7451   4.397   6.011  12.199  0.0543  0.2111  0.2273
 3252W        W 7452   1.864   3.952   0.161 -0.0007  0.1781  0.2156
 3253W        W 7453   9.321   1.823  11.434 -0.2431  0.0682  0.0422
 3254W        W 7454   9.371   4.302   9.734 -0.2467 -0.0247  0.2851
 3255W        W 7455   2.540   3.844  10.383 -0.0076 -0.0237  0.0977
 3256W        W 7456   0.020   1.842  10.455 -0.0581  0.3050 -0.1478
 3257W        W 7457   8.848   3.909  11.301  0.1970  0.2327  0.1260
 3258W        W 7458   2.202   7.964   1.220  0.1013 -0.0582 -0.3610
 3259W        W 7459   3.752   8.805   0.802  0.0986 -0.0452  0.0231
 3260W        W 7460   5.330   0.818   1.303  0.0394  0.1001 -0.0720
 3261W        W 7461   5.966   4.307   9.561 -0.0485 -0.0569  0.0831
 3262W        W 7462   4.204   4.886   2.512  0.2160  0.1129 -0.2364
 3263W        W 7463   3.461   3.696  12.878  0.0874  0.2633 -0.0568
 3264W        W 7464   0.260   1.990   3.123 -0.1999 -0.0873 -0.1173
 3265W        W 7465   1.697   7.793   2.927  0.0769 -0.0113 -0.2373
 3266W        W 7466   3.387   7.728   4.801 -0.1598 -0.0188  0.2026
 3267W        W 7467   2.279   2.518  12.924  0.1413 -0.0187 -0.1249
 3268W        W 7468   6.812   0.626   4.637 -0.0750 -0.2849 -0.0415
 3269W        W 7469   3.924   7.166  10.273  0.1218 -0.0196  0.1278
 3270W        W 7470   8.453   2.177   1.649 -0.0971 -0.1399  0.0177
 3271W        W 7471   5.047   0.796   3.823 -0.0750  0.1999  0.1066
 3272W        W 7472   2.201   0.428   3.275 -0.0883  0.0009  0.1964
 3273W        W 7473   3.308   0.561   4.087  0.0593 -0.2428  0.3320
 3274W        W 7474   1.887   7.001  12.673 -0.4098 -0.0899 -0.4571
 3275W        W 7475   8.737   5.553  12.955  0.1016 -0.1124  0.0318
 3276W        W 7476   5.211   4.259   0.075 -0.1350 -0.4020 -0.1650
 3277W        W 7477   2.897   5.202   4.907  0.3712 -0.1364 -0.3318
 3278W        W 7478   1.036   2.313   0.427  0.0192 -0.1210  0.0502
 3279W        W 7479   2.036   6.961   3.854  0.0764 -0.1699  0.0955
 3280W        W 7480   3.650   7.328  12.576  0.3239  0.2325 -0.2882
 3281W        W 7481   5.962   8.958  11.491  0.0209  0.3470  0.2147
 3282W        W 7482   2.485   6.690  11.297 -0.1224  0.4445 -0.1213
 3283W        W 7483   6.687   8.188  12.763 -0.1213  0.3044 -0.2615
 3284W        W 7484   4.053   0.086  11.626  0.1456 -0.0780 -0.0284
 3285W        W 7485   2.795   3.069   0.056 -0.0307 -0.1302 -0.0614
 3286W        W 7486   1.808   0.502  10.235 -0.1380 -0.3257 -0.5956
 3287W        W 7487   1.385   3.752   2.101  0.1449  0.0079  0.0710
 3288W        W 7488   2.136   7.900   3.220 -0.0773 -0.1179  0.0673
 3289W        W 7489   6.691   2.237   1.939  0.2633 -0.0251  0.0325
 3290W        W 7490   3.419   9.162   9.733  0.0448 -0.1832 -0.1892
 3291W        W 7491   2.030   7.300   1.869  0.1056 -0.1527  0.0132
 3292W        W 7492   2.943   5.146  10.813  0.0849  0.1047  0.2735
 3293W        W 7493   6.401   5.387   2.087  0.3709 -0.0054 -0.2937
 3294W        W 7494   2.021   3.524  11.306 -0.1073 -0.0189 -0.2300
 3295W        W 7495   1.701   1.285  13.113  0.2798 -0.0003  0.0950
 3296W        W 7496   3.224   6.821   0.995  0.1541 -0.0447 -0.0165
 3297W        W 7497   1.885   2.755   9.717  0.1799  0.1516 -0.1308
 3298W        W 7498   2.985   1.247   0.717  0.1753  0.1922 -0.1268
 3299W        W 7499   7.013   9.827   4.993 -0.2353  0.4013  0.0107
 3300W        W 7500   4.727   8.783  11.192  0.0241 -0.1918  0.0508
 3301W        W 7501   7.350   3.212  12.076 -0.0530  0.1356 -0.0402
 3302W        W 7502   4.659   9.272   9.837 -0.0576  0.0537  0.0643
 3303W        W 7503   0.669   0.083  12.358  0.1022  0.0896  0.1116
 3304W        W 7504   3.020   9.905   9.755  0.0447  0.0616  0.1492
 3305W        W 7505   3.057   7.193  10.100  0.0518 -0.2296 -0.0908
 3306W        W 7506   4.579   4.430   4.179 -0.1498 -0.0408 -0.0038
 3307W        W 7507   2.953   3.924   4.036  0.0434 -0.1403  0.3641
 3308W        W 7508   1.488   8.421   2.159  0.0073 -0.1951  0.0471
 3309W        W 7509   3.561   4.089  11.613  0.1681  0.1910 -0.3496
 3310W        W 7510   5.769   4.275  12.157  0.1073 -0.3135  0.2841
 3311W        W 7511   0.349   3.282   1.342 -0.0236  0.1645  0.0688
 3312W        W 7512   9.971   9.128  12.738  0.1184 -0.1768  0.2384
 3313W        W 7513   7.010   7.799  12.767  0.0988  0.2307  0.0243
 3314W        W 7514   7.103   5.758  10.457  0.3117 -0.0655  0.0019
 3315W        W 7515   6.008   5.750   8.131 -0.4249 -0.3073 -0.1387
 3316W        W 7516   6.142   7.806   2.909 -0.0064 -0.2034 -0.0428
 3317W        W 7517   4.164   0.402   5.397  0.0728  0.1126 -0.1511
 3318W        W 7518   4.941   4.338  12.972 -0.1536  0.2837 -0.1803
 3319W        W 7519   1.055   1.017  12.580 -0.2451  0.0649  0.3223
 3320W        W 7520   4.414   0.538   4.478  0.1529  0.0659  0.2173
 3321W        W 7521   3.043   3.969  12.578  0.0170  0.2426 -0.1255
 3322W        W 7522   5.099   0.227   0.692 -0.0461 -0.0028 -0.0228
 3323W        W 7523   9.239   3.652  11.474 -0.1023 -0.2987  0.0461
 3324W        W 7524  10.229   0.776   2.583  0.0164  0.1004  0.0819
 3325W        W 7525  10.277   5.465   2.217  0.0312 -0.1678 -0.0029
 3326W        W 7526   2.496   8.997  13.022  0.0918 -0.3975 -0.4487
 3327W        W 7527   5.661   6.627   9.363 -0.3904 -0.1792  0.0582
 3328W        W 7528   2.423   5.571   2.712  0.5855 -0.1441 -0.4637
 3329W        W 7529   3.185   1.117   4.630 -0.0411  0.1761  0.0358
 3330W        W 7530   6.046   8.969  13.366  0.0998 -0.1052 -0.0798
 3331W        W 7531   0.025   5.056   3.390 -0.1315 -0.0955  0.1222
 3332W        W 7532   8.711  10.279  12.216  0.2395 -0.1669  0.1326
 3333W        W 7533   8.342   0.304  13.458 -0.0245 -0.0290 -0.0619
 3334W        W 7534   1.793   7.789   9.991 -0.1926  0.2237  0.4402
 3335W        W 7535   2.646   4.569  10.935  0.1293 -0.0823  0.1100
 3336W        W 7536   4.684   4.175  11.665  0.2995  0.0476  0.1784
 3337W        W 7537   2.654   7.922   1.929  0.3162 -0.2470 -0.1237
 3338W        W 7538   5.987   0.492  12.053 -0.0778  0.1146  0.0513
 3339W        W 7539   3.187  10.180   9.351 -0.1579 -0.4029  0.0738
 3340W        W 7540   6.020   6.677  10.190  0.1213 -0.0948  0.3144
 3341W        W 7541   2.352   6.041   2.980  0.1703  0.0191  0.2411
 3342W        W 7542   9.197   2.070   8.124 -0.0220 -0.1828  0.1678
 3343W        W 7543   9.608   3.964  10.948 -0.1079 -0.2545 -0.0533
 3344W        W 7544   3.541   2.082   1.776 -0.4000  0.0868  0.1386
 3345W        W 7545   5.043   4.889   9.799  0.0439 -0.2831 -0.2275
 3346W        W 7546   8.351   3.880  11.240  0.3139  0.0316  0.4504
 3347W        W 7547   5.785   5.025   2.509 -0.0089  0.1400  0.0404
 3348W        W 7548   3.250   6.360  11.623 -0.2958  0.1579 -0.0422
 3349W        W 7549   5.650   1.710   0.245  0.3171  0.0209  0.0936
 3350W        W 7550   5.857   4.591   9.174 -0.0843  0.2819 -0.1516
 3351W        W 7551   4.632   4.165   3.451 -0.1415  0.1194  0.3662
 3352W        W 7552   4.096   9.868  13.120  0.1749 -0.1849  0.2831
 3353W        W 7553  10.250   3.274   2.067 -0.0679 -0.2377  0.2962
 3354W        W 7554   0.376   3.746  11.422 -0.3160  0.0754  0.3503
 3355W        W 7555   5.556   9.455   1.582  0.3155 -0.1182 -0.0841
 3356W        W 7556   9.040  10.035   4.050  0.0033  0.0532  0.0414
 3357W        W 7557   8.847   1.628   0.821  0.0737  0.1131  0.1218
 3358W        W 7558   6.650   1.011  12.231 -0.0422 -0.0779  0.1203
 3359W        W 7559   8.326   0.056   2.308 -0.2869 -0.0311  0.0335
 3360W        W 7560   3.547   4.776  10.699 -0.0194  0.0520  0.1029
 3361W        W 7561   4.695   2.074   8.184 -0.0477  0.0872 -0.0419
 3362W        W 7562   4.527   2.745   4.358  0.1129  0.1122 -0.1181
 3363W        W 7563   8.875   3.122   4.221 -0.2306 -0.1478 -0.0604
 3364W        W 7564   6.928   2.875   0.101  0.1458 -0.0585 -0.0821
 3365W        W 7565   1.140   5.824   3.699  0.1130 -0.0843  0.0938
 3366W        W 7566   4.485   3.566   8.606  0.1757  0.0009 -0.0685
 3367W        W 7567   3.825   5.878   3.677 -0.1747 -0.0132 -0.2162
 3368W        W 7568   9.298   4.121   1.762  0.1254 -0.1571 -0.0079
 3369W        W 7569   8.519   0.108  11.180  0.1051 -0.0193 -0.4343
 3370W        W 7570   4.422   2.026   0.471 -0.3968  0.2301  0.3780
 3371W        W 7571   5.844   5.967   3.469 -0.1460  0.0038  0.0814
 3372W        W 7572   3.125   9.482   4.853  0.0556  0.3201  0.1287
 3373W        W 7573   9.196   3.491  12.259  0.3912  0.0614 -0.1367
 3374W        W 7574   4.832   1.065   1.288  0.0196  0.0968  0.0557
 3375W        W 7575   3.444   5.720  13.003  0.0013  0.1159 -0.1314
 3376W        W 7576  10.303   9.925   2.973 -0.1629  0.4152 -0.1700
 3377W        W 7577   6.388   6.283   3.099  0.3629 -0.3258  0.3187
 3378W        W 7578   9.793   7.031  11.019 -0.0684  0.0539  0.1655
 3379W        W 7579   1.032  10.334  11.844  0.2021 -0.2814 -0.1813
 3380W        W 7580   8.882   8.164  13.277 -0.2427  0.1061 -0.0420
 3381W        W 7581   7.708   8.428  13.137  0.0295  0.3157 -0.1388
 3382W        W 7582   7.219   6.070   9.974  0.0407  0.1703  0.1276
 3383W        W 7583   8.196   4.112   0.188 -0.2902  0.0437  0.0186
 3384W        W 7584   6.689   9.978   2.699 -0.0113  0.0380  0.1421
 3385W        W 7585   5.175   1.352   1.578  0.0077 -0.1907 -0.0436
 3386W        W 7586   0.732  10.184  10.296  0.1064 -0.2430 -0.2335
 3387W        W 7587   3.464   1.466   4.323 -0.3366 -0.1171  0.0356
 3388W        W 7588   6.774   1.136   0.339  0.0139  0.0770  0.2747
 3389W        W 7589   6.624   9.888  13.026 -0.3060 -0.1597 -0.2732
 3390W        W 7590   7.952   9.579   3.918 -0.1606 -0.3085  0.3030
 3391W        W 7591   6.496   5.115   3.964  0.2476  0.0759 -0.0890
 3392W        W 7592   3.603   8.399   9.672  0.0016  0.1810 -0.0994
 3393W        W 7593   3.827   6.920   2.544  0.0901  0.0269  0.0007
 3394W        W 7594   6.363   8.663   4.012  0.1347  0.0363  0.1560
 3395W        W 7595   5.091   8.154   9.018  0.1398  0.1767 -0.2285
 3396W        W 7596   2.919   2.664   0.961 -0.0364  0.3058 -0.0725
 3397W        W 7597   5.419   3.808  11.195  0.1014 -0.0295  0.3718
 3398W        W 7598   4.353   4.965   0.418  0.0202 -0.5608 -0.0904
 3399W        W 7599   3.451   4.452   2.605  0.2083  0.0117  0.2864
 3400W        W 7600   0.186   2.451  11.897  0.0366 -0.0478  0.2811
 3401W        W 7601   1.437   2.215  11.414 -0.2977  0.2494 -0.4885
 3402W        W 7602   1.400   9.867   0.003  0.0672  0.1550  0.0214
 3403W        W 7603   4.584   7.641  10.141  0.2117 -0.4644  0.3335
 3404W        W 7604   5.548   9.228   2.693  0.2819  0.1756  0.2853
 3405W        W 7605   4.952   3.342   4.371 -0.0026 -0.0084 -0.1615
 3406W        W 7606   4.928   1.104  10.016  0.3707  0.0763  0.1014
 3407W        W 7607   7.316   3.613   0.369 -0.1182 -0.2885  0.0045
 3408W        W 7608   6.872   8.963  12.602 -0.1027 -0.1786  0.1341
 3409W        W 7609   2.108   4.917  10.896  0.0338 -0.0155  0.1863
 3410W        W 7610   0.288   3.589   9.465 -0.2089 -0.0149  0.0240
 3411W        W 7611   5.507   4.856   8.953  0.2058  0.3672  0.0146
 3412W        W 7612   2.070   6.898   2.717 -0.3873  0.1290  0.1434
 3413W        W 7613   3.317   9.632   3.069 -0.1020 -0.0845 -0.1641
 3414W        W 7614   1.978   5.710   0.367  0.0362 -0.3562 -0.0348
 3415W        W 7615   4.504   2.790   9.638  0.1945 -0.0780  0.1813
 3416W        W 7616   4.972   2.135  11.452  0.3066 -0.0700  0.0779
 3417W        W 7617   1.538   2.466   9.985 -0.0986 -0.1266  0.3468
 3418W        W 7618   2.876   8.246  11.892 -0.2689 -0.1250 -0.0436
 3419W        W 7619   0.052   6.945   0.239  0.2269 -0.1058 -0.0180
 3420W        W 7620   5.264   2.068   0.665  0.1442  0.6199 -0.0622
 3421W        W 7621   1.739   0.791   9.803 -0.0869  0.2092 -0.0590
 3422W        W 7622   8.619   9.747   0.893 -0.1213  0.0727 -0.0713
 3423W        W 7623   5.687   7.375   2.236 -0.1236  0.1459  0.2567
 3424W        W 7624   0.890   9.097   3.211 -0.2135  0.0893  0.1196
 3425W        W 7625  10.452   1.600   3.102  0.3035 -0.0179 -0.0147
 3426W        W 7626  10.243   9.960   2.448  0.2382 -0.0766  0.1625
 3427W        W 7627  10.116   6.189  12.080 -0.1219 -0.1762  0.2027
 3428W        W 7628   8.577   0.697   2.086 -0.0010  0.0340 -0.0308
 3429W        W 7629   0.302   8.698  10.289  0.4577  0.0392 -0.0224
 3430W        W 7630   9.789   2.370   3.003 -0.1359  0.1077  0.1793
 3431W        W 7631   2.590   0.764   3.069  0.2688  0.0729  0.0472
 3432W        W 7632   2.780   9.067   8.782  0.0898 -0.2383  0.3531
 3433W        W 7633   6.374   3.459  12.138 -0.2618  0.1819  0.1065
 3434W        W 7634   9.840   8.943   2.301 -0.2397 -0.1175 -0.0707
 3435W        W 7635  10.450   5.361  10.597  0.1891  0.0511  0.1963
 3436W        W 7636   3.695   4.003  13.240  0.2312  0.1617 -0.0313
 3437W        W 7637   9.010   0.371   1.061 -0.1314  0.0784  0.1727
 3438W        W 7638   4.894   3.498   8.858  0.1830  0.2301  0.1098
 3439W        W 7639   1.347  10.254  11.348  0.0009  0.0724 -0.0403
 3440W        W 7640   1.997   3.343   4.172 -0.0750 -0.0863  0.0575
 3441W        W 7641   0.028   0.100   1.716 -0.2796  0.2113  0.1362
 3442W        W 7642   2.112   7.622  12.804  0.1805  0.1892 -0.1900
 3443W        W 7643   5.010   9.202  10.129 -0.2224  0.2172 -0.0793
 3444W        W 7644   5.362   4.112  13.011 -0.0573  0.2389 -0.0636
 3445W        W 7645   5.237   8.664   8.263  0.1679 -0.0742 -0.1921
 3446W        W 7646   8.991   6.732   0.835 -0.0894  0.1081  0.2321
 3447W        W 7647   7.374   7.533   3.902  0.0134  0.0126  0.0809
 3448W        W 7648   7.554   3.451  10.407 -0.0814 -0.0218 -0.2632
 3449W        W 7649   1.527   2.742  10.392 -0.2811 -0.1593 -0.0873
 3450W        W 7650   9.823   9.801   2.830 -0.1292 -0.2432 -0.2207
 3451W        W 7651   6.861   7.894  11.412 -0.1535 -0.0790 -0.0720
 3452W        W 7652   7.325   5.125   3.379  0.1015 -0.3563  0.0284
 3453W        W 7653   3.209   0.308   1.113 -0.1889  0.2936 -0.0295
 3454W        W 7654   0.460   1.511  12.001 -0.1160  0.3109 -0.0482
 3455W        W 7655   6.203   8.179  12.818  0.0704 -0.3671  0.2844
 3456W        W 7656   9.370   3.574  12.867  0.0438 -0.0958 -0.0528
 3457W        W 7657   6.668   5.972  12.629  0.0808  0.2257  0.0457
 3458W        W 7658   3.721   1.697   0.260 -0.1376  0.0037  0.0367
 3459W        W 7659   4.902  10.169   9.803 -0.0367  0.0999 -0.0798
 3460W        W 7660   6.199   1.866   3.869 -0.1349 -0.1859 -0.2385
 3461W        W 7661   9.032   2.987   9.536 -0.1721  0.0064 -0.2170
 3462W        W 7662   7.341  10.161   3.391  0.1834  0.0143  0.2180
 3463W        W 7663   9.561   9.694  11.764  0.2615  0.1473  0.0666
 3464W        W 7664   5.688   1.010   3.295  0.2089 -0.1572  0.3789
 3465W        W 7665   0.353   0.472   1.336 -0.1636  0.4427  0.0804
 3466W        W 7666   2.505   4.176   2.245 -0.1188 -0.0148 -0.0453
 3467W        W 7667   1.053   1.125   1.288 -0.2569  0.1651  0.0972
 3468W        W 7668   0.139   0.172   3.367 -0.1346 -0.1501  0.0603
 3469W        W 7669   8.027   9.203   3.097  0.3319 -0.0450 -0.0795
 3470W        W 7670   4.318   1.387   8.880 -0.1632 -0.0297 -0.4194
 3471W        W 7671   7.540   4.126   1.732  0.1646  0.2037 -0.0504
 3472W        W 7672   2.586   8.428   1.906 -0.3776 -0.0417  0.0475
 3473W        W 7673   9.840   7.532   0.428 -0.0967  0.0070  0.0769
 3474W        W 7674   6.600   6.975   0.470 -0.2542 -0.3636 -0.0858
 3475W        W 7675   8.980   2.076   1.569 -0.1081 -0.3058  0.0297
 3476W        W 7676   3.951   3.171  11.963 -0.2589  0.0439  0.2487
 3477W        W 7677   0.641   0.897   0.115  0.0058  0.2530 -0.0298
 3478W        W 7678   2.102   6.478  11.658 -0.0125 -0.0616  0.0684
 3479W        W 7679   7.221   0.363  12.762  0.0551  0.1821  0.4633
 3480W        W 7680   4.560   6.333   3.934  0.0855  0.2382  0.1403
 3481W        W 7681   3.578   5.180  12.485  0.0618  0.2351 -0.3240
 3482W        W 7682   7.822   2.052  12.804 -0.0040 -0.3190 -0.0896
 3483W        W 7683   3.725   6.294  10.967  0.2975 -0.1646  0.1324
 3484W        W 7684   5.518   8.892  10.777 -0.0875 -0.5938  0.1515
 3485W        W 7685   6.986   1.404   0.708  0.1863  0.0398 -0.1579
 3486W        W 7686   1.825   9.601  12.971 -0.1876  0.0485 -0.1231
 3487W        W 7687   1.951   5.123  13.272 -0.3214  0.0112  0.1207
 3488W        W 7688   7.679   7.585  12.077 -0.1414  0.3359  0.0198
 3489W        W 7689  10.483   5.819   9.007 -0.0873  0.0066 -0.1445
 3490W        W 7690   8.610   8.987   1.616 -0.0501 -0.1496  0.0795
 3491W        W 7691   8.611   5.814   9.289 -0.1529  0.1557  0.2547
 3492W        W 7692   7.542   7.307   0.693 -0.0479  0.1015  0.0626
 3493W        W 7693   5.696   6.963   0.660  0.2280  0.3102  0.3771
 3494W        W 7694   0.845   1.125   1.750 -0.2453 -0.5144  0.0265
 3495W        W 7695   1.380   3.840  12.251  0.0800 -0.2005  0.2955
 3496W        W 7696   6.623   3.331  10.851  0.1644 -0.2799  0.2349
 3497W        W 7697  10.065   8.678   8.024 -0.3251 -0.0135 -0.0703
 3498W        W 7698   8.764   2.145   2.059 -0.2177 -0.0094  0.2032
 3499W        W 7699   4.167   9.380  10.054  0.1675 -0.0351 -0.0415
 3500W        W 7700   5.684   0.972   2.579 -0.0648 -0.3375 -0.3210
 3501W        W 7701   7.160   0.825   3.676 -0.0742  0.1460 -0.0146
 3502W        W 7702   9.225   7.631  10.599 -0.1468 -0.3346 -0.3241
 3503W        W 7703   2.706   5.789  10.142  0.0016  0.2030 -0.1490
 3504W        W 7704   5.462   3.803   1.331  0.0542  0.0111 -0.1022
 3505W        W 7705   4.860   4.931   1.967  0.3426  0.0266  0.3103
 3506W        W 7706   1.009   5.254   3.642 -0.0541 -0.1139  0.1248
 3507W        W 7707   5.508   4.274   9.106  0.2389 -0.1417 -0.1879
 3508W        W 7708   0.241   5.221   1.892 -0.1430  0.0223 -0.1103
 3509W        W 7709   5.149   3.982  10.141  0.4043  0.1364  0.1311
 3510W        W 7710   3.443   1.871  10.914 -0.2476  0.0419 -0.1198
 3511W        W 7711   5.242   0.703  12.914 -0.1556  0.1339 -0.0684
 3512W        W 7712   2.751   7.863   1.452 -0.0278 -0.2873 -0.3385
 3513W        W 7713   8.855   5.972   2.586 -0.1307 -0.1873 -0.0128
 3514W        W 7714   5.322   4.120   8.073  0.0510  0.3160 -0.2257
 3515W        W 7715   4.382   6.710   9.804  0.0256 -0.0676  0.1596
 3516W        W 7716   4.528   2.788   0.719 -0.2067 -0.0280  0.2329
 3517W        W 7717  10.006   1.284  13.042  0.2785  0.1074  0.2512
 3518W        W 7718   4.274   1.747   4.092  0.2406 -0.3704 -0.1028
 3519W        W 7719   6.571   4.576  11.522 -0.2380  0.3258  0.0986
 3520W        W 7720   1.199   3.854   2.980 -0.2275 -0.3173 -0.0769
 3521W        W 7721   9.239   2.248  11.663 -0.1166 -0.2091 -0.0660
 3522W        W 7722   1.875   7.579  10.684  0.0253  0.1627  0.2140
 3523W        W 7723   4.193   5.928   8.194 -0.2559  0.1873  0.2803
 3524W        W 7724   0.459   0.552   3.098 -0.4273  0.0220  0.2520
 3525W        W 7725   5.235   4.025   0.980 -0.0795 -0.3814 -0.2634
 3526W        W 7726   4.245   9.878  10.352  0.2068  0.2891  0.2745
 3527W        W 7727   7.591   8.262  10.065 -0.1138  0.0226 -0.1204
 3528W        W 7728   5.390   8.356   2.841  0.1432 -0.0994  0.3913
 3529W        W 7729   0.053   7.294   1.091  0.1754  0.4243  0.0304
 3530W        W 7730   3.125   9.550  10.151 -0.4062  0.1405  0.1421
 3531W        W 7731   7.599   8.413   0.746 -0.1332 -0.1905 -0.0349
 3532W        W 7732   9.310   8.672  11.982 -0.1216 -0.0323  0.1193
 3533W        W 7733   2.750   8.923  11.339  0.1862  0.0596 -0.1278
 3534W        W 7734   4.954   3.296  11.736  0.0073  0.1879  0.0907
 3535W        W 7735   2.179   2.885   8.155  0.4180 -0.1145  0.1015
 3536W        W 7736   2.629   1.813  11.791  0.3881  0.0862 -0.1811
 3537W        W 7737   3.571   8.616   3.813 -0.1907 -0.1192 -0.0065
 3538W        W 7738   7.312   0.892   9.163 -0.2480  0.3710  0.0750
 3539W        W 7739   7.304   0.094  10.830 -0.1584  0.0899 -0.0822
 3540W        W 7740   1.809   1.520   8.329  0.1743  0.1833  0.0094
 3541W        W 7741   8.138   4.505   3.499  0.1292  0.2529  0.0596
 3542W        W 7742   4.893   3.378  12.992 -0.0912 -0.1088  0.1595
 3543W        W 7743   4.705   8.202  13.072  0.1138  0.1870  0.2602
 3544W        W 7744   4.161  10.064   1.155 -0.0399  0.2127  0.0957
 3545W        W 7745   6.413   0.756  13.000  0.0448 -0.0505  0.1818
 3546W        W 7746   4.949   2.234   5.607  0.3185 -0.0906 -0.2455
 3547W        W 7747   6.303   8.199   0.151 -0.0919 -0.0425  0.0829
 3548W        W 7748   5.907   1.058   2.072  0.3684  0.1225 -0.2393
 3549W        W 7749   7.827   0.214   9.259  0.0131  0.1808  0.0898
 3550W        W 7750  10.049   3.110   8.183 -0.0347 -0.1256  0.0788
 3551W        W 7751   7.226   5.938  12.520 -0.0844  0.3241 -0.3149
 3552W        W 7752   4.969   9.811   3.288 -0.0847  0.2085 -0.1165
 3553W        W 7753   1.345   3.832  10.720 -0.1005  0.1112 -0.1066
 3554W        W 7754   5.052   5.836   3.043  0.0433  0.0141  0.0715
 3555W        W 7755   1.361   5.381  12.032  0.1982  0.4394  0.0858
 3556W        W 7756   6.111   6.844   4.639 -0.2009 -0.1885  0.0595
 3557W        W 7757   9.634   3.468  10.749 -0.1679  0.2061 -0.1178
 3558W        W 7758   1.549   4.044  12.662 -0.2400  0.0535  0.4719
 3559W        W 7759   6.621  10.303   4.213 -0.2305  0.2204 -0.1416
 3560W        W 7760   2.961   2.920   9.255 -0.1822 -0.1761  0.0192
 3561W        W 7761   6.706   6.107   0.930  0.1421 -0.2511 -0.0559
 3562W        W 7762   8.912   2.645   4.120 -0.2273  0.1906  0.2174
 3563W        W 7763   1.373   8.713   4.211 -0.0979  0.0574 -0.0112
 3564W        W 7764   7.546   0.563   3.465  0.0116 -0.3069 -0.0310
 3565W        W 7765   2.022   5.566   3.017 -0.3193  0.1523  0.1282
 3566W        W 7766   4.091   7.090   9.097 -0.0790  0.3076 -0.1173
 3567W        W 7767   1.427   5.707  11.220  0.0238 -0.0895 -0.5833
 3568W        W 7768   6.262   1.219   2.590  0.0262 -0.1526 -0.1494
 3569W        W 7769   0.499   3.015  10.819  0.1341  0.0922  0.0044
 3570W        W 7770   8.113   2.193  10.789 -0.0402  0.0444  0.0381
 3571W        W 7771   9.736   6.000  10.864  0.1343 -0.0171 -0.1147
 3572W        W 7772   3.430  10.185   0.190  0.0644 -0.0615 -0.0835
 3573W        W 7773   0.675   0.713   1.603 -0.1046  0.2881 -0.1502
 3574W        W 7774   2.734   9.635  12.308  0.0398  0.0971 -0.1265
 3575W        W 7775   2.433   9.498   9.933 -0.0022 -0.0545  0.0827
 3576W        W 7776   3.429   6.463   1.381  0.1091  0.0195 -0.0915
 3577W        W 7777   1.064   2.665  10.107 -0.3110 -0.1840 -0.0909
 3578W        W 7778   8.091   1.282   2.978  0.2085  0.2642  0.1672
 3579W        W 7779   4.615   6.610  11.418 -0.1557  0.0272  0.2233
 3580W        W 7780   3.995   5.108   1.236 -0.3978 -0.1371  0.0101
 3581W        W 7781   4.718   3.837  13.012  0.0501  0.0352 -0.2699
 3582W        W 7782   4.757   6.144  12.571 -0.0385  0.2385 -0.0745
 3583W        W 7783   9.235   8.649   1.634 -0.4416  0.1322  0.1125
 3584W        W 7784   3.327   0.576   1.610  0.0854  0.0069 -0.0786
 3585W        W 7785   7.846   1.938   8.539 -0.2993 -0.0705  0.1634
 3586W        W 7786   1.914   5.604  11.181  0.0551  0.2219 -0.1731
 3587W        W 7787   4.721   4.611   3.654 -0.2747  0.0673  0.1577
 3588W        W 7788   3.081   1.710  10.486 -0.2326 -0.1622 -0.1170
 3589W        W 7789   2.323   5.865  10.436  0.1073 -0.1969  0.0419
 3590W        W 7790  10.367   6.379   2.495 -0.0598 -0.0340  0.0041
 3591W        W 7791   4.901   7.358   2.374  0.3707  0.1185  0.0039
 3592W        W 7792   7.880   0.569  12.621  0.3848 -0.1382  0.0596
 3593W        W 7793   2.231  10.269  10.534 -0.0707  0.0108 -0.0677
 3594W        W 7794   4.130   1.871  10.100 -0.2072 -0.0057 -0.0255
 3595W        W 7795   7.693   1.721   3.524 -0.3070 -0.3225  0.0416
 3596W        W 7796   0.398   4.762   2.142  0.1449  0.1310  0.0813
 3597W        W 7797   8.640   9.704   3.875 -0.0518 -0.1132  0.3491
 3598W        W 7798   4.237   7.352   2.577 -0.0474  0.2864 -0.3285
 3599W        W 7799   8.782   7.742   3.334  0.3374 -0.1939 -0.1820
 3600W        W 7800   9.839   3.548   9.963 -0.1585 -0.0645 -0.2277
 3601W        W 7801   2.104   4.720   2.509 -0.0627  0.1245 -0.0541
 3602W        W 7802   2.450   5.166   8.591 -0.1834  0.0494 -0.1524
 3603W        W 7803   6.799   3.412   9.057  0.1727  0.0230 -0.2238
 3604W        W 7804   0.587   2.521  10.958  0.0381  0.0899 -0.2277
 3605W        W 7805   2.082   7.386  10.061  0.3089  0.0577  0.0683
 3606W        W 7806   6.008   2.637  10.916  0.1562 -0.0123  0.0233
 3607W        W 7807   9.261  10.177   0.737  0.1642 -0.1298  0.2537
 3608W        W 7808   7.987   9.839  12.312 -0.1714  0.0113 -0.0204
 3609W        W 7809   3.633   8.499  11.142  0.0901  0.0935 -0.0458
 3610W        W 7810   3.899   9.200  11.790  0.0234  0.2827 -0.3393
 3611W        W 7811   2.140   3.271  11.797  0.0444 -0.0480 -0.3832
 3612W        W 7812  10.179   9.141   3.620 -0.0052 -0.2271 -0.1423
 3613W        W 7813   2.631   8.530   4.850 -0.1985 -0.0737  0.2178
 3614W        W 7814   6.213   8.564  11.971  0.0674  0.0315 -0.0170
 3615W        W 7815   8.907   8.331   0.954 -0.0595  0.0733 -0.1470
 3616W        W 7816   0.554   5.037   1.284  0.0758  0.0917 -0.1224
 3617W        W 7817   2.805   2.124  10.388  0.0830 -0.2198  0.0372
 3618W        W 7818  10.371   7.761  11.560 -0.2296  0.1185  0.3623
 3619W        W 7819   2.754   4.512   1.300 -0.0364 -0.0049 -0.2729
 3620W        W 7820   1.525   6.811   4.797 -0.0023  0.2122  0.1233
 3621W        W 7821   1.408   9.677  12.620 -0.0294  0.1260 -0.0666
 3622W        W 7822   1.486   3.212  11.658 -0.0938 -0.0745  0.2901
 3623W        W 7823   1.609   7.978  12.333 -0.0619  0.0490  0.3171
 3624W        W 7824   8.131   2.058   3.518  0.1087  0.1897  0.0349
 3625W        W 7825   9.986   6.091   3.225  0.0602  0.0004  0.0715
 3626W        W 7826   6.443   6.116  13.333  0.2436 -0.1640  0.0767
 3627W        W 7827   0.961   9.737   9.127  0.3773  0.2524 -0.5756
 3628W        W 7828   9.073   3.993  12.228  0.0548  0.2753 -0.1461
 3629W        W 7829   8.178  10.274  11.345 -0.0318 -0.1390 -0.0109
 3630W        W 7830   8.037   7.542  11.685 -0.0032  0.0099  0.0589
 3631W        W 7831   3.496   3.529   2.368  0.2040 -0.0511 -0.0630
 3632W        W 7832   1.485   2.564  12.707 -0.0497  0.2844  0.0304
 3633W        W 7833   3.512   2.671  10.587  0.3353  0.2232  0.0383
 3634W        W 7834   1.779   0.222   9.604 -0.5017  0.3996 -0.0380
 3635W        W 7835   3.670   6.699  10.607 -0.2490  0.2284 -0.1867
 3636W        W 7836   3.764   3.237   3.138 -0.1276  0.0162 -0.0623
 3637W        W 7837   1.937   1.491   0.908 -0.1140  0.3791 -0.0117
 3638W        W 7838   4.229   5.850  13.312 -0.0854 -0.0655 -0.1740
 3639W        W 7839   1.851   3.874  12.121 -0.1555 -0.0021 -0.2620
 3640W        W 7840   2.442   9.290   1.505  0.1417 -0.0618  0.3284
 3641W        W 7841   5.866   7.620  10.554 -0.1940  0.1447 -0.3025
 3642W        W 7842   7.265   6.660  13.404  0.2065 -0.1675 -0.1591
 3643W        W 7843   8.348   7.513   1.724  0.1360 -0.1110  0.2356
 3644W        W 7844   9.221   6.230   0.135  0.0616 -0.0890  0.2730
 3645W        W 7845   1.042   3.860  12.653 -0.4075  0.0134 -0.0447
 3646W        W 7846   1.591   1.797  13.046 -0.1166  0.0355  0.0375
 3647W        W 7847   5.926   2.134   9.284  0.2173 -0.0500 -0.0623
 3648W        W 7848   5.751   2.961   4.216 -0.2398 -0.0544  0.3179
 3649W        W 7849   1.565   2.386   3.090 -0.0589 -0.0498  0.0414
 3650W        W 7850   7.697   3.123   0.699 -0.1116  0.1435  0.1895
 3651W        W 7851   4.841   1.397   0.268  0.3634  0.2322 -0.2529
 3652W        W 7852   0.889   9.022  12.253 -0.1025 -0.2098 -0.1892
 3653W        W 7853   1.138   1.540   1.512 -0.2098  0.1984  0.0006
 3654W        W 7854   3.944   3.491  13.110  0.1096  0.0922  0.1120
 3655W        W 7855   6.118   6.033  12.815 -0.0909  0.0459 -0.1136
 3656W        W 7856   6.468   8.847   2.994 -0.1608  0.0383 -0.0339
 3657W        W 7857   3.438   5.717   8.571  0.2718 -0.1645 -0.1096
 3658W        W 7858   2.987   8.112   2.778 -0.1993  0.2373 -0.0303
 3659W        W 7859   5.349   4.185   4.843  0.0434  0.2563  0.1126
 3660W        W 7860   9.150   7.234  12.687  0.0252 -0.0263 -0.2562
 3661W        W 7861  10.463   4.859  11.691  0.0379 -0.3628 -0.0824
 3662W        W 7862   5.740   7.124   1.527 -0.0454 -0.0453 -0.1789
 3663W        W 7863   9.278   5.082   0.718  0.2024  0.0826 -0.1768
 3664W        W 7864   7.172   0.543  10.654  0.0705 -0.1504 -0.0149
 3665W        W 7865   4.271   7.389  10.989 -0.0091 -0.2376 -0.0108
 3666W        W 7866   9.202   6.955   2.825 -0.0803  0.1136  0.0978
 3667W        W 7867   2.053   3.507   9.201 -0.0725  0.0157  0.1459
 3668W        W 7868   2.059   6.990   4.708 -0.0883 -0.1799 -0.0546
 3669W        W 7869   5.311   7.382   1.577 -0.2105  0.1063  0.0281
 3670W        W 7870   6.049   2.607   4.398 -0.2740  0.1365  0.2388
 3671W        W 7871   8.560   2.275   3.499 -0.2904 -0.0385 -0.4066
 3672W        W 7872   2.734   7.598  10.265  0.2791 -0.0554 -0.0252
 3673W        W 7873   4.605   2.932   2.288  0.1263  0.0378  0.0148
 3674W        W 7874   5.334   8.017   1.102  0.2539 -0.1132  0.0650
 3675W        W 7875   4.502   1.654   2.015  0.0471 -0.1993 -0.1301
 3676W        W 7876   7.498   2.751  12.380  0.0292  0.1191  0.0400
 3677W        W 7877   6.287   9.855  13.423  0.0133 -0.1597  0.0053
 3678W        W 7878   7.843   8.001   1.037 -0.3294  0.2235  0.1043
 3679W        W 7879   0.019   1.524  12.322  0.0278  0.0624 -0.1763
 3680W        W 7880   2.434  10.117   0.924  0.1385 -0.0103 -0.1910
 3681W        W 7881   6.790   7.342   0.228  0.0151  0.2218  0.0602
 3682W        W 7882   8.518   2.678   3.168  0.1211  0.0008  0.0580
 3683W        W 7883   5.421   7.638  10.280 -0.0254  0.1487  0.1142
 3684W        W 7884   4.384   0.395   3.987  0.1350 -0.5825  0.1141
 3685W        W 7885   7.704   3.776  11.079  0.2779 -0.2303  0.0467
 3686W        W 7886   1.677   2.936   4.305 -0.1336 -0.2300  0.0243
 3687W        W 7887   5.920   7.535   9.889  0.1181 -0.0373 -0.1312
 3688W        W 7888   7.352   7.475   1.645  0.3478 -0.2407 -0.0108
 3689W        W 7889   3.754   3.060  10.258 -0.2062 -0.0732  0.0722
 3690W        W 7890   3.050   0.034   0.238  0.4861 -0.1101  0.0872
 3691W        W 7891   8.755   9.902  11.824  0.1110  0.1221 -0.1696
 3692W        W 7892   4.605   0.298  13.206  0.1309  0.4735  0.0124
 3693W        W 7893   7.449   8.016  12.192 -0.0828  0.2236 -0.1547
 3694W        W 7894   8.910   5.387   4.799  0.1160 -0.1839  0.0269
 3695W        W 7895   4.313   4.817   1.569 -0.1598  0.2586 -0.0891
 3696W        W 7896   7.633   4.941  12.622  0.0414 -0.3399 -0.0425
 3697W        W 7897   2.147  10.185   3.349  0.1665 -0.0071  0.2493
 3698W        W 7898   4.020   1.215  10.962  0.1319  0.1551  0.0684
 3699W        W 7899   6.447   8.230   3.654  0.4425 -0.2649 -0.2076
 3700W        W 7900   4.901   0.369  11.932 -0.3038  0.1291 -0.0850
 3701W        W 7901   6.080   7.500   4.633  0.0281  0.1206 -0.2188
 3702W        W 7902   4.652  10.101  12.321 -0.0287 -0.1520 -0.3924
 3703W        W 7903   4.304   5.651   3.892 -0.0340 -0.2118 -0.0179
 3704W        W 7904   6.619   6.022   1.463  0.0760 -0.0930  0.5079
 3705W        W 7905   7.982   3.845   0.575  0.3077 -0.0041  0.1006
 3706W        W 7906   6.096   7.416   3.246 -0.2249 -0.2258 -0.0006
 3707W        W 7907  10.263   3.367  10.141  0.0092 -0.2245 -0.2441
 3708W        W 7908   8.833   5.032   1.688  0.4400 -0.0120 -0.0144
 3709W        W 7909   6.958   9.129   2.964 -0.0686  0.1195 -0.3437
 3710W        W 7910   3.785   4.211  10.414 -0.0580 -0.0394  0.0086
 3711W        W 7911   4.430   9.781  11.266  0.1082  0.2085  0.1304
 3712W        W 7912   7.796   3.461   0.328 -0.0807  0.1395 -0.1665
 3713W        W 7913   7.774   8.800   0.465  0.0928  0.0089  0.3227
 3714W        W 7914   8.355   2.359   2.211 -0.2379 -0.0361 -0.2140
 3715W        W 7915   4.782   6.279   9.920 -0.1585 -0.2991  0.0832
 3716W        W 7916   4.864   7.546   1.887 -0.1018  0.3088 -0.2576
 3717W        W 7917   2.995   2.568  10.656  0.1309  0.2189 -0.0457
 3718W        W 7918   6.446   1.098  10.080  0.0827  0.0506 -0.5544
 3719W        W 7919   5.531   9.820   2.451 -0.0832  0.2126  0.4601
 3720W        W 7920   0.739   7.412   2.273  0.0253 -0.2416  0.0416
 3721W        W 7921   7.750   2.987   9.982  0.4313 -0.1772 -0.3783
 3722W        W 7922   1.248   3.211  10.334  0.1408 -0.0575 -0.2778
 3723W        W 7923   7.981   4.205   4.244  0.3033  0.2896 -0.0975
 3724W        W 7924   2.878   9.452  13.296 -0.1759  0.1348  0.0525
 3725W        W 7925   2.743   0.149   4.788  0.0544  0.1389 -0.0137
 3726W        W 7926   4.997   6.224   4.117 -0.0922  0.1752 -0.1384
 3727W        W 7927   0.884   2.060   1.780 -0.2746  0.2257 -0.0408
 3728W        W 7928   7.178   5.502  11.436  0.1510  0.0328  0.0899
 3729W        W 7929   9.767   1.731   1.618  0.2581  0.0281  0.1293
 3730W        W 7930   9.066   4.203   1.339 -0.0570  0.2602  0.2373
 3731W        W 7931   5.947   5.107   8.865  0.1914 -0.0654 -0.0867
 3732W        W 7932   3.613   7.573   9.669  0.0951 -0.1124  0.0339
 3733W        W 7933   0.197   8.736  11.666 -0.1980  0.0011  0.0926
 3734W        W 7934   3.039   1.104   5.507  0.0933 -0.1085  0.2450
 3735W        W 7935   0.867   9.869  11.656  0.1029  0.0397  0.1448
 3736W        W 7936   3.837   0.180   2.203  0.4325 -0.1493 -0.2004
 3737W        W 7937   2.465   2.075   4.945 -0.3197  0.0250  0.0125
 3738W        W 7938   0.750   0.736  10.456 -0.0627 -0.0922 -0.1944
 3739W        W 7939   9.062  10.014  10.919  0.0953 -0.0419 -0.0778
 3740W        W 7940   6.290   5.228   9.656  0.1527  0.0355  0.0641
 3741W        W 7941   5.595   6.613   3.345 -0.3818 -0.0716  0.1430
 3742W        W 7942   2.446   2.617   0.721 -0.0406 -0.1884  0.0219
 3743W        W 7943  10.006   8.127  10.096  0.0425 -0.0786  0.4437
 3744W        W 7944   9.534   2.501   4.333 -0.1347 -0.0752 -0.5059
 3745W        W 7945   4.488   9.201  10.654  0.0106 -0.0827  0.0898
 3746W        W 7946   0.835   3.978  13.211  0.0482 -0.0585  0.1583
 3747W        W 7947   7.790   4.173   2.781  0.4260 -0.2288  0.0871
 3748W        W 7948   0.211   7.722   0.909  0.1210  0.2073 -0.3896
 3749W        W 7949   4.310  10.072   5.454  0.1762  0.0500  0.0367
 3750W        W 7950   1.195   4.959   1.293  0.1435 -0.0514 -0.4156
 3751W        W 7951   4.671  10.009   9.377  0.0207 -0.2186 -0.1660
 3752W        W 7952   5.626   1.335  10.608  0.1642 -0.2449 -0.0540
 3753W        W 7953   3.875   2.706   1.853  0.1354 -0.1140 -0.0219
 3754W        W 7954   9.497   6.985  12.935  0.1830  0.0652  0.1023
 3755W        W 7955   2.798   0.049   1.279 -0.2540 -0.0505 -0.0517
 3756W        W 7956   4.855   3.082   9.384  0.1763 -0.1321 -0.1756
 3757W        W 7957   4.670   0.070   4.341 -0.1923 -0.0291 -0.0077
 3758W        W 7958   8.042   4.601   9.636  0.0564  0.0950 -0.2631
 3759W        W 7959   7.349  10.151   0.653 -0.2398 -0.2357  0.0885
 3760W        W 7960   6.520   8.455   4.488  0.1345  0.2906 -0.1637
 3761W        W 7961   4.288   3.538   1.804 -0.1124  0.0030  0.2902
 3762W        W 7962   9.995   7.043   0.302 -0.1729  0.1107 -0.0160
 3763W        W 7963   0.815   4.895  11.514  0.1442 -0.2112 -0.2738
 3764W        W 7964   8.764   0.573  13.145  0.1471  0.1270  0.0378
 3765W        W 7965   2.389   2.658   4.149  0.1500  0.2104  0.2961
 3766W        W 7966   5.091   1.526  11.113 -0.1556 -0.1469 -0.1646
 3767W        W 7967   2.274   3.936   3.050  0.2179 -0.0629  0.2515
 3768W        W 7968   6.907  10.236  10.504  0.2180 -0.3517  0.1971
 3769W        W 7969   8.304   7.427  12.805 -0.2232  0.2690  0.0373
 3770W        W 7970   4.858   2.921   3.856 -0.0438 -0.2613 -0.0074
 3771W        W 7971   2.057   4.424   1.922 -0.1298 -0.2795 -0.2347
 3772W        W 7972   6.174   7.849   0.537  0.0442  0.2966  0.2027
 3773W        W 7973   3.482   6.092   9.833  0.0528  0.1066 -0.1454
 3774W        W 7974   6.126   1.115   0.641  0.0245  0.1564  0.0483
 3775W        W 7975   9.746   4.587   3.764 -0.2571 -0.0956  0.1675
 3776W        W 7976   7.055   8.126  11.831  0.1025 -0.2596 -0.2454
 3777W        W 7977   9.343   7.749  13.387 -0.0461 -0.3024 -0.1081
 3778W        W 7978   4.284   7.099   3.423 -0.2735 -0.1464 -0.5691
 3779W        W 7979   8.049   7.242  10.772 -0.2574 -0.0613  0.1613
 3780W        W 7980   7.849   0.130  10.633 -0.0426  0.0312 -0.2382
 3781W        W 7981   6.621   5.694  12.145 -0.0513 -0.0009 -0.1517
 3782W        W 7982   0.996   0.646  13.037  0.2692  0.1246 -0.1177
 3783W        W 7983   9.241   1.213  10.804 -0.3701 -0.1617  0.2226
 3784W        W 7984  10.346   5.962   0.888  0.1156  0.2277 -0.3319
 3785W        W 7985   8.330   2.423   9.240  0.0250 -0.0112 -0.1064
 3786W        W 7986   4.675   6.100   8.609  0.1399  0.4846  0.1442
 3787W        W 7987   7.558   6.167   0.403  0.1071  0.1393  0.0769
 3788W        W 7988   8.202   0.439   1.930 -0.0653  0.1544 -0.1043
 3789W        W 7989   5.517  10.282  11.256  0.3786  0.0894 -0.1566
 3790W        W 7990   9.937   5.956  10.115 -0.0741 -0.0197 -0.0343
 3791W        W 7991   8.148   3.556   3.806  0.3532  0.1269 -0.2141
 3792W        W 7992   5.154   8.588   5.303  0.0479 -0.0746 -0.0852
 3793W        W 7993   8.536   1.228   0.997  0.1740  0.0026  0.3039
 3794W        W 7994   2.617   1.043   4.530 -0.0648  0.3553 -0.2523
 3795W        W 7995   6.465   9.585   3.700  0.1475  0.0525 -0.0379
 3796W        W 7996   9.292   1.669   1.146 -0.0183 -0.1006 -0.1750
 3797W        W 7997   1.918   0.311   1.229  0.0530 -0.3863  0.1518
 3798W        W 7998   3.112   9.818   3.656 -0.1490  0.1770  0.1441
 3799W        W 7999   5.608   7.063  11.300  0.2019 -0.2224 -0.0714
 3800W        W 8000   6.865  10.274   3.340  0.0309  0.1788 -0.3872
 3801W        W 8001   9.364   0.695  10.769 -0.1173 -0.2347 -0.1183
 3802W        W 8002   2.466   2.530   5.226 -0.0675 -0.1214  0.0386
 3803W        W 8003   0.939   7.224   2.742 -0.2942  0.0233 -0.1962
 3804W        W 8004   1.137   9.240  10.863 -0.1273 -0.0587  0.2287
 3805W        W 8005   6.318  10.040   4.468 -0.2067 -0.2268 -0.2759
 3806W        W 8006   0.599   9.750  12.941  0.0118  0.0109 -0.1432
 3807W        W 8007   8.360   0.370  12.806  0.1707 -0.0161  0.1548
 3808W        W 8008   8.689   7.095  12.717 -0.1250  0.1504  0.1365
 3809W        W 8009   2.012   3.850   0.822 -0.0366  0.2959  0.2321
 3810W        W 8010   0.255   3.260  12.713  0.4882  0.1199 -0.0766
 3811W        W 8011   7.257   9.558   2.813 -0.1090  0.3508 -0.0197
 3812W        W 8012  10.297   4.633  13.120 -0.1002 -0.0541 -0.4187
 3813W        W 8013   1.837   6.452   3.587  0.2418  0.0821 -0.0125
 3814W        W 8014   3.959   9.719  11.017  0.0612  0.2293  0.0974
 3815W        W 8015   5.270   0.741   2.747 -0.1747 -0.2397 -0.0542
 3816W        W 8016   9.098   6.964   2.341  0.0249  0.1247  0.0626
 3817W        W 8017   9.283   2.376  10.179  0.0098  0.1559  0.3278
 3818W        W 8018   4.103   9.264  12.211 -0.3640 -0.0862 -0.2382
 3819W        W 8019   9.216   7.813   1.149 -0.3729 -0.0955 -0.2843
 3820W        W 8020   3.305   4.339   4.800  0.1988 -0.0482  0.2753
 3821W        W 8021   1.468   3.413   2.822 -0.2830 -0.3134 -0.0194
 3822W        W 8022   8.707   4.463   9.638 -0.2790  0.2262  0.0584
 3823W        W 8023   6.713   7.303  11.899 -0.0072 -0.1447 -0.0369
 3824W        W 8024   3.115   7.315   9.597 -0.5672  0.0941 -0.0080
 3825W        W 8025   2.522  10.008   9.807 -0.1486 -0.1818  0.2652
 3826W        W 8026   4.791   0.471   2.866  0.0894 -0.4480  0.0912
 3827W        W 8027   8.007   1.664  12.294 -0.0385  0.0808  0.0137
 3828W        W 8028   9.037   5.614   3.488  0.0779 -0.0498 -0.1759
 3829W        W 8029   1.063   0.196   3.593 -0.3183 -0.4402  0.0543
 3830W        W 8030   9.453   9.534  10.689  0.1759 -0.3802  0.0574
 3831W        W 8031   7.881   3.966   3.728  0.1422  0.0501 -0.1139
 3832W        W 8032   7.094   8.793  11.231 -0.0413 -0.1030  0.4998
 3833W        W 8033   4.417   5.174   2.103  0.0215  0.0656  0.2116
 3834W        W 8034   1.107   4.570   1.653 -0.0715  0.0527 -0.1334
 3835W        W 8035   5.192   1.763   9.400 -0.0809 -0.2437 -0.0248
 3836W        W 8036   8.176   3.330   9.539 -0.0002  0.0076  0.0722
 3837W        W 8037   5.956   7.921  12.334 -0.0189 -0.1656  0.0111
 3838W        W 8038   3.006   5.399   2.250  0.0680  0.0082 -0.0608
 3839W        W 8039   5.075   9.696   1.590 -0.1363 -0.1101 -0.0160
 3840W        W 8040   7.429   5.170  11.768  0.3307 -0.0027 -0.0094
 3841W        W 8041   6.180   0.741   9.891 -0.1316  0.2357  0.1321
 3842W        W 8042   1.908   5.590   3.590  0.1179  0.0711  0.3734
 3843W        W 8043   9.650   8.213   1.712  0.0418  0.1807 -0.1715
 3844W        W 8044   7.363   3.886   0.809 -0.2390 -0.1615  0.2310
 3845W        W 8045   0.111   3.480  11.769  0.3870  0.0343 -0.2929
 3846W        W 8046   6.727   2.442   1.004 -0.0142 -0.3490  0.1749
 3847W        W 8047   7.389   4.934  13.097 -0.3327  0.2589  0.2568
 3848W        W 8048   8.756   9.668  12.562  0.1648  0.0771 -0.1237
 3849W        W 8049   8.777   4.384   8.848 -0.0114 -0.3311  0.1437
 3850W        W 8050   1.954   3.392   9.736  0.1675  0.1241 -0.2416
 3851W        W 8051   3.295   7.118  11.979 -0.4147  0.1143  0.1722
 3852W        W 8052   5.681   5.497  10.433  0.2338  0.1188  0.0156
 3853W        W 8053   0.678   5.597   1.230  0.1910  0.0389  0.1009
 3854W        W 8054   6.375  10.375  12.927  0.1690  0.1343 -0.0308
 3855W        W 8055   2.419   0.619   9.345  0.2660 -0.0508  0.4764
 3856W        W 8056   7.396  10.271  12.257 -0.1373  0.0565 -0.1743
 3857W        W 8057   3.493   1.426  10.675  0.1619  0.1358  0.1775
 3858W        W 8058   8.899   4.483  10.538 -0.2291 -0.0381 -0.3266
 3859W        W 8059   7.545   2.549   3.904  0.2231 -0.0794 -0.2581
 3860W        W 8060   4.009   9.243   4.511  0.0162  0.2529  0.3080
 3861W        W 8061   1.346   0.357   3.155  0.1630  0.0242  0.2527
 3862W        W 8062   8.142   8.167  13.076  0.2093 -0.3593  0.1197
 3863W        W 8063   8.103   6.483  11.247  0.0925 -0.0213 -0.1285
 3864W        W 8064   3.924   7.003  12.942 -0.0077 -0.0757  0.0536
 3865W        W 8065   8.395   8.449  11.852 -0.1790 -0.0538 -0.0534
 3866W        W 8066   4.119   5.136   4.213  0.2871  0.0095 -0.2063
 3867W        W 8067   2.473   9.620   9.384  0.1286 -0.0769  0.0743
 3868W        W 8068   0.957   9.490   1.277  0.0291  0.0162 -0.1531
 3869W        W 8069   6.136   4.477  13.097 -0.0559  0.0549 -0.3764
 3870W        W 8070   1.605   8.771   3.152 -0.1133 -0.1817 -0.0953
 3871W        W 8071   2.839   6.540   1.314 -0.0125 -0.0402  0.0793
 3872W        W 8072   3.643   7.796  10.732 -0.1351 -0.0121 -0.5909
 3873W        W 8073   2.319   8.265   0.041  0.0658  0.0500 -0.3842
 3874W        W 8074   6.042   5.395  13.426 -0.5157  0.0210 -0.1277
 3875W        W 8075   5.861   8.456  12.382  0.1199 -0.0582  0.2133
 3876W        W 8076   8.815   0.081   2.578  0.0786  0.0873 -0.4782
 3877W        W 8077   8.014   1.077  10.340 -0.0294 -0.2283 -0.0985
 3878W        W 8078   0.350   9.291  12.376  0.0380 -0.0960  0.1881
 3879W        W 8079   0.875   9.312  11.837 -0.3204  0.0425  0.0573
 3880W        W 8080   7.821   8.106   9.644  0.0761 -0.1277  0.0977
 3881W        W 8081   0.528   2.920   9.801  0.0513 -0.1460 -0.0093
 3882W        W 8082   3.533   0.872   0.368 -0.2884 -0.0212  0.2076
 3883W        W 8083   0.732   9.828   1.565  0.1123 -0.3574  0.0492
 3884W        W 8084   4.482   0.554   5.032 -0.0192  0.0456 -0.1852
 3885W        W 8085   0.305   0.526   0.852 -0.0386  0.1588 -0.0616
 3886W        W 8086   0.818   1.539  11.629 -0.2822 -0.3031 -0.3886
 3887W        W 8087   5.863   0.241   2.340  0.0369  0.0694  0.1086
 3888W        W 8088   8.122   8.087   2.124 -0.1814  0.0858 -0.1109
 3889W        W 8089   9.256   1.818  10.260  0.1040 -0.0250  0.1304
 3890W        W 8090   6.634   1.562  10.851  0.1974  0.0455  0.0589
 3891W        W 8091   1.639   3.425  10.667 -0.1104  0.1019  0.2497
 3892W        W 8092   5.493   4.767   2.964 -0.1648  0.2262  0.0725
 3893W        W 8093   0.102   2.031  11.539  0.3512  0.3615 -0.0464
 3894W        W 8094   0.660   6.509   9.759  0.2774 -0.1406 -0.1204
 3895W        W 8095  10.236   9.169  12.268 -0.2243  0.1012  0.1681
 3896W        W 8096   0.914   9.537  12.353  0.1238  0.0513  0.0579
 3897W        W 8097   1.392   8.063   2.477 -0.0273  0.0558 -0.1384
 3898W        W 8098   8.245   7.778   3.635 -0.1440  0.0138  0.1324
 3899W        W 8099   0.241  10.476  13.088 -0.2565 -0.1590 -0.0100
 3900W        W 8100   0.435  10.437   2.757 -0.0651  0.0067  0.0169
 3901W        W 8101   0.786   4.678   2.978  0.1774 -0.1594  0.3336
 3902W        W 8102   9.908   2.061   4.203 -0.0352  0.4270  0.0117
 3903W        W 8103   7.645   7.526  10.694 -0.0533 -0.2257 -0.4213
 3904W        W 8104   9.370   7.482   0.353 -0.0042 -0.1312  0.0802
 3905W        W 8105   9.538   7.559  12.507 -0.2560 -0.0395 -0.0415
 3906W        W 8106   0.921  10.198   3.884  0.2696  0.0050 -0.0307
 3907W        W 8107   8.362   4.108  13.132  0.2887 -0.0063 -0.0868
 3908W        W 8108   4.009   6.786  13.394  0.2397 -0.0492 -0.1090
 3909W        W 8109   2.710   5.421  12.131 -0.0868  0.0125  0.1286
 3910W        W 8110   1.007   2.020   1.333 -0.2254 -0.0369  0.1867
 3911W        W 8111   9.695  10.442  12.407 -0.1864  0.2773  0.0064
 3912W        W 8112   6.142   7.097   9.864  0.1553  0.1554 -0.1604
 3913W        W 8113   0.552   1.290   0.886 -0.2807 -0.0230  0.0215
 3914W        W 8114   0.704   6.922   1.950  0.1983 -0.0941 -0.1382
 3915W        W 8115   0.923   0.698   3.015  0.0515 -0.0233  0.1924
 3916W        W 8116   8.457   1.751  10.670  0.1319 -0.2687 -0.3267
 3917W        W 8117   5.764   3.365  13.335  0.1897 -0.1172  0.1898
 3918W        W 8118   9.163   7.802  12.875  0.0191 -0.0064 -0.0892
 3919W        W 8119   6.225   0.321  11.587  0.0821 -0.2026 -0.3120
 3920W        W 8120   6.444   5.262  12.860 -0.0854 -0.1435  0.1106
 3921W        W 8121   9.694   9.811   0.587 -0.2659 -0.0653 -0.0007
 3922W        W 8122   7.222   8.224  12.852  0.2588 -0.2494  0.1883
 3923W        W 8123   9.923   1.413   0.460 -0.0835  0.2135  0.3186
 3924W        W 8124   5.398   0.553   4.234 -0.0556 -0.1743 -0.3282
 3925W        W 8125   9.213   2.861   2.022  0.3428 -0.4369  0.1621
 3926W        W 8126   6.698   1.652   3.186 -0.0566 -0.0052 -0.1307
 3927W        W 8127  10.014   9.784  13.057  0.0290  0.1962 -0.1743
 3928W        W 8128   8.161   4.185   2.438 -0.1309 -0.0862  0.0184
 3929W        W 8129   7.987   5.211  12.434 -0.2535 -0.0337  0.4214
 3930W        W 8130  10.037   0.710  13.435  0.2877  0.2321  0.0630
 3931W        W 8131   7.828   8.918   1.517 -0.0561 -0.0393 -0.1418
 3932W        W 8132   3.751   4.700  11.700 -0.1180 -0.0739  0.0120
 3933W        W 8133   0.336   2.206   4.069 -0.0165 -0.2621  0.1187
 3934W        W 8134   5.979   5.935  13.302  0.2814 -0.1748  0.0398
 3935W        W 8135   0.049   1.300   8.644  0.0532 -0.2052  0.0284
 3936W        W 8136   1.884   2.717   0.753  0.0868  0.2895  0.0056
 3937W        W 8137   2.539   7.806   4.069  0.2647 -0.0530 -0.1139
 3938W        W 8138   4.742   1.311  11.450  0.0823  0.0528  0.1412
 3939W        W 8139   7.459   1.232   9.605 -0.2477 -0.0247 -0.0832
 3940W        W 8140   0.388   4.696   3.270  0.0567  0.2693 -0.3349
 3941W        W 8141   8.708   4.672   1.324 -0.0573 -0.1232  0.0204
 3942W        W 8142   8.510   7.711  11.617  0.0092 -0.2520 -0.3751
 3943W        W 8143   8.772   2.699   2.315 -0.0319  0.1505 -0.1301
 3944W        W 8144   3.080   5.274   0.426 -0.1502  0.0049  0.1134
 3945W        W 8145   8.937   9.603  10.589  0.1267 -0.4165 -0.2161
 3946W        W 8146   2.823   9.522   2.914  0.1060 -0.2126 -0.0959
 3947W        W 8147   1.312   4.334   3.122  0.1032  0.1221  0.1107
 3948W        W 8148   0.076   6.473   0.584  0.2511 -0.3317 -0.0835
 3949W        W 8149  10.442   5.767  10.246  0.0752 -0.2110 -0.0869
 3950W        W 8150  10.210   0.139  13.013  0.0079 -0.1922  0.0291
 3951W        W 8151   0.045   9.534  11.468  0.1304 -0.0602  0.4380
 3952W        W 8152   4.533   2.248  11.630  0.1682  0.0504  0.0335
 3953W        W 8153   8.045   6.888  13.331 -0.0304 -0.1933 -0.0468
 3954W        W 8154   1.737   1.857  11.587  0.2089  0.0145  0.0535
 3955W        W 8155   9.844   2.325   1.641 -0.1708 -0.1964 -0.0877
 3956W        W 8156   1.336  10.381   2.886 -0.3410 -0.1587  0.1365
 3957W        W 8157  10.107   3.247  11.196  0.0947  0.2219  0.0355
 3958W        W 8158   9.787   9.445  12.344  0.4036  0.2859 -0.3593
 3959W        W 8159   3.787   1.878   1.239  0.0878 -0.0733  0.2555
 3960W        W 8160   2.224   8.248   1.618 -0.0574  0.2684  0.0961
 3961W        W 8161   3.206   9.972  10.366  0.1889  0.1004 -0.1459
 3962W        W 8162   3.996   4.572   1.159 -0.0329 -0.1726  0.1163
 3963W        W 8163   8.522   6.774   3.744 -0.1266  0.1304 -0.2040
 3964W        W 8164   5.439   6.500  11.330 -0.0732 -0.1687 -0.0428
 3965W        W 8165   2.068   4.572   3.049  0.0823 -0.1576 -0.0585
 3966W        W 8166   8.302   3.134   3.449 -0.1895 -0.2642 -0.1364
 3967W        W 8167   4.999   9.737  10.677  0.1208  0.2733  0.0342
 3968W        W 8168   7.509   7.858  11.064 -0.2544  0.3999 -0.0951
 3969W        W 8169   7.625   2.600   8.724  0.0718 -0.0067  0.0135
 3970W        W 8170   9.274   5.234   4.338  0.4107  0.0401  0.2537
 3971W        W 8171   6.031   6.654   1.613 -0.1173  0.2048 -0.2224
 3972W        W 8172   2.178   9.658   3.495 -0.0480 -0.1980  0.1584
 3973W        W 8173  10.355   5.868  11.685  0.0199 -0.1896 -0.2404
 3974W        W 8174   5.334   2.145  13.154 -0.3184 -0.0877  0.1023
 3975W        W 8175   7.347   4.512  10.428  0.0762 -0.0184 -0.0199
 3976W        W 8176   6.844   4.778   8.570 -0.1920 -0.1166 -0.1046
 3977W        W 8177   5.668   9.464   4.229 -0.0042 -0.0395 -0.1722
 3978W        W 8178   3.205   4.198   9.690 -0.0726  0.4114 -0.4134
 3979W        W 8179   7.340   2.997  12.730  0.1370 -0.0959 -0.0488
 3980W        W 8180   7.092   6.827  12.920  0.0446 -0.3919  0.0558
 3981W        W 8181   1.161   0.023  12.358  0.4120  0.2636 -0.1113
 3982W        W 8182   5.133   6.997   5.434 -0.1461  0.0199 -0.1671
 3983W        W 8183   5.106   3.786  12.693 -0.1041  0.1062 -0.3905
 3984W        W 8184   6.310   1.600   4.395  0.1090 -0.3235 -0.0232
 3985W        W 8185   0.667   0.274  12.887 -0.1235  0.1740 -0.0541
 3986W        W 8186   7.351   3.551   9.178  0.2525 -0.0899 -0.4993
 3987W        W 8187   3.791   7.883   1.809  0.1734  0.0026  0.2123
 3988W        W 8188   4.430   5.353   2.606  0.2090 -0.2155  0.2383
 3989W        W 8189   4.974   8.633  11.659  0.4318  0.3640  0.1395
 3990W        W 8190   5.518   0.361   1.459 -0.0973 -0.2205 -0.1251
 3991W        W 8191   9.440   7.729  10.159  0.1743  0.1280 -0.0645
 3992W        W 8192   7.660   4.010   0.219 -0.1576  0.3555 -0.1883
 3993W        W 8193  10.442   2.330  12.889 -0.0645 -0.2654 -0.0419
 3994W        W 8194   5.886   5.781   1.149  0.1055  0.3640 -0.1920
 3995W        W 8195   9.125   6.457   2.105  0.0321  0.0724 -0.3395
 3996W        W 8196   2.175   2.902   8.808  0.1775  0.2353  0.0171
 3997W        W 8197   3.447   2.194   2.707  0.1170 -0.0182  0.2362
 3998W        W 8198   3.232   0.630  11.542  0.1329  0.1265  0.0607
 3999W        W 8199   6.154   0.374  12.857  0.0105  0.2613  0.0738
 4000W        W 8200   4.457   2.703  11.872  0.0129  0.0995  0.3908
 4001W        W 8201   6.048   3.176  12.473  0.0957  0.2756 -0.0635
 4002W        W 8202   7.105   2.864   0.951  0.2312  0.2445  0.1637
 4003W        W 8203   5.620   3.176  11.741 -0.0243  0.0601  0.2227
 4004W        W 8204   8.583   5.434   1.654 -0.0551  0.4901  0.3482
 4005W        W 8205   9.408   2.059   1.912  0.0685 -0.0617 -0.2068
 4006W        W 8206   2.554   3.851   8.893  0.1727 -0.0246  0.0875
 4007W        W 8207   1.186   0.721   3.448 -0.1942  0.1823  0.0827
 4008W        W 8208   7.432   0.845  12.600 -0.1006  0.1612 -0.1221
 4009W        W 8209   5.632   8.327   2.382 -0.0355 -0.0567 -0.1073
 4010W        W 8210   2.798   5.706  12.549 -0.0378 -0.1582  0.1808
 4011W        W 8211  10.378   2.623  13.269  0.1140 -0.0992 -0.3243
 4012W        W 8212   8.810   4.757   0.048 -0.6343  0.0618 -0.1664
 4013W        W 8213   6.652   2.076   1.425  0.1745  0.0544 -0.0494
 4014W        W 8214   6.438   6.998   9.489 -0.4541 -0.3106 -0.1839
 4015W        W 8215   1.041   3.132   2.683 -0.3807 -0.3546  0.1667
 4016W        W 8216   4.078   8.327  11.443  0.1199 -0.2337  0.1338
 4017W        W 8217   2.919   3.690  11.345 -0.1007  0.1423 -0.1509
 4018W        W 8218   5.324   3.582   9.189 -0.1461  0.2156 -0.3038
 4019W        W 8219   6.549   3.029   3.273 -0.1997 -0.0241 -0.0213
 4020W        W 8220   0.600   5.658   9.861 -0.0445  0.1138 -0.1947
 4021W        W 8221  10.432   4.669   0.734  0.0777  0.1836  0.2502
 4022W        W 8222   2.200   5.899   1.180  0.0798  0.0599  0.0563
 4023W        W 8223   7.045   8.333  10.859 -0.1036 -0.1170 -0.1775
 4024W        W 8224   4.032   2.421   3.565 -0.0380 -0.2699  0.4991
 4025W        W 8225   1.499   6.583   4.013 -0.0342 -0.1433 -0.1189
 4026W        W 8226   0.302   6.561   3.560  0.1199  0.3556 -0.1652
 4027W        W 8227   4.661   8.037   9.786  0.2522  0.2309 -0.0897
 4028W        W 8228   2.020   9.087  10.753  0.0825  0.3306 -0.2896
 4029W        W 8229   2.379   6.649   9.809  0.0271  0.0205  0.1246
 4030W        W 8230  10.008   3.702   9.067 -0.0333 -0.4980 -0.1055
 4031W        W 8231   2.418   8.281   3.526 -0.2476  0.1147  0.0220
 4032W        W 8232   0.932   4.232   9.548 -0.2388 -0.3794 -0.0362
 4033W        W 8233   4.172  10.049  12.557 -0.5698 -0.0673  0.1606
 4034W        W 8234   1.588   4.927   3.670 -0.2415  0.2956 -0.0387
 4035W        W 8235   0.502   7.353  11.144  0.0627 -0.0583  0.0985
 4036W        W 8236   5.748   0.865   9.519 -0.1136 -0.3816 -0.0058
 4037W        W 8237  10.379   4.287   0.047 -0.1074  0.3027 -0.0609
 4038W        W 8238   8.279   6.565   9.125  0.2417  0.1231 -0.2790
 4039W        W 8239   8.117   0.309   3.196  0.0614 -0.1073 -0.0672
 4040W        W 8240   2.357   9.409   3.087 -0.0743 -0.3601 -0.1797
 4041W        W 8241   1.818   2.471   4.191 -0.0197  0.2730  0.2698
 4042W        W 8242   3.024   2.606  12.205 -0.1845  0.0394 -0.0709
 4043W        W 8243   1.159   4.637   9.149  0.4867 -0.0965  0.2549
 4044W        W 8244   4.541   7.169   8.722 -0.0324  0.1698  0.0235
 4045W        W 8245   6.735   8.053   3.283  0.2457  0.1050  0.1832
 4046W        W 8246   4.730   5.682  11.630 -0.2857  0.0069 -0.1001
 4047W        W 8247   3.622   5.127   9.727 -0.0000 -0.2210 -0.0219
 4048W        W 8248   1.719   1.236   1.381 -0.0652 -0.0236  0.1217
 4049W        W 8249   6.346   7.789   4.150  0.0522  0.0385 -0.0798
 4050W        W 8250   2.071   8.962   3.738  0.0791 -0.0727 -0.1693
 4051W        W 8251   7.171  10.190   2.468 -0.3326  0.1176  0.0371
 4052W        W 8252   8.539   1.656   3.806 -0.0239 -0.2525  0.0139
 4053W        W 8253   7.042   2.891   3.129  0.0633 -0.1251  0.2717
 4054W        W 8254   4.819   5.952   9.511 -0.2742 -0.0625 -0.0490
 4055W        W 8255   3.718   9.174   2.109  0.3170  0.0654 -0.1009
 4056W        W 8256   7.235   4.615  12.597  0.0505 -0.2896  0.0278
 4057W        W 8257   5.468   3.781   9.696 -0.3119  0.2897  0.0742
 4058W        W 8258   4.750   4.577   0.884  0.1110  0.1469  0.2442
 4059W        W 8259   0.544   1.728  12.473 -0.1628 -0.1650 -0.0447
 4060W        W 8260   1.900  10.135   2.182  0.1880  0.1393  0.0044
 4061W        W 8261   2.963   7.462  13.129  0.2861 -0.2230  0.2051
 4062W        W 8262   7.123   4.643  11.978  0.1468  0.0752 -0.1053
 4063W        W 8263   4.797   3.149  11.280  0.1712  0.0466  0.1061
 4064W        W 8264   3.603   0.994   4.245  0.0655  0.2959 -0.0319
 4065W        W 8265   5.615   0.853  10.589 -0.0410 -0.1159  0.0958
 4066W        W 8266   5.109   5.652   1.729 -0.0014 -0.1229  0.1906
 4067W        W 8267   1.259  10.435  10.852  0.1118  0.0257  0.3124
 4068W        W 8268   0.994   9.872   2.040  0.2467  0.1646 -0.2336
 4069W        W 8269   1.767   7.704  13.417 -0.1464 -0.0776 -0.2327
 4070W        W 8270   1.096   5.817   9.709  0.2768 -0.0374 -0.0515
 4071W        W 8271   0.419   8.739   9.650 -0.2952 -0.0838 -0.1228
 4072W        W 8272   7.498  10.398  13.180 -0.1401  0.0133 -0.0195
 4073W        W 8273   6.644   6.522   2.538 -0.2058 -0.0875 -0.1011
 4074W        W 8274   9.746   5.637   0.101 -0.0155 -0.1308  0.0582
 4075W        W 8275   4.313   5.321   0.741  0.0931 -0.3315 -0.0887
 4076W        W 8276   1.495   0.096  12.016  0.1242  0.0189  0.3422
 4077W        W 8277   3.397   5.035   3.541 -0.2901 -0.2098 -0.1602
 4078W        W 8278   4.092   0.860   4.630  0.0676 -0.2093  0.1297
 4079W        W 8279   9.671   3.196  12.566  0.2124  0.0525 -0.1275
 4080W        W 8280   8.023   6.971  12.809 -0.0781 -0.0436  0.1281
 4081W        W 8281   3.143   3.864  13.205  0.2140 -0.0779 -0.0431
 4082W        W 8282   0.843   7.583  12.094  0.1081  0.2456 -0.1799
 4083W        W 8283   5.797   5.749  12.523  0.3242  0.2640  0.0992
 4084W        W 8284   3.264   4.222   0.036 -0.1044 -0.0919 -0.3395
 4085W        W 8285   9.914   6.742   2.408 -0.0646 -0.0285  0.1400
 4086W        W 8286   9.866   1.369   8.938 -0.0721  0.0228 -0.1308
 4087W        W 8287   1.905  10.155   0.936 -0.1567  0.1980  0.0243
 4088W        W 8288   2.306   4.165  10.808 -0.2190  0.0064 -0.0611
 4089W        W 8289   7.570   7.913  13.374  0.0537  0.0697 -0.0490
 4090W        W 8290   7.187   5.403   1.639  0.2118  0.2218  0.0158
 4091W        W 8291  10.245   8.720  12.594  0.2145 -0.2126 -0.1913
 4092W        W 8292   0.828   1.320   2.381  0.1778 -0.0893  0.4837
 4093W        W 8293   9.152   3.836   4.552  0.1227 -0.0531 -0.1011
 4094W        W 8294   2.720   5.325   0.893 -0.0384  0.0884 -0.0871
 4095W        W 8295   7.762   6.317  11.608 -0.0782  0.0901  0.1050
 4096W        W 8296   1.506   3.713   1.101 -0.3256  0.0311 -0.0568
 4097W        W 8297   7.231   1.541  13.062  0.0609 -0.0072  0.0681
 4098W        W 8298   7.094   4.554  13.100  0.3435  0.2742 -0.0997
 4099W        W 8299   0.337   6.068   9.850 -0.2743 -0.0637 -0.2651
 4100W        W 8300   7.078   9.832  12.733  0.0873 -0.2250  0.0670
 4101W        W 8301   4.091   6.567   9.162  0.5273  0.0929 -0.0872
 4102W        W 8302   8.728   0.794   0.814  0.0402 -0.0985 -0.0310
 4103W        W 8303   1.824   8.868   2.032  0.0427 -0.1956  0.1125
 4104W        W 8304   1.639   6.677  10.220 -0.2018 -0.5339  0.0096
 4105W        W 8305   8.270   4.622  11.765  0.0139 -0.4329 -0.0753
 4106W        W 8306   2.262   1.398  12.430 -0.1675 -0.0662  0.0530
 4107W        W 8307   2.687   3.389  11.787  0.2447  0.0304  0.1449
 4108W        W 8308   1.651   5.195  12.447 -0.0215 -0.0892  0.0504
 4109W        W 8309   6.344   7.481   1.635  0.2304 -0.4436 -0.2611
 4110W        W 8310   8.618   3.360   0.982 -0.4272  0.0794  0.0148
 4111W        W 8311  10.010  10.259  11.052 -0.0487  0.0271 -0.0869
 4112W        W 8312   8.554   4.843  12.680 -0.2101  0.0378  0.1236
 4113W        W 8313   0.806   3.102  12.182 -0.1765  0.2628 -0.2937
 4114W        W 8314   6.483   9.356   1.312 -0.2137 -0.0234  0.0119
 4115W        W 8315   3.101   1.718   3.206 -0.0990 -0.0313  0.4167
 4116W        W 8316   0.898   9.656   3.981  0.1821  0.0638 -0.0225
 4117W        W 8317   4.090   7.484   8.628 -0.2030 -0.0284  0.0716
 4118W        W 8318   5.642   5.772   3.020  0.2492 -0.1420  0.1612
 4119W        W 8319   6.336   6.224   9.952  0.1789 -0.2481  0.0405
 4120W        W 8320   5.464   8.792  11.588 -0.2604 -0.1909 -0.0610
 4121W        W 8321   7.246   8.586  11.664  0.1600  0.1940  0.3605
 4122W        W 8322   5.011   9.604   4.278 -0.3429  0.1706 -0.0551
 4123W        W 8323   3.429   8.031  10.201  0.0583 -0.0131  0.1174
 4124W        W 8324   9.912   0.734   3.562  0.0042  0.0173  0.0176
 4125W        W 8325   0.772   0.329   1.084 -0.3983  0.2644  0.0276
 4126W        W 8326   5.942   9.013   3.936 -0.0528 -0.1990 -0.0382
 4127W        W 8327   8.374   5.976  11.415 -0.0253  0.0342  0.0931
 4128W        W 8328   2.919   0.865   1.850  0.0541 -0.1109 -0.0647
 4129W        W 8329   9.381   8.217   0.740 -0.2322  0.0248  0.1353
 4130W        W 8330   4.622  10.452   8.528 -0.3481  0.1317  0.1166
 4131W        W 8331   8.088   7.141   0.864  0.2698 -0.2898  0.2475
 4132W        W 8332  10.355  10.477  10.555  0.0078  0.0499  0.1009
 4133W        W 8333   3.213   2.495   9.173 -0.0446  0.2046 -0.0258
 4134W        W 8334   4.562   2.133   9.940  0.0891 -0.2852 -0.0591
 4135W        W 8335  10.427   5.955  12.616 -0.2039  0.1863 -0.0451
 4136W        W 8336   8.777   7.632   7.663  0.0309 -0.0973  0.3988
 4137W        W 8337   0.090   7.819  12.554 -0.3522  0.1488  0.1204
 4138W        W 8338   8.651   1.982  13.048 -0.2008  0.2651  0.2067
 4139W        W 8339   0.440   4.000   9.732  0.2124 -0.2252 -0.2891
 4140W        W 8340   9.234   7.140   3.284  0.2648  0.1828 -0.0072
 4141W        W 8341   2.869   2.949  12.520  0.0869  0.1760 -0.0716
 4142W        W 8342   2.108   2.163   1.936  0.1064 -0.0845 -0.2677
 4143W        W 8343   7.168   7.542   1.069  0.0599 -0.1741 -0.0763
 4144W        W 8344   8.197  10.084  11.803  0.3172 -0.0079 -0.0519
 4145W        W 8345  10.357   9.725  13.425  0.0918 -0.0561 -0.2583
 4146W        W 8346   6.579   1.011   0.778  0.0897 -0.2799  0.1690
 4147W        W 8347   7.289   1.840   0.706  0.0428 -0.3235  0.1456
 4148W        W 8348   7.229   2.438   1.271 -0.0976  0.0503 -0.0535
 4149W        W 8349   7.053   0.957   0.961  0.0517  0.0528 -0.1622
 4150W        W 8350   4.444   0.867   0.920 -0.2864 -0.0389 -0.0150
 4151W        W 8351   7.346   3.817   9.800  0.1034  0.1822 -0.0680
 4152W        W 8352   0.195   1.615   9.489 -0.1315  0.0635 -0.0392
 4153W        W 8353   0.591   9.283   3.680  0.0776 -0.0940  0.1528
 4154W        W 8354   6.468   6.584   1.218 -0.2287  0.2448 -0.1016
 4155W        W 8355   8.915   8.665  11.464  0.0681 -0.1553  0.0785
 4156W        W 8356   8.230   1.143  11.188 -0.0941 -0.1754 -0.2936
 4157W        W 8357   8.211   4.406   3.014  0.0866  0.3354  0.0365
 4158W        W 8358   5.724   8.611  11.164  0.1658 -0.0455 -0.0484
 4159W        W 8359   6.574   2.930  10.027  0.1672 -0.0088  0.0426
 4160W        W 8360   9.936   1.190   2.834 -0.1242  0.0921  0.1368
 4161W        W 8361   5.190   4.665   1.663 -0.0353  0.2767 -0.5212
 4162W        W 8362   3.496   9.497  11.697 -0.0186  0.0034 -0.2741
 4163W        W 8363   4.617   4.602   9.940 -0.0450  0.0440 -0.0679
 4164W        W 8364   8.510   3.297  11.627 -0.0842 -0.1996 -0.1868
 4165W        W 8365   2.034   2.852   0.309  0.1011  0.2357  0.3204
 4166W        W 8366   1.893   5.110  12.003  0.3248  0.4369  0.3994
 4167W        W 8367   4.264   6.831   1.257  0.3765  0.0652 -0.1227
 4168W        W 8368   3.592   3.722  10.667  0.1027 -0.2208  0.0871
 4169W        W 8369   9.762   2.459   0.530  0.1769 -0.1411 -0.1838
 4170W        W 8370   2.681   3.536   1.290  0.0420  0.0521  0.2755
 4171W        W 8371   6.884   3.391   8.534  0.2266 -0.0876  0.2409
 4172W        W 8372   5.649   9.112  11.196 -0.3034 -0.1195  0.0598
 4173W        W 8373   4.624   1.241  12.362  0.0861 -0.1612  0.0245
 4174W        W 8374   9.370   8.320   0.151  0.1506 -0.0590  0.2180
 4175W        W 8375   5.492   5.016  10.328  0.2746 -0.2207  0.0389
 4176W        W 8376   4.525   2.967  10.117  0.5070 -0.4497 -0.3284
 4177W        W 8377   9.566   2.054  13.222 -0.1531  0.2826 -0.1178
 4178W        W 8378   3.421  10.313   1.611  0.1966 -0.0152 -0.1525
 4179W        W 8379   9.627   4.269   0.385  0.0427 -0.1373 -0.2442
 4180W        W 8380   0.158   8.590   1.262 -0.0914 -0.1135  0.3331
 4181W        W 8381   0.314   3.944   2.541  0.0317  0.0751 -0.1067
 4182W        W 8382   8.267   2.232  13.401 -0.0400 -0.1247 -0.2098
 4183W        W 8383   5.912   4.642   3.737 -0.0799 -0.1966  0.1409
 4184W        W 8384   3.505   5.663   9.620 -0.2629  0.1989 -0.0357
 4185W        W 8385   6.095   0.024  10.466  0.4196  0.1183 -0.3190
 4186W        W 8386   0.798   9.253   1.910 -0.1336  0.1866 -0.2650
 4187W        W 8387   3.881   5.300   9.318  0.0363 -0.2292 -0.1963
 4188W        W 8388   4.412   6.464  12.744  0.0278 -0.4574  0.1719
 4189W        W 8389  10.080  10.040  10.629 -0.1696 -0.0948 -0.0160
 4190W        W 8390   6.369   4.451   4.728 -0.1144 -0.0879  0.1140
 4191W        W 8391   9.238   9.126  12.219  0.2658  0.1136  0.0161
 4192W        W 8392  10.422   5.800  13.101 -0.0187  0.0151 -0.0624
 4193W        W 8393   6.740   2.596  10.819  0.2033  0.0802 -0.0221
 4194W        W 8394   0.129   0.062   0.093  0.0566 -0.0003 -0.0112
 4195W        W 8395   7.084   1.387   2.913  0.1531 -0.1893  0.2257
 4196W        W 8396   3.522   0.703  10.200 -0.0125 -0.0168  0.0570
 4197W        W 8397   8.275   4.672   1.638  0.1153 -0.1137  0.3384
 4198W        W 8398   6.288   0.925   9.437  0.1741  0.0404  0.1279
 4199W        W 8399   8.796   0.861  11.644  0.0718 -0.0584 -0.2798
 4200W        W 8400   1.147   3.650   4.644 -0.0110  0.2140 -0.1910
 4201W        W 8401   7.123   0.755   0.054  0.1047 -0.1463  0.2999
 4202W        W 8402   5.308   5.730   8.089 -0.0623 -0.0280  0.1700
 4203W        W 8403   3.753   8.636   1.836 -0.0243  0.1578 -0.0499
 4204W        W 8404   2.359   1.243   3.033 -0.2028 -0.0953 -0.1070
 4205W        W 8405   5.338   6.363   2.226  0.0026 -0.0895 -0.0552
 4206W        W 8406   1.695   2.056   4.514  0.1122 -0.1582  0.3023
 4207W        W 8407   8.087   9.721  10.017 -0.0622 -0.2522  0.0195
 4208W        W 8408   1.746   4.196   9.913 -0.2568  0.0081  0.2103
 4209W        W 8409   8.519   0.017   1.285 -0.0663  0.0145  0.0355
 4210W        W 8410   9.694   5.094   2.982 -0.0306 -0.1441  0.1701
 4211W        W 8411   4.725   0.805  12.059 -0.2727 -0.3896  0.0166
 4212W        W 8412   3.747   5.349   2.847  0.1171 -0.0085  0.1406
 4213W        W 8413   2.266   6.449   0.954  0.0390 -0.1213  0.1089
 4214W        W 8414   4.800   4.603  10.867  0.0759 -0.1512 -0.2291
 4215W        W 8415   2.696   2.750   1.651 -0.1691 -0.0082  0.1696
 4216W        W 8416   9.405   3.827   9.864  0.0480 -0.0611  0.0365
 4217W        W 8417   5.634   1.151   1.479  0.0942  0.0610  0.0183
 4218W        W 8418   4.150   8.038  12.061 -0.0829 -0.1280  0.1749
 4219W        W 8419   6.380   0.673   1.059  0.0192 -0.0945 -0.1611
 4220W        W 8420   5.400  10.035   1.452  0.0217  0.0861  0.1788
 4221W        W 8421   4.223   6.896  10.648  0.2071  0.1247  0.1776
 4222W        W 8422   0.756   5.187   2.130 -0.1267  0.0576 -0.1104
 4223W        W 8423  10.372   1.335   1.542  0.5400  0.4791 -0.2860
 4224W        W 8424   5.624   4.013   3.397  0.1714 -0.1013 -0.2935
 4225W        W 8425   4.374   3.344   0.397 -0.0021  0.0230  0.0331
 4226W        W 8426   0.590   6.300  11.216 -0.1290 -0.0710  0.1091
 4227W        W 8427   9.700   5.513   2.150 -0.0041 -0.0242 -0.0071
 4228W        W 8428   1.720   0.701   3.374 -0.2411 -0.2096  0.0616
 4229W        W 8429   0.098   4.593   9.475 -0.0712 -0.0841  0.0065
 4230W        W 8430   0.859   0.206   2.994 -0.0675 -0.1135 -0.0679
 4231W        W 8431   4.609   6.190   0.126  0.1631  0.4426  0.3007
 4232W        W 8432   4.336   5.707   1.890 -0.1317 -0.0582  0.4831
 4233W        W 8433   4.246   4.035  13.201  0.0067 -0.0800 -0.0824
 4234W        W 8434   5.326   1.237   9.252  0.1136  0.0148 -0.1591
 4235W        W 8435   4.029   8.362   2.261  0.0686  0.1394  0.1294
 4236W        W 8436   1.691   9.347   2.170 -0.1281 -0.0516  0.4464
 4237W        W 8437   9.958   3.993   9.456 -0.2122  0.0230 -0.1723
 4238W        W 8438   3.867   5.991  12.788  0.3575  0.0782 -0.1299
 4239W        W 8439   0.604   2.657  10.340  0.2124 -0.1530  0.4414
 4240W        W 8440   2.559   3.840   3.546  0.2543 -0.0741 -0.2907
 4241W        W 8441   1.008   9.949  12.658 -0.0687  0.0325 -0.0817
 4242W        W 8442   0.285   5.850   4.599  0.0378 -0.0357 -0.1710
 4243W        W 8443   9.915  10.193   9.793 -0.1493  0.0205 -0.1773
 4244W        W 8444   9.625   2.801   9.369  0.1332 -0.2729 -0.1863
 4245W        W 8445  10.070   3.519  11.716 -0.2424 -0.3253 -0.1062
 4246W        W 8446   1.829   8.682  11.713  0.2948 -0.1233 -0.1917
 4247W        W 8447   8.180   7.154   2.002  0.1771  0.0378 -0.1309
 4248W        W 8448   3.546  10.060   3.331  0.1810  0.1984 -0.0922
 4249W        W 8449   4.053   3.970  11.658 -0.1051 -0.2436 -0.2411
 4250W        W 8450   2.596   9.255   2.044  0.1061 -0.5351 -0.0231
 4251W        W 8451   0.299   6.015  13.384 -0.1157 -0.3698 -0.0510
 4252W        W 8452   5.148   0.986   2.334 -0.1680 -0.2889  0.0576
 4253W        W 8453   2.752   1.742   8.779 -0.2356 -0.0437  0.5370
 4254W        W 8454   3.946   0.988   1.236 -0.2250  0.0810 -0.1212
 4255W        W 8455   8.723   4.182  10.172  0.0560  0.0876  0.0206
 4256W        W 8456   1.618   6.670  12.534 -0.0100  0.0366 -0.1682
 4257W        W 8457   3.339   2.967   8.418  0.0524 -0.1802  0.0624
 4258W        W 8458   1.286   8.146   3.662 -0.0884 -0.2374  0.4691
 4259W        W 8459   1.179   4.316   2.599 -0.0209 -0.0179 -0.1700
 4260W        W 8460   4.269   7.378  13.060 -0.0573 -0.1020  0.2441
 4261W        W 8461   3.038   5.338  11.696  0.2092  0.3321 -0.0223
 4262W        W 8462   8.538   9.706  13.395  0.0264  0.2273 -0.1039
 4263W        W 8463   0.590   7.831   9.707 -0.1522 -0.0808  0.0448
 4264W        W 8464   0.564   3.905   1.910 -0.2491  0.0505 -0.1913
 4265W        W 8465   3.563   3.253  10.687  0.1549  0.3162 -0.0892
 4266W        W 8466   8.717   5.470  11.979 -0.1750  0.0303  0.0789
 4267W        W 8467   0.049   4.186  11.360  0.0186 -0.3399  0.0867
 4268W        W 8468   8.945   4.554  11.793 -0.2146  0.1909 -0.1545
 4269W        W 8469   1.414   6.924   3.457 -0.1034  0.3909  0.0747
 4270W        W 8470   7.355   6.322  12.156  0.2014  0.0627  0.0367
 4271W        W 8471   7.652   5.795   3.473 -0.2531  0.0255  0.2292
 4272W        W 8472   1.954   5.963  10.711 -0.1384 -0.0748  0.2284
 4273W        W 8473   2.680   7.058   9.525  0.1045 -0.0304 -0.2539
 4274W        W 8474   0.599   6.350   3.898  0.2009 -0.0546 -0.0099
 4275W        W 8475  10.266   0.542  12.741 -0.1383  0.2690  0.0830
 4276W        W 8476   8.489   6.779  10.918 -0.1458 -0.1265  0.0767
 4277W        W 8477   4.483   2.906   2.842 -0.0633  0.0847 -0.1104
 4278W        W 8478   4.889   5.707   0.320 -0.0075  0.1086 -0.1075
 4279W        W 8479  10.411   5.077   9.431  0.0312 -0.2209  0.2361
 4280W        W 8480   7.402  10.176  10.337 -0.2910  0.1047 -0.1429
 4281W        W 8481   8.242   9.328  11.298 -0.2966  0.1551 -0.1267
 4282W        W 8482   5.100  10.241  10.700 -0.1489 -0.0678  0.2029
 4283W        W 8483   9.789   2.986   2.102  0.1475  0.0510  0.1592
 4284W        W 8484   3.888   2.266  10.296  0.0736  0.1653 -0.4795
 4285W        W 8485   1.950  10.481  13.079 -0.3150 -0.3611 -0.0412
 4286W        W 8486   0.705   5.039  13.325 -0.1473 -0.0570 -0.1302
 4287W        W 8487   5.394   7.528   9.536 -0.2898  0.1184  0.2508
 4288W        W 8488   1.429   6.587  11.971 -0.1189 -0.1313  0.2681
 4289W        W 8489   6.772   5.782  10.097 -0.0086 -0.1115  0.1214
 4290W        W 8490   7.981   5.889  12.563  0.2986 -0.0348 -0.0084
 4291W        W 8491   5.750   0.410  10.754  0.0204  0.0497  0.3671
 4292W        W 8492   3.855   2.615  12.675  0.0617 -0.0407  0.1995
 4293W        W 8493   6.069   3.614   0.148 -0.0333 -0.1066 -0.2918
 4294W        W 8494   8.763   9.178   3.532  0.2095 -0.1842  0.3018
 4295W        W 8495   1.341   9.358  12.209  0.1058  0.1621 -0.3858
 4296W        W 8496   2.780   4.642  11.459  0.2004 -0.0837 -0.0054
 4297W        W 8497   1.596   9.039  10.948  0.0417  0.4107 -0.2310
 4298W        W 8498   5.167   6.473   3.557  0.2220 -0.5508  0.0008
 4299W        W 8499   7.144   6.215   2.676 -0.1047 -0.0712  0.0945
 4300W        W 8500   9.958   5.899   9.412  0.2006 -0.1588 -0.3617
 4301W        W 8501   0.346   9.210  11.816 -0.0650 -0.0703  0.1031
 4302W        W 8502   9.934   5.209  10.819  0.2096 -0.0272 -0.0495
 4303W        W 8503   5.216   5.351   0.659  0.1774 -0.1348 -0.1179
 4304W        W 8504   0.744   5.375  12.843 -0.0801  0.0448  0.1449
 4305W        W 8505   7.588   6.212   4.688  0.2222 -0.4451 -0.0325
 4306W        W 8506  10.443   2.825   2.408 -0.0293  0.0157  0.0286
 4307W        W 8507   4.357  10.477  10.209  0.1118 -0.3416  0.1703
 4308W        W 8508   5.807   9.553  10.677  0.0316  0.1537  0.0055
 4309W        W 8509   1.343   7.812   1.535 -0.5081 -0.1928 -0.2983
 4310W        W 8510   8.394   4.610  13.113 -0.0843 -0.1487  0.4329
 4311W        W 8511   1.273   7.762   0.237 -0.0383  0.2463  0.0774
 4312W        W 8512   5.902   1.522   0.928 -0.0430 -0.1561  0.0368
 4313W        W 8513   4.842   3.903   0.083 -0.0609  0.1467  0.2841
 4314W        W 8514   4.081   4.632   4.315 -0.2313 -0.2010 -0.0252
 4315W        W 8515   2.363   5.091   4.834 -0.2041  0.1222  0.2157
 4316W        W 8516   6.681  10.142   1.331 -0.2646  0.0606 -0.4180
 4317W        W 8517   6.386   7.873  10.512  0.0562  0.1369  0.0282
 4318W        W 8518   2.891   1.506   9.177 -0.4244 -0.0324 -0.2323
 4319W        W 8519   4.886   1.517   2.897  0.2047 -0.1754 -0.0252
 4320W        W 8520   6.493   7.840  12.527  0.1631 -0.0533 -0.1247
 4321W        W 8521   0.606   1.529   1.947 -0.2477 -0.0140 -0.0292
 4322W        W 8522   1.592   5.384   4.369 -0.0627 -0.0690  0.2350
 4323W        W 8523   0.801   4.664   0.328  0.0161 -0.0735 -0.0020
 4324W        W 8524   7.677   9.741   1.374 -0.1117 -0.0705 -0.0738
 4325W        W 8525   9.832   0.241   4.010 -0.0635  0.0162 -0.0818
 4326W        W 8526   2.039   0.888   2.978  0.1493  0.1118  0.0054
 4327W        W 8527   0.390   7.377   7.627 -0.0762 -0.0665 -0.1870
 4328W        W 8528   7.514  10.039  11.335  0.1978 -0.0079  0.1246
 4329W        W 8529   9.982   5.841   1.341 -0.3540 -0.3947  0.1519
 4330W        W 8530   1.033   8.083  10.662 -0.1455  0.2544 -0.0098
 4331W        W 8531   5.370   3.721   3.670  0.3809 -0.0613  0.6442
 4332W        W 8532   4.102   9.539   1.332  0.0348 -0.1151 -0.2594
 4333W        W 8533   8.871   8.695   3.190 -0.2869 -0.1603 -0.4230
 4334W        W 8534   7.905   3.298   3.234 -0.2820  0.2368 -0.0770
 4335W        W 8535   5.204   7.218   2.052 -0.1153  0.1473  0.1822
 4336W        W 8536   8.863   2.417   2.701  0.3125  0.1836 -0.2632
 4337W        W 8537   2.098   6.090   3.787  0.0858  0.3006  0.1563
 4338W        W 8538   3.535   8.265   0.433  0.1184  0.0425  0.4033
 4339W        W 8539   7.500   3.931  12.545  0.2071 -0.0144  0.0515
 4340W        W 8540   3.021   6.227   9.880 -0.0312  0.3624  0.0270
 4341W        W 8541  10.235   7.836   0.194 -0.0924  0.2395  0.1768
 4342W        W 8542   6.860   1.284  10.310 -0.1402  0.3706 -0.1274
 4343W        W 8543   5.718  10.471   3.039 -0.1511 -0.6016 -0.4135
 4344W        W 8544   7.077   7.341   3.096  0.1137  0.1792  0.1099
 4345W        W 8545   6.728   4.088  10.885 -0.1126  0.0269  0.0270
 4346W        W 8546   4.237   4.517   9.547  0.1239 -0.1365  0.1215
 4347W        W 8547   1.391   1.004   1.684 -0.2401 -0.1262 -0.1196
 4348W        W 8548   3.809   6.431   2.475 -0.2727 -0.0042  0.0829
 4349W        W 8549   7.610   8.953  10.908 -0.1279 -0.0485 -0.1892
 4350W        W 8550   6.548   9.725   4.796 -0.0927 -0.1494  0.0408
 4351W        W 8551   7.399   0.436  13.175  0.1642 -0.2015 -0.1728
 4352W        W 8552   1.286   5.103   4.082 -0.0856 -0.1095 -0.3465
 4353W        W 8553   9.946   1.564   4.107 -0.2212 -0.3511 -0.2401
 4354W        W 8554   9.326   3.195  11.102  0.1742  0.1512 -0.2593
 4355W        W 8555   0.047   8.634   1.733  0.0708  0.1240  0.2215
 4356W        W 8556   9.852   5.344   1.344  0.0460 -0.2382 -0.0402
 4357W        W 8557   3.937   8.056   1.312 -0.0589 -0.5383  0.2055
 4358W        W 8558   2.219  10.005  12.337  0.3077  0.2529  0.1135
 4359W        W 8559  10.274   9.144  11.206  0.1031  0.1859 -0.0962
 4360W        W 8560   3.824   3.607   3.544 -0.4514  0.0812  0.1209
 4361W        W 8561   5.337   7.888  11.289 -0.2489  0.0761 -0.3498
 4362W        W 8562   6.731   7.727   2.042  0.2762 -0.2367 -0.1055
 4363W        W 8563   6.899   9.371   0.137 -0.0100 -0.2447  0.0222
 4364W        W 8564   9.186   3.316   0.087 -0.0827 -0.1214  0.1154
 4365W        W 8565   2.241   4.615   4.012 -0.0649  0.0924  0.2559
 4366W        W 8566   7.116   2.847  11.772 -0.1274 -0.1958 -0.1393
 4367W        W 8567   7.871   1.036   3.463 -0.0472  0.2523  0.0688
 4368W        W 8568   3.577   0.540   4.606  0.1512 -0.2178  0.0719
 4369W        W 8569   6.364   3.260   5.403  0.3422 -0.1627  0.0720
 4370W        W 8570   5.356   2.713   3.737 -0.0724  0.1008  0.2538
 4371W        W 8571   0.597   8.731  11.165  0.0859 -0.0127 -0.2530
 4372W        W 8572   5.482   6.498   4.325 -0.0220  0.0995  0.0748
 4373W        W 8573   1.184   1.853   3.073 -0.0665 -0.0658 -0.1012
 4374W        W 8574   1.463   1.602   9.546  0.2068 -0.0318 -0.0141
 4375W        W 8575   1.811  10.000  12.637 -0.0694  0.0181  0.0863
 4376W        W 8576   2.904   3.511   9.049  0.1374  0.0455 -0.1932
 4377W        W 8577   1.209   3.622  11.805 -0.0794 -0.0609 -0.0530
 4378W        W 8578   9.583   6.184   2.234 -0.2428 -0.0025 -0.0853
 4379W        W 8579   7.706   1.579   2.021 -0.0416  0.0607  0.0992
 4380W        W 8580  10.142   2.174  11.169  0.1103 -0.1492 -0.0658
 4381W        W 8581   9.478   6.875  12.447  0.3615 -0.1529 -0.3512
 4382W        W 8582   3.448   5.063   2.028 -0.1212 -0.1722 -0.0793
 4383W        W 8583   8.891   8.447  11.931  0.0476  0.1077 -0.1120
 4384W        W 8584   8.077   7.804  10.787  0.2219  0.0855 -0.2192
 4385W        W 8585   4.187   7.456  12.552 -0.0636 -0.0405  0.4193
 4386W        W 8586   8.100   2.872   3.009  0.4512 -0.1044 -0.0474
 4387W        W 8587   5.665   8.135  11.994 -0.2173  0.3713 -0.0403
 4388W        W 8588   1.178  10.130   9.477 -0.1689  0.2550  0.1731
 4389W        W 8589   8.016  10.412  13.364 -0.0448 -0.0465 -0.0540
 4390W        W 8590   9.912   3.294   0.840  0.1038 -0.3142 -0.3442
 4391W        W 8591   7.694   3.753   9.460 -0.0456 -0.0255  0.2149
 4392W        W 8592  10.227   6.496  13.154 -0.2675 -0.4114  0.1560
 4393W        W 8593   5.978   1.384   9.934 -0.1327 -0.1267 -0.2868
 4394W        W 8594   3.997   4.788  10.518  0.0083  0.0248  0.2071
 4395W        W 8595   2.275   4.291   0.122  0.1234  0.2069  0.0901
 4396W        W 8596   8.004   9.961   2.683  0.0025  0.0992  0.0865
 4397W        W 8597   8.066   5.123   9.884 -0.1284  0.1692  0.4463
 4398W        W 8598   4.905   2.250  12.272  0.1780  0.0831  0.1892
 4399W        W 8599   8.857   5.475   2.635 -0.1972 -0.1125 -0.1694
 4400W        W 8600   1.356   2.924   3.915 -0.1789 -0.0642  0.6814
 4401W        W 8601   5.568   3.220   3.836  0.0055 -0.0273  0.1324
 4402W        W 8602  10.384   0.919  13.078 -0.2559 -0.1029  0.0695
 4403W        W 8603   4.744   7.139   3.886  0.2356 -0.1761  0.3879
 4404W        W 8604   3.717   2.615   0.480  0.0812  0.0392 -0.3443
 4405W        W 8605   9.979   4.930  11.840  0.0823 -0.1294 -0.0920
 4406W        W 8606   4.304   0.373   2.584  0.1229  0.1028 -0.0857
 4407W        W 8607   2.414   4.308   3.342  0.3442  0.0477  0.0229
 4408W        W 8608   3.381   7.751   0.816  0.1934  0.2234 -0.0988
 4409W        W 8609   8.488   8.479   0.488 -0.1820 -0.1988  0.0652
 4410W        W 8610   4.297   5.495   4.692  0.3355 -0.0104  0.1679
 4411W        W 8611   2.696   2.066  12.731 -0.1398 -0.1791 -0.1430
 4412W        W 8612   8.927   4.809   3.039  0.2316 -0.0097  0.1248
 4413W        W 8613   8.552   4.235  11.538 -0.0707  0.1549  0.1872
 4414W        W 8614   2.704   7.755  12.861 -0.0251  0.2037  0.0263
 4415W        W 8615   6.582  10.389   9.779  0.2236 -0.0960 -0.1730
 4416W        W 8616   6.404   7.417   3.835 -0.3634  0.1090 -0.1952
 4417W        W 8617   5.834   4.600   0.929  0.2284 -0.2490 -0.4365
 4418W        W 8618   7.499   8.974   9.781 -0.1051 -0.4218  0.1169
 4419W        W 8619   1.776   7.041  10.639  0.1920  0.0827 -0.0563
 4420W        W 8620   9.046   1.723   4.050  0.1482 -0.2670 -0.1456
 4421W        W 8621   4.243   4.816  11.872 -0.1641 -0.1071  0.4787
 4422W        W 8622   6.252   6.601   5.064  0.1504 -0.3586 -0.0090
 4423W        W 8623   9.537   1.692   9.714  0.1200 -0.2415 -0.0836
 4424W        W 8624   8.422   4.718   0.931  0.1095 -0.0186 -0.0268
 4425W        W 8625   4.186   7.871   2.215  0.1019 -0.2881 -0.2392
 4426W        W 8626   0.485   0.080   9.660  0.1598 -0.2215 -0.2736
 4427W        W 8627   3.384   9.005  11.944 -0.0694  0.0463  0.0673
 4428W        W 8628   8.447   3.503   1.935 -0.3486 -0.0009 -0.1209
 4429W        W 8629   2.592   8.701   3.699  0.1903 -0.0376  0.1947
 4430W        W 8630   8.530  10.009   1.478 -0.0046 -0.0011 -0.1352
 4431W        W 8631   5.293   3.907   0.389  0.1995 -0.0055  0.3051
 4432W        W 8632   3.943   5.273   2.331 -0.1000 -0.1836 -0.0959
 4433W        W 8633   1.946   0.306  12.207 -0.3575  0.2977  0.0426
 4434W        W 8634   9.450   4.908  12.488 -0.0298  0.3419  0.3900
 4435W        W 8635   3.654  10.019   1.987  0.0147 -0.1136 -0.2191
 4436W        W 8636   3.169   6.729   0.014  0.1482 -0.1407 -0.0266
 4437W        W 8637   4.350   9.308   1.782  0.3204  0.1555  0.0377
 4438W        W 8638   7.890   7.644   1.621  0.1835  0.2938 -0.3291
 4439W        W 8639   0.807   2.476   4.652  0.0384  0.1233 -0.1268
 4440W        W 8640   6.866   5.238   3.123 -0.0929 -0.2375  0.1858
 4441W        W 8641   2.660   7.461  12.386 -0.3045  0.1927 -0.2763
 4442W        W 8642   3.241   7.671  10.566 -0.3418  0.0252  0.0488
 4443W        W 8643   1.349   1.361  10.525  0.2025 -0.3085  0.1079
 4444W        W 8644   7.625   3.220   9.565  0.2979 -0.0487 -0.3028
 4445W        W 8645   1.351   2.472  13.242  0.0562  0.1042  0.0223
 4446W        W 8646   5.592  10.475   9.658 -0.2904 -0.2821  0.1184
 4447W        W 8647   8.969   6.921  13.128 -0.0074  0.1745 -0.1211
 4448W        W 8648   7.661   5.669  11.717  0.0995  0.2060 -0.0974
 4449W        W 8649   4.707   1.846  12.437  0.0718 -0.1933  0.0522
 4450W        W 8650   4.554   4.078   0.768  0.0608  0.0834  0.0410
 4451W        W 8651   8.646   1.520   9.238  0.1121 -0.3259  0.0760
 4452W        W 8652   4.652   4.345  13.371  0.1457  0.0645  0.0489
 4453W        W 8653   4.972   7.048   1.513 -0.3485  0.1880  0.1127
 4454W        W 8654   1.407   3.509   4.217 -0.3195 -0.1537 -0.0748
 4455W        W 8655   9.481   1.132   9.922 -0.2404  0.2323 -0.1230
 4456W        W 8656   9.706   1.987  10.661 -0.0972  0.1702 -0.2613
 4457W        W 8657   6.062   9.643   3.366  0.0676  0.1028 -0.3079
 4458W        W 8658   0.542   0.930   2.705 -0.1908  0.0288  0.3244
 4459W        W 8659   4.157   7.561   3.195 -0.0265 -0.0310 -0.1918
 4460W        W 8660   4.743   2.722  10.944 -0.4533 -0.0825 -0.1936
 4461W        W 8661   3.139   0.818   2.324 -0.3675 -0.0069  0.3580
 4462W        W 8662   3.969   4.634   2.847  0.2397 -0.2427 -0.2017
 4463W        W 8663   5.767   4.486   3.280 -0.0819  0.3607  0.0690
 4464W        W 8664   9.058   3.497   3.817 -0.0625  0.0994  0.0234
 4465W        W 8665   0.653   7.320   9.674 -0.0993  0.0385  0.1762
 4466W        W 8666   4.342   7.206  12.014  0.1288  0.0991 -0.1590
 4467W        W 8667   4.886   0.015   3.828 -0.1463  0.0256  0.3566
 4468W        W 8668   8.962   6.776  12.288 -0.1771 -0.5263 -0.1112
 4469W        W 8669   4.462   4.365   1.230  0.0243 -0.1874 -0.1134
 4470W        W 8670   1.555   1.120   0.867  0.1144  0.1027 -0.1462
 4471W        W 8671   6.741   8.546  12.172  0.0557 -0.4353 -0.0629
 4472W        W 8672   6.374   1.467  12.225  0.0687 -0.0871  0.1313
 4473W        W 8673   1.073   8.471  13.084 -0.0632 -0.0014 -0.0982
 4474W        W 8674   5.961   3.464  10.435 -0.0056  0.0996 -0.1919
 4475W        W 8675   3.912   4.468  10.878  0.2453  0.1572  0.0689
 4476W        W 8676   4.742   4.241  12.191 -0.1235  0.2528  0.1458
 4477W        W 8677   3.797   4.032  11.174  0.0880  0.1859 -0.1091
 4478W        W 8678   4.026   2.004  12.708  0.2065  0.0276  0.0951
 4479W        W 8679   3.994   0.203   3.749  0.0761  0.3776 -0.1279
 4480W        W 8680   9.662   3.386   0.423 -0.2035  0.0863  0.1141
 4481W        W 8681   0.365   6.632   2.364  0.1367  0.2857 -0.0976
 4482W        W 8682   5.397   5.695   0.324 -0.1242 -0.1114 -0.0664
 4483W        W 8683   9.092   5.201  10.735  0.0904  0.2189 -0.1193
 4484W        W 8684   3.102   9.848  11.671  0.2995 -0.0184  0.3633
 4485W        W 8685   9.404   8.492   5.533 -0.2225  0.2435  0.0816
 4486W        W 8686   2.794  10.375  10.393 -0.0205  0.0293 -0.1548
 4487W        W 8687   8.631   3.745  12.165  0.5112  0.2253 -0.1285
 4488W        W 8688   9.389  10.390   1.365  0.1230  0.0415  0.3407
 4489W        W 8689   1.261   1.988   8.714  0.0292  0.1581  0.0976
 4490W        W 8690   7.228   5.135  12.372 -0.1187 -0.1837 -0.0945
 4491W        W 8691   1.914   9.498   9.304  0.1629  0.1045  0.1723
 4492W        W 8692   9.070   4.486   2.605 -0.0862 -0.3699  0.0845
 4493W        W 8693   7.286   8.440   1.744  0.0703 -0.0528  0.3215
 4494W        W 8694   6.626   8.633  10.958 -0.1895  0.1568  0.0789
 4495W        W 8695   3.041   2.589   2.090 -0.2892 -0.2870 -0.0114
 4496W        W 8696   2.516   6.188   9.988  0.2594  0.0283  0.3133
 4497W        W 8697   0.717   5.589  13.363  0.0763  0.1585  0.3222
 4498W        W 8698   9.591   2.782   5.343 -0.1793 -0.1166  0.0229
 4499W        W 8699   9.986   0.259   0.748 -0.0435 -0.2096  0.0175
 4500W        W 8700   0.530   2.225  12.691  0.1453  0.3794 -0.3682
 4501W        W 8701   9.284   5.993   1.840  0.0530 -0.0552 -0.1337
 4502W        W 8702   3.644   3.060   2.508  0.1245 -0.0539  0.2965
 4503W        W 8703   9.417   1.532   0.070 -0.1369  0.5073  0.1271
 4504W        W 8704   8.312   0.071   4.365  0.1209  0.1240 -0.0822
 4505W        W 8705   4.604   9.624   1.364 -0.0467  0.0569 -0.0577
 4506W        W 8706   5.694   1.732  10.929  0.2014  0.1327  0.3519
 4507W        W 8707   7.879   9.821  11.506  0.0533  0.2420 -0.0761
 4508W        W 8708  10.444   0.458  13.307  0.0324  0.2128  0.0683
 4509W        W 8709   5.767   3.391   9.984  0.3708  0.0945  0.0173
 4510W        W 8710   8.687   2.863   5.178 -0.1167  0.1190  0.0381
 4511W        W 8711   6.086   1.394  11.777 -0.2838  0.2389  0.1552
 4512W        W 8712   3.609   2.663   9.965 -0.1693  0.1438 -0.0563
 4513W        W 8713   1.348   9.275   4.006 -0.1894 -0.0191  0.3643
 4514W        W 8714   3.336   2.739   4.408  0.0910 -0.1182 -0.0603
 4515W        W 8715   3.080   6.656   2.831 -0.0468 -0.2954  0.0311
 4516W        W 8716   4.905   0.171  10.177  0.0839 -0.0993 -0.0794
 4517W        W 8717   7.632   1.903   9.175  0.1568  0.0609 -0.1337
 4518W        W 8718   9.881   6.774   1.313 -0.0792 -0.0006 -0.1675
 4519W        W 8719   7.048   3.801   1.638  0.0326  0.3353  0.1582
 4520W        W 8720   3.542   4.849   1.074  0.0204 -0.0539 -0.0456
 4521W        W 8721   7.188   0.419   9.229 -0.1466  0.1301  0.0068
 4522W        W 8722   4.131   5.392  10.821  0.1909  0.0126  0.1261
 4523W        W 8723   9.691   6.233   3.656 -0.0952  0.1813  0.1074
 4524W        W 8724   7.464   8.366   0.173 -0.1676  0.2846  0.2309
 4525W        W 8725   5.638  10.307  11.827  0.2073  0.0060  0.3327
 4526W        W 8726   1.753   5.295  10.057  0.0232 -0.2162  0.1774
 4527W        W 8727   3.056   5.727   8.997 -0.1321  0.0935  0.5201
 4528W        W 8728  10.181   0.066  10.093 -0.0258 -0.0123 -0.0887
 4529W        W 8729   2.467   0.779   4.112 -0.5054  0.0652 -0.0327
 4530W        W 8730   8.221   1.297   9.207 -0.0312  0.3567  0.1460
 4531W        W 8731   8.551   2.950  10.800  0.2157  0.2348 -0.0591
 4532W        W 8732   9.384   7.970   5.314  0.1311 -0.1167 -0.0155
 4533W        W 8733   4.452   6.777   4.109  0.3401 -0.0121  0.0076
 4534W        W 8734   1.210   7.374   9.953 -0.2278 -0.0476 -0.3075
 4535W        W 8735   1.208   5.834   2.752  0.1508 -0.1977  0.0325
 4536W        W 8736   9.366   7.928   2.837  0.1231  0.1393  0.1986
 4537W        W 8737   0.545   4.232  12.466 -0.1023 -0.0754 -0.0162
 4538W        W 8738   8.499   2.926   0.747 -0.0266 -0.1055  0.3113
 4539W        W 8739   1.275   0.727   9.732  0.2889 -0.1379  0.1571
 4540W        W 8740   5.473   5.847   1.425  0.4270 -0.3573 -0.1862
 4541W        W 8741   9.290   9.198  13.250  0.0754 -0.1736  0.3368
 4542W        W 8742   1.280   1.658  11.965  0.0116 -0.1898  0.1674
 4543W        W 8743   3.309   5.864  12.535 -0.0995 -0.1395 -0.3114
 4544W        W 8744   6.100   1.508   0.347 -0.0029  0.1391  0.1889
 4545W        W 8745   0.929   6.003   1.854 -0.3031  0.1121  0.0347
 4546W        W 8746   9.580   4.784   9.553 -0.1535  0.2603  0.1602
 4547W        W 8747   5.527   9.741   3.371 -0.0112  0.0221  0.3092
 4548W        W 8748   1.594   3.015   0.380  0.1918  0.0903 -0.2443
 4549W        W 8749  10.120   7.609   0.992 -0.2800 -0.2004  0.2622
 4550W        W 8750   6.384  10.439   2.156 -0.2952 -0.0709  0.2437
 4551W        W 8751   1.981   0.268  11.300  0.0073  0.0844  0.1984
 4552W        W 8752   2.433   7.277   2.673  0.0857 -0.1297  0.3741
 4553W        W 8753   3.459   0.521   9.128  0.2005 -0.0242 -0.0757
 4554W        W 8754   5.265   5.164   1.652  0.0756  0.0459 -0.3512
 4555W        W 8755   3.119   6.844  10.604 -0.2117  0.3447 -0.1537
 4556W        W 8756   2.774   8.681  10.279 -0.1492 -0.2424  0.2683
 4557W        W 8757   8.974   0.572  12.206 -0.0949  0.2110 -0.0411
 4558W        W 8758   0.785   8.450   0.546  0.0411 -0.0360  0.2687
 4559W        W 8759   7.144   3.174   9.380 -0.2419 -0.0012  0.0172
 4560W        W 8760   8.419   8.854  10.410  0.0344 -0.0252 -0.4613
 4561W        W 8761   7.272   3.988  11.319  0.1058 -0.3916 -0.2439
 4562W        W 8762   0.410  10.244   1.482 -0.2976  0.1083  0.0217
 4563W        W 8763   1.988   9.383   1.431 -0.1114  0.1942 -0.1530
 4564W        W 8764   9.886   8.704   1.822 -0.2609 -0.0909 -0.0239
 4565W        W 8765   5.995   6.746   1.089 -0.1844 -0.0392  0.0909
 4566W        W 8766   8.147   9.689   1.120 -0.3037 -0.1692 -0.1511
 4567W        W 8767   7.502   1.731   3.977  0.0249  0.1819 -0.2567
 4568W        W 8768   8.407   2.959  12.193 -0.0232  0.1410 -0.0472
 4569W        W 8769   2.500   6.554   2.275 -0.0829  0.1446  0.0538
 4570W        W 8770   4.297   8.503   4.097 -0.1741  0.2363 -0.2244
 4571W        W 8771   1.573   7.021   2.034  0.2117 -0.2836 -0.0564
 4572W        W 8772   3.329   0.442   3.134 -0.2576 -0.3674  0.1446
 4573W        W 8773   2.779   0.023  10.915 -0.3624  0.0788 -0.5005
 4574W        W 8774   3.786   3.815   4.457 -0.1212  0.1556 -0.2080
 4575W        W 8775   4.996   3.318   2.007 -0.1613 -0.0683 -0.0672
 4576W        W 8776   5.485   9.359   2.206 -0.1706 -0.1377 -0.1286
 4577W        W 8777   6.525   5.920  10.738  0.2508  0.2309 -0.4748
 4578W        W 8778   2.841   2.136   2.231  0.1773 -0.0109 -0.1283
 4579W        W 8779   4.326   9.381   0.864 -0.0773  0.0916  0.1348
 4580W        W 8780   1.953   8.663   0.312  0.3909  0.0051 -0.1919
 4581W        W 8781   6.503   0.639  11.817  0.0346 -0.1893 -0.0159
 4582W        W 8782   8.603   5.802  11.007 -0.0650 -0.3492 -0.3440
 4583W        W 8783   8.256   5.804   1.688 -0.0879 -0.0588 -0.1044
 4584W        W 8784   5.300   5.144   9.315 -0.0813 -0.1085 -0.0410
 4585W        W 8785   6.853   9.333  10.370 -0.1081 -0.1943 -0.0117
 4586W        W 8786   4.666   3.978   8.979  0.2108 -0.2090 -0.0798
 4587W        W 8787   7.101   1.848   2.710  0.1917 -0.0474 -0.2243
 4588W        W 8788  10.110   4.013   5.324  0.3388  0.1141  0.1435
 4589W        W 8789   1.602  10.082   2.601  0.0330  0.1182 -0.0344
 4590W        W 8790   1.128   6.097   3.258  0.0968  0.2328  0.2687
 4591W        W 8791   1.597   3.818   5.413 -0.3398 -0.0700 -0.0334
 4592W        W 8792   6.323   4.625  10.271 -0.0969 -0.5068 -0.2293
 4593W        W 8793   2.560   2.437  12.322 -0.2816  0.3241  0.2833
 4594W        W 8794   4.473   3.191   9.029 -0.0150 -0.1406  0.2004
 4595W        W 8795   7.750  10.231   2.304  0.2011  0.1551  0.0446
 4596W        W 8796   8.251   0.689  13.171  0.0887 -0.1264  0.0567
 4597W        W 8797   2.111   2.383   3.773 -0.1508  0.2234  0.0477
 4598W        W 8798   5.538   6.634   1.635 -0.0992  0.1133  0.1237
 4599W        W 8799   6.814   2.979  10.493 -0.0611 -0.2921 -0.0661
 4600W        W 8800   0.231   2.974  13.157  0.0838 -0.0169  0.2594
 4601W        W 8801   6.145   6.586   9.652 -0.1486  0.2156  0.3257
 4602W        W 8802  10.442   1.519  11.766  0.0627  0.2425  0.0379
 4603W        W 8803   4.577   7.165   1.169  0.1012 -0.0875  0.0364
 4604W        W 8804   1.395   4.284  10.987  0.2972  0.0691  0.2383
 4605W        W 8805   3.505   0.183   4.247 -0.1299 -0.1240 -0.3918
 4606W        W 8806  10.316   4.824   8.859 -0.3758 -0.0413  0.2343
 4607W        W 8807   7.559   1.382  11.107  0.1244 -0.1620  0.1824
 4608W        W 8808   4.742   5.582  12.265  0.0497 -0.1926 -0.1752
 4609W        W 8809   4.487   2.931   0.218  0.1862  0.0099  0.0671
 4610W        W 8810   4.702   0.810  13.107 -0.0727 -0.2263 -0.2077
 4611W        W 8811   3.756   5.378   3.877  0.1066  0.1373  0.1241
 4612W        W 8812   8.982   8.967   1.205 -0.0482 -0.0028  0.2480
 4613W        W 8813   5.000   2.553   0.926  0.0383  0.3027  0.0627
 4614W        W 8814   4.942   8.318   1.324 -0.0923  0.0899 -0.0304
 4615W        W 8815   2.724   2.912   3.836  0.0612  0.1464 -0.1257
 4616W        W 8816   4.501   8.984   3.727  0.0310  0.2928 -0.2031
 4617W        W 8817   7.948   3.578   4.261  0.0503  0.0923  0.1927
 4618W        W 8818   4.476   5.746  10.711  0.0042  0.2096  0.2304
 4619W        W 8819   9.088   7.538  12.212 -0.0507 -0.4154  0.0596
 4620W        W 8820   5.013   7.652   9.119  0.3724  0.0841  0.1521
 4621W        W 8821   6.909   5.377   2.142 -0.2044 -0.0338 -0.1661
 4622W        W 8822   5.248   9.930  12.117 -0.1571  0.0130  0.2380
 4623W        W 8823   4.612   9.177  12.186 -0.2622 -0.2289 -0.3364
 4624W        W 8824   0.861   8.108   1.596  0.0641 -0.1532  0.1421
 4625W        W 8825   1.400   9.341  10.127  0.1644 -0.0735 -0.0548
 4626W        W 8826  10.178   6.107  11.182 -0.0616  0.0142  0.1215
 4627W        W 8827   3.267   0.006  10.244 -0.1359 -0.1079 -0.1725
 4628W        W 8828   0.162   8.959   3.750 -0.1112  0.2524 -0.0775
 4629W        W 8829   7.602   3.095  10.804  0.1581  0.2789 -0.1818
 4630W        W 8830   2.637   2.777   8.939 -0.0929 -0.1013  0.0700
 4631W        W 8831   7.342   0.490   0.395 -0.0330  0.1932 -0.1070
 4632W        W 8832   2.090   2.578  12.182  0.0172  0.1507  0.4361
 4633W        W 8833   8.074   3.057  10.572  0.2124  0.2272 -0.0750
 4634W        W 8834   7.365  10.304   3.855 -0.1400 -0.0441 -0.1915
 4635W        W 8835   0.609   0.793   4.341  0.1033  0.2430  0.0880
 4636W        W 8836   2.299   7.788  10.514 -0.0607  0.1419  0.0308
 4637W        W 8837   4.747   3.571  12.323  0.2091 -0.0753 -0.2724
 4638W        W 8838   8.648   7.050   0.540 -0.0820 -0.0463 -0.0473
 4639W        W 8839   3.730   8.537   3.323 -0.0215 -0.2263 -0.0354
 4640W        W 8840   3.565   1.972  11.626  0.0982  0.2388  0.0318
 4641W        W 8841   7.348   8.582   3.140 -0.0598  0.0894 -0.1387
 4642W        W 8842  10.077   0.318   2.644 -0.0565  0.0014 -0.1449
 4643W        W 8843  10.396   1.181   9.611 -0.1758 -0.1567  0.0680
 4644W        W 8844   2.057   2.135  12.467 -0.4860 -0.1180  0.3165
 4645W        W 8845   3.551   0.979   5.475  0.2961  0.0092  0.2212
 4646W        W 8846   5.321   1.289   1.083 -0.1699  0.3820  0.1279
 4647W        W 8847   8.934   1.630   9.666 -0.0418  0.0981  0.0753
 4648W        W 8848   2.517   4.297   9.101  0.0860 -0.0589 -0.1998
 4649W        W 8849   4.663   4.588   0.386  0.1005  0.1779 -0.1290
 4650W        W 8850   8.572   0.476   3.461  0.1254 -0.0325  0.1154
 4651W        W 8851  10.450   8.768   0.324  0.1429 -0.0177  0.0539
 4652W        W 8852   2.242   9.488  12.168  0.1160  0.0009 -0.0416
 4653W        W 8853   7.126   3.658  10.216 -0.2077 -0.0774  0.1585
 4654W        W 8854   5.082   9.870   4.881  0.2817 -0.0464 -0.2731
 4655W        W 8855   8.413   0.224  10.745  0.2330  0.0074  0.3144
 4656W        W 8856   1.011   9.486   2.831  0.3697  0.1119 -0.0062
 4657W        W 8857   3.445   4.202  10.837  0.1245  0.1418 -0.2446
 4658W        W 8858   9.794   8.757  11.867 -0.0894 -0.4684 -0.0790
 4659W        W 8859   8.167   6.685   1.854  0.0287  0.1586  0.3209
 4660W        W 8860   8.788   9.192  12.545 -0.0776  0.3023 -0.1322
 4661W        W 8861   3.672   9.929  12.315  0.1419  0.1307 -0.1243
 4662W        W 8862   0.606   8.254  12.936  0.0220  0.2247 -0.2210
 4663W        W 8863   5.289   1.906  12.268  0.3629 -0.0007 -0.2381
 4664W        W 8864   4.639   1.306  10.900  0.0845  0.3037  0.0484
 4665W        W 8865   1.172   8.254   1.168 -0.0818 -0.1579  0.0734
 4666W        W 8866   8.132   6.378   1.044  0.0915 -0.2577 -0.1674
 4667W        W 8867   1.011   4.218   3.549 -0.1849  0.4298  0.0269
 4668W        W 8868   5.726   1.941  12.794  0.3188  0.0361 -0.0428
 4669W        W 8869   2.942   4.026  10.774  0.2963  0.3898 -0.0225
 4670W        W 8870   5.919  10.281   5.269 -0.0221  0.0863 -0.0459
 4671W        W 8871   6.909   0.873   4.122  0.0147 -0.2386  0.4403
 4672W        W 8872  10.335   3.053  11.678  0.0712 -0.1563  0.2903
 4673W        W 8873   2.749   4.230   2.984  0.0989  0.0647 -0.0311
 4674W        W 8874   9.821   2.693   2.580 -0.1139 -0.4624  0.0006
 4675W        W 8875   7.105   7.452  11.331 -0.3736  0.0397  0.1708
 4676W        W 8876   6.255   2.705   3.418  0.2614 -0.0466  0.4273
 4677W        W 8877   6.416   5.383  10.904 -0.3092 -0.1183 -0.0065
 4678W        W 8878   1.156   4.345   0.471 -0.2266 -0.4710  0.1681
 4679W        W 8879   5.930   0.738   5.111 -0.1026  0.0806  0.3598
 4680W        W 8880  10.177   6.815  10.686 -0.2284  0.1641  0.1036
 4681W        W 8881   2.264   3.384  10.284 -0.0449 -0.0869  0.0010
 4682W        W 8882   1.388   6.656  10.640 -0.0269 -0.0359  0.2091
 4683W        W 8883   0.101   6.886  11.012  0.2516 -0.2257  0.0321
 4684W        W 8884   0.231   4.986  13.016  0.0197 -0.0923 -0.0960
 4685W        W 8885   3.170   0.376   5.052  0.0165 -0.1646  0.3115
 4686W        W 8886   0.503   2.693   3.310  0.0349  0.1430  0.0399
 4687W        W 8887   7.128   2.935   1.490  0.2578  0.0510 -0.1260
 4688W        W 8888   6.207   9.156   3.442 -0.0421  0.0816  0.1882
 4689W        W 8889   8.897   2.872   0.337  0.1412  0.1910 -0.1048
 4690W        W 8890  10.332   6.060   2.870 -0.0514  0.0407 -0.0100
 4691W        W 8891   6.402   7.005  12.092  0.3349 -0.0471 -0.3816
 4692W        W 8892   8.187   6.755   2.370 -0.0101 -0.1117  0.0164
 4693W        W 8893  10.184   3.820   4.705  0.1903 -0.0080 -0.0572
 4694W        W 8894   7.735   1.295   4.586 -0.3811 -0.0535 -0.0068
 4695W        W 8895   5.534   1.547   3.366 -0.1669  0.0012  0.0437
 4696W        W 8896   9.303   0.485  11.221 -0.0004 -0.3108 -0.0831
 4697W        W 8897   6.559   6.539  12.214 -0.0852 -0.3654 -0.1171
 4698W        W 8898   8.021   2.731   0.573 -0.1655 -0.3692  0.1972
 4699W        W 8899  10.386   4.047   1.750 -0.3695  0.1853  0.3227
 4700W        W 8900   2.856   0.570   2.659 -0.1471 -0.1199 -0.0918
 4701W        W 8901   6.291   4.012   1.640  0.0182  0.1254 -0.1636
 4702W        W 8902   3.002   1.070  12.364  0.0672  0.1649 -0.0415
 4703W        W 8903   3.744   7.886   4.403 -0.0949  0.1479 -0.1063
 4704W        W 8904   1.245   0.418   8.783  0.1753 -0.0414  0.2265
 4705W        W 8905   1.101   0.310  11.412 -0.0589  0.3380  0.1781
 4706W        W 8906   0.642   5.524  11.310 -0.3030 -0.0007  0.3495
 4707W        W 8907   7.302   1.950   4.680 -0.3932 -0.3290  0.0768
 4708W        W 8908   8.160   1.690   4.727 -0.0453  0.2526  0.0728
 4709W        W 8909   1.338   1.601   4.452 -0.1688  0.1889  0.1020
 4710W        W 8910   5.781  10.260   4.765  0.1495  0.1616 -0.0634
 4711W        W 8911   9.905   3.958   3.100 -0.0249  0.2697  0.1259
 4712W        W 8912   3.620   8.772   2.863 -0.3027  0.4203  0.0455
 4713W        W 8913   4.087   6.690   2.098  0.1405 -0.1838  0.1765
 4714W        W 8914   1.453   1.226   3.543 -0.2961 -0.0864 -0.1386
 4715W        W 8915   4.357   2.560   2.031  0.2217  0.0124  0.1286
 4716W        W 8916   3.099   7.338   4.050 -0.1707 -0.0262 -0.1610
 4717W        W 8917   5.536   3.418   1.811  0.0524  0.0836 -0.0912
 4718W        W 8918   5.588   2.823  11.141 -0.1150  0.1806  0.0952
 4719W        W 8919   9.536   4.505  13.026 -0.5427 -0.0306 -0.1589
 4720W        W 8920   8.246   9.652   1.800 -0.1628  0.1586  0.1954
 4721W        W 8921   6.987   5.938  13.052 -0.1194  0.0891 -0.2022
 4722W        W 8922   2.457   6.856   3.607  0.1995 -0.2695 -0.0324
 4723W        W 8923   4.795   1.861  10.842  0.0717 -0.0709 -0.0250
 4724W        W 8924   5.678   5.985   0.649  0.0386  0.1898 -0.1267
 4725W        W 8925   5.771   6.857   4.233 -0.0856  0.1370  0.1849
 4726W        W 8926  10.341   5.582   9.440  0.2720  0.1449 -0.0014
 4727W        W 8927   4.438   9.434   4.356  0.1616  0.3859 -0.2190
 4728W        W 8928   3.865   2.767   4.461  0.1407  0.2935  0.1572
 4729W        W 8929   6.925   7.614  13.289 -0.1527 -0.1322 -0.2271
 4730W        W 8930  10.449   0.621  12.256  0.1932  0.0877  0.0515
 4731W        W 8931   4.667   9.606   2.876 -0.1861  0.0630 -0.2488
 4732W        W 8932   1.756   6.178   0.881 -0.0120 -0.0269  0.1191
 4733W        W 8933   0.002   1.856   4.462 -0.0023  0.4207  0.2214
 4734W        W 8934   9.204   5.572   3.954  0.0469  0.1290  0.3942
 4735W        W 8935   7.369   5.980  11.522  0.0184  0.2036 -0.0359
 4736W        W 8936  10.010   4.268   1.478 -0.0371 -0.0668  0.0230
 4737W        W 8937   3.934   5.913   9.715 -0.4231  0.0087  0.0470
 4738W        W 8938   5.435  10.296  13.225 -0.0216 -0.1049 -0.1316
 4739W        W 8939   3.455   9.859   9.984 -0.1261  0.0513  0.0077
 4740W        W 8940   6.847   7.263  10.550  0.2412 -0.1728  0.0907
 4741W        W 8941   0.746   4.925   1.696  0.1924  0.2215 -0.2974
 4742W        W 8942   0.306   4.625  12.197 -0.1574 -0.2030 -0.2461
 4743W        W 8943   8.027   0.139   1.446  0.3478  0.1086  0.0898
 4744W        W 8944   4.134   8.880   2.085  0.1251  0.1016  0.2453
 4745W        W 8945   8.344   4.307   1.299  0.3138  0.0905 -0.0888
 4746W        W 8946   9.743   5.799   0.889 -0.1294 -0.1735 -0.0329
 4747W        W 8947   2.015   2.917   3.903 -0.1191  0.0222 -0.0312
 4748W        W 8948   3.301   6.538   9.552  0.1438 -0.0565 -0.0090
 4749W        W 8949   0.295   8.308   2.688  0.0814  0.1863 -0.1010
 4750W        W 8950   5.805   8.071  11.204  0.1930  0.3465  0.0014
 4751W        W 8951   1.237   7.629   2.760  0.1305 -0.0385  0.3857
 4752W        W 8952   7.015   4.118  10.384  0.0835 -0.2174 -0.4463
 4753W        W 8953   1.843   7.329   4.232  0.1108  0.0338  0.2108
 4754W        W 8954   9.690   1.751   9.249  0.1519 -0.0508 -0.2032
 4755W        W 8955   7.452   7.103   1.293 -0.0956  0.0360  0.3763
 4756W        W 8956   3.895   9.657   0.912 -0.0469  0.1825 -0.0161
 4757W        W 8957   5.598   5.368   4.365  0.2642  0.3490 -0.2996
 4758W        W 8958   0.116   8.112  11.042 -0.2908  0.1015 -0.2113
 4759W        W 8959   1.149   6.464  10.183 -0.3089  0.0901 -0.0199
 4760W        W 8960   5.558   9.507   9.997  0.0658 -0.5094  0.2872
 4761W        W 8961   8.149   9.674   9.438 -0.0222  0.1575  0.0344
 4762W        W 8962   3.588  10.357   3.691 -0.1784 -0.2824 -0.0123
 4763W        W 8963   3.325   3.935   4.406 -0.0614  0.2483  0.1092
 4764W        W 8964   9.211   2.607  12.032  0.3225  0.0815 -0.1028
 4765W        W 8965   5.140   2.615   8.772  0.2169 -0.0996 -0.1580
 4766W        W 8966   7.367   7.578  13.063 -0.1385  0.1811  0.1397
 4767W        W 8967   9.740   3.703   4.065  0.5817  0.0989  0.0599
 4768W        W 8968   3.816   7.963   9.863  0.0546 -0.0409  0.0561
 4769W        W 8969   1.640  10.265   9.395 -0.1917 -0.0359  0.1817
 4770W        W 8970   3.563   3.723   2.913 -0.1550 -0.0768 -0.0064
 4771W        W 8971   4.262   3.156   1.007 -0.2274  0.3250  0.0564
 4772W        W 8972   7.576   2.748   3.035 -0.0047  0.3538 -0.4236
 4773W        W 8973   1.612   3.092  12.904  0.2109 -0.1583  0.2057
 4774W        W 8974   2.101   9.201   1.866  0.1330 -0.2674 -0.0523
 4775W        W 8975   8.101   8.508   0.814 -0.2941 -0.0493 -0.2929
 4776W        W 8976   1.192   2.439   3.867 -0.0011 -0.1966  0.1409
 4777W        W 8977   8.573   3.334   3.862 -0.1244  0.3733  0.0372
 4778W        W 8978   8.595   5.140  13.237 -0.0695 -0.3419  0.1859
 4779W        W 8979   3.748   6.218  10.265 -0.1638  0.0300 -0.0637
 4780W        W 8980  10.344  10.158  13.137 -0.1187 -0.0427 -0.0793
 4781W        W 8981   1.257   6.170  12.930  0.0550 -0.3872 -0.0654
 4782W        W 8982   2.670   1.060   9.254 -0.1380  0.2371 -0.0660
 4783W        W 8983   5.309   5.047   2.604 -0.1331  0.0152  0.4917
 4784W        W 8984   8.293   4.590   0.217 -0.0301 -0.0404  0.0168
 4785W        W 8985   9.619   8.457  12.265  0.1143  0.2533  0.1534
 4786W        W 8986   0.212   1.152   1.820  0.0321 -0.1982  0.0911
 4787W        W 8987   6.151  10.449   2.663  0.0832  0.1451  0.0104
 4788W        W 8988  10.480   2.383   4.409 -0.1813  0.0369 -0.1147
 4789W        W 8989   6.058   4.586   0.477  0.2930  0.1679  0.1223
 4790W        W 8990   3.704   3.298   1.000  0.1545 -0.4710 -0.1473
 4791W        W 8991   5.196   3.072   3.433  0.2754 -0.1874 -0.1027
 4792W        W 8992   1.035   9.908   1.106  0.1357 -0.0215  0.2160
 4793W        W 8993   9.100   6.057   3.241  0.3648  0.2662  0.1241
 4794W        W 8994   3.334  10.224   4.154 -0.0866  0.0076  0.0866
 4795W        W 8995   0.743   8.625  12.589  0.0533 -0.1025 -0.3140
 4796W        W 8996   5.329   7.172  12.487 -0.4291  0.1623  0.2526
 4797W        W 8997   5.870   1.023   9.036 -0.1503  0.0749 -0.1977
 4798W        W 8998   1.875   3.432   0.151  0.1595 -0.1473 -0.0288
 4799W        W 8999   9.369   8.807  11.295  0.0542 -0.2536 -0.0513
 4800W        W 9000   3.064   7.277   0.106  0.2204  0.3095 -0.3325
 4801W        W 9001   2.159   2.903   9.344  0.3004  0.0493 -0.1405
 4802W        W 9002   8.473   2.984  13.042  0.0659  0.0873 -0.2950
 4803W        W 9003   8.736   4.222   0.963  0.0870  0.0287  0.1387
 4804W        W 9004   2.226   7.027  13.100  0.0846 -0.1277  0.1336
 4805W        W 9005   3.263   5.261  11.159 -0.1962  0.0291 -0.4982
 4806W        W 9006   4.282   1.880   4.913  0.2251  0.1835 -0.2697
 4807W        W 9007   6.648   8.638   9.264 -0.0298 -0.1851 -0.2175
 4808W        W 9008   6.946   3.178  11.447 -0.1463  0.1380  0.1338
 4809W        W 9009   8.087   5.512   1.341  0.0521 -0.1082  0.1253
 4810W        W 9010   0.153   1.466  11.275 -0.2310  0.1507  0.2791
 4811W        W 9011   2.480  10.140   1.981 -0.1154 -0.0603  0.0135
 4812W        W 9012   6.085   4.242   8.867 -0.0375 -0.4610 -0.1848
 4813W        W 9013   2.555   5.062   3.957 -0.4025  0.0274  0.1175
 4814W        W 9014   2.268   6.983   2.195 -0.0437 -0.0266  0.3026
 4815W        W 9015   4.738   3.349   3.541 -0.1853  0.0090  0.0459
 4816W        W 9016   6.909   5.207  12.015 -0.2118  0.3038 -0.4139
 4817W        W 9017   9.425   5.248   3.510  0.1847 -0.2550  0.3882
 4818W        W 9018   4.239   9.020  13.175 -0.1767 -0.1534  0.3635
 4819W        W 9019  10.354   3.694  12.218  0.1693  0.2710 -0.0858
 4820W        W 9020   3.820   4.452   9.047 -0.2439 -0.0002 -0.0685
 4821W        W 9021   4.847   5.114  11.182 -0.1609  0.4653 -0.0718
 4822W        W 9022   7.134  10.462   1.193 -0.0338  0.0946 -0.3418
 4823W        W 9023   6.832   2.253  12.324  0.1851 -0.2346  0.1052
 4824W        W 9024   2.293   6.132   0.216  0.0619  0.0315  0.0258
 4825W        W 9025   9.257   0.341  10.000  0.1213  0.2213 -0.1364
 4826W        W 9026   5.743   9.216   3.179 -0.1695 -0.0300 -0.0667
 4827W        W 9027   8.567   8.213  12.375 -0.3064 -0.2950  0.0573
 4828W        W 9028   8.298   2.846   2.056  0.1067 -0.2560 -0.0398
 4829W        W 9029   3.369   2.243   2.216  0.0971  0.4508 -0.2152
 4830W        W 9030   0.737   2.742   5.091  0.2373 -0.0078 -0.1052
 4831W        W 9031   5.450   2.187  11.883 -0.1658  0.0848 -0.0059
 4832W        W 9032   9.499   0.886   1.844 -0.1678  0.2304 -0.0482
 4833W        W 9033   8.941   5.092  12.859  0.2157 -0.0530 -0.1442
 4834W        W 9034   6.923   3.323   1.872  0.2335  0.2814  0.0253
 4835W        W 9035   2.762   4.906   9.721  0.1696  0.1188 -0.3522
 4836W        W 9036   1.205  10.389  10.271  0.1946  0.0079 -0.1072
 4837W        W 9037   1.722   2.485   2.056 -0.0814 -0.0128  0.0412
 4838W        W 9038   0.397   8.119   1.383 -0.2340  0.1005 -0.4567
 4839W        W 9039   9.252   4.041   2.587  0.2407  0.1147 -0.1341
 4840W        W 9040   1.658   3.555  12.644 -0.0140  0.2250 -0.1656
 4841W        W 9041   2.458   9.177   3.541 -0.2880  0.2076  0.2681
 4842W        W 9042   8.701   7.398  13.086 -0.3704 -0.0101  0.1202
 4843W        W 9043   6.749   1.760  10.166  0.3094 -0.1479 -0.1878
 4844W        W 9044   7.946   3.874   5.207 -0.0990  0.1261  0.0060
 4845W        W 9045   2.047   0.765   1.576 -0.0672  0.1533  0.2962
 4846W        W 9046   0.024   1.386  12.824  0.1911 -0.2476  0.0176
 4847W        W 9047   1.484   0.811  12.827  0.1062  0.1476  0.2777
 4848W        W 9048   0.895   1.183  11.283  0.2145 -0.0933  0.1480
 4849W        W 9049   3.681   9.660   2.320  0.1520  0.1136 -0.2151
 4850W        W 9050   0.615   3.951   5.342  0.1213  0.0213  0.1849
 4851W        W 9051   2.767   9.717   4.546  0.1597  0.5292  0.0211
 4852W        W 9052   2.892   4.357   0.384 -0.0688  0.2966 -0.1297
 4853W        W 9053   8.483   5.412   1.024 -0.1365 -0.1120 -0.2711
 4854W        W 9054  10.404   2.516  11.469  0.3835 -0.0790  0.0085
 4855W        W 9055   3.716   8.098   2.514 -0.1482 -0.0799  0.1427
 4856W        W 9056   1.486   5.983   1.847  0.0147  0.1446  0.4171
 4857W        W 9057   7.524   8.829  10.284  0.0987 -0.3905  0.0769
 4858W        W 9058   7.503   7.976  10.601 -0.0110  0.0717  0.0917
 4859W        W 9059   4.202   8.773   3.169 -0.2283 -0.1984 -0.1218
 4860W        W 9060   6.536   8.141  10.101  0.1185 -0.1299  0.2454
 4861W        W 9061   1.637   3.158   9.417 -0.0045  0.2036 -0.0206
 4862W        W 9062   3.152   4.869   2.385  0.1202  0.2594 -0.0813
 4863W        W 9063   0.073   3.906   0.360  0.0788  0.0973  0.2916
 4864W        W 9064   7.827   3.099   5.012 -0.2766 -0.1179  0.0307
 4865W        W 9065   7.738   6.811   3.380  0.2182 -0.1223  0.1235
 4866W        W 9066   4.324   9.477  12.889  0.2843  0.2553 -0.0611
 4867W        W 9067   5.588   4.267  10.450 -0.1901  0.1393  0.0885
 4868W        W 9068   7.218   7.673  11.923  0.0939  0.0074  0.0707
 4869W        W 9069   0.829   8.825  11.639  0.1196  0.1298  0.2455
 4870W        W 9070   6.389   4.347   0.098 -0.1339  0.3743 -0.1348
 4871W        W 9071   8.082   1.197  12.070  0.0535 -0.2482  0.3307
 4872W        W 9072   8.791  10.212   0.920 -0.0516 -0.1492  0.1992
 4873W        W 9073   5.147   1.113  11.612  0.2230 -0.2056  0.2288
 4874W        W 9074   6.907   3.262  12.553  0.1492 -0.1199  0.0001
 4875W        W 9075   3.953   2.070   4.451 -0.2211 -0.0627  0.1960
 4876W        W 9076   9.872   6.047  12.478 -0.0371 -0.1521  0.3609
 4877W        W 9077   2.582   3.740   4.870  0.4762 -0.0807 -0.0059
 4878W        W 9078   1.523   9.948  10.846  0.0341 -0.0991  0.0929
 4879W        W 9079   2.384   5.548   2.213  0.2468 -0.2117  0.0388
 4880W        W 9080   2.407   9.630   2.602 -0.1707  0.0566 -0.3513
 4881W        W 9081   1.468   0.385  13.104  0.0567  0.0384  0.1401
 4882W        W 9082   4.885   0.236  10.729  0.1895  0.0039  0.1831
 4883W        W 9083   3.510   6.924  11.540 -0.0549  0.2322  0.3140
 4884W        W 9084   4.499   8.325  12.224 -0.0794 -0.0149  0.1091
 4885W        W 9085  10.062   6.724  10.227 -0.0357  0.1619  0.1138
 4886W        W 9086   8.724   2.548  12.985 -0.0129 -0.1419  0.2191
 4887W        W 9087   3.969   7.526   1.345 -0.3130 -0.0769 -0.1888
 4888W        W 9088   3.125   1.944   9.118 -0.1292 -0.0788 -0.3682
 4889W        W 9089   6.042   1.762   3.397  0.1164 -0.1178 -0.1474
 4890W        W 9090   3.324   6.751   0.525  0.1465  0.0540 -0.0482
 4891W        W 9091   1.041   8.200  12.480  0.0980 -0.1315  0.1144
 4892W        W 9092   5.802   7.867   2.238  0.1493 -0.0709  0.3452
 4893W        W 9093   8.231   3.397   1.236 -0.0462  0.0284  0.2243
 4894W        W 9094   3.672   6.878   4.184 -0.1427 -0.3854 -0.2971
 4895W        W 9095   6.846   0.648   0.497 -0.2981 -0.0428 -0.1810
 4896W        W 9096   9.698   0.532   0.489  0.1796 -0.1304 -0.0548
 4897W        W 9097   4.834   7.149   9.822  0.1425 -0.1250  0.1747
 4898W        W 9098   5.030   7.132  11.568  0.0076 -0.1283  0.1015
 4899W        W 9099   9.640   9.863  12.672 -0.4155 -0.1938 -0.1307
 4900W        W 9100   3.291   0.054  13.213 -0.1000 -0.0164  0.2713
 4901W        W 9101   9.582   2.563   2.090 -0.1166  0.2049  0.2718
 4902W        W 9102   9.848   0.826   1.015 -0.2892 -0.4189  0.0001
 4903W        W 9103   1.643   2.578   4.651  0.1722 -0.0853  0.3373
 4904W        W 9104   0.001   3.739  10.453 -0.1086  0.0100  0.0490
 4905W        W 9105   2.894   6.164   3.194 -0.1905 -0.2570 -0.2128
 4906W        W 9106   6.845   6.149   9.662 -0.0277  0.0060 -0.0956
 4907W        W 9107   4.053   9.430  10.556 -0.0057 -0.1594  0.0695
 4908W        W 9108   5.659   5.579  11.208 -0.2445  0.0964  0.3449
 4909W        W 9109   7.191   0.218   3.456 -0.1134 -0.0815  0.0061
 4910W        W 9110   7.319   1.864   0.031 -0.1159  0.3110  0.2919
 4911W        W 9111   9.761   8.672   2.771  0.1223  0.0038  0.1158
 4912W        W 9112   0.096   8.600  11.190  0.0385  0.1368  0.0154
 4913W        W 9113   5.853   4.371  10.027 -0.0276  0.1657  0.1109
 4914W        W 9114   4.317   3.260   2.536 -0.2667 -0.1040  0.1822
 4915W        W 9115   4.560   7.922   4.050  0.0217 -0.0602 -0.0450
 4916W        W 9116  10.247   8.255  13.366 -0.3695 -0.0867  0.0259
 4917W        W 9117   9.216   4.604   1.859  0.0578  0.1157 -0.2064
 4918W        W 9118   1.179   1.853   9.194  0.3224  0.1393 -0.1872
 4919W        W 9119   5.271   4.503  11.971  0.1389  0.2877  0.2380
 4920W        W 9120   5.808   0.201   3.627  0.0122  0.3573  0.0002
 4921W        W 9121   5.775   9.869  12.066  0.0985 -0.2950 -0.1617
 4922W        W 9122   8.183   5.065  11.512 -0.0465  0.2060  0.0341
 4923W        W 9123   6.161   0.953  12.062  0.1635 -0.2275 -0.2048
 4924W        W 9124   6.238   1.140   1.141  0.0571 -0.3456 -0.2222
 4925W        W 9125   4.229   5.091   3.684  0.1161 -0.1432  0.1857
 4926W        W 9126   9.783   9.467   0.037  0.3391 -0.1309 -0.0825
 4927W        W 9127   8.234   1.868   2.127 -0.1323  0.1765 -0.2396
 4928W        W 9128   2.353   0.895   5.238  0.4069  0.0808 -0.0617
 4929W        W 9129   0.789   7.474  13.173 -0.0166 -0.1632  0.1882
 4930W        W 9130   5.388   8.854  10.121 -0.0994 -0.1094  0.0704
 4931W        W 9131   9.458   3.162   9.959 -0.0407  0.2238  0.1214
 4932W        W 9132   2.294   7.774  13.279 -0.1710  0.0041 -0.0344
 4933W        W 9133   4.677   8.743  13.228 -0.3220  0.2328 -0.1235
 4934W        W 9134   7.715   2.115  13.296 -0.2698  0.3175  0.1994
 4935W        W 9135   3.920   6.972   1.619  0.2027  0.2613  0.1873
 4936W        W 9136   7.172  10.040   4.291 -0.2282  0.1244  0.0161
 4937W        W 9137   4.754   8.206  12.590  0.2358  0.2290 -0.2690
 4938W        W 9138   5.403   4.614  12.683 -0.0390 -0.0379  0.0885
 4939W        W 9139   2.500   3.300  11.209 -0.0535 -0.1166 -0.0629
 4940W        W 9140   3.125   5.520  10.474 -0.1495  0.3061 -0.2249
 4941W        W 9141   3.839   7.820  13.400 -0.0182  0.2079  0.0451
 4942W        W 9142  10.371   0.655   3.508 -0.3720 -0.2181 -0.0058
 4943W        W 9143   9.242   2.495   1.194  0.0547 -0.2414  0.0697
 4944W        W 9144   5.809   7.431  12.552 -0.1282  0.1805 -0.0489
 4945W        W 9145   4.068   6.253   2.937  0.0516 -0.1858  0.1253
 4946W        W 9146   7.858   9.000  11.370 -0.0668 -0.0217  0.1320
 4947W        W 9147   6.759   7.649  10.213  0.4173 -0.1433 -0.0311
 4948W        W 9148   2.985   2.164  11.491  0.0261  0.3874 -0.0032
 4949W        W 9149   8.990   3.356   4.681  0.1449 -0.0635  0.0867
 4950W        W 9150   5.825   1.769   4.308  0.0661  0.1321  0.0423
 4951W        W 9151   8.585   7.659  10.047 -0.0927 -0.0507 -0.0042
 4952W        W 9152   1.032   3.896   0.816 -0.0476  0.0092 -0.0246
 4953W        W 9153  10.291   3.199  13.104  0.0107  0.0230  0.2746
 4954W        W 9154   3.727   2.419   1.231  0.1013 -0.1991  0.0356
 4955W        W 9155   0.410   6.475  11.829  0.0704 -0.1679 -0.1194
 4956W        W 9156   8.659   4.267  12.573  0.0210 -0.0350 -0.2894
 4957W        W 9157   3.512   2.814   0.025  0.2918  0.1418 -0.3262
 4958W        W 9158   2.003   4.674  12.288 -0.0603 -0.3106 -0.0713
 4959W        W 9159   2.088   4.732   3.533 -0.1849 -0.2141  0.0488
 4960W        W 9160   9.121   6.554   9.362  0.1048 -0.1900  0.1583
 4961W        W 9161   6.258   6.893  13.400 -0.2183 -0.0994 -0.0310
 4962W        W 9162   5.644   8.788   9.308  0.2783 -0.0402 -0.0321
 4963W        W 9163   0.639   7.403   3.797  0.2824 -0.0834 -0.3136
 4964W        W 9164   8.468   1.906   8.913 -0.2284 -0.2604  0.0717
 4965W        W 9165   7.784   1.318   4.099  0.0341  0.0045 -0.0250
 4966W        W 9166   3.009   4.922   3.248  0.0137 -0.1701  0.1564
 4967W        W 9167   0.370   0.556   4.830  0.1492 -0.0180  0.1506
 4968W        W 9168   8.276   5.053   1.333 -0.1279 -0.2935 -0.0949
 4969W        W 9169   8.998   5.329  13.361 -0.1144  0.0061 -0.0411
 4970W        W 9170   9.292   5.920   0.749 -0.1589 -0.1053 -0.2318
 4971W        W 9171   5.956   3.195   2.024 -0.0032  0.3381 -0.4014
 4972W        W 9172   7.585   9.787  12.940  0.0940  0.0931 -0.1556
 4973W        W 9173   5.133   9.824  13.027  0.3534  0.1111 -0.1650
 4974W        W 9174   3.039   0.897   9.948 -0.0928 -0.1021  0.0439
 4975W        W 9175   5.637   4.971  10.839 -0.0995 -0.3380 -0.0740
 4976W        W 9176   5.877   9.165   0.482  0.0244  0.2056 -0.0924
 4977W        W 9177   6.010   3.879   9.798 -0.2279  0.0780 -0.0773
 4978W        W 9178   0.448   3.425   9.921 -0.0303 -0.0817 -0.4139
 4979W        W 9179   6.155   0.535   4.511 -0.2951 -0.2879 -0.0695
 4980W        W 9180   2.921   9.354   9.760  0.1070  0.1172 -0.0038
 4981W        W 9181   0.223   8.518  13.293  0.1850  0.2913 -0.0964
 4982W        W 9182   8.564   7.979   0.430  0.2168  0.1466  0.1002
 4983W        W 9183   6.535   1.565   0.091  0.0159  0.2471  0.2532
 4984W        W 9184   2.500   2.487  10.582  0.0269 -0.2752  0.3238
 4985W        W 9185  10.134   4.456  11.665 -0.4349  0.0801  0.0913
 4986W        W 9186   6.373   1.800  12.735 -0.2785  0.0866 -0.2106
 4987W        W 9187   6.156   6.702  11.202  0.0434  0.1120 -0.2118
 4988W        W 9188   3.527   3.741   0.187 -0.3039  0.2720  0.1503
 4989W        W 9189   1.585   5.446  13.210 -0.0918  0.2517  0.1319
 4990W        W 9190   7.468   7.053   2.813  0.0804  0.0125 -0.1866
 4991W        W 9191   9.520   9.408   2.183  0.1207  0.2174 -0.1736
 4992W        W 9192   6.026   7.521   1.295  0.2524 -0.0133  0.1122
 4993W        W 9193   4.577   6.016  11.214 -0.3929 -0.1936  0.1191
 4994W        W 9194   4.385   2.328   0.096 -0.0588  0.0299  0.0255
 4995W        W 9195   7.824   0.704   2.032 -0.2560  0.0431 -0.1510
 4996W        W 9196   3.188   9.059   4.317 -0.0237  0.0024 -0.1442
 4997W        W 9197   7.646   1.885  10.891  0.1710 -0.3141 -0.0150
 4998W        W 9198   7.647   4.275   0.867  0.1453  0.0642  0.1461
 4999W        W 9199   4.525   3.212  11.954 -0.0903  0.2168  0.2660
 5000W        W 9200   9.897   0.680  12.395 -0.3159 -0.0813  0.1627
 5001W        W 9201   5.275   8.795   0.149  0.0569  0.2332 -0.0550
 5002W        W 9202   1.707   7.123   9.832  0.2228 -0.0001  0.2237
 5003W        W 9203   8.651   3.437  10.555 -0.1440 -0.0689  0.1468
 5004W        W 9204   3.283   4.704   9.651  0.2465  0.0432  0.0387
 5005W        W 9205   1.277  10.204   3.407  0.2787 -0.0054 -0.2735
 5006W        W 9206   5.986   8.053   1.448 -0.3414  0.0277  0.1607
 5007W        W 9207   9.130   6.791  10.211  0.1192 -0.2321 -0.0742
 5008W        W 9208   4.107   8.504   5.186 -0.1688 -0.1720 -0.1156
 5009W        W 9209   3.931   8.321   2.874  0.0209  0.3292 -0.2481
 5010W        W 9210   6.816   1.599   1.301 -0.2262 -0.0799 -0.1572
 5011W        W 9211   0.455   6.223   0.361 -0.1891 -0.0338 -0.1347
 5012W        W 9212   5.850   7.149  10.275  0.2249  0.1607 -0.0319
 5013W        W 9213  10.186   0.116  12.497 -0.2172 -0.2514  0.0298
 5014W        W 9214   0.081   4.555   4.373  0.0260 -0.2875  0.3567
 5015W        W 9215   2.339   5.634  11.416 -0.0879  0.0700  0.1750
 5016W        W 9216   2.475   9.205  11.031 -0.0079 -0.2571 -0.1123
 5017W        W 9217   2.762   6.949   0.399  0.1709 -0.1147  0.0760
 5018W        W 9218   9.836   3.623  12.831  0.1421 -0.1629 -0.0240
 5019W        W 9219   4.800   2.618  11.464 -0.0425  0.0733 -0.0675
 5020W        W 9220   7.360   8.112   3.268 -0.3681  0.1968  0.1501
 5021W        W 9221   2.572   1.976   1.833 -0.5175 -0.0261 -0.1609
 5022W        W 9222   5.227   8.913  12.076 -0.0089  0.0956  0.1111
 5023W        W 9223   8.882   3.979   2.899  0.2205 -0.1996 -0.0717
 5024W        W 9224   9.498   2.362   9.620 -0.1437  0.0964  0.0593
 5025W        W 9225   8.988   2.656  10.508  0.3097 -0.2107 -0.0318
 5026W        W 9226   6.164   5.229   1.672  0.2087  0.5104  0.0834
 5027W        W 9227   4.326   7.772   1.100 -0.5180  0.1920  0.0094
 5028W        W 9228   9.271   9.953   3.055  0.0256  0.1728 -0.0275
 5029W        W 9229   0.363   6.357   2.802  0.2534  0.1578 -0.1234
 5030W        W 9230   7.605   1.931   1.692 -0.0311 -0.1274 -0.0719
 5031W        W 9231   6.052  10.050  12.450  0.2685 -0.2102 -0.2671
 5032W        W 9232   5.599   8.752  12.703 -0.2063  0.0885 -0.2422
 5033W        W 9233   9.783   5.550  11.190 -0.1187  0.2500  0.1763
 5034W        W 9234   2.986   8.673   0.429  0.2041 -0.1115 -0.2614
 5035W        W 9235   8.208   0.451   9.416  0.1415  0.2383  0.0098
 5036W        W 9236   4.662   1.841   9.445 -0.1165  0.1291  0.3706
 5037W        W 9237   9.932   5.432   3.556  0.1030  0.0807 -0.3122
 5038W        W 9238   2.045   3.742   8.677 -0.4076  0.1129 -0.2062
 5039W        W 9239   8.466   5.992  10.519  0.0142  0.0990 -0.1694
 5040W        W 9240   3.403   4.511   3.418  0.1101  0.1533  0.1882
 5041W        W 9241   0.048   5.770   4.130 -0.0355 -0.1406  0.2550
 5042W        W 9242   4.836  10.207   0.518 -0.0421  0.1223 -0.0072
 5043W        W 9243   1.014  10.425   0.739  0.4645  0.1553 -0.2633
 5044W        W 9244   8.379   1.376   1.453  0.0761 -0.0159 -0.0835
 5045W        W 9245   7.332   2.826  11.212  0.3128  0.3165 -0.1095
 5046W        W 9246   4.460   9.699   3.404  0.0584 -0.1140 -0.1523
 5047W        W 9247   9.722   8.034   1.153  0.0643 -0.1848  0.2663
 5048W        W 9248   7.804   0.264   2.265 -0.2197  0.0515 -0.2080
 5049W        W 9249   3.010   0.611   4.620 -0.0655  0.3257 -0.0941
 5050W        W 9250   4.227   4.524   3.847  0.2737  0.0174 -0.4509
 5051W        W 9251   5.260   0.823  10.273 -0.1733 -0.1554  0.3178
 5052W        W 9252   5.241   1.687  11.597  0.0233  0.2432  0.2704
 5053W        W 9253   4.700   5.158  11.741 -0.1330 -0.0421 -0.1766
 5054W        W 9254   5.386   8.330  10.786  0.3558 -0.2094  0.3109
 5055W        W 9255   1.272   4.160   1.199  0.1090 -0.0315  0.1461
 5056W        W 9256   9.740   6.286  13.389  0.2754 -0.0533  0.3346
 5057W        W 9257   9.900   4.206  10.616 -0.0737 -0.0917 -0.0525
 5058W        W 9258   8.634   9.188   2.495  0.0817 -0.0107 -0.2362
 5059W        W 9259   8.979   7.006   4.073  0.2283  0.0716  0.0965
 5060W        W 9260   3.432   9.587   1.742 -0.1266  0.1500  0.0686
 5061W        W 9261   2.949   6.473  13.075 -0.1154  0.0080  0.0216
 5062W        W 9262   6.484   0.400   2.437 -0.1191  0.3019 -0.1358
 5063W        W 9263   6.481   8.654  12.613  0.0109 -0.3472 -0.4632
 5064W        W 9264   4.060   0.248  10.695 -0.0956 -0.0869  0.3701
 5065W        W 9265   0.901   9.166  12.756 -0.0666  0.0383  0.0721
 5066W        W 9266   2.283   8.742   1.647 -0.3151 -0.1265  0.2348
 5067W        W 9267   7.691   7.774  10.126 -0.1291  0.0694 -0.3329
 5068W        W 9268   1.178   6.822   1.799  0.1519  0.2594 -0.0203
 5069W        W 9269   8.867   2.152   3.101 -0.0367  0.2575 -0.2629
 5070W        W 9270  10.172   4.255   0.645  0.0447  0.0050  0.1939
 5071W        W 9271   1.623   0.757  10.756  0.0050 -0.1216  0.2473
 5072W        W 9272   2.762   1.559   0.367  0.0177 -0.0860  0.1583
 5073W        W 9273   7.326   4.628   8.522  0.0005  0.2740 -0.0758
 5074W        W 9274   5.998   6.416   4.300 -0.0318  0.1950 -0.1833
 5075W        W 9275   8.125   0.920   2.333  0.2219 -0.0827 -0.1215
 5076W        W 9276  10.227   2.704   4.786 -0.0545  0.2496  0.0671
 5077W        W 9277   6.433   7.052  10.293 -0.3204 -0.0951 -0.0586
 5078W        W 9278   4.750   1.605   3.405 -0.1493 -0.0808  0.2736
 5079W        W 9279   5.954  10.102  11.428 -0.1879 -0.1508 -0.0866
 5080W        W 9280   7.084   8.947  12.117  0.0015 -0.0952 -0.0763
 5081W        W 9281   3.118   5.928   4.059 -0.2678 -0.1616 -0.2002
 5082W        W 9282   9.749   2.682  12.045 -0.0354  0.0632  0.2828
 5083W        W 9283   0.572   9.410  10.016 -0.1902 -0.0197 -0.2187
 5084W        W 9284   4.658   9.890  12.807  0.1533  0.3482  0.2079
 5085W        W 9285   0.808   7.714  10.380 -0.0152 -0.2383 -0.0241
 5086W        W 9286   7.482   5.493   3.067 -0.0859 -0.2046  0.0504
 5087W        W 9287   5.624   7.591   3.125 -0.0054 -0.0486  0.1882
 5088W        W 9288   2.035   2.438  11.211 -0.1409 -0.1871  0.1273
 5089W        W 9289   7.034   5.731   1.038  0.0695 -0.0157  0.2320
 5090W        W 9290   2.012   3.758  10.602 -0.2146 -0.0971  0.3889
 5091W        W 9291   6.782   6.647   9.444  0.1352  0.0509  0.0027
 5092W        W 9292   5.009   8.147   3.745 -0.0411 -0.0706  0.1954
 5093W        W 9293   1.352   3.278   1.842 -0.0069 -0.1646 -0.0444
 5094W        W 9294   0.773   5.324  12.349  0.1800 -0.3225  0.3598
 5095W        W 9295   0.134   6.104  12.129  0.2092  0.1156 -0.1278
 5096W        W 9296   1.128   8.642   0.844  0.3024 -0.0723  0.1780
 5097W        W 9297   6.510   9.745   0.466  0.0945  0.0615  0.2035
 5098W        W 9298   6.561   4.213   4.050 -0.0275 -0.1240 -0.0584
 5099W        W 9299  10.371   5.124   1.544 -0.1544  0.0425 -0.0705
 5100W        W 9300   6.551   7.459   1.208  0.1271 -0.0593 -0.1206
 5101W        W 9301  10.049   0.721   9.589 -0.1730 -0.0842 -0.0058
 5102W        W 9302   9.919   6.477  10.936 -0.1767  0.1454  0.0080
 5103W        W 9303   0.588   2.132   0.189  0.0489  0.0419 -0.1514
 5104W        W 9304   5.340   0.466   4.779 -0.1600  0.1048 -0.1785
 5105W        W 9305   3.546   9.577   3.530  0.2459  0.0040 -0.1146
 5106W        W 9306   2.185   4.538  10.528  0.1125  0.2873  0.0378
 5107W        W 9307   1.246   5.281  11.036  0.0141 -0.0160  0.0926
 5108W        W 9308   9.964   4.218  11.202 -0.2266  0.0191  0.0077
 5109W        W 9309   6.424   5.376   2.925  0.1240  0.1058  0.0984
 5110W        W 9310   9.926   9.596  10.483 -0.3122 -0.3201 -0.1492
 5111W        W 9311   8.179   4.290   0.731  0.0755  0.0624  0.0710
 5112W        W 9312   2.112   0.952   4.709 -0.1665  0.1428 -0.1786
 5113W        W 9313   5.850   9.975   4.290 -0.2844 -0.0349 -0.0298
 5114W        W 9314   3.411   8.040  12.126  0.0854  0.1314  0.0530
 5115W        W 9315   8.531   3.635  13.056 -0.0251  0.0279 -0.1388
 5116W        W 9316   4.190   7.577   4.514 -0.0319 -0.1933 -0.1243
 5117W        W 9317   9.424   1.165   0.964  0.0264  0.0300 -0.1537
 5118W        W 9318  10.323   0.367   1.371 -0.0819 -0.3803  0.0614
 5119W        W 9319   4.982   0.510   2.348  0.5951  0.3472  0.2764
 5120W        W 9320   2.516   1.450   0.800 -0.1802 -0.0779 -0.0144
 5121W        W 9321   8.593   5.588  13.427 -0.1250 -0.1176 -0.1421
 5122W        W 9322   3.058   0.086   3.842 -0.0199 -0.1179  0.1665
 5123W        W 9323   1.753   9.032   4.089  0.1435  0.0435 -0.3435
 5124W        W 9324   9.232   9.818   2.274 -0.0750  0.3287 -0.3140
 5125W        W 9325   9.429   1.447   2.785  0.1398 -0.1097  0.2445
 5126W        W 9326   2.449   0.608   1.780  0.1573  0.1241  0.1214
 5127W        W 9327   8.314   8.638  13.056 -0.1836 -0.0137  0.1377
 5128W        W 9328   0.090   7.847   1.952 -0.2280  0.0798  0.3485
 5129W        W 9329  10.042   7.787  12.698 -0.0261  0.0274  0.0316
 5130W        W 9330   9.100   4.719   9.785 -0.0663 -0.3329  0.2084
 5131W        W 9331   6.869   9.686   1.171  0.0171 -0.0149  0.2579
 5132W        W 9332   1.873   2.148   3.400  0.1673  0.0267  0.1543
 5133W        W 9333   4.559   2.929   3.348 -0.0123 -0.2446  0.0526
 5134W        W 9334   6.496   9.508   2.541 -0.4268 -0.5333  0.2497
 5135W        W 9335   2.378   1.688   1.373 -0.0570  0.1150 -0.0507
 5136W        W 9336  10.464   3.859   9.217 -0.0270  0.0267  0.0203
 5137W        W 9337   5.672   5.364   4.868  0.0590  0.1106  0.1393
 5138W        W 9338   9.785   2.448  10.925  0.0615 -0.1452  0.0205
 5139W        W 9339   1.022  10.222   0.260 -0.0418 -0.1339  0.0003
 5140W        W 9340   2.321   4.525   9.557 -0.0941 -0.5099 -0.2988
 5141W        W 9341  10.476   2.234   9.444  0.2018  0.1077  0.1778
 5142W        W 9342   9.387   8.676   0.522  0.0459  0.0039 -0.0770
 5143W        W 9343   7.261   9.406   9.533  0.1317  0.0595 -0.2227
 5144W        W 9344   7.434   2.326   1.928 -0.0244  0.0298  0.2769
 5145W        W 9345   7.865   1.289   5.144 -0.0045 -0.1313 -0.1132
 5146W        W 9346   1.328   9.587  11.773 -0.5701  0.1129 -0.0992
 5147W        W 9347   5.713   9.361   3.643 -0.0974 -0.0804 -0.0182
 5148W        W 9348   2.469   1.732   4.495  0.3509  0.0736  0.3803
 5149W        W 9349   3.623   0.486  10.630 -0.1983 -0.1866  0.0611
 5150W        W 9350   1.366   4.106   9.317 -0.3544  0.0360  0.0166
 5151W        W 9351   4.417  10.438   0.490  0.3397  0.1457  0.2703
 5152W        W 9352   0.521   6.176   2.087  0.3660  0.1463  0.0779
 5153W        W 9353   1.065   8.707   2.328 -0.2314  0.0226 -0.1935
 5154W        W 9354   5.068   0.877   1.734 -0.1029  0.2004 -0.0556
 5155W        W 9355   2.185   7.867  12.382  0.3298  0.0153 -0.1540
 5156W        W 9356   1.874   1.392   2.821  0.0188 -0.0703 -0.0609
 5157W        W 9357   0.225   3.621   0.970 -0.3317 -0.0577 -0.1256
 5158W        W 9358   2.466   5.810   3.447  0.0359 -0.1211 -0.5282
 5159W        W 9359   2.831   5.943  10.595  0.1810 -0.0488  0.1090
 5160W        W 9360   3.226   2.951   3.933 -0.0446 -0.3221 -0.0854
 5161W        W 9361   3.351   9.484  13.110 -0.0201 -0.1857  0.4966
 5162W        W 9362   5.904   2.661   1.770 -0.0460  0.3285 -0.0669
 5163W        W 9363   7.679   9.023   2.271  0.3194 -0.3777 -0.1009
 5164W        W 9364   3.714   0.999  10.625  0.3834  0.1525  0.3115
 5165W        W 9365   4.312   7.273   1.604 -0.0960  0.0701 -0.1454
 5166W        W 9366   6.746   4.849   9.091 -0.1906  0.3250 -0.2038
 5167W        W 9367   5.122   2.237   2.814 -0.0090  0.0519 -0.0441
 5168W        W 9368   7.676   6.595   3.897  0.0747  0.0029 -0.0922
 5169W        W 9369   2.680   4.360   3.807 -0.0561 -0.1257 -0.1017
 5170W        W 9370   4.245   4.426  10.294  0.1541 -0.0003 -0.3467
 5171W        W 9371   9.168   4.345  10.139 -0.0161 -0.0933 -0.1285
 5172W        W 9372   7.453   5.136   1.974 -0.1353 -0.1380 -0.0219
 5173W        W 9373  10.134   3.170   2.599  0.0536  0.2754  0.4761
 5174W        W 9374   2.943   3.339   9.912 -0.0348  0.1314 -0.0817
 5175W        W 9375   8.688   3.737   3.624  0.1024 -0.1344  0.0724
 5176W        W 9376   7.787   6.534   8.841  0.1437 -0.0567 -0.2429
 5177W        W 9377   6.158   9.105   2.329 -0.0410  0.3707  0.0280
 5178W        W 9378   5.578   1.395  11.272  0.1641 -0.0127 -0.0580
 5179W        W 9379   2.317   1.207  11.190 -0.2491 -0.1269 -0.4284
 5180W        W 9380   7.853   5.603  10.839 -0.0849 -0.0313 -0.2473
 5181W        W 9381   7.656   7.552   1.119 -0.0452 -0.4614 -0.0760
 5182W        W 9382   2.566   5.280   9.576  0.3274 -0.2417  0.1334
 5183W        W 9383   4.069   0.104   9.783  0.0840  0.0734  0.2102
 5184W        W 9384   2.813   7.066   3.081 -0.1440 -0.1433  0.0014
 5185W        W 9385   6.673   2.317   9.241 -0.0520 -0.1446 -0.0569
 5186W        W 9386   3.278   1.961   1.250 -0.1459  0.0308 -0.1201
 5187W        W 9387   7.449   6.238   4.195 -0.0662  0.3518 -0.0320
 5188W        W 9388   9.159   3.483   9.605  0.0590 -0.0699  0.0065
 5189W        W 9389   3.458   6.361   2.072  0.4167 -0.0260 -0.0065
 5190W        W 9390   0.776   6.028   2.903 -0.1682  0.0232 -0.2795
 5191W        W 9391   3.064   9.239   0.304 -0.1713  0.0500  0.0020
 5192W        W 9392   0.631   0.503   3.545 -0.0450 -0.2974  0.2032
 5193W        W 9393   2.986   1.363  13.413 -0.0625 -0.0114 -0.0007
 5194W        W 9394   8.403   2.526  10.594 -0.1558 -0.0895  0.0514
 5195W        W 9395   9.041   0.920   2.797  0.1071  0.3046  0.4523
 5196W        W 9396   0.815   0.183   0.360  0.0084 -0.1381 -0.2962
 5197W        W 9397   1.350   2.779   2.192  0.1204 -0.0235 -0.1490
 5198W        W 9398   5.923   5.744   0.311 -0.2375 -0.0450 -0.3339
 5199W        W 9399   4.118   8.211   0.860  0.0345 -0.1329 -0.1064
 5200W        W 9400  10.371   5.081   2.521  0.2489  0.0356  0.1857
 5201W        W 9401   4.219   1.675   8.449  0.1569  0.0162  0.3228
 5202W        W 9402   4.684   4.827   4.905  0.1286 -0.4192 -0.2374
 5203W        W 9403   1.490   2.159   1.259  0.0758 -0.0062  0.3223
 5204W        W 9404   8.575   2.492   5.467  0.2066 -0.0215 -0.0274
 5205W        W 9405   9.486   2.867   0.202 -0.1797 -0.1858 -0.0436
 5206W        W 9406   4.560   0.475   1.233 -0.1585 -0.0241  0.1172
 5207W        W 9407   4.851   8.721   8.585 -0.1234  0.2452  0.0877
 5208W        W 9408   6.864   6.717  10.436  0.4301 -0.4397 -0.2128
 5209W        W 9409   1.183   1.249   9.237 -0.0718  0.0747 -0.1892
 5210W        W 9410   0.701   3.918   4.760 -0.2870  0.0567  0.1345
 5211W        W 9411   3.757   0.909   9.229 -0.0086 -0.0711 -0.0938
 5212W        W 9412   6.652   8.994  11.306  0.0930 -0.1785  0.2771
 5213W        W 9413   2.147   4.987   9.431 -0.0441  0.4875  0.2287
 5214W        W 9414   6.259   8.378   3.046  0.1226  0.0200 -0.1554
 5215W        W 9415   1.210   7.691  12.428 -0.1634 -0.0178  0.2046
 5216W        W 9416   8.570   3.896   0.582  0.1006  0.0589  0.1714
 5217W        W 9417   5.061   1.686  13.340  0.2380 -0.0516 -0.1777
 5218W        W 9418   6.092   3.094  10.747  0.0252  0.0021  0.0338
 5219W        W 9419   2.375   5.840  10.957 -0.3790 -0.0407 -0.0801
 5220W        W 9420   0.143   9.220   0.269 -0.0472  0.0297  0.2147
 5221W        W 9421   2.432   8.951  10.551 -0.2085  0.0874  0.0921
 5222W        W 9422   4.599   3.344   1.392 -0.0623 -0.2875 -0.0456
 5223W        W 9423  10.013   2.322  12.377  0.4431  0.2163 -0.0222
 5224W        W 9424   3.446   2.011   0.414  0.1008 -0.0258  0.1509
 5225W        W 9425   4.271   3.648   0.775 -0.0987  0.0292 -0.1413
 5226W        W 9426   6.500   1.221  11.119  0.0738 -0.2016  0.2127
 5227W        W 9427   3.816   3.019   1.413 -0.2593 -0.1242  0.2038
 5228W        W 9428   1.763   0.569   0.634  0.1111  0.3622 -0.0947
 5229W        W 9429  10.473   3.495   0.067 -0.1904  0.1356 -0.2722
 5230W        W 9430   8.805   9.069   6.699 -0.5398  0.1537  0.1023
 5231W        W 9431   2.916   8.300   3.631 -0.1587 -0.1373 -0.0419
 5232W        W 9432   1.093   3.524   5.634 -0.1781  0.4981 -0.4784
 5233W        W 9433   4.917   8.147  11.464 -0.1672 -0.2093  0.2220
 5234W        W 9434   6.237   0.229   1.512 -0.0521  0.1098 -0.1294
 5235W        W 9435   9.866   7.661  11.774  0.0721 -0.0263  0.0444
 5236W        W 9436   8.122   6.278   3.085 -0.3197 -0.0891  0.0183
 5237W        W 9437   3.152   5.765   0.314  0.2677 -0.0758  0.2691
 5238W        W 9438   1.900   4.717  11.729  0.0294 -0.1867  0.2027
 5239W        W 9439   7.433   5.823   2.595  0.1184  0.1124  0.1704
 5240W        W 9440   8.734   3.401   1.522 -0.0264  0.0382 -0.2866
 5241W        W 9441   6.620   9.014   2.536  0.0095 -0.2428  0.1879
 5242W        W 9442   1.928   6.899  11.851 -0.2074 -0.0093 -0.3028
 5243W        W 9443   0.152   7.292   3.076  0.1085  0.0005  0.0820
 5244W        W 9444   5.358   0.582   0.382  0.4073  0.0291  0.0205
 5245W        W 9445   8.035   1.809   3.074 -0.0645 -0.0679  0.3023
 5246W        W 9446   9.330   6.365  10.836  0.0249 -0.1523  0.0509
 5247W        W 9447   4.935   1.311   4.545  0.3692  0.1760  0.0280
 5248W        W 9448   4.516   7.681  12.203 -0.1165 -0.0273 -0.1007
 5249W        W 9449   5.046   8.934   0.868 -0.1007 -0.0424  0.1523
 5250W        W 9450   1.688   6.005   1.350  0.2268 -0.2468 -0.0364
 5251W        W 9451   3.802   0.298   2.756  0.1260  0.1218  0.3098
 5252W        W 9452   4.757   8.061   4.608 -0.0690 -0.1580  0.2476
 5253W        W 9453   4.048   2.725   1.031 -0.1040  0.0842 -0.2270
 5254W        W 9454   8.750   9.991   3.110 -0.4691  0.0101  0.1391
 5255W        W 9455   0.598  10.260  12.805 -0.0174  0.0604  0.3416
 5256W        W 9456   4.163   9.397   2.931  0.0277 -0.0309 -0.0408
 5257W        W 9457   0.883   7.931  13.347  0.1064 -0.3117  0.1128
 5258W        W 9458   0.331   0.519   1.960  0.2702  0.0052  0.4464
 5259W        W 9459   4.398   8.772   1.607  0.0218  0.3992  0.2352
 5260W        W 9460   8.755   8.987  11.909 -0.0009  0.1351 -0.0428
 5261W        W 9461   9.395   1.550   8.689  0.2819 -0.2465  0.0799
 5262W        W 9462   7.289   6.997   2.330 -0.0422 -0.0391  0.1809
 5263W        W 9463   8.225   1.519  10.137  0.0445 -0.0347 -0.0507
 5264W        W 9464   8.854   6.536  12.841 -0.1762  0.0621  0.1269
 5265W        W 9465   3.815   6.418   1.722  0.1362 -0.1395  0.0618
 5266W        W 9466   9.767   3.707  11.374 -0.1329 -0.0018  0.0695
 5267W        W 9467   4.479   8.711  10.761  0.1074 -0.1249 -0.0986
 5268W        W 9468   9.169   7.108  11.382 -0.0447 -0.0385  0.0029
 5269W        W 9469   0.312   8.387   0.324  0.1710  0.0276  0.0585
 5270W        W 9470   3.700   9.924   1.366  0.0870 -0.2817 -0.0861
 5271W        W 9471   0.236   9.771   2.644 -0.1188  0.2808 -0.0955
 5272W        W 9472   6.714   3.129   2.245  0.0767  0.1144  0.0293
 5273W        W 9473   1.529   0.661  12.353  0.0575  0.3608  0.0535
 5274W        W 9474   7.613   6.200  11.107  0.2300 -0.1062  0.4353
 5275W        W 9475   5.179   6.170   4.563 -0.2539 -0.1136 -0.2768
 5276W        W 9476   8.435   1.662   0.555 -0.0536  0.0754 -0.0071
 5277W        W 9477   6.984   9.516   0.749  0.1928 -0.1825 -0.1254
 5278W        W 9478   4.216   8.088   4.522  0.0716 -0.0445  0.0445
 5279W        W 9479   3.064   8.279   9.463  0.1388  0.0897  0.0005
 5280W        W 9480   5.712   2.586  11.820 -0.2670 -0.0542  0.1362
 5281W        W 9481   1.873   1.865   1.442 -0.1539 -0.0652  0.1541
 5282W        W 9482   6.860   2.148   8.827 -0.1921 -0.0626 -0.2619
 5283W        W 9483   5.533   7.317   1.001  0.1264 -0.1850  0.1655
 5284W        W 9484  10.090   8.486   2.201 -0.0192 -0.1299 -0.1655
 5285W        W 9485   2.742   0.390   0.875  0.0738  0.3448  0.1161
 5286W        W 9486   5.457   8.134  10.308 -0.0663 -0.0282  0.0272
 5287W        W 9487   7.244   8.251   2.766  0.2007  0.2044 -0.0403
 5288W        W 9488   3.709   1.819   4.062  0.4063 -0.1975  0.0247
 5289W        W 9489  10.456  10.114  10.957 -0.1604  0.0498 -0.0643
 5290W        W 9490   1.003   1.984  11.384  0.0846  0.0684  0.0860
 5291W        W 9491   7.603   4.991  10.480  0.1225 -0.4729  0.2466
 5292W        W 9492   7.118   4.568  11.344 -0.1445  0.2895  0.1017
 5293W        W 9493   2.207   1.041   1.982 -0.1880  0.0120  0.4908
 5294W        W 9494   4.208   7.640  11.711  0.1070  0.2597  0.1480
 5295W        W 9495   2.525   6.519   0.520  0.0671  0.3832  0.0797
 5296W        W 9496   8.639   9.521   1.433 -0.0622  0.0653 -0.2220
 5297W        W 9497   6.800   4.802  12.369 -0.0955  0.0486  0.2026
 5298W        W 9498   5.826   6.238  12.378  0.2276  0.1515 -0.1502
 5299W        W 9499   2.609  10.402  13.355  0.2355  0.0506  0.1843
 5300W        W 9500   2.454   3.136   4.277 -0.0232  0.1208  0.1630
 5301W        W 9501   2.103   0.409   3.750 -0.1876  0.0980 -0.0426
 5302W        W 9502   2.966   2.853   0.450  0.2847  0.3351 -0.0569
 5303W        W 9503   7.507   1.739  12.081  0.1541 -0.2558 -0.0460
 5304W        W 9504   1.034  10.052   4.490  0.0240 -0.0430 -0.0746
 5305W        W 9505   5.003   4.799   0.041  0.1827  0.3625  0.1854
 5306W        W 9506   1.456   8.317  12.740  0.2011  0.2393  0.2626
 5307W        W 9507   3.879   7.628   3.643  0.0614 -0.1309 -0.1172
 5308W        W 9508   3.178   9.194   2.068  0.0337 -0.0931  0.0516
 5309W        W 9509   3.105   5.749   0.789  0.2712 -0.2551 -0.1700
 5310W        W 9510   0.611   6.289  10.646 -0.0051  0.0458 -0.2031
 5311W        W 9511   8.429   8.816  11.493 -0.0283  0.3313 -0.1138
 5312W        W 9512   1.789   9.978   3.615 -0.1306 -0.0867  0.0057
 5313W        W 9513   9.897   7.660   8.084  0.1813  0.2089 -0.1491
 5314W        W 9514   8.364   7.549  12.245 -0.1147 -0.0187 -0.0171
 5315W        W 9515   1.848   1.354   3.820 -0.0796 -0.1414 -0.1281
 5316W        W 9516   0.767   7.968   0.393 -0.1070 -0.1611 -0.0357
 5317W        W 9517   0.221   9.997  11.589 -0.3179  0.1447  0.0726
 5318W        W 9518   6.439   2.885   0.305  0.0814 -0.5998 -0.0968
 5319W        W 9519   4.081   0.820   3.723  0.2456  0.2923 -0.0235
 5320W        W 9520   4.226   3.595   4.364 -0.3302 -0.3538 -0.1749
 5321W        W 9521   5.065   4.649   3.271  0.0673 -0.0858  0.0200
 5322W        W 9522   5.897   2.203  12.062 -0.1844  0.0650  0.0659
 5323W        W 9523   6.298   9.579  10.814 -0.0560  0.0157  0.0596
 5324W        W 9524   3.152   4.193  11.204 -0.0393 -0.1392  0.0959
 5325W        W 9525   3.230  10.226  10.789  0.0869 -0.1526 -0.1938
 5326W        W 9526   1.131   0.639   1.472 -0.1763 -0.2714  0.1874
 5327W        W 9527   0.491   7.867  11.861 -0.0597 -0.1052  0.2966
 5328W        W 9528   3.852   4.651   3.371  0.0111  0.1980  0.1940
 5329W        W 9529   7.259   2.355  11.513 -0.3356 -0.2499 -0.2730
 5330W        W 9530   8.421   0.691  11.320 -0.1473  0.1011 -0.5362
 5331W        W 9531   9.939   9.183   1.867 -0.1556 -0.1965 -0.2386
 5332W        W 9532  10.108   1.171   3.308 -0.3965  0.0075 -0.0758
 5333W        W 9533  10.471   2.789  12.716 -0.1359 -0.0633 -0.1165
 5334W        W 9534   1.231   8.106  11.198 -0.3375  0.3188  0.1842
 5335W        W 9535   2.436   0.505  11.741 -0.1039 -0.2417 -0.0620
 5336W        W 9536   4.234   9.052   9.501 -0.3921 -0.0407  0.1441
 5337W        W 9537   0.340   9.306   2.219  0.0079  0.1443 -0.0651
 5338W        W 9538   0.016   4.209  13.009 -0.2063 -0.0577  0.1986
 5339W        W 9539   8.095   3.734   9.822 -0.2171 -0.0090  0.0443
 5340W        W 9540   1.712   0.505   2.883  0.0990 -0.2852 -0.0043
 5341W        W 9541   9.839   8.034  12.207 -0.1722 -0.0082 -0.0854
 5342W        W 9542   5.749   7.803   0.893 -0.1811  0.1755 -0.0077
 5343W        W 9543   9.523   0.804   2.721 -0.0092  0.0457  0.0226
 5344W        W 9544   7.649   7.933  12.763  0.1072 -0.0524  0.3229
 5345W        W 9545   9.237   7.341  13.155  0.0548 -0.2347 -0.2948
 5346W        W 9546   6.328   0.300  10.966  0.0990 -0.0844  0.0173
 5347W        W 9547   1.399   5.858  11.693  0.1208 -0.0534 -0.0622
 5348W        W 9548   9.308   3.085   3.353 -0.0231 -0.3034  0.0922
 5349W        W 9549   0.189   5.718   2.082 -0.2545  0.0563 -0.1186
 5350W        W 9550   4.850   6.407  12.113  0.0823  0.0438  0.2380
 5351W        W 9551   1.722   7.072   1.560  0.3300  0.0450 -0.2491
 5352W        W 9552   6.585   0.408   1.907  0.0524 -0.0939 -0.2438
 5353W        W 9553   6.399   5.093   3.369 -0.2535 -0.1187 -0.1313
 5354W        W 9554   5.348   5.339   2.138  0.3409  0.0953 -0.1540
 5355W        W 9555   4.344   0.038  12.075  0.1578  0.2077 -0.2598
 5356W        W 9556   0.918   4.683   4.381  0.2349 -0.1954  0.2675
 5357W        W 9557   8.865   2.440   0.676 -0.0010  0.3473  0.0284
 5358W        W 9558   1.847   1.270  11.360  0.0964  0.4961  0.2224
 5359W        W 9559   1.910   9.721   2.491 -0.1016  0.0789 -0.1860
 5360W        W 9560   9.040   9.227   1.686  0.3070 -0.4859  0.1515
 5361W        W 9561   9.801   9.298  10.987 -0.1858 -0.0557  0.0358
 5362W        W 9562   7.659   5.663   1.629  0.0890  0.1902  0.3851
 5363W        W 9563   6.484   9.297   0.805  0.1089  0.1478 -0.2776
 5364W        W 9564   7.354   0.947  11.162 -0.1217  0.1467 -0.2095
 5365W        W 9565   9.931   7.336  12.848 -0.0645 -0.0832 -0.0314
 5366W        W 9566   6.032   6.559  12.678 -0.0988  0.5545 -0.2347
 5367W        W 9567   0.473   3.969  12.877  0.2364 -0.2314 -0.0073
 5368W        W 9568   7.135   4.323   0.937  0.0110  0.1709  0.1428
 5369W        W 9569   2.844   5.844   2.473  0.1377  0.0828  0.0088
 5370W        W 9570   6.833   4.239   3.470  0.0686 -0.0034 -0.5488
 5371W        W 9571   0.965   0.312  10.207 -0.0703  0.3220  0.2183
 5372W        W 9572   8.271   9.947   3.586  0.2202 -0.0543 -0.1224
 5373W        W 9573  10.174   8.700  11.537  0.0871  0.1067 -0.1071
 5374W        W 9574   2.917   7.320   4.582  0.1122 -0.2769 -0.0241
 5375W        W 9575   9.244   2.070   8.595  0.2665 -0.0101 -0.2527
 5376W        W 9576   5.100   6.580   1.422  0.1622  0.0569  0.0734
 5377W        W 9577   6.310   5.096  10.124  0.1538 -0.3413 -0.1123
 5378W        W 9578   4.270   5.331  13.188 -0.1161  0.0612  0.0465
 5379W        W 9579   0.628   1.350   1.386 -0.0826 -0.2741 -0.1548
 5380W        W 9580   4.384   4.599  13.021 -0.1335  0.0075 -0.0091
 5381W        W 9581   6.004   6.529   8.620  0.0763 -0.0195  0.2140
 5382W        W 9582   9.730   5.843   2.652  0.2326  0.0609  0.5458
 5383W        W 9583   2.441   6.300   1.865 -0.0972  0.0764  0.2494
 5384W        W 9584   1.186   9.134   1.041  0.0667 -0.2060 -0.1751
 5385W        W 9585   1.185   3.288   0.308  0.2518 -0.1448 -0.1695
 5386W        W 9586   7.260   9.673   0.399  0.0438  0.3925 -0.0673
 5387W        W 9587   8.402   7.528  11.004 -0.1701 -0.1564  0.1214
 5388W        W 9588   1.010   1.863  10.484 -0.1581 -0.0442  0.1393
 5389W        W 9589   3.357  10.399   0.645 -0.1025 -0.1339 -0.2590
 5390W        W 9590   1.800   3.520  13.125 -0.1909 -0.0558 -0.3158
 5391W        W 9591   3.389   2.252  12.024 -0.0430 -0.0969  0.3364
 5392W        W 9592   5.022   2.688   2.134  0.1259 -0.0120 -0.1290
 5393W        W 9593   4.596  10.194  11.497  0.0666 -0.3796  0.1412
 5394W        W 9594   3.057   4.025   2.157 -0.1618 -0.0555  0.1472
 5395W        W 9595   8.292   6.380  11.685 -0.1558 -0.0639  0.1525
 5396W        W 9596   0.182  10.484  11.342  0.0735  0.0644 -0.1668
 5397W        W 9597   6.727   0.765   9.735 -0.3945  0.1468 -0.1033
 5398W        W 9598   6.030   6.250  11.435 -0.0840 -0.0688 -0.4097
 5399W        W 9599   1.415   4.446  13.022  0.0018 -0.1218 -0.1662
 5400W        W 9600   2.319   7.271  10.519  0.3491 -0.1200  0.2289
 5401W        W 9601   8.279   3.831   0.974  0.2705  0.2487 -0.1119
 5402W        W 9602   5.891   0.540   0.661  0.0494  0.0307 -0.0607
 5403W        W 9603   2.460   7.984  11.987  0.2378 -0.2018 -0.1139
 5404W        W 9604   6.138   0.727  10.825  0.2859  0.1524  0.0051
 5405W        W 9605   8.442   6.658   0.383 -0.1013  0.0186  0.3135
 5406W        W 9606   2.826   8.911  13.439  0.0946 -0.1911  0.1202
 5407W        W 9607   2.970  10.154   1.792 -0.0228  0.1678  0.0199
 5408W        W 9608   5.079   4.472   4.494 -0.1085 -0.1062  0.3890
 5409W        W 9609   1.654   0.738   1.198  0.0028 -0.0379  0.2427
 5410W        W 9610   7.272   2.157  12.139  0.1624 -0.0986  0.0681
 5411W        W 9611   7.318   5.361  12.827 -0.0549 -0.0688 -0.1978
 5412W        W 9612   9.864   6.292   2.744 -0.1486 -0.0364  0.1261
 5413W        W 9613   3.124   8.181   1.204  0.2306  0.1085  0.1131
 5414W        W 9614   4.833   2.243  12.773  0.1330 -0.1743  0.0185
 5415W        W 9615   3.380   2.808  12.504 -0.1423 -0.3716 -0.0107
 5416W        W 9616   7.821   0.501   0.020 -0.1410 -0.0180 -0.0292
 5417W        W 9617   1.028   4.355  11.415  0.0950  0.1966 -0.0125
 5418W        W 9618   3.563   3.189  11.218 -0.0726  0.2814 -0.3902
 5419W        W 9619   4.640   3.913   4.201  0.5210 -0.2403 -0.2311
 5420W        W 9620   9.441   9.968  11.325 -0.0940 -0.2262  0.0644
 5421W        W 9621   8.920   8.425   0.326  0.2246 -0.1225  0.2146
 5422W        W 9622   7.192   7.011   0.329 -0.0976 -0.1454 -0.1408
 5423W        W 9623   5.630  10.428  10.611 -0.0069 -0.1056 -0.2601
 5424W        W 9624   7.659   2.178   0.895  0.3009  0.1104 -0.1934
 5425W        W 9625   9.641   5.715   3.824  0.1526 -0.3011 -0.0256
 5426W        W 9626   5.126   3.078   1.535 -0.0716 -0.0154 -0.0564
 5427W        W 9627   8.021   5.782  10.384  0.0569  0.0421 -0.1774
 5428W        W 9628   7.607   0.563  10.909 -0.0372  0.3926  0.0202
 5429W        W 9629   4.659   8.570   0.336  0.0513 -0.0218  0.0214
 5430W        W 9630   4.311   9.282  11.208  0.1458 -0.0516 -0.1116
 5431W        W 9631   7.471   1.704  12.617  0.1773  0.2488 -0.3716
 5432W        W 9632   1.365   2.346   9.134  0.2334  0.1206  0.0668
 5433W        W 9633   0.103   3.687  12.953  0.1759  0.2187 -0.2412
 5434W        W 9634   6.468   0.220  13.370 -0.0611 -0.0249 -0.0717
 5435W        W 9635   7.032   2.925   9.794  0.1657  0.3326  0.0443
 5436W        W 9636   9.072   0.420  10.486 -0.0630  0.0192 -0.2261
 5437W        W 9637   9.104   1.032  11.983  0.0776  0.1588  0.1566
 5438W        W 9638   2.882   1.774   1.460 -0.0465 -0.0480  0.0961
 5439W        W 9639   0.644   1.976  10.177 -0.2394 -0.1101 -0.1983
 5440W        W 9640   2.772   6.398   9.010  0.4450 -0.1074 -0.2536
 5441W        W 9641   5.590   4.551   2.535 -0.0087  0.1474 -0.0399
 5442W        W 9642   3.350   0.060   2.040  0.2391  0.0918  0.0320
 5443W        W 9643   1.064   5.538   4.133 -0.1568  0.1192 -0.0770
 5444W        W 9644   2.268   3.289   8.461 -0.3307  0.2012 -0.2325
 5445W        W 9645   5.181   3.324   0.500 -0.0383 -0.2530 -0.1903
 5446W        W 9646   4.999   2.779  10.453 -0.0696  0.0327 -0.0253
 5447W        W 9647   3.591   8.043  12.663 -0.0484  0.0164  0.1013
 5448W        W 9648   5.419   9.310  10.427  0.3914 -0.0792  0.3374
 5449W        W 9649   6.988  10.215  10.006  0.2831  0.0544 -0.0623
 5450W        W 9650   5.196   5.406   5.037  0.2001 -0.1804 -0.0041
 5451W        W 9651   8.026   3.046   4.456  0.1858 -0.1508  0.0984
 5452W        W 9652   5.903   2.227   4.038 -0.0019  0.1028 -0.1550
 5453W        W 9653   3.051   5.434  12.921 -0.0579 -0.1906 -0.1144
 5454W        W 9654   9.363   5.787  13.334  0.2942  0.0229  0.0790
 5455W        W 9655   5.595   2.775   4.664 -0.4043 -0.3138  0.2268
 5456W        W 9656   8.616   1.444   4.689  0.1321  0.1836  0.0098
 5457W        W 9657   3.639   4.817   9.332  0.3620  0.1431  0.1188
 5458W        W 9658   7.569   6.771  12.846 -0.0324 -0.0980 -0.0716
 5459W        W 9659   5.347   7.687   1.970 -0.1780 -0.1669 -0.1482
 5460W        W 9660   5.052   6.705   1.886 -0.4759 -0.1390 -0.0559
 5461W        W 9661   6.024   4.766   2.938  0.1183 -0.0986 -0.2380
 5462W        W 9662   3.894   5.241   4.626  0.0267  0.0442  0.2839
 5463W        W 9663   9.019   8.153   3.116  0.2581  0.3041  0.1759
 5464W        W 9664   8.520   0.482  11.882  0.1390  0.1279 -0.0948
 5465W        W 9665   7.840   3.440   2.419 -0.0613 -0.0054 -0.0530
 5466W        W 9666   6.912   4.303   1.621 -0.2877  0.2392  0.2339
 5467W        W 9667  10.209   5.435  11.457 -0.0001  0.0206 -0.1099
 5468W        W 9668   0.034   7.556  11.097 -0.2488 -0.0561  0.1837
 5469W        W 9669  10.321   5.258  12.004  0.2949  0.1739 -0.1015
 5470W        W 9670   0.802   1.549  13.445  0.2551 -0.1321 -0.2144
 5471W        W 9671   4.443   6.172  11.678  0.2776 -0.2742 -0.2658
 5472W        W 9672   2.560   6.100   3.930 -0.1700  0.0138 -0.3220
 5473W        W 9673   0.194   8.817  12.326 -0.0349  0.0853 -0.1580
 5474W        W 9674   6.050   6.432   9.147 -0.0209 -0.0338  0.3943
 5475W        W 9675   1.619   0.499   1.608 -0.3198  0.0625  0.2782
 5476W        W 9676   7.231  10.071  10.962  0.2011  0.2479  0.0694
 5477W        W 9677   8.913   6.115  10.755  0.5282  0.1092 -0.0226
 5478W        W 9678   2.001   7.492   9.149  0.0869 -0.2157 -0.0693
 5479W        W 9679   3.379   1.623  13.285 -0.3815 -0.2239 -0.1745
 5480W        W 9680   0.588   3.853   0.571  0.1503 -0.1585  0.1017
 5481W        W 9681   0.451   6.770  12.951  0.1437  0.0126  0.3302
 5482W        W 9682   1.610   4.775  10.759 -0.2212 -0.2198 -0.2201
 5483W        W 9683   8.300   3.036  11.243 -0.0213  0.2221  0.0557
 5484W        W 9684   0.094   2.501   3.072 -0.0246  0.3581 -0.0185
 5485W        W 9685   5.686   5.211   0.256 -0.1864  0.2884 -0.0107
 5486W        W 9686   1.924   4.737   9.920  0.0040  0.2236  0.0635
 5487W        W 9687   8.656   2.206  12.552 -0.0570  0.1055  0.1016
 5488W        W 9688   2.390   3.701   4.039 -0.1951  0.0506 -0.0878
 5489W        W 9689   3.087   0.778   0.796  0.1351  0.1163 -0.1763
 5490W        W 9690   6.782   4.469   9.950  0.2273 -0.0524 -0.1380
 5491W        W 9691   5.991   2.418  10.479  0.1802 -0.0967 -0.2042
 5492W        W 9692   6.791   4.185  13.270  0.0596  0.0695 -0.0201
 5493W        W 9693   3.067   1.039  11.339 -0.1578  0.1328 -0.1715
 5494W        W 9694   1.877   9.370   2.815 -0.0909 -0.2152 -0.3376
 5495W        W 9695  10.142   6.010  10.615 -0.0153 -0.0133  0.0882
 5496W        W 9696   7.936   6.349   0.210 -0.3062  0.2975  0.2116
 5497W        W 9697   0.165   5.472   1.346  0.1580  0.0397  0.3972
 5498W        W 9698   5.570   8.257   4.342 -0.2157  0.2126  0.1434
 5499W        W 9699   2.745  10.036   9.346  0.2866 -0.3351  0.3117
 5500W        W 9700   3.221   3.040   2.035  0.1204 -0.0146  0.2703
 5501W        W 9701   5.818   2.963   9.735  0.0631 -0.3937 -0.2640
 5502W        W 9702   3.572   0.254   0.170  0.1714  0.2871 -0.0802
 5503W        W 9703   7.166   6.499   4.589  0.0712  0.0955  0.2438
 5504W        W 9704   0.972   3.296   4.224  0.1939 -0.3093  0.0991
 5505W        W 9705   3.694   6.806   3.504 -0.0812  0.0423 -0.0218
 5506W        W 9706   4.288   4.321  11.922  0.1664  0.1597 -0.0797
 5507W        W 9707   7.094   8.542  12.487 -0.0447  0.1942  0.3326
 5508W        W 9708   4.756   6.261  13.080  0.0200  0.2614 -0.0932
 5509W        W 9709   8.578   1.921   0.147 -0.3654  0.2479 -0.1455
 5510W        W 9710   9.610   1.284  11.171  0.2253 -0.0787  0.2990
 5511W        W 9711   8.647   2.798   3.708  0.5392 -0.1632 -0.1252
 5512W        W 9712   4.855   0.408   4.680 -0.1384  0.3332  0.0144
 5513W        W 9713   7.386   9.824   9.949  0.3714 -0.3131 -0.2031
 5514W        W 9714   5.337   4.651  10.602 -0.2922 -0.2189  0.0718
 5515W        W 9715   5.188   2.402   4.705 -0.3500 -0.7319 -0.2667
 5516W        W 9716   0.418   7.745  12.923 -0.1209  0.0154  0.2016
 5517W        W 9717   4.124  10.233  10.632 -0.2296  0.0601  0.1438
 5518W        W 9718   0.213   4.192  10.169  0.2523  0.2778  0.0430
 5519W        W 9719   6.021   7.184  13.033  0.0293 -0.1529  0.0046
 5520W        W 9720   2.431   5.516   5.095  0.0911  0.1985  0.0937
 5521W        W 9721   3.599   1.261  12.172  0.0356 -0.0925 -0.0192
 5522W        W 9722   6.253   9.003   9.577 -0.1230 -0.3191 -0.0221
 5523W        W 9723   8.635   7.993  12.847 -0.2841  0.0387 -0.0012
 5524W        W 9724   3.476   7.526   0.277 -0.2308 -0.0310  0.0848
 5525W        W 9725   7.383   5.981   1.277  0.1478  0.0562  0.1061
 5526W        W 9726   4.639   5.243  10.724 -0.0697  0.1954 -0.1843
 5527W        W 9727   9.955   6.004   4.115 -0.0352 -0.0344  0.2735
 5528W        W 9728   0.368   1.867   3.728  0.0592 -0.3025 -0.0512
 5529W        W 9729   4.816   5.245  13.152  0.1384 -0.0031 -0.3175
 5530W        W 9730  10.415   7.427   7.857 -0.0887 -0.4568 -0.0667
 5531W        W 9731   9.249   4.891  11.413  0.3173  0.2813  0.2230
 5532W        W 9732   4.924   2.905  12.093 -0.0650  0.0211 -0.2034
 5533W        W 9733   9.697   8.949  12.349  0.2133  0.0654  0.0456
 5534W        W 9734   5.399   2.013   4.186  0.3405 -0.2005  0.0004
 5535W        W 9735   1.243   9.923   1.621  0.1783 -0.1001 -0.3044
 5536W        W 9736   1.657   1.839   9.111  0.0054 -0.0316 -0.3843
 5537W        W 9737   8.336   7.138  11.853  0.2380  0.0364  0.2225
 5538W        W 9738   2.804   8.872   2.211  0.6173 -0.0211  0.3900
 5539W        W 9739   1.711   2.029   0.036  0.0413 -0.1029  0.2364
 5540W        W 9740   5.170   5.021  12.140 -0.0123 -0.0690  0.1680
 5541W        W 9741   5.649   0.054  10.122  0.2794  0.0329 -0.0796
 5542W        W 9742   9.762   5.339   0.682  0.1912  0.2802 -0.0851
 5543W        W 9743   3.170   6.851   4.525 -0.0410  0.0783 -0.1690
 5544W        W 9744   7.120   6.528  11.131 -0.2359 -0.1861 -0.1122
 5545W        W 9745   6.349   2.143   3.300  0.0233  0.4320 -0.0410
 5546W        W 9746   3.554   0.024   4.803 -0.0581 -0.3688  0.1794
 5547W        W 9747   3.995  10.366   1.846 -0.0895 -0.1060 -0.1262
 5548W        W 9748   3.489   0.683   2.721 -0.0393 -0.1055  0.2934
 5549W        W 9749   7.074   5.655   3.385 -0.0278  0.1688  0.0581
 5550W        W 9750   4.004   7.047   3.805  0.2390  0.0504 -0.0937
 5551W        W 9751   8.011   2.102   9.470  0.0521  0.0602 -0.2521
 5552W        W 9752   2.263   6.999  10.913 -0.2108  0.0290 -0.2139
 5553W        W 9753   9.066   5.386  11.253 -0.3998  0.0273 -0.2670
 5554W        W 9754   4.306   6.129   3.510 -0.2175  0.3520 -0.1242
 5555W        W 9755   5.623   2.815  13.439 -0.0951  0.2130 -0.3118
 5556W        W 9756   0.004   3.149   9.735  0.2162 -0.3406  0.2274
 5557W        W 9757   5.599   0.390  13.046 -0.2898  0.0989  0.0197
 5558W        W 9758   2.876   0.537   1.406  0.3470  0.2868 -0.2706
 5559W        W 9759   2.309   1.384   4.935  0.1043  0.0435  0.0170
 5560W        W 9760   6.964   0.701   1.959 -0.0108 -0.6325  0.0832
 5561W        W 9761   6.547   8.735   2.057 -0.0270 -0.4589 -0.0779
 5562W        W 9762   2.175   7.100   9.565 -0.2592  0.3341  0.2081
 5563W        W 9763   9.641   7.243   5.939 -0.2787  0.0238  0.0785
 5564W        W 9764   3.709   4.217   9.490  0.3320 -0.3327 -0.2245
 5565W        W 9765   6.915   9.675   9.339  0.0626 -0.3194  0.0535
 5566W        W 9766   2.900   1.369  10.005 -0.0039 -0.2168 -0.0165
 5567W        W 9767   3.274   9.639   0.092  0.1963 -0.1195 -0.0462
 5568W        W 9768   5.482   1.774   1.037  0.0644 -0.2724  0.1723
 5569W        W 9769   9.694   2.673   9.992 -0.2624  0.1787 -0.2473
 5570W        W 9770   3.865   9.748   9.268  0.0853  0.0925 -0.0425
 5571W        W 9771   7.083   6.741  12.177  0.1580 -0.2739  0.4592
 5572W        W 9772  10.025   1.849  10.312 -0.3063 -0.0553  0.0570
 5573W        W 9773   4.297   2.210   2.387  0.0969 -0.0637 -0.0088
 5574W        W 9774   8.457   0.342   3.977  0.1889  0.1128  0.0597
 5575W        W 9775   3.354   3.617   0.645 -0.4000  0.0877  0.1645
 5576W        W 9776   1.059   2.869   3.475  0.1084  0.5466  0.1546
 5577W        W 9777   9.671   1.522  10.178  0.1185  0.3945  0.0421
 5578W        W 9778   7.693   7.225   1.921 -0.1738 -0.3663 -0.1162
 5579W        W 9779   7.806   2.963   0.100  0.0268 -0.1592  0.0403
 5580W        W 9780   0.806   2.266   4.227  0.1948  0.1051  0.1139
 5581W        W 9781   8.998  10.423   3.013  0.1075 -0.0074  0.4407
 5582W        W 9782   6.661   3.815   4.409 -0.2725 -0.0515  0.1915
 5583W        W 9783   8.623   5.236   9.166 -0.3744  0.0762  0.4428
 5584W        W 9784   3.405   7.660   3.415 -0.0270 -0.1538  0.0905
 5585W        W 9785   9.813   8.023  13.409 -0.0372 -0.0026 -0.0266
 5586W        W 9786   6.036   8.959  12.476 -0.0766 -0.1290 -0.3910
 5587W        W 9787   0.759   5.175   0.368  0.0072  0.0315  0.0457
 5588W        W 9788   0.605   5.869  10.936  0.3238 -0.2037  0.1744
 5589W        W 9789   1.885   5.149   3.317 -0.1968  0.0147  0.1417
 5590W        W 9790   4.404   0.448  12.783  0.0677  0.1203 -0.2697
 5591W        W 9791   2.926  10.442  12.369  0.1244 -0.2237  0.0701
 5592W        W 9792   5.762   6.178   1.640 -0.1889 -0.3247  0.0143
 5593W        W 9793   1.137   8.267   0.142 -0.0279  0.1045 -0.0752
 5594W        W 9794   8.128   9.747  11.020  0.0568  0.3049  0.0952
 5595W        W 9795   6.084   3.152   3.830  0.2827  0.2918 -0.1662
 5596W        W 9796   1.451   3.562   3.321  0.2258  0.0794  0.0413
 5597W        W 9797   9.538   9.469  12.946  0.2236 -0.1860 -0.1973
 5598W        W 9798   4.431   7.519   3.660  0.1211  0.0276 -0.2498
 5599W        W 9799   6.889   5.508  12.573 -0.1103  0.0392  0.1066
 5600W        W 9800   7.180   6.477   1.782  0.4652 -0.0090  0.0344
 5601W        W 9801   7.591   9.707   0.851 -0.0446  0.0602 -0.1107
 5602W        W 9802   1.425   2.196  10.475  0.1018 -0.1553  0.1868
 5603W        W 9803   5.209   7.247   3.755 -0.3472 -0.1639  0.3172
 5604W        W 9804   6.325   0.361   3.622  0.1615  0.0604 -0.1342
 5605W        W 9805   0.693   8.838  13.100 -0.2493 -0.0496  0.3792
 5606W        W 9806   2.490   4.111  11.813 -0.4901  0.0347 -0.2915
 5607W        W 9807   0.876   7.632   0.700 -0.1102  0.1865  0.0901
 5608W        W 9808   5.101   7.861   1.528  0.0902  0.1192 -0.2261
 5609W        W 9809   4.215   5.599  12.455  0.1569 -0.1300 -0.1695
 5610W        W 9810   1.247   7.531   4.227 -0.3232 -0.2275 -0.1776
 5611W        W 9811   6.032   4.254   2.922 -0.2456 -0.2870 -0.3833
 5612W        W 9812   1.940   1.307   9.804  0.0500 -0.0584  0.1584
 5613W        W 9813   8.534   5.469   3.569 -0.0831  0.1897 -0.1745
 5614W        W 9814   1.992   0.496   2.278  0.2120  0.3060  0.0415
 5615W        W 9815   8.971   0.898   1.267  0.1295 -0.0766  0.4750
 5616W        W 9816   0.284   3.118   4.840  0.1530  0.1879 -0.1765
 5617W        W 9817   8.308   4.634   2.150  0.1611 -0.0030  0.1382
 5618W        W 9818   9.752   7.978  11.401  0.1747 -0.2209 -0.1889
 5619W        W 9819   0.054   1.319   9.134  0.5625  0.3357  0.4196
 5620W        W 9820   2.722   0.335   4.292 -0.0235 -0.1243  0.0259
 5621W        W 9821   4.319   4.676   3.390 -0.0274 -0.1305  0.1080
 5622W        W 9822   0.616   9.400   0.444  0.0835 -0.0076  0.1275
 5623W        W 9823   1.619   2.877   1.767 -0.0541  0.1069 -0.0936
 5624W        W 9824   2.712   1.405  11.563 -0.2570 -0.0728 -0.1668
 5625W        W 9825   6.088   5.138  10.582 -0.3595  0.1488 -0.0066
 5626W        W 9826   7.823   4.445   0.354  0.0783 -0.1109 -0.2840
 5627W        W 9827   0.997   4.722   3.885  0.1026  0.0396 -0.0651
 5628W        W 9828   3.579   2.677  12.051 -0.2546 -0.0219  0.0731
 5629W        W 9829   2.891  10.366  12.975 -0.3492 -0.1201 -0.0474
 5630W        W 9830   7.513   3.998  10.283  0.1710  0.2072  0.2219
 5631W        W 9831   0.443   6.053   1.596 -0.0296  0.0907 -0.0505
 5632W        W 9832   8.715   8.119   9.922  0.0730 -0.0478  0.1660
 5633W        W 9833   3.230   1.332   2.342 -0.2205 -0.1586  0.0423
 5634W        W 9834   1.569   5.471   1.871 -0.2841 -0.0653 -0.0460
 5635W        W 9835   2.150   6.208   9.164  0.0660 -0.3644  0.0813
 5636W        W 9836   7.274   8.250   2.205 -0.0603 -0.0054 -0.0791
 5637W        W 9837   3.584   8.228   0.939  0.1229 -0.2467 -0.0044
 5638W        W 9838   0.956   2.355  10.535  0.0582  0.0577  0.0802
 5639W        W 9839   9.360   1.723  10.853  0.1190  0.3570 -0.0745
 5640W        W 9840   2.979   0.669   9.277 -0.0022  0.2258  0.1710
 5641W        W 9841   0.530   1.817   1.328 -0.1945 -0.0691  0.0418
 5642W        W 9842   3.692   7.966   9.374 -0.0223  0.0506 -0.0471
 5643W        W 9843   8.182  10.277  10.795  0.0942 -0.0982  0.3945
 5644W        W 9844   7.830   1.234   1.687  0.2137  0.2157 -0.3108
 5645W        W 9845   3.219   5.400   1.768 -0.0104  0.0028 -0.0236
 5646W        W 9846   3.239   6.589  11.044 -0.3319  0.0308 -0.1090
 5647W        W 9847   7.043   8.339   9.305  0.2178  0.1581  0.4604
 5648W        W 9848   8.410   1.257  10.612 -0.1905 -0.1269  0.0545
 5649W        W 9849   3.605   1.498  11.684 -0.4649 -0.2363 -0.4394
 5650W        W 9850   4.746   3.294   0.831  0.0510  0.0308  0.2114
 5651W        W 9851   5.050   0.833   4.666  0.5267  0.1566  0.2390
 5652W        W 9852   4.798   9.325  11.118 -0.1537 -0.1582  0.1271
 5653W        W 9853   4.207   3.261   3.573  0.1065 -0.4023 -0.2500
 5654W        W 9854   8.369   2.186   3.025 -0.2792  0.0298 -0.0845
 5655W        W 9855   4.320   3.996   2.180  0.1142  0.0885 -0.2579
 5656W        W 9856   4.293   8.812  10.062 -0.2076 -0.2799  0.2800
 5657W        W 9857   2.037   5.463  10.431  0.1031  0.3005  0.1642
 5658W        W 9858   2.049   5.216   1.239 -0.1392  0.0417 -0.0064
 5659W        W 9859   9.779   3.829   0.566 -0.0182 -0.1759  0.1514
 5660W        W 9860   7.132   7.483   9.879 -0.2907  0.1971 -0.0385
 5661W        W 9861   0.419   5.080   3.686 -0.0882  0.0622  0.3216
 5662W        W 9862   7.599   2.350  10.685  0.0507  0.2069  0.0012
 5663W        W 9863   1.573   4.300   8.903 -0.1450 -0.1891  0.1894
 5664W        W 9864   2.197   5.282  12.398 -0.1147 -0.1404  0.5259
 5665W        W 9865   1.703   0.122   2.584 -0.0067  0.3668  0.2160
 5666W        W 9866   7.568   6.690   4.382 -0.1594  0.2833  0.3265
 5667W        W 9867   0.371   7.867   2.449 -0.0723  0.0458 -0.2686
 5668W        W 9868   9.801   0.911  10.838  0.3057  0.0919 -0.2668
 5669W        W 9869   8.007   0.122   9.741  0.1278 -0.3973  0.1310
 5670W        W 9870   5.958   6.402  13.150  0.1433 -0.0040 -0.1765
 5671W        W 9871   5.844   8.132   3.226 -0.3209 -0.1129  0.1963
 5672W        W 9872   3.396   0.522  12.947 -0.2116  0.2948 -0.1283
 5673W        W 9873   5.671   1.029   9.965 -0.1213  0.3111 -0.2571
 5674W        W 9874   1.618  10.333   9.922 -0.2940  0.1768  0.0727
 5675W        W 9875   4.975   9.151  10.660 -0.4388  0.0398  0.0026
 5676W        W 9876   4.573   6.803   9.156  0.0817 -0.1962  0.0080
 5677W        W 9877   4.229  10.140   4.868 -0.2538 -0.2980  0.0166
 5678W        W 9878  10.228   2.039   3.022 -0.1722 -0.0710  0.1546
 5679W        W 9879   4.924   5.522   9.155 -0.0500 -0.1270  0.0264
 5680W        W 9880   5.239   6.521   0.929  0.1313  0.1580 -0.0000
 5681W        W 9881   3.819   7.872   0.433  0.2964  0.1388  0.0587
 5682W        W 9882   8.462   6.227   0.716 -0.2049 -0.1032  0.0193
 5683W        W 9883   5.374  10.173   2.983  0.2867  0.1690  0.0863
 5684W        W 9884   2.263   5.752  12.581 -0.0315  0.0032 -0.1547
 5685W        W 9885   1.098   7.264   1.062  0.4268 -0.1593  0.3234
 5686W        W 9886  10.421   1.901   3.525  0.1329  0.0945 -0.0651
 5687W        W 9887   4.104   2.418   4.155  0.1461  0.1928 -0.1659
 5688W        W 9888   0.381   1.104   9.473 -0.2642 -0.2806 -0.1546
 5689W        W 9889   1.555   4.666  10.266  0.1087  0.1281 -0.0465
 5690W        W 9890   9.419   6.064   9.994  0.0499  0.1103  0.1142
 5691W        W 9891   9.259   5.755   2.334 -0.2430  0.1476 -0.1195
 5692W        W 9892   3.954   9.773   3.255  0.1894 -0.0845  0.0556
 5693W        W 9893   3.708   5.507  11.172 -0.0096  0.1726 -0.0389
 5694W        W 9894   7.332   2.929   8.399  0.1387 -0.3846 -0.1855
 5695W        W 9895   5.232   2.971  12.568  0.1333  0.0350 -0.0804
 5696W        W 9896   2.071  10.121   1.704  0.0553  0.0799  0.0198
 5697W        W 9897  10.329   6.865   1.585 -0.2573 -0.0864  0.1342
 5698W        W 9898   8.228   6.264  12.277  0.2647 -0.2302 -0.1729
 5699W        W 9899   6.461   0.923   1.993  0.3540 -0.1416  0.0338
 5700W        W 9900   2.897   6.430  10.348  0.2849 -0.2766  0.1748
 5701W        W 9901   2.770   7.977   0.965  0.1062  0.0075  0.0229
 5702W        W 9902   1.060   8.682   1.312  0.0598 -0.2888 -0.0619
 5703W        W 9903   9.102   6.273  10.286  0.2287 -0.0332  0.0845
 5704W        W 9904   9.271  10.366  10.397 -0.2567  0.3221  0.0536
 5705W        W 9905   1.440   1.159   9.877  0.0971 -0.2985 -0.0652
 5706W        W 9906   0.316   3.980  13.375  0.0385  0.1284  0.2945
 5707W        W 9907   3.286   1.536   4.871  0.0827  0.4110  0.1041
 5708W        W 9908   2.528   5.714  13.016 -0.0776 -0.1920 -0.0302
 5709W        W 9909   7.946   2.791   9.068 -0.5091 -0.4678 -0.3385
 5710W        W 9910   7.866   8.606   9.495 -0.1141  0.3074  0.1323
 5711W        W 9911   0.879  10.479   2.535 -0.0784 -0.2994 -0.2842
 5712W        W 9912   5.864   0.371   4.073  0.1071  0.0676 -0.0518
 5713W        W 9913   6.353   1.521  10.366  0.0743  0.1278  0.0816
 5714W        W 9914   5.818   4.874  11.324  0.0674  0.2585  0.0982
 5715W        W 9915   6.429   9.572  12.137  0.0449 -0.1779  0.0960
 5716W        W 9916   6.578   3.060   4.925  0.2482  0.0300  0.3761
 5717W        W 9917   5.325   8.269  11.650 -0.0503  0.1112 -0.0130
 5718W        W 9918   8.239   6.394  13.268  0.1953 -0.0622  0.1601
 5719W        W 9919   1.445   4.990   0.899 -0.2604  0.1802 -0.1549
 5720W        W 9920   9.785   4.537   3.129  0.0974 -0.2555 -0.2754
 5721W        W 9921   6.897   1.759  12.690 -0.1981  0.1134  0.2847
 5722W        W 9922   4.311   0.928  10.660 -0.0245 -0.3318 -0.0069
 5723W        W 9923   8.006   2.589   4.166  0.0150  0.2364 -0.2486
 5724W        W 9924   0.925   9.779  10.139  0.1825  0.0000 -0.0834
 5725W        W 9925   5.042   0.401  11.275  0.2636  0.1339  0.1445
 5726W        W 9926   9.206   1.253  10.338 -0.1748  0.4353  0.0155
 5727W        W 9927   0.841   1.381   4.609  0.0052 -0.0179  0.1619
 5728W        W 9928   9.243   4.110  12.835  0.0487  0.1123  0.0067
 5729W        W 9929   2.812   3.743   3.101  0.2796  0.0181  0.0487
 5730W        W 9930   1.494  10.072  11.770  0.4019 -0.0905 -0.0987
 5731W        W 9931   0.779   3.784   9.246  0.0322  0.1072  0.0994
 5732W        W 9932   7.034   3.741  13.225  0.1460  0.2719  0.1332
 5733W        W 9933   3.789   2.558   2.571 -0.4273 -0.1101 -0.4097
 5734W        W 9934   7.851  10.187  12.709  0.1515 -0.0872  0.1139
 5735W        W 9935   6.870   2.630  11.356  0.0264  0.0702  0.6218
 5736W        W 9936   6.718  10.314  13.412  0.1889 -0.1116  0.2542
 5737W        W 9937   5.119   2.506  11.798 -0.1150 -0.2968 -0.2327
 5738W        W 9938   1.542   0.162  11.516 -0.1553 -0.0939 -0.0688
 5739W        W 9939   0.009   2.567   1.942 -0.2488 -0.1037 -0.1000
 5740W        W 9940   0.963   0.012   8.967  0.0571  0.1159  0.0073
 5741W        W 9941   4.585   5.437   4.261 -0.3080  0.0035 -0.3354
 5742W        W 9942   1.620   5.048   1.510 -0.0657 -0.1227  0.3843
 5743W        W 9943   5.530   1.814   4.774  0.1159  0.1627 -0.0065
 5744W        W 9944   4.142   7.874  10.882  0.1793  0.1255  0.1407
 5745W        W 9945   4.259  10.357   2.493  0.0742  0.0195  0.0416
 5746W        W 9946   1.380   1.579   0.001 -0.0632  0.1986  0.1352
 5747W        W 9947   6.102   5.794   2.893  0.0436 -0.2191 -0.0016
 5748W        W 9948   0.938   2.614   2.445 -0.2028  0.0613  0.2508
 5749W        W 9949   6.302   7.239   8.957 -0.2283  0.1732  0.0472
 5750W        W 9950   9.217   4.271  13.395  0.0011 -0.2072 -0.1568
 5751W        W 9951   8.286   5.527   3.156  0.1001 -0.1265  0.0645
 5752W        W 9952   9.177   9.821  12.879  0.1008 -0.2772  0.3727
 5753W        W 9953   9.027   4.542   3.553 -0.1401  0.1849 -0.2470
 5754W        W 9954   0.544   3.813  10.222  0.0534  0.0432 -0.0403
 5755W        W 9955   8.399   1.809  12.675  0.2642 -0.0776  0.0291
 5756W        W 9956   6.620   9.802  10.393  0.0112 -0.0255  0.4182
 5757W        W 9957   7.736   0.853   0.464 -0.3895 -0.0656  0.1073
 5758W        W 9958   2.755   5.595   4.085 -0.1864  0.2552 -0.0430
 5759W        W 9959   6.158   0.429   9.259 -0.0712 -0.0154 -0.0048
 5760W        W 9960  10.248   3.286   4.746 -0.1529 -0.0074  0.0430
 5761W        W 9961   9.252   5.769  10.991  0.1196 -0.1772 -0.2349
 5762W        W 9962   9.627   6.704  11.324  0.0319  0.1482  0.1523
 5763W        W 9963   1.847   1.643   4.296  0.0472  0.2213 -0.2415
 5764W        W 9964   3.906   7.159   9.747 -0.0854 -0.5208 -0.1735
 5765W        W 9965   2.293   3.300   3.739 -0.1339  0.2233  0.2231
 5766W        W 9966  10.428   8.242   3.226 -0.0671 -0.2442  0.1577
 5767W        W 9967   4.250   8.026   9.459  0.5133  0.4514 -0.3283
 5768W        W 9968   3.998   7.827   4.911 -0.0219  0.0056 -0.1282
 5769W        W 9969   8.423   5.346   2.537 -0.0533  0.2707  0.2133
 5770W        W 9970   0.931   8.660   1.799  0.3975  0.1103 -0.1366
 5771W        W 9971   2.405   8.606  12.769  0.0325  0.2917  0.0608
 5772W        W 9972   6.044   8.331   0.630  0.1889  0.0645  0.0584
 5773W        W 9973   3.285   8.664   1.936 -0.1378 -0.0031 -0.2422
 5774W        W 9974   3.884   0.802   0.768 -0.0976 -0.1281  0.0236
 5775W        W 9975   7.465   0.968   1.300  0.0388 -0.1859  0.1149
 5776W        W 9976   0.653   2.144   2.867  0.0587  0.1747 -0.0139
 5777W        W 9977   3.556   3.953  12.487 -0.1337 -0.1572 -0.0382
 5778W        W 9978   5.159   1.130  10.823  0.3187  0.0586 -0.2821
 5779W        W 9979   5.104   6.129   1.236 -0.1028  0.0753 -0.0045
 5780W        W 9980   0.666   0.821   1.096 -0.1781  0.0480 -0.1092
 5781W        W 9981   2.382   0.004  11.524  0.1778 -0.0524  0.2670
 5782W        W 9982   5.605   9.610   0.658  0.3089 -0.0602  0.0597
 5783W        W 9983   0.269   7.837   0.417  0.0029 -0.2048  0.3230
 5784W        W 9984   8.983   9.868   3.544  0.1242 -0.0208  0.0809
 5785W        W 9985   6.101   0.731   2.491 -0.0509  0.1687 -0.1069
 5786W        W 9986   9.662  10.322   1.770 -0.1292 -0.0082 -0.1029
 5787W        W 9987   6.878   4.258   4.609  0.0128  0.2928 -0.1532
 5788W        W 9988   5.883   9.769   1.167  0.2134 -0.0363 -0.1704
 5789W        W 9989   3.792   5.900   3.150  0.4219  0.2994 -0.0253
 5790W        W 9990   0.283   5.909  11.406 -0.1296 -0.3709 -0.2102
 5791W        W 9991   4.652   5.309   1.644 -0.1309 -0.1603  0.3057
 5792W        W 9992   3.298   3.959   1.614  0.1007 -0.3942  0.0650
 5793W        W 9993   5.704  10.361   4.062 -0.0201  0.0830  0.1730
 5794W        W 9994   4.495   8.497  11.760 -0.2312 -0.0647  0.2437
 5795W        W 9995   4.669   0.149   1.670 -0.0122 -0.0613  0.1685
 5796W        W 9996   2.690   1.651   2.225 -0.3435 -0.2530  0.2859
 5797W        W 9997   9.653   6.877   3.078  0.0330  0.1572  0.1035
 5798W        W 9998   6.226   0.356   2.975 -0.1375 -0.2003 -0.2927
 5799W        W 9999   7.955   4.071  12.831  0.1454  0.1152 -0.0726
 5800W        W10000   3.581   9.988  11.851 -0.1428 -0.0744 -0.1931
 5801W        W10001   8.361   8.889   3.440 -0.0730  0.2946 -0.3377
 5802W        W10002   1.119   3.352  10.853 -0.1429  0.3496  0.0581
 5803W        W10003   6.401  10.086   3.476 -0.1492  0.2375  0.0726
 5804W        W10004   7.975   0.586   1.184  0.1177  0.0306  0.2104
 5805W        W10005   1.052   0.163  13.286 -0.1906  0.0402 -0.2741
 5806W        W10006  10.465   8.264  10.347 -0.3144  0.0741 -0.1960
 5807W        W10007   3.550   2.674   3.535 -0.1336 -0.0611 -0.0763
 5808W        W10008   7.889   5.894  11.350 -0.0317  0.2858 -0.1597
 5809W        W10009   4.309   0.539   9.974 -0.1271 -0.1035  0.2170
 5810W        W10010   4.730   6.676   1.049 -0.4789 -0.0438 -0.1510
 5811W        W10011   6.392   9.900   9.962 -0.0512 -0.3640  0.1434
 5812W        W10012   5.657   1.317   0.488 -0.1802  0.2620 -0.4262
 5813W        W10013   3.710  10.142  10.951  0.1029 -0.0958 -0.2939
 5814W        W10014  10.288   4.541   1.864 -0.1161  0.2817 -0.0421
 5815W        W10015   9.989   1.609   3.534  0.0263  0.0323 -0.2057
 5816W        W10016   6.636   8.608   0.767 -0.0349  0.0529 -0.1549
 5817W        W10017   0.147   2.879   8.886 -0.0610  0.0377 -0.0392
 5818W        W10018   2.047   8.155  10.883  0.2661  0.2317 -0.3777
 5819W        W10019   2.514   0.746   3.569 -0.0034  0.0631 -0.1029
 5820W        W10020   5.876   1.308  12.285  0.1697  0.1061  0.0776
 5821W        W10021   8.851   3.745   2.414  0.1912  0.1859  0.0571
 5822W        W10022   5.944   9.865   0.371  0.2390  0.1345  0.1935
 5823W        W10023   4.760   4.726  12.452  0.0281 -0.1832  0.2778
 5824W        W10024   4.643   8.842   2.540 -0.1124  0.2353  0.2457
 5825W        W10025   4.771   8.154   5.302  0.0099 -0.3089 -0.1080
 5826W        W10026   0.445   2.426  11.478 -0.0508 -0.1986 -0.0266
 5827W        W10027   1.906   0.126   5.067 -0.1656  0.0221 -0.1444
 5828W        W10028   8.495   8.899   0.093  0.0498 -0.1603  0.0742
 5829W        W10029   7.898   5.406   2.790  0.0338 -0.2795 -0.4144
 5830W        W10030   0.155   3.318  11.313  0.0654  0.0327 -0.0637
 5831W        W10031   0.315   8.046   3.511  0.0791 -0.2231  0.0023
 5832W        W10032   6.261   5.332   0.392  0.0520  0.1290  0.0118
 5833W        W10033   3.648   9.389   1.344 -0.1980 -0.0005  0.1794
 5834W        W10034   8.433   0.351   0.878 -0.0037  0.1584 -0.3064
 5835W        W10035   4.602   9.940   0.892  0.0582  0.1406  0.1790
 5836W        W10036   8.911   8.780   0.687 -0.2353  0.3394  0.0724
 5837W        W10037   1.889   9.233  12.460 -0.3798  0.0090  0.1758
 5838W        W10038   4.237   0.734  13.259 -0.0872  0.2644  0.3698
 5839W        W10039   6.545   5.553   1.147 -0.1061 -0.0826 -0.0217
 5840W        W10040   2.159   5.074   2.883 -0.1034 -0.0392 -0.1216
 5841W        W10041   6.261   6.727  10.647 -0.1406  0.0470  0.0690
 5842W        W10042   0.045   3.528   1.631 -0.1071  0.3878 -0.2024
 5843W        W10043   1.049   6.005  11.173 -0.0324  0.0316  0.2485
 5844W        W10044   3.177   7.646   2.930  0.1198  0.2217 -0.0935
 5845W        W10045   9.542   0.236   2.382 -0.2557  0.1257  0.0929
 5846W        W10046   6.555   7.445   0.650  0.3195 -0.0406 -0.1626
 5847W        W10047   7.166   6.305   0.899  0.5031 -0.1695 -0.3012
 5848W        W10048   2.273   0.990  13.343 -0.4068  0.0377 -0.1078
 5849W        W10049   0.757   3.989   2.688  0.0771 -0.1922  0.2124
 5850W        W10050   9.112   2.990   3.809  0.3458 -0.1305 -0.0842
 5851W        W10051   6.532   7.755   0.117  0.1086  0.1277 -0.0680
 5852W        W10052   8.825   5.252   3.909  0.2146 -0.0913 -0.1581
 5853W        W10053   9.587   4.754  10.040  0.1227  0.2964  0.0328
 5854W        W10054   3.615   0.111  11.873  0.1462  0.1473 -0.0179
 5855W        W10055   0.015   0.040   0.697 -0.2703 -0.2540  0.1311
 5856W        W10056   7.959   3.296   5.431  0.0059 -0.0721  0.1594
 5857W        W10057   4.281   1.997  10.565  0.0615 -0.2750 -0.0236
 5858W        W10058   4.561   5.954   9.095 -0.0272  0.0248  0.1274
 5859W        W10059   6.342   2.711   4.055  0.1894  0.0116  0.3659
 5860W        W10060   1.276   1.573  11.456  0.0029  0.1432 -0.0937
 5861W        W10061   1.926   4.452  11.015 -0.1320 -0.2496  0.2280
 5862W        W10062   2.189   6.320   2.642 -0.2000  0.2770 -0.0531
 5863W        W10063   2.219   1.207   1.166 -0.2212 -0.1304  0.1361
 5864W        W10064   9.610   5.662   1.626 -0.2398  0.1176  0.0346
 5865W        W10065   3.765   8.022  11.194 -0.0955  0.2584 -0.0048
 5866W        W10066   9.938   6.889  12.606  0.0095  0.1681  0.2255
 5867W        W10067   2.565   4.847   9.203 -0.0154 -0.0510 -0.0245
 5868W        W10068   7.818   6.685   2.825  0.1367  0.0821  0.0679
 5869W        W10069   0.150   9.487   0.741 -0.1841  0.2341  0.3148
 5870W        W10070   1.104   4.194   4.448  0.1756 -0.1369 -0.2298
 5871W        W10071   6.187   8.405  11.005 -0.4884 -0.1710 -0.4154
 5872W        W10072   7.918   7.636  13.085  0.0322  0.1211  0.1058
 5873W        W10073   0.601   1.459   3.775  0.0103 -0.0554 -0.1085
 5874W        W10074   9.894   8.332  12.904  0.0105  0.0655  0.1361
 5875W        W10075   1.808   2.924   1.277  0.2747 -0.1120  0.2495
 5876W        W10076   8.368   5.208   4.074 -0.2976  0.3643 -0.0183
 5877W        W10077   4.155   5.659   2.891  0.1813  0.0885  0.2274
 5878W        W10078   5.305   4.146  11.564 -0.0478  0.2602  0.1683
 5879W        W10079   0.446   4.996  12.486  0.2514  0.1431 -0.0974
 5880W        W10080   0.559   0.360  11.564  0.1910  0.0652 -0.1673
 5881W        W10081   0.915   7.666  11.561  0.0494  0.0073  0.1256
 5882W        W10082   3.540   9.452   9.036  0.0194 -0.0792 -0.0604
 5883W        W10083   4.658   7.565   1.441  0.1846  0.1405 -0.2028
 5884W        W10084   1.434   2.964   3.179  0.0014  0.0923 -0.3467
 5885W        W10085   1.619   7.097   2.581 -0.0165  0.3019 -0.0631
 5886W        W10086  10.205   1.709   1.343  0.1956  0.1978 -0.1561
 5887W        W10087   2.616   6.394  12.286 -0.1334  0.3250 -0.3536
 5888W        W10088   5.624   7.918   9.865  0.2045  0.1695 -0.0583
 5889W        W10089   7.404   0.468   4.378 -0.4214  0.3404  0.0831
 5890W        W10090   9.629   0.475  10.412 -0.0072  0.0469 -0.0042
 5891W        W10091   6.853   2.379  11.849 -0.0053  0.0553  0.0593
 5892W        W10092   9.698   7.081   2.671  0.0773  0.2049 -0.0244
 5893W        W10093   8.072   1.726   4.007 -0.1070  0.2918 -0.1214
 5894W        W10094   9.344   6.386  12.142  0.2355  0.0798  0.2027
 5895W        W10095  10.199   1.274   1.050  0.1082  0.0350 -0.2783
 5896W        W10096  10.376   3.949   3.637 -0.2178 -0.0705  0.1577
 5897W        W10097   3.131   4.805   0.182  0.0710 -0.1173 -0.3729
 5898W        W10098   1.303   8.358   1.664 -0.1683 -0.0523 -0.1571
 5899W        W10099  10.108   2.095   0.486  0.0757 -0.0863  0.4443
 5900W        W10100   2.731   9.063   3.130  0.3126  0.1828 -0.1258
 5901W        W10101   2.545   6.219  12.774  0.0366  0.3068 -0.0335
 5902W        W10102  10.203  10.252   4.027 -0.1510 -0.1519 -0.0985
 5903W        W10103   7.527   9.254   3.861 -0.1876  0.1475 -0.3509
 5904W        W10104   2.303   6.514  13.227 -0.3023 -0.0785  0.1637
 5905W        W10105  10.385   8.571  10.700  0.1691 -0.0322  0.1017
 5906W        W10106   7.981   9.289   0.714 -0.1379  0.4189 -0.1234
 5907W        W10107   6.029   4.063  10.387 -0.1454  0.0131  0.0717
 5908W        W10108   6.236   8.879   0.737 -0.2019  0.1985  0.0697
 5909W        W10109  10.262   3.702   2.538  0.0647 -0.1118 -0.2121
 5910W        W10110   5.331   5.418   3.082  0.0201 -0.0672  0.0075
 5911W        W10111   4.899   0.045   2.129  0.2164  0.3021  0.0598
 5912W        W10112   2.514   8.196  12.511  0.1849 -0.0451  0.0050
 5913W        W10113   3.056   8.220  12.639 -0.1088 -0.1387  0.3045
 5914W        W10114   4.156   6.974   4.449 -0.2047 -0.2162 -0.3036
 5915W        W10115   3.796   3.372   9.110  0.2037 -0.0808  0.1704
 5916W        W10116   1.818   7.316  13.074  0.0771 -0.2665 -0.2470
 5917W        W10117   5.078   6.762   2.381  0.0768  0.0835 -0.1866
 5918W        W10118   1.523   7.773   3.399  0.0099 -0.0820 -0.1373
 5919W        W10119   4.516   2.426   3.884  0.2535  0.2718  0.1979
 5920W        W10120   1.401   8.675   0.469 -0.0996 -0.0896  0.2893
 5921W        W10121   6.572   6.053   0.453 -0.3261  0.0613 -0.0784
 5922W        W10122   8.928  10.309   1.695  0.1148 -0.0346 -0.0337
 5923W        W10123   5.831   4.955   4.515 -0.1649  0.3283  0.0668
 5924W        W10124   2.327   9.189   0.189 -0.2055 -0.0987 -0.0990
 5925W        W10125   6.826   9.086   0.560 -0.3579  0.0828 -0.3335
 5926W        W10126   4.960   6.798   8.447 -0.1436  0.0604 -0.0228
 5927W        W10127   6.380   8.880   1.216  0.1516  0.1223  0.1555
 5928W        W10128   4.628   4.184   9.456 -0.1424 -0.1751  0.0084
 5929W        W10129   8.440   5.418   9.703  0.2143 -0.0203 -0.0586
 5930W        W10130   1.455   0.921   3.040 -0.0153 -0.0442  0.0433
 5931W        W10131   7.616   0.049   0.200 -0.1304 -0.1371 -0.1216
 5932W        W10132   2.364   1.256  10.101 -0.2494 -0.2413  0.0567
 5933W        W10133   9.087  10.391   3.511  0.0695 -0.0400 -0.0948
 5934W        W10134   6.824   7.786   9.678 -0.0623  0.0318 -0.2145
 5935W        W10135   3.807   8.662   0.137  0.1948  0.1540 -0.0200
 5936W        W10136   9.306   2.961   4.513  0.0617  0.0148  0.4673
 5937W        W10137   8.039   4.676  11.223 -0.1889 -0.0427  0.0525
 5938W        W10138   0.899   0.415   9.733  0.0280 -0.2872  0.0281
 5939W        W10139  10.473   2.668   4.039 -0.2366 -0.1482 -0.0121
 5940W        W10140   3.452   2.866   2.920  0.0035 -0.0282 -0.0192
 5941W        W10141   8.846   1.492  10.673 -0.1133 -0.0532  0.2028
 5942W        W10142   5.919   7.764  12.910  0.0355  0.0516  0.3389
 5943W        W10143   1.514   4.961   0.004 -0.0971  0.0927  0.2963
 5944W        W10144   8.561   2.453   4.495  0.3844  0.1899  0.2847
 5945W        W10145   0.106   7.840   3.023 -0.2521 -0.2358 -0.3204
 5946W        W10146   3.094   8.155  13.150  0.0963 -0.0297  0.4808
 5947W        W10147   5.630   6.325   1.181  0.0776  0.2972  0.1535
 5948W        W10148   4.205   1.459  11.421  0.2050  0.2833  0.0009
 5949W        W10149   2.893   8.955   1.038 -0.1026 -0.1282 -0.2807
 5950W        W10150   1.235   4.199  13.450  0.2372  0.1225 -0.5637
 5951W        W10151   4.689  10.044   8.844  0.0485 -0.0302 -0.0594
 5952W        W10152   2.582   7.265  12.819 -0.0458 -0.1722 -0.1549
 5953W        W10153   6.512   5.131  13.308  0.2933  0.0860 -0.1351
 5954W        W10154   6.505   9.120   3.938  0.0731  0.1245  0.0610
 5955W        W10155   9.079   2.497  12.601 -0.0637  0.2803  0.0943
 5956W        W10156   6.092   0.876   3.761 -0.0143 -0.3499 -0.1591
 5957W        W10157   6.296   1.086   0.182  0.0925 -0.0618 -0.0730
 5958W        W10158   0.236  10.444  10.189  0.1606 -0.0335  0.1622
 5959W        W10159  10.290   0.849  11.111  0.2729  0.1600 -0.0197
 5960W        W10160   5.549   3.895  12.475 -0.0834 -0.0413  0.0971
 5961W        W10161   3.428   9.684   9.530 -0.2834  0.0119 -0.1348
 5962W        W10162   4.714   5.820   2.688  0.0395 -0.0890 -0.0288
 5963W        W10163  10.383   9.943   1.187  0.0624  0.0657  0.0519
 5964W        W10164   4.644   3.787   1.147 -0.0576  0.0758 -0.1860
 5965W        W10165   6.299   2.164  12.332 -0.2412 -0.3859  0.1819
 5966W        W10166   1.591   8.460   3.867 -0.0015 -0.0069 -0.0774
 5967W        W10167   0.664   2.600  11.887  0.1593  0.0495 -0.3459
 5968W        W10168   8.964   3.119   2.453 -0.0312 -0.1392 -0.2929
 5969W        W10169   1.668   1.907   2.933 -0.0848  0.2679  0.2076
 5970W        W10170   9.683   7.516   1.226  0.2881  0.1545  0.0371
 5971W        W10171   5.561   5.987  11.475  0.1570  0.3283 -0.0396
 5972W        W10172   8.038   6.497  12.821  0.0261 -0.0270 -0.3689
 5973W        W10173   2.801   6.149   0.344  0.2377  0.0075 -0.0381
 5974W        W10174  10.243   4.225   4.403 -0.1475  0.1320  0.3691
 5975W        W10175   6.133   5.759  11.189 -0.3901 -0.0098 -0.2613
 5976W        W10176  10.431   8.264  11.513 -0.2630 -0.2386  0.0302
 5977W        W10177   1.707   8.168   1.315  0.0617 -0.0721  0.1155
 5978W        W10178   2.247   8.962   4.220  0.1634 -0.2204 -0.0206
 5979W        W10179   1.923   1.231   3.299 -0.1513  0.0617 -0.0032
 5980W        W10180   6.182   3.567  13.076  0.1550  0.0256 -0.2082
 5981W        W10181   5.572  10.258  12.346 -0.3014  0.0500  0.1531
 5982W        W10182   0.561   7.844  12.399 -0.0234 -0.1751 -0.1968
 5983W        W10183   8.712   2.481  10.167 -0.2824 -0.1177 -0.1095
 5984W        W10184   4.612   7.756   3.245 -0.2422  0.2974  0.0025
 5985W        W10185   2.012   9.991  10.155  0.0269  0.0946 -0.1004
 5986W        W10186   9.708   2.121  10.039  0.2492 -0.0186 -0.3724
 5987W        W10187   8.322   8.324   9.633  0.1847 -0.1146  0.0763
 5988W        W10188   9.941  10.264   2.875  0.0334  0.4804 -0.3127
 5989W        W10189   1.170   2.476  10.999  0.0443  0.1204  0.2202
 5990W        W10190   5.898   7.700  11.513  0.0861  0.0668  0.0866
 5991W        W10191   0.757   4.845  12.876  0.3455 -0.0480 -0.0308
 5992W        W10192   8.596   0.241  12.409  0.0358 -0.3397  0.3112
 5993W        W10193   2.097   5.988   8.659 -0.0406 -0.0097  0.0160
 5994W        W10194   2.145   0.717   1.018  0.1792  0.3887  0.0174
 5995W        W10195   1.319   6.306  13.449  0.0546 -0.3488 -0.1871
 5996W        W10196   9.668   2.209   2.503 -0.0521  0.0609 -0.0198
 5997W        W10197   4.845   2.935  13.291 -0.2583  0.0122  0.0021
 5998W        W10198   9.848   8.434   0.843 -0.0496  0.2458  0.3050
 5999W        W10199   0.339   5.313  10.281  0.1178 -0.2806  0.0576
 6000W        W10200   3.761   6.186   8.374 -0.2723  0.1005 -0.0301
 6001W        W10201   8.921   0.282   9.648  0.0115 -0.0892 -0.1090
 6002W        W10202   9.669   5.148   4.020  0.0506  0.1500  0.3623
 6003W        W10203   9.954   4.449   9.714  0.3099 -0.0474  0.0896
 6004W        W10204   3.124   2.760  11.716  0.1321 -0.2454  0.3853
 6005W        W10205   1.616   1.680  11.133 -0.0799  0.2124 -0.0092
 6006W        W10206   0.644   7.277  11.737 -0.1061 -0.0353  0.1657
 6007W        W10207   0.455   5.729   0.378  0.1276 -0.1410  0.0902
 6008W        W10208   3.169   7.645  10.020 -0.1131 -0.1613  0.1097
 6009W        W10209  10.438   4.364  10.531 -0.0270  0.1941 -0.0319
 6010W        W10210   6.318   8.615   2.537 -0.1000 -0.2864  0.0375
 6011W        W10211   5.337   9.646   1.104  0.1640  0.1764 -0.0719
 6012W        W10212   0.447   2.163   4.618  0.0741 -0.1634 -0.0030
 6013W        W10213   9.121   3.279   1.141  0.1182 -0.0668  0.0712
 6014W        W10214   8.501   4.897   9.636 -0.0779 -0.0266 -0.0473
 6015W        W10215   0.859   7.098   1.464  0.3278  0.2645 -0.0977
 6016W        W10216   9.492   9.519   2.672 -0.0633 -0.1260  0.3155
 6017W        W10217   5.649   2.419   2.298  0.3446  0.1706  0.4881
 6018W        W10218   6.186   4.527  11.818 -0.1796  0.1902 -0.0196
 6019W        W10219   8.539   8.750   1.050 -0.2377 -0.0688  0.1923
 6020W        W10220   4.440   9.857   4.069  0.1164 -0.1985  0.2140
 6021W        W10221   9.517   6.204  11.266  0.2481 -0.0337 -0.0090
 6022W        W10222   9.889   5.525  11.917 -0.1141  0.4419  0.0170
 6023W        W10223   1.129   8.063   2.987 -0.0520  0.0099  0.0657
 6024W        W10224  10.318   8.648   0.873  0.1109  0.1247  0.0614
 6025W        W10225   0.403   0.959   0.540 -0.0752  0.0846 -0.0246
 6026W        W10226   5.676   7.274   3.977 -0.0097 -0.2239 -0.2341
 6027W        W10227   4.978   6.692   4.526  0.0807 -0.2440  0.0057
 6028W        W10228   7.599   4.340  11.224  0.1607 -0.0171 -0.4132
 6029W        W10229   6.234   2.112   4.450  0.2390 -0.0713  0.0339
 6030W        W10230   7.224   9.576  13.274  0.2650  0.0911 -0.3799
 6031W        W10231   8.584   7.503   2.880  0.3068  0.0299  0.0067
 6032W        W10232  10.063   6.736  11.871  0.3677 -0.0268  0.0214
 6033W        W10233   9.322   9.189   0.837  0.2211  0.2461  0.0515
 6034W        W10234   4.761   7.197  11.019 -0.1058 -0.0706  0.0922
 6035W        W10235   1.414   6.452   8.955  0.1328  0.2540  0.1445
 6036W        W10236  10.281   4.167   2.764 -0.1549  0.1978  0.1267
 6037W        W10237   0.879   1.347  12.180 -0.1031 -0.3007  0.3406
 6038W        W10238   0.802   5.790  12.110  0.3094  0.0083 -0.1413
 6039W        W10239   3.698   5.922   1.133  0.1021 -0.3624 -0.0326
 6040W        W10240   5.908   5.322   2.121 -0.3459 -0.0351 -0.0724
 6041W        W10241   0.488   3.744   1.481 -0.2936 -0.0401  0.0835
 6042W        W10242   4.445   4.087   0.264  0.0423 -0.1278 -0.2003
 6043W        W10243   2.085   9.233   2.426 -0.0546 -0.2910 -0.3105
 6044W        W10244   0.531   7.504   2.825 -0.1655 -0.2125 -0.2764
 6045W        W10245   4.393   6.641   0.211 -0.1594  0.0828 -0.0847
 6046W        W10246   3.272   6.542   3.276  0.1483  0.0020  0.1514
 6047W        W10247   0.943   9.031   0.528 -0.1345  0.0335 -0.1222
 6048W        W10248   9.884   2.634   8.460 -0.1277 -0.3261 -0.0907
 6049W        W10249   0.886   3.888  11.039 -0.3121 -0.0003  0.3033
 6050W        W10250   4.912   1.336   1.994 -0.0964 -0.1669 -0.0796
 6051W        W10251   7.990   6.331   1.526  0.0418 -0.0668  0.0149
 6052W        W10252   4.140   4.157   9.886  0.2480 -0.0260 -0.4128
 6053W        W10253   2.899   7.410   2.174  0.0102 -0.0100 -0.0437
 6054W        W10254   6.753   1.112  13.188 -0.0611  0.1623  0.0107
 6055W        W10255   9.094   8.657  12.433  0.0917  0.1857  0.3881
 6056W        W10256   5.003   8.915   3.682  0.1238  0.1325  0.1500
 6057W        W10257   6.288   8.030  11.391  0.1201 -0.2154 -0.1764
 6058W        W10258   8.104   9.895   0.190 -0.0498  0.0633 -0.0774
 6059W        W10259   2.216   9.721   1.150 -0.0161 -0.1432  0.1850
 6060W        W10260   2.381   0.512   0.018 -0.1361  0.3413 -0.0681
 6061W        W10261   9.352   3.291   4.163  0.1916 -0.1994 -0.1772
 6062W        W10262   6.818   1.908   0.903 -0.1551  0.1666  0.2014
 6063W        W10263   9.019   1.137   0.592 -0.0734 -0.0031  0.4735
 6064W        W10264   5.572   9.144  12.417 -0.0576 -0.4044  0.0604
 6065W        W10265   0.256   4.302  11.773  0.0320  0.0426 -0.0923
 6066W        W10266   7.555   1.701   2.649  0.2526  0.1739 -0.0151
 6067W        W10267   8.602   4.850   4.383 -0.1767 -0.0781 -0.1469
 6068W        W10268   3.463   5.128   1.480 -0.0598 -0.1795 -0.0886
 6069W        W10269   9.188   3.938   4.090  0.0105 -0.1031 -0.1554
 6070W        W10270   6.859   1.362  11.843 -0.0585  0.1887  0.0646
 6071W        W10271   7.327   4.349   0.466  0.1411 -0.1033 -0.0583
 6072W        W10272   6.083   0.605   1.949  0.2980 -0.0062 -0.1282
 6073W        W10273   1.302   3.168   4.552  0.0544 -0.1261 -0.0994
 6074W        W10274   9.997   9.236  10.119  0.1266 -0.1023 -0.0341
 6075W        W10275   5.115   5.712   8.544 -0.0500  0.1503 -0.0768
 6076W        W10276   8.142   6.027  10.944  0.1433  0.1531  0.0638
 6077W        W10277   0.664   4.422   1.844 -0.1431  0.2775  0.1026
 6078W        W10278  10.376   1.364   4.439  0.0693 -0.1582 -0.1430
 6079W        W10279   8.148   2.348  11.595  0.0802 -0.2102 -0.0757
 6080W        W10280   0.426   7.277  12.876 -0.1284 -0.0094 -0.0242
 6081W        W10281   7.442   5.729  11.051  0.1380  0.1847 -0.2197
 6082W        W10282   9.106   5.789   4.421  0.0769 -0.2317 -0.0411
 6083W        W10283   7.870   2.344   3.018 -0.4311  0.1132  0.2553
 6084W        W10284   5.025   5.476   2.618 -0.1824 -0.1954 -0.2154
 6085W        W10285   1.585   5.683  10.550  0.4239  0.0726  0.0063
 6086W        W10286   3.851   9.348   9.518 -0.0534 -0.0142 -0.2104
 6087W        W10287   4.508   9.613   8.680 -0.3162  0.2914  0.1812
 6088W        W10288   7.641   9.851  10.788  0.3516 -0.3760  0.0791
 6089W        W10289   2.492   1.419  13.406 -0.2415 -0.1733  0.0166
 6090W        W10290   9.714   4.395   9.243  0.2762  0.0311  0.1205
 6091W        W10291   4.205   6.227  10.005  0.1008  0.0985  0.5006
 6092W        W10292   1.398   8.423  10.510  0.3328 -0.2521  0.0419
 6093W        W10293   7.204   5.749   4.223 -0.2057 -0.2314 -0.4090
 6094W        W10294   5.839   6.462   0.701 -0.2034 -0.0639 -0.1435
 6095W        W10295   9.237   5.528  12.869  0.0281 -0.2766  0.2876
 6096W        W10296   3.520   4.910   3.116 -0.1693 -0.2238  0.0201
 6097W        W10297   5.572   3.324  10.796  0.0298 -0.2388  0.0019
 6098W        W10298   6.171   9.995   2.505 -0.1368 -0.1489 -0.1152
 6099W        W10299   0.788   7.464  12.641 -0.2522 -0.1821 -0.1303
 6100W        W10300   3.592   0.161   9.564 -0.0815 -0.1307 -0.2346
 6101W        W10301   8.295   7.817   2.601  0.2108 -0.2540 -0.0022
 6102W        W10302   8.295   3.740  12.624 -0.2898 -0.1281 -0.0459
 6103W        W10303   7.598   2.535  13.086 -0.2643 -0.2123 -0.1329
 6104W        W10304   6.225   7.327   0.283 -0.2147 -0.1331 -0.2046
 6105W        W10305   4.830   7.468  11.883 -0.1632 -0.1078 -0.2080
 6106W        W10306   8.450   7.763  13.266  0.2402 -0.2099  0.1227
 6107W        W10307   5.565   3.354  12.549 -0.1552 -0.0450  0.0295
 6108W        W10308   8.099   0.076  12.504 -0.1299 -0.0352  0.0814
 6109W        W10309   8.242   5.052   3.623 -0.1887  0.1696 -0.0042
 6110W        W10310   3.742   9.835  10.399  0.0281  0.0323  0.2856
 6111W        W10311   5.822  10.102   2.127 -0.1330  0.3252 -0.0660
 6112W        W10312   1.939   2.231   9.853 -0.2104 -0.2003  0.2280
 6113W        W10313   6.899   1.167   1.506  0.4541  0.1247 -0.3240
 6114W        W10314  10.070   6.086  12.930 -0.0601 -0.1212 -0.2628
 6115W        W10315   1.988   9.135  11.308 -0.1377 -0.0880 -0.0219
 6116W        W10316   7.165   9.746  10.520  0.1676  0.2042  0.0824
 6117W        W10317   7.987   1.165  13.172  0.0237  0.0972 -0.1465
 6118W        W10318   8.901   1.777   2.768 -0.0258 -0.0661 -0.2735
 6119W        W10319   1.296   8.773  12.652 -0.1560  0.1627 -0.2757
 6120W        W10320   9.957   9.740  10.003  0.0685 -0.0169 -0.2790
 6121W        W10321   5.053   4.388   8.960 -0.2218  0.1783 -0.0476
 6122W        W10322   3.684   9.815   2.810 -0.0450 -0.0070  0.0056
 6123W        W10323   2.237   4.117   3.766 -0.0845  0.1200  0.1570
 6124W        W10324   5.390   0.287   8.849  0.1332  0.0773 -0.0219
 6125W        W10325   3.558   1.379  11.167 -0.2044 -0.0527 -0.0530
 6126W        W10326   3.955   6.365   1.249  0.0512 -0.2133  0.1482
 6127W        W10327   2.548   0.016   3.189 -0.4244 -0.3250  0.1621
 6128W        W10328   8.831   1.059   9.373 -0.0740  0.2356 -0.2541
 6129W        W10329   6.129   1.391   3.977 -0.0877 -0.1375 -0.0770
 6130W        W10330   3.658   9.274   2.681 -0.3381 -0.3479  0.1443
 6131W        W10331   7.554   8.509  11.254 -0.3333 -0.0925 -0.0265
 6132W        W10332   7.137   3.178   2.748  0.1848 -0.0377 -0.0196
 6133W        W10333  10.462   1.291   2.628 -0.1726  0.0061 -0.2005
 6134W        W10334   2.178   7.273   1.331  0.1510 -0.0925  0.2768
 6135W        W10335   3.647   7.560  10.173  0.0463  0.3554  0.0212
 6136W        W10336   5.762   7.590   0.448 -0.0434 -0.1050 -0.1389
 6137W        W10337   7.738  10.365  11.661 -0.0059  0.1987 -0.0024
 6138W        W10338   9.506   6.742  11.820 -0.2874 -0.1169  0.2432
 6139W        W10339   3.881   6.068   2.075 -0.2795  0.1034  0.2274
 6140W        W10340   3.175   0.311  11.986  0.2423  0.0904 -0.2723
 6141W        W10341   1.508   4.578   1.335 -0.0082 -0.1159 -0.0694
 6142W        W10342   6.568   8.191   9.463 -0.2493 -0.1291 -0.1095
 6143W        W10343   7.043   0.150   9.718  0.0306  0.2590  0.2164
 6144W        W10344   1.427   2.702   2.715  0.1500 -0.2678  0.1229
 6145W        W10345  10.014   2.877  12.454 -0.1405  0.1851 -0.0257
 6146W        W10346   6.697   0.302  10.130 -0.0054  0.1008  0.2387
 6147W        W10347   9.459   0.130  10.808  0.0413  0.1112  0.0520
 6148W        W10348   2.976   7.239   2.615  0.1226 -0.1868 -0.0611
 6149W        W10349   1.990   1.741   8.716  0.0203 -0.2418 -0.0815
 6150W        W10350   0.006   6.854  11.639  0.0779 -0.1041  0.1682
 6151W        W10351  10.175   3.850  13.192  0.1158  0.0168  0.0207
 6152W        W10352   2.691   4.043   0.063 -0.0212 -0.1737 -0.1579
 6153W        W10353   0.180   4.203   0.806 -0.0425 -0.2016 -0.1588
 6154W        W10354   7.605   6.678  11.348  0.1070 -0.0708  0.2714
 6155W        W10355   2.694   1.883   4.056  0.2347  0.0925  0.2915
 6156W        W10356   5.153   4.513   9.411 -0.1262  0.0510 -0.1015
 6157W        W10357   7.258   1.767   2.183  0.0676  0.0570 -0.0336
 6158W        W10358   6.840   3.222  11.971  0.0787 -0.2763  0.2887
 6159W        W10359   4.365   4.407  11.078  0.1184 -0.0013  0.0409
 6160W        W10360   8.121   5.607   9.326  0.1282 -0.1495 -0.0434
 6161W        W10361   0.715   0.280   3.968 -0.2509  0.1602  0.3107
 6162W        W10362   7.792   1.013  10.809 -0.1256 -0.0585 -0.2058
 6163W        W10363   2.751   7.910  13.429 -0.1224 -0.0347  0.4466
 6164W        W10364   3.982   4.886   2.030  0.2370  0.2279  0.0388
 6165W        W10365   5.321   9.395  11.386 -0.2092 -0.0463 -0.0661
 6166W        W10366   7.656   2.633   1.031 -0.1859  0.1311  0.1155
 6167W        W10367   7.303   5.282   0.116 -0.2174 -0.2311 -0.3049
 6168W        W10368   1.569  10.466   0.544  0.2439  0.3055  0.4344
 6169W        W10369   0.523   3.459  13.128  0.2306  0.0814  0.1104
 6170W        W10370   8.068   0.576   3.659  0.2985 -0.1140  0.0016
 6171W        W10371   6.713   0.321  11.335  0.0192 -0.1319 -0.2500
 6172W        W10372   5.122   7.331   2.929 -0.1160 -0.3437  0.0047
 6173W        W10373   1.601   6.300   9.869 -0.2809  0.3343 -0.3468
 6174W        W10374   7.479   7.608   2.881 -0.0231 -0.2867  0.0213
 6175W        W10375  10.004   5.524  10.388 -0.1631 -0.2244  0.0504
 6176W        W10376   4.019   1.384  11.947  0.1088 -0.0019  0.1828
 6177W        W10377   3.975   0.369   9.234 -0.3518  0.0347 -0.0967
 6178W        W10378   4.923   3.749  11.904  0.1418 -0.1590 -0.0733
 6179W        W10379  10.126   0.592  11.503 -0.2475  0.1613 -0.0520
 6180W        W10380   3.859   6.206  13.263 -0.0351 -0.0296 -0.5359
 6181W        W10381   7.960   1.065  12.625  0.0426  0.0721 -0.1980
 6182W        W10382   9.049   1.413  11.235  0.2512 -0.1768 -0.1937
 6183W        W10383   0.223   2.622   1.033 -0.1787  0.0567  0.1914
 6184W        W10384   2.526   5.332  13.297  0.0789 -0.2203  0.1293
 6185W        W10385   9.700   2.581   1.048 -0.2693  0.1701 -0.3149
 6186W        W10386   6.366   3.504  11.246 -0.0626 -0.2277 -0.1300
 6187W        W10387   5.225   5.629  11.437 -0.1138  0.1047 -0.0822
 6188W        W10388   2.856   7.041   1.389  0.3410 -0.1434 -0.0927
 6189W        W10389   7.203   7.810   1.935  0.3463  0.0002  0.1085
 6190W        W10390   9.631   9.982  12.193  0.3723 -0.0001 -0.0560
 6191W        W10391   9.591   3.465   3.237  0.0259 -0.0635  0.2411
 6192W        W10392   8.143   6.446   3.586  0.1953  0.3200 -0.3493
 6193W        W10393   6.805  10.319  11.824 -0.0986 -0.0155  0.0534
 6194W        W10394   5.812   1.244  13.418  0.2930 -0.3448  0.0228
 6195W        W10395   9.970   7.241   3.171  0.0175 -0.0318 -0.0959
 6196W        W10396   5.257   4.545   1.129 -0.0829 -0.1188  0.2115
 6197W        W10397   8.996   3.580   3.210  0.2187  0.1038 -0.1928
 6198W        W10398   1.921   9.204   3.336 -0.1973  0.0468  0.0373
 6199W        W10399   2.842   1.381   4.196 -0.0305 -0.2287 -0.1391
 6200W        W10400   1.835   2.427   1.543  0.2183 -0.3609 -0.2804
 6201W        W10401  10.446   6.539  12.172 -0.0029  0.1849 -0.2092
 6202W        W10402   2.589   2.089  13.321  0.0350 -0.2095 -0.0204
 6203W        W10403   8.108   3.027   3.933 -0.0225 -0.0660 -0.0461
 6204W        W10404   1.981   6.029   3.314 -0.2341 -0.0503 -0.1777
 6205W        W10405   3.119   3.094   2.562 -0.3072 -0.1594 -0.2001
 6206W        W10406   6.594   5.108   1.319 -0.2113 -0.1830 -0.0527
 6207W        W10407   0.913   4.376  12.769  0.0522 -0.1929 -0.0867
 6208W        W10408   2.827   4.243  12.225  0.2600 -0.0410 -0.0837
 6209W        W10409   9.023   6.733   0.229 -0.3843  0.2228 -0.0320
 6210W        W10410   7.111   5.809   9.063  0.0454 -0.1099 -0.1824
 6211W        W10411   8.251   6.792   1.280  0.2021  0.0017  0.0144
 6212W        W10412   2.208   7.765   1.655 -0.2683  0.3870 -0.1467
 6213W        W10413   6.433   4.473   9.344 -0.3387  0.1389  0.0969
 6214W        W10414   5.190   8.514  11.211  0.3456  0.0101 -0.0569
 6215W        W10415   2.996   9.309  11.601  0.2108 -0.0790 -0.1051
 6216W        W10416   2.492   7.111  10.011  0.0906 -0.3732  0.0508
 6217W        W10417   7.789   8.487   1.235 -0.1891 -0.0449 -0.3544
 6218W        W10418   5.089   9.465  13.452 -0.2025 -0.1802 -0.0402
 6219W        W10419   3.237   8.939  12.445  0.1320 -0.0572  0.1319
 6220W        W10420   7.640   2.615   1.584  0.3170 -0.4971  0.1028
 6221W        W10421   9.557   5.608  12.445  0.0817  0.0960 -0.0373
 6222W        W10422   9.586   2.219  12.103  0.3432  0.3500  0.1661
 6223W        W10423   1.099   5.002  12.527 -0.2709 -0.2316  0.4256
 6224W        W10424   3.376   4.218   0.555 -0.2721  0.0536 -0.0818
 6225W        W10425   2.313   8.853   2.172 -0.0442  0.0406 -0.0500
 6226W        W10426   0.807   3.006   4.648 -0.1962  0.0346  0.1119
 6227W        W10427   3.146   9.944  12.171  0.1203 -0.1443  0.1262
 6228W        W10428   7.833   0.725   3.066  0.2005 -0.3657 -0.1597
 6229W        W10429   3.989   2.339  13.099  0.0458  0.1325  0.0818
 6230W        W10430   7.708  10.367  11.105 -0.3842  0.1435  0.4372
 6231W        W10431   2.546   1.026   0.389 -0.1262 -0.0615 -0.0777
 6232W        W10432   3.693  10.301  12.748  0.2150 -0.0095 -0.1201
 6233W        W10433   8.023  10.099   1.450 -0.0352  0.5171 -0.2318
 6234W        W10434   1.548   5.433   2.798 -0.1334 -0.1154 -0.0732
 6235W        W10435   8.485   3.782  11.681  0.2103  0.1841  0.0769
 6236W        W10436   4.159   0.049   0.042  0.3008 -0.3784  0.0372
 6237W        W10437   7.100   3.092   4.541  0.0228  0.2631 -0.0231
 6238W        W10438   0.134   6.786  10.277  0.0482 -0.1399  0.1322
 6239W        W10439   9.111   3.651   9.129 -0.0341 -0.1778 -0.0574
 6240W        W10440   0.732   9.065   2.418 -0.3406  0.0154 -0.2378
 6241W        W10441   4.051   3.769   3.138  0.0027 -0.1516  0.2843
 6242W        W10442   9.603   6.777  10.459 -0.1896 -0.0090  0.1307
 6243W        W10443   6.244  10.321   1.192  0.1976  0.3300  0.0800
 6244W        W10444   9.615   8.908  10.072  0.0787 -0.1709 -0.0259
 6245W        W10445  10.300   4.894  10.615  0.1833  0.1690 -0.0088
 6246W        W10446   2.486   0.287  12.405  0.5334  0.0448  0.2178
 6247W        W10447   6.645   6.592  11.328  0.3561  0.1759 -0.0257
 6248W        W10448   4.025   2.797  10.606  0.0243 -0.4779 -0.0881
 6249W        W10449   2.593   2.312   3.860 -0.0621 -0.0596  0.0352
 6250W        W10450   1.461   9.219  12.811 -0.1482  0.1069 -0.0619
 6251W        W10451   9.821   9.039  11.417  0.0974  0.0836  0.1954
 6252W        W10452   1.404   5.406   9.645 -0.0731 -0.0314  0.0031
 6253W        W10453   1.456   1.429   3.062  0.2078  0.0056  0.1130
 6254W        W10454   4.223   3.255   9.513 -0.4675  0.2144  0.0021
 6255W        W10455   1.281   2.008  10.942 -0.1335  0.0488 -0.1644
 6256W        W10456   4.157  10.008   0.684  0.0897  0.1592  0.1525
 6257W        W10457   1.946   8.564   3.442  0.1529  0.0564  0.1112
 6258W        W10458  10.342   2.177   3.957  0.3551  0.1039 -0.2243
 6259W        W10459   2.964   2.274   1.701 -0.1135  0.0909  0.0195
 6260W        W10460   2.853   4.458   9.439  0.0584 -0.0629 -0.2821
 6261W        W10461   9.562   8.180  10.378  0.1515 -0.2245  0.0293
 6262W        W10462   4.712   4.019   2.489 -0.0268  0.0823 -0.0433
 6263W        W10463  10.339   4.970   2.042  0.1847 -0.2517 -0.0906
 6264W        W10464   0.345   9.801   0.396 -0.0536  0.5069 -0.2276
 6265W        W10465   0.609   8.495   2.304  0.0485 -0.1696  0.2100
 6266W        W10466   6.709   9.265  10.839 -0.3285 -0.0058  0.1440
 6267W        W10467   5.640   6.013  12.907 -0.0968 -0.0004  0.1249
 6268W        W10468   9.978   5.455   2.631  0.0786 -0.2165 -0.2802
 6269W        W10469   3.512   4.497  11.287  0.3592 -0.0940 -0.0076
 6270W        W10470   4.957   2.724   2.935 -0.4588  0.0322  0.2065
 6271W        W10471   4.960   2.182   9.651  0.0292  0.1495  0.0004
 6272W        W10472   5.777   2.159   0.013  0.0804  0.1122 -0.1603
 6273W        W10473   8.603   4.667  10.093 -0.5410 -0.2715  0.1613
 6274W        W10474   3.974   3.922  12.809 -0.0018  0.1509  0.3246
 6275W        W10475   1.980   8.767  12.469  0.3019  0.5016  0.2100
 6276W        W10476   2.977   4.808   3.762 -0.0177 -0.2291 -0.2263
 6277W        W10477   4.940   3.698  11.390 -0.2870 -0.1102 -0.0670
 6278W        W10478   2.774   7.890  11.427 -0.0238 -0.0939 -0.3448
 6279W        W10479   7.877   9.570  13.319 -0.0261 -0.1422 -0.0293
 6280W        W10480   4.595   1.015   4.730  0.0366 -0.0207 -0.0149
 6281W        W10481   1.831   1.203   8.711  0.1263  0.0276 -0.0985
 6282W        W10482   5.226   2.669  13.059  0.0874 -0.3859 -0.0867
 6283W        W10483   4.959   1.558   1.165 -0.0513 -0.2823 -0.0659
 6284W        W10484   3.337   4.479   2.078 -0.0652 -0.0633 -0.1592
 6285W        W10485  10.297   2.837   9.360  0.1534 -0.1669  0.0017
 6286W        W10486   7.884   6.017   5.003  0.1377 -0.5257  0.3088
 6287W        W10487   2.182   1.238   4.330 -0.3616 -0.1673 -0.0006
 6288W        W10488   5.570   5.180  13.152  0.0707  0.0626 -0.2546
 6289W        W10489   0.273   5.292   4.082  0.1924 -0.0659  0.0756
 6290W        W10490   1.415   3.499   9.833 -0.2965 -0.1973 -0.0411
 6291W        W10491   9.237   8.528  10.236 -0.0750 -0.1798 -0.0399
 6292W        W10492   7.503   4.676   9.636  0.1270  0.0501  0.1846
 6293W        W10493   6.644   5.858   3.205  0.0999 -0.1012  0.2323
 6294W        W10494   3.059   9.094  12.940  0.1161 -0.0723  0.1634
 6295W        W10495   2.505   0.080   1.702 -0.1157  0.0553 -0.0602
 6296W        W10496   3.816   1.384   1.066  0.2147 -0.0751  0.2346
 6297W        W10497   2.113   4.733   0.304  0.1808 -0.1940 -0.1249
 6298W        W10498   9.907   4.293  13.302 -0.1036  0.2067  0.0357
 6299W        W10499   2.227   5.185   4.351  0.0206  0.0191 -0.4080
 6300W        W10500   1.619   6.013   3.694 -0.0161 -0.0471  0.0110
 6301W        W10501   0.666   9.545   0.892 -0.0720 -0.1116 -0.2631
 6302W        W10502   0.401   4.626  11.407  0.1747  0.3332  0.0509
 6303W        W10503   7.913   0.677  11.273  0.0258 -0.2834 -0.0078
 6304W        W10504   6.763   0.751  10.391 -0.0986  0.0407  0.3075
 6305W        W10505   7.152   6.554   9.829  0.1867 -0.0763  0.2525
 6306W        W10506   1.078   5.395   1.558 -0.1308 -0.2328  0.0041
 6307W        W10507   5.921   0.005  10.981  0.0810 -0.0437 -0.1113
 6308W        W10508   7.704   7.064  11.065 -0.1196 -0.1306  0.1311
 6309W        W10509   1.184   2.063  12.902 -0.0417  0.1699  0.2038
 6310W        W10510   0.797   1.846  12.005 -0.1099 -0.1005  0.1115
 6311W        W10511   4.181   4.669   4.784  0.0683 -0.1191  0.1603
 6312W        W10512   4.997   8.432  13.428  0.3569  0.2759 -0.0188
 6313W        W10513   5.206   2.947   1.070 -0.0513  0.0364 -0.2207
 6314W        W10514   6.721   5.114  11.191 -0.1123 -0.1173  0.0146
 6315W        W10515   8.127   7.102   2.956 -0.0634  0.2598  0.3532
 6316W        W10516   2.607   2.346   3.317  0.0514  0.2010  0.3370
 6317W        W10517   5.718   7.604  12.031  0.0334 -0.0649 -0.2270
 6318W        W10518   5.021  10.041   0.043  0.3646 -0.0646 -0.2191
 6319W        W10519   6.742   4.915  10.198  0.0002  0.1903  0.0751
 6320W        W10520   7.294   3.067  10.326 -0.0855 -0.0087 -0.2257
 6321W        W10521   6.852   2.073   3.121 -0.1136  0.0930 -0.0229
 6322W        W10522   1.624   3.145   0.890  0.1135  0.2570 -0.2995
 6323W        W10523   4.853   7.551   0.371 -0.3182 -0.2339 -0.1015
 6324W        W10524   7.007   0.061  13.128 -0.1352 -0.5148 -0.2830
 6325W        W10525   4.155   5.780  10.306  0.3479  0.4485  0.0987
 6326W        W10526   8.203   9.493  11.870  0.2284  0.2699 -0.0036
 6327W        W10527   9.787   6.570  12.278  0.1332 -0.0771 -0.1340
 6328W        W10528   9.585   7.518   5.499 -0.0347  0.0239  0.2294
 6329W        W10529   5.664   4.690  13.113 -0.1598 -0.2202 -0.1095
 6330W        W10530   6.671  10.445   0.908 -0.1965  0.0922  0.1008
 6331W        W10531   4.697   7.600  13.318 -0.0254  0.4082  0.0020
 6332W        W10532   7.539   7.250  11.572 -0.0365 -0.2369 -0.1026
 6333W        W10533   7.006   2.353   2.673 -0.0924  0.0337  0.0294
 6334W        W10534   9.050   3.984   9.506 -0.0043 -0.1111  0.0960
 6335W        W10535  10.363   7.471   0.560  0.1074 -0.0514 -0.0272
 6336W        W10536   3.207   6.083   1.147 -0.0160  0.0582 -0.1126
 6337W        W10537  10.340   3.958  11.796  0.2149  0.0693 -0.0115
 6338W        W10538   3.982   0.849  11.957  0.2437  0.0104 -0.0052
 6339W        W10539   1.777   2.936  12.351  0.0559  0.1248 -0.2038
 6340W        W10540   3.091  10.348  11.825 -0.2512 -0.2225 -0.0440
 6341W        W10541   6.873   7.319   3.597  0.1730 -0.0149 -0.1778
 6342W        W10542   9.555   9.885  13.232 -0.0205 -0.1255 -0.2518
 6343W        W10543   1.628   4.376   4.643 -0.1360  0.1700  0.1554
 6344W        W10544   8.558   4.110   3.332  0.2136  0.1829 -0.1922
 6345W        W10545   7.959   0.577  10.537  0.2513  0.2603 -0.0761
 6346W        W10546   1.726   9.930   1.324 -0.0203  0.0216 -0.1052
 6347W        W10547   5.991   3.133   0.281  0.0099  0.1449  0.1770
 6348W        W10548   2.621   1.388   1.765  0.3117 -0.0352 -0.0631
 6349W        W10549   6.323   3.716  10.132  0.1525 -0.1223 -0.1538
 6350W        W10550   1.328   3.203   1.294 -0.3842 -0.1073  0.0626
 6351W        W10551   7.511   7.042   9.700  0.0394  0.0888 -0.0428
 6352W        W10552   6.828   4.484   2.594 -0.2257  0.3338  0.3395
 6353W        W10553   2.499   6.983  12.364 -0.2258  0.0249  0.1880
 6354W        W10554   1.915   8.282   2.494  0.1070  0.0850  0.1406
 6355W        W10555   6.666   6.987  10.929 -0.0434  0.0261  0.0416
 6356W        W10556   7.343   3.266   3.290 -0.1682  0.0859 -0.3546
 6357W        W10557   8.717   3.755   4.172  0.0337  0.0187  0.1908
 6358W        W10558   7.388   5.033   4.686 -0.0159 -0.0081  0.0848
 6359W        W10559   6.661   2.926   3.714 -0.0061  0.0784 -0.1672
 6360W        W10560   5.566   6.251   3.758  0.1755 -0.0107  0.0688
 6361W        W10561   1.433   1.993   0.420 -0.2138  0.2305 -0.1931
 6362W        W10562   7.182   2.297  11.001  0.0657 -0.2717  0.3314
 6363W        W10563  10.067  10.067   1.975 -0.0888 -0.1672 -0.2350
 6364W        W10564   7.710   4.583   3.077 -0.1644  0.0127 -0.0699
 6365W        W10565   1.323   2.414   1.738  0.0512  0.0967 -0.1716
 6366W        W10566   7.776   6.884   9.195 -0.1537 -0.0123  0.1712
 6367W        W10567   9.913   5.943   1.960  0.1688  0.2407 -0.1660
 6368W        W10568   3.768   6.853   1.072  0.0783  0.1782 -0.2388
 6369W        W10569   5.172   8.015   9.520 -0.2038 -0.3534 -0.1386
 6370W        W10570   3.195   8.326  11.455  0.2190  0.3180 -0.1487
 6371W        W10571   1.943   1.809   9.604  0.2981  0.1007  0.0704
 6372W        W10572   6.511   1.567   0.587 -0.1020 -0.1559 -0.1797
 6373W        W10573   0.388   2.984  11.622 -0.3159  0.2188 -0.0396
 6374W        W10574   6.449   4.022  12.955 -0.4014  0.0375  0.1094
 6375W        W10575   2.551   4.646   0.522 -0.0652  0.4848  0.4029
 6376W        W10576   0.215   4.235   3.888 -0.1091  0.1523  0.3340
 6377W        W10577   4.890   7.645   3.732 -0.2675 -0.1210  0.3093
 6378W        W10578   1.121   6.123   0.392 -0.0168 -0.0071 -0.0346
 6379W        W10579   0.126   2.663   0.558 -0.0182  0.1527  0.0164
 6380W        W10580   7.681   4.767  11.592  0.0649 -0.0389 -0.0965
 6381W        W10581   4.022   8.396  10.825 -0.0375  0.0704 -0.2286
 6382W        W10582   0.225   0.132  10.854 -0.0308  0.0584 -0.4996
 6383W        W10583   3.812   3.386   0.417 -0.4363 -0.0508 -0.0227
 6384W        W10584   3.827   4.265  12.099  0.1252  0.2113 -0.0855
 6385W        W10585   3.232   0.050   8.973  0.0541 -0.3343  0.1045
 6386W        W10586   4.654   5.576  12.807  0.4448  0.1616  0.2321
 6387W        W10587   7.016   7.681   0.528 -0.2835  0.2399 -0.3366
 6388W        W10588   0.937   5.643   0.403 -0.1379 -0.0419 -0.0597
 6389W        W10589   8.867   5.950   1.532 -0.0266  0.2183 -0.1159
 6390W        W10590   0.075   2.084   5.412  0.1214 -0.4066 -0.2213
 6391W        W10591   9.232  10.394  12.235 -0.1043 -0.0648  0.0705
 6392W        W10592   5.744   3.626   2.235  0.0706  0.2104  0.0913
 6393W        W10593   9.310   6.908   7.211 -0.2602  0.0843 -0.1411
 6394W        W10594   9.366   3.887   3.088 -0.0439  0.3551  0.1225
 6395W        W10595   6.847   6.381   3.109  0.0889 -0.1799 -0.0818
 6396W        W10596   6.822  10.045   0.675  0.0993 -0.2101  0.6036
 6397W        W10597   5.162   1.737   9.888 -0.2172 -0.0030 -0.1800
 6398W        W10598   1.419   9.264   2.969  0.1281  0.2413 -0.2327
 6399W        W10599   5.095   5.939   9.016  0.3420 -0.0198 -0.1656
 6400W        W10600   6.996   0.138  12.328  0.1942 -0.1511  0.1991
 6401W        W10601   7.676   3.828  11.586  0.0423 -0.0297 -0.0556
 6402W        W10602   1.856   4.596  13.250 -0.0034 -0.4975 -0.0844
 6403W        W10603   4.680   4.457   1.711 -0.1189  0.2222 -0.0643
 6404W        W10604   7.715   3.130  12.976 -0.3794 -0.0649 -0.1208
 6405W        W10605   4.132   9.972   2.179 -0.0742  0.1360 -0.0883
 6406W        W10606   0.417   5.115  11.984 -0.3095  0.0869  0.2039
 6407W        W10607   2.048   9.057  12.906 -0.0757  0.0232  0.2264
 6408W        W10608   8.322   5.842   2.794  0.0818  0.0895 -0.1264
 6409W        W10609   2.387   2.558   9.732  0.0962  0.0788 -0.0043
 6410W        W10610   8.371   8.806   2.832  0.0569  0.3089 -0.1622
 6411W        W10611   6.686   5.400  10.409 -0.2873  0.0076 -0.1381
 6412W        W10612   1.881   2.962   2.188 -0.1502  0.2153 -0.1253
 6413W        W10613   6.643   5.547  11.414 -0.0359 -0.0292  0.2006
 6414W        W10614   4.639   0.395  12.341  0.1947 -0.1263 -0.6560
 6415W        W10615  10.399   2.138   2.146 -0.0571  0.0979 -0.1753
 6416W        W10616   4.312   3.726   9.734  0.1434  0.1076 -0.0276
 6417W        W10617   5.040   9.268   2.729 -0.4369  0.0675  0.1705
 6418W        W10618   7.626  10.041   0.188  0.1258 -0.0751  0.2454
 6419W        W10619   9.064   4.134  10.908  0.3596  0.0907 -0.0308
 6420W        W10620   6.300   6.796   4.110 -0.2588 -0.0789 -0.0122
 6421W        W10621  10.158   2.578   0.820 -0.1661  0.0524 -0.0503
 6422W        W10622   2.502   8.410   9.910  0.0473 -0.2107 -0.0297
 6423W        W10623   5.036   6.610  11.626 -0.1056 -0.1000  0.2383
 6424W        W10624   3.605   4.719  13.383  0.2594  0.0294  0.4220
 6425W        W10625   5.266   3.408  12.108 -0.2135  0.3189 -0.1728
 6426W        W10626   1.770   2.278  13.054 -0.2638 -0.1861  0.0093
 6427W        W10627   2.763   6.289   2.700  0.2009 -0.2065 -0.0767
 6428W        W10628   1.712   6.168  12.566  0.2711  0.0326  0.0727
 6429W        W10629   6.166   5.984   0.821 -0.1188  0.0566 -0.1077
 6430W        W10630   4.057   9.785   3.753  0.3287  0.0120 -0.0320
 6431W        W10631   3.243   5.701   2.757  0.0481 -0.3976 -0.0699
 6432W        W10632   8.901   8.132   7.703 -0.0911 -0.0340  0.1757
 6433W        W10633   6.010   1.499   1.453  0.1625  0.0544  0.0384
 6434W        W10634   1.917   5.326   2.446  0.1426  0.0549  0.1069
 6435W        W10635   1.294   7.527  13.208  0.1106 -0.0051 -0.0497
 6436W        W10636   2.159  10.266   0.528  0.0453 -0.3351  0.0755
 6437W        W10637   6.994   3.028   8.814  0.1641  0.4725 -0.0597
 6438W        W10638   8.895   7.399  11.802 -0.0924 -0.1329 -0.3425
 6439W        W10639   8.117   1.498   0.918 -0.1150 -0.0700  0.2073
 6440W        W10640   4.683   5.501  10.320  0.0543  0.0683  0.1481
 6441W        W10641   1.599   6.532  13.036 -0.0669  0.0249  0.1595
 6442W        W10642   8.997  10.060   2.593  0.0170  0.1783 -0.3305
 6443W        W10643   4.183   1.534  12.925  0.0011 -0.0192  0.2517
 6444W        W10644   7.733   9.571   0.412 -0.4181 -0.1522  0.2861
 6445W        W10645   3.873   9.398  13.046  0.3142  0.0923 -0.1177
 6446W        W10646   7.711   6.333  12.521  0.1058 -0.2724  0.2138
 6447W        W10647  10.248   5.126  10.174 -0.4704 -0.1844  0.1049
 6448W        W10648   0.103   2.933   2.821  0.0828 -0.3604 -0.1342
 6449W        W10649   6.428   3.350   0.529 -0.1673  0.0012 -0.0931
 6450W        W10650   0.297   6.578   1.783 -0.0204 -0.0092 -0.1639
 6451W        W10651   2.224   4.184  12.250  0.2960 -0.0879 -0.0092
 6452W        W10652   6.972   9.453   3.600 -0.2837  0.0376  0.0909
 6453W        W10653   9.257   6.333  11.679  0.2796  0.6517  0.0549
 6454W        W10654   1.233   7.930  11.968  0.1776  0.0270  0.5576
 6455W        W10655   5.906   9.191  12.941  0.1449  0.2529 -0.3629
 6456W        W10656   7.592   5.556  10.402  0.1773  0.2816 -0.0691
 6457W        W10657   2.317   2.858   3.033  0.1313 -0.0316 -0.1986
 6458W        W10658   3.986   6.729  11.763  0.3085  0.1248 -0.0360
 6459W        W10659   3.262   0.867   5.081  0.0176  0.0611  0.0628
 6460W        W10660   5.188   5.058   1.104 -0.1909  0.0303 -0.5606
 6461W        W10661   6.760   1.735   9.149  0.3532 -0.0963  0.0565
 6462W        W10662   2.600   2.948  10.824  0.0572  0.0158 -0.0045
 6463W        W10663  10.022   2.479   9.511  0.3555  0.0929 -0.0601
 6464W        W10664   3.920  10.296  12.123  0.4843 -0.0268 -0.2213
 6465W        W10665   5.373   4.539   3.663 -0.0772  0.0583  0.2340
 6466W        W10666   8.468  10.133   2.723 -0.2459  0.0644  0.1910
 6467W        W10667   7.799   4.749  10.051 -0.2661  0.1185  0.3363
 6468W        W10668   9.946   3.283   1.691  0.0503 -0.0362  0.0004
 6469W        W10669   7.209   0.461  11.172  0.1374 -0.0154  0.3490
 6470W        W10670   8.301   9.532  12.836 -0.5122  0.0269  0.1333
 6471W        W10671  10.236   7.297  13.375 -0.0377  0.2853  0.2793
 6472W        W10672   0.748   3.596  10.623  0.1909  0.2338 -0.2751
 6473W        W10673   2.711   9.627  11.182 -0.1353  0.4470 -0.0827
 6474W        W10674   3.221   2.883  10.273 -0.1677 -0.0164  0.3644
 6475W        W10675   8.908   9.116  11.161 -0.0836  0.0314  0.2452
 6476W        W10676   7.915   2.439   2.456 -0.1030 -0.2576  0.2086
 6477W        W10677   0.243   2.826  12.206  0.3519 -0.0723 -0.0199
 6478W        W10678   9.646   9.100   3.564  0.2381  0.2414 -0.2870
 6479W        W10679   5.014   3.927   2.833  0.1332 -0.0213 -0.1115
 6480W        W10680   9.052   9.728  13.365  0.3500  0.1567 -0.4652
 6481W        W10681   1.224   5.522  12.677 -0.2178 -0.0012  0.1790
 6482W        W10682   9.617   9.492   1.079  0.3007 -0.1966 -0.0685
 6483W        W10683   2.036   0.934   2.486  0.1683 -0.0237 -0.0241
 6484W        W10684   7.762   0.576   2.619  0.1858 -0.2952  0.1072
 6485W        W10685   4.294   8.772  12.128  0.0525 -0.0845 -0.0793
 6486W        W10686  10.219   1.700   0.224 -0.1607  0.0058  0.0461
 6487W        W10687   3.683   9.152  11.353 -0.2992 -0.2196  0.0091
 6488W        W10688   7.531   1.911   9.696  0.0139 -0.0293 -0.0077
 6489W        W10689   4.664   5.836   1.458 -0.1127  0.6049  0.1673
 6490W        W10690   9.483   0.362   1.909  0.0362 -0.2267 -0.0569
 6491W        W10691   5.828   2.084   1.933  0.1653 -0.3475  0.0802
 6492W        W10692   0.630   8.269  12.109  0.0344  0.4306  0.0560
 6493W        W10693   6.021   3.475   1.608  0.1574 -0.3965 -0.0320
 6494W        W10694   3.067   1.520  10.976 -0.0158 -0.3154 -0.3653
 6495W        W10695   8.041   2.241   5.474 -0.1237  0.2323  0.1229
 6496W        W10696   0.530   9.931  11.046 -0.0947 -0.0165 -0.3326
 6497W        W10697   7.926   3.805   2.138  0.0324 -0.0960 -0.2438
 6498W        W10698   6.855   2.211   4.654  0.1490  0.2881 -0.3027
 6499W        W10699   0.586   5.832  10.397 -0.0926  0.1601 -0.1662
 6500W        W10700   0.166   6.307  13.015 -0.0431  0.3824  0.0744
 6501W        W10701   0.695   2.031   3.388 -0.0413  0.0925 -0.0835
 6502W        W10702   7.737   9.307   1.181  0.0707  0.1614  0.0780
 6503W        W10703   6.824   6.417  13.195 -0.0485 -0.2812  0.5876
 6504W        W10704  10.402   2.980   0.180  0.0230 -0.4860 -0.0449
 6505W        W10705   0.633   4.327   0.657  0.0915  0.1050  0.0964
 6506W        W10706   9.686   3.201  13.045  0.1686  0.2097 -0.2869
 6507W        W10707   0.170   2.909  10.229  0.1177  0.1328  0.2103
 6508W        W10708   2.239   6.823   0.169  0.0094 -0.1975  0.0738
 6509W        W10709   9.678   6.045   0.408 -0.2154 -0.1793 -0.0864
 6510W        W10710   2.040   6.073  12.927 -0.0860  0.0731  0.1961
 6511W        W10711   3.465   6.312  12.436 -0.0060  0.0759  0.2646
 6512W        W10712   6.023   5.841   2.029  0.4351 -0.0539 -0.1108
 6513W        W10713   1.494   4.201   2.149 -0.1281  0.0599  0.0625
 6514W        W10714   1.350   7.725   1.054 -0.0968 -0.0341 -0.0226
 6515W        W10715   9.973   9.515  11.550  0.1660 -0.0468 -0.0586
 6516W        W10716   7.643   7.063   0.243 -0.1611 -0.0243 -0.0332
 6517W        W10717  10.227   8.216  12.426 -0.1982  0.0732  0.2961
 6518W        W10718   0.346   0.419   0.375  0.2313 -0.0412  0.1902
 6519W        W10719   6.490   2.790   1.857  0.2702 -0.0954  0.0382
 6520W        W10720   0.397   8.305  10.028  0.1020  0.1818  0.3095
 6521W        W10721   4.181   1.735  12.341 -0.4355  0.0884  0.0314
 6522W        W10722   9.894   2.968  13.405 -0.2200 -0.0042 -0.0299
 6523W        W10723   5.966   3.991  11.240 -0.1221  0.0930 -0.0144
 6524W        W10724   4.314   0.897   4.188  0.3793  0.1105 -0.0471
 6525W        W10725   4.581  10.154  10.884 -0.1598  0.0895 -0.0365
 6526W        W10726   4.056   8.199   0.139 -0.1374  0.2455 -0.2871
 6527W        W10727   9.075   2.006   0.527 -0.0638 -0.1604  0.2177
 6528W        W10728   1.368   7.380   3.184 -0.2782 -0.5659 -0.3604
 6529W        W10729   9.624   9.227  11.891  0.1751  0.0095  0.0661
 6530W        W10730   1.757   5.670  12.674 -0.3619 -0.3127 -0.1904
 6531W        W10731   8.651   2.994  10.302 -0.0092 -0.2199 -0.0213
 6532W        W10732   8.194   8.734   2.323  0.0088 -0.0318 -0.2488
 6533W        W10733   1.333   2.042   4.115 -0.1842  0.3143  0.1242
 6534W        W10734   6.018   9.607   2.109  0.1096  0.2109 -0.0433
 6535W        W10735   1.712   6.145  12.042  0.0138  0.1030 -0.1505
 6536W        W10736   3.491   1.031  11.640 -0.3631  0.0428  0.3034
 6537W        W10737   9.449   6.595   2.611 -0.1210  0.2119  0.1293
 6538W        W10738   8.599   2.945   8.667  0.3396  0.2677 -0.1560
 6539W        W10739   9.295   3.376   2.832  0.2188  0.3226 -0.0890
 6540W        W10740   5.937   0.665   1.411 -0.3036  0.1747 -0.1510
 6541W        W10741   7.363   3.155   0.289 -0.2372  0.3566 -0.0987
 6542W        W10742   3.832   5.511  13.319  0.1785  0.0124  0.1377
 6543W        W10743   9.657   3.218  11.518 -0.1992  0.1544 -0.0859
 6544W        W10744   4.793   3.615   9.322 -0.0813  0.0947 -0.2396
 6545W        W10745   8.864   2.799   4.702 -0.0567 -0.4509  0.0685
 6546W        W10746   9.691   7.129  11.527 -0.2237 -0.0535  0.1178
 6547W        W10747   8.493   1.817   4.286 -0.0219  0.3179  0.1048
 6548W        W10748   8.015   1.693   9.004 -0.4099  0.0645  0.1815
 6549W        W10749   5.188   1.504   2.435 -0.1970 -0.1500 -0.2707
 6550W        W10750   9.931   4.793   1.442 -0.0832  0.1293 -0.1393
 6551W        W10751   0.633   3.907   3.644 -0.2551  0.0508 -0.2773
 6552W        W10752   1.055   3.423  11.335 -0.1627 -0.0396 -0.0116
 6553W        W10753   5.814  10.226   0.940 -0.1682 -0.1303  0.1277
 6554W        W10754   1.889   8.141  13.197  0.2318 -0.1007  0.0048
 6555W        W10755   4.906   9.890  11.181 -0.0979 -0.0205  0.0061
 6556W        W10756   9.730   4.760   1.935  0.2317 -0.0603 -0.0663
 6557W        W10757   0.739   2.835   0.534  0.1787 -0.2698  0.1564
 6558W        W10758   5.694   5.527   3.443  0.1691  0.0174  0.0287
 6559W        W10759   7.838   8.818  12.866 -0.0235  0.1145  0.1290
 6560W        W10760   7.653   1.467   3.134 -0.0226  0.1411 -0.1778
 6561W        W10761   2.853   6.935   2.161  0.1644  0.0024  0.1953
 6562W        W10762   0.854   3.325   1.477 -0.0036  0.2551 -0.0029
 6563W        W10763   2.203   3.007   0.995 -0.0745 -0.3305  0.2718
 6564W        W10764   4.198   3.104   4.283 -0.2888 -0.1450 -0.3129
 6565W        W10765   5.745   9.651   4.713  0.1123  0.0785  0.0596
 6566W        W10766   8.970   1.436  12.182 -0.0195 -0.0281 -0.1653
 6567W        W10767   1.558   0.710   2.486  0.0587  0.1383 -0.0167
 6568W        W10768   4.567   9.768   9.946 -0.0953  0.1575  0.2084
 6569W        W10769   6.522   6.554   3.499 -0.1243 -0.4601  0.1610
 6570W        W10770   7.129   1.308   0.000  0.0373  0.2117  0.1315
 6571W        W10771   3.368   3.246   5.208  0.0672  0.1977  0.2487
 6572W        W10772   2.859   0.415   3.321  0.4289 -0.3965  0.2162
 6573W        W10773   1.683  10.287  10.474  0.1118 -0.2305  0.2668
 6574W        W10774   6.483   4.022   2.443  0.0140 -0.0193 -0.0458
 6575W        W10775   4.489   8.170  10.612  0.0763 -0.0256 -0.1280
 6576W        W10776   8.564   8.167   2.339 -0.1870  0.0418 -0.0446
 6577W        W10777  10.159   8.251   1.690 -0.3423 -0.0680 -0.3354
 6578W        W10778   5.174   2.341  10.194  0.1606  0.0504  0.0821
 6579W        W10779   7.765   1.776   4.436 -0.0893  0.0959 -0.5379
 6580W        W10780   0.372   1.219  13.303 -0.1847 -0.3304 -0.2041
 6581W        W10781   2.055   7.665   3.998 -0.0802  0.1131  0.1868
 6582W        W10782   6.253   5.147   2.506  0.2502  0.2941  0.0094
 6583W        W10783   2.796   0.886  13.403  0.0456  0.2277 -0.3224
 6584W        W10784   5.235   7.331  11.089  0.3777  0.1675 -0.1859
 6585W        W10785   6.101   7.016   2.956  0.1781 -0.2625 -0.0557
 6586W        W10786  10.111   0.810  11.919 -0.1832  0.1645  0.0958
 6587W        W10787   8.279   8.962  12.663 -0.0293 -0.2649 -0.1013
 6588W        W10788   3.242   6.041   4.618  0.1039 -0.0517 -0.3651
 6589W        W10789  10.416   3.637   8.789  0.1959  0.2019  0.0415
 6590W        W10790   3.247   5.043  10.055  0.2357 -0.0475  0.1607
 6591W        W10791   1.969   5.892  10.060  0.2195  0.1282 -0.0097
 6592W        W10792   8.585   2.979   2.788 -0.0010  0.1146  0.1274
 6593W        W10793   5.446  10.294   1.900 -0.0225  0.0470 -0.1130
 6594W        W10794   1.787   9.569  10.994 -0.1003  0.0867 -0.2006
 6595W        W10795   3.813   7.169  12.155 -0.0896 -0.4219  0.1175
 6596W        W10796   3.114   1.352   1.658 -0.3171  0.2849  0.3177
 6597W        W10797   1.577   9.832  10.299 -0.1917 -0.0822  0.0859
 6598W        W10798   9.885   3.154  12.005  0.4803  0.0233 -0.4545
 6599W        W10799   5.810   1.096  10.967 -0.0794 -0.2141  0.1566
 6600W        W10800   1.968   5.319   5.061 -0.0051 -0.0338  0.1380
 6601W        W10801   4.928   9.177  11.750  0.1286  0.0423  0.0690
 6602W        W10802   2.914   3.721   9.572  0.2974 -0.2501  0.1433
 6603W        W10803   4.090   4.096   1.052 -0.1367  0.1163  0.1463
 6604W        W10804   0.575   4.007   1.068  0.2037  0.2201 -0.1775
 6605W        W10805   3.112   8.216   0.700  0.1632  0.1449  0.1621
 6606W        W10806   4.247   1.485   0.300 -0.1026  0.4074 -0.0712
 6607W        W10807   3.027   4.750  12.526 -0.0788 -0.1251  0.1076
 6608W        W10808   8.897   6.178   4.023  0.1114  0.0871  0.3075
 6609W        W10809   4.953  10.101   4.220  0.1234 -0.1646 -0.2769
 6610W        W10810   1.973   5.556   4.636 -0.0187  0.2154  0.2839
 6611W        W10811   4.211   2.982  11.006 -0.2681  0.0115 -0.1300
 6612W        W10812   1.338   6.726   2.390  0.0361  0.0568  0.0939
 6613W        W10813   1.163   8.866  10.528 -0.2058 -0.2031  0.1201
 6614W        W10814  10.254   5.640  10.974  0.1884 -0.2644 -0.1016
 6615W        W10815   2.926   4.391   1.807  0.1770 -0.4698 -0.0728
 6616W        W10816   7.327   2.089   5.206  0.0044  0.0478  0.1030
 6617W        W10817   6.696   0.239   1.324 -0.1571  0.0287  0.0201
 6618W        W10818   6.795   9.306  11.781  0.1391 -0.0148  0.3800
 6619W        W10819   0.661   9.521   3.260  0.1423  0.0774  0.0368
 6620W        W10820   4.846  10.103   2.908  0.0471  0.3285  0.3834
 6621W        W10821   1.855   8.662  11.168 -0.0018 -0.1691  0.2095
 6622W        W10822   9.092   5.516  12.308 -0.1131 -0.0515 -0.0688
 6623W        W10823   5.323   1.063  12.536  0.0902 -0.1079 -0.0496
 6624W        W10824   1.411   4.538   9.781 -0.0548 -0.2848 -0.0731
 6625W        W10825   5.720   8.829   2.438 -0.2046  0.2554 -0.1627
 6626W        W10826   6.586   0.344   4.128  0.0114 -0.2383 -0.2158
 6627W        W10827   2.552   5.948   9.352  0.1361 -0.1448  0.0001
 6628W        W10828   8.075   3.088  11.771  0.0783  0.0792 -0.0474
 6629W        W10829   3.293   1.250   3.950  0.0158  0.3087 -0.1614
 6630W        W10830   5.450   8.029   3.851 -0.0971 -0.2268 -0.2258
 6631W        W10831   3.527   0.775   8.654 -0.0872  0.0513  0.4226
 6632W        W10832   0.142   3.031   1.710  0.1226  0.1303  0.0743
 6633W        W10833   0.172   6.450   1.314  0.0354  0.0697 -0.1664
 6634W        W10834   7.225   1.592  10.135  0.1064 -0.1095 -0.2040
 6635W        W10835  10.166   9.611   0.435 -0.0963  0.2165 -0.1374
 6636W        W10836  10.095   7.252  10.007 -0.1724  0.0194  0.1014
 6637W        W10837  10.329   1.706   0.873 -0.1706 -0.1691 -0.1362
 6638W        W10838   4.174   6.587   3.640  0.0962 -0.0041 -0.4722
 6639W        W10839   4.904   4.152   1.415  0.2592  0.0553 -0.1234
 6640W        W10840   6.084   7.246   4.231 -0.3488  0.0393 -0.2422
 6641W        W10841   0.217   1.043   4.663  0.0558  0.0454  0.0962
 6642W        W10842   6.123   9.575   0.694 -0.1171  0.1213  0.2984
 6643W        W10843   7.046   5.205   1.024 -0.0588  0.1612  0.1153
 6644W        W10844   9.176   0.406   2.890 -0.3595 -0.1938 -0.1586
 6645W        W10845   3.435   3.691  11.184  0.2002 -0.1779  0.1206
 6646W        W10846   5.990   2.270  11.542 -0.1468 -0.0557 -0.1368
 6647W        W10847   2.497   4.653   1.785  0.0485  0.0764  0.1118
 6648W        W10848   8.117   9.027  11.939 -0.3321 -0.2431 -0.4396
 6649W        W10849   9.787   1.747  12.309 -0.2138 -0.3411  0.2810
 6650W        W10850   2.771   7.795  10.757 -0.2760  0.0671 -0.0043
 6651W        W10851   0.352   4.390   2.875  0.0426  0.2334  0.2443
 6652W        W10852   4.671   1.139   3.782  0.1845  0.0402 -0.1208
 6653W        W10853   8.791   5.053  11.587 -0.0441 -0.1095 -0.2654
 6654W        W10854   7.991   1.161   9.752  0.0394 -0.2214 -0.3372
 6655W        W10855   3.385   3.640   8.888 -0.2078  0.0720 -0.3706
 6656W        W10856   0.957   7.770   3.347  0.0443  0.0944  0.1246
 6657W        W10857   8.587   4.629   3.352  0.2587 -0.3068  0.0666
 6658W        W10858   4.586   9.782  13.281 -0.0463 -0.2169 -0.0855
 6659W        W10859   1.227   6.318  12.352  0.0024  0.0638  0.0429
 6660W        W10860   4.953   3.140   2.555  0.2796 -0.1712 -0.3629
 6661W        W10861   8.699   8.616   2.477 -0.0314  0.0901  0.1246
 6662W        W10862   8.371   5.191   2.041  0.0136  0.1355  0.1080
 6663W        W10863   4.632   1.385   2.433 -0.4595 -0.3008 -0.0874
 6664W        W10864   5.281   0.353  10.422 -0.0807  0.2681  0.1210
 6665W        W10865   3.230   2.670   9.661 -0.1556  0.3762  0.1168
 6666W        W10866   4.193   5.244  11.572  0.1238 -0.0109 -0.2852
 6667W        W10867   2.887   0.181  11.416 -0.5373  0.1625 -0.0086
 6668W        W10868   7.552   5.680   0.314  0.0196 -0.2082  0.0806
 6669W        W10869   2.875   8.593  13.059  0.0565  0.0402  0.1090
 6670W        W10870   0.810   4.239   1.382 -0.2142  0.1215  0.0878
 6671W        W10871   0.936   8.586  10.877 -0.1140  0.2799  0.0910
 6672W        W10872   9.194   0.919  11.404 -0.0717 -0.2206 -0.1065
 6673W        W10873   2.302   4.643  11.345 -0.1939 -0.0119 -0.0855
 6674W        W10874   4.761   8.575   3.996 -0.2819 -0.0272 -0.0428
 6675W        W10875   0.248   0.994  10.371  0.2773  0.0644  0.3337
 6676W        W10876   9.645   0.266   2.879 -0.1537  0.0336 -0.1878
 6677W        W10877   1.094   0.957   2.586 -0.0541 -0.3408 -0.0125
 6678W        W10878   3.757   8.696  11.576  0.2929  0.1120 -0.3063
 6679W        W10879   8.965   0.883   3.306 -0.2531 -0.2566  0.2277
 6680W        W10880   3.187   2.103   9.562 -0.0506 -0.0417 -0.1424
 6681W        W10881   4.135   5.053   3.102  0.0049  0.2385  0.2840
 6682W        W10882   8.406  10.200  10.153  0.3416 -0.1276  0.0914
 6683W        W10883   3.719   1.929   2.425  0.0680  0.1229 -0.3134
 6684W        W10884   8.784   8.276  10.997  0.1060  0.1075  0.1344
 6685W        W10885   6.052   4.866   0.011  0.0813 -0.1080 -0.4524
 6686W        W10886   3.761   3.958   9.024 -0.1152  0.0305 -0.0323
 6687W        W10887   7.520   2.850   4.294  0.2686 -0.0767 -0.1633
 6688W        W10888   8.090   1.942  11.229 -0.0083 -0.0656  0.0772
 6689W        W10889   2.944   8.361   2.247  0.0341  0.0644  0.0972
 6690W        W10890   1.696   8.590  10.118 -0.1615  0.0237 -0.0046
 6691W        W10891   4.027   0.826  10.231  0.0650  0.2565  0.2493
 6692W        W10892  10.105   2.125  13.400 -0.0059 -0.3618  0.0103
 6693W        W10893   1.714   0.885   2.007 -0.3610 -0.1439 -0.3901
 6694W        W10894   9.773   7.455  13.398  0.1534  0.0738 -0.2110
 6695W        W10895   8.498  10.414   3.155 -0.0457 -0.3544  0.2475
 6696W        W10896   3.734   2.698  11.035 -0.0370  0.0706 -0.2994
 6697W        W10897   0.941   5.324   9.631  0.2629  0.0418 -0.2544
 6698W        W10898   2.543   0.928  12.546  0.3088  0.4635  0.1891
 6699W        W10899   6.124   3.028   1.517  0.1702 -0.1178 -0.2259
 6700W        W10900   3.674   4.637  12.617 -0.0722  0.1087 -0.2211
 6701W        W10901   6.873   9.025   1.080 -0.0607  0.1407 -0.0034
 6702W        W10902   7.444   9.078  12.379 -0.1210  0.1562  0.1001
 6703W        W10903   2.568   5.919  12.133  0.2255  0.3423 -0.1567
 6704W        W10904   5.475   5.968   4.217 -0.0523 -0.1429  0.2103
 6705W        W10905   0.272   0.978   1.339  0.1420  0.1021 -0.1632
 6706W        W10906   8.599  10.136  11.060  0.0975 -0.1416  0.1151
 6707W        W10907   5.518   2.948   0.465 -0.0591 -0.1554 -0.1505
 6708W        W10908   5.847   7.611   3.629  0.3274 -0.0382  0.2064
 6709W        W10909   4.753   8.841  10.346 -0.1769 -0.0807 -0.0874
 6710W        W10910   9.415   2.047   4.133 -0.0358  0.0451 -0.0152
 6711W        W10911   2.526   3.884  12.508 -0.0793  0.0300  0.0032
 6712W        W10912   9.293   0.739   0.825 -0.3160 -0.0808 -0.0093
 6713W        W10913   0.737   0.840   9.922 -0.0894 -0.0091 -0.0788
 6714W        W10914   1.475  10.362  13.357  0.1319  0.0434 -0.5553
 6715W        W10915   5.127   7.359   4.552  0.0568 -0.1629 -0.0449
 6716W        W10916   2.257   1.415  12.903 -0.2907 -0.2480  0.0709
 6717W        W10917   2.210   0.738  12.170 -0.0336 -0.2882 -0.0525
 6718W        W10918   3.768   1.297   0.493 -0.1792 -0.0747 -0.1127
 6719W        W10919   6.633   5.087   0.787 -0.1925 -0.2757 -0.0623
 6720W        W10920  10.103   4.719   0.186 -0.0217 -0.0510  0.0967
 6721W        W10921   2.790   8.769   9.628  0.0292  0.1118 -0.2023
 6722W        W10922   4.656   3.325   9.792 -0.0732 -0.3984 -0.1694
 6723W        W10923   5.209   5.485  10.336 -0.1115  0.2372 -0.0199
 6724W        W10924   2.769   1.335   1.256  0.2809 -0.0275  0.1424
 6725W        W10925   0.460   3.855   3.103  0.0003  0.3328 -0.0148
 6726W        W10926   1.002   7.186  12.325  0.1063  0.2045  0.1518
 6727W        W10927   1.690   4.964  12.861  0.4815 -0.0026 -0.0159
 6728W        W10928   8.841   1.510  12.697  0.1027 -0.1453 -0.0207
 6729W        W10929   9.377   6.420   0.736  0.0618  0.1333 -0.0320
 6730W        W10930   4.902   2.178   9.103 -0.1460  0.0702  0.3245
 6731W        W10931   1.446   0.894  13.371  0.3042  0.1281  0.2466
 6732W        W10932   4.518   6.076  10.345 -0.1011  0.0537 -0.0910
 6733W        W10933   3.470   5.983   1.664 -0.1818  0.1018 -0.0828
 6734W        W10934   9.069   7.469   2.907 -0.3775 -0.1609  0.1020
 6735W        W10935   0.644   3.554   2.310  0.0533 -0.1007 -0.1588
 6736W        W10936   9.549   7.206  10.072 -0.0651 -0.1401 -0.2016
 6737W        W10937   6.152   9.681  12.947 -0.4068 -0.5149 -0.0598
 6738W        W10938   1.218   3.421   0.826 -0.0695  0.1966  0.1513
 6739W        W10939   0.781   4.148   0.185 -0.2301  0.0452 -0.4576
 6740W        W10940   5.755   6.032  11.023 -0.3032 -0.2579 -0.3027
 6741W        W10941   2.314   2.412   9.072  0.4484 -0.0144  0.1141
 6742W        W10942   4.541   1.861   8.908  0.0110 -0.1911 -0.0055
 6743W        W10943   8.102   3.678   1.586 -0.4110 -0.0865 -0.1415
 6744W        W10944   1.306   4.715  11.194 -0.1548 -0.0543 -0.3532
 6745W        W10945   1.955   4.206   2.339  0.1766 -0.0662 -0.1712
 6746W        W10946   7.254   7.506  10.395  0.1123 -0.1928 -0.2958
 6747W        W10947   3.940   5.502   0.435 -0.2234 -0.1754  0.3882
 6748W        W10948   8.894   2.150   4.300 -0.2326  0.0913 -0.1530
 6749W        W10949   4.616   7.705  12.700 -0.1439  0.0514  0.2028
 6750W        W10950   3.773   1.554   9.753  0.0957 -0.2223 -0.0579
 6751W        W10951   5.329   9.550  12.532 -0.0416  0.1979 -0.1529
 6752W        W10952   3.862   4.900   8.501  0.0600 -0.1464  0.0527
 6753W        W10953   8.163   5.082  12.924  0.0120  0.2112 -0.0302
 6754W        W10954   4.934   1.964  11.886 -0.0104 -0.0573 -0.1357
 6755W        W10955   6.418   2.654  10.422  0.1641 -0.1219 -0.0393
 6756W        W10956   8.846   7.389   2.477 -0.1638 -0.1664  0.1884
 6757W        W10957   1.820   6.247   4.153  0.0277 -0.1693  0.0049
 6758W        W10958   3.117   0.797   3.528 -0.1776  0.1658 -0.3758
 6759W        W10959   4.844  10.310   4.774 -0.1379 -0.1786  0.0244
 6760W        W10960   6.998   8.356  10.375  0.2920  0.0317  0.0752
 6761W        W10961   8.566   6.329   1.235  0.0341 -0.0168  0.4023
 6762W        W10962   7.028   1.584  12.233  0.0171  0.3031  0.1239
 6763W        W10963   0.545   8.046  10.656  0.1505  0.0952  0.2283
 6764W        W10964   2.331   5.631   3.908  0.0994 -0.0210  0.1166
 6765W        W10965   6.574   2.822  13.174 -0.4541 -0.1036 -0.1967
 6766W        W10966  10.090   6.594   0.231 -0.1978  0.2961  0.0083
 6767W        W10967   0.192   0.366   2.601 -0.1103 -0.1129 -0.0300
 6768W        W10968   7.585   0.949   9.975 -0.0368 -0.0615 -0.4947
 6769W        W10969   5.176   2.472  10.899  0.5094 -0.1026 -0.1495
 6770W        W10970   3.821   0.272  10.201 -0.0211 -0.1798  0.2114
 6771W        W10971   5.114   6.858  11.123 -0.2677  0.3123 -0.0364
 6772W        W10972   8.001   0.131   0.908  0.0729  0.1656 -0.0311
 6773W        W10973   1.458   2.378   0.757  0.2463 -0.0017 -0.0466
 6774W        W10974   6.777   7.872   1.019 -0.2775 -0.0769 -0.0998
 6775W        W10975   9.460   8.971   1.993 -0.1249  0.2523  0.0481
 6776W        W10976   8.613   3.864  10.795 -0.0616  0.0793 -0.1816
 6777W        W10977   1.702   0.997  10.262 -0.0948 -0.0487  0.0659
 6778W        W10978   5.293   4.806   2.149  0.0100 -0.0096  0.1021
 6779W        W10979   2.628   1.734  10.181  0.1404  0.2985  0.1254
 6780W        W10980   4.051   4.404  11.438 -0.1884  0.0759 -0.1191
 6781W        W10981   6.971   0.422  11.757  0.0362 -0.3030  0.1852
 6782W        W10982   3.228   4.257   3.826  0.0519 -0.2875 -0.2281
 6783W        W10983   5.462   2.906   9.333  0.3276 -0.0704 -0.2534
 6784W        W10984   5.730   0.243  12.451  0.3394 -0.0592  0.0801
 6785W        W10985   1.242   9.975  12.245  0.4119 -0.2380 -0.1586
 6786W        W10986   5.779   6.625   0.173  0.0113 -0.4058  0.5513
 6787W        W10987   0.672   9.849   2.870  0.0690  0.0041 -0.0639
 6788W        W10988   8.662   0.924   0.051 -0.1820 -0.2057  0.0968
 6789W        W10989   3.233   2.998   3.370 -0.1932  0.2316  0.0772
 6790W        W10990   6.395   0.886   4.229  0.1828  0.2528 -0.0850
 6791W        W10991   9.837   4.250   1.954 -0.2027 -0.0901  0.4791
 6792W        W10992   5.161  10.216   2.529  0.1504  0.2294 -0.2146
 6793W        W10993   6.027   7.963  10.160  0.2164 -0.0951 -0.1835
 6794W        W10994   4.055  10.205  11.315  0.0664  0.0299  0.3188
 6795W        W10995   5.895   5.336   9.948 -0.1654  0.2147 -0.1917
 6796W        W10996   2.075   9.686   0.612 -0.0483  0.1092 -0.3003
 6797W        W10997   6.690   8.785  10.359 -0.3437  0.2928 -0.0930
 6798W        W10998   8.444   1.598   2.722  0.2153 -0.2534 -0.3026
 6799W        W10999   7.939  10.247   3.155 -0.0426 -0.0123 -0.1334
 6800W        W11000   2.560   1.079  11.913  0.0129  0.0183 -0.1561
 6801W        W11001   0.986   5.442   2.543 -0.0673 -0.0226  0.1952
 6802W        W11002   2.475   3.051   0.406  0.0283 -0.0151 -0.0090
 6803W        W11003   7.158   5.183  10.302 -0.0603  0.0940  0.0468
 6804W        W11004   9.924   9.997   0.134 -0.1236  0.1050 -0.0020
 6805W        W11005   7.651   4.361  12.384 -0.2672  0.1322 -0.2746
 6806W        W11006   0.259   5.546  10.981  0.3611  0.1215 -0.1238
 6807W        W11007   5.784   3.956   1.692 -0.1661 -0.3076 -0.3952
 6808W        W11008   6.632   4.891   2.807 -0.1208  0.0190  0.0528
 6809W        W11009   2.948   4.019   9.148  0.1291 -0.1344  0.1658
 6810W        W11010   3.664   1.129   4.756 -0.2029  0.1153 -0.0920
 6811W        W11011   6.943   7.909  10.615  0.0360  0.0081  0.1007
 6812W        W11012   3.762   8.683  12.728  0.2387  0.1948  0.2571
 6813W        W11013   2.350   1.938   3.595 -0.3396  0.1904 -0.0086
 6814W        W11014   3.827   8.365   4.306 -0.1013 -0.0175  0.0222
 6815W        W11015   6.287   9.353  12.570  0.1773 -0.0332 -0.2206
 6816W        W11016   4.306   4.936  10.864  0.2407  0.0884  0.2224
 6817W        W11017   1.771   8.219  11.355 -0.1609 -0.2271  0.3506
 6818W        W11018   8.753   2.529  12.207  0.1787 -0.1645 -0.0960
 6819W        W11019   6.571   0.746   1.543  0.0329 -0.2091  0.1831
 6820W        W11020   8.921   5.839  10.123 -0.1335  0.0549 -0.3107
 6821W        W11021   5.940   6.025   3.985 -0.3326 -0.0920 -0.0857
 6822W        W11022  10.373   3.083   0.846  0.0940  0.0381  0.2450
 6823W        W11023   8.816   7.845   0.869 -0.1542 -0.0413  0.0691
 6824W        W11024  10.395   0.182   9.377 -0.0147 -0.2004  0.0658
 6825W        W11025   1.638   8.126   0.254 -0.0018  0.4779  0.0187
 6826W        W11026   8.122   4.140   9.399  0.1510 -0.0442  0.0002
 6827W        W11027   0.937   1.538  12.723 -0.1440  0.0695 -0.1719
 6828W        W11028   2.401   0.142  12.927  0.1762  0.0214 -0.1883
 6829W        W11029   9.557  10.236   9.374 -0.0492  0.0646 -0.0716
 6830W        W11030   4.681   2.269  11.101  0.2294  0.1152  0.0192
 6831W        W11031   6.495   2.996  12.226 -0.2913  0.0925  0.0900
 6832W        W11032   0.393   2.552   2.586 -0.0481 -0.1178 -0.1407
 6833W        W11033   2.892   6.736   9.896  0.0276 -0.2452  0.2595
 6834W        W11034   3.289   1.474   0.371  0.3297 -0.0804 -0.1252
 6835W        W11035   3.717   3.273   1.932 -0.5059  0.1362  0.1475
 6836W        W11036   6.778   9.020   3.449 -0.0637  0.3781 -0.2684
 6837W        W11037   4.871   4.449   2.177 -0.0532 -0.3836 -0.1555
 6838W        W11038   7.534   1.956   3.127  0.2263  0.1823 -0.1004
 6839W        W11039   7.071   8.837  10.741 -0.2796 -0.0383 -0.0577
 6840W        W11040   1.540  10.398  12.716 -0.1123 -0.2455  0.2526
 6841W        W11041   6.502   5.244  12.372 -0.1637 -0.0114 -0.0018
 6842W        W11042   8.215   7.429   3.311  0.0826 -0.0388  0.0742
 6843W        W11043   0.888   4.131  10.019  0.0344 -0.0834 -0.0099
 6844W        W11044   4.306   0.751  12.371 -0.1781 -0.0051 -0.5275
 6845W        W11045  10.269   6.626   1.072  0.1814 -0.0157 -0.1439
 6846W        W11046   4.114   2.036   3.197 -0.1853 -0.0405  0.2431
 6847W        W11047   1.872   2.203  10.355 -0.0725  0.2495 -0.0006
 6848W        W11048   3.348   6.531  10.140 -0.0287  0.1425  0.4393
 6849W        W11049   5.381   2.514   3.237  0.0530 -0.2578 -0.2541
 6850W        W11050   8.881   7.677   0.006  0.2333 -0.1620  0.0473
 6851W        W11051   7.286   3.544  12.793  0.0888  0.2085 -0.0988
 6852W        W11052   0.150   5.958  10.705  0.0645  0.0327 -0.1435
 6853W        W11053   9.700   6.426   4.188 -0.0079 -0.2248 -0.0993
 6854W        W11054   2.355   2.637   1.321  0.3102 -0.1915  0.0409
 6855W        W11055  10.375   5.129  13.416  0.2031  0.0158  0.2371
 6856W        W11056   7.339   9.744   3.796 -0.2899 -0.0405  0.0985
 6857W        W11057   5.105   6.930  12.091 -0.1087 -0.2549 -0.1619
 6858W        W11058   3.129   3.299   4.304  0.1547 -0.0499 -0.2266
 6859W        W11059   1.757   0.371  12.695 -0.2361 -0.0303  0.4120
 6860W        W11060   2.281   2.951  10.505  0.3685 -0.2337  0.0093
 6861W        W11061   4.047   2.430  11.819 -0.3772 -0.0423 -0.0484
 6862W        W11062   7.329   7.148   3.545 -0.2941  0.3712  0.1766
 6863W        W11063   6.351   6.865  11.611  0.3228  0.3962 -0.1698
 6864W        W11064  10.184   9.443   7.054  0.1494  0.1218 -0.2770
 6865W        W11065   3.632   8.464  10.176  0.2683 -0.0574 -0.0566
 6866W        W11066   1.011   2.724   3.004 -0.0655  0.4205  0.1291
 6867W        W11067  10.245   5.590   1.698  0.0083 -0.1104 -0.0325
 6868W        W11068   3.284   8.623   0.931  0.2884 -0.0420  0.3396
 6869W        W11069   3.633   8.260  13.307 -0.0005 -0.0435 -0.0241
 6870W        W11070   4.606   7.140  10.538  0.1473  0.3986 -0.0206
 6871W        W11071   9.160   8.110  12.194  0.1906  0.3045 -0.0987
 6872W        W11072   4.502   1.036   0.313 -0.1647 -0.0311 -0.1063
 6873W        W11073   6.885   8.722   1.573 -0.0036  0.1769  0.0009
 6874W        W11074   3.398   9.753  11.212  0.0279  0.1071 -0.0541
 6875W        W11075   7.057   5.403   3.875 -0.1009  0.0714 -0.1185
 6876W        W11076   9.098   8.897   0.224 -0.3117 -0.3824  0.1196
 6877W        W11077   9.722   4.277   4.162 -0.1785  0.1295 -0.0024
 6878W        W11078   3.722   7.052   8.806 -0.1369  0.1740  0.0605
 6879W        W11079   9.073   2.829  10.031 -0.2516 -0.3300 -0.2600
 6880W        W11080   7.766   0.802   9.490  0.0255  0.1079 -0.1162
 6881W        W11081   4.341   3.716   3.594 -0.0023 -0.0156  0.2598
 6882W        W11082   6.815   5.913  11.654  0.0651 -0.0346 -0.1165
 6883W        W11083   2.020   4.220   4.332 -0.0612  0.2428  0.1167
 6884W        W11084   8.078   8.912   1.056 -0.1388 -0.2604 -0.0245
 6885W        W11085   7.487   1.058   2.749 -0.1615  0.0759 -0.1735
 6886W        W11086  10.375   5.126  11.075 -0.0078  0.4243  0.1235
 6887W        W11087   9.064   6.499   3.077  0.0550 -0.0152  0.0441
 6888W        W11088   6.220   5.438   9.202 -0.1932 -0.0460  0.4133
 6889W        W11089  10.183   9.470   3.242  0.0367  0.2095 -0.0001
 6890W        W11090   5.752   9.162   9.008  0.1560 -0.2847 -0.4156
 6891W        W11091   4.405   1.566   4.549 -0.1387 -0.0082  0.0446
 6892W        W11092   2.242   3.648   0.393  0.2802 -0.1137 -0.0956
 6893W        W11093   2.662   2.436   2.649  0.3053 -0.2736  0.1850
 6894W        W11094   9.543   1.722   3.814 -0.2415  0.0306 -0.0003
 6895W        W11095   7.463   3.472  13.375 -0.2880 -0.5207 -0.2031
 6896W        W11096   1.768   1.426  11.799 -0.1885 -0.1092  0.2030
 6897W        W11097   0.580   2.686  12.521 -0.1563  0.2409 -0.1329
 6898W        W11098   7.781   5.910   3.003 -0.0730  0.0384 -0.2754
 6899W        W11099   2.146   6.209  12.272 -0.2064  0.2608  0.0107
 6900W        W11100   9.086   6.416   3.610 -0.0718  0.1413  0.1501
 6901W        W11101   9.152   4.907  10.242  0.1221 -0.0186  0.1483
 6902W        W11102   0.265   1.644   0.026  0.0541 -0.1296  0.1606
 6903W        W11103   6.939   7.035   9.015  0.1559  0.1390  0.1007
 6904W        W11104   1.968   8.171  10.360  0.2382  0.2444 -0.1355
 6905W        W11105   7.909   2.704  10.871  0.0333 -0.1260 -0.2839
 6906W        W11106   1.037   1.213   0.244 -0.1681  0.0288  0.0839
 6907W        W11107   1.653   3.337   3.755  0.0535 -0.1192  0.1767
 6908W        W11108   7.530   5.647   9.625  0.0392 -0.3358  0.2190
 6909W        W11109   5.064   8.661   1.714 -0.4649 -0.1273  0.1047
 6910W        W11110   3.009   5.154   2.765  0.2710 -0.0323  0.1578
 6911W        W11111   9.491   2.093   0.813  0.0559 -0.1051  0.0472
 6912W        W11112   5.348   7.672   3.509 -0.1159  0.3437 -0.3925
 6913W        W11113   7.442   5.466   1.199 -0.1197  0.1457 -0.2743
 6914W        W11114   2.869   0.299  13.259  0.1428 -0.1079 -0.0187
 6915W        W11115   3.177   9.813   2.140 -0.2523 -0.1744 -0.1758
 6916W        W11116   2.247   0.034  10.946  0.1382 -0.1480  0.0181
 6917W        W11117   7.371   0.979   1.818  0.4144  0.0796 -0.0270
 6918W        W11118   2.964   6.921   3.508  0.3851  0.2099  0.4778
 6919W        W11119   4.623   3.372   4.029 -0.2502  0.2526 -0.0851
 6920W        W11120   2.454   8.133   2.358 -0.0639  0.1789 -0.6090
 6921W        W11121   0.285   5.156   2.959 -0.1630  0.3054 -0.0143
 6922W        W11122   5.481   3.289  11.294  0.0531  0.3240  0.2714
 6923W        W11123   0.721   1.973  13.070  0.2338  0.1109 -0.0588
 6924W        W11124   2.731   3.135  10.363 -0.0494  0.0240  0.0077
 6925W        W11125   1.190   2.933  13.138 -0.3739 -0.0797  0.0664
 6926W        W11126   7.765   4.604   1.561 -0.1397  0.0421 -0.1921
 6927W        W11127  10.029  10.237  12.092 -0.1077 -0.0991  0.1976
 6928W        W11128   6.420   8.182   8.830 -0.0651 -0.1639 -0.2080
 6929W        W11129   7.987   5.098  10.884  0.0772  0.2074 -0.0103
 6930W        W11130   1.940   3.485   3.000  0.1299 -0.1464  0.0237
 6931W        W11131   0.100   1.848   2.715 -0.0655  0.0361  0.0803
 6932W        W11132   9.799   1.241   1.325  0.3182 -0.0574  0.0817
 6933W        W11133   5.152   8.544  10.381 -0.1660  0.0433 -0.0025
 6934W        W11134   7.561   1.426  10.505 -0.0028 -0.0280 -0.1308
 6935W        W11135   9.424   2.833  10.381  0.1471  0.0046  0.2468
 6936W        W11136   2.593  10.080   0.438 -0.4512  0.1238 -0.0566
 6937W        W11137   7.149  10.263   0.170 -0.2632 -0.0032 -0.0506
 6938W        W11138   2.229   1.063   9.477 -0.0221  0.2235  0.1617
 6939W        W11139   8.879   3.758   9.988  0.0157  0.2591 -0.1047
 6940W        W11140   5.848   0.088   1.858 -0.0064 -0.0527  0.2166
 6941W        W11141   1.469   0.244  10.543 -0.4392  0.0551  0.5097
 6942W        W11142   3.574   0.627   1.185  0.2744 -0.0343 -0.1272
 6943W        W11143   3.560   5.766   9.145 -0.2634  0.0652 -0.0140
 6944W        W11144   7.563   1.909  10.250  0.3281  0.0196 -0.0682
 6945W        W11145   5.982   2.708   0.588 -0.1877  0.0074  0.1181
 6946W        W11146   8.682   1.506  13.220 -0.1010 -0.3064 -0.1222
 6947W        W11147   4.429   5.459   0.227 -0.0115 -0.0982 -0.1508
 6948W        W11148   7.916   4.819  13.287  0.1157  0.2024 -0.1595
 6949W        W11149   9.963   0.646   3.011 -0.1005 -0.2903  0.0619
 6950W        W11150   3.178   5.901   2.062 -0.1414  0.1074 -0.2616
 6951W        W11151   0.435   0.408  13.343 -0.1465 -0.0180 -0.0382
 6952W        W11152   8.547   4.702  11.313 -0.1779 -0.1017 -0.2739
 6953W        W11153   3.813   3.778  12.076  0.1062  0.1718  0.0271
 6954W        W11154   7.883   8.571  11.762 -0.1169  0.1972 -0.0417
 6955W        W11155   9.931   1.810  11.838  0.0254  0.3691 -0.0349
 6956W        W11156   2.717   9.749   2.217  0.1608  0.0836  0.1525
 6957W        W11157  10.232   8.934   1.344  0.0160 -0.0615  0.1950
 6958W        W11158   1.943   9.163  13.340 -0.0219  0.2144 -0.2018
 6959W        W11159   8.031   2.807  13.152 -0.1147  0.2766  0.2507
 6960W        W11160   7.834   5.165   1.004 -0.0125 -0.1828 -0.1107
 6961W        W11161   4.365   6.863  13.079  0.2259  0.0305  0.0198
 6962W        W11162   1.704   9.454   4.362  0.3160 -0.0211  0.0667
 6963W        W11163   9.898   9.983   3.319 -0.1401  0.1656 -0.0313
 6964W        W11164   3.057   3.674   2.614 -0.0399  0.0766  0.1541
 6965W        W11165   8.086   7.900   0.123 -0.0406 -0.1378 -0.2034
 6966W        W11166   6.653   5.331   4.843  0.0566 -0.0449 -0.1583
 6967W        W11167   3.301   4.065  10.351  0.0489  0.0092  0.0809
 6968W        W11168   0.472   9.645   9.272 -0.3210 -0.1565 -0.0772
 6969W        W11169   3.270   8.467   2.598  0.0765  0.0211 -0.0000
 6970W        W11170   3.478   1.313   9.332 -0.0936 -0.2044  0.0680
 6971W        W11171   9.427   1.131   2.361  0.1135 -0.1689 -0.4935
 6972W        W11172   1.492   3.639   1.561 -0.1903 -0.4308 -0.1457
 6973W        W11173   2.913   3.487  12.751  0.1734 -0.1188  0.1785
 6974W        W11174   4.384   5.503   1.266  0.1013  0.0063 -0.1854
 6975W        W11175   5.124   6.890   3.301 -0.1943  0.0110 -0.1417
 6976W        W11176   5.869   3.323   8.465 -0.1270  0.0995  0.1715
 6977W        W11177   1.788   3.323   4.649  0.0588 -0.2020  0.1934
 6978W        W11178   9.720   8.509  11.410  0.0399  0.0114 -0.0299
 6979W        W11179   5.874   8.785   1.107 -0.4131 -0.1282 -0.0877
 6980W        W11180   3.942   3.414   4.007 -0.0802  0.0636 -0.2742
 6981W        W11181   8.556   7.669   2.132  0.0270  0.1734  0.0375
 6982W        W11182   2.288   3.675  12.084 -0.1897 -0.2580  0.0323
 6983W        W11183   9.862   3.614  12.252  0.0665  0.0572 -0.0983
 6984W        W11184   4.825   2.152  13.339  0.0484  0.0103  0.0151
 6985W        W11185   2.143   0.700  12.690  0.1512 -0.4453  0.0327
 6986W        W11186   4.678   7.017   1.956 -0.0965  0.3414 -0.2021
 6987W        W11187   7.383   9.044   4.396  0.1300 -0.0283  0.2717
 6988W        W11188   5.168  10.229   8.633 -0.0026 -0.0421  0.0375
 6989W        W11189   5.020   4.643   2.708 -0.1560 -0.4308  0.0851
 6990W        W11190   1.149   3.108   9.412 -0.2341  0.0393 -0.0183
 6991W        W11191   4.985   8.291  11.984 -0.1952 -0.2245 -0.1842
 6992W        W11192   9.099   4.508  12.267  0.4513 -0.1270 -0.0278
 6993W        W11193   7.141   2.364   0.103 -0.3631 -0.2672 -0.0761
 6994W        W11194  10.045   8.127  10.567  0.2595 -0.0005  0.1880
 6995W        W11195   1.790   8.847   0.758  0.5663 -0.2136 -0.0065
 6996W        W11196   3.356   6.742   2.449 -0.1758 -0.0593 -0.1898
 6997W        W11197   8.625   4.213  12.043  0.3701  0.1082  0.1002
 6998W        W11198   2.865   9.604   1.767  0.2590  0.1723  0.2946
 6999W        W11199   0.054   7.396   2.301  0.1578  0.1751  0.0494
 7000W        W11200   1.880   9.822   4.071  0.0469 -0.0852  0.0324
 7001W        W11201   3.257   6.204   3.671 -0.4279 -0.1064  0.2941
 7002W        W11202   6.882   5.027  12.830 -0.3899  0.0133  0.2069
 7003W        W11203   6.840   8.631  12.964  0.1591 -0.1734  0.2258
 7004W        W11204  10.131   1.395  10.981 -0.0669 -0.0481 -0.2803
 7005W        W11205   4.112   0.097  12.497  0.4410 -0.0972  0.1247
 7006W        W11206   2.716   9.404  12.759  0.2190  0.0003 -0.2263
 7007W        W11207   2.835  10.368   0.737 -0.1283 -0.0365  0.1462
 7008W        W11208   4.101   5.885   5.122  0.2852 -0.1586  0.1579
 7009W        W11209   7.688   7.162  13.146  0.3949 -0.0193  0.0597
 7010W        W11210   8.201   5.587  11.672 -0.2504  0.0398 -0.0010
 7011W        W11211   0.601   3.469  11.051 -0.0946 -0.2591 -0.2779
 7012W        W11212   2.106   5.433  12.932  0.3023 -0.4431 -0.1403
 7013W        W11213  10.102   0.658   4.045 -0.3595 -0.1406 -0.2231
 7014W        W11214   3.373   4.234  12.967  0.0506 -0.3535 -0.1755
 7015W        W11215  10.207   1.184   3.801 -0.0369 -0.3018 -0.1297
 7016W        W11216   9.947   9.320   1.330 -0.0530 -0.1523 -0.1978
 7017W        W11217   2.833   6.355   4.768 -0.1661 -0.0563 -0.0941
 7018W        W11218   2.399   5.049   2.092  0.2728 -0.0299 -0.1513
 7019W        W11219   3.439   6.468   4.470 -0.2867 -0.0863  0.3101
 7020W        W11220   2.634   3.351  12.374 -0.2996 -0.0266  0.0014
 7021W        W11221   1.325   6.797   9.874 -0.1576  0.1453 -0.1217
 7022W        W11222   9.509   1.261  12.169 -0.1113 -0.0914 -0.1540
 7023W        W11223   3.268   1.120  10.342  0.1088  0.0651 -0.2096
 7024W        W11224   5.390   6.377  10.774 -0.1691  0.2109  0.0722
 7025W        W11225   6.294   1.220  13.214  0.0051 -0.4708  0.2318
 7026W        W11226   3.388   8.622  12.993  0.2815 -0.0705 -0.1639
 7027W        W11227   8.016   6.717  10.825 -0.0304 -0.0578 -0.4719
 7028W        W11228   6.508   5.710  13.050  0.2703 -0.0619  0.2494
 7029W        W11229   3.510  10.220  11.393 -0.0575  0.1670 -0.0053
 7030W        W11230   5.522   0.729   3.780 -0.2889  0.1729 -0.1538
 7031W        W11231   8.942   9.055   2.908  0.0548 -0.0523 -0.0346
 7032W        W11232   1.869   9.678   1.798  0.1439  0.0105  0.0317
 7033W        W11233   6.141   4.820   1.290 -0.1666 -0.0432  0.0118
 7034W        W11234   4.073   9.756   4.372 -0.2205 -0.0640 -0.0805
 7035W        W11235   8.930  10.194  12.658  0.2604  0.0773  0.2997
 7036W        W11236   6.654   1.359   4.119  0.0855  0.1161  0.0036
 7037W        W11237   9.370   2.291  11.179 -0.2258 -0.2397  0.1932
 7038W        W11238   4.768   5.069   0.828  0.2266 -0.1458  0.0997
 7039W        W11239  10.352   5.291   8.995 -0.0253  0.2430 -0.1408
 7040W        W11240  10.086   1.323  12.104  0.0925  0.0827  0.2313
 7041W        W11241   1.476   6.479   3.227 -0.2844  0.1582 -0.0855
 7042W        W11242   0.186   4.710   1.623 -0.3913  0.0006 -0.0995
 7043W        W11243   5.933   8.720   3.328 -0.0687 -0.4005  0.1020
 7044W        W11244   8.465   5.735   0.551 -0.0723 -0.0693  0.3999
 7045W        W11245   2.224   8.689  10.219 -0.1660  0.1795  0.0966
 7046W        W11246   4.297   7.680   0.188 -0.1775  0.2347 -0.0563
 7047W        W11247   2.328   3.153   1.460 -0.0934  0.1807 -0.5012
 7048W        W11248  10.167   1.580   9.314  0.0441 -0.2632 -0.2231
 7049W        W11249   9.948   5.454   9.805  0.2530 -0.1696 -0.3294
 7050W        W11250   2.901   4.850  12.026 -0.0379 -0.0520  0.0505
 7051W        W11251   6.737   8.903  13.417  0.2331  0.2303 -0.0873
 7052W        W11252   4.819  10.337  11.911  0.2085 -0.0261 -0.0309
 7053W        W11253   3.517   6.050  11.974  0.1059  0.3426  0.1665
 7054W        W11254   0.220   5.414  13.199  0.0665 -0.2536  0.0710
 7055W        W11255   5.832   0.096  11.500 -0.0697  0.1396  0.0800
 7056W        W11256   3.151   8.009   0.169  0.1700 -0.0801 -0.1783
 7057W        W11257   8.229   4.784  10.342  0.0844  0.1670 -0.0058
 7058W        W11258   3.465   0.402   3.614 -0.2272  0.1751  0.0743
 7059W        W11259   0.998   5.323   0.937  0.0852 -0.1777 -0.6045
 7060W        W11260   2.144   2.334   0.027 -0.3404  0.4306  0.2350
 7061W        W11261   2.195   9.414   3.996 -0.1129 -0.0977  0.1105
 7062W        W11262   4.664   5.068   3.383 -0.1276 -0.2616 -0.3739
 7063W        W11263   1.694   1.680   3.471 -0.1424 -0.2812  0.1208
 7064W        W11264   5.399   3.924  12.015  0.0057 -0.1394  0.0919
 7065W        W11265   1.580   1.054   9.428 -0.1280 -0.2663  0.0500
 7066W        W11266   7.946   1.741  10.446  0.2165  0.0975 -0.3052
 7067W        W11267   2.788   3.815   1.780 -0.0330 -0.2114 -0.0454
 7068W        W11268   3.539   5.273  10.743 -0.1664 -0.0987  0.2032
 7069W        W11269   0.430   2.208  10.568  0.0816  0.2482  0.0313
 7070W        W11270   6.876   3.669  11.269 -0.2590 -0.4100  0.0400
 7071W        W11271   4.953  10.343  13.084  0.2645  0.2096 -0.2660
 7072W        W11272   9.849   7.688   2.577  0.2695 -0.3331 -0.1560
 7073W        W11273   7.770   4.851   3.530 -0.3817 -0.4258  0.1853
 7074W        W11274   6.339   3.408   2.979  0.1676  0.0079 -0.0545
 7075W        W11275   7.157   7.576  10.889  0.0157  0.3193  0.0008
 7076W        W11276   5.635   2.358   5.004 -0.1088  0.0451  0.0161
 7077W        W11277   4.150   8.363   9.873  0.2416 -0.0189  0.0409
 7078W        W11278   0.269   7.260  12.403  0.0579 -0.0549  0.0655
 7079W        W11279   0.722   5.082   3.228 -0.0344  0.1056  0.2737
 7080W        W11280   9.526   1.182  13.056  0.0433  0.0829 -0.0206
 7081W        W11281   2.803   5.101  11.273  0.2537  0.1956 -0.0788
 7082W        W11282   3.982   1.922   3.690  0.0303  0.0574  0.0464
 7083W        W11283   8.381   6.183   2.487 -0.1507  0.0684 -0.0180
 7084W        W11284   3.864   5.262  12.014 -0.1655 -0.1632 -0.1677
 7085W        W11285   6.683   3.614  12.853 -0.2232 -0.0463 -0.2462
 7086W        W11286   4.526   2.336   9.477 -0.1302 -0.0159  0.0881
 7087W        W11287   0.740   4.866   4.812 -0.0844  0.2454 -0.1211
 7088W        W11288   4.190   4.527  12.387 -0.0008 -0.0044  0.2446
 7089W        W11289   7.099   3.400  10.689  0.3182 -0.3363  0.2615
 7090W        W11290   4.868   8.499   2.206 -0.5745 -0.1258 -0.1267
 7091W        W11291   2.512   2.457   2.022  0.2268 -0.1381 -0.2505
 7092W        W11292   4.445   3.709  11.832  0.3067 -0.0485  0.2486
 7093W        W11293   3.272   4.480  11.849  0.2063  0.2622 -0.1825
 7094W        W11294  10.238   2.323  10.603  0.1004  0.2397  0.1488
 7095W        W11295   2.015   6.566  11.169  0.2400  0.1205  0.1211
 7096W        W11296   5.067   7.549   1.081 -0.0345  0.0193 -0.5644
 7097W        W11297   3.454   9.625   5.173  0.1614  0.0971  0.1063
 7098W        W11298   8.310   5.282   0.597  0.1548  0.0844 -0.1598
 7099W        W11299   1.312   0.655   9.221 -0.1662  0.2775  0.1249
 7100W        W11300   4.040   5.393   9.797  0.0004  0.0741  0.0743
 7101W        W11301   6.285   2.351   2.147  0.1674  0.1099 -0.1132
 7102W        W11302   3.066   1.030  11.882  0.0564 -0.0651  0.2867
 7103W        W11303   0.808   3.614  12.143  0.0762  0.2921  0.0951
 7104W        W11304   4.554   8.096   0.114  0.1964  0.1887  0.2587
 7105W        W11305   1.973   0.402  10.708  0.1765  0.4571 -0.1645
 7106W        W11306   9.478   3.288   5.439 -0.2938  0.4873  0.1550
 7107W        W11307   8.534   4.298   8.367 -0.0371 -0.0154 -0.1769
 7108W        W11308   3.478   2.827   1.012  0.2010  0.2091 -0.0927
 7109W        W11309   8.261   5.873   3.479  0.0898 -0.2513  0.0666
 7110W        W11310   9.019   6.296   1.078 -0.2871  0.0675  0.1528
 7111W        W11311   8.597   1.456  11.114  0.2763  0.2612  0.2397
 7112W        W11312   9.024   1.344   2.494 -0.0196 -0.0250 -0.0003
 7113W        W11313   2.329   7.009   3.112  0.0904 -0.0373  0.0930
 7114W        W11314   7.077   0.329   4.006  0.2910  0.1967  0.0505
 7115W        W11315   6.076  10.483  11.952  0.1891 -0.1836 -0.0148
 7116W        W11316   2.545   0.419  11.179 -0.0690  0.0488 -0.2066
 7117W        W11317   0.984   4.869   2.415  0.1786 -0.1291 -0.0688
 7118W        W11318   1.965   2.619   3.257  0.1481 -0.1312  0.2810
 7119W        W11319   5.112   1.299  13.050  0.1008 -0.0818  0.0853
 7120W        W11320   2.356   2.846  13.367  0.0176 -0.2003  0.0786
 7121W        W11321   9.765   1.635   0.998  0.0770 -0.1143  0.2149
 7122W        W11322   6.005   8.099   3.879 -0.0026  0.0807  0.1220
 7123W        W11323   6.131   4.759   9.685 -0.3631  0.0773 -0.1534
 7124W        W11324   6.605   0.715   0.061  0.1970  0.1696  0.2413
 7125W        W11325   8.655   4.422   0.500 -0.0191 -0.3275  0.1396
 7126W        W11326   6.000   6.110  11.916 -0.2927  0.1348 -0.3903
 7127W        W11327   0.984   1.141   0.773 -0.1526  0.1684  0.4481
 7128W        W11328   9.710   1.456  10.657 -0.1000  0.3325  0.1219
 7129W        W11329  10.461   5.009  12.370 -0.2403  0.1100  0.3505
 7130W        W11330   0.622   5.753   2.264  0.2835 -0.0150 -0.0402
 7131W        W11331   2.550   4.008   0.552  0.1455  0.0629 -0.3024
 7132W        W11332  10.050   2.016   9.125  0.2891 -0.0780  0.0745
 7133W        W11333   5.312   5.063   3.517  0.3055 -0.2137  0.0061
 7134W        W11334   8.808   5.912   0.917  0.0599 -0.1432 -0.2115
 7135W        W11335  10.234   1.170  11.477  0.2644 -0.0499 -0.0438
 7136W        W11336   0.698   4.396   2.454  0.2078  0.1000  0.2162
 7137W        W11337   8.755   7.775  10.810 -0.2564 -0.2448 -0.3949
 7138W        W11338   0.235   5.510  12.173 -0.0025  0.1118 -0.3201
 7139W        W11339   8.517   2.153  11.908 -0.2653  0.2637  0.0435
 7140W        W11340   1.478   3.250   2.326 -0.1120  0.1522  0.0318
 7141W        W11341   4.185   2.497   0.496 -0.1474 -0.0162  0.1104
 7142W        W11342   9.802   4.629  12.200 -0.0754 -0.3316  0.4946
 7143W        W11343   1.278   2.301   4.515  0.1789 -0.0691 -0.0594
 7144W        W11344   3.424   7.280   4.437 -0.2812 -0.0310 -0.2054
 7145W        W11345   1.460   3.695   0.043 -0.0767  0.2201  0.3706
 7146W        W11346   4.828   0.999   9.250  0.1458 -0.0987 -0.0336
 7147W        W11347   9.284   0.275  13.151  0.1210  0.0645 -0.2642
 7148W        W11348   3.326   1.763   8.509  0.0553  0.0833  0.3135
 7149W        W11349   6.924   3.405   0.103 -0.2100  0.0740 -0.0473
 7150W        W11350   6.395   8.704   0.221 -0.1276  0.1426 -0.0969
 7151W        W11351   9.504   0.693  13.416  0.3012 -0.0283 -0.5299
 7152W        W11352   1.679   6.595   2.701 -0.1060  0.1580 -0.1174
 7153W        W11353   1.784   3.774   9.528 -0.0525  0.0618 -0.0511
 7154W        W11354   7.220   8.144   1.045  0.0266  0.1875 -0.0233
 7155W        W11355   5.608  10.024  12.796  0.1328  0.2254 -0.1425
 7156W        W11356   5.908   8.397  11.644  0.0253 -0.1335 -0.0695
 7157W        W11357   9.808   6.474  12.860  0.1147  0.0038 -0.2416
 7158W        W11358   7.730   6.521  13.239  0.1101 -0.0559 -0.1841
 7159W        W11359   8.990   4.728  10.930 -0.0723  0.1338  0.0984
 7160W        W11360   6.232   4.530   2.552  0.0312 -0.0859  0.1288
 7161W        W11361   9.118   3.651  10.957 -0.5303  0.1891  0.0617
 7162W        W11362   8.647   7.165   1.013  0.0959  0.0976 -0.4514
 7163W        W11363   6.736  10.456   2.573  0.0329 -0.0046  0.1179
 7164W        W11364   5.294   7.669   2.494  0.1723  0.0507 -0.3410
 7165W        W11365   6.703   3.757   3.763  0.1685 -0.0427  0.2436
 7166W        W11366   5.072   5.923  10.081  0.1126  0.0470  0.3613
 7167W        W11367   9.937   6.922   1.884  0.1711 -0.1713 -0.1359
 7168W        W11368   2.917  10.158  11.215  0.2148  0.0040 -0.0854
 7169W        W11369   4.384   9.066   8.617  0.3202  0.1032  0.1976
 7170W        W11370   2.244   5.525   0.859  0.3142 -0.1263  0.1611
 7171W        W11371   3.623   4.023   9.966  0.1419 -0.1659  0.0084
 7172W        W11372   4.322  10.188   4.399  0.1618  0.0031 -0.1058
 7173W        W11373   2.207   7.923  11.316  0.0042  0.0978 -0.1961
 7174W        W11374   1.689   5.384   0.236 -0.1169 -0.2576  0.1231
 7175W        W11375   1.323   1.955   4.882 -0.1911 -0.0735 -0.1162
 7176W        W11376  10.215   2.438   3.439 -0.3007  0.1917 -0.0189
 7177W        W11377   3.308   5.557   3.761 -0.2338  0.0598  0.4467
 7178W        W11378   2.485   4.722  10.122 -0.0732 -0.1074 -0.4107
 7179W        W11379   4.981   0.913   0.063 -0.0193 -0.0864  0.1832
 7180W        W11380   3.555  10.024   8.982 -0.0301  0.0634 -0.2396
 7181W        W11381   4.808   4.970   4.384 -0.0193 -0.0833 -0.2543
 7182W        W11382   5.677   3.663  12.991 -0.1806  0.1790 -0.0014
 7183W        W11383   3.322   8.571   0.056  0.1118 -0.0366  0.0703
 7184W        W11384   0.311   3.346  10.458  0.2457 -0.0558 -0.1640
 7185W        W11385   3.547   7.347   1.176  0.2769 -0.3253 -0.1629
 7186W        W11386   0.086   0.998   0.910 -0.3445  0.2181  0.0413
 7187W        W11387   3.755   5.522   1.531  0.0790 -0.0030 -0.0699
 7188W        W11388   7.487   3.347   4.279  0.0660 -0.1331 -0.1167
 7189W        W11389   3.101   4.715  11.047 -0.2283  0.0110  0.1239
 7190W        W11390   3.454   7.272   2.209  0.0541 -0.2315 -0.0527
 7191W        W11391  10.331   9.155  11.760 -0.1297 -0.4314 -0.0675
 7192W        W11392   6.304   5.628  12.573  0.3882  0.1638  0.0324
 7193W        W11393   6.466   8.458  13.213  0.3244 -0.1215 -0.0922
 7194W        W11394   0.479   2.250   5.137 -0.1102 -0.0035  0.2056
 7195W        W11395   0.725   5.964   4.255 -0.0190  0.0030 -0.1248
 7196W        W11396   6.296   2.419  11.883  0.0176  0.1079  0.2090
 7197W        W11397   2.041  10.334   2.781 -0.0977  0.1948  0.0684
 7198W        W11398   7.873   6.350  10.496  0.0533 -0.0694 -0.0115
 7199W        W11399   9.375  10.285  12.885  0.0731 -0.0512 -0.1655
 7200W        W11400   5.358   9.867   4.098  0.1327  0.3742 -0.1170
 7201W        W11401   1.618   1.819  10.070  0.0179  0.1063  0.0555
 7202W        W11402   4.124   7.230   0.950 -0.2709  0.1091  0.4938
 7203W        W11403   9.351   6.524   1.399 -0.1223  0.0167  0.1207
 7204W        W11404   0.565   6.821  12.461  0.0062 -0.2246  0.2099
 7205W        W11405  10.055   0.316  12.037 -0.0555 -0.2239 -0.0018
 7206W        W11406   5.298   6.740   0.464 -0.1528  0.0566  0.1968
 7207W        W11407   5.892   2.375  12.627  0.0195  0.1395 -0.1602
 7208W        W11408   8.448   5.903   9.762 -0.0462  0.1864 -0.4084
 7209W        W11409   1.299   4.100  11.804 -0.2896 -0.0989  0.2113
 7210W        W11410   6.058   2.665  12.249  0.2948  0.1797  0.0523
 7211W        W11411   0.612   5.552   1.728 -0.0914 -0.0476  0.0993
 7212W        W11412   4.811   6.276   1.686  0.0415  0.5180 -0.0437
 7213W        W11413   2.922   8.592  12.289 -0.1609 -0.0544  0.0023
 7214W        W11414   3.808   4.776   1.574  0.1089  0.0664  0.1128
 7215W        W11415  10.213   4.345   3.917 -0.1375  0.3117 -0.1077
 7216W        W11416   8.345   2.032  10.249  0.1312 -0.1131  0.2530
 7217W        W11417   1.133   4.775   3.375  0.1407 -0.2047 -0.0571
 7218W        W11418   2.742   6.494  10.847 -0.2582  0.1458 -0.1897
 7219W        W11419  10.381   8.583   9.979 -0.0478 -0.2369  0.2062
 7220W        W11420   3.486   6.736  13.064 -0.2152  0.0481 -0.0580
 7221W        W11421   9.534   2.100  12.560 -0.2641  0.1700 -0.0988
 7222W        W11422   9.075  10.291   9.359  0.2140 -0.1223 -0.0659
 7223W        W11423   7.755   9.379   1.711 -0.1943 -0.3590 -0.0773
 7224W        W11424   3.221   4.868  11.481 -0.1263 -0.0982 -0.2417
 7225W        W11425   8.640   4.806   3.904  0.2175  0.0023 -0.2741
 7226W        W11426   2.802   8.041   9.779 -0.0859  0.1394  0.0020
 7227W        W11427   3.049   1.780   2.526  0.3249  0.1079  0.1628
 7228W        W11428   8.752   6.361  11.832 -0.1615 -0.0622  0.2309
 7229W        W11429  10.411   3.989   1.253 -0.3080  0.0821  0.3015
 7230W        W11430   3.609   5.634   2.038 -0.1154 -0.0152  0.0442
 7231W        W11431   0.127   0.846   0.092  0.2033 -0.1032  0.0817
 7232W        W11432   1.378   8.556  11.540  0.1700  0.2993  0.1069
 7233W        W11433   5.100   1.983   1.422  0.3601  0.0573  0.0306
 7234W        W11434   5.391   2.262   1.123 -0.1214  0.0219  0.0956
 7235W        W11435   5.558   5.333  12.141 -0.1548  0.0988  0.4163
 7236W        W11436   9.390   1.765  11.928 -0.1435 -0.1332 -0.0983
 7237W        W11437   2.957   8.632   9.116 -0.0112 -0.0836 -0.0746
 7238W        W11438   4.234  10.362  13.077 -0.1070 -0.1327  0.3177
 7239W        W11439   6.428   9.297   1.893 -0.1054  0.1340 -0.0412
 7240W        W11440   7.380   2.420   4.738 -0.1873  0.1319  0.1599
 7241W        W11441   5.496   7.814  13.315  0.4170 -0.3034  0.0342
 7242W        W11442   1.304   2.007   3.548  0.0561  0.0497 -0.0099
 7243W        W11443   3.374   7.133  10.943 -0.1800  0.1260 -0.4640
 7244W        W11444   3.393   6.951   1.480  0.3044 -0.3871 -0.1533
 7245W        W11445   4.132   3.826  10.273  0.1618  0.0699 -0.1124
 7246W        W11446   3.588   3.183   3.662 -0.0683 -0.0912  0.0893
 7247W        W11447   4.522   0.587  10.950 -0.1105 -0.0805  0.0572
 7248W        W11448   6.496   1.566   3.615 -0.1059 -0.1693  0.0066
 7249W        W11449   1.987   9.089   9.937  0.2855 -0.0789 -0.2098
 7250W        W11450   8.069   2.611  12.037  0.1700 -0.0804  0.2911
 7251W        W11451   1.756   1.956   3.860  0.1404  0.1188  0.2076
 7252W        W11452   0.591   4.437  13.251 -0.2235 -0.2460 -0.0655
 7253W        W11453  10.331   9.301   2.448  0.0974  0.0552  0.0142
 7254W        W11454   7.644   4.778   4.288  0.0316 -0.0938  0.3563
 7255W        W11455   0.536   2.283   1.225  0.1254  0.1247  0.1813
 7256W        W11456   2.407   0.409  10.260  0.0505  0.2114 -0.0740
 7257W        W11457   7.904   3.751  12.342  0.0054 -0.2824  0.0023
 7258W        W11458   2.120   1.801  10.044 -0.0708  0.2009 -0.4752
 7259W        W11459   7.668   5.120   9.546 -0.1903  0.0726 -0.0515
 7260W        W11460   5.637   0.854  12.137 -0.0272  0.0504 -0.1431
 7261W        W11461   3.426   7.174  10.466  0.1008 -0.4502  0.0150
 7262W        W11462   7.372   8.944   3.446 -0.3159  0.3138 -0.0080
 7263W        W11463   3.252   5.735  10.970 -0.1868 -0.3148  0.3161
 7264W        W11464   7.991   2.228   8.896 -0.0235  0.0304 -0.3228
 7265W        W11465   0.314   5.900   3.635  0.2058 -0.1107 -0.1575
 7266W        W11466   3.210   3.390  10.353 -0.0046  0.0210 -0.1849
 7267W        W11467   9.068   2.780  13.328 -0.0396 -0.3445 -0.1836
 7268W        W11468   2.002   8.311   9.865 -0.0480  0.1075  0.1640
 7269W        W11469   6.995   5.655   9.550  0.1987 -0.1094 -0.2790
 7270W        W11470   7.985   2.338   1.897  0.0842 -0.1819 -0.0568
 7271W        W11471  10.230   9.160   0.815  0.0939 -0.2423  0.1150
 7272W        W11472   3.790   7.418   4.152  0.2734 -0.2730 -0.1930
 7273W        W11473   5.770   2.940  12.796 -0.0706  0.3391  0.2123
 7274W        W11474   7.930   9.089   3.613 -0.0701 -0.1393  0.1804
 7275W        W11475   3.038   6.790  12.216  0.3826  0.0667  0.1554
 7276W        W11476   2.759   6.878   0.897  0.0148 -0.0471  0.1876
 7277W        W11477   7.852   5.979   1.243 -0.1390 -0.1558 -0.0983
 7278W        W11478   8.893   3.663   1.921  0.0114  0.1916 -0.0022
 7279W        W11479   9.509   4.413  12.544 -0.2750  0.2385 -0.1255
 7280W        W11480   4.307  10.319   3.917  0.2855  0.2010  0.2505
 7281W        W11481   4.343   1.415   9.483 -0.2515 -0.2776  0.2890
 7282W        W11482   4.754   7.841   2.742 -0.0347 -0.1337 -0.1147
 7283W        W11483   0.094  10.296  12.647 -0.2380  0.3024  0.2735
 7284W        W11484   0.230   7.012   2.673  0.1755 -0.0628  0.0748
 7285W        W11485   0.347  10.169  10.600  0.0080 -0.2049 -0.0035
 7286W        W11486  10.110   9.685   1.670 -0.0744 -0.2486  0.1390
 7287W        W11487   2.506   8.208  13.055  0.0270 -0.1301 -0.1516
 7288W        W11488   3.765  10.272  13.297  0.1472  0.2870  0.0611
 7289W        W11489   9.180   0.696   2.258 -0.2037 -0.0502  0.0644
 7290W        W11490   7.116   8.744  10.007  0.0771 -0.5010  0.1246
 7291W        W11491   9.604   4.679   0.085 -0.0423  0.0076 -0.0872
 7292W        W11492   0.313   5.167   0.213  0.1647  0.0082  0.1524
 7293W        W11493   0.809   2.467  13.344  0.4521 -0.1685  0.1646
 7294W        W11494   0.500   9.287   2.814  0.0562  0.2455 -0.2884
 7295W        W11495   1.944   4.439  12.729  0.4325 -0.0805  0.1708
 7296W        W11496   1.890   4.234   3.403 -0.0758 -0.2252  0.0660
 7297W        W11497   3.884   7.686  12.877 -0.1430  0.2440 -0.4674
 7298W        W11498   1.884   6.474  10.701 -0.1162 -0.1686 -0.0428
 7299W        W11499   8.006   2.231   0.559 -0.0145  0.1430 -0.2343
 7300W        W11500   9.658   3.643   2.728  0.0150  0.3998  0.2964
 7301W        W11501   1.702   6.053   2.924 -0.5314  0.2001  0.0284
 7302W        W11502   3.564   5.161   0.550  0.2488  0.0594  0.3605
 7303W        W11503   6.810  10.133   4.640 -0.1219  0.0371  0.1838
 7304W        W11504   3.802   2.047   4.972 -0.2094  0.1603  0.2240
 7305W        W11505   5.646   4.493  11.622 -0.0073 -0.0391  0.1730
 7306W        W11506   7.935   5.428   1.992  0.0899  0.4165 -0.0460
 7307W        W11507   9.493   8.240  11.812 -0.0455  0.1725  0.1843
 7308W        W11508   2.929   8.695  11.763  0.1366  0.0870  0.0825
 7309W        W11509   5.431   8.283   1.480 -0.0854 -0.4413  0.0602
 7310W        W11510  10.301   9.644  11.012  0.1239  0.1275 -0.4020
 7311W        W11511   4.780   7.896   2.272  0.0842 -0.2605  0.0604
 7312W        W11512   8.931   7.689  11.326  0.1136  0.5005  0.1937
 7313W        W11513   1.754   7.375  11.605  0.4119  0.0431 -0.0436
 7314W        W11514   9.501   7.081   0.095 -0.1260  0.0672  0.0056
 7315W        W11515   8.692   1.027   1.670  0.2747 -0.1076  0.1458
 7316W        W11516   4.504   6.778   4.782  0.0636 -0.4451 -0.0374
 7317W        W11517   3.481   7.219   3.768 -0.0902  0.1247 -0.0132
 7318W        W11518   3.368   2.322  11.099 -0.0737  0.1901 -0.0096
 7319W        W11519   6.498   2.587   2.828  0.2984 -0.2285  0.0182
 7320W        W11520  10.362   8.885   5.528 -0.0479  0.2120  0.1676
 7321W        W11521   5.436   4.404   0.589 -0.2639  0.0947 -0.1364
 7322W        W11522   7.125  10.074  13.173 -0.1487 -0.1641 -0.0257
 7323W        W11523   4.275   4.193   5.131 -0.2171  0.3259 -0.2587
 7324W        W11524   7.013   7.796   2.973 -0.1734  0.0052 -0.0351
 7325W        W11525   9.891   0.025  10.611  0.0700 -0.0774 -0.0840
 7326W        W11526   7.870   3.582  12.824 -0.0976  0.3302 -0.2595
 7327W        W11527   4.301   3.031   1.830  0.2537 -0.0965 -0.0444
 7328W        W11528   2.100   4.210   8.623 -0.0960  0.0513 -0.2284
 7329W        W11529   9.942   4.611  10.354  0.0245  0.2949  0.4267
 7330W        W11530   4.574   4.824   2.908  0.0282 -0.0052  0.0459
 7331W        W11531   3.962   7.190  11.582 -0.0522  0.2287  0.0433
 7332W        W11532   3.258   3.969  12.063  0.1071  0.1520 -0.3096
 7333W        W11533   9.400   0.335   4.298 -0.0063 -0.1604 -0.0546
 7334W        W11534   4.364   7.091  10.114  0.1965  0.1351 -0.1258
 7335W        W11535   2.912   8.520  11.046 -0.0210  0.1029  0.1897
 7336W        W11536   5.156   8.751   2.619  0.0416  0.1580  0.0787
 7337W        W11537   4.074   6.258  12.436  0.2230  0.3067 -0.0693
 7338W        W11538   0.974   3.502  13.367 -0.2760  0.3099 -0.0736
 7339W        W11539   7.202   7.162  11.947  0.0862  0.2212  0.0358
 7340W        W11540   8.357   2.538  11.064 -0.1833 -0.1454 -0.2936
 7341W        W11541   6.137   1.245   3.357  0.0003  0.0614  0.1407
 7342W        W11542   9.063   5.919  12.632  0.1604  0.1027  0.1437
 7343W        W11543   1.544   2.247   2.567  0.3730  0.2657  0.0524
 7344W        W11544   8.981   1.752   8.910 -0.1792  0.0232 -0.0850
 7345W        W11545   4.347   8.489  12.664  0.1549 -0.4419  0.0125
 7346W        W11546  10.170   4.066  10.169  0.0369 -0.2812 -0.0517
 7347W        W11547   6.805  10.148   2.107  0.3584 -0.0197 -0.3351
 7348W        W11548  10.026   6.330   9.703 -0.1903 -0.1264  0.2961
 7349W        W11549  10.250   7.154  11.259 -0.3106  0.0796  0.1764
 7350W        W11550   6.021   4.979  13.028  0.1017  0.0013 -0.0226
 7351W        W11551   4.990   7.962  10.956  0.1169 -0.0081 -0.1706
 7352W        W11552   0.757   2.133   9.100 -0.0194  0.1211 -0.1535
 7353W        W11553   8.498   1.096  10.156 -0.1226 -0.0651  0.0021
 7354W        W11554   3.951   4.955   0.771  0.2313  0.0587  0.0294
 7355W        W11555   6.043   3.742  12.603 -0.2153 -0.0685  0.2675
 7356W        W11556   6.000   0.949   8.408  0.2007 -0.1891 -0.3208
 7357W        W11557   8.825   6.065   2.054  0.2861 -0.0895 -0.1381
 7358W        W11558   7.463   6.608   0.455 -0.0489  0.2437  0.2565
 7359W        W11559   1.549   8.654   1.203 -0.1156  0.1396  0.0276
 7360W        W11560   3.587   8.267  10.652 -0.2277  0.1512 -0.0485
 7361W        W11561   5.975   1.950   1.171 -0.0704 -0.1781  0.2834
 7362W        W11562   1.019   9.917  11.145 -0.2537 -0.0130  0.2682
 7363W        W11563  10.476   9.697   2.022  0.1616  0.0705 -0.2837
 7364W        W11564   8.842   7.278  10.866  0.1443 -0.2872 -0.1068
 7365W        W11565   5.229   4.575  10.125  0.0679  0.2548  0.1265
 7366W        W11566   6.771   0.958   2.361 -0.0878 -0.1229 -0.0334
 7367W        W11567   2.068   9.833   2.951 -0.1624  0.0520 -0.1512
 7368W        W11568   9.672   7.783  10.710 -0.1233  0.0982  0.0190
 7369W        W11569   3.550   5.257  11.618 -0.1545 -0.1890  0.0348
 7370W        W11570   5.619   1.650  10.135 -0.0598  0.0370  0.3610
 7371W        W11571   7.559   9.005  11.868  0.0465  0.0501  0.2168
 7372W        W11572   5.486   6.480  12.733 -0.2078  0.3335 -0.0181
 7373W        W11573   7.300   5.960   3.763  0.0584  0.3037 -0.0871
 7374W        W11574   8.657   7.121   2.088 -0.1839 -0.2784 -0.1569
 7375W        W11575   6.571   3.099   2.733  0.1610  0.0965  0.2349
 7376W        W11576   4.708   5.745  13.273  0.0328 -0.1763  0.2813
 7377W        W11577   8.415   8.148   0.995  0.2163  0.1490 -0.0542
 7378W        W11578   3.373   4.539   1.550 -0.0582  0.0944 -0.2084
 7379W        W11579   4.599   6.370   4.453  0.1559 -0.1073  0.0853
 7380W        W11580   5.344   0.049   3.402  0.1348 -0.0356 -0.0438
 7381W        W11581   4.981   4.215   0.624  0.0313 -0.0647 -0.1687
 7382W        W11582   3.609   5.062   4.272  0.0061 -0.1989 -0.4792
 7383W        W11583   8.092   1.779   1.656  0.0699 -0.0316 -0.1238
 7384W        W11584   7.730   5.285  13.376 -0.0696 -0.2755 -0.3356
 7385W        W11585   7.684   7.001  10.561 -0.0667  0.0400  0.0917
 7386W        W11586   5.292   9.451  11.919 -0.1277  0.0379 -0.3788
 7387W        W11587   0.193   1.441   1.154  0.0873  0.1938  0.2623
 7388W        W11588   2.705   5.691  11.721 -0.0355  0.0808  0.0021
 7389W        W11589   2.401   7.547   2.219 -0.2597  0.0648  0.3684
 7390W        W11590   4.872   8.445  10.818 -0.2532 -0.2163 -0.2180
 7391W        W11591   2.701   1.162  12.998 -0.0978 -0.0520  0.0006
 7392W        W11592   2.980   6.418   4.152  0.0331  0.1710 -0.2398
 7393W        W11593   0.402   9.853   1.146  0.2276 -0.2821  0.1176
 7394W        W11594   9.107   6.885   1.803  0.1212 -0.0635  0.1185
 7395W        W11595   3.392   6.252  12.901 -0.2375 -0.0307 -0.2319
 7396W        W11596   2.817   8.385   0.035  0.2109 -0.0254  0.0901
 7397W        W11597   7.193   7.005  10.154 -0.0258 -0.2210  0.3114
 7398W        W11598   4.849   9.020   0.276  0.0010  0.0692  0.2896
 7399W        W11599   1.958   4.951  10.379 -0.1850  0.0514 -0.1156
 7400W        W11600   2.189   8.296  11.715  0.0394  0.2441  0.2037
 7401W        W11601   3.054   9.364   3.459 -0.3245 -0.0327  0.2168
 7402W        W11602   4.584   6.784  12.385 -0.5446 -0.0105  0.2936
 7403W        W11603   6.273   9.156  11.821 -0.0853 -0.1061  0.0107
 7404W        W11604   2.603   7.425   0.074 -0.1291 -0.0529 -0.0475
 7405W        W11605   0.049   2.048   1.252  0.2410  0.1378 -0.1067
 7406W        W11606   4.976   5.429   3.553  0.0606  0.1807  0.3046
 7407W        W11607   6.493   9.890   9.457  0.2607  0.0915  0.1256
 7408W        W11608   5.377   5.166  11.228  0.0295  0.0791  0.0681
 7409W        W11609   1.547   9.021   0.167 -0.0552 -0.1965  0.2082
 7410W        W11610   1.759   4.815   4.229  0.3004 -0.0691  0.2027
 7411W        W11611   0.752   5.082   4.087  0.1222 -0.2030 -0.1285
 7412W        W11612   7.944   6.732   0.548 -0.0325  0.0509 -0.1738
 7413W        W11613   2.066   3.961  12.716  0.3064 -0.0470 -0.3330
 7414W        W11614   4.694  10.074  10.387 -0.1334  0.2290 -0.3929
 7415W        W11615   5.589   0.840   4.621  0.5016  0.3277  0.0535
 7416W        W11616   3.957   6.483  12.847  0.0137  0.2345 -0.1171
 7417W        W11617   7.501   5.303   2.461 -0.2920  0.1462 -0.3446
 7418W        W11618   9.305   2.666   2.470  0.0826  0.0924  0.2721
 7419W        W11619   3.318   4.340   9.192 -0.1485  0.0924  0.2443
 7420W        W11620   3.767   8.040  11.764 -0.1065 -0.0196 -0.0740
 7421W        W11621   7.125   1.879  11.752  0.1869 -0.0460 -0.1429
 7422W        W11622   9.885   2.085   3.385  0.0033  0.0667 -0.0610
 7423W        W11623   5.382  10.026   9.742  0.2361 -0.1143 -0.0285
 7424W        W11624   8.658   4.002   9.151 -0.1099 -0.0602 -0.4142
 7425W        W11625   9.121   8.987   9.887  0.1060 -0.3019 -0.0749
 7426W        W11626   5.515   6.680  12.257  0.0952  0.0960 -0.4148
 7427W        W11627   7.661   1.565  13.300 -0.1538  0.0599  0.1854
 7428W        W11628   7.961   1.965   9.941  0.0227 -0.1381 -0.1299
 7429W        W11629   7.794   7.121  11.985 -0.1220  0.0825  0.0577
 7430W        W11630   4.056   0.486   3.331  0.4020 -0.1564  0.0038
 7431W        W11631   4.792   6.715  12.939  0.0715 -0.0823  0.2454
 7432W        W11632   5.006   4.971   8.976 -0.0685  0.0783  0.0127
 7433W        W11633   0.209   8.638  12.856  0.3379 -0.0069 -0.0839
 7434W        W11634  10.228   8.714  13.095  0.2602 -0.2577  0.1477
 7435W        W11635   8.527   1.145   0.478  0.0871  0.3007  0.0681
 7436W        W11636   4.428   0.494   0.207 -0.0747 -0.0030 -0.0120
 7437W        W11637   5.656   6.065   9.274 -0.1042  0.1258  0.2636
 7438W        W11638   7.289   6.848   0.848 -0.1692  0.2468 -0.0179
 7439W        W11639   5.109  10.125  11.578 -0.0577 -0.3395 -0.2859
 7440W        W11640   2.835   4.816   0.877  0.1929 -0.2286 -0.1173
 7441W        W11641   5.482   8.925   3.491 -0.2002  0.0992 -0.0609
 7442W        W11642   1.498   1.609   1.130 -0.0653  0.1420  0.1738
 7443W        W11643   4.820   9.413   4.746 -0.0267  0.0009  0.3185
 7444W        W11644   5.724  10.279   0.215 -0.0829 -0.4027 -0.0526
 7445W        W11645   2.440   2.238  11.417 -0.0384 -0.1317  0.0954
 7446W        W11646   2.992   1.757   0.815  0.0983  0.3892 -0.0994
 7447W        W11647   5.341   7.216   9.957  0.1063 -0.1638  0.1501
 7448W        W11648   3.211   3.336   9.443  0.1463 -0.3493  0.1833
 7449W        W11649   0.755   1.950  10.921 -0.1071  0.0484 -0.2313
 7450W        W11650   6.774   5.781   4.016 -0.1050 -0.0135 -0.0114
 7451W        W11651   6.075   0.984  12.600 -0.1609  0.0290  0.4146
 7452W        W11652   9.376   7.474   2.487 -0.0635  0.1917 -0.2072
 7453W        W11653   3.963   9.815   9.793 -0.0923 -0.0115  0.3857
 7454W        W11654   5.790   9.968   3.017  0.0832  0.0403  0.1352
 7455W        W11655   9.064   4.072   3.548  0.0683  0.0100  0.4013
 7456W        W11656   0.909   3.564   1.918  0.0327  0.1208  0.1056
 7457W        W11657   2.819   4.569  13.369  0.1977  0.0208  0.4000
 7458W        W11658  10.366   4.547  10.008 -0.0516 -0.1546 -0.1230
 7459W        W11659   6.257   3.755   3.970 -0.0925  0.1178  0.1347
 7460W        W11660   6.414   2.842   0.839  0.1612 -0.2222  0.0183
 7461W        W11661   3.303   0.251   8.443 -0.0664 -0.1925  0.0738
 7462W        W11662   8.418   6.591   2.880  0.1015 -0.2673 -0.0126
 7463W        W11663   3.842   1.375  10.233 -0.0122  0.2445  0.0193
 7464W        W11664   2.969   6.138  11.222  0.0185  0.0761 -0.0201
 7465W        W11665   5.418   0.191  11.043 -0.0018 -0.1195 -0.0701
 7466W        W11666   4.406   7.198   0.157 -0.1930  0.1668 -0.3646
 7467W        W11667   4.199   6.979   2.971  0.0445  0.1536  0.2974
 7468W        W11668   7.125   1.284  12.601  0.0914 -0.1088  0.2340
 7469W        W11669   3.695   1.094   2.957  0.1796 -0.0013  0.1294
 7470W        W11670   1.131   9.412   0.182  0.0102  0.2319  0.0886
 7471W        W11671   5.164   8.973  11.239 -0.0477  0.1008 -0.0918
 7472W        W11672   3.053   8.751   3.463 -0.1647  0.2208  0.0745
 7473W        W11673   0.808  10.124  12.224 -0.1788 -0.0912  0.2442
 7474W        W11674   8.616   6.540   2.136  0.0204 -0.1308 -0.1318
 7475W        W11675   6.201   8.731  10.579  0.2079 -0.1386  0.0709
 7476W        W11676   7.866   5.347   3.339  0.1296 -0.0217  0.0940
 7477W        W11677   9.866   3.523  13.424 -0.1093 -0.0328  0.1808
 7478W        W11678   4.496   0.819   2.450 -0.3385  0.0814  0.2128
 7479W        W11679   5.589   4.705   0.234 -0.0588 -0.0515  0.1403
 7480W        W11680   7.048   6.076  10.847  0.3020  0.1136  0.1198
 7481W        W11681   6.123   2.916   2.865  0.0512  0.3423 -0.3095
 7482W        W11682   4.112   9.073  12.686 -0.2354 -0.1122  0.0799
 7483W        W11683   2.155   2.033  11.810 -0.2956  0.3124 -0.0605
 7484W        W11684   9.919   3.696  10.431 -0.2157 -0.2247 -0.0941
 7485W        W11685   6.124   8.471  10.118 -0.3874 -0.3055 -0.2593
 7486W        W11686   7.574   1.272   0.800  0.3720  0.0736  0.4804
 7487W        W11687   1.530   4.061   0.593  0.1605 -0.1512  0.0720
 7488W        W11688   4.708  10.063   3.697 -0.0600  0.0929  0.0908
 7489W        W11689   4.056   9.603   0.408 -0.1447  0.0705  0.0128
 7490W        W11690   8.322   6.114   3.897 -0.1035  0.0345  0.0294
 7491W        W11691   7.194   3.333   9.889 -0.1266 -0.1642  0.1172
 7492W        W11692   1.808   4.964   2.151 -0.0317 -0.0387 -0.0199
 7493W        W11693   4.440   3.542  13.341  0.0176 -0.0098  0.1488
 7494W        W11694   9.516   5.492  10.681 -0.1620 -0.1851 -0.2524
 7495W        W11695   5.607   3.387   3.307 -0.0625 -0.0326  0.1126
 7496W        W11696   9.570   8.661  10.641  0.0371  0.0678  0.1597
 7497W        W11697  10.443   0.522   3.006 -0.1099  0.2984 -0.0537
 7498W        W11698   7.373   2.679   0.539 -0.2087  0.0074  0.4274
 7499W        W11699   7.352   6.218   2.218 -0.1194  0.1907 -0.0793
 7500W        W11700   5.234   3.664  13.276 -0.2843 -0.1833  0.1221
 7501W        W11701   7.626   1.118   2.195 -0.2717  0.0052  0.1925
 7502W        W11702   3.951   9.370   4.029  0.0341  0.1598 -0.1767
 7503W        W11703   3.869   2.231  10.846  0.1914  0.0489 -0.2630
 7504W        W11704   2.998   9.602   9.305 -0.2375  0.0071  0.0996
 7505W        W11705   8.780   0.662   9.997  0.3384 -0.1382 -0.0396
 7506W        W11706   5.027   8.313   9.917 -0.4635  0.1474 -0.0216
 7507W        W11707   6.122   1.478  10.834 -0.2586  0.0501 -0.0712
 7508W        W11708   0.852   7.773  11.031  0.2292 -0.1063 -0.0743
 7509W        W11709  10.377   6.788   2.125 -0.2860  0.0363 -0.2130
 7510W        W11710  10.356   1.734  13.129  0.0544 -0.1810 -0.0984
 7511W        W11711  10.478   2.972   4.422  0.1098 -0.1350 -0.1387
 7512W        W11712   5.652   8.129  12.697  0.3552 -0.2129 -0.0588
 7513W        W11713   4.319   0.139   3.038  0.1724  0.0734 -0.1224
 7514W        W11714   5.256   9.032   9.606 -0.2178  0.1456 -0.0171
 7515W        W11715   1.175   0.709   2.026  0.3283 -0.1052 -0.2349
 7516W        W11716   4.118   2.585   9.367  0.3372 -0.4242  0.0386
 7517W        W11717   3.277   6.189   0.519 -0.0941  0.1171  0.0857
 7518W        W11718   0.492   9.714   1.992  0.0260  0.0216  0.1256
 7519W        W11719   9.385   2.128   3.480 -0.2245 -0.1086 -0.1655
 7520W        W11720   1.101   6.183  10.621 -0.0275 -0.0856 -0.2197
 7521W        W11721  10.073   2.191   4.681  0.1065 -0.0771  0.0503
 7522W        W11722   7.378   0.956  10.438 -0.2843  0.0432 -0.1552
 7523W        W11723   2.845   5.682   3.070 -0.1776  0.1724 -0.2699
 7524W        W11724   5.087   6.896  10.606  0.1233 -0.0895  0.1570
 7525W        W11725   8.776   8.515   1.534  0.3776 -0.1545 -0.1708
 7526W        W11726   1.934   1.385   9.214  0.0411 -0.1528  0.0720
 7527W        W11727   5.105   7.049   0.899  0.0325  0.3269  0.2685
 7528W        W11728   1.046   9.109   1.529 -0.0808 -0.0973  0.3377
 7529W        W11729   5.131   4.145   3.458 -0.3191 -0.2062  0.1042
 7530W        W11730   7.886   7.554  11.192 -0.1482  0.1670  0.0506
 7531W        W11731   6.287   6.260  10.445  0.0002 -0.0520 -0.2130
 7532W        W11732   4.578   6.082   5.252 -0.1716  0.2078  0.0757
 7533W        W11733   7.347   0.182  11.908 -0.0123  0.3539  0.0300
 7534W        W11734   9.876   4.896  13.202 -0.1141  0.1606 -0.1116
 7535W        W11735   5.457   0.487   0.940 -0.0112 -0.0929 -0.0387
 7536W        W11736   8.765   5.690   3.117  0.0958 -0.1622 -0.1529
 7537W        W11737   5.174   0.041   9.373 -0.3208  0.4034 -0.1725
 7538W        W11738   1.730   4.360   2.739  0.0922 -0.0076 -0.0402
 7539W        W11739   4.948   5.402   9.720  0.0288 -0.2835  0.0904
 7540W        W11740   6.858   5.613   8.666  0.2042 -0.3154 -0.0783
 7541W        W11741   7.668   0.795   3.938  0.1157  0.2987  0.1558
 7542W        W11742   8.733   1.561  10.168  0.0765  0.0136 -0.0967
 7543W        W11743   5.084   3.439   1.159  0.0522 -0.0744 -0.1823
 7544W        W11744   9.414   5.439   4.765  0.0498 -0.0934 -0.0450
 7545W        W11745   5.077  10.411   1.556 -0.1575 -0.1624  0.0520
 7546W        W11746   8.983   3.077  10.725 -0.3877  0.2393 -0.0520
 7547W        W11747   9.798   3.958   2.349 -0.0849 -0.0197  0.3287
 7548W        W11748   4.403   2.052  13.091  0.0441 -0.0553  0.1681
 7549W        W11749   2.286   1.338   2.398  0.1670 -0.2870 -0.3104
 7550W        W11750   8.846   4.792   2.144 -0.0340 -0.1391 -0.3047
 7551W        W11751   6.788  10.239  12.667  0.0455 -0.1776  0.1691
 7552W        W11752   4.152   6.182   0.255  0.0476  0.0895 -0.0608
 7553W        W11753   3.981   9.582  12.546  0.0394 -0.0367 -0.1917
 7554W        W11754   0.651   8.998   1.031  0.0072  0.1466 -0.2454
 7555W        W11755   9.318   1.698  12.364 -0.2093 -0.4035  0.1543
 7556W        W11756  10.192   5.157  12.821 -0.2948  0.0821 -0.2428
 7557W        W11757   9.438   3.806   0.181  0.2330 -0.1429 -0.0133
 7558W        W11758   4.744   5.577   0.796  0.0614  0.2397 -0.2482
 7559W        W11759   1.107   2.735   4.322  0.0887 -0.0269 -0.2079
 7560W        W11760   1.499   4.646   2.380  0.2195  0.1161  0.0022
 7561W        W11761   7.057   1.627   9.661  0.0252 -0.0917  0.0127
 7562W        W11762   1.729   9.200  11.904  0.3211 -0.1666  0.5240
 7563W        W11763  10.319   5.575   0.117  0.0929  0.0179 -0.3130
 7564W        W11764   3.981   0.371  12.099  0.1594 -0.2092 -0.0838
 7565W        W11765   4.515   3.473  10.381 -0.0008  0.0675 -0.0103
 7566W        W11766   2.458   8.782   1.200 -0.0115  0.1180 -0.1966
 7567W        W11767   8.092   4.715  12.224 -0.0545  0.1568  0.0224
 7568W        W11768   8.960   5.884  11.765  0.2571 -0.0023 -0.2582
 7569W        W11769   1.453   2.665   9.456  0.0200 -0.0433  0.1129
 7570W        W11770   0.754   4.219   3.121 -0.0205  0.0761  0.0263
 7571W        W11771   8.943   6.181   0.507  0.1465 -0.0567  0.0751
 7572W        W11772   4.265   5.044   9.546 -0.0572  0.2118  0.0456
 7573W        W11773   4.954   8.113   0.499  0.0011  0.2102  0.1734
 7574W        W11774   9.329   1.205   1.488  0.0306 -0.0790 -0.2062
 7575W        W11775   1.931   9.884   9.604  0.0464 -0.0386 -0.1577
 7576W        W11776   4.482   4.185  10.600 -0.1373  0.0315 -0.2136
 7577W        W11777   7.733   4.158   9.767  0.3743  0.2084 -0.2732
 7578W        W11778   9.476  10.009   3.569 -0.1137 -0.0145 -0.1232
 7579W        W11779   7.945   3.306   1.974  0.0559  0.4776 -0.0977
 7580W        W11780   4.178   3.616   1.287  0.3054  0.0345  0.3216
 7581W        W11781   4.444   0.458  10.445 -0.0050 -0.1783  0.2151
 7582W        W11782   7.883   2.492   0.066  0.3207 -0.1598 -0.0267
 7583W        W11783   4.273   6.270   1.803 -0.0102  0.1385 -0.1839
 7584W        W11784   7.280   2.288  12.626  0.0251 -0.3605  0.0624
 7585W        W11785   1.564   4.617   1.868  0.1655  0.1154  0.2950
 7586W        W11786   8.323   3.070   0.293  0.0760 -0.3020  0.0063
 7587W        W11787   6.708   4.451   2.079  0.1301 -0.0695 -0.0397
 7588W        W11788   0.189   4.725   0.050  0.2447  0.1566  0.2926
 7589W        W11789   5.946   4.671  12.678  0.3483 -0.0412  0.2080
 7590W        W11790   8.624   9.317  11.590 -0.3641 -0.1026 -0.1199
 7591W        W11791  10.432   0.030   2.889 -0.0677  0.2289 -0.4244
 7592W        W11792   0.838   7.474   1.746 -0.0930 -0.3811  0.3406
 7593W        W11793   6.163   1.907   0.673  0.2951 -0.2047  0.1461
 7594W        W11794   7.707  10.174   9.252  0.3794  0.1282 -0.1015
 7595W        W11795   4.296   2.013  11.124  0.2762  0.3486  0.2216
 7596W        W11796   5.217   9.590   3.748 -0.0377 -0.0602 -0.1303
 7597W        W11797   0.693   2.233   2.279 -0.3708  0.3556 -0.0864
 7598W        W11798   0.351   7.207   0.565  0.2627 -0.0534 -0.1641
 7599W        W11799   6.844   8.398  11.390 -0.3044 -0.2106 -0.2051
 7600W        W11800  10.048   5.589  12.702  0.1769 -0.0709  0.0115
 7601W        W11801   4.896   0.082   8.897 -0.2207  0.0672 -0.2772
 7602W        W11802   9.919   2.355  13.003 -0.2260 -0.2590  0.2208
 7603W        W11803   3.752   4.450   0.741 -0.0750  0.0524 -0.1237
 7604W        W11804   5.650   4.032   4.447  0.1746  0.2139  0.2370
 7605W        W11805   0.333  10.021  13.381  0.1866  0.0565 -0.3227
 7606W        W11806   6.358   9.983   3.935  0.2330 -0.1177  0.1383
 7607W        W11807   9.321   0.276   0.325 -0.1110  0.2987  0.1745
 7608W        W11808   3.396   8.244   4.116  0.1514  0.0031  0.1616
 7609W        W11809   2.839   5.097   1.362 -0.0618  0.1302  0.0901
 7610W        W11810   6.483   7.927   1.453  0.0816 -0.0723 -0.1188
 7611W        W11811   6.597   5.495   4.370  0.0974  0.2371  0.0425
 7612W        W11812   2.501   0.007   9.513 -0.2540 -0.1903 -0.3431
 7613W        W11813   5.602   6.706   9.948 -0.0580  0.1446  0.3880
 7614W        W11814   5.340   8.580   1.058  0.0523  0.0354 -0.2880
 7615W        W11815   3.439   8.507  11.901  0.0068  0.5089  0.1558
 7616W        W11816   4.722   1.534   4.068 -0.4359  0.2285  0.1477
 7617W        W11817   4.877  10.442  11.170 -0.2338  0.0143  0.0635
 7618W        W11818   1.980   8.281  12.162  0.0735 -0.2523  0.0458
 7619W        W11819   5.850   4.466   4.639 -0.0539 -0.2115 -0.0524
 7620W        W11820   3.251   8.889  10.158  0.1974  0.0261 -0.0688
 7621W        W11821   3.576   9.170  12.742 -0.0374 -0.2517 -0.1636
 7622W        W11822   9.488   4.247   3.472 -0.1140 -0.0324  0.1434
 7623W        W11823   0.583   7.939   1.991 -0.1901 -0.0572 -0.0064
 7624W        W11824   8.223   3.338   2.816  0.0264 -0.1896 -0.1946
 7625W        W11825   4.740   7.590   9.597  0.1416  0.3135  0.1325
 7626W        W11826   8.304   0.772  10.835  0.2080 -0.3502  0.0271
 7627W        W11827  10.433   5.514   3.729  0.1129 -0.2088  0.0589
 7628W        W11828   5.974   4.708   8.291 -0.0706  0.4579 -0.2975
 7629W        W11829   6.998   5.515  10.891  0.3032 -0.0689 -0.1479
 7630W        W11830   3.192   2.433   1.289 -0.1288 -0.0626 -0.3383
 7631W        W11831   0.742   9.582  10.727 -0.1687  0.1032 -0.0648
 7632W        W11832   9.080   5.011   1.214 -0.0067 -0.2544  0.7279
 7633W        W11833   6.176   0.005   3.302 -0.0858  0.1532 -0.1223
 7634W        W11834   9.910   0.752  12.985 -0.0963  0.1659 -0.3158
 7635W        W11835   5.117   3.933   8.805  0.2645 -0.1908 -0.0903
 7636W        W11836   1.849  10.042  13.138  0.1575  0.0313 -0.2743
 7637W        W11837   8.599   8.763  10.977  0.0836  0.2332  0.1172
 7638W        W11838   5.689   0.701  12.667 -0.4147 -0.0796 -0.0514
 7639W        W11839   2.202   7.371  12.134 -0.2739 -0.5979  0.0798
 7640W        W11840   5.909   6.028  10.238  0.0188 -0.0906  0.3212
 7641W        W11841   4.259   5.941   1.090 -0.2136  0.2934 -0.0773
 7642W        W11842   9.901   1.710   2.914  0.1635  0.2664 -0.0284
 7643W        W11843   4.150   4.066   4.054 -0.3541  0.0404 -0.3169
 7644W        W11844   6.102   5.307   1.182  0.2422 -0.0424  0.0405
 7645W        W11845   6.538   7.719   2.521 -0.3167  0.0926  0.0916
 7646W        W11846   2.930   5.834   3.607 -0.2031 -0.0555 -0.0063
 7647W        W11847   1.564   0.357   3.798  0.4753 -0.4442  0.2092
 7648W        W11848   2.233   9.300  11.680  0.0263  0.0962  0.0945
 7649W        W11849   6.951   4.038   2.801 -0.3999 -0.0131 -0.2425
 7650W        W11850   8.780   2.013   9.997  0.0997 -0.0826  0.1457
 7651W        W11851   4.239   0.469   1.680 -0.0541 -0.1155  0.1060
 7652W        W11852   5.068   4.794   3.968 -0.0761  0.0458 -0.1205
 7653W        W11853   2.872   5.472   8.526  0.1236  0.0644 -0.2177
 7654W        W11854   5.111   4.736   0.571  0.2906 -0.2327  0.3826
 7655W        W11855   3.187   5.817  11.635 -0.5998  0.3150 -0.2274
 7656W        W11856   3.929   4.406  13.105 -0.0574  0.0028  0.0227
 7657W        W11857   5.448   2.514   4.179  0.2275 -0.3069 -0.1064
 7658W        W11858   5.399   6.094   3.318  0.1351 -0.0636 -0.0176
 7659W        W11859   5.573   0.787   1.745 -0.1456 -0.0585 -0.0751
 7660W        W11860   6.879   2.618   0.506  0.1772 -0.1232 -0.0828
 7661W        W11861   2.820   9.994   4.077 -0.1460 -0.2078  0.3336
 7662W        W11862   6.470   7.552  11.549  0.1508  0.1216  0.0239
 7663W        W11863   4.664   8.663   3.391 -0.0972  0.0052  0.1083
 7664W        W11864  10.180   7.268  11.712 -0.3238  0.0004 -0.0887
 7665W        W11865   6.323   1.005   4.712  0.0494 -0.0424  0.0075
 7666W        W11866   8.923   6.283   4.537 -0.3241 -0.3653  0.1229
 7667W        W11867   7.271   0.778   9.637  0.1133 -0.2395  0.0255
 7668W        W11868   2.637   4.326  10.397 -0.2828 -0.0226  0.2594
 7669W        W11869   7.772   2.461   9.779 -0.3130  0.0303 -0.0497
 7670W        W11870   6.425   5.702   0.119  0.1645  0.0606  0.1953
 7671W        W11871   0.133   0.004   1.174  0.1405 -0.0940  0.1318
 7672W        W11872   2.143   7.101  11.437 -0.0914  0.0465 -0.0415
 7673W        W11873   9.326   2.323   0.222 -0.0323  0.2116 -0.1212
 7674W        W11874   9.409   2.779  11.467 -0.0724  0.1679  0.0037
 7675W        W11875   2.943   9.059   3.807  0.0521 -0.2566  0.3352
 7676W        W11876   2.224   9.182   9.516 -0.0604  0.0068 -0.1731
 7677W        W11877   2.709   6.561   0.045 -0.2425 -0.0230  0.1963
 7678W        W11878   5.851   8.483   2.847 -0.0265  0.0868  0.0843
 7679W        W11879   9.772   1.142  12.613 -0.1419  0.0130  0.1262
 7680W        W11880  10.196   2.785   9.964 -0.1606  0.0055  0.0461
 7681W        W11881   5.650   4.913   1.355  0.1057  0.0372  0.2714
 7682W        W11882   3.986   2.945   2.801 -0.0433 -0.2319  0.2065
 7683W        W11883   1.409   0.605  11.760  0.0950 -0.2631  0.0723
 7684W        W11884   8.879   5.375   8.696 -0.3938 -0.4874  0.2213
 7685W        W11885   2.194   5.385   1.784  0.1243 -0.1091 -0.1394
 7686W        W11886   7.195   3.807   4.573 -0.1565  0.0017  0.1853
 7687W        W11887   7.767   6.796   1.072 -0.0139  0.1367  0.1186
 7688W        W11888   4.341   8.540   8.541  0.2220 -0.0267 -0.2683
 7689W        W11889   8.845   5.053   3.483  0.5429 -0.0552 -0.1461
 7690W        W11890   2.899  10.388   9.796 -0.1177 -0.2055 -0.2489
 7691W        W11891  10.281   4.595  12.118 -0.0473  0.1859 -0.3051
 7692W        W11892   7.394   0.699  11.758 -0.2500 -0.1176  0.1410
 7693W        W11893   6.182   6.556   2.683 -0.0992 -0.1075  0.0339
 7694W        W11894   2.458   3.818   9.373  0.2965  0.3738 -0.1229
 7695W        W11895   4.813   2.365  10.594  0.1219 -0.1401 -0.0969
 7696W        W11896   3.869   2.856   8.480 -0.0140  0.1422  0.1312
 7697W        W11897   9.663   5.846  12.919 -0.1976 -0.0668  0.1773
 7698W        W11898   9.393   6.908   1.085  0.1155 -0.3809 -0.4073
 7699W        W11899   8.993   6.388   1.657  0.2034 -0.1445  0.0214
 7700W        W11900  10.290   5.672   3.231  0.1882  0.1615 -0.0725
 7701W        W11901   7.378   2.915  13.315  0.1626  0.2620 -0.0477
 7702W        W11902   5.391   3.209  12.963 -0.1000  0.2027  0.0034
 7703W        W11903   4.717   0.541   5.533  0.0220 -0.0163  0.0936
 7704W        W11904   7.320   4.139   9.384  0.0133 -0.0227  0.3978
 7705W        W11905   6.198   4.290   2.055 -0.1812  0.3025  0.0452
 7706W        W11906   7.488   8.497  10.672 -0.1961 -0.1162  0.1538
 7707W        W11907   1.113   8.901   2.802 -0.4704  0.0850  0.1015
 7708W        W11908   6.821   8.215   1.847 -0.0015 -0.2123  0.0057
 7709W        W11909   1.097   5.678  10.776 -0.1472 -0.1283  0.1174
 7710W        W11910   4.662   1.453   1.571 -0.2363 -0.0268 -0.1778
 7711W        W11911   2.117  10.329   0.047 -0.1814  0.1353  0.1604
 7712W        W11912   3.700   6.216   9.373 -0.2114  0.0143 -0.0717
 7713W        W11913   1.091   9.991   2.554 -0.0713 -0.1672  0.2378
 7714W        W11914   4.321   7.863  13.100  0.1457 -0.0313 -0.0293
 7715W        W11915   8.840   4.334  13.060 -0.1280 -0.0496  0.1578
 7716W        W11916   1.406   0.990   8.818  0.0417 -0.1242  0.0491
 7717W        W11917   1.801   7.691   1.334 -0.1351  0.1237  0.3867
 7718W        W11918   9.523   3.386   1.420 -0.1381 -0.0907  0.0995
 7719W        W11919   7.313   3.873  10.741  0.0465  0.4722 -0.2035
 7720W        W11920   4.732   0.017   2.667  0.0433 -0.1061 -0.0164
 7721W        W11921   6.981   6.823   3.333  0.2969  0.0238 -0.0614
 7722W        W11922   6.192   2.193  13.085  0.0812 -0.1454 -0.1442
 7723W        W11923   8.200   5.091   0.134  0.3378  0.2131 -0.0435
 7724W        W11924   7.628   3.256   2.832 -0.0845 -0.0590  0.2445
 7725W        W11925   6.244   3.325   1.056  0.1168 -0.3074  0.1770
 7726W        W11926   1.301   7.608  10.736  0.2434 -0.0356 -0.1345
 7727W        W11927   3.318   5.101  12.059 -0.1248  0.3301 -0.0210
 7728W        W11928   1.077   3.773   0.351 -0.1478  0.2956 -0.0953
 7729W        W11929   1.708   3.760  11.674 -0.3609  0.1499 -0.1693
 7730W        W11930   5.793   3.407   9.435  0.2926  0.0992 -0.0237
 7731W        W11931   5.984   5.195  12.443 -0.2302 -0.2616 -0.0496
 7732W        W11932   8.168  10.484   3.597 -0.0597  0.0384  0.1857
 7733W        W11933   2.792   3.283   1.768  0.0027 -0.2142  0.0072
 7734W        W11934   6.415   8.964  13.018 -0.0840  0.2400  0.1869
 7735W        W11935   4.767   6.530   0.592  0.2358 -0.0550  0.0795
 7736W        W11936   8.832   0.889  10.590  0.1037 -0.0060 -0.1957
 7737W        W11937   1.073   9.578  13.059 -0.0474  0.1747  0.1407
 7738W        W11938   3.300   0.141  11.143  0.2956  0.0568  0.2356
 7739W        W11939   3.292   5.396   3.153  0.2132  0.3368  0.1053
 7740W        W11940   2.827   2.324   9.885 -0.3297  0.1329 -0.0580
 7741W        W11941   8.877   1.073  12.492 -0.4071  0.0360 -0.1211
 7742W        W11942   6.676   0.205  10.594  0.3179 -0.0276  0.1786
 7743W        W11943   6.211   7.511   2.186  0.2092  0.0385 -0.0990
 7744W        W11944   1.704   6.502   1.381  0.3574  0.0138 -0.2677
 7745W        W11945   4.324   2.441  10.831 -0.0863 -0.2465  0.3477
 7746W        W11946   6.937   9.229   1.634 -0.0105  0.0320 -0.1427
 7747W        W11947   1.809   2.418  11.701  0.1052  0.3122  0.1612
 7748W        W11948   9.590   0.651   9.868  0.0316 -0.1159  0.0750
 7749W        W11949   5.542   9.202   0.045 -0.1173 -0.1088 -0.2174
 7750W        W11950   0.964   9.317  10.386 -0.2865 -0.1381 -0.0951
 7751W        W11951   4.891   1.888   0.353  0.0249  0.0742  0.0363
 7752W        W11952   2.230   5.958   4.298 -0.2683  0.1600 -0.4430
 7753W        W11953   4.840   9.575   9.458 -0.1821  0.1962  0.0237
 7754W        W11954   4.304   6.418  13.234 -0.0594  0.2838 -0.3044
 7755W        W11955   5.707   5.486   9.031  0.3270 -0.1450  0.1646
 7756W        W11956   0.404   8.292  11.602 -0.1117  0.0417  0.0819
 7757W        W11957   1.149   0.441  12.623  0.0540  0.2182 -0.1280
 7758W        W11958   3.751   0.649  13.309  0.0529  0.3641 -0.1580
 7759W        W11959   1.819   7.330   2.988 -0.2671 -0.2837  0.1061
 7760W        W11960   9.813   9.911   3.990  0.0355  0.1492  0.2367
 7761W        W11961   2.626   7.229  11.493  0.0767 -0.0821 -0.1091
 7762W        W11962   4.630   1.640   0.738 -0.1698 -0.0125  0.1002
 7763W        W11963   5.036   5.519   1.254 -0.1748 -0.0178 -0.0434
 7764W        W11964   6.394   7.350   2.827  0.2791 -0.0494  0.2018
 7765W        W11965   5.341   0.151  11.567  0.2538  0.1916 -0.0560
 7766W        W11966   4.713   1.708  12.921 -0.1983 -0.3480  0.4452
 7767W        W11967   2.119   2.280   0.559  0.4097  0.1345  0.0196
 7768W        W11968   1.811   5.713   4.055  0.0982 -0.0314  0.0483
 7769W        W11969   1.163   9.265   2.375  0.2095 -0.0118  0.0529
 7770W        W11970   3.902   6.387  11.447 -0.0350  0.0018  0.0685
 7771W        W11971   3.256   7.263   4.925  0.0126 -0.2369  0.0439
 7772W        W11972   4.857   8.408   2.811 -0.0107 -0.1538  0.3239
 7773W        W11973   6.914   9.682   9.887 -0.1728  0.0596  0.0924
 7774W        W11974   4.410   2.340   5.148 -0.0881 -0.0940 -0.0887
 7775W        W11975   3.346   4.674   4.063 -0.0947 -0.0133  0.1164
 7776W        W11976   1.494   8.192   9.898  0.0472 -0.0130 -0.1342
 7777W        W11977   5.510   1.560  12.525  0.3078 -0.0271  0.0856
 7778W        W11978   6.619   5.859   9.051 -0.0291 -0.3082  0.1511
 7779W        W11979   2.856   3.066   1.313  0.0392  0.0161  0.2717
 7780W        W11980   2.866   1.367   2.753 -0.0484 -0.1923  0.0704
 7781W        W11981   5.127   5.292   3.994 -0.0648 -0.2924  0.0297
 7782W        W11982   7.155   2.075   9.989  0.1469 -0.1778 -0.2628
 7783W        W11983   4.007   1.795   2.022  0.0887  0.1519  0.0264
 7784W        W11984   4.422   8.866   9.037  0.0805  0.2929  0.1515
 7785W        W11985   3.813   7.274  10.794 -0.1330  0.0507  0.0995
 7786W        W11986   7.073   9.351   4.115  0.0696  0.0053  0.3486
 7787W        W11987   0.154   3.395   3.028 -0.1983 -0.1645 -0.0935
 7788W        W11988   2.350   5.302   3.480  0.3024 -0.1394 -0.5392
 7789W        W11989  10.391   0.696   1.815  0.1372  0.1272 -0.1134
 7790W        W11990   3.171   3.252   0.958 -0.0460  0.1447 -0.0692
 7791W        W11991   8.063   4.951   2.971 -0.1764 -0.0739  0.2774
 7792W        W11992   7.964   4.592   1.118 -0.0584 -0.1076  0.0252
 7793W        W11993   5.760   4.493   8.700  0.2155 -0.0643 -0.1897
 7794W        W11994   6.197   7.277  11.259  0.3488  0.0031  0.1470
 7795W        W11995   9.347   1.332  11.651  0.2510  0.1389 -0.3120
 7796W        W11996   8.302   5.554  12.716 -0.0953  0.0852  0.0305
 7797W        W11997   9.907   2.919   0.553  0.3818 -0.1030  0.1353
 7798W        W11998   4.298   5.547   3.410 -0.1646 -0.0839  0.0496
 7799W        W11999   9.545   2.678  13.138 -0.2325  0.3320  0.1301
 7800W        W12000   7.981   4.602  10.725 -0.1071  0.1382 -0.0647
 7801W        W12001   4.945   2.890   0.442 -0.0023  0.0220  0.0652
 7802W        W12002   6.522   0.795   2.754 -0.1536  0.1797  0.0314
 7803W        W12003   8.287   0.502   2.629 -0.0160  0.0665  0.1720
 7804W        W12004   8.735   7.042   3.077 -0.3704  0.1337  0.0029
 7805W        W12005   2.506   4.143   4.236  0.0249  0.1530  0.0282
 7806W        W12006   5.252   9.099   9.124  0.1079  0.0944  0.1406
 7807W        W12007   7.620   9.822   3.051 -0.0257 -0.1316 -0.2599
 7808W        W12008   1.009   3.723   1.286 -0.0353  0.1294  0.1514
 7809W        W12009   8.500   1.372   9.709 -0.1138  0.0981 -0.2307
 7810W        W12010   4.105  10.032   0.118  0.3231  0.1579 -0.0254
 7811W        W12011  10.189   6.079  13.450 -0.0720 -0.0164  0.0577
 7812W        W12012   0.882   2.469   1.539 -0.2151  0.1574 -0.2381
 7813W        W12013   2.706   9.602   0.286  0.2239 -0.0739  0.3741
 7814W        W12014   0.363   6.373   9.356  0.1640  0.2131  0.2184
 7815W        W12015   9.409   4.091   4.981 -0.0137  0.2706 -0.3610
 7816W        W12016   1.990   3.671   3.532 -0.0065 -0.0442 -0.0330
 7817W        W12017   2.864   7.721   0.452 -0.2074 -0.0166  0.0601
 7818W        W12018   9.834   5.612   3.087  0.1407 -0.0776  0.0798
 7819W        W12019   1.772   1.342   2.279 -0.1039  0.1735  0.0068
 7820W        W12020   3.006   4.715  10.493  0.0065 -0.0435  0.1105
 7821W        W12021   7.059   4.013   0.239 -0.2083 -0.0869  0.1109
 7822W        W12022   6.800   5.332   9.889 -0.1842 -0.0475 -0.1050
 7823W        W12023   9.698   3.985   4.606 -0.1284 -0.2400 -0.1034
 7824W        W12024   0.526   0.885   3.844 -0.1372  0.1221  0.1554
 7825W        W12025   0.575   6.419   4.424 -0.4539  0.3799 -0.1695
 7826W        W12026   9.461   1.027   0.418  0.1162 -0.0573 -0.1284
 7827W        W12027  10.432   7.743   1.429 -0.2279  0.0632 -0.3084
 7828W        W12028   2.306   7.533  11.677  0.1261 -0.2256 -0.0758
 7829W        W12029   0.542   2.381   0.629  0.1817  0.1433 -0.3303
 7830W        W12030   1.079   8.460  12.038 -0.1326  0.0564 -0.0302
 7831W        W12031   1.829   2.888  11.867 -0.2130  0.1527  0.0199
 7832W        W12032   1.648   4.306  12.155 -0.2854 -0.1914  0.1813
 7833W        W12033   0.135   5.071   1.007 -0.1093  0.0689 -0.2030
 7834W        W12034   6.374   3.471   3.560  0.1733  0.2638  0.2053
 7835W        W12035   9.953   7.795   1.541 -0.0037 -0.1093  0.1659
 7836W        W12036   4.035   0.463   1.195  0.0547 -0.4440 -0.0239
 7837W        W12037   5.166   2.970  10.926 -0.0269  0.2588 -0.0166
 7838W        W12038  10.149   3.330   0.387  0.0988  0.4274 -0.3370
 7839W        W12039   7.377   9.231  10.559  0.2616  0.0284  0.1722
 7840W        W12040   3.042   9.444   0.791  0.0110 -0.2671 -0.0545
 7841W        W12041   7.784   4.412   3.803  0.1797  0.2901 -0.3609
 7842W        W12042   5.103   5.429  11.877  0.1317 -0.1998  0.0296
 7843W        W12043   6.231   3.638   2.171  0.0659 -0.1012 -0.2178
 7844W        W12044   3.960   5.603   4.301  0.1071  0.0517 -0.1339
 7845W        W12045   3.695   4.298   4.337 -0.0779 -0.0785 -0.0308
 7846W        W12046   5.402   2.357  12.704  0.1022  0.2431  0.1376
 7847W        W12047  10.009   4.869   3.370 -0.0001 -0.0472 -0.1065
 7848W        W12048   5.048   9.526   2.080  0.1566 -0.0309 -0.2416
 7849W        W12049   8.639   6.856   9.274 -0.2275 -0.0957 -0.0885
 7850W        W12050   8.597   9.103  13.055 -0.0804 -0.2400  0.2159
 7851W        W12051  10.236   3.886  12.669 -0.1581 -0.0788 -0.1122
 7852W        W12052   4.316   5.131   5.140  0.0395 -0.0132  0.2675
 7853W        W12053   1.569   3.549   0.537 -0.3372 -0.0119 -0.1746
 7854W        W12054   6.500   6.364   3.974 -0.0260  0.3302  0.1042
 7855W        W12055   0.288   4.545  10.926 -0.3132 -0.0153 -0.1282
 7856W        W12056   5.621   7.198   3.480 -0.1383 -0.2286  0.0468
 7857W        W12057   0.814   6.833   2.446  0.4165 -0.0123  0.3278
 7858W        W12058  10.137   8.363  11.105 -0.3265  0.3470 -0.3215
 7859W        W12059   3.861   8.980  10.250 -0.0214 -0.0371 -0.0057
 7860W        W12060   1.585   4.358  11.437  0.4039  0.0952  0.1549
 7861W        W12061   0.590   4.718   9.474 -0.0617 -0.0461  0.1058
 7862W        W12062   9.368   5.191   9.848 -0.2509 -0.0225  0.0543
 7863W        W12063   0.313   5.365   2.430  0.2483 -0.1964  0.2718
 7864W        W12064   9.921   0.649   1.704 -0.2794  0.3008  0.0432
 7865W        W12065   8.142   3.991  11.908  0.0159 -0.2021 -0.2455
 7866W        W12066   0.357   3.083   0.234 -0.2295 -0.0118 -0.0614
 7867W        W12067   3.977   7.279   0.406 -0.2079 -0.0427  0.0266
 7868W        W12068   7.192   3.565  11.700 -0.1039 -0.1433  0.0086
 7869W        W12069   6.314   0.753   5.434 -0.0242  0.3824 -0.2753
 7870W        W12070   9.607   5.201  11.613 -0.1420 -0.0223  0.2763
 7871W        W12071  10.204   2.855  10.476  0.1191 -0.2020 -0.2416
 7872W        W12072   8.948  10.206   0.305 -0.0643 -0.2021  0.0423
 7873W        W12073   7.294   1.482   4.517  0.0179 -0.1320 -0.1618
 7874W        W12074   6.079   6.620   3.254  0.1679  0.2881 -0.1034
 7875W        W12075   8.607   6.317  10.106  0.1883 -0.1217  0.0241
 7876W        W12076   7.752   0.734  13.047 -0.3115 -0.1966  0.1096
 7877W        W12077   9.526   5.233  12.146 -0.2301 -0.0026 -0.0371
 7878W        W12078   9.762   7.430   1.838  0.0660  0.1805  0.1685
 7879W        W12079   7.362   3.894   1.300 -0.0856  0.2036 -0.2855
 7880W        W12080   2.836   0.565   0.366  0.1828 -0.5080 -0.0001
 7881W        W12081   8.932   9.445  12.958  0.0865 -0.0654  0.0348
 7882W        W12082   8.191   8.357   2.621 -0.0023  0.0707  0.3884
 7883W        W12083   1.416   3.011   9.905  0.1370 -0.0454 -0.2332
 7884W        W12084   5.484   0.835  13.357 -0.2041  0.0779  0.0322
 7885W        W12085   3.431   1.120  13.357 -0.2408  0.0068 -0.2708
 7886W        W12086   6.641   8.009   0.578  0.0071  0.0353 -0.1405
 7887W        W12087   3.764   5.682  11.754  0.0316 -0.1601 -0.1263
 7888W        W12088   5.075   9.071   2.284  0.0658  0.0430 -0.3117
 7889W        W12089   3.345   1.749  12.015 -0.0130  0.1059 -0.1184
 7890W        W12090   2.022   1.052   0.627  0.2676 -0.0272  0.3134
 7891W        W12091   2.060   3.792   2.612  0.3030  0.4897  0.1529
 7892W        W12092  10.334   6.980   0.699  0.1456 -0.0592  0.3638
 7893W        W12093   8.113   8.958  10.885 -0.0263  0.0051 -0.1977
 7894W        W12094   5.719   2.245   4.511 -0.0363  0.0979 -0.2326
 7895W        W12095   5.125   7.920  12.820 -0.3252 -0.0692  0.0632
 7896W        W12096   1.150   9.202   9.380  0.0106 -0.2918  0.2183
 7897W        W12097   9.201   0.763  10.201  0.0783 -0.0930 -0.2777
 7898W        W12098   7.998   1.097   1.177 -0.1048  0.3773 -0.2028
 7899W        W12099   7.821   9.392  12.170 -0.0774  0.2279  0.2288
 7900W        W12100   7.564   4.758  10.921  0.1669  0.1246 -0.1017
 7901W        W12101   0.176   7.320  11.521 -0.1616 -0.1448 -0.2348
 7902W        W12102   9.929   3.038   9.675  0.1031 -0.2466  0.1876
 7903W        W12103   0.697   8.373  13.404  0.1456 -0.2452 -0.2775
 7904W        W12104   9.109   8.194   1.738 -0.1019 -0.0138 -0.2297
 7905W        W12105   7.010   6.854   2.757 -0.0889  0.0094  0.1180
 7906W        W12106   7.619   6.315   3.400  0.1591  0.0856  0.0746
 7907W        W12107   1.605   1.186   4.364  0.4646  0.0560 -0.1486
 7908W        W12108   8.894   9.303   0.587  0.0317  0.1364 -0.0820
 7909W        W12109   1.138   0.706   0.997 -0.2930  0.1616  0.0371
 7910W        W12110   1.940   2.237   5.068  0.0758 -0.1059 -0.1705
 7911W        W12111   6.694   7.153  11.396 -0.2630 -0.1718 -0.3406
 7912W        W12112   0.589   3.243   3.268 -0.0975  0.1857 -0.1432
 7913W        W12113   6.015   8.975   2.855 -0.1421  0.2957 -0.2753
 7914W        W12114   7.785   5.123   1.528 -0.1443  0.1406  0.2839
 7915W        W12115   3.271   9.514  12.572  0.0304  0.1181  0.0115
 7916W        W12116   3.856   0.227  12.907 -0.0410 -0.3044 -0.3213
 7917W        W12117   0.617   4.442  10.523  0.4358 -0.1226  0.2494
 7918W        W12118   3.115   3.351  13.157 -0.1484 -0.1386  0.2383
 7919W        W12119   6.018   3.079  11.310  0.1450  0.0738  0.1503
 7920W        W12120   2.874   8.056  10.334 -0.1785 -0.0430 -0.0897
 7921W        W12121   2.103   2.747   1.762  0.1958 -0.1108  0.3803
 7922W        W12122   3.930   4.988  13.022 -0.0031  0.0795  0.1622
 7923W        W12123   1.806   4.234  10.463 -0.0778 -0.0892  0.1435
 7924W        W12124   5.611   4.983   3.939  0.1692  0.1454 -0.2377
 7925W        W12125   9.942   4.006   1.017 -0.1098  0.0660  0.1523
 7926W        W12126   7.452   1.493   0.364 -0.1905 -0.0790  0.3650
 7927W        W12127   8.088   8.523  11.245 -0.0991  0.0543 -0.1590
 7928W        W12128   7.862   9.212   4.263  0.5254  0.0924 -0.1221
 7929W        W12129   6.383   6.663   2.151  0.0706  0.0445 -0.0296
 7930W        W12130   4.827   2.799  12.816  0.0269 -0.2030 -0.0445
 7931W        W12131   5.535   2.893   2.050 -0.0865  0.0789  0.1316
 7932W        W12132   0.270   6.379  12.550  0.0549 -0.1847 -0.2855
 7933W        W12133   2.640   6.081   1.416 -0.0395 -0.2518 -0.4064
 7934W        W12134   7.744   1.752   0.634  0.0242 -0.1271 -0.2983
 7935W        W12135   8.336   5.926   1.055  0.2845 -0.1361  0.1934
 7936W        W12136   8.953   2.824   0.957 -0.1360 -0.0261 -0.1631
 7937W        W12137   4.373   6.519   3.200  0.2199  0.1058 -0.0500
 7938W        W12138   0.892   0.866   9.357  0.3719 -0.0537  0.0075
 7939W        W12139   4.018   8.045   3.299  0.0396  0.0003 -0.1086
 7940W        W12140   1.181   8.604  10.070  0.2449 -0.1790  0.0004
 7941W        W12141   2.711   5.345   1.796  0.2487  0.1346 -0.0507
 7942W        W12142   4.201   9.472  13.424 -0.2314 -0.1132 -0.2189
 7943W        W12143   9.521   0.499   1.431  0.0192  0.2794  0.0829
 7944W        W12144  10.318   2.510   1.356 -0.0982 -0.1695  0.0125
 7945W        W12145   6.116   0.142   9.985 -0.4117 -0.0970 -0.0427
 7946W        W12146   6.272   5.639   3.930  0.2254  0.0884  0.3565
 7947W        W12147   3.251  10.264   1.121  0.0091 -0.0576  0.3683
 7948W        W12148   7.338   3.389  11.159  0.0472 -0.0876 -0.0424
 7949W        W12149   8.100   1.937  11.837  0.0006  0.0884  0.0972
 7950W        W12150   8.539   3.795   9.604 -0.2463 -0.2778 -0.0276
 7951W        W12151   3.619   9.804  12.896 -0.2285 -0.2677 -0.1336
 7952W        W12152   0.903   6.448   0.715  0.0471  0.2456  0.0763
 7953W        W12153   3.979   9.016   1.588  0.2731 -0.0353 -0.0370
 7954W        W12154   1.498   9.387  13.251 -0.1006 -0.2139 -0.0790
 7955W        W12155   9.786   1.719  11.149  0.2464  0.1866 -0.0558
 7956W        W12156   6.285   5.830  11.661 -0.3848 -0.1459 -0.0573
 7957W        W12157   7.357   4.946   3.908 -0.0025 -0.0703  0.3671
 7958W        W12158   2.436   1.866  12.222 -0.2529 -0.2313 -0.2554
 7959W        W12159   3.650   0.290  12.429  0.2406 -0.0637  0.4385
 7960W        W12160   1.815   6.091  11.387 -0.0287 -0.1268 -0.0532
 7961W        W12161   5.824   1.792   9.644 -0.0039 -0.1710 -0.2548
 7962W        W12162   9.323   8.710  13.182  0.1901  0.2771 -0.2311
 7963W        W12163   0.123   8.333   2.144 -0.1573  0.1383 -0.0968
 7964W        W12164   5.264   6.962  13.457 -0.4091  0.3020 -0.2055
 7965W        W12165   6.550   1.065   3.687  0.1798 -0.4174 -0.3950
 7966W        W12166   2.789   9.190  10.251  0.3467  0.1157 -0.2878
 7967W        W12167   0.087   5.475  12.676 -0.0614  0.1515 -0.0622
 7968W        W12168   9.057   2.106  12.233 -0.1214 -0.1955  0.1638
 7969W        W12169   3.468   8.050   2.974  0.2105  0.1121 -0.3625
 7970W        W12170   6.630   3.630   1.462  0.0040 -0.1413 -0.2635
 7971W        W12171   7.874   7.854   3.256 -0.0124  0.3359 -0.1803
 7972W        W12172   9.818  10.150  11.623 -0.0189  0.1261  0.0632
 7973W        W12173   4.126   8.610   0.478 -0.2862  0.1785  0.1474
 7974W        W12174   7.674   4.177  10.674  0.0022 -0.0358 -0.2278
 7975W        W12175   6.920   1.139   4.522  0.2044 -0.1104  0.1438
 7976W        W12176   0.039   2.208   0.264  0.1088  0.1132 -0.1398
 7977W        W12177   4.982   6.376  10.493  0.1775  0.1052 -0.2547
 7978W        W12178   3.791   7.626   2.403 -0.0729  0.0079 -0.1758
 7979W        W12179   4.163   5.726   2.317 -0.2134 -0.0203 -0.3007
 7980W        W12180   0.397   9.836  12.471  0.1647  0.2679 -0.0819
 7981W        W12181   3.544   1.177   1.451 -0.1592 -0.3292 -0.0358
 7982W        W12182   8.675   9.971  12.996 -0.0975  0.1659 -0.0577
 7983W        W12183   8.953   0.186  11.939  0.0847 -0.2256  0.1731
 7984W        W12184   5.347   2.227   3.671  0.0267 -0.1638 -0.3464
 7985W        W12185   1.000   1.963  12.419 -0.1468 -0.2440 -0.0684
 7986W        W12186   9.817   1.333  11.664 -0.3692 -0.1980 -0.4205
 7987W        W12187   5.301   8.544   3.903 -0.2509  0.0346 -0.0715
 7988W        W12188   0.947   7.622   9.405  0.2638 -0.1221  0.0561
 7989W        W12189   7.907   4.866   1.954  0.0431 -0.1377  0.0599
 7990W        W12190   3.617   7.551  11.792  0.2568  0.1983 -0.0003
 7991W        W12191   6.484   6.287  11.822  0.2025  0.2260  0.2350
 7992W        W12192   0.670  10.222   9.309  0.1340 -0.1403 -0.0890
 7993W        W12193   2.333   6.033   2.246 -0.1634  0.3025 -0.2048
 7994W        W12194   8.626   1.022  12.094  0.2091 -0.1414  0.1922
 7995W        W12195   5.006   7.312  10.284  0.0425 -0.2414 -0.0175
 7996W        W12196   4.507   6.310   1.293  0.0684  0.2143  0.1634
 7997W        W12197   5.609   3.880   2.853 -0.4978 -0.0270  0.0011
 7998W        W12198   0.773   0.640   0.555  0.1450  0.0563  0.0964
 7999W        W12199   5.775   4.327  13.445  0.1058 -0.0822 -0.1847
 8000W        W12200   0.872   6.707   1.115  0.1097  0.2632 -0.1137
 8001W        W12201   2.155   9.399   4.502  0.0857  0.0205 -0.0083
 8002W        W12202   5.199   7.858   2.953  0.0250  0.0329 -0.0138
 8003W        W12203  10.056   2.796   1.761 -0.0896  0.1136 -0.2101
 8004W        W12204   8.672   8.224  11.468 -0.1288 -0.2165  0.2191
 8005W        W12205   7.958   8.126  10.434  0.0904 -0.2612  0.1806
 8006W        W12206   2.505   5.059  11.772  0.2310  0.2462 -0.1548
 8007W        W12207   2.674   2.565  11.122 -0.2351  0.0909 -0.0948
 8008W        W12208   4.150   7.539  10.497 -0.1105 -0.0699 -0.2030
 8009W        W12209   8.072   3.595   8.687  0.2745 -0.1543  0.1945
 8010W        W12210   2.506   0.614   4.777 -0.0020  0.1951  0.0025
 8011W        W12211   2.737   9.184   9.297 -0.0761  0.0459 -0.3280
 8012W        W12212   2.149   5.754  13.299  0.0593  0.0067  0.2611
 8013W        W12213   8.444   7.511   0.222 -0.1004 -0.0898  0.0087
 8014W        W12214   1.101   8.900  11.224 -0.3988  0.0110 -0.2084
 8015W        W12215   8.761   3.307   0.524 -0.0083  0.1090 -0.0627
 8016W        W12216   2.739   5.074   4.474 -0.0639  0.3638 -0.1460
 8017W        W12217   1.058   2.840  10.653  0.2150  0.1532 -0.0477
 8018W        W12218   8.446   8.998   0.599  0.0651 -0.0366 -0.2148
 8019W        W12219   1.561   1.982  12.525  0.4638  0.0942  0.4290
 8020W        W12220   5.698   5.404   1.524  0.2705  0.1096 -0.1030
 8021W        W12221   2.214   4.822  12.848 -0.0719 -0.1450  0.0496
 8022W        W12222   1.842   9.601  11.603 -0.5318  0.0397  0.1878
 8023W        W12223   4.520   8.313  11.161  0.1609  0.1036  0.1627
 8024W        W12224   6.990   7.200   0.735  0.5574  0.2184  0.0533
 8025W        W12225   9.253   3.144   0.575 -0.1814  0.2337 -0.1637
 8026W        W12226   4.849   6.991   0.388  0.0787  0.1927 -0.1772
 8027W        W12227   7.584   5.464  12.191 -0.1334  0.1661  0.1183
 8028W        W12228   8.589   0.449   1.545 -0.0992 -0.0458  0.3001
 8029W        W12229   1.868   3.874   4.016  0.3295 -0.1309 -0.0415
 8030W        W12230   7.386   3.196   2.326 -0.1101  0.1879 -0.1177
 8031W        W12231   4.322   1.024  12.812  0.2525 -0.1349  0.0499
 8032W        W12232   4.104   5.864   9.221  0.3668  0.2552  0.4158
 8033W        W12233   2.145   0.213   5.547 -0.3048  0.2429  0.3498
 8034W        W12234   5.566   9.619  13.120 -0.1505  0.1063  0.0501
 8035W        W12235   8.428   2.409   0.446 -0.0572  0.2518  0.0897
 8036W        W12236   4.740   0.496   8.551 -0.1585  0.0009  0.3846
 8037W        W12237   8.954   1.648   8.418 -0.2400 -0.0118  0.1860
 8038W        W12238   2.146   5.148  11.396 -0.1321  0.1899  0.1860
 8039W        W12239   5.485   9.749   1.919  0.0754  0.2846 -0.2049
 8040W        W12240   6.728   4.641   3.233 -0.2231 -0.1422 -0.1423
 8041W        W12241   9.149   1.510  13.096 -0.1893  0.2494  0.2080
 8042W        W12242   6.295   1.234   5.232  0.1644 -0.2068  0.0698
 8043W        W12243   3.977   1.287   1.727  0.0437  0.1107  0.1081
 8044W        W12244   3.327   7.991   9.726  0.2118 -0.0260 -0.0547
 8045W        W12245   2.390   3.442   3.232 -0.3566 -0.1061 -0.0107
 8046W        W12246   8.096   4.615   9.148 -0.2172  0.2178 -0.0676
 8047W        W12247   2.411   6.921  11.863  0.2920 -0.3171 -0.0999
 8048W        W12248   4.871   0.570   9.026  0.1024 -0.0370  0.2785
 8049W        W12249   2.841   3.279   3.485  0.4119 -0.2453  0.0873
 8050W        W12250   3.766   8.861  13.184 -0.1367 -0.5011  0.0334
 8051W        W12251   2.558   7.786   3.558  0.1011 -0.0703 -0.3575
 8052W        W12252   4.485   5.144  12.233  0.1588 -0.0568  0.1528
 8053W        W12253   1.372   6.350  11.440  0.1840 -0.2639 -0.3560
 8054W        W12254   1.349   5.041  11.619 -0.3582  0.0722 -0.1827
 8055W        W12255   2.334   6.398   3.439  0.1059  0.0159 -0.2101
 8056W        W12256   2.296   5.851   1.707  0.1424  0.0779  0.0278
 8057W        W12257   9.974   1.142   1.755  0.1242 -0.0188  0.0428
 8058W        W12258   3.722   0.291   0.822  0.1678  0.0267 -0.0467
 8059W        W12259   5.969   5.500  12.950  0.1259  0.0984  0.0641
 8060W        W12260   6.165   3.981   4.520 -0.0205  0.0692 -0.2170
 8061W        W12261   9.610   2.709   3.433 -0.0986 -0.2668 -0.0787
 8062W        W12262   3.193  10.472   3.359  0.0484 -0.3219 -0.1075
 8063W        W12263  10.368   7.724  13.128  0.0701 -0.0893 -0.1761
 8064W        W12264   2.500   8.686   0.338  0.0846 -0.3407  0.0345
 8065W        W12265   5.770   1.451   2.434 -0.1995 -0.0989  0.0359
 8066W        W12266   7.935   8.595  10.522  0.3543 -0.3081 -0.0058
 8067W        W12267   6.044   2.356   2.631 -0.1390 -0.0862  0.1289
 8068W        W12268   7.805   6.140   3.796 -0.2777  0.0635  0.1558
 8069W        W12269   7.052   0.059   0.549  0.0386 -0.4156  0.0758
 8070W        W12270   4.258   9.786   9.037 -0.4559 -0.2243  0.0052
 8071W        W12271   2.021   5.812   2.572  0.0748  0.1864 -0.1215
 8072W        W12272   0.469   6.733   0.369 -0.3533  0.2837  0.0858
 8073W        W12273   4.809   0.826  10.574  0.1233 -0.0130  0.1853
 8074W        W12274   3.412   4.521  10.210  0.3552  0.1965 -0.2108
 8075W        W12275   6.209   9.428   9.277  0.0244 -0.0919 -0.0375
 8076W        W12276   6.152   3.942  12.070 -0.3062 -0.2283 -0.1056
 8077W        W12277   9.416   7.767  11.940 -0.2668 -0.1107  0.0439
 8078W        W12278   5.048   0.375   3.474  0.0915  0.0215 -0.2822
 8079W        W12279   9.848   9.788  11.071 -0.1590  0.1633  0.2927
 8080W        W12280   3.937   9.691   8.679  0.2350 -0.1423  0.3572
 8081W        W12281   0.422   7.754  11.354  0.1257 -0.2395  0.1868
 8082W        W12282   3.569   5.718   0.604  0.2761 -0.3538  0.3943
 8083W        W12283   5.745   7.138   0.110  0.0127 -0.0592 -0.1160
 8084W        W12284   1.589   7.290   1.083 -0.1062 -0.3275 -0.2028
 8085W        W12285   1.753   6.195   2.384  0.0694  0.1287  0.0536
 8086W        W12286   6.504  10.318  10.287  0.0378 -0.2059 -0.1670
 8087W        W12287   9.576   3.646   1.000 -0.0565 -0.2471 -0.1095
 8088W        W12288   7.829   9.162  10.186 -0.2074 -0.0631 -0.1024
 8089W        W12289   8.451   2.266   4.012  0.1875 -0.1815 -0.0135
 8090W        W12290   2.405  10.050   4.775  0.0540  0.4710  0.0485
 8091W        W12291   0.335   8.742   0.730 -0.2169 -0.3283 -0.3500
 8092W        W12292   2.939   9.499  10.627 -0.4837  0.2773 -0.0272
 8093W        W12293   5.778   3.558  12.127 -0.0318  0.0757 -0.3306
 8094W        W12294   0.122   8.279  12.008 -0.1106 -0.2032  0.1462
 8095W        W12295   7.238   1.502   9.194  0.0155 -0.0113 -0.1670
 8096W        W12296   2.484   9.008   2.695  0.2610  0.1756  0.0416
 8097W        W12297   2.362   1.557   9.565  0.0080  0.2902  0.1698
 8098W        W12298   4.652   1.604   9.895  0.1322 -0.3382 -0.2719
 8099W        W12299   3.189   8.101  10.957 -0.0483  0.2930  0.1393
 8100W        W12300   4.369   8.928   0.198  0.0153  0.0518  0.3070
 8101W        W12301   9.854   7.175  12.111 -0.2628  0.0637  0.0538
 8102W        W12302   2.122   8.410   1.076  0.1741 -0.2472  0.0440
 8103W        W12303   0.603   5.488   4.426 -0.0760  0.3583  0.1683
 8104W        W12304   2.092   8.126   4.171 -0.0607  0.1278 -0.0272
 8105W        W12305  10.335   5.951   9.793  0.0469  0.0639  0.0878
 8106W        W12306   0.121   3.708   2.098 -0.1633  0.1814  0.0600
 8107W        W12307   1.661   8.106   1.835  0.1777  0.2952  0.0084
 8108W        W12308   3.584   6.707  12.065  0.1481  0.0650  0.3936
 8109W        W12309   5.610   1.151  12.948  0.0700  0.0868 -0.2696
 8110W        W12310   0.831   0.433   9.226 -0.0723  0.1353 -0.0224
 8111W        W12311   1.860   5.989   4.930  0.1657 -0.1557 -0.2301
 8112W        W12312   4.977   5.267  12.567  0.1930  0.0389  0.2806
 8113W        W12313   1.579   7.790   3.900 -0.1238 -0.1478 -0.1255
 8114W        W12314   2.940   4.354   3.404 -0.0143 -0.0431 -0.2001
 8115W        W12315   9.012   3.966   8.619 -0.1080 -0.0222 -0.2944
 8116W        W12316   0.672   1.931   0.829  0.1510 -0.1454  0.0578
 8117W        W12317   9.705   9.329   0.544 -0.0240  0.3671 -0.0545
 8118W        W12318   2.544   5.053   2.555 -0.3144 -0.0331  0.1588
 8119W        W12319   2.475   3.287   8.904 -0.1894 -0.2354 -0.0606
 8120W        W12320   5.290   6.436  13.202 -0.2074 -0.0229  0.0592
 8121W        W12321   1.590   2.597   3.590  0.1163 -0.2002 -0.0579
 8122W        W12322   9.431   4.149  11.506 -0.0931  0.3067 -0.2035
 8123W        W12323   8.076   4.928   4.435 -0.1980 -0.2612 -0.2258
 8124W        W12324   4.110   2.303   9.865 -0.0843  0.0167  0.2913
 8125W        W12325   6.672   6.760   1.669  0.0898 -0.3723 -0.0206
 8126W        W12326   9.250   9.890  10.355  0.0177  0.2039 -0.0409
 8127W        W12327   2.964   7.776   3.807 -0.0315 -0.0079  0.1354
 8128W        W12328   8.405   6.055   0.171  0.0254  0.2648  0.0072
 8129W        W12329   3.582   9.469   4.399  0.1018 -0.1337  0.2628
 8130W        W12330   6.320   8.968   9.077 -0.2142  0.2238 -0.1220
 8131W        W12331   2.933   3.472   2.208 -0.0934 -0.0508  0.1746
 8132W        W12332   0.550  10.067   2.351 -0.2148  0.0043 -0.0256
 8133W        W12333   1.868   3.043   2.747  0.2352  0.1246 -0.0064
 8134W        W12334   6.606   3.088   4.397 -0.1039  0.1422 -0.3122
 8135W        W12335   1.262   1.161   8.366 -0.2908 -0.1860 -0.2626
 8136W        W12336   1.638   2.500   0.265 -0.2009  0.2871 -0.2455
 8137W        W12337   6.677  10.408   1.725 -0.0771 -0.2063  0.0924
 8138W        W12338   3.725   5.906   0.187 -0.3624 -0.2028 -0.1336
 8139W        W12339   7.954   9.630   2.277 -0.0134 -0.0812 -0.4739
 8140W        W12340   5.564   8.212   0.636 -0.1576 -0.1095  0.1780
 8141W        W12341   6.848   0.529   5.278 -0.5053  0.1656 -0.0347
 8142W        W12342   5.925  10.152   9.925 -0.1287 -0.1847 -0.0764
 8143W        W12343   5.775   3.348   2.856 -0.0856  0.0380  0.1130
 8144W        W12344   2.248   0.832  10.599  0.1849 -0.0387 -0.1130
 8145W        W12345   3.083   8.154   1.702 -0.2192  0.1086 -0.0017
 8146W        W12346   0.446   7.619   1.444 -0.2559 -0.1049  0.2200
 8147W        W12347   3.564   1.676   8.932  0.3847 -0.0318 -0.1820
 8148W        W12348   0.049   9.536  12.055  0.2427 -0.0692 -0.0035
 8149W        W12349   2.580   4.762   3.420 -0.0076  0.1265  0.0070
 8150W        W12350   9.266   0.726  12.938 -0.2991 -0.1636 -0.1325
 8151W        W12351   0.828   6.103  10.039  0.4327  0.1317  0.0796
 8152W        W12352   8.438   6.748  12.975 -0.1442 -0.0205  0.0506
 8153W        W12353   1.187   3.388  12.870  0.0703 -0.0988 -0.1574
 8154W        W12354  10.458   5.557   2.749 -0.1334 -0.0826 -0.1482
 8155W        W12355   6.906   6.974   1.270 -0.0012  0.0312  0.1670
 8156W        W12356   6.964   4.513   0.182  0.1175 -0.1425  0.0494
 8157W        W12357   5.247   9.321   3.276 -0.1517  0.1178  0.0968
 8158W        W12358   6.035   1.109  10.360 -0.0406  0.3946 -0.0404
 8159W        W12359   0.671   4.574  11.838 -0.1367 -0.1242  0.0010
 8160W        W12360   0.159   7.492  12.002  0.1981  0.0539  0.2877
 8161W        W12361   7.916   5.154  11.926  0.1930 -0.0229  0.0630
 8162W        W12362   0.162   4.112   5.176 -0.4301  0.5650 -0.0270
 8163W        W12363  10.096   5.476   4.165  0.0979 -0.2059 -0.1507
 8164W        W12364   0.752   0.185   4.864 -0.2665 -0.1207  0.0007
 8165W        W12365   0.177   8.268   0.890 -0.0044 -0.0353  0.2666
 8166W        W12366   3.606   3.996   2.090 -0.3329  0.0818 -0.1096
 8167W        W12367   8.381   3.356   4.317 -0.0982 -0.1793  0.0014
 8168W        W12368   5.277   7.775   0.657 -0.3241  0.1259 -0.1631
 8169W        W12369   6.138   3.753   2.684 -0.2957 -0.0349 -0.4160
 8170W        W12370   9.112   0.286   9.121  0.0091 -0.0391 -0.1265
 8171W        W12371   6.646   7.564   3.269  0.1282 -0.1052  0.1398
 8172W        W12372   5.350   1.321   0.130 -0.1725 -0.0054 -0.0985
 8173W        W12373   0.773   9.981   0.654  0.0683 -0.0769 -0.0365
 8174W        W12374   8.698   5.078  10.455 -0.0908  0.0336 -0.3249
 8175W        W12375   8.985   2.208   3.721  0.0156  0.0550  0.0193
 8176W        W12376   3.737   9.326   3.141  0.2092  0.0457 -0.2968
 8177W        W12377   1.904   6.655   2.262  0.0952 -0.0577  0.3981
 8178W        W12378   6.378   9.901   2.059 -0.0553  0.1033 -0.1206
 8179W        W12379   4.862   0.902  11.124 -0.0471  0.0295  0.1730
 8180W        W12380   5.312   7.597   4.136  0.1071  0.0962 -0.1593
 8181W        W12381   5.022   3.643   9.795 -0.0132 -0.2024  0.1038
 8182W        W12382   0.474   7.037  13.391 -0.3505  0.2645  0.0022
 8183W        W12383   3.269   8.709   9.529  0.0241 -0.2027  0.1881
 8184W        W12384   2.434   5.279  10.995 -0.0802 -0.0421  0.0892
 8185W        W12385   1.909   6.688   9.679 -0.0657  0.1117 -0.2000
 8186W        W12386   6.227   1.868  11.893 -0.0990 -0.1278 -0.0466
 8187W        W12387   9.464   5.047   1.534  0.4098  0.0786 -0.0377
 8188W        W12388   2.638   5.463  10.592 -0.0940  0.1544 -0.1112
 8189W        W12389   5.230   9.261   0.509 -0.0846  0.0333 -0.1159
 8190W        W12390   8.007   1.352   0.480  0.3041  0.2705 -0.0164
 8191W        W12391   0.514   3.590   0.118  0.0601  0.0132 -0.0606
 8192W        W12392   3.035   0.737  10.567 -0.2332  0.0229  0.0647
 8193W        W12393   5.770   0.965   1.028 -0.1005 -0.0046  0.2148
 8194W        W12394   4.790   9.219   1.655  0.1276  0.0077  0.1811
 8195W        W12395   3.420   3.853   9.396 -0.0981  0.2875  0.0086
 8196W        W12396   6.822   8.157  13.235 -0.0546  0.1644  0.0593
 8197W        W12397   4.523   9.662  10.806  0.3604 -0.0050 -0.1634
 8198W        W12398   8.462   5.765   2.133  0.0330  0.0838  0.1372
 8199W        W12399   1.473   3.524   4.995  0.2609  0.2222  0.2039
 8200W        W12400   2.515   0.995   1.514  0.0365  0.2004  0.1610
 8201W        W12401   4.082   2.898   2.273  0.3735  0.2240 -0.1221
 8202W        W12402   5.747   9.227   9.572 -0.1611 -0.1673  0.0312
 8203W        W12403   9.494   3.906   9.335  0.1018 -0.0506 -0.0209
 8204W        W12404   9.825   0.812   2.204 -0.0123  0.1676 -0.2270
 8205W        W12405   7.735   0.081   1.813 -0.3944  0.4197  0.2688
 8206W        W12406   8.661   5.827  12.387 -0.1273  0.1103  0.1234
 8207W        W12407   5.664   0.278   0.103  0.2877 -0.1677 -0.2057
 8208W        W12408   6.732   0.571   3.717 -0.1117 -0.0368  0.1608
 8209W        W12409   0.449   6.759  11.397  0.1190 -0.1770  0.1749
 8210W        W12410   0.932   0.442   4.399 -0.2764 -0.0228 -0.3622
 8211W        W12411   4.698   8.491   0.911 -0.1475 -0.0547  0.3604
 8212W        W12412   5.636   4.750  12.147  0.0553  0.0826  0.2637
 8213W        W12413   4.518   9.025   4.738 -0.2587  0.1012  0.1023
 8214W        W12414   8.823   9.272   0.071  0.1714  0.1629  0.0796
 8215W        W12415  10.172   3.223   8.675  0.0360  0.1645 -0.0689
 8216W        W12416   4.619   0.036   9.339 -0.0115  0.2917  0.1593
 8217W        W12417   8.412   0.824   1.190  0.1112  0.2662  0.1652
 8218W        W12418   5.273   7.295   0.522  0.0268  0.0528  0.0227
 8219W        W12419   8.240   3.692   9.216  0.1581 -0.3868  0.1916
 8220W        W12420   4.902   5.606  11.040  0.0540 -0.0048  0.1820
 8221W        W12421   7.739   8.221   2.911 -0.0127 -0.1610 -0.1766
 8222W        W12422   2.005   2.375   1.088  0.1418  0.3313  0.3116
 8223W        W12423   7.753   1.488  10.040  0.0972  0.2309 -0.0081
 8224W        W12424   6.643   5.543   2.542  0.1599 -0.3069  0.2659
 8225W        W12425   6.171   7.751  10.988  0.1410  0.2349  0.3298
 8226W        W12426   1.199   1.182   2.117  0.1181  0.2394  0.0087
 8227W        W12427  10.471   2.253   4.927 -0.0420  0.1165 -0.2479
 8228W        W12428   8.839   0.143   0.560  0.1994  0.1386 -0.0141
 8229W        W12429   4.829   1.189   0.834  0.0171 -0.0095  0.1267
 8230W        W12430   8.449   9.745  12.171  0.1055  0.0754  0.0717
 8231W        W12431   1.323   7.408   0.628  0.0464 -0.0678 -0.0290
 8232W        W12432   8.157   7.137   0.302  0.2651  0.2889 -0.2091
 8233W        W12433   1.465   0.365  11.025 -0.0089 -0.0617  0.0072
 8234W        W12434   7.995   8.390   0.200 -0.0958  0.2175 -0.0896
 8235W        W12435   1.651   4.117   1.555  0.0715 -0.2364  0.2097
 8236W        W12436   2.264   3.345   2.512 -0.1251 -0.0058  0.0521
 8237W        W12437   2.995   0.174   1.742 -0.0388  0.3384  0.1568
 8238W        W12438   8.607   1.582   2.300  0.3796  0.1419  0.2391
 8239W        W12439   6.627   4.876   9.670  0.1036  0.0681  0.1749
 8240W        W12440   7.787   6.865  12.382 -0.2183  0.2390  0.0259
 8241W        W12441   0.280   0.984  11.156  0.0526 -0.1417 -0.0155
 8242W        W12442   0.941   1.557   1.008  0.2107  0.3711 -0.1534
 8243W        W12443   0.665   9.222  11.053 -0.0431 -0.2767  0.0985
 8244W        W12444   4.445   9.643  12.386  0.0932 -0.1814  0.3370
 8245W        W12445   3.807   8.641   1.321  0.0115 -0.1910  0.3223
 8246W        W12446   3.097   3.596  10.801 -0.1461 -0.0653 -0.0041
 8247W        W12447   1.319   3.985   9.804 -0.3787 -0.1760  0.3805
 8248W        W12448   7.079   9.153  13.146  0.2199  0.1502  0.1338
 8249W        W12449   8.870   1.021  12.981 -0.0302 -0.0013  0.0641
 8250W        W12450   9.587   6.325   3.144  0.2549  0.0556 -0.1326
 8251W        W12451   5.932   7.149  10.814  0.0709 -0.2806 -0.1051
 8252W        W12452   8.123   2.152   4.452 -0.0771 -0.0829 -0.1102
 8253W        W12453   5.761   6.960  12.647 -0.1990 -0.1733  0.4049
 8254W        W12454   4.866  10.338   3.323  0.1435 -0.2371  0.2162
 8255W        W12455   8.110   2.791   9.625 -0.0719  0.0289  0.0218
 8256W        W12456   2.758   1.191   3.281 -0.2497 -0.1269  0.0140
 8257W        W12457   9.454   5.790   9.134  0.0158 -0.1345  0.4223
 8258W        W12458   3.062   0.879  12.941  0.0832  0.0201  0.3770
 8259W        W12459   8.835   2.389  10.905  0.0252 -0.0628 -0.1281
 8260W        W12460   4.685   5.455   3.002  0.1490 -0.0757 -0.2354
 8261W        W12461   6.929   7.423   1.498  0.1013  0.1385  0.3364
 8262W        W12462   6.706   2.533   9.745 -0.0835 -0.1784  0.0391
 8263W        W12463   1.006   7.862   3.992 -0.2937  0.3280 -0.1273
 8264W        W12464   9.122   2.303  13.183  0.0047 -0.3439 -0.0105
 8265W        W12465   6.437   0.759   3.317  0.0447 -0.4190 -0.0627
 8266W        W12466   9.232   2.477   1.692 -0.0654  0.0022  0.0933
 8267W        W12467   2.678  10.058  11.962  0.6563 -0.0672 -0.1270
 8268W        W12468   6.085   3.071  11.895 -0.0672  0.1168 -0.1088
 8269W        W12469   4.881   0.513   4.183 -0.0175 -0.1939 -0.1036
 8270W        W12470   2.851   0.545   3.874 -0.1389  0.3466 -0.2302
 8271W        W12471   1.322   7.455  11.282 -0.1736  0.2848  0.0072
 8272W        W12472   2.651   7.767   3.084  0.3348 -0.6022 -0.0954
 8273W        W12473   2.562   2.530   0.269  0.0129  0.4450 -0.2794
 8274W        W12474   5.599   3.885   0.006 -0.1963  0.1592  0.1501
 8275W        W12475   0.623   0.941  12.062  0.2378  0.1772 -0.2340
 8276W        W12476   8.734   8.382  10.426  0.1702 -0.0806  0.0093
 8277W        W12477   3.729   0.990   2.353  0.1259  0.2958  0.1215
 8278W        W12478   1.430   1.892   1.757  0.1557 -0.3998  0.1712
 8279W        W12479   7.264   3.378   0.791  0.1275  0.2336  0.0508
 8280W        W12480   3.236   3.579   1.308  0.0212 -0.3150  0.2146
 8281W        W12481   5.259   6.001  11.089 -0.1612  0.2001  0.1073
 8282W        W12482   6.492   7.333  13.250 -0.2910  0.1146 -0.1723
 8283W        W12483   7.488   6.639  10.271  0.0133 -0.1370  0.0936
 8284W        W12484   7.010   8.002   1.466 -0.1107 -0.0059  0.1825
 8285W        W12485   1.514   7.832  11.558  0.1876  0.1385  0.0459
 8286W        W12486   7.549  10.470   4.355  0.0620 -0.2977 -0.3840
 8287W        W12487   3.615   7.428   1.695  0.1777  0.0164 -0.0300
 8288W        W12488   7.099   3.413   1.386 -0.1769 -0.1777 -0.0141
 8289W        W12489   1.332   3.892  11.321 -0.0795 -0.0353  0.0640
 8290W        W12490   2.885   2.314   0.534 -0.1505  0.2058 -0.2951
 8291W        W12491   7.658   2.175  11.787 -0.2213  0.3041  0.2678
 8292W        W12492   6.522   4.323  12.106  0.1102 -0.3312  0.1550
 8293W        W12493   3.188   2.371   3.122  0.2624  0.0753  0.1185
 8294W        W12494   3.214   4.797  12.969 -0.2685 -0.1592  0.3423
 8295W        W12495   4.108   3.161   0.003  0.0282 -0.1694 -0.1520
 8296W        W12496   6.012   2.988  10.254  0.1201  0.0511  0.1004
 8297W        W12497   5.287   1.050   4.256  0.0818  0.2207 -0.1106
 8298W        W12498   8.227   1.456   3.512 -0.1718  0.2702  0.2558
 8299W        W12499   6.679   1.517   2.701  0.1745  0.2113  0.1281
 8300W        W12500   5.661   6.788  13.143  0.1284  0.3432  0.0252
 8301W        W12501   6.844   1.982  13.375  0.0231  0.1196  0.1833
 8302W        W12502  10.427   7.293  12.763 -0.0222  0.1440 -0.0565
 8303W        W12503   1.945   2.448   2.735 -0.2804 -0.4043 -0.2199
 8304W        W12504   9.335   6.136   2.716 -0.1383  0.0022  0.0034
 8305W        W12505   8.836   0.507  10.938  0.0804 -0.0345  0.3501
 8306W        W12506   4.643   8.990  12.836 -0.3502  0.3917 -0.1958
 8307W        W12507   8.482   2.815  11.696 -0.0807 -0.1511  0.0125
 8308W        W12508   2.318   3.186   1.975  0.1770  0.3464  0.1153
 8309W        W12509   5.565   6.099   8.311  0.1976 -0.1340  0.0653
 8310W        W12510  10.363   6.990   3.309 -0.0102 -0.0191 -0.2723
 8311W        W12511   5.416   2.422  11.414 -0.1536  0.1093  0.1480
 8312W        W12512   7.773   9.965   9.689 -0.0955 -0.2888 -0.1676
 8313W        W12513   1.122   5.043   2.880  0.1045  0.0542  0.2101
 8314W        W12514   3.095   9.848   1.422  0.0460  0.1440 -0.0873
 8315W        W12515   5.778   8.553   3.764 -0.0883  0.0093 -0.0295
 8316W        W12516   7.438   3.683   2.029 -0.1075 -0.0831  0.2105
 8317W        W12517   8.980   9.454   1.091  0.0577 -0.2935  0.2690
 8318W        W12518   0.317   4.322   0.287  0.3102 -0.2735 -0.2402
 8319W        W12519   1.794  10.035   0.301 -0.0099  0.0438 -0.0155
 8320W        W12520   2.484   4.418  12.631 -0.0596  0.1172  0.0804
 8321W        W12521   8.497   5.543  10.226 -0.0550 -0.1970 -0.1678
 8322W        W12522   9.024   8.282  12.797  0.2581 -0.2500 -0.0072
 8323W        W12523   0.086   0.801  11.633  0.1874 -0.1012 -0.0030
 8324W        W12524   0.911   1.898   3.832  0.1503 -0.1642 -0.3107
 8325W        W12525   1.322   3.842  13.051  0.3289 -0.2801 -0.0386
 8326W        W12526   4.063   3.736   0.136 -0.0699  0.1711  0.0236
 8327W        W12527   9.338   5.724  11.493 -0.0018  0.1734  0.3523
 8328W        W12528   5.875   2.688   3.792 -0.2233 -0.0158 -0.0369
 8329W        W12529   1.432   0.253   1.005 -0.0941  0.2824 -0.0186
 8330W        W12530   5.234   3.458   2.802 -0.0214 -0.0206  0.0476
 8331W        W12531   9.528   3.049   0.978 -0.3221  0.0343 -0.0121
 8332W        W12532  10.222   6.997   2.721 -0.4947  0.0492  0.3419
 8333W        W12533   8.407   3.789  10.303  0.0190 -0.0744 -0.2814
 8334W        W12534  10.027   0.514  10.083 -0.1687 -0.1359  0.2607
 8335W        W12535   5.158   4.244  12.463  0.1316 -0.2392  0.0940
 8336W        W12536   7.697   3.509   9.968 -0.0349  0.0996 -0.0082
 8337W        W12537   9.325   1.251   9.210 -0.2765  0.0652  0.2304
 8338W        W12538  10.192   1.025  10.085 -0.2565  0.1605 -0.0210
 8339W        W12539  10.266   2.640  10.956  0.0238 -0.0276  0.0608
 8340W        W12540  10.069   5.755   0.508 -0.2421 -0.1403  0.0818
 8341W        W12541   5.898   8.162  10.652 -0.0408  0.1167 -0.2171
 8342W        W12542   9.106   1.963  12.758 -0.2287  0.0503  0.1894
 8343W        W12543   9.479   3.693  11.882  0.2264 -0.1835  0.1457
 8344W        W12544   7.189   9.552  10.964 -0.1073  0.5586 -0.0308
 8345W        W12545   2.330   4.985   0.817 -0.1554 -0.0510 -0.2951
 8346W        W12546   7.597   7.908   0.423 -0.0294 -0.3751 -0.2592
 8347W        W12547   6.150   6.225   1.313  0.1877  0.0671  0.1578
 8348W        W12548   6.961   3.780   1.077  0.0403  0.0141  0.4463
 8349W        W12549   3.451   1.892   4.556  0.2872  0.2029  0.0801
 8350W        W12550   4.029   0.631   2.082 -0.0927  0.0366  0.1632
 8351W        W12551   3.801   6.782  11.149  0.1047 -0.0183 -0.0966
 8352W        W12552   1.576   8.038  10.728 -0.0613  0.0485 -0.2217
 8353W        W12553   3.808   4.288   8.521  0.0708  0.1628 -0.1044
 8354W        W12554   1.277   2.819   8.965 -0.1014 -0.2911  0.3312
 8355W        W12555   5.743   1.718  11.861  0.2585 -0.1766  0.1367
 8356W        W12556   6.066   8.330   9.629  0.0478 -0.1381  0.1236
 8357W        W12557   7.620   3.891   4.823  0.2643 -0.0985 -0.0058
 8358W        W12558   0.923   5.017  11.970  0.0008 -0.0902  0.2726
 8359W        W12559   6.272   2.292   1.013 -0.1044 -0.0602 -0.0469
 8360W        W12560   2.826   0.346   2.167 -0.1781 -0.0133 -0.2646
 8361W        W12561   0.493   8.851   6.427 -0.0005 -0.0165 -0.0796
 8362W        W12562   3.673   3.864   3.949  0.0575  0.0248  0.0932
 8363W        W12563   5.561   2.101  10.383 -0.0704 -0.1125  0.0282
 8364W        W12564   5.515   9.820  11.609  0.2666  0.0779  0.4219
 8365W        W12565   9.545   4.479   1.535 -0.1054  0.3266 -0.0681
 8366W        W12566   2.058   7.419   0.868  0.2394  0.1632 -0.0357
 8367W        W12567   6.327   7.034   1.471 -0.2563 -0.1985  0.1616
 8368W        W12568   5.809   3.194   0.802 -0.3202 -0.1537 -0.2232
 8369W        W12569   0.437   0.772   9.115 -0.2663  0.2048 -0.0261
 8370W        W12570   4.162   8.343   1.736 -0.3021 -0.0282 -0.1306
 8371W        W12571   4.426   1.091   1.964 -0.1631  0.1791 -0.0122
 8372W        W12572   9.347   4.774  11.861 -0.0967  0.1437 -0.3093
 8373W        W12573   8.374   3.936   2.861  0.3663  0.0423 -0.1897
 8374W        W12574   8.793   8.055   1.364 -0.1131  0.1050 -0.1948
 8375W        W12575   9.597   2.891   1.628  0.0867 -0.2008  0.0651
 8376W        W12576   2.376   6.556   3.968  0.2308  0.1938 -0.3199
 8377W        W12577   3.745   8.920  12.291 -0.1707 -0.3521 -0.0469
 8378W        W12578   0.707   5.984  11.652  0.0595  0.2096 -0.1172
 8379W        W12579   8.590   3.977   2.056  0.2736 -0.2038  0.0555
 8380W        W12580   6.823   9.849   0.080 -0.0766  0.2007  0.1143
 8381W        W12581   9.534   6.613   0.308 -0.1279 -0.2000  0.0604
 8382W        W12582  10.427   8.147  12.889  0.1757 -0.2467 -0.2409
 8383W        W12583   6.202   9.016  10.098 -0.2010  0.0445 -0.3418
 8384W        W12584   3.056   1.222   9.568  0.2375 -0.0283  0.0827
 8385W        W12585   7.403   4.314  11.706 -0.0300  0.2944 -0.1166
 8386W        W12586   0.274   5.952   2.537 -0.3148 -0.1061  0.2213
 8387W        W12587   3.298   1.488   1.183 -0.0690  0.0037  0.0734
 8388W        W12588  10.248   6.842   9.728 -0.0284  0.1753 -0.1990
 8389W        W12589   4.770   4.788   1.319  0.0584  0.2495 -0.1548
 8390W        W12590   2.756   8.437   3.169 -0.3364  0.1796 -0.0938
 8391W        W12591   0.920   0.792   8.838  0.0076 -0.0288  0.0740
 8392W        W12592   4.088   5.879  11.483 -0.0354  0.1004  0.3158
 8393W        W12593   7.812   9.562   3.397 -0.3077  0.0828  0.1265
 8394W        W12594   0.703   1.083  12.950  0.2630  0.0161 -0.5543
 8395W        W12595   7.533   0.181   0.748 -0.0323 -0.1125  0.0590
 8396W        W12596   6.931   0.295   0.107 -0.0403 -0.1239  0.0874
 8397W        W12597   9.136   8.617  10.929 -0.1331  0.1474  0.0468
 8398W        W12598   2.339   0.103   2.185  0.2042  0.1670  0.3717
 8399W        W12599   5.487   5.124  12.584 -0.4335 -0.1180  0.0939
 8400W        W12600   3.252   0.396   0.537 -0.0179  0.1168 -0.1736
 8401W        W12601   0.862   7.250  10.804 -0.3452 -0.1513  0.0154
 8402W        W12602   4.848   9.420  12.834 -0.3310 -0.1766 -0.4973
 8403W        W12603   7.662   5.779   4.107  0.0994  0.4383 -0.3727
 8404W        W12604   1.644   4.446   0.201  0.2416 -0.0875 -0.1364
 8405W        W12605   8.645   0.141  10.301  0.0021 -0.2537 -0.4646
 8406W        W12606   6.160   8.155   2.490  0.3087  0.2555  0.1379
 8407W        W12607   6.390   2.327   3.755  0.1675 -0.3051  0.2418
 8408W        W12608   5.926   7.173  11.669  0.2658 -0.1736  0.1650
 8409W        W12609   3.032   7.975   3.275  0.1022  0.0938 -0.0156
 8410W        W12610   8.842   6.492   2.601 -0.0663  0.1051  0.0188
 8411W        W12611   7.852   8.748   2.791 -0.0759 -0.1557 -0.0916
 8412W        W12612   8.834   8.672  13.279 -0.1973  0.0344 -0.2121
 8413W        W12613   8.175   7.643   1.150 -0.1845  0.0794  0.3912
 8414W        W12614   3.945   3.543  11.074  0.0377 -0.2378  0.3859
 8415W        W12615   9.979   2.894   1.228  0.2330  0.0052  0.0703
 8416W        W12616   9.319   2.546   3.842 -0.1931  0.0774 -0.1711
 8417W        W12617   2.921   4.439   8.890 -0.0127 -0.1181  0.0854
 8418W        W12618   8.647   3.362  12.434 -0.1618  0.0418 -0.2674
 8419W        W12619   3.537   0.569   2.093 -0.4957  0.3041 -0.0201
 8420W        W12620   8.300   6.877   3.368  0.0417  0.0637  0.0920
 8421W        W12621   3.743   4.569   9.871  0.3481  0.0090 -0.1024
 8422W        W12622   5.563   2.691   0.895  0.1394 -0.0149 -0.0747
 8423W        W12623   5.008   9.761   2.513 -0.4145 -0.1421  0.0504
 8424W        W12624   7.373   1.017   3.221  0.0538  0.3533  0.1805
 8425W        W12625   0.872   1.309   2.992  0.2411 -0.1224  0.0389
 8426W        W12626   9.550   3.941  13.208  0.3223 -0.1462 -0.0349
 8427W        W12627  10.110   0.464  10.659  0.1244  0.1076 -0.1588
 8428W        W12628   3.365   3.521   3.369 -0.2027 -0.1537 -0.1405
 8429W        W12629   4.852   6.354   3.121 -0.0871 -0.1955  0.0034
 8430W        W12630   0.059   9.745  12.919 -0.3203 -0.0777 -0.1154
 8431W        W12631   5.018   2.064   3.271  0.0959  0.0961  0.2073
 8432W        W12632   0.471   3.078   2.250  0.1112 -0.1820 -0.2364
 8433W        W12633   4.999   4.294  10.455  0.0263 -0.1776 -0.4988
 8434W        W12634   4.992   2.330   4.026  0.0870 -0.0854 -0.1460
 8435W        W12635  10.315   9.159   7.671 -0.3122  0.1722 -0.0003
 8436W        W12636   5.156   5.984  13.377  0.1267  0.0177  0.3154
 8437W        W12637   7.133   6.975   1.675 -0.0384  0.0473 -0.0851
 8438W        W12638   8.678   4.182   0.035  0.2587 -0.0065  0.0054
 8439W        W12639   9.842  10.241  13.006  0.0501  0.0597 -0.2631
 8440W        W12640   8.747   3.111   1.984  0.0800  0.3974  0.1625
 8441W        W12641   1.047   3.239   5.084 -0.2356  0.0010 -0.2771
 8442W        W12642   2.901   2.156  10.967  0.2905  0.0901  0.2378
 8443W        W12643   1.471   4.833  12.106 -0.1153  0.1298  0.2612
 8444W        W12644   3.312   9.092  13.365 -0.1912  0.0902  0.0044
 8445W        W12645   7.678   7.975   1.979 -0.2695 -0.1999  0.2150
 8446W        W12646   7.975   3.775  13.344  0.0837 -0.2987  0.3772
 8447W        W12647   2.968   4.566  10.001  0.3697  0.2083  0.2524
 8448W        W12648   4.035   5.944   1.525  0.1229 -0.0146 -0.2843
 8449W        W12649   1.242   6.319   1.548  0.0604  0.3227  0.1236
 8450W        W12650   1.086   4.993   8.796  0.1104 -0.0620  0.1274
 8451W        W12651   6.052   2.997  13.190 -0.2501 -0.3852 -0.3839
 8452W        W12652   5.539   9.188   1.023 -0.1147  0.0050 -0.1048
 8453W        W12653   4.687   6.845  11.821  0.2592  0.0362 -0.1147
 8454W        W12654   7.230   2.399   3.156 -0.0191  0.2002 -0.2671
 8455W        W12655   4.054   1.109   9.774  0.0714  0.0470 -0.2995
 8456W        W12656   6.557   4.863  11.931  0.1440  0.0471 -0.0585
 8457W        W12657   2.344   9.241   0.965  0.2004 -0.1827 -0.2317
 8458W        W12658   8.553   6.304  11.039  0.1178 -0.0616 -0.0208
 8459W        W12659   8.624   6.944   2.596 -0.0783  0.2084  0.0965
 8460W        W12660   4.367   0.994   1.487 -0.1674  0.0135 -0.2403
 8461W        W12661   8.605   5.178   3.050 -0.3190 -0.2372 -0.1859
 8462W        W12662   2.292   8.787  11.586  0.3585  0.2297  0.1133
 8463W        W12663   3.296   6.732   3.806 -0.0207 -0.2239 -0.0260
 8464W        W12664   4.824   0.674   0.460 -0.0401  0.0457 -0.1025
 8465W        W12665   5.694   5.600   3.974 -0.1650  0.0226 -0.0479
 8466W        W12666   2.784   7.280  10.656  0.2342  0.1705 -0.1157
 8467W        W12667   1.132   1.241  13.160 -0.2093  0.0737 -0.2112
 8468W        W12668   9.183   4.502   9.319  0.1119  0.1605 -0.0498
 8469W        W12669  10.161   1.874  10.775 -0.0776 -0.2312 -0.3013
 8470W        W12670   9.234   8.285  11.309 -0.3051  0.1492 -0.0822
 8471W        W12671   4.909   9.593  12.305 -0.1164  0.2383  0.3699
 8472W        W12672   8.933   6.608  10.657 -0.0836 -0.2392  0.1421
 8473W        W12673   5.394  10.139   0.649  0.0229  0.3244  0.1220
 8474W        W12674   8.184   4.628   4.013 -0.0130  0.0425 -0.0500
 8475W        W12675   9.435   1.226   4.098  0.2475  0.0474  0.0934
 8476W        W12676   8.602   1.849   1.257 -0.2251  0.2034  0.2888
 8477W        W12677   0.131   4.979   9.889  0.0709  0.0709 -0.3561
 8478W        W12678   7.454   6.732  11.845  0.2333 -0.0924  0.1956
 8479W        W12679   3.843   0.522  11.605  0.0325 -0.2193  0.1051
 8480W        W12680   4.265   2.240   1.064  0.0819  0.0005  0.2470
 8481W        W12681   9.076   9.362   2.416  0.0626 -0.0685  0.1088
 8482W        W12682   4.463   7.929   0.598  0.2459 -0.2423 -0.2385
 8483W        W12683   6.268   7.011  12.565  0.0510  0.2085 -0.0771
 8484W        W12684   0.965   4.112  10.542 -0.2927 -0.0423  0.1021
 8485W        W12685   8.143   5.471  13.228  0.0826 -0.1646  0.0741
 8486W        W12686  10.291   5.040   3.917 -0.0714  0.0210 -0.0231
 8487W        W12687   4.831   1.033   2.756  0.0798 -0.1890  0.0374
 8488W        W12688   8.007   0.412   0.491  0.1091  0.2728 -0.4411
 8489W        W12689   3.004   4.186   2.588  0.1764 -0.0903  0.2081
 8490W        W12690   4.861   9.134   4.231  0.0302 -0.0364  0.0927
 8491W        W12691   8.182  10.379   9.096 -0.1754  0.1215  0.0973
 8492W        W12692   0.204   0.931   2.282  0.2894  0.1036  0.0152
 8493W        W12693   9.247   3.446   8.694  0.0620 -0.0533  0.1668
 8494W        W12694   3.265   6.181  10.762  0.0555 -0.0082 -0.1236
 8495W        W12695  10.303   0.433   2.194  0.1506  0.1938 -0.1261
 8496W        W12696   5.686   6.609   2.652 -0.2696  0.0526 -0.1112
 8497W        W12697   7.240   1.035  12.115  0.3006 -0.2213 -0.0747
 8498W        W12698   5.081   2.505   1.434  0.0518 -0.0061  0.1387
 8499W        W12699   7.291   6.142  13.422  0.1609 -0.0665 -0.0607
 8500W        W12700   5.381   9.687   2.896 -0.0578  0.1834 -0.1380
 8501W        W12701   6.041   6.301   8.125  0.2373 -0.0165  0.2543
 8502W        W12702   1.912   5.199   8.316  0.3925 -0.2253 -0.2008
 8503W        W12703  10.136   0.911   0.526  0.1120  0.1295  0.7346
 8504W        W12704   0.668   0.198  11.014 -0.0095 -0.2582 -0.2308
 8505W        W12705   3.572  10.195   2.426  0.1006  0.1280 -0.2531
 8506W        W12706   0.314   7.815  10.207 -0.0467  0.1886  0.4214
 8507W        W12707   0.561   6.460  13.376 -0.1484 -0.1651 -0.0090
 8508W        W12708   0.224  10.111   9.399  0.3619 -0.3288  0.1388
 8509W        W12709   4.035   2.256   1.515  0.0738  0.0614 -0.2008
 8510W        W12710   9.514   9.101   2.911 -0.1306  0.2705  0.4285
 8511W        W12711   4.410   0.229   2.103 -0.1418 -0.4696  0.1722
 8512W        W12712   3.384   9.256  10.442 -0.0990  0.3371  0.0932
 8513W        W12713   2.935   3.860  10.093 -0.2202  0.1089  0.0662
 8514W        W12714   3.448   7.318  13.023 -0.0689  0.2404 -0.1525
 8515W        W12715   8.364   2.547   2.643 -0.5262  0.0028  0.1173
 8516W        W12716   6.940   6.243   9.179  0.1114 -0.0075  0.0978
 8517W        W12717  10.228   0.421   0.345  0.1264  0.2901  0.0345
 8518W        W12718  10.082  10.098   0.598  0.0606 -0.0686 -0.1932
 8519W        W12719   5.320   8.271  13.103 -0.0644 -0.1510 -0.3994
 8520W        W12720   3.813  10.260  10.086  0.1214 -0.3307  0.0320
 8521W        W12721   0.342   6.960  11.998  0.1476 -0.2601 -0.2576
 8522W        W12722   6.774   2.545   3.360  0.0938 -0.0219 -0.0840
 8523W        W12723   5.369   1.993   5.250 -0.1043 -0.2249  0.1306
 8524W        W12724   9.790   3.708   4.995 -0.0545  0.2904 -0.0065
 8525W        W12725   3.808   1.061  12.981  0.2532 -0.1375 -0.0966
 8526W        W12726  10.437   4.670   3.088 -0.4668 -0.0840 -0.0365
 8527W        W12727   7.417   2.726   9.548 -0.0343  0.1817  0.4333
 8528W        W12728   6.932   0.219   2.167 -0.2101 -0.3947  0.0618
 8529W        W12729   3.094   0.916   1.264 -0.0219  0.0991  0.0099
 8530W        W12730   4.541  10.248   1.883 -0.0086 -0.0318 -0.0305
 8531W        W12731   2.072   4.084  11.319  0.0052  0.3819  0.1471
 8532W        W12732   9.716   0.001   0.472  0.1874  0.1510  0.0498
 8533W        W12733   1.985   7.835   2.194 -0.0325 -0.1531 -0.0515
 8534W        W12734   1.848   3.514   2.190 -0.3318  0.1568  0.1171
 8535ION    NA+12735   8.779   3.156   3.326 -0.3336  0.1683  0.1862
 8536ION    NA+12736   0.592   8.079   3.045  0.0819  0.2525 -0.3773
 8537ION    NA+12737   9.321   2.651   0.647 -0.3660 -0.0475 -0.0201
 8538ION    NA+12738   5.262   3.199   0.021 -0.0550  0.0313 -0.3160
 8539ION    NA+12739   6.395   4.577   0.895 -0.1360  0.4703  0.0608
 8540ION    NA+12740   8.050   0.224  11.108  0.2820 -0.0703 -0.0536
 8541ION    NA+12741   2.172   3.040  12.947 -0.6413 -0.1113 -0.1374
 8542ION    NA+12742   9.706   7.290  10.592 -0.2338 -0.0840 -0.0856
 8543ION    NA+12743  10.474   6.170   3.346  0.0031 -0.0996 -0.0673
 8544ION    NA+12744   1.695   2.058   8.453  0.1061  0.1532  0.6417
 8545ION    NA+12745   3.752   7.573   8.962  0.3517  0.2220  0.1360
 8546ION    NA+12746   3.614   1.645   1.608  0.1448 -0.1246 -0.1259
 8547ION    NA+12747   2.746   1.135   2.296 -0.3434  0.0103 -0.3898
 8548ION    NA+12748   6.065   1.737  11.361 -0.1110 -0.1456  0.2343
 8549ION    NA+12749   1.766   2.764   9.031  0.1764 -0.0374 -0.0786
 8550ION    NA+12750   9.026   3.106  11.506  0.3073  0.2758  0.1364
 8551ION    NA+12751   3.018   8.100   4.980 -0.1197  0.0451  0.0357
 8552ION    NA+12752   0.170   8.953  10.841 -0.0600 -0.0039 -0.1164
 8553ION    NA+12753   7.773   9.473   2.702 -0.1064  0.1884 -0.1911
 8554ION    NA+12754   2.424   4.621  11.894 -0.0943  0.4251 -0.0848
 8555ION    NA+12755   1.441   9.632   2.595  0.2217 -0.0239 -0.3099
 8556ION    NA+12756   8.390  10.409  12.945 -0.2778  0.2416  0.0954
 8557ION    NA+12757   7.265   9.368  12.739 -0.0741  0.1473 -0.0211
 8558ION    NA+12758   0.230   1.861  10.933 -0.0039  0.3467  0.0530
 8559ION    NA+12759   4.534   5.961   4.743 -0.0525  0.0223  0.0057
 8560ION    NA+12760   5.876   8.564   1.571 -0.0998 -0.0342  0.0737
 8561ION    NA+12761   1.468   5.453   3.813 -0.0388 -0.1756 -0.0374
 8562ION    NA+12762  10.069   7.296   1.363 -0.2492 -0.0743  0.2653
 8563ION    NA+12763   3.599   3.034   4.821  0.0409  0.0169 -0.3655
 8564ION    NA+12764   8.631  10.362  11.586  0.0475  0.1705  0.0052
 8565ION    NA+12765   2.856   6.510   8.441 -0.0347 -0.2842 -0.1140
 8566ION    NA+12766   7.241   6.087   3.147  0.1790 -0.0117  0.0642
 8567ION    NA+12767   0.064   0.611   4.420 -0.1802 -0.0335  0.2265
 8568ION    NA+12768   3.872   1.890  12.014  0.2471 -0.1617 -0.2184
 8569ION    NA+12769   6.653   3.187   9.539 -0.1444  0.0336  0.1772
 8570ION    NA+12770   3.516   3.869   8.458 -0.2290 -0.0646 -0.0880
 8571ION    NA+12771   5.720   4.072   0.972 -0.0271  0.0908 -0.0396
 8572ION    NA+12772   9.397   5.409   1.130  0.0630 -0.1359  0.0578
 8573ION    NA+12773   3.836   7.305  13.348  0.1834  0.0114 -0.0738
 8574ION    NA+12774   6.957   0.621   3.228  0.3740  0.1474 -0.0671
 8575ION    NA+12775   1.348  10.391   2.265 -0.2975  0.0465  0.3022
 8576ION    NA+12776   5.585   2.723  10.628 -0.0806 -0.0864 -0.1262
 8577ION    NA+12777   8.427   1.383  12.387 -0.2156  0.0561 -0.0484
 8578ION    NA+12778   7.773   5.299   0.531 -0.2319  0.0396  0.2362
 8579ION    NA+12779   1.774   7.480  12.486  0.2008 -0.0144  0.1926
 8580ION    NA+12780  10.218   7.478   2.834  0.0125 -0.2852  0.0113
 8581ION    NA+12781   7.378   4.245  13.406  0.4224  0.0522  0.0275
 8582ION    NA+12782   5.316   4.324   2.977 -0.1575  0.1861  0.3520
 8583ION    NA+12783   6.825   6.298   2.095  0.2733 -0.0352 -0.2222
 8584ION    NA+12784   8.588   0.940   4.459  0.1112  0.2380 -0.0284
 8585ION    NA+12785   0.038   9.265   1.738  0.0732 -0.1643  0.0905
 8586ION    NA+12786   1.820   9.319   0.935 -0.3402 -0.1049 -0.1505
 8587ION    NA+12787   3.650   6.476   0.179  0.1588 -0.2396 -0.0004
 8588ION    NA+12788   6.767   9.901  10.897  0.2078 -0.1058 -0.2439
 8589ION    NA+12789   4.757   3.978   2.012  0.0220  0.1308 -0.0152
 8590ION    NA+12790   6.098   9.895   4.903  0.2253  0.1862  0.0663
 8591ION    NA+12791   3.532   8.153   5.146 -0.2756  0.0047  0.1067
 8592ION    NA+12792   1.540   1.452   5.107  0.3136 -0.2183  0.0466
 8593ION    NA+12793  10.401   9.491  10.151  0.2743  0.0504 -0.4206
 8594ION    NA+12794   3.814   4.691   0.341  0.2217 -0.3351 -0.0343
 8595ION    NA+12795   3.607   2.169  12.881 -0.0722 -0.0062  0.2528
 8596ION    NA+12796  10.331   6.986  12.296  0.1617 -0.3175  0.0389
 8597ION    NA+12797   5.899   9.871   1.668 -0.0582 -0.0404 -0.0770
 8598ION    NA+12798   3.094   1.931  10.044 -0.2084 -0.4866 -0.0248
 8599ION    NA+12799   6.227   7.884   3.382 -0.3446  0.2422 -0.2456
 8600ION    NA+12800   5.220   0.548  12.386 -0.0373  0.3051  0.0163
 8601ION    NA+12801   7.665   0.240  10.184  0.1204 -0.3165 -0.1598
 8602ION    NA+12802   6.278   0.504  10.347 -0.1011 -0.3088 -0.0889
 8603ION    NA+12803   8.400   7.961   3.085  0.2009 -0.0474  0.0356
 8604ION    NA+12804  10.453  10.118   0.297 -0.3770  0.2590  0.3008
 8605ION    NA+12805   5.851   5.156   9.429  0.0101  0.1317 -0.2304
 8606ION    NA+12806   8.533   4.827   2.654 -0.2486  0.0556  0.2681
 8607ION    NA+12807   3.074   3.862   0.344 -0.0074 -0.0914  0.0257
 8608ION    NA+12808  10.138   9.109   0.143  0.2952 -0.2228  0.0875
 8609ION    NA+12809   0.195   4.683   4.912 -0.3717 -0.2394 -0.0300
 8610ION    NA+12810   2.215   4.505   0.926  0.0971  0.0743  0.0530
 8611ION    NA+12811  10.213   9.786   3.673 -0.1363  0.1074 -0.1222
 8612ION    NA+12812   9.345   5.123   0.226  0.3020  0.0362 -0.0655
 8613ION    NA+12813   8.477   6.254   1.759  0.2533 -0.3898 -0.4830
 8614ION    NA+12814   7.554   1.054   8.699  0.2202  0.1731  0.1388
 8615ION    NA+12815   2.299   2.594  11.710 -0.0249 -0.1065  0.0751
 8616ION    NA+12816   9.798   9.087  10.506  0.1197  0.2590 -0.0917
 8617ION    NA+12817   7.597   7.056   3.985  0.0379 -0.5711  0.0326
 8618ION    NA+12818   1.278   9.388   1.835  0.0446  0.0556 -0.0299
 8619ION    NA+12819   7.108   9.603   4.575 -0.0426  0.5264  0.0237
 8620ION    NA+12820   8.724   5.461   4.341 -0.1455  0.3027  0.0864
 8621ION    NA+12821   5.584   5.650  13.327  0.1496 -0.0779  0.0339
 8622ION    NA+12822   3.474   0.074   5.302 -0.2174  0.3231 -0.0816
 8623ION    NA+12823   7.139  10.030   2.939 -0.0766  0.0205  0.0452
 8624ION    NA+12824   8.394   5.113  12.096  0.2108  0.0581  0.1366
 8625ION    CL-12825   3.186   3.348   0.205  0.0051 -0.1243 -0.1632
 8626ION    CL-12826   5.623   1.987  11.376 -0.2221 -0.5325  0.0011
 8627ION    CL-12827   0.758   8.517  10.380  0.1584  0.3801  0.0886
 8628ION    CL-12828   5.758   2.248   1.479 -0.2789 -0.3091  0.1819
 8629ION    CL-12829   6.267   4.943   9.262 -0.2631  0.1656  0.0642
 8630ION    CL-12830   5.625   3.482   0.340 -0.2209  0.3580 -0.1100
 8631ION    CL-12831   2.992   5.967  12.929  0.0586  0.1550  0.1755
 8632ION    CL-12832   0.312   8.259  12.494 -0.0599  0.1067 -0.2253
 8633ION    CL-12833   8.383   1.314  12.867 -0.0065 -0.0296 -0.1262
 8634ION    CL-12834   7.732   5.934  13.398 -0.1445 -0.5255  0.1539
 8635ION    CL-12835   0.550   1.773   4.194  0.0576  0.1793 -0.1619
 8636ION    CL-12836   7.385   4.068   3.643 -0.1958  0.2300 -0.2146
 8637ION    CL-12837   7.557  10.379   9.823  0.0627  0.0810  0.0803
 8638ION    CL-12838   7.724   4.411   2.116 -0.1778 -0.0910  0.0574
 8639ION    CL-12839   0.909  10.213   3.058  0.0184  0.1531  0.4128
 8640ION    CL-12840   1.493   9.837   2.143  0.0675  0.2017  0.2765
 8641ION    CL-12841   5.065   7.413  12.943 -0.1131  0.2084  0.1657
 8642ION    CL-12842   6.241   4.329  10.795  0.1942 -0.0987 -0.0969
 8643ION    CL-12843   8.856   0.124  12.928  0.0237 -0.2530  0.0474
 8644ION    CL-12844   5.269   4.184   2.444  0.1151 -0.0154 -0.2027
 8645ION    CL-12845   6.382   2.791   9.470  0.3218 -0.0150  0.1284
 8646ION    CL-12846   6.757   2.061  11.045 -0.1748 -0.3044  0.2764
 8647ION    CL-12847   5.844   0.600  10.203  0.1244 -0.0833 -0.0634
 8648ION    CL-12848   5.743   8.265   1.071  0.2806  0.0415  0.2310
 8649ION    CL-12849  10.245   7.350   1.830 -0.1558 -0.0869 -0.2535
 8650ION    CL-12850   5.668   4.969   1.879  0.0912 -0.4113 -0.1385
 8651ION    CL-12851   7.342   6.590   3.023  0.1885 -0.3608  0.0087
 8652ION    CL-12852   7.123   0.023   2.981  0.0236 -0.2742 -0.1423
 8653ION    CL-12853   4.026   4.875   8.960 -0.1947 -0.2640 -0.0780
 8654ION    CL-12854   4.989   8.573  12.870 -0.2429 -0.0161 -0.0821
 8655ION    CL-12855   3.906   2.275  12.314 -0.4159 -0.0920 -0.2290
 8656ION    CL-12856   9.957   9.564   2.238  0.0346  0.2358  0.0496
 8657ION    CL-12857   9.353   3.178  11.907  0.0241 -0.0272  0.0114
 8658ION    CL-12858   4.874   0.834  12.548 -0.1163  0.0301 -0.3616
 8659ION    CL-12859   2.091   4.039   9.081 -0.0988  0.1351 -0.1780
 8660ION    CL-12860   5.349   5.650   9.380  0.1863 -0.2929  0.2564
 8661ION    CL-12861   1.885   2.381   9.359 -0.0459  0.1628  0.1068
 8662ION    CL-12862   4.235   4.517   0.621 -0.1307  0.1585  0.1469
 8663ION    CL-12863   3.627   5.983   4.289 -0.0717 -0.2062 -0.2727
 8664ION    CL-12864   2.149   0.277   4.276 -0.1844  0.1190  0.0764
 8665ION    CL-12865   7.270   5.565  10.001  0.2749 -0.0988  0.0838
 8666ION    CL-12866  10.296   8.946  10.319 -0.3834 -0.1881 -0.0796
 8667ION    CL-12867   8.942   1.159   9.904  0.1967  0.4336 -0.1138
 8668ION    CL-12868   2.868   5.689   9.616  0.2148  0.1747  0.0008
 8669ION    CL-12869   6.562   1.424   4.812 -0.2019  0.1193  0.1881
 8670ION    CL-12870  10.320   9.343  10.648 -0.0254  0.0006  0.0040
 8671ION    CL-12871   3.457   1.078   0.904  0.0512  0.2473  0.0265
 8672ION    CL-12872   7.569   8.491   3.610 -0.0313  0.0505  0.2657
 8673ION    CL-12873  10.293   5.984   3.758 -0.1029 -0.0719  0.2414
 8674ION    CL-12874   1.385   5.198   3.306 -0.1806  0.0321  0.0963
 8675ION    CL-12875   8.210   0.985   3.960  0.1850  0.0225  0.1188
 8676ION    CL-12876   6.929   9.406  12.321  0.2364 -0.3636  0.1624
 8677ION    CL-12877   0.012   0.457   9.801  0.3243  0.3020  0.0781
 8678ION    CL-12878   6.573   6.034   2.715 -0.1026  0.2150  0.0661
 8679ION    CL-12879  10.212   3.530   9.489  0.0576 -0.1704  0.0547
 8680ION    CL-12880   0.121   1.369  10.719 -0.0101 -0.1908  0.0882
 8681ION    CL-12881   5.874   7.450   9.131 -0.2610 -0.0680 -0.0116
 8682ION    CL-12882   9.636   3.256   3.717  0.0382  0.0151  0.2238
 8683ION    CL-12883   2.087   3.329  12.458  0.2468  0.0590  0.3420
 8684ION    CL-12884   2.704   3.097  13.042 -0.1192  0.1099  0.3115
 8685ION    CL-12885   7.560   3.928  13.062  0.5638  0.1096 -0.0573
 8686ION    CL-12886   0.097  10.052   0.760  0.2331  0.0997 -0.3907
 8687ION    CL-12887   7.851  10.253  10.209 -0.1238 -0.2239 -0.2962
 8688ION    CL-12888   7.751   6.516   9.811 -0.0009  0.1214 -0.0760
 8689ION    CL-12889   6.380   9.815   1.546  0.0904  0.0263  0.3120
 8690ION    CL-12890  10.158   7.348  10.814  0.3207  0.0134  0.1711
 8691ION    CL-12891   1.927   9.193   0.450  0.1336 -0.0012 -0.0436
 8692ION    CL-12892  10.372  10.323  11.751 -0.0751 -0.0299 -0.0093
 8693ION    CL-12893   4.800   6.848   2.938 -0.3596 -0.1697 -0.0846
 8694ION    CL-12894   6.453   7.076   3.368 -0.2278 -0.0828 -0.0958
 8695ION    CL-12895   8.754   5.247   0.308  0.1188  0.2249 -0.1518
 8696ION    CL-12896   4.630   3.544   2.241  0.1271  0.0161 -0.0226
 8697ION    CL-12897   5.611   4.172   3.899 -0.0404 -0.0355  0.3433
 8698ION    CL-12898   1.659   9.660   3.240 -0.0548  0.2322 -0.1683
 8699ION    CL-12899   6.090   4.300   1.231 -0.0024  0.0947  0.1810
 8700ION    CL-12900   9.486  10.300   2.685 -0.0509  0.3023  0.0085
 8701ION    CL-12901  10.428   3.290   9.127  0.0559 -0.1477  0.1259
 8702ION    CL-12902   4.436   1.678  11.841 -0.3272 -0.1719 -0.1278
 8703ION    CL-12903   8.966   3.978  11.773  0.0284 -0.2521 -0.1565
 8704ION    CL-12904   0.051   5.453   9.902 -0.1228  0.1668  0.2098
 8705ION    CL-12905   6.836  10.466  10.986  0.0416 -0.2035 -0.1383
 8706ION    CL-12906   9.620   7.692  12.965 -0.1193 -0.0942  0.3105
 8707ION    CL-12907   0.764   8.236   3.505 -0.2933  0.1194  0.0621
 8708ION    CL-12908   2.809   1.792   9.679  0.4236  0.4639 -0.0141
 8709ION    CL-12909   8.979   4.979   2.590  0.0271 -0.1654  0.1835
 8710ION    CL-12910   8.206   0.272  11.562  0.1388  0.0628 -0.2043
 8711ION    CL-12911   5.504   8.832   1.466  0.1201 -0.1134 -0.1821
 8712ION    CL-12912   5.266   5.812   3.709  0.0651 -0.3470  0.0813
 8713ION    CL-12913   3.902   6.806   0.486  0.2809 -0.0445  0.0114
 8714ION    CL-12914   0.392   4.596   1.091 -0.4435 -0.4474  0.2207
  10.48519  10.48519  13.45914
