Protein in INSANE! Membrane UpperLeaflet>POPC=1.0 LowerLeaflet>POPC=1.0
12676
    1AU     AUC    1   5.753   5.847   6.003
    1AU     AUC    2   5.999   5.833   5.855
    1AU     AUC    3   5.998   5.834   6.160
    1AU     AUC    4   5.509   5.863   5.849
    1AU     AUC    5   5.512   5.864   6.152
    1AU     AUC    6   5.616   6.099   6.001
    1AU     AUC    7   5.915   6.084   6.005
    1AU     AUC    8   5.591   5.613   6.002
    1AU     AUC    9   5.895   5.594   6.001
    1AU     AUC   10   5.746   5.696   6.248
    1AU     AUC   11   5.760   5.999   6.250
    1AU     AUC   12   5.747   5.698   5.756
    1AU     AUC   13   5.764   5.998   5.758
    1AU     AUC   14   6.235   5.818   5.721
    1AU     AUC   15   6.240   5.814   6.030
    1AU     AUC   16   6.234   5.823   6.312
    1AU     AUC   17   5.269   5.868   5.695
    1AU     AUC   18   5.263   5.899   6.009
    1AU     AUC   19   5.284   5.879   6.306
    1AU     AUC   20   5.493   6.347   5.996
    1AU     AUC   21   5.782   6.330   5.994
    1AU     AUC   22   6.077   6.308   6.012
    1AU     AUC   23   5.430   5.383   6.004
    1AU     AUC   24   5.733   5.364   6.010
    1AU     AUC   25   6.029   5.341   6.003
    1AU     AUC   26   5.744   5.545   6.472
    1AU     AUC   27   5.752   5.842   6.504
    1AU     AUC   28   5.764   6.152   6.483
    1AU     AUC   29   5.738   5.539   5.518
    1AU     AUC   30   5.758   5.844   5.519
    1AU     AUC   31   5.773   6.139   5.513
    1AU     AUC   32   5.987   5.680   6.387
    1AU     AUC   33   5.983   5.975   6.419
    1AU     AUC   34   5.997   5.682   5.609
    1AU     AUC   35   6.019   5.973   5.620
    1AU     AUC   36   5.501   5.698   6.395
    1AU     AUC   37   5.529   6.009   6.400
    1AU     AUC   38   5.486   5.712   5.610
    1AU     AUC   39   5.524   6.005   5.599
    1AU     AUC   40   6.161   6.068   5.868
    1AU     AUC   41   6.148   6.072   6.166
    1AU     AUC   42   5.362   6.115   5.858
    1AU     AUC   43   5.363   6.120   6.153
    1AU     AUC   44   6.138   5.585   5.856
    1AU     AUC   45   6.128   5.587   6.154
    1AU     AUC   46   5.351   5.632   5.853
    1AU     AUC   47   5.349   5.630   6.144
    1AU     AUC   48   5.626   6.261   6.239
    1AU     AUC   49   5.929   6.235   6.247
    1AU     AUC   50   5.584   5.466   6.244
    1AU     AUC   51   5.897   5.432   6.233
    1AU     AUC   52   5.632   6.240   5.744
    1AU     AUC   53   5.938   6.237   5.754
    1AU     AUC   54   5.586   5.465   5.764
    1AU     AUC   55   5.873   5.442   5.742
    1AU    AUSL   56   6.193   5.845   6.587
    1AU    AUSL   57   6.001   5.396   6.497
    1AU     AUL   58   6.453   5.666   6.409
    1AU       S   59   6.168   5.095   6.760
    1AU     LIG   60   6.165   4.661   6.913
    1AU     LIG   61   6.352   4.403   7.265
    1AU     LIG   62   6.602   4.158   7.587
    1AU     LIG   63   6.600   3.840   7.949
    1AU     LIG   64   6.717   3.594   8.345
    1AU     LIG   65   7.096   3.491   8.609
    1AU       S   66   6.382   5.758   6.989
    1AU     LIG   67   6.463   5.710   7.440
    1AU     LIG   68   6.658   5.431   7.776
    1AU     LIG   69   6.986   5.335   8.121
    1AU     LIG   70   7.347   5.387   8.444
    1AU     LIG   71   7.617   5.589   8.787
    1AU     LIG   72   7.936   5.547   9.135
    1AU    AUSL   73   5.832   5.557   6.674
    1AU    AUSL   74   5.522   6.022   6.630
    1AU     AUL   75   5.775   5.851   6.799
    1AU       S   76   6.083   5.542   7.096
    1AU     LIG   77   6.301   5.215   7.357
    1AU     LIG   78   6.351   5.002   7.792
    1AU     LIG   79   6.297   4.851   8.262
    1AU     LIG   80   6.305   4.751   8.744
    1AU     LIG   81   6.424   4.662   9.197
    1AU     LIG   82   6.586   4.851   9.597
    1AU       S   83   5.314   6.058   7.084
    1AU     LIG   84   5.205   6.073   7.528
    1AU     LIG   85   5.077   5.843   7.917
    1AU     LIG   86   5.050   5.794   8.388
    1AU     LIG   87   5.057   6.028   8.817
    1AU     LIG   88   4.926   6.276   9.211
    1AU     LIG   89   4.667   6.455   9.572
    1AU    AUSL   90   5.964   6.034   6.667
    1AU    AUSL   91   6.258   6.087   6.461
    1AU     AUL   92   6.000   5.776   6.642
    1AU       S   93   6.158   6.010   7.113
    1AU     LIG   94   6.211   6.291   7.480
    1AU     LIG   95   6.443   6.499   7.836
    1AU     LIG   96   6.567   6.681   8.261
    1AU     LIG   97   6.551   6.828   8.726
    1AU     LIG   98   6.621   6.882   9.203
    1AU     LIG   99   6.576   6.818   9.673
    1AU       S  100   6.599   6.144   6.721
    1AU     LIG  101   7.016   6.166   6.873
    1AU     LIG  102   7.213   6.372   7.242
    1AU     LIG  103   7.434   6.668   7.553
    1AU     LIG  104   7.744   6.783   7.910
    1AU     LIG  105   8.163   6.848   8.165
    1AU     LIG  106   8.541   6.982   8.443
    1AU    AUSL  107   6.181   5.919   5.446
    1AU    AUSL  108   6.087   6.192   5.504
    1AU     AUL  109   5.878   6.254   5.272
    1AU       S  110   6.358   5.870   5.015
    1AU     LIG  111   6.538   5.601   4.668
    1AU     LIG  112   6.676   5.417   4.251
    1AU     LIG  113   6.901   5.394   3.828
    1AU     LIG  114   7.345   5.443   3.609
    1AU     LIG  115   7.662   5.654   3.303
    1AU     LIG  116   7.823   5.766   2.855
    1AU       S  117   6.438   6.351   5.207
    1AU     LIG  118   6.676   6.496   4.820
    1AU     LIG  119   6.926   6.633   4.442
    1AU     LIG  120   7.155   6.904   4.156
    1AU     LIG  121   7.284   7.156   3.798
    1AU     LIG  122   7.488   7.472   3.547
    1AU     LIG  123   7.411   7.920   3.466
    1AU    AUSL  124   5.892   5.701   5.325
    1AU    AUSL  125   6.249   5.512   5.686
    1AU     AUL  126   6.262   5.662   5.477
    1AU       S  127   6.445   5.034   5.377
    1AU     LIG  128   6.686   4.810   5.035
    1AU     LIG  129   6.916   4.475   4.789
    1AU     LIG  130   7.131   4.296   4.407
    1AU     LIG  131   7.482   4.431   4.097
    1AU     LIG  132   7.900   4.497   3.882
    1AU     LIG  133   8.227   4.268   3.617
    1AU       S  134   6.058   5.573   4.958
    1AU     LIG  135   6.177   5.234   4.664
    1AU     LIG  136   6.238   5.145   4.207
    1AU     LIG  137   6.357   5.134   3.739
    1AU     LIG  138   6.363   4.958   3.277
    1AU     LIG  139   6.455   4.979   2.801
    1AU     LIG  140   6.698   4.994   2.375
    1AU    AUSL  141   5.935   5.985   5.339
    1AU    AUSL  142   5.578   5.652   5.328
    1AU     AUL  143   5.739   6.043   5.102
    1AU       S  144   5.330   5.528   4.959
    1AU     LIG  145   5.342   5.288   4.530
    1AU     LIG  146   5.223   5.131   4.087
    1AU     LIG  147   5.064   4.844   3.726
    1AU     LIG  148   5.015   4.731   3.261
    1AU     LIG  149   4.796   4.881   2.864
    1AU     LIG  150   4.668   5.102   2.459
    1AU       S  151   6.126   5.782   4.937
    1AU     LIG  152   6.072   5.698   4.457
    1AU     LIG  153   6.266   5.627   4.024
    1AU     LIG  154   6.466   5.617   3.596
    1AU     LIG  155   6.519   5.814   3.171
    1AU     LIG  156   6.668   6.166   2.893
    1AU     LIG  157   6.703   6.425   2.509
    1AU    AUSL  158   5.325   5.835   6.569
    1AU    AUSL  159   5.529   6.298   6.509
    1AU     AUL  160   5.706   6.122   6.760
    1AU       S  161   5.103   5.885   6.972
    1AU     LIG  162   4.854   5.743   7.357
    1AU     LIG  163   4.730   5.488   7.761
    1AU     LIG  164   4.518   5.326   8.185
    1AU     LIG  165   4.185   5.297   8.567
    1AU     LIG  166   3.974   5.455   8.990
    1AU     LIG  167   3.627   5.762   9.156
    1AU       S  168   5.372   6.523   6.846
    1AU     LIG  169   5.309   6.557   7.310
    1AU     LIG  170   5.085   6.826   7.639
    1AU     LIG  171   4.875   6.939   8.067
    1AU     LIG  172   4.753   7.209   8.455
    1AU     LIG  173   4.574   7.580   8.720
    1AU     LIG  174   4.341   8.000   8.803
    1AU    AUSL  175   5.569   5.702   6.666
    1AU    AUSL  176   5.255   5.599   6.385
    1AU     AUL  177   5.290   5.475   6.676
    1AU       S  178   4.832   5.252   6.431
    1AU     LIG  179   4.483   5.007   6.650
    1AU     LIG  180   4.158   4.759   6.905
    1AU     LIG  181   3.824   4.503   7.125
    1AU     LIG  182   3.614   4.230   7.451
    1AU     LIG  183   3.318   4.240   7.826
    1AU     LIG  184   3.089   4.409   8.221
    1AU       S  185   5.363   5.755   7.120
    1AU     LIG  186   5.286   5.542   7.545
    1AU     LIG  187   5.174   5.324   7.962
    1AU     LIG  188   4.958   5.028   8.267
    1AU     LIG  189   4.867   4.757   8.648
    1AU     LIG  190   4.852   4.704   9.118
    1AU     LIG  191   4.719   4.903   9.523
    1AU    AUSL  192   5.384   5.916   5.410
    1AU    AUSL  193   5.428   5.476   5.520
    1AU     AUL  194   5.220   5.712   5.452
    1AU       S  195   5.234   5.852   4.952
    1AU     LIG  196   5.006   5.673   4.562
    1AU     LIG  197   4.815   5.425   4.187
    1AU     LIG  198   4.630   5.175   3.802
    1AU     LIG  199   4.262   5.087   3.475
    1AU     LIG  200   3.986   5.194   3.085
    1AU     LIG  201   3.821   5.503   2.752
    1AU       S  202   5.099   5.156   5.321
    1AU     LIG  203   4.867   4.734   5.277
    1AU     LIG  204   4.452   4.545   5.118
    1AU     LIG  205   4.224   4.269   4.788
    1AU     LIG  206   4.190   4.120   4.329
    1AU     LIG  207   4.285   3.875   3.917
    1AU     LIG  208   4.157   3.563   3.578
    1AU    AUSL  209   5.659   5.917   5.339
    1AU    AUSL  210   5.276   6.138   5.570
    1AU     AUL  211   5.593   6.204   5.286
    1AU       S  212   5.008   6.272   5.235
    1AU     LIG  213   4.679   6.481   4.946
    1AU     LIG  214   4.548   6.733   4.548
    1AU     LIG  215   4.473   6.880   4.087
    1AU     LIG  216   4.152   7.028   3.765
    1AU     LIG  217   3.694   7.158   3.706
    1AU     LIG  218   3.371   7.476   3.572
    1AU       S  219   5.524   5.635   4.929
    1AU     LIG  220   5.519   5.764   4.487
    1AU     LIG  221   5.264   5.678   4.092
    1AU     LIG  222   5.101   5.846   3.658
    1AU     LIG  223   5.104   6.106   3.236
    1AU     LIG  224   5.092   6.251   2.768
    1AU     LIG  225   4.912   6.356   2.328
    1AU    AUSL  226   6.352   6.218   5.988
    1AU    AUSL  227   6.329   6.071   5.648
    1AU     AUL  228   6.198   6.532   5.892
    1AU       S  229   6.651   6.187   5.362
    1AU     LIG  230   7.021   6.233   5.090
    1AU     LIG  231   7.257   6.341   4.700
    1AU     LIG  232   7.494   6.562   4.360
    1AU     LIG  233   7.916   6.558   4.131
    1AU     LIG  234   8.288   6.800   3.965
    1AU     LIG  235   8.416   7.075   3.581
    1AU       S  236   6.790   6.355   6.011
    1AU     LIG  237   7.266   6.419   6.108
    1AU     LIG  238   7.754   6.457   6.021
    1AU     LIG  239   8.231   6.597   5.979
    1AU     LIG  240   8.594   6.949   6.027
    1AU     LIG  241   8.912   7.341   6.101
    1AU     LIG  242   9.202   7.724   6.241
    1AU    AUSL  243   6.433   5.954   5.905
    1AU    AUSL  244   6.454   5.765   6.126
    1AU     AUL  245   6.495   5.761   5.637
    1AU       S  246   6.878   6.065   5.902
    1AU     LIG  247   7.370   6.034   5.792
    1AU     LIG  248   7.863   6.049   5.722
    1AU     LIG  249   8.344   6.104   5.664
    1AU     LIG  250   8.820   6.101   5.661
    1AU     LIG  251   9.247   6.329   5.648
    1AU     LIG  252   9.657   6.582   5.493
    1AU       S  253   6.906   5.549   6.105
    1AU     LIG  254   7.216   5.231   6.274
    1AU     LIG  255   7.576   4.894   6.257
    1AU     LIG  256   8.012   4.650   6.224
    1AU     LIG  257   8.454   4.437   6.250
    1AU     LIG  258   8.854   4.320   6.471
    1AU     LIG  259   9.171   4.395   6.830
    1AU    AUSL  260   6.394   6.037   6.202
    1AU    AUSL  261   6.205   6.275   6.265
    1AU     AUL  262   6.261   6.469   6.177
    1AU       S  263   6.586   6.352   6.585
    1AU     LIG  264   6.840   6.647   6.873
    1AU     LIG  265   7.141   6.881   7.174
    1AU     LIG  266   7.466   7.200   7.351
    1AU     LIG  267   7.695   7.651   7.349
    1AU     LIG  268   7.870   8.121   7.396
    1AU     LIG  269   8.091   8.502   7.607
    1AU       S  270   6.839   6.123   6.230
    1AU     LIG  271   7.249   5.927   6.285
    1AU     LIG  272   7.714   5.980   6.214
    1AU     LIG  273   8.181   6.104   6.150
    1AU     LIG  274   8.673   6.167   6.142
    1AU     LIG  275   9.155   6.304   6.167
    1AU     LIG  276   9.509   6.567   6.403
    1AU    AUSL  277   5.253   6.386   6.017
    1AU    AUSL  278   5.292   6.110   6.462
    1AU     AUL  279   5.085   6.278   6.253
    1AU       S  280   5.062   6.355   6.783
    1AU     LIG  281   4.863   6.327   7.222
    1AU     LIG  282   4.671   6.522   7.642
    1AU     LIG  283   4.393   6.749   7.992
    1AU     LIG  284   3.999   6.826   8.286
    1AU     LIG  285   3.571   7.050   8.395
    1AU     LIG  286   3.172   7.289   8.534
    1AU       S  287   4.652   6.462   6.078
    1AU     LIG  288   4.535   6.929   6.173
    1AU     LIG  289   4.341   7.388   6.115
    1AU     LIG  290   4.021   7.766   6.152
    1AU     LIG  291   3.586   7.963   6.057
    1AU     LIG  292   3.128   8.147   6.136
    1AU     LIG  293   2.734   8.136   6.432
    1AU    AUSL  294   5.086   6.016   5.774
    1AU    AUSL  295   5.353   6.364   5.747
    1AU     AUL  296   5.039   6.339   5.789
    1AU       S  297   4.590   6.104   5.854
    1AU     LIG  298   4.380   6.494   5.620
    1AU     LIG  299   3.975   6.704   5.414
    1AU     LIG  300   3.485   6.777   5.309
    1AU     LIG  301   3.025   6.909   5.181
    1AU     LIG  302   2.569   6.722   5.134
    1AU     LIG  303   2.102   6.868   5.130
    1AU       S  304   4.999   6.584   5.350
    1AU     LIG  305   4.823   6.953   5.106
    1AU     LIG  306   4.858   7.287   4.774
    1AU     LIG  307   4.585   7.676   4.763
    1AU     LIG  308   4.448   8.094   4.563
    1AU     LIG  309   4.277   8.507   4.399
    1AU     LIG  310   3.900   8.805   4.374
    1AU    AUSL  311   5.086   5.993   6.259
    1AU    AUSL  312   5.055   5.747   5.879
    1AU     AUL  313   5.114   6.143   6.000
    1AU       S  314   4.625   5.578   5.916
    1AU     LIG  315   4.300   5.334   6.265
    1AU     LIG  316   3.783   5.327   6.324
    1AU     LIG  317   3.287   5.203   6.262
    1AU     LIG  318   2.877   5.039   5.978
    1AU     LIG  319   2.387   5.082   5.870
    1AU     LIG  320   1.974   4.972   5.634
    1AU       S  321   4.616   6.087   6.266
    1AU     LIG  322   4.322   6.415   6.469
    1AU     LIG  323   3.908   6.588   6.648
    1AU     LIG  324   3.442   6.695   6.745
    1AU     LIG  325   2.998   6.848   6.855
    1AU     LIG  326   2.567   7.041   6.869
    1AU     LIG  327   2.147   6.859   6.783
    1AU    AUSL  328   6.304   5.378   5.944
    1AU    AUSL  329   6.198   5.584   6.476
    1AU     AUL  330   6.401   5.547   6.159
    1AU       S  331   6.698   5.161   6.021
    1AU     LIG  332   6.924   4.807   6.194
    1AU     LIG  333   7.270   4.537   6.044
    1AU     LIG  334   7.688   4.323   5.983
    1AU     LIG  335   8.128   4.140   5.996
    1AU     LIG  336   8.510   3.917   6.187
    1AU     LIG  337   8.874   3.804   6.524
    1AU       S  338   6.352   5.286   6.768
    1AU     LIG  339   6.587   4.927   7.028
    1AU     LIG  340   6.837   4.554   7.208
    1AU     LIG  341   7.109   4.257   7.471
    1AU     LIG  342   7.464   4.186   7.795
    1AU     LIG  343   7.840   4.177   8.107
    1AU     LIG  344   8.252   4.126   8.334
    1AU    AUSL  345   6.415   5.640   5.880
    1AU    AUSL  346   6.113   5.276   5.744
    1AU     AUL  347   6.471   5.481   5.570
    1AU       S  348   6.813   5.360   5.920
    1AU     LIG  349   7.181   5.033   5.806
    1AU     LIG  350   7.617   4.801   5.755
    1AU     LIG  351   8.052   4.587   5.718
    1AU     LIG  352   8.483   4.385   5.709
    1AU     LIG  353   8.886   4.402   5.480
    1AU     LIG  354   9.253   4.659   5.546
    1AU       S  355   6.266   4.933   5.504
    1AU     LIG  356   6.401   4.500   5.327
    1AU     LIG  357   6.665   4.155   5.109
    1AU     LIG  358   6.895   3.790   4.883
    1AU     LIG  359   7.103   3.334   4.852
    1AU     LIG  360   7.508   3.081   4.746
    1AU     LIG  361   7.979   3.100   4.614
    1AU    AUSL  362   5.162   5.507   5.985
    1AU    AUSL  363   5.209   5.569   5.695
    1AU     AUL  364   4.996   5.802   5.604
    1AU       S  365   4.889   5.267   5.495
    1AU     LIG  366   4.499   5.086   5.308
    1AU     LIG  367   4.108   4.936   5.107
    1AU     LIG  368   3.915   4.666   4.793
    1AU     LIG  369   3.741   4.401   4.463
    1AU     LIG  370   3.416   4.375   4.114
    1AU     LIG  371   3.140   4.362   3.723
    1AU       S  372   4.751   5.391   5.948
    1AU     LIG  373   4.338   5.194   5.780
    1AU     LIG  374   3.984   5.017   5.974
    1AU     LIG  375   3.640   4.828   6.232
    1AU     LIG  376   3.180   4.683   6.198
    1AU     LIG  377   2.754   4.469   6.067
    1AU     LIG  378   2.527   4.062   5.921
    1AU    AUSL  379   5.089   5.723   6.158
    1AU    AUSL  380   5.286   5.365   6.231
    1AU     AUL  381   5.072   5.730   6.425
    1AU       S  382   5.000   5.051   6.221
    1AU     LIG  383   4.663   4.759   6.240
    1AU     LIG  384   4.281   4.576   6.429
    1AU     LIG  385   4.077   4.269   6.729
    1AU     LIG  386   3.855   3.986   7.050
    1AU     LIG  387   3.604   3.684   7.339
    1AU     LIG  388   3.283   3.325   7.459
    1AU       S  389   4.664   5.631   6.069
    1AU     LIG  390   4.140   5.653   5.911
    1AU     LIG  391   3.696   5.434   5.823
    1AU     LIG  392   3.207   5.488   5.853
    1AU     LIG  393   2.851   5.483   6.190
    1AU     LIG  394   2.435   5.271   6.352
    1AU     LIG  395   2.001   5.114   6.496
    1AU    AUSL  396   5.782   6.435   6.383
    1AU    AUSL  397   5.361   6.330   6.284
    1AU     AUL  398   5.428   6.551   6.187
    1AU       S  399   5.240   6.608   6.656
    1AU     LIG  400   4.976   6.819   7.020
    1AU     LIG  401   4.855   7.183   7.320
    1AU     LIG  402   4.679   7.630   7.417
    1AU     LIG  403   4.625   8.117   7.431
    1AU     LIG  404   4.337   8.498   7.477
    1AU     LIG  405   3.899   8.583   7.642
    1AU       S  406   5.709   6.846   6.554
    1AU     LIG  407   5.915   7.133   6.838
    1AU     LIG  408   6.011   7.568   6.980
    1AU     LIG  409   6.099   7.889   7.322
    1AU     LIG  410   6.065   8.122   7.748
    1AU     LIG  411   5.918   8.410   8.107
    1AU     LIG  412   5.943   8.828   8.326
    1AU    AUSL  413   5.696   6.528   6.104
    1AU    AUSL  414   5.900   6.532   5.877
    1AU     AUL  415   5.408   6.609   5.901
    1AU       S  416   5.676   6.991   6.260
    1AU     LIG  417   5.595   7.382   6.516
    1AU     LIG  418   5.656   7.823   6.683
    1AU     LIG  419   5.488   8.265   6.797
    1AU     LIG  420   5.371   8.732   6.916
    1AU     LIG  421   5.345   9.203   7.114
    1AU     LIG  422   5.167   9.631   7.259
    1AU       S  423   5.993   7.012   5.777
    1AU     LIG  424   6.241   7.380   5.565
    1AU     LIG  425   6.402   7.781   5.319
    1AU     LIG  426   6.732   8.168   5.248
    1AU     LIG  427   6.853   8.645   5.227
    1AU     LIG  428   6.905   9.114   5.147
    1AU     LIG  429   6.891   9.593   5.126
    1AU    AUSL  430   5.974   6.508   6.160
    1AU    AUSL  431   6.027   6.264   6.503
    1AU     AUL  432   6.155   6.588   6.427
    1AU       S  433   6.385   6.325   6.808
    1AU     LIG  434   6.651   6.323   7.218
    1AU     LIG  435   6.873   6.611   7.546
    1AU     LIG  436   7.097   6.833   7.918
    1AU     LIG  437   7.235   7.094   8.307
    1AU     LIG  438   7.336   7.490   8.577
    1AU     LIG  439   7.442   7.881   8.838
    1AU       S  440   5.923   7.007   6.282
    1AU     LIG  441   6.106   7.444   6.471
    1AU     LIG  442   6.338   7.854   6.670
    1AU     LIG  443   6.657   8.261   6.716
    1AU     LIG  444   6.949   8.688   6.720
    1AU     LIG  445   7.004   9.150   6.877
    1AU     LIG  446   6.805   9.591   6.861
    1AU    AUSL  447   5.750   5.269   6.401
    1AU    AUSL  448   6.198   5.379   6.267
    1AU     AUL  449   6.053   5.163   6.238
    1AU       S  450   5.706   4.859   6.577
    1AU     LIG  451   5.412   4.551   6.774
    1AU     LIG  452   5.238   4.134   6.754
    1AU     LIG  453   5.262   3.670   6.868
    1AU     LIG  454   5.371   3.301   7.153
    1AU     LIG  455   5.383   3.082   7.595
    1AU     LIG  456   5.442   2.891   8.045
    1AU       S  457   6.470   5.115   6.547
    1AU     LIG  458   6.558   4.690   6.563
    1AU     LIG  459   6.581   4.322   6.812
    1AU     LIG  460   6.775   4.040   7.117
    1AU     LIG  461   7.048   3.738   7.351
    1AU     LIG  462   7.280   3.325   7.416
    1AU     LIG  463   7.623   3.147   7.663
    1AU    AUSL  464   5.544   5.209   6.208
    1AU    AUSL  465   5.468   5.403   6.439
    1AU     AUL  466   5.564   5.405   6.636
    1AU       S  467   5.452   4.814   6.358
    1AU     LIG  468   5.131   4.486   6.275
    1AU     LIG  469   5.055   3.998   6.292
    1AU     LIG  470   4.944   3.536   6.468
    1AU     LIG  471   4.692   3.100   6.555
    1AU     LIG  472   4.599   2.667   6.741
    1AU     LIG  473   4.676   2.215   6.697
    1AU       S  474   5.068   5.086   6.445
    1AU     LIG  475   4.922   4.723   6.684
    1AU     LIG  476   4.573   4.458   6.854
    1AU     LIG  477   4.283   4.283   7.201
    1AU     LIG  478   4.074   3.988   7.518
    1AU     LIG  479   4.104   3.686   7.885
    1AU     LIG  480   4.159   3.540   8.335
    1AU    AUSL  481   5.801   5.176   6.113
    1AU    AUSL  482   5.569   5.165   5.890
    1AU     AUL  483   5.992   5.049   5.988
    1AU       S  484   5.372   4.792   5.866
    1AU     LIG  485   5.062   4.486   5.751
    1AU     LIG  486   5.059   4.012   5.698
    1AU     LIG  487   5.041   3.553   5.513
    1AU     LIG  488   4.806   3.110   5.423
    1AU     LIG  489   4.711   2.634   5.302
    1AU     LIG  490   4.804   2.226   5.066
    1AU       S  491   5.660   4.767   6.279
    1AU     LIG  492   5.590   4.291   6.353
    1AU     LIG  493   5.526   3.818   6.447
    1AU     LIG  494   5.627   3.364   6.610
    1AU     LIG  495   5.924   2.956   6.588
    1AU     LIG  496   6.122   2.534   6.722
    1AU     LIG  497   6.274   2.167   6.958
    1AU    AUSL  498   5.789   6.416   5.563
    1AU    AUSL  499   6.208   6.296   5.748
    1AU     AUL  500   6.121   6.540   5.602
    1AU       S  501   5.843   6.926   5.439
    1AU     LIG  502   5.953   7.298   5.151
    1AU     LIG  503   6.103   7.653   4.878
    1AU     LIG  504   6.076   7.853   4.439
    1AU     LIG  505   5.997   8.158   4.078
    1AU     LIG  506   5.926   8.586   3.875
    1AU     LIG  507   5.999   8.933   3.553
    1AU       S  508   6.608   6.369   5.528
    1AU     LIG  509   6.850   6.681   5.276
    1AU     LIG  510   7.115   6.796   4.899
    1AU     LIG  511   7.392   7.095   4.638
    1AU     LIG  512   7.619   7.546   4.650
    1AU     LIG  513   7.790   8.012   4.598
    1AU     LIG  514   7.846   8.421   4.341
    1AU    AUSL  515   5.636   6.486   5.797
    1AU    AUSL  516   5.519   6.305   5.531
    1AU     AUL  517   5.435   6.653   5.606
    1AU       S  518   5.795   6.959   5.771
    1AU     LIG  519   5.732   7.426   5.598
    1AU     LIG  520   5.851   7.825   5.313
    1AU     LIG  521   5.778   8.305   5.133
    1AU     LIG  522   5.484   8.725   5.004
    1AU     LIG  523   5.413   9.217   4.857
    1AU     LIG  524   4.971   9.404   4.749
    1AU       S  525   5.207   6.507   5.147
    1AU     LIG  526   5.067   6.731   4.717
    1AU     LIG  527   4.933   6.981   4.313
    1AU     LIG  528   4.894   7.063   3.826
    1AU     LIG  529   4.896   7.449   3.526
    1AU     LIG  530   4.616   7.810   3.429
    1AU     LIG  531   4.392   8.070   3.112
    1AU    AUSL  532   5.621   5.288   5.647
    1AU    AUSL  533   5.350   5.330   5.758
    1AU     AUL  534   5.592   5.308   5.405
    1AU       S  535   5.030   5.073   5.637
    1AU     LIG  536   4.677   4.830   5.739
    1AU     LIG  537   4.256   4.706   5.577
    1AU     LIG  538   3.950   4.471   5.277
    1AU     LIG  539   3.720   4.179   4.960
    1AU     LIG  540   3.457   3.747   4.883
    1AU     LIG  541   3.230   3.366   4.653
    1AU       S  542   5.474   4.844   5.616
    1AU     LIG  543   5.347   4.546   5.324
    1AU     LIG  544   5.294   4.099   5.244
    1AU     LIG  545   5.367   3.650   5.111
    1AU     LIG  546   5.374   3.329   4.754
    1AU     LIG  547   5.375   3.165   4.296
    1AU     LIG  548   5.496   2.853   3.954
    1AU    AUSL  549   5.841   5.192   5.807
    1AU    AUSL  550   6.042   5.472   5.489
    1AU     AUL  551   5.865   5.276   5.472
    1AU       S  552   5.647   4.757   5.753
    1AU     LIG  553   5.530   4.279   5.734
    1AU     LIG  554   5.528   3.802   5.596
    1AU     LIG  555   5.697   3.365   5.448
    1AU     LIG  556   6.040   2.992   5.466
    1AU     LIG  557   6.286   2.606   5.300
    1AU     LIG  558   6.517   2.212   5.123
    1AU       S  559   6.269   5.163   5.190
    1AU     LIG  560   6.173   4.796   4.965
    1AU     LIG  561   6.391   4.440   4.781
    1AU     LIG  562   6.632   4.114   4.548
    1AU     LIG  563   6.727   3.875   4.157
    1AU     LIG  564   6.954   3.739   3.777
    1AU     LIG  565   7.249   3.561   3.465
    2POPC   NC3  566   1.475   2.488   7.869
    2POPC   PO4  567   1.166   3.021   8.197
    2POPC   GL1  568   1.187   2.926   7.768
    2POPC   GL2  569   0.844   2.873   7.658
    2POPC   C1A  570   1.285   2.832   7.327
    2POPC   D2A  571   1.435   2.646   6.962
    2POPC   C3A  572   1.312   2.707   6.546
    2POPC   C4A  573   1.569   2.974   6.316
    2POPC   C1B  574   0.794   2.668   7.248
    2POPC   C2B  575   0.944   2.860   6.874
    2POPC   C3B  576   0.806   2.849   6.451
    2POPC   C4B  577   1.098   2.777   6.088
    3POPC   NC3  578   2.652   2.065   8.047
    3POPC   PO4  579   3.211   2.292   7.821
    3POPC   GL1  580   2.966   2.000   7.617
    3POPC   GL2  581   2.598   1.906   7.590
    3POPC   C1A  582   2.949   1.813   7.233
    3POPC   D2A  583   3.147   1.852   6.872
    3POPC   C3A  584   2.956   1.900   6.512
    3POPC   C4A  585   3.070   1.851   6.112
    3POPC   C1B  586   2.584   2.168   7.269
    3POPC   C2B  587   2.581   1.954   6.877
    3POPC   C3B  588   2.472   2.048   6.470
    3POPC   C4B  589   2.630   2.120   6.072
    4POPC   NC3  590   8.775   5.244   8.233
    4POPC   PO4  591   9.212   5.569   8.189
    4POPC   GL1  592   9.040   5.343   7.785
    4POPC   GL2  593   9.041   4.968   7.689
    4POPC   C1A  594   9.029   5.316   7.295
    4POPC   D2A  595   9.239   5.191   6.871
    4POPC   C3A  596   9.072   5.236   6.415
    4POPC   C4A  597   8.788   5.255   6.032
    4POPC   C1B  598   9.042   4.807   7.206
    4POPC   C2B  599   8.899   4.824   6.741
    4POPC   C3B  600   8.822   4.802   6.295
    4POPC   C4B  601   8.905   4.503   5.978
    5POPC   NC3  602   1.441   0.575   7.968
    5POPC   PO4  603   0.866   0.872   7.973
    5POPC   GL1  604   0.963   0.472   7.718
    5POPC   GL2  605   1.181   0.171   7.778
    5POPC   C1A  606   0.889   0.330   7.294
    5POPC   D2A  607   0.837   0.505   6.872
    5POPC   C3A  608   0.833   0.161   6.601
    5POPC   C4A  609   0.878  11.466   6.212
    5POPC   C1B  610   1.405   0.315   7.377
    5POPC   C2B  611   1.376   0.511   6.950
    5POPC   C3B  612   1.242   0.467   6.510
    5POPC   C4B  613   1.289   0.267   6.117
    6POPC   NC3  614   7.603   2.545   8.002
    6POPC   PO4  615   7.065   2.934   8.121
    6POPC   GL1  616   7.233   2.804   7.679
    6POPC   GL2  617   6.944   2.791   7.478
    6POPC   C1A  618   7.486   2.875   7.249
    6POPC   D2A  619   7.357   2.887   6.781
    6POPC   C3A  620   7.559   2.805   6.355
    6POPC   C4A  621   7.618   2.903   5.887
    6POPC   C1B  622   7.170   2.497   7.209
    6POPC   C2B  623   7.171   2.405   6.801
    6POPC   C3B  624   7.081   2.554   6.413
    6POPC   C4B  625   7.269   2.495   6.032
    7POPC   NC3  626   2.146   5.684   8.150
    7POPC   PO4  627   1.666   6.094   8.056
    7POPC   GL1  628   1.671   5.951   7.654
    7POPC   GL2  629   2.022   5.945   7.609
    7POPC   C1A  630   1.692   6.123   7.226
    7POPC   D2A  631   1.836   5.965   6.829
    7POPC   C3A  632   1.701   6.032   6.418
    7POPC   C4A  633   1.824   5.826   6.007
    7POPC   C1B  634   1.866   5.645   7.282
    7POPC   C2B  635   1.954   5.477   6.858
    7POPC   C3B  636   2.045   5.626   6.424
    7POPC   C4B  637   2.288   5.611   5.993
    8POPC   NC3  638   0.464   5.360   8.140
    8POPC   PO4  639   0.125   4.839   8.265
    8POPC   GL1  640   0.243   4.988   7.881
    8POPC   GL2  641   0.605   4.968   7.865
    8POPC   C1A  642   0.157   4.850   7.454
    8POPC   D2A  643   0.209   4.707   7.011
    8POPC   C3A  644   0.027   4.756   6.600
    8POPC   C4A  645   0.200   4.861   6.255
    8POPC   C1B  646   0.568   5.168   7.490
    8POPC   C2B  647   0.441   5.162   7.072
    8POPC   C3B  648   0.455   5.154   6.593
    8POPC   C4B  649   0.630   5.136   6.173
    9POPC   NC3  650  11.255   5.200   8.182
    9POPC   PO4  651  10.924   4.649   8.307
    9POPC   GL1  652  11.233   4.815   7.856
    9POPC   GL2  653  11.314   5.177   7.692
    9POPC   C1A  654  11.166   4.856   7.356
    9POPC   D2A  655  11.044   5.115   6.997
    9POPC   C3A  656  11.038   4.964   6.586
    9POPC   C4A  657  11.089   4.794   6.183
    9POPC   C1B  658  11.465   5.291   7.278
    9POPC   C2B  659   0.009   5.195   6.827
    9POPC   C3B  660  11.411   5.281   6.367
    9POPC   C4B  661  11.186   5.252   5.951
   10POPC   NC3  662  11.321   8.046   8.016
   10POPC   PO4  663  10.667   8.351   8.070
   10POPC   GL1  664  10.976   8.370   7.701
   10POPC   GL2  665  11.243   8.170   7.541
   10POPC   C1A  666  10.882   8.400   7.239
   10POPC   D2A  667  10.876   8.509   6.798
   10POPC   C3A  668  11.062   8.185   6.608
   10POPC   C4A  669  11.060   8.012   6.232
   10POPC   C1B  670  11.341   7.853   7.236
   10POPC   C2B  671  11.489   8.050   6.870
   10POPC   C3B  672  11.494   7.937   6.465
   10POPC   C4B  673  11.469   8.299   6.222
   11POPC   NC3  674   3.586   2.523   7.963
   11POPC   PO4  675   4.259   2.424   7.902
   11POPC   GL1  676   3.855   2.421   7.532
   11POPC   GL2  677   3.513   2.552   7.482
   11POPC   C1A  678   3.770   2.426   7.075
   11POPC   D2A  679   3.618   2.741   6.804
   11POPC   C3A  680   3.748   2.636   6.410
   11POPC   C4A  681   4.044   2.607   6.031
   11POPC   C1B  682   3.328   2.858   7.241
   11POPC   C2B  683   3.084   2.820   6.865
   11POPC   C3B  684   3.235   2.742   6.451
   11POPC   C4B  685   3.341   3.130   6.267
   12POPC   NC3  686   4.962   8.042   8.069
   12POPC   PO4  687   5.148   7.566   7.895
   12POPC   GL1  688   5.085   7.923   7.566
   12POPC   GL2  689   5.058   8.309   7.651
   12POPC   C1A  690   4.989   7.902   7.097
   12POPC   D2A  691   5.132   7.891   6.651
   12POPC   C3A  692   4.790   7.966   6.347
   12POPC   C4A  693   4.416   8.097   6.107
   12POPC   C1B  694   5.170   8.351   7.220
   12POPC   C2B  695   4.988   8.372   6.801
   12POPC   C3B  696   5.168   8.323   6.367
   12POPC   C4B  697   5.240   7.950   6.087
   13POPC   NC3  698   8.580   1.032   7.931
   13POPC   PO4  699   7.886   0.981   8.135
   13POPC   GL1  700   8.085   1.150   7.758
   13POPC   GL2  701   7.856   1.394   7.583
   13POPC   C1A  702   8.141   0.954   7.349
   13POPC   D2A  703   7.976   1.059   6.920
   13POPC   C3A  704   8.277   0.992   6.581
   13POPC   C4A  705   8.300   1.101   6.152
   13POPC   C1B  706   8.173   1.457   7.264
   13POPC   C2B  707   8.235   1.480   6.804
   13POPC   C3B  708   7.955   1.369   6.443
   13POPC   C4B  709   7.822   1.669   6.103
   14POPC   NC3  710   1.094   9.601   8.137
   14POPC   PO4  711   0.819  10.207   8.159
   14POPC   GL1  712   1.008   9.947   7.779
   14POPC   GL2  713   1.381   9.870   7.777
   14POPC   C1A  714   0.879   9.982   7.357
   14POPC   D2A  715   1.126   9.992   6.997
   14POPC   C3A  716   1.079   9.749   6.622
   14POPC   C4A  717   1.171   9.859   6.222
   14POPC   C1B  718   1.312   9.670   7.394
   14POPC   C2B  719   1.422   9.577   6.967
   14POPC   C3B  720   1.590   9.648   6.556
   14POPC   C4B  721   1.502   9.494   6.155
   15POPC   NC3  722   1.220  10.587   8.249
   15POPC   PO4  723   0.703  10.702   7.853
   15POPC   GL1  724   0.936  10.433   7.651
   15POPC   GL2  725   1.291  10.384   7.728
   15POPC   C1A  726   1.097  10.448   7.247
   15POPC   D2A  727   1.334  10.474   6.897
   15POPC   C3A  728   1.146  10.272   6.558
   15POPC   C4A  729   0.912  10.292   6.189
   15POPC   C1B  730   1.512  10.170   7.339
   15POPC   C2B  731   1.632  10.049   6.884
   15POPC   C3B  732   1.631  10.128   6.417
   15POPC   C4B  733   1.406  10.327   6.109
   16POPC   NC3  734   3.748   9.462   8.120
   16POPC   PO4  735   3.107   9.417   7.938
   16POPC   GL1  736   3.460   9.572   7.681
   16POPC   GL2  737   3.627   9.877   7.677
   16POPC   C1A  738   3.565   9.590   7.236
   16POPC   D2A  739   3.365   9.739   6.852
   16POPC   C3A  740   3.289   9.522   6.445
   16POPC   C4A  741   3.215   9.518   6.004
   16POPC   C1B  742   3.816  10.033   7.270
   16POPC   C2B  743   3.893   9.887   6.823
   16POPC   C3B  744   3.785   9.667   6.410
   16POPC   C4B  745   3.700   9.704   5.937
   17POPC   NC3  746  10.450   1.337   8.257
   17POPC   PO4  747  10.428   1.919   7.933
   17POPC   GL1  748  10.349   1.632   7.658
   17POPC   GL2  749  10.468   1.296   7.726
   17POPC   C1A  750  10.575   1.604   7.256
   17POPC   D2A  751  10.638   1.386   6.873
   17POPC   C3A  752  10.540   1.633   6.534
   17POPC   C4A  753  10.350   1.553   6.164
   17POPC   C1B  754  10.188   1.274   7.346
   17POPC   C2B  755  10.218   1.068   6.951
   17POPC   C3B  756  10.199   1.207   6.529
   17POPC   C4B  757  10.216   1.040   6.098
   18POPC   NC3  758   3.773  11.248   8.166
   18POPC   PO4  759   3.229  11.473   7.844
   18POPC   GL1  760   3.596  11.317   7.643
   18POPC   GL2  761   3.576  10.997   7.743
   18POPC   C1A  762   3.661  11.247   7.190
   18POPC   D2A  763   3.681  11.178   6.750
   18POPC   C3A  764   3.610   0.014   6.468
   18POPC   C4A  765   3.852   0.159   6.140
   18POPC   C1B  766   3.287  10.934   7.345
   18POPC   C2B  767   3.202  11.025   6.882
   18POPC   C3B  768   3.277  11.106   6.427
   18POPC   C4B  769   3.550  10.928   6.121
   19POPC   NC3  770  11.271   6.175   7.850
   19POPC   PO4  771  11.333   6.914   8.015
   19POPC   GL1  772  11.240   6.766   7.663
   19POPC   GL2  773  10.991   6.582   7.733
   19POPC   C1A  774  11.211   6.821   7.249
   19POPC   D2A  775  11.049   7.030   6.929
   19POPC   C3A  776  11.234   6.813   6.579
   19POPC   C4A  777  11.098   6.834   6.197
   19POPC   C1B  778  11.009   6.374   7.309
   19POPC   C2B  779  10.982   6.507   6.897
   19POPC   C3B  780  10.959   6.380   6.468
   19POPC   C4B  781  11.345   6.365   6.245
   20POPC   NC3  782  10.500   0.346   8.447
   20POPC   PO4  783  10.973   0.073   8.101
   20POPC   GL1  784  10.719   0.235   7.712
   20POPC   GL2  785  10.352   0.275   7.755
   20POPC   C1A  786  10.552   0.230   7.266
   20POPC   D2A  787  10.436   0.011   6.888
   20POPC   C3A  788  10.552   0.276   6.537
   20POPC   C4A  789  10.716   0.219   6.103
   20POPC   C1B  790  10.210   0.575   7.390
   20POPC   C2B  791  10.299   0.551   6.930
   20POPC   C3B  792  10.175   0.678   6.510
   20POPC   C4B  793  10.246   0.421   6.164
   21POPC   NC3  794   6.906   0.945   8.042
   21POPC   PO4  795   6.238   1.023   8.027
   21POPC   GL1  796   6.508   0.782   7.726
   21POPC   GL2  797   6.360   0.577   7.458
   21POPC   C1A  798   6.772   0.870   7.348
   21POPC   D2A  799   6.727   1.093   6.962
   21POPC   C3A  800   6.476   0.966   6.634
   21POPC   C4A  801   6.575   1.217   6.329
   21POPC   C1B  802   6.263   0.915   7.140
   21POPC   C2B  803   6.210   1.331   6.927
   21POPC   C3B  804   6.316   1.595   6.551
   21POPC   C4B  805   6.199   1.493   6.129
   22POPC   NC3  806   9.037  10.992   8.139
   22POPC   PO4  807   9.283  10.490   7.936
   22POPC   GL1  808   9.096  10.810   7.648
   22POPC   GL2  809   8.963  11.177   7.677
   22POPC   C1A  810   8.958  10.898   7.231
   22POPC   D2A  811   8.686  10.800   6.873
   22POPC   C3A  812   8.722  10.999   6.488
   22POPC   C4A  813   9.039  10.888   6.219
   22POPC   C1B  814   8.690  11.307   7.326
   22POPC   C2B  815   8.824  11.330   6.893
   22POPC   C3B  816   8.710   0.027   6.498
   22POPC   C4B  817   8.741  11.454   6.041
   23POPC   NC3  818   0.487   1.096   7.805
   23POPC   PO4  819   0.781   1.661   7.972
   23POPC   GL1  820   0.595   1.562   7.608
   23POPC   GL2  821   0.228   1.522   7.651
   23POPC   C1A  822   0.567   1.553   7.187
   23POPC   D2A  823   0.541   1.316   6.823
   23POPC   C3A  824   0.528   1.614   6.489
   23POPC   C4A  825   0.417   1.567   6.052
   23POPC   C1B  826   0.099   1.301   7.267
   23POPC   C2B  827   0.043   1.088   6.887
   23POPC   C3B  828   0.164   1.230   6.484
   23POPC   C4B  829   0.529   1.062   6.288
   24POPC   NC3  830   4.377   8.649   8.129
   24POPC   PO4  831   4.125   9.211   8.096
   24POPC   GL1  832   4.145   9.022   7.727
   24POPC   GL2  833   4.454   8.971   7.675
   24POPC   C1A  834   4.054   8.928   7.289
   24POPC   D2A  835   4.195   8.615   6.978
   24POPC   C3A  836   4.147   8.697   6.516
   24POPC   C4A  837   4.035   8.450   6.152
   24POPC   C1B  838   4.553   8.919   7.229
   24POPC   C2B  839   4.448   9.022   6.797
   24POPC   C3B  840   4.542   8.972   6.349
   24POPC   C4B  841   4.571   9.122   5.959
   25POPC   NC3  842   3.394   1.542   7.976
   25POPC   PO4  843   3.099   0.953   7.693
   25POPC   GL1  844   3.465   1.177   7.503
   25POPC   GL2  845   3.825   1.155   7.614
   25POPC   C1A  846   3.541   1.122   7.038
   25POPC   D2A  847   3.195   1.090   6.740
   25POPC   C3A  848   3.155   1.011   6.332
   25POPC   C4A  849   3.200   1.340   6.027
   25POPC   C1B  850   3.940   1.384   7.238
   25POPC   C2B  851   4.093   1.553   6.860
   25POPC   C3B  852   3.895   1.495   6.471
   25POPC   C4B  853   3.612   1.182   6.319
   26POPC   NC3  854   5.264   9.960   7.879
   26POPC   PO4  855   5.761  10.037   8.229
   26POPC   GL1  856   5.758  10.094   7.759
   26POPC   GL2  857   5.648   9.742   7.629
   26POPC   C1A  858   5.982  10.006   7.351
   26POPC   D2A  859   6.125   9.818   6.937
   26POPC   C3A  860   5.892   9.861   6.530
   26POPC   C4A  861   6.065   9.898   6.108
   26POPC   C1B  862   5.677   9.619   7.176
   26POPC   C2B  863   5.432   9.621   6.779
   26POPC   C3B  864   5.442   9.525   6.324
   26POPC   C4B  865   5.760   9.474   5.988
   27POPC   NC3  866  11.074  10.482   8.067
   27POPC   PO4  867  10.755   9.977   7.784
   27POPC   GL1  868  11.156  10.142   7.638
   27POPC   GL2  869  11.392  10.428   7.670
   27POPC   C1A  870  11.233  10.033   7.236
   27POPC   D2A  871  10.948  10.102   6.910
   27POPC   C3A  872  11.093  10.319   6.560
   27POPC   C4A  873  11.250  10.179   6.199
   27POPC   C1B  874  11.219  10.565   7.273
   27POPC   C2B  875  10.950  10.650   6.939
   27POPC   C3B  876  10.907  10.810   6.523
   27POPC   C4B  877  11.258  10.731   6.251
   28POPC   NC3  878   4.778   0.118   7.917
   28POPC   PO4  879   4.945   0.589   8.278
   28POPC   GL1  880   5.038   0.567   7.761
   28POPC   GL2  881   4.760   0.458   7.553
   28POPC   C1A  882   5.193   0.473   7.322
   28POPC   D2A  883   4.968   0.355   6.938
   28POPC   C3A  884   5.193   0.339   6.557
   28POPC   C4A  885   5.227   0.654   6.269
   28POPC   C1B  886   4.574   0.609   7.200
   28POPC   C2B  887   4.446   0.566   6.809
   28POPC   C3B  888   4.778   0.683   6.564
   28POPC   C4B  889   4.798   0.990   6.258
   29POPC   NC3  890   8.638   2.574   8.132
   29POPC   PO4  891   8.124   2.966   8.048
   29POPC   GL1  892   8.525   2.924   7.743
   29POPC   GL2  893   8.713   2.610   7.582
   29POPC   C1A  894   8.827   3.081   7.401
   29POPC   D2A  895   8.931   3.349   6.999
   29POPC   C3A  896   8.952   3.214   6.541
   29POPC   C4A  897   8.655   3.036   6.219
   29POPC   C1B  898   9.019   2.626   7.206
   29POPC   C2B  899   9.072   2.730   6.771
   29POPC   C3B  900   9.040   2.717   6.325
   29POPC   C4B  901   9.076   2.548   5.912
   30POPC   NC3  902   7.366  10.598   8.189
   30POPC   PO4  903   7.742  10.789   7.657
   30POPC   GL1  904   7.376  10.555   7.635
   30POPC   GL2  905   7.422  10.233   7.796
   30POPC   C1A  906   7.208  10.390   7.257
   30POPC   D2A  907   6.968  10.481   6.893
   30POPC   C3A  908   7.128  10.613   6.489
   30POPC   C4A  909   7.491  10.670   6.241
   30POPC   C1B  910   7.672  10.147   7.435
   30POPC   C2B  911   7.589  10.049   7.004
   30POPC   C3B  912   7.522  10.259   6.613
   30POPC   C4B  913   7.481  10.141   6.183
   31POPC   NC3  914   9.860   4.737   8.228
   31POPC   PO4  915  10.097   4.136   8.076
   31POPC   GL1  916   9.940   4.226   7.619
   31POPC   GL2  917   9.608   4.352   7.605
   31POPC   C1A  918  10.070   4.338   7.157
   31POPC   D2A  919  10.240   4.631   6.803
   31POPC   C3A  920  10.113   4.564   6.356
   31POPC   C4A  921   9.798   4.232   6.217
   31POPC   C1B  922   9.588   4.083   7.219
   31POPC   C2B  923   9.398   3.917   6.817
   31POPC   C3B  924   9.329   4.118   6.421
   31POPC   C4B  925   9.294   4.584   6.351
   32POPC   NC3  926   0.446   2.068   8.037
   32POPC   PO4  927   1.034   2.395   7.803
   32POPC   GL1  928   0.753   2.061   7.576
   32POPC   GL2  929   0.358   2.013   7.559
   32POPC   C1A  930   0.638   2.075   7.145
   32POPC   D2A  931   0.396   2.047   6.790
   32POPC   C3A  932   0.737   2.102   6.538
   32POPC   C4A  933   0.825   1.934   6.144
   32POPC   C1B  934   0.146   1.828   7.241
   32POPC   C2B  935   0.124   1.615   6.845
   32POPC   C3B  936   0.029   1.756   6.430
   32POPC   C4B  937   0.320   2.048   6.241
   33POPC   NC3  938   9.655   5.715   8.171
   33POPC   PO4  939  10.070   5.135   8.124
   33POPC   GL1  940  10.036   5.512   7.787
   33POPC   GL2  941   9.884   5.853   7.714
   33POPC   C1A  942   9.906   5.556   7.305
   33POPC   D2A  943   9.804   5.755   6.895
   33POPC   C3A  944   9.808   5.581   6.481
   33POPC   C4A  945   9.904   5.642   6.063
   33POPC   C1B  946   9.918   6.088   7.296
   33POPC   C2B  947   9.888   6.254   6.834
   33POPC   C3B  948   9.769   6.088   6.393
   33POPC   C4B  949   9.483   5.914   6.060
   34POPC   NC3  950   4.919   1.070   8.186
   34POPC   PO4  951   5.613   0.797   8.120
   34POPC   GL1  952   5.329   0.983   7.808
   34POPC   GL2  953   5.129   1.294   7.768
   34POPC   C1A  954   5.259   0.984   7.361
   34POPC   D2A  955   5.012   0.875   6.993
   34POPC   C3A  956   5.189   1.058   6.600
   34POPC   C4A  957   5.262   1.175   6.160
   34POPC   C1B  958   4.989   1.422   7.341
   34POPC   C2B  959   4.902   1.374   6.890
   34POPC   C3B  960   4.919   1.464   6.438
   34POPC   C4B  961   4.941   1.555   5.977
   35POPC   NC3  962   7.664   9.183   8.067
   35POPC   PO4  963   8.406   9.213   8.063
   35POPC   GL1  964   8.276   9.064   7.671
   35POPC   GL2  965   7.949   9.016   7.671
   35POPC   C1A  966   8.186   8.861   7.246
   35POPC   D2A  967   7.995   8.741   6.822
   35POPC   C3A  968   8.259   8.641   6.449
   35POPC   C4A  969   8.306   8.781   6.034
   35POPC   C1B  970   7.792   9.165   7.267
   35POPC   C2B  971   7.928   9.239   6.808
   35POPC   C3B  972   8.069   9.118   6.362
   35POPC   C4B  973   7.878   9.046   5.927
   36POPC   NC3  974   8.871  10.349   8.128
   36POPC   PO4  975   8.572  11.047   8.151
   36POPC   GL1  976   8.596  10.676   7.758
   36POPC   GL2  977   8.841  10.355   7.640
   36POPC   C1A  978   8.564  10.547   7.286
   36POPC   D2A  979   8.571  10.289   6.892
   36POPC   C3A  980   8.401  10.539   6.512
   36POPC   C4A  981   8.591  10.657   6.097
   36POPC   C1B  982   9.094  10.394   7.259
   36POPC   C2B  983   9.168  10.625   6.863
   36POPC   C3B  984   8.914  10.493   6.513
   36POPC   C4B  985   8.975  10.182   6.220
   37POPC   NC3  986   7.052   8.787   7.985
   37POPC   PO4  987   7.713   8.637   8.218
   37POPC   GL1  988   7.633   8.636   7.796
   37POPC   GL2  989   7.464   8.873   7.699
   37POPC   C1A  990   7.679   8.620   7.320
   37POPC   D2A  991   7.620   8.409   6.933
   37POPC   C3A  992   7.447   8.585   6.562
   37POPC   C4A  993   7.727   8.745   6.296
   37POPC   C1B  994   7.297   8.956   7.311
   37POPC   C2B  995   7.484   8.958   6.909
   37POPC   C3B  996   7.368   9.113   6.507
   37POPC   C4B  997   7.374   9.064   6.076
   38POPC   NC3  998   0.562  11.025   8.130
   38POPC   PO4  999   1.116  11.005   8.547
   38POPC   GL1 1000   1.153  11.010   7.988
   38POPC   GL2 1001   0.911  11.195   7.757
   38POPC   C1A 1002   1.256  10.868   7.508
   38POPC   D2A 1003   1.233  10.996   7.036
   38POPC   C3A 1004   1.212  10.874   6.571
   38POPC   C4A 1005   0.964  10.934   6.171
   38POPC   C1B 1006   1.133  11.367   7.372
   38POPC   C2B 1007   1.377  11.487   6.969
   38POPC   C3B 1008   1.296  11.424   6.515
   38POPC   C4B 1009   1.335  11.287   6.051
   39POPC   NC3 1010   9.390   8.541   8.066
   39POPC   PO4 1011   9.309   7.861   8.103
   39POPC   GL1 1012   9.582   8.026   7.746
   39POPC   GL2 1013   9.766   8.318   7.782
   39POPC   C1A 1014   9.691   7.991   7.285
   39POPC   D2A 1015   9.848   7.762   6.919
   39POPC   C3A 1016   9.647   7.860   6.527
   39POPC   C4A 1017   9.708   7.768   6.071
   39POPC   C1B 1018   9.696   8.491   7.396
   39POPC   C2B 1019   9.545   8.427   6.978
   39POPC   C3B 1020   9.650   8.451   6.546
   39POPC   C4B 1021   9.556   8.231   6.207
   40POPC   NC3 1022   1.130   1.339   8.061
   40POPC   PO4 1023   1.753   0.911   8.093
   40POPC   GL1 1024   1.506   1.035   7.768
   40POPC   GL2 1025   1.525   1.334   7.708
   40POPC   C1A 1026   1.591   0.934   7.331
   40POPC   D2A 1027   1.739   0.877   6.901
   40POPC   C3A 1028   1.380   0.953   6.631
   40POPC   C4A 1029   1.051   0.926   6.287
   40POPC   C1B 1030   1.269   1.341   7.366
   40POPC   C2B 1031   1.294   1.391   6.920
   40POPC   C3B 1032   1.003   1.315   6.594
   40POPC   C4B 1033   0.886   1.415   6.193
   41POPC   NC3 1034   8.194   3.415   8.076
   41POPC   PO4 1035   8.532   3.832   7.845
   41POPC   GL1 1036   8.450   3.426   7.627
   41POPC   GL2 1037   8.083   3.366   7.583
   41POPC   C1A 1038   8.393   3.257   7.205
   41POPC   D2A 1039   8.226   3.466   6.856
   41POPC   C3A 1040   8.468   3.459   6.484
   41POPC   C4A 1041   8.320   3.385   6.074
   41POPC   C1B 1042   7.855   3.250   7.184
   41POPC   C2B 1043   7.841   3.131   6.716
   41POPC   C3B 1044   7.818   3.254   6.259
   41POPC   C4B 1045   7.479   3.391   5.967
   42POPC   NC3 1046  11.128   9.816   8.037
   42POPC   PO4 1047  10.851   9.246   7.829
   42POPC   GL1 1048  10.985   9.568   7.593
   42POPC   GL2 1049  11.337   9.657   7.602
   42POPC   C1A 1050  10.788   9.663   7.201
   42POPC   D2A 1051  10.662   9.477   6.808
   42POPC   C3A 1052  10.761   9.809   6.517
   42POPC   C4A 1053  10.941   9.787   6.078
   42POPC   C1B 1054  11.311   9.509   7.212
   42POPC   C2B 1055  11.156   9.621   6.837
   42POPC   C3B 1056  11.079   9.414   6.471
   42POPC   C4B 1057  11.348   9.489   6.140
   43POPC   NC3 1058  10.916   7.103   7.963
   43POPC   PO4 1059  11.036   7.727   7.804
   43POPC   GL1 1060  11.175   7.328   7.586
   43POPC   GL2 1061  10.918   7.140   7.468
   43POPC   C1A 1062  11.438   7.264   7.258
   43POPC   D2A 1063   0.058   7.045   6.899
   43POPC   C3A 1064  11.353   7.303   6.574
   43POPC   C4A 1065  11.417   7.461   6.182
   43POPC   C1B 1066  10.923   7.486   7.177
   43POPC   C2B 1067  11.029   7.714   6.820
   43POPC   C3B 1068  10.895   7.586   6.421
   43POPC   C4B 1069  10.776   7.217   6.240
   44POPC   NC3 1070   1.506   8.084   8.128
   44POPC   PO4 1071   0.839   8.127   8.271
   44POPC   GL1 1072   1.073   8.143   7.839
   44POPC   GL2 1073   1.060   8.498   7.737
   44POPC   C1A 1074   1.358   8.141   7.436
   44POPC   D2A 1075   1.522   8.306   7.017
   44POPC   C3A 1076   1.573   8.194   6.580
   44POPC   C4A 1077   1.315   8.107   6.208
   44POPC   C1B 1078   0.915   8.382   7.342
   44POPC   C2B 1079   1.029   8.133   7.021
   44POPC   C3B 1080   1.075   8.280   6.647
   44POPC   C4B 1081   0.855   8.326   6.280
   45POPC   NC3 1082   3.278   3.091   8.111
   45POPC   PO4 1083   2.644   3.258   8.031
   45POPC   GL1 1084   2.602   3.175   7.612
   45POPC   GL2 1085   2.384   3.455   7.557
   45POPC   C1A 1086   2.809   3.260   7.202
   45POPC   D2A 1087   2.662   3.426   6.806
   45POPC   C3A 1088   2.872   3.422   6.401
   45POPC   C4A 1089   2.954   3.816   6.131
   45POPC   C1B 1090   2.279   3.271   7.177
   45POPC   C2B 1091   2.162   3.515   6.836
   45POPC   C3B 1092   2.325   3.628   6.461
   45POPC   C4B 1093   2.392   3.225   6.409
   46POPC   NC3 1094  10.779   8.880   8.088
   46POPC   PO4 1095  11.321   9.391   8.153
   46POPC   GL1 1096  11.347   9.161   7.712
   46POPC   GL2 1097  11.222   8.836   7.806
   46POPC   C1A 1098   0.051   9.061   7.293
   46POPC   D2A 1099  11.326   9.103   6.877
   46POPC   C3A 1100  11.487   9.098   6.449
   46POPC   C4A 1101  11.155   9.012   6.148
   46POPC   C1B 1102  11.120   8.812   7.373
   46POPC   C2B 1103  11.347   8.598   7.019
   46POPC   C3B 1104  11.316   8.639   6.561
   46POPC   C4B 1105  10.993   8.536   6.240
   47POPC   NC3 1106   0.660   2.997   8.130
   47POPC   PO4 1107   0.249   2.478   8.187
   47POPC   GL1 1108   0.334   2.723   7.828
   47POPC   GL2 1109   0.507   2.488   7.688
   47POPC   C1A 1110   0.371   2.925   7.409
   47POPC   D2A 1111   0.486   3.064   6.998
   47POPC   C3A 1112   0.227   2.976   6.636
   47POPC   C4A 1113   0.364   2.950   6.204
   47POPC   C1B 1114   0.306   2.426   7.290
   47POPC   C2B 1115   0.409   2.557   6.895
   47POPC   C3B 1116   0.398   2.504   6.474
   47POPC   C4B 1117   0.715   2.437   6.173
   48POPC   NC3 1118   5.336   0.391   8.123
   48POPC   PO4 1119   5.995   0.087   8.061
   48POPC   GL1 1120   5.642   0.147   7.773
   48POPC   GL2 1121   5.573   0.518   7.677
   48POPC   C1A 1122   5.501   0.025   7.348
   48POPC   D2A 1123   5.531   0.288   6.986
   48POPC   C3A 1124   5.714   0.213   6.579
   48POPC   C4A 1125   5.560   0.171   6.141
   48POPC   C1B 1126   5.888   0.373   7.391
   48POPC   C2B 1127   6.063   0.453   7.020
   48POPC   C3B 1128   6.030   0.706   6.668
   48POPC   C4B 1129   5.939   0.514   6.239
   49POPC   NC3 1130  10.583   4.856   8.053
   49POPC   PO4 1131  10.880   5.502   8.104
   49POPC   GL1 1132  10.809   5.198   7.742
   49POPC   GL2 1133  10.459   5.238   7.691
   49POPC   C1A 1134  10.675   4.962   7.314
   49POPC   D2A 1135  10.554   5.052   6.868
   49POPC   C3A 1136  10.527   4.910   6.451
   49POPC   C4A 1137  10.691   5.078   6.110
   49POPC   C1B 1138  10.363   5.354   7.230
   49POPC   C2B 1139  10.240   5.429   6.749
   49POPC   C3B 1140  10.131   5.214   6.329
   49POPC   C4B 1141   9.867   5.163   5.922
   50POPC   NC3 1142   8.076  10.580   7.882
   50POPC   PO4 1143   8.494  10.123   7.956
   50POPC   GL1 1144   8.312  10.229   7.574
   50POPC   GL2 1145   8.065  10.494   7.384
   50POPC   C1A 1146   8.186  10.047   7.215
   50POPC   D2A 1147   8.040  10.249   6.843
   50POPC   C3A 1148   8.264  10.035   6.563
   50POPC   C4A 1149   8.446  10.127   6.196
   50POPC   C1B 1150   7.679  10.537   7.094
   50POPC   C2B 1151   7.542  10.766   6.778
   50POPC   C3B 1152   7.886  10.669   6.564
   50POPC   C4B 1153   7.960  10.334   6.297
   51POPC   NC3 1154  10.001   1.893   8.080
   51POPC   PO4 1155   9.394   1.665   8.257
   51POPC   GL1 1156   9.496   1.831   7.804
   51POPC   GL2 1157   9.714   2.158   7.750
   51POPC   C1A 1158   9.419   1.973   7.340
   51POPC   D2A 1159   9.686   1.943   6.941
   51POPC   C3A 1160   9.511   1.982   6.526
   51POPC   C4A 1161   9.309   1.795   6.171
   51POPC   C1B 1162   9.830   2.291   7.324
   51POPC   C2B 1163   9.504   2.430   7.002
   51POPC   C3B 1164   9.484   2.492   6.547
   51POPC   C4B 1165   9.844   2.320   6.308
   52POPC   NC3 1166  10.529   2.329   8.157
   52POPC   PO4 1167  10.746   1.750   8.314
   52POPC   GL1 1168  10.818   2.126   7.752
   52POPC   GL2 1169  10.400   2.155   7.513
   52POPC   C1A 1170  10.797   2.153   7.241
   52POPC   D2A 1171  10.453   1.984   6.944
   52POPC   C3A 1172  10.540   2.152   6.543
   52POPC   C4A 1173  10.563   2.018   6.148
   52POPC   C1B 1174  10.088   1.831   7.288
   52POPC   C2B 1175  10.095   1.607   6.876
   52POPC   C3B 1176  10.092   1.891   6.493
   52POPC   C4B 1177  10.047   1.943   6.011
   53POPC   NC3 1178   2.876   5.815   8.297
   53POPC   PO4 1179   3.269   6.192   8.118
   53POPC   GL1 1180   2.920   6.005   7.809
   53POPC   GL2 1181   2.629   5.717   7.747
   53POPC   C1A 1182   2.884   5.922   7.348
   53POPC   D2A 1183   2.909   6.133   6.929
   53POPC   C3A 1184   2.984   5.863   6.567
   53POPC   C4A 1185   3.117   5.912   6.134
   53POPC   C1B 1186   2.406   5.696   7.292
   53POPC   C2B 1187   2.471   5.563   6.817
   53POPC   C3B 1188   2.520   5.774   6.400
   53POPC   C4B 1189   2.632   5.956   5.965
   54POPC   NC3 1190   8.974   9.307   8.114
   54POPC   PO4 1191   9.035   9.955   8.293
   54POPC   GL1 1192   8.858   9.798   7.827
   54POPC   GL2 1193   8.696   9.481   7.705
   54POPC   C1A 1194   8.754   9.925   7.358
   54POPC   D2A 1195   8.971   9.939   6.918
   54POPC   C3A 1196   8.733   9.834   6.515
   54POPC   C4A 1197   8.712   9.714   6.026
   54POPC   C1B 1198   9.040   9.465   7.378
   54POPC   C2B 1199   9.202   9.276   6.983
   54POPC   C3B 1200   9.295   9.357   6.542
   54POPC   C4B 1201   9.149   9.659   6.249
   55POPC   NC3 1202   9.734   0.334   8.144
   55POPC   PO4 1203   9.312  11.348   8.066
   55POPC   GL1 1204   9.295   0.088   7.676
   55POPC   GL2 1205   9.437   0.421   7.697
   55POPC   C1A 1206   9.495   0.086   7.281
   55POPC   D2A 1207   9.400   0.346   6.942
   55POPC   C3A 1208   9.262   0.104   6.602
   55POPC   C4A 1209   9.293   0.272   6.197
   55POPC   C1B 1210   9.702   0.544   7.328
   55POPC   C2B 1211   9.800   0.683   6.882
   55POPC   C3B 1212   9.653   0.505   6.503
   55POPC   C4B 1213   9.758   0.461   6.057
   56POPC   NC3 1214   0.413   8.298   8.261
   56POPC   PO4 1215   0.316   7.787   7.961
   56POPC   GL1 1216   0.256   8.162   7.752
   56POPC   GL2 1217   0.581   8.286   7.734
   56POPC   C1A 1218   0.237   8.182   7.314
   56POPC   D2A 1219   0.527   8.208   6.968
   56POPC   C3A 1220   0.389   8.258   6.546
   56POPC   C4A 1221   0.423   8.064   6.147
   56POPC   C1B 1222   0.694   7.935   7.414
   56POPC   C2B 1223   0.696   7.721   6.962
   56POPC   C3B 1224   0.758   7.892   6.533
   56POPC   C4B 1225   0.846   7.811   6.075
   57POPC   NC3 1226   0.617   4.082   7.945
   57POPC   PO4 1227   0.425   3.395   8.062
   57POPC   GL1 1228   0.447   3.642   7.719
   57POPC   GL2 1229   0.616   3.355   7.571
   57POPC   C1A 1230   0.502   3.853   7.324
   57POPC   D2A 1231   0.708   3.900   6.923
   57POPC   C3A 1232   0.531   3.879   6.541
   57POPC   C4A 1233   0.632   3.720   6.138
   57POPC   C1B 1234   0.237   3.419   7.302
   57POPC   C2B 1235   0.321   3.537   6.883
   57POPC   C3B 1236   0.526   3.368   6.510
   57POPC   C4B 1237   0.190   3.451   6.200
   58POPC   NC3 1238   5.072  10.935   7.994
   58POPC   PO4 1239   4.482  11.289   8.034
   58POPC   GL1 1240   4.608  11.282   7.601
   58POPC   GL2 1241   4.857  11.087   7.581
   58POPC   C1A 1242   4.958  11.486   7.298
   58POPC   D2A 1243   5.208  11.384   6.929
   58POPC   C3A 1244   4.940  11.389   6.591
   58POPC   C4A 1245   4.972  11.493   6.163
   58POPC   C1B 1246   5.202  11.022   7.302
   58POPC   C2B 1247   5.194  10.849   6.882
   58POPC   C3B 1248   5.256  11.006   6.466
   58POPC   C4B 1249   5.171  10.948   6.052
   59POPC   NC3 1250   2.866   0.168   8.138
   59POPC   PO4 1251   2.951   0.792   8.173
   59POPC   GL1 1252   2.805   0.534   7.754
   59POPC   GL2 1253   2.501   0.348   7.793
   59POPC   C1A 1254   2.895   0.454   7.272
   59POPC   D2A 1255   2.589   0.346   6.908
   59POPC   C3A 1256   2.678   0.391   6.453
   59POPC   C4A 1257   2.968   0.114   6.191
   59POPC   C1B 1258   2.379   0.487   7.366
   59POPC   C2B 1259   2.256   0.749   6.988
   59POPC   C3B 1260   2.205   0.773   6.539
   59POPC   C4B 1261   2.459   0.722   6.120
   60POPC   NC3 1262   8.951   0.911   8.289
   60POPC   PO4 1263   8.381   1.376   8.151
   60POPC   GL1 1264   8.547   1.399   7.616
   60POPC   GL2 1265   8.852   1.178   7.531
   60POPC   C1A 1266   8.601   1.255   7.130
   60POPC   D2A 1267   8.882   1.288   6.804
   60POPC   C3A 1268   8.615   1.387   6.472
   60POPC   C4A 1269   8.674   1.373   5.977
   60POPC   C1B 1270   9.231   1.171   7.281
   60POPC   C2B 1271   9.332   0.893   6.945
   60POPC   C3B 1272   9.245   1.034   6.561
   60POPC   C4B 1273   9.071   1.351   6.299
   61POPC   NC3 1274   2.243  10.468   7.940
   61POPC   PO4 1275   1.658  10.734   8.149
   61POPC   GL1 1276   1.780  10.532   7.729
   61POPC   GL2 1277   1.852  10.142   7.743
   61POPC   C1A 1278   1.748  10.635   7.290
   61POPC   D2A 1279   1.691  10.830   6.902
   61POPC   C3A 1280   1.933  10.718   6.565
   61POPC   C4A 1281   1.860  10.589   6.201
   61POPC   C1B 1282   2.070  10.219   7.342
   61POPC   C2B 1283   2.027  10.373   6.918
   61POPC   C3B 1284   2.124  10.210   6.488
   61POPC   C4B 1285   2.029  10.168   6.021
   62POPC   NC3 1286   0.400   4.485   8.362
   62POPC   PO4 1287   0.145   4.039   7.976
   62POPC   GL1 1288   0.084   4.385   7.737
   62POPC   GL2 1289   0.383   4.513   7.815
   62POPC   C1A 1290   0.220   4.304   7.318
   62POPC   D2A 1291   0.215   4.062   6.953
   62POPC   C3A 1292   0.183   4.257   6.574
   62POPC   C4A 1293   0.215   4.017   6.180
   62POPC   C1B 1294   0.602   4.616   7.434
   62POPC   C2B 1295   0.661   4.473   6.996
   62POPC   C3B 1296   0.532   4.635   6.597
   62POPC   C4B 1297   0.524   4.441   6.200
   63POPC   NC3 1298   1.174   8.906   8.038
   63POPC   PO4 1299   1.534   9.509   8.118
   63POPC   GL1 1300   1.459   9.256   7.729
   63POPC   GL2 1301   1.105   9.244   7.665
   63POPC   C1A 1302   1.385   9.172   7.268
   63POPC   D2A 1303   1.087   9.181   6.943
   63POPC   C3A 1304   1.243   9.265   6.538
   63POPC   C4A 1305   1.388   9.022   6.182
   63POPC   C1B 1306   0.981   8.888   7.375
   63POPC   C2B 1307   1.183   8.682   7.006
   63POPC   C3B 1308   1.122   8.771   6.560
   63POPC   C4B 1309   0.836   8.831   6.216
   64POPC   NC3 1310   9.785  10.914   8.083
   64POPC   PO4 1311  10.174   0.106   8.212
   64POPC   GL1 1312  10.066  11.296   7.860
   64POPC   GL2 1313   9.720  11.327   7.745
   64POPC   C1A 1314   9.997  11.066   7.429
   64POPC   D2A 1315   9.808  11.215   7.047
   64POPC   C3A 1316   9.906  11.155   6.605
   64POPC   C4A 1317   9.851  10.877   6.245
   64POPC   C1B 1318   9.446  11.097   7.406
   64POPC   C2B 1319   9.314  11.145   6.929
   64POPC   C3B 1320   9.409  11.137   6.447
   64POPC   C4B 1321   9.235  11.308   6.022
   65POPC   NC3 1322   0.748   7.680   8.106
   65POPC   PO4 1323   1.399   7.665   7.952
   65POPC   GL1 1324   1.057   7.626   7.706
   65POPC   GL2 1325   0.988   7.286   7.866
   65POPC   C1A 1326   1.115   7.680   7.274
   65POPC   D2A 1327   1.421   7.801   6.996
   65POPC   C3A 1328   1.238   7.793   6.636
   65POPC   C4A 1329   1.266   7.603   6.277
   65POPC   C1B 1330   1.151   7.197   7.456
   65POPC   C2B 1331   0.971   7.168   7.036
   65POPC   C3B 1332   1.130   7.226   6.618
   65POPC   C4B 1333   1.544   7.197   6.399
   66POPC   NC3 1334   8.967   0.176   8.056
   66POPC   PO4 1335   9.371   0.700   8.165
   66POPC   GL1 1336   9.057   0.764   7.764
   66POPC   GL2 1337   8.902   0.455   7.647
   66POPC   C1A 1338   8.943   0.751   7.252
   66POPC   D2A 1339   8.701   0.826   6.841
   66POPC   C3A 1340   8.756   0.926   6.349
   66POPC   C4A 1341   8.622   0.816   5.878
   66POPC   C1B 1342   8.982   0.223   7.281
   66POPC   C2B 1343   8.883   0.348   6.891
   66POPC   C3B 1344   9.039   0.555   6.554
   66POPC   C4B 1345   8.791   0.449   6.206
   67POPC   NC3 1346   4.319   2.856   8.065
   67POPC   PO4 1347   3.708   3.142   7.992
   67POPC   GL1 1348   3.892   2.891   7.693
   67POPC   GL2 1349   4.237   2.790   7.550
   67POPC   C1A 1350   3.854   2.896   7.245
   67POPC   D2A 1351   4.128   2.752   6.908
   67POPC   C3A 1352   4.163   2.930   6.493
   67POPC   C4A 1353   4.371   3.095   6.143
   67POPC   C1B 1354   4.281   2.402   7.265
   67POPC   C2B 1355   4.209   2.235   6.887
   67POPC   C3B 1356   4.198   2.422   6.507
   67POPC   C4B 1357   4.518   2.594   6.241
   68POPC   NC3 1358   9.973   9.355   8.122
   68POPC   PO4 1359   9.827   8.716   8.086
   68POPC   GL1 1360   9.734   8.929   7.712
   68POPC   GL2 1361   9.370   9.036   7.681
   68POPC   C1A 1362   9.973   8.999   7.340
   68POPC   D2A 1363   9.951   8.733   6.959
   68POPC   C3A 1364   9.925   8.876   6.521
   68POPC   C4A 1365   9.894   9.096   6.129
   68POPC   C1B 1366   9.473   8.899   7.223
   68POPC   C2B 1367   9.488   8.910   6.756
   68POPC   C3B 1368   9.408   8.875   6.338
   68POPC   C4B 1369   9.139   8.501   6.392
   69POPC   NC3 1370  11.485   3.616   8.093
   69POPC   PO4 1371  10.754   3.585   7.964
   69POPC   GL1 1372  10.841   3.549   7.578
   69POPC   GL2 1373  11.161   3.396   7.650
   69POPC   C1A 1374  10.854   3.761   7.206
   69POPC   D2A 1375  10.916   3.625   6.799
   69POPC   C3A 1376  10.747   3.849   6.463
   69POPC   C4A 1377  11.043   3.653   6.152
   69POPC   C1B 1378  11.297   3.146   7.303
   69POPC   C2B 1379  11.353   3.259   6.869
   69POPC   C3B 1380  11.255   3.230   6.425
   69POPC   C4B 1381  10.970   2.923   6.235
   70POPC   NC3 1382   1.221   5.966   7.956
   70POPC   PO4 1383   0.924   5.408   8.073
   70POPC   GL1 1384   1.041   5.576   7.673
   70POPC   GL2 1385   1.384   5.526   7.693
   70POPC   C1A 1386   0.876   5.495   7.248
   70POPC   D2A 1387   0.728   5.512   6.824
   70POPC   C3A 1388   0.983   5.294   6.509
   70POPC   C4A 1389   1.084   5.406   6.072
   70POPC   C1B 1390   1.331   5.749   7.289
   70POPC   C2B 1391   1.247   5.587   6.882
   70POPC   C3B 1392   1.182   5.757   6.488
   70POPC   C4B 1393   1.334   5.890   6.087
   71POPC   NC3 1394  10.131   6.699   8.121
   71POPC   PO4 1395  10.023   6.012   8.174
   71POPC   GL1 1396  10.302   6.172   7.814
   71POPC   GL2 1397  10.499   6.497   7.810
   71POPC   C1A 1398  10.404   6.276   7.351
   71POPC   D2A 1399  10.543   6.262   6.911
   71POPC   C3A 1400  10.314   6.484   6.629
   71POPC   C4A 1401  10.054   6.503   6.280
   71POPC   C1B 1402  10.646   6.715   7.401
   71POPC   C2B 1403  10.569   6.781   6.972
   71POPC   C3B 1404  10.720   6.818   6.576
   71POPC   C4B 1405  10.548   6.702   6.221
   72POPC   NC3 1406   2.782   1.163   7.959
   72POPC   PO4 1407   3.034   1.787   8.119
   72POPC   GL1 1408   3.045   1.503   7.642
   72POPC   GL2 1409   2.751   1.430   7.530
   72POPC   C1A 1410   3.069   1.318   7.176
   72POPC   D2A 1411   2.813   1.450   6.876
   72POPC   C3A 1412   2.860   1.404   6.455
   72POPC   C4A 1413   2.607   1.627   6.216
   72POPC   C1B 1414   2.581   1.105   7.262
   72POPC   C2B 1415   2.776   0.856   6.948
   72POPC   C3B 1416   2.700   0.918   6.528
   72POPC   C4B 1417   2.392   1.185   6.319
   73POPC   NC3 1418   9.695   7.609   8.071
   73POPC   PO4 1419   9.768   6.973   8.066
   73POPC   GL1 1420   9.682   7.295   7.664
   73POPC   GL2 1421   9.870   7.631   7.591
   73POPC   C1A 1422   9.523   7.462   7.215
   73POPC   D2A 1423   9.469   7.433   6.726
   73POPC   C3A 1424   9.449   7.122   6.353
   73POPC   C4A 1425   9.482   6.866   5.939
   73POPC   C1B 1426  10.005   7.342   7.266
   73POPC   C2B 1427   9.999   7.279   6.830
   73POPC   C3B 1428   9.897   7.422   6.422
   73POPC   C4B 1429   9.832   7.232   6.029
   74POPC   NC3 1430  10.552   3.975   8.096
   74POPC   PO4 1431  10.815   4.550   7.803
   74POPC   GL1 1432  10.611   4.450   7.488
   74POPC   GL2 1433  10.431   4.232   7.678
   74POPC   C1A 1434  10.768   4.321   7.112
   74POPC   D2A 1435  10.743   4.583   6.792
   74POPC   C3A 1436  10.644   4.422   6.405
   74POPC   C4A 1437  10.665   4.566   5.979
   74POPC   C1B 1438  10.421   4.006   7.322
   74POPC   C2B 1439  10.476   3.961   6.910
   74POPC   C3B 1440  10.248   4.131   6.624
   74POPC   C4B 1441  10.310   4.089   6.233
   75POPC   NC3 1442   5.088  10.307   8.344
   75POPC   PO4 1443   4.890   9.724   7.995
   75POPC   GL1 1444   4.800  10.118   7.730
   75POPC   GL2 1445   5.055  10.416   7.716
   75POPC   C1A 1446   4.948  10.133   7.279
   75POPC   D2A 1447   5.092  10.317   6.878
   75POPC   C3A 1448   4.947  10.046   6.518
   75POPC   C4A 1449   5.069   9.831   6.107
   75POPC   C1B 1450   4.874  10.631   7.337
   75POPC   C2B 1451   4.685  10.641   6.908
   75POPC   C3B 1452   4.878  10.598   6.479
   75POPC   C4B 1453   5.040  10.354   6.123
   76POPC   NC3 1454   7.577   8.204   8.096
   76POPC   PO4 1455   6.988   8.336   7.979
   76POPC   GL1 1456   7.177   8.464   7.593
   76POPC   GL2 1457   7.414   8.230   7.597
   76POPC   C1A 1458   7.166   8.492   7.141
   76POPC   D2A 1459   7.167   8.201   6.779
   76POPC   C3A 1460   7.047   8.322   6.370
   76POPC   C4A 1461   7.068   8.638   6.044
   76POPC   C1B 1462   7.393   8.038   7.213
   76POPC   C2B 1463   7.588   7.907   6.828
   76POPC   C3B 1464   7.427   7.937   6.393
   76POPC   C4B 1465   7.527   7.830   5.946
   77POPC   NC3 1466   2.379  11.143   8.442
   77POPC   PO4 1467   3.054  11.312   8.343
   77POPC   GL1 1468   2.678  11.343   7.844
   77POPC   GL2 1469   2.404  11.180   7.762
   77POPC   C1A 1470   2.650   0.032   7.423
   77POPC   D2A 1471   2.883  11.403   7.043
   77POPC   C3A 1472   2.711  11.419   6.626
   77POPC   C4A 1473   2.495  11.423   6.225
   77POPC   C1B 1474   2.653  11.034   7.386
   77POPC   C2B 1475   2.702  10.902   6.961
   77POPC   C3B 1476   2.806  10.943   6.524
   77POPC   C4B 1477   2.608  10.917   6.117
   78POPC   NC3 1478   8.029   0.550   8.121
   78POPC   PO4 1479   8.683   0.576   8.094
   78POPC   GL1 1480   8.409   0.604   7.732
   78POPC   GL2 1481   8.189   0.332   7.705
   78POPC   C1A 1482   8.475   0.519   7.301
   78POPC   D2A 1483   8.246   0.619   6.946
   78POPC   C3A 1484   8.431   0.490   6.566
   78POPC   C4A 1485   8.227   0.578   6.203
   78POPC   C1B 1486   7.828   0.328   7.425
   78POPC   C2B 1487   7.889   0.260   6.992
   78POPC   C3B 1488   7.878   0.444   6.584
   78POPC   C4B 1489   7.738   0.151   6.286
   79POPC   NC3 1490   2.015   0.529   8.157
   79POPC   PO4 1491   2.408   0.051   8.220
   79POPC   GL1 1492   2.084   0.068   7.846
   79POPC   GL2 1493   1.900   0.367   7.684
   79POPC   C1A 1494   2.118   0.007   7.389
   79POPC   D2A 1495   2.370  11.367   7.022
   79POPC   C3A 1496   2.195   0.047   6.622
   79POPC   C4A 1497   2.167   0.340   6.282
   79POPC   C1B 1498   1.873   0.492   7.250
   79POPC   C2B 1499   1.872   0.389   6.813
   79POPC   C3B 1500   1.732   0.598   6.441
   79POPC   C4B 1501   1.707   0.521   6.019
   80POPC   NC3 1502  10.834   3.286   8.306
   80POPC   PO4 1503  10.161   3.390   8.301
   80POPC   GL1 1504  10.318   3.407   7.804
   80POPC   GL2 1505  10.320   3.719   7.702
   80POPC   C1A 1506  10.603   3.101   7.517
   80POPC   D2A 1507  10.826   3.234   7.142
   80POPC   C3A 1508  10.841   3.099   6.724
   80POPC   C4A 1509  10.737   3.345   6.388
   80POPC   C1B 1510  10.405   3.503   7.288
   80POPC   C2B 1511  10.422   3.469   6.821
   80POPC   C3B 1512  10.288   3.601   6.399
   80POPC   C4B 1513  10.509   3.622   5.997
   81POPC   NC3 1514  11.116   6.577   8.243
   81POPC   PO4 1515  10.536   6.928   8.137
   81POPC   GL1 1516  10.448   7.060   7.708
   81POPC   GL2 1517  10.200   7.297   7.782
   81POPC   C1A 1518  10.488   7.194   7.235
   81POPC   D2A 1519  10.626   7.279   6.783
   81POPC   C3A 1520  10.326   7.130   6.460
   81POPC   C4A 1521  10.310   7.117   6.010
   81POPC   C1B 1522  10.372   7.621   7.470
   81POPC   C2B 1523  10.346   7.637   6.991
   81POPC   C3B 1524  10.367   7.660   6.517
   81POPC   C4B 1525  10.218   7.630   6.074
   82POPC   NC3 1526   0.524   9.948   7.922
   82POPC   PO4 1527   0.783   9.260   8.063
   82POPC   GL1 1528   0.688   9.517   7.714
   82POPC   GL2 1529   0.319   9.520   7.726
   82POPC   C1A 1530   0.839   9.483   7.275
   82POPC   D2A 1531   0.656   9.726   6.917
   82POPC   C3A 1532   0.604   9.616   6.465
   82POPC   C4A 1533   0.900   9.422   6.182
   82POPC   C1B 1534   0.324   9.572   7.306
   82POPC   C2B 1535   0.153   9.845   7.009
   82POPC   C3B 1536  11.479   9.965   6.626
   82POPC   C4B 1537   0.170   9.867   6.238
   83POPC   NC3 1538   3.382   2.099   8.192
   83POPC   PO4 1539   3.853   1.528   7.979
   83POPC   GL1 1540   3.674   1.658   7.590
   83POPC   GL2 1541   3.534   1.966   7.646
   83POPC   C1A 1542   3.449   1.625   7.256
   83POPC   D2A 1543   3.578   1.582   6.864
   83POPC   C3A 1544   3.354   1.580   6.490
   83POPC   C4A 1545   3.550   1.697   6.108
   83POPC   C1B 1546   3.401   2.120   7.225
   83POPC   C2B 1547   3.299   2.335   6.818
   83POPC   C3B 1548   3.409   2.192   6.412
   83POPC   C4B 1549   3.804   2.164   6.200
   84POPC   NC3 1550   6.707  10.794   8.000
   84POPC   PO4 1551   7.051  10.249   8.138
   84POPC   GL1 1552   6.853  10.386   7.724
   84POPC   GL2 1553   6.452  10.415   7.762
   84POPC   C1A 1554   6.747  10.662   7.346
   84POPC   D2A 1555   6.474  10.639   6.970
   84POPC   C3A 1556   6.602  10.478   6.553
   84POPC   C4A 1557   6.680  10.710   6.209
   84POPC   C1B 1558   6.457  10.239   7.339
   84POPC   C2B 1559   6.572  10.113   6.918
   84POPC   C3B 1560   6.405  10.007   6.509
   84POPC   C4B 1561   6.581   9.909   6.100
   85POPC   NC3 1562   9.639   2.745   7.972
   85POPC   PO4 1563   9.053   2.556   7.956
   85POPC   GL1 1564   9.231   2.817   7.629
   85POPC   GL2 1565   9.419   2.536   7.524
   85POPC   C1A 1566   9.303   3.054   7.210
   85POPC   D2A 1567   9.529   2.926   6.841
   85POPC   C3A 1568   9.439   3.024   6.432
   85POPC   C4A 1569   9.508   2.761   6.080
   85POPC   C1B 1570   9.714   2.785   7.287
   85POPC   C2B 1571   9.971   2.677   6.922
   85POPC   C3B 1572   9.900   2.792   6.489
   85POPC   C4B 1573   9.971   2.971   6.095
   86POPC   NC3 1574   0.202   9.161   8.059
   86POPC   PO4 1575   0.053   8.535   8.086
   86POPC   GL1 1576   0.274   8.722   7.728
   86POPC   GL2 1577   0.641   8.817   7.802
   86POPC   C1A 1578   0.476   8.635   7.316
   86POPC   D2A 1579   0.689   8.694   6.913
   86POPC   C3A 1580   0.373   8.766   6.597
   86POPC   C4A 1581   0.309   8.672   6.167
   86POPC   C1B 1582   0.528   9.112   7.463
   86POPC   C2B 1583   0.521   9.172   7.014
   86POPC   C3B 1584   0.716   9.143   6.609
   86POPC   C4B 1585   0.460   9.168   6.252
   87POPC   NC3 1586   6.674   2.713   8.017
   87POPC   PO4 1587   7.221   2.310   7.844
   87POPC   GL1 1588   6.887   2.273   7.558
   87POPC   GL2 1589   6.570   2.431   7.587
   87POPC   C1A 1590   6.741   2.255   7.124
   87POPC   D2A 1591   6.651   2.477   6.744
   87POPC   C3A 1592   6.575   2.347   6.327
   87POPC   C4A 1593   6.768   2.629   6.009
   87POPC   C1B 1594   6.480   2.691   7.208
   87POPC   C2B 1595   6.428   2.935   6.811
   87POPC   C3B 1596   6.386   2.818   6.368
   87POPC   C4B 1597   6.152   2.906   5.981
   88POPC   NC3 1598   6.022  10.397   8.122
   88POPC   PO4 1599   5.369  10.593   8.116
   88POPC   GL1 1600   5.541  10.598   7.712
   88POPC   GL2 1601   5.859  10.720   7.750
   88POPC   C1A 1602   5.413  10.526   7.277
   88POPC   D2A 1603   5.623  10.556   6.861
   88POPC   C3A 1604   5.386  10.507   6.472
   88POPC   C4A 1605   5.474  10.536   5.995
   88POPC   C1B 1606   6.019  10.530   7.380
   88POPC   C2B 1607   6.080  10.335   6.980
   88POPC   C3B 1608   6.079  10.453   6.586
   88POPC   C4B 1609   5.822  10.320   6.291
   89POPC   NC3 1610   1.134   1.952   7.900
   89POPC   PO4 1611   1.679   2.211   8.195
   89POPC   GL1 1612   1.591   2.080   7.654
   89POPC   GL2 1613   1.422   1.801   7.526
   89POPC   C1A 1614   1.372   2.229   7.263
   89POPC   D2A 1615   1.171   2.186   6.883
   89POPC   C3A 1616   1.447   2.204   6.547
   89POPC   C4A 1617   1.219   2.274   6.185
   89POPC   C1B 1618   1.061   1.796   7.251
   89POPC   C2B 1619   0.904   1.742   6.848
   89POPC   C3B 1620   1.155   1.788   6.489
   89POPC   C4B 1621   1.366   1.562   6.157
   90POPC   NC3 1622   6.061   0.594   8.010
   90POPC   PO4 1623   6.787   0.440   8.076
   90POPC   GL1 1624   6.798   0.353   7.684
   90POPC   GL2 1625   6.927   0.058   7.661
   90POPC   C1A 1626   6.826   0.373   7.256
   90POPC   D2A 1627   6.618   0.568   6.932
   90POPC   C3A 1628   6.806   0.569   6.511
   90POPC   C4A 1629   6.714   0.791   6.103
   90POPC   C1B 1630   6.470   0.075   7.412
   90POPC   C2B 1631   6.420   0.080   6.978
   90POPC   C3B 1632   6.326   0.311   6.600
   90POPC   C4B 1633   6.389   0.301   6.190
   91POPC   NC3 1634   4.339   1.868   8.019
   91POPC   PO4 1635   3.824   2.158   8.124
   91POPC   GL1 1636   4.037   1.993   7.660
   91POPC   GL2 1637   4.192   1.672   7.568
   91POPC   C1A 1638   3.886   1.934   7.204
   91POPC   D2A 1639   3.786   2.017   6.736
   91POPC   C3A 1640   4.167   1.923   6.471
   91POPC   C4A 1641   4.299   2.152   6.090
   91POPC   C1B 1642   4.395   1.851   7.171
   91POPC   C2B 1643   4.558   1.719   6.730
   91POPC   C3B 1644   4.674   1.894   6.288
   91POPC   C4B 1645   4.502   1.774   5.822
   92POPC   NC3 1646   7.635  11.156   7.911
   92POPC   PO4 1647   6.924  11.219   8.040
   92POPC   GL1 1648   7.078  10.984   7.633
   92POPC   GL2 1649   7.337  11.187   7.505
   92POPC   C1A 1650   7.164  10.896   7.139
   92POPC   D2A 1651   7.208  11.153   6.739
   92POPC   C3A 1652   6.978  11.093   6.360
   92POPC   C4A 1653   7.069  10.880   5.942
   92POPC   C1B 1654   7.703  11.326   7.240
   92POPC   C2B 1655   7.835  11.233   6.821
   92POPC   C3B 1656   7.695  11.134   6.414
   92POPC   C4B 1657   7.400  11.251   6.130
   93POPC   NC3 1658   0.429  10.491   8.152
   93POPC   PO4 1659   0.068   9.949   7.941
   93POPC   GL1 1660   0.200  10.042   7.524
   93POPC   GL2 1661   0.405  10.346   7.616
   93POPC   C1A 1662   0.152  10.334   7.165
   93POPC   D2A 1663   0.294  10.615   6.833
   93POPC   C3A 1664   0.198  10.408   6.469
   93POPC   C4A 1665   0.539  10.119   6.472
   93POPC   C1B 1666   0.597  10.554   7.253
   93POPC   C2B 1667   0.810  10.735   6.920
   93POPC   C3B 1668   0.743  10.612   6.538
   93POPC   C4B 1669   0.545  10.632   6.163
   94POPC   NC3 1670   4.261   0.320   8.254
   94POPC   PO4 1671   4.614   0.775   7.928
   94POPC   GL1 1672   4.279   0.548   7.691
   94POPC   GL2 1673   4.299   0.199   7.723
   94POPC   C1A 1674   4.060   0.427   7.287
   94POPC   D2A 1675   3.843   0.291   6.889
   94POPC   C3A 1676   4.054   0.432   6.516
   94POPC   C4A 1677   4.348   0.721   6.292
   94POPC   C1B 1678   4.465   0.127   7.279
   94POPC   C2B 1679   4.550   0.077   6.852
   94POPC   C3B 1680   4.528   0.185   6.424
   94POPC   C4B 1681   4.443  11.395   6.085
   95POPC   NC3 1682   7.186   1.856   7.952
   95POPC   PO4 1683   7.717   2.112   8.279
   95POPC   GL1 1684   7.654   2.066   7.762
   95POPC   GL2 1685   7.484   1.792   7.551
   95POPC   C1A 1686   7.589   2.178   7.255
   95POPC   D2A 1687   7.444   1.980   6.824
   95POPC   C3A 1688   7.493   2.174   6.408
   95POPC   C4A 1689   7.472   2.032   5.978
   95POPC   C1B 1690   7.133   1.942   7.223
   95POPC   C2B 1691   6.937   1.960   6.746
   95POPC   C3B 1692   7.000   2.050   6.269
   95POPC   C4B 1693   6.733   2.134   5.886
   96POPC   NC3 1694  11.155   4.336   8.048
   96POPC   PO4 1695  11.099   3.695   8.346
   96POPC   GL1 1696  11.155   3.879   7.837
   96POPC   GL2 1697  10.919   4.059   7.644
   96POPC   C1A 1698  11.338   3.835   7.373
   96POPC   D2A 1699  11.202   4.038   6.937
   96POPC   C3A 1700  11.271   3.952   6.480
   96POPC   C4A 1701  10.976   4.150   6.128
   96POPC   C1B 1702  11.213   4.332   7.364
   96POPC   C2B 1703  11.221   4.550   6.959
   96POPC   C3B 1704  11.152   4.432   6.536
   96POPC   C4B 1705  11.422   4.422   6.170
   97POPC   NC3 1706   8.113   1.742   8.310
   97POPC   PO4 1707   8.639   2.148   8.305
   97POPC   GL1 1708   8.549   1.852   7.901
   97POPC   GL2 1709   8.197   1.727   7.804
   97POPC   C1A 1710   8.518   1.855   7.413
   97POPC   D2A 1711   8.277   1.956   7.011
   97POPC   C3A 1712   8.439   1.905   6.574
   97POPC   C4A 1713   8.304   1.674   6.235
   97POPC   C1B 1714   7.985   1.885   7.437
   97POPC   C2B 1715   7.816   1.728   7.041
   97POPC   C3B 1716   7.892   1.844   6.599
   97POPC   C4B 1717   8.054   2.106   6.261
   98POPC   NC3 1718  11.176   5.851   8.237
   98POPC   PO4 1719   0.180   6.007   7.778
   98POPC   GL1 1720  11.388   5.812   7.513
   98POPC   GL2 1721  11.189   5.665   7.736
   98POPC   C1A 1722  11.363   5.753   7.096
   98POPC   D2A 1723  11.188   5.556   6.753
   98POPC   C3A 1724  11.206   5.806   6.418
   98POPC   C4A 1725  10.988   6.011   6.092
   98POPC   C1B 1726  10.978   5.483   7.348
   98POPC   C2B 1727  10.726   5.542   6.941
   98POPC   C3B 1728  10.745   5.403   6.516
   98POPC   C4B 1729  10.813   5.557   6.104
   99POPC   NC3 1730   1.520   6.479   8.270
   99POPC   PO4 1731   0.893   6.317   8.085
   99POPC   GL1 1732   1.159   6.418   7.724
   99POPC   GL2 1733   1.252   6.771   7.757
   99POPC   C1A 1734   1.201   6.258   7.287
   99POPC   D2A 1735   1.318   6.093   6.862
   99POPC   C3A 1736   1.171   6.260   6.451
   99POPC   C4A 1737   1.468   6.396   6.139
   99POPC   C1B 1738   1.024   6.728   7.327
   99POPC   C2B 1739   1.140   6.620   6.883
   99POPC   C3B 1740   1.255   6.759   6.453
   99POPC   C4B 1741   1.032   6.710   6.063
  100POPC   NC3 1742   1.427   4.324   8.090
  100POPC   PO4 1743   0.793   4.578   8.138
  100POPC   GL1 1744   0.966   4.408   7.712
  100POPC   GL2 1745   1.308   4.207   7.618
  100POPC   C1A 1746   0.920   4.172   7.316
  100POPC   D2A 1747   1.156   4.119   6.924
  100POPC   C3A 1748   0.890   4.252   6.575
  100POPC   C4A 1749   0.974   4.162   6.152
  100POPC   C1B 1750   1.400   4.443   7.268
  100POPC   C2B 1751   1.361   4.571   6.843
  100POPC   C3B 1752   1.365   4.368   6.436
  100POPC   C4B 1753   1.366   4.501   6.015
  101POPC   NC3 1754   7.243   9.823   8.125
  101POPC   PO4 1755   7.209   9.221   7.943
  101POPC   GL1 1756   7.473   9.384   7.618
  101POPC   GL2 1757   7.483   9.724   7.672
  101POPC   C1A 1758   7.368   9.438   7.166
  101POPC   D2A 1759   7.510   9.544   6.778
  101POPC   C3A 1760   7.286   9.703   6.429
  101POPC   C4A 1761   7.091   9.480   6.102
  101POPC   C1B 1762   7.214   9.890   7.323
  101POPC   C2B 1763   7.113   9.995   6.846
  101POPC   C3B 1764   6.981  10.122   6.393
  101POPC   C4B 1765   7.066   9.960   5.941
  102POPC   NC3 1766   2.174   8.612   7.984
  102POPC   PO4 1767   1.490   8.555   8.014
  102POPC   GL1 1768   1.523   8.713   7.611
  102POPC   GL2 1769   1.827   8.867   7.687
  102POPC   C1A 1770   1.657   8.768   7.186
  102POPC   D2A 1771   1.587   8.977   6.801
  102POPC   C3A 1772   1.638   8.681   6.459
  102POPC   C4A 1773   1.756   8.383   6.112
  102POPC   C1B 1774   2.125   8.800   7.352
  102POPC   C2B 1775   2.098   8.956   6.956
  102POPC   C3B 1776   2.221   8.870   6.579
  102POPC   C4B 1777   2.044   8.840   6.200
  103POPC   NC3 1778   2.980   6.523   8.069
  103POPC   PO4 1779   2.471   6.013   8.133
  103POPC   GL1 1780   2.463   6.193   7.680
  103POPC   GL2 1781   2.632   6.484   7.681
  103POPC   C1A 1782   2.476   6.196   7.224
  103POPC   D2A 1783   2.421   6.056   6.794
  103POPC   C3A 1784   2.658   6.251   6.407
  103POPC   C4A 1785   2.491   6.458   6.012
  103POPC   C1B 1786   2.616   6.677   7.260
  103POPC   C2B 1787   2.572   6.538   6.835
  103POPC   C3B 1788   2.665   6.748   6.452
  103POPC   C4B 1789   2.921   6.756   6.088
  104POPC   NC3 1790   7.756   1.304   8.428
  104POPC   PO4 1791   7.140   1.376   8.055
  104POPC   GL1 1792   7.340   1.290   7.632
  104POPC   GL2 1793   7.563   0.980   7.715
  104POPC   C1A 1794   7.376   1.480   7.167
  104POPC   D2A 1795   7.513   1.459   6.703
  104POPC   C3A 1796   7.343   1.612   6.263
  104POPC   C4A 1797   7.470   1.509   5.784
  104POPC   C1B 1798   7.595   1.020   7.267
  104POPC   C2B 1799   7.235   1.025   6.975
  104POPC   C3B 1800   7.081   1.038   6.552
  104POPC   C4B 1801   7.471   1.106   6.319
  105POPC   NC3 1802   3.666  10.310   8.194
  105POPC   PO4 1803   3.001  10.257   8.024
  105POPC   GL1 1804   3.253  10.233   7.707
  105POPC   GL2 1805   3.404  10.528   7.802
  105POPC   C1A 1806   3.296  10.044   7.303
  105POPC   D2A 1807   3.436  10.238   6.932
  105POPC   C3A 1808   3.243  10.129   6.550
  105POPC   C4A 1809   3.488  10.072   6.216
  105POPC   C1B 1810   3.554  10.489   7.376
  105POPC   C2B 1811   3.611  10.717   6.980
  105POPC   C3B 1812   3.501  10.628   6.549
  105POPC   C4B 1813   3.810  10.495   6.230
  106POPC   NC3 1814   0.564   6.699   8.130
  106POPC   PO4 1815  11.484   6.284   8.258
  106POPC   GL1 1816   0.163   6.518   7.859
  106POPC   GL2 1817   0.513   6.395   7.711
  106POPC   C1A 1818   0.159   6.614   7.391
  106POPC   D2A 1819  11.495   6.505   6.964
  106POPC   C3A 1820   0.222   6.636   6.594
  106POPC   C4A 1821   0.267   6.654   6.148
  106POPC   C1B 1822   0.620   6.411   7.256
  106POPC   C2B 1823   0.632   6.730   6.921
  106POPC   C3B 1824   0.724   6.744   6.480
  106POPC   C4B 1825   0.684   6.361   6.211
  107POPC   NC3 1826   5.825  11.128   8.120
  107POPC   PO4 1827   5.197  11.404   7.948
  107POPC   GL1 1828   5.540  11.139   7.693
  107POPC   GL2 1829   5.945  11.225   7.663
  107POPC   C1A 1830   5.716  10.949   7.308
  107POPC   D2A 1831   5.999  10.903   6.976
  107POPC   C3A 1832   5.746  11.026   6.658
  107POPC   C4A 1833   5.738  10.835   6.298
  107POPC   C1B 1834   6.009  11.388   7.324
  107POPC   C2B 1835   5.912  11.435   6.959
  107POPC   C3B 1836   6.132  11.353   6.614
  107POPC   C4B 1837   6.012  11.405   6.217
  108POPC   NC3 1838   9.945   3.703   8.056
  108POPC   PO4 1839   9.881   3.108   7.860
  108POPC   GL1 1840   9.902   3.406   7.517
  108POPC   GL2 1841   9.818   3.739   7.534
  108POPC   C1A 1842   9.949   3.492   7.082
  108POPC   D2A 1843   9.941   3.211   6.784
  108POPC   C3A 1844   9.820   3.371   6.388
  108POPC   C4A 1845   9.605   3.329   5.996
  108POPC   C1B 1846   9.472   3.560   7.228
  108POPC   C2B 1847   9.407   3.410   6.780
  108POPC   C3B 1848   9.304   3.564   6.344
  108POPC   C4B 1849   9.498   3.837   6.017
  109POPC   NC3 1850   2.089   4.582   8.071
  109POPC   PO4 1851   2.049   3.987   8.146
  109POPC   GL1 1852   1.820   4.098   7.761
  109POPC   GL2 1853   2.144   4.028   7.617
  109POPC   C1A 1854   1.745   4.068   7.278
  109POPC   D2A 1855   1.693   4.179   6.807
  109POPC   C3A 1856   1.818   4.573   6.548
  109POPC   C4A 1857   1.873   4.781   6.130
  109POPC   C1B 1858   2.245   3.852   7.219
  109POPC   C2B 1859   2.208   4.018   6.793
  109POPC   C3B 1860   2.270   4.166   6.365
  109POPC   C4B 1861   1.921   4.274   6.117
  110POPC   NC3 1862  10.195   8.427   8.055
  110POPC   PO4 1863  10.378   9.132   8.165
  110POPC   GL1 1864  10.265   8.866   7.780
  110POPC   GL2 1865  10.561   8.677   7.691
  110POPC   C1A 1866  10.192   8.548   7.398
  110POPC   D2A 1867  10.424   8.496   7.016
  110POPC   C3A 1868  10.354   8.597   6.566
  110POPC   C4A 1869  10.199   8.683   6.126
  110POPC   C1B 1870  10.577   8.887   7.317
  110POPC   C2B 1871  10.813   9.002   6.969
  110POPC   C3B 1872  10.808   8.960   6.531
  110POPC   C4B 1873  10.657   8.913   6.115
  111POPC   NC3 1874   0.563   0.522   8.050
  111POPC   PO4 1875   0.319  11.411   8.102
  111POPC   GL1 1876   0.537   0.090   7.709
  111POPC   GL2 1877   0.458   0.428   7.557
  111POPC   C1A 1878   0.446   0.031   7.248
  111POPC   D2A 1879   0.375   0.257   6.856
  111POPC   C3A 1880   0.366   0.018   6.450
  111POPC   C4A 1881   0.463   0.164   5.991
  111POPC   C1B 1882   0.357   0.711   7.192
  111POPC   C2B 1883   0.397   0.774   6.735
  111POPC   C3B 1884   0.483   0.527   6.398
  111POPC   C4B 1885   0.838   0.481   6.184
  112POPC   NC3 1886  10.643   9.597   8.028
  112POPC   PO4 1887   9.976   9.825   8.216
  112POPC   GL1 1888  10.210   9.766   7.812
  112POPC   GL2 1889  10.331   9.396   7.694
  112POPC   C1A 1890  10.249   9.820   7.364
  112POPC   D2A 1891  10.044   9.669   6.982
  112POPC   C3A 1892  10.245   9.650   6.582
  112POPC   C4A 1893  10.140   9.618   6.140
  112POPC   C1B 1894  10.355   9.338   7.236
  112POPC   C2B 1895  10.288   9.100   6.855
  112POPC   C3B 1896  10.328   9.162   6.423
  112POPC   C4B 1897  10.618   9.416   6.235
  113POPC   NC3 1898   9.585  10.048   8.393
  113POPC   PO4 1899   9.332   9.578   7.973
  113POPC   GL1 1900   9.686   9.697   7.778
  113POPC   GL2 1901   9.832   9.434   7.644
  113POPC   C1A 1902   9.700   9.847   7.341
  113POPC   D2A 1903   9.528   9.708   6.915
  113POPC   C3A 1904   9.728   9.883   6.544
  113POPC   C4A 1905   9.476  10.021   6.193
  113POPC   C1B 1906   9.594   9.365   7.317
  113POPC   C2B 1907   9.782   9.248   6.943
  113POPC   C3B 1908   9.820   9.376   6.546
  113POPC   C4B 1909   9.634   9.524   6.168
  114POPC   NC3 1910  10.182  10.333   8.126
  114POPC   PO4 1911  10.850  10.135   8.288
  114POPC   GL1 1912  10.619  10.446   7.884
  114POPC   GL2 1913  10.356  10.282   7.653
  114POPC   C1A 1914  10.743  10.503   7.424
  114POPC   D2A 1915  10.505  10.299   7.087
  114POPC   C3A 1916  10.576  10.386   6.637
  114POPC   C4A 1917  10.677  10.211   6.236
  114POPC   C1B 1918  10.258  10.647   7.381
  114POPC   C2B 1919   9.982  10.704   7.014
  114POPC   C3B 1920  10.089  10.598   6.591
  114POPC   C4B 1921  10.315  10.568   6.189
  115POPC   NC3 1922  10.652   7.892   8.001
  115POPC   PO4 1923  10.035   7.936   8.028
  115POPC   GL1 1924  10.182   8.069   7.636
  115POPC   GL2 1925  10.514   8.170   7.592
  115POPC   C1A 1926  10.188   8.069   7.195
  115POPC   D2A 1927  10.020   8.240   6.825
  115POPC   C3A 1928  10.078   8.090   6.402
  115POPC   C4A 1929  10.156   8.147   5.963
  115POPC   C1B 1930  10.687   7.944   7.228
  115POPC   C2B 1931  10.588   8.053   6.800
  115POPC   C3B 1932  10.587   8.161   6.370
  115POPC   C4B 1933  10.629   7.931   5.984
  116POPC   NC3 1934   0.002   7.446   7.935
  116POPC   PO4 1935   0.579   7.166   8.176
  116POPC   GL1 1936   0.465   7.317   7.735
  116POPC   GL2 1937   0.194   7.057   7.653
  116POPC   C1A 1938   0.339   7.575   7.327
  116POPC   D2A 1939   0.142   7.575   6.898
  116POPC   C3A 1940   0.355   7.597   6.492
  116POPC   C4A 1941   0.747   7.410   6.351
  116POPC   C1B 1942   0.451   7.076   7.258
  116POPC   C2B 1943   0.518   7.224   6.807
  116POPC   C3B 1944   0.336   7.104   6.396
  116POPC   C4B 1945   0.626   7.033   6.041
  117POPC   NC3 1946   8.371   9.689   8.058
  117POPC   PO4 1947   7.666   9.634   8.153
  117POPC   GL1 1948   7.965   9.511   7.792
  117POPC   GL2 1949   8.006   9.834   7.693
  117POPC   C1A 1950   8.277   9.497   7.393
  117POPC   D2A 1951   8.477   9.671   6.983
  117POPC   C3A 1952   8.303   9.530   6.580
  117POPC   C4A 1953   8.206   9.668   6.193
  117POPC   C1B 1954   7.818   9.678   7.292
  117POPC   C2B 1955   7.963   9.745   6.877
  117POPC   C3B 1956   7.803   9.826   6.464
  117POPC   C4B 1957   7.701   9.432   6.267
  118POPC   NC3 1958   3.289   0.579   7.906
  118POPC   PO4 1959   3.935   0.621   8.131
  118POPC   GL1 1960   3.781   0.655   7.739
  118POPC   GL2 1961   3.770   0.308   7.700
  118POPC   C1A 1962   3.650   0.728   7.330
  118POPC   D2A 1963   3.372   0.629   6.973
  118POPC   C3A 1964   3.558   0.711   6.556
  118POPC   C4A 1965   3.809   0.706   6.161
  118POPC   C1B 1966   3.537   0.233   7.312
  118POPC   C2B 1967   3.350   0.089   6.924
  118POPC   C3B 1968   3.203   0.332   6.573
  118POPC   C4B 1969   3.400   0.400   6.153
  119POPC   NC3 1970  11.313   2.409   8.285
  119POPC   PO4 1971  10.743   2.767   8.234
  119POPC   GL1 1972  10.980   2.581   7.927
  119POPC   GL2 1973  11.303   2.749   7.912
  119POPC   C1A 1974  10.945   2.578   7.500
  119POPC   D2A 1975  10.918   2.711   7.076
  119POPC   C3A 1976  10.958   2.366   6.771
  119POPC   C4A 1977  10.949   2.416   6.314
  119POPC   C1B 1978  11.435   2.691   7.511
  119POPC   C2B 1979  11.440   2.713   7.056
  119POPC   C3B 1980  11.248   2.769   6.670
  119POPC   C4B 1981  11.428   2.698   6.302
  120POPC   NC3 1982   8.131  11.253   8.256
  120POPC   PO4 1983   7.787  10.793   8.183
  120POPC   GL1 1984   8.138  11.056   7.800
  120POPC   GL2 1985   8.013  11.355   7.659
  120POPC   C1A 1986   8.266  10.995   7.324
  120POPC   D2A 1987   8.337  11.150   6.880
  120POPC   C3A 1988   8.209  11.044   6.432
  120POPC   C4A 1989   7.991  10.807   6.083
  120POPC   C1B 1990   8.226   0.017   7.308
  120POPC   C2B 1991   8.410   0.139   6.949
  120POPC   C3B 1992   8.185   0.042   6.587
  120POPC   C4B 1993   8.245   0.046   6.179
  121POPC   NC3 1994   5.859   1.208   8.187
  121POPC   PO4 1995   5.601   1.787   8.127
  121POPC   GL1 1996   5.662   1.408   7.755
  121POPC   GL2 1997   5.827   1.031   7.687
  121POPC   C1A 1998   5.793   1.372   7.294
  121POPC   D2A 1999   5.649   1.245   6.888
  121POPC   C3A 2000   5.887   1.326   6.529
  121POPC   C4A 2001   5.741   1.301   6.121
  121POPC   C1B 2002   5.743   0.842   7.245
  121POPC   C2B 2003   5.530   0.757   6.827
  121POPC   C3B 2004   5.651   0.897   6.405
  121POPC   C4B 2005   6.121   0.980   6.223
  122POPC   NC3 2006  10.804   1.653   7.873
  122POPC   PO4 2007  11.351   1.956   8.190
  122POPC   GL1 2008  11.396   2.208   7.789
  122POPC   GL2 2009  11.318   1.874   7.651
  122POPC   C1A 2010  11.309   2.248   7.308
  122POPC   D2A 2011  11.366   2.063   6.901
  122POPC   C3A 2012  11.439   2.265   6.553
  122POPC   C4A 2013  11.359   2.212   6.122
  122POPC   C1B 2014  11.116   1.760   7.254
  122POPC   C2B 2015  10.919   1.843   6.828
  122POPC   C3B 2016  11.016   1.918   6.392
  122POPC   C4B 2017  10.953   1.693   5.981
  123POPC   NC3 2018   1.282   3.423   7.993
  123POPC   PO4 2019   1.072   4.028   8.029
  123POPC   GL1 2020   0.994   3.762   7.661
  123POPC   GL2 2021   1.359   3.685   7.534
  123POPC   C1A 2022   0.939   3.577   7.242
  123POPC   D2A 2023   1.171   3.594   6.853
  123POPC   C3A 2024   1.034   3.755   6.475
  123POPC   C4A 2025   1.116   3.687   6.037
  123POPC   C1B 2026   1.397   3.318   7.241
  123POPC   C2B 2027   1.438   3.159   6.800
  123POPC   C3B 2028   1.143   3.216   6.434
  123POPC   C4B 2029   1.286   3.222   5.958
  124POPC   NC3 2030   9.296  10.037   7.905
  124POPC   PO4 2031   9.743  10.467   8.260
  124POPC   GL1 2032   9.814  10.504   7.786
  124POPC   GL2 2033   9.857  10.170   7.725
  124POPC   C1A 2034   9.605  10.572   7.356
  124POPC   D2A 2035   9.547  10.227   7.024
  124POPC   C3A 2036   9.342  10.219   6.631
  124POPC   C4A 2037   9.398  10.533   6.289
  124POPC   C1B 2038   9.993  10.246   7.282
  124POPC   C2B 2039  10.079  10.152   6.847
  124POPC   C3B 2040  10.179  10.117   6.408
  124POPC   C4B 2041   9.878  10.321   6.188
  125POPC   NC3 2042  11.083   0.696   7.956
  125POPC   PO4 2043   0.205   0.745   7.874
  125POPC   GL1 2044  11.454   0.496   7.633
  125POPC   GL2 2045  11.237   0.225   7.681
  125POPC   C1A 2046   0.021   0.319   7.252
  125POPC   D2A 2047  11.426   0.565   6.921
  125POPC   C3A 2048   0.006   0.470   6.551
  125POPC   C4A 2049   0.001   0.233   6.206
  125POPC   C1B 2050  11.031   0.429   7.314
  125POPC   C2B 2051  10.938   0.266   6.900
  125POPC   C3B 2052  11.065   0.232   6.485
  125POPC   C4B 2053  11.107   0.544   6.196
  126POPC   NC3 2054   0.469   6.069   8.120
  126POPC   PO4 2055   0.046   5.552   8.184
  126POPC   GL1 2056   0.220   5.493   7.729
  126POPC   GL2 2057   0.554   5.665   7.753
  126POPC   C1A 2058   0.367   5.617   7.295
  126POPC   D2A 2059   0.351   5.895   6.974
  126POPC   C3A 2060   0.204   5.651   6.643
  126POPC   C4A 2061   0.389   5.586   6.262
  126POPC   C1B 2062   0.766   5.955   7.456
  126POPC   C2B 2063   0.857   5.975   7.015
  126POPC   C3B 2064   0.714   5.966   6.572
  126POPC   C4B 2065   0.822   5.865   6.139
  127POPC   NC3 2066  10.414   5.739   8.127
  127POPC   PO4 2067  10.877   6.216   8.093
  127POPC   GL1 2068  10.792   6.048   7.687
  127POPC   GL2 2069  10.676   5.715   7.696
  127POPC   C1A 2070  10.780   5.938   7.250
  127POPC   D2A 2071  10.984   6.004   6.869
  127POPC   C3A 2072  10.725   5.924   6.544
  127POPC   C4A 2073  10.510   6.190   6.253
  127POPC   C1B 2074  10.334   5.793   7.468
  127POPC   C2B 2075  10.290   5.848   7.041
  127POPC   C3B 2076  10.218   5.940   6.616
  127POPC   C4B 2077  10.345   5.695   6.301
  128POPC   NC3 2078   2.077   6.321   7.975
  128POPC   PO4 2079   1.739   6.850   8.113
  128POPC   GL1 2080   1.757   6.765   7.652
  128POPC   GL2 2081   1.679   6.447   7.661
  128POPC   C1A 2082   1.593   6.631   7.188
  128POPC   D2A 2083   1.621   6.467   6.729
  128POPC   C3A 2084   1.789   6.728   6.412
  128POPC   C4A 2085   2.210   6.843   6.267
  128POPC   C1B 2086   2.056   6.454   7.366
  128POPC   C2B 2087   2.077   6.391   6.956
  128POPC   C3B 2088   2.160   6.396   6.521
  128POPC   C4B 2089   2.185   6.104   6.222
  129POPC   NC3 2090  10.291   3.010   8.076
  129POPC   PO4 2091  10.033   2.418   8.102
  129POPC   GL1 2092  10.312   2.590   7.781
  129POPC   GL2 2093  10.056   2.700   7.622
  129POPC   C1A 2094  10.469   2.633   7.342
  129POPC   D2A 2095  10.475   2.479   6.943
  129POPC   C3A 2096  10.583   2.671   6.553
  129POPC   C4A 2097  10.292   2.589   6.208
  129POPC   C1B 2098  10.156   3.028   7.277
  129POPC   C2B 2099  10.390   2.984   6.924
  129POPC   C3B 2100  10.317   3.086   6.472
  129POPC   C4B 2101  10.467   3.088   6.049
  130POPC   NC3 2102   4.323  10.272   8.005
  130POPC   PO4 2103   3.854  10.756   8.180
  130POPC   GL1 2104   3.916  10.604   7.775
  130POPC   GL2 2105   3.890  10.300   7.718
  130POPC   C1A 2106   3.911  10.840   7.382
  130POPC   D2A 2107   4.153  10.828   7.001
  130POPC   C3A 2108   4.013  10.821   6.598
  130POPC   C4A 2109   4.296  10.746   6.281
  130POPC   C1B 2110   4.167  10.398   7.356
  130POPC   C2B 2111   4.214  10.305   6.912
  130POPC   C3B 2112   4.455  10.318   6.532
  130POPC   C4B 2113   4.591  10.139   6.143
  131POPC   NC3 2114   1.057   4.963   8.114
  131POPC   PO4 2115   1.660   4.731   8.054
  131POPC   GL1 2116   1.307   4.786   7.675
  131POPC   GL2 2117   1.064   5.081   7.635
  131POPC   C1A 2118   1.035   4.779   7.247
  131POPC   D2A 2119   0.850   4.949   6.887
  131POPC   C3A 2120   1.015   4.768   6.528
  131POPC   C4A 2121   1.072   4.895   6.149
  131POPC   C1B 2122   1.305   5.218   7.277
  131POPC   C2B 2123   1.341   5.075   6.848
  131POPC   C3B 2124   1.476   5.055   6.430
  131POPC   C4B 2125   1.560   5.475   6.310
  132POPC   NC3 2126   5.802   2.194   8.106
  132POPC   PO4 2127   6.254   2.530   7.977
  132POPC   GL1 2128   6.044   2.231   7.617
  132POPC   GL2 2129   5.838   1.900   7.681
  132POPC   C1A 2130   5.844   2.021   7.198
  132POPC   D2A 2131   5.885   1.787   6.788
  132POPC   C3A 2132   6.123   2.067   6.482
  132POPC   C4A 2133   6.060   2.434   6.215
  132POPC   C1B 2134   5.458   1.743   7.414
  132POPC   C2B 2135   5.341   1.645   6.965
  132POPC   C3B 2136   5.443   1.572   6.503
  132POPC   C4B 2137   5.779   1.789   6.228
  133POPC   NC3 2138  11.459  11.279   7.824
  133POPC   PO4 2139   0.153  10.872   8.316
  133POPC   GL1 2140   0.212  10.824   7.797
  133POPC   GL2 2141   0.406  11.092   7.657
  133POPC   C1A 2142   0.151  10.849   7.290
  133POPC   D2A 2143  11.416  10.940   6.838
  133POPC   C3A 2144   0.189  10.923   6.415
  133POPC   C4A 2145   0.144  10.800   5.921
  133POPC   C1B 2146   0.651  11.069   7.296
  133POPC   C2B 2147   0.444  11.123   6.898
  133POPC   C3B 2148   0.653  11.112   6.518
  133POPC   C4B 2149   0.503  11.150   6.070
  134POPC   NC3 2150   2.267   3.591   8.045
  134POPC   PO4 2151   1.655   3.171   7.915
  134POPC   GL1 2152   1.886   3.228   7.566
  134POPC   GL2 2153   1.886   3.586   7.652
  134POPC   C1A 2154   1.824   3.018   7.148
  134POPC   D2A 2155   2.050   3.009   6.753
  134POPC   C3A 2156   1.886   3.331   6.456
  134POPC   C4A 2157   1.500   3.538   6.343
  134POPC   C1B 2158   1.824   3.569   7.209
  134POPC   C2B 2159   1.680   3.668   6.808
  134POPC   C3B 2160   1.867   3.860   6.428
  134POPC   C4B 2161   2.093   3.793   6.025
  135POPC   NC3 2162   1.642   2.829   8.216
  135POPC   PO4 2163   2.276   2.405   8.068
  135POPC   GL1 2164   1.978   2.419   7.760
  135POPC   GL2 2165   1.910   2.752   7.776
  135POPC   C1A 2166   1.813   2.488   7.324
  135POPC   D2A 2167   1.789   2.293   6.934
  135POPC   C3A 2168   1.804   2.579   6.598
  135POPC   C4A 2169   1.680   2.501   6.170
  135POPC   C1B 2170   2.195   2.804   7.437
  135POPC   C2B 2171   2.256   2.546   7.037
  135POPC   C3B 2172   2.322   2.565   6.577
  135POPC   C4B 2173   2.091   2.837   6.260
  136POPC   NC3 2174   2.824   9.047   8.006
  136POPC   PO4 2175   2.578   8.485   7.824
  136POPC   GL1 2176   2.517   8.925   7.615
  136POPC   GL2 2177   2.814   9.032   7.464
  136POPC   C1A 2178   2.387   9.257   7.275
  136POPC   D2A 2179   2.414   9.327   6.807
  136POPC   C3A 2180   2.694   9.078   6.518
  136POPC   C4A 2181   2.559   8.826   6.150
  136POPC   C1B 2182   2.583   8.826   7.082
  136POPC   C2B 2183   2.622   8.581   6.681
  136POPC   C3B 2184   2.964   8.619   6.373
  136POPC   C4B 2185   3.149   9.022   6.197
  137POPC   NC3 2186   2.106   1.970   8.138
  137POPC   PO4 2187   1.476   1.656   8.093
  137POPC   GL1 2188   1.865   1.697   7.773
  137POPC   GL2 2189   2.094   1.933   7.651
  137POPC   C1A 2190   1.837   1.618   7.328
  137POPC   D2A 2191   1.561   1.821   6.996
  137POPC   C3A 2192   1.655   1.727   6.548
  137POPC   C4A 2193   1.697   1.960   6.126
  137POPC   C1B 2194   2.097   2.048   7.259
  137POPC   C2B 2195   2.067   1.866   6.864
  137POPC   C3B 2196   1.986   2.117   6.495
  137POPC   C4B 2197   2.166   2.343   6.140
  138POPC   NC3 2198   1.731  11.112   8.416
  138POPC   PO4 2199   1.667   0.218   8.110
  138POPC   GL1 2200   1.606  11.350   7.788
  138POPC   GL2 2201   1.877  11.075   7.795
  138POPC   C1A 2202   1.636  11.190   7.340
  138POPC   D2A 2203   1.878  11.292   6.972
  138POPC   C3A 2204   1.766  11.215   6.550
  138POPC   C4A 2205   1.741   0.053   6.260
  138POPC   C1B 2206   2.117  10.984   7.397
  138POPC   C2B 2207   2.199  10.867   6.982
  138POPC   C3B 2208   2.314  11.058   6.601
  138POPC   C4B 2209   2.129  11.060   6.208
  139POPC   NC3 2210   4.269  10.985   8.326
  139POPC   PO4 2211   4.750  10.524   8.111
  139POPC   GL1 2212   4.431  10.792   7.853
  139POPC   GL2 2213   4.114  11.053   7.817
  139POPC   C1A 2214   4.419  10.860   7.423
  139POPC   D2A 2215   4.619  11.126   7.105
  139POPC   C3A 2216   4.500  11.076   6.670
  139POPC   C4A 2217   4.725  11.038   6.290
  139POPC   C1B 2218   4.104  11.310   7.449
  139POPC   C2B 2219   4.126  11.342   6.993
  139POPC   C3B 2220   4.113  11.398   6.544
  139POPC   C4B 2221   3.986  11.160   6.183
  140POPC   NC3 2222   9.467   1.238   8.089
  140POPC   PO4 2223  10.053   1.420   8.042
  140POPC   GL1 2224   9.755   1.347   7.669
  140POPC   GL2 2225   9.538   0.991   7.652
  140POPC   C1A 2226   9.640   1.524   7.254
  140POPC   D2A 2227   9.326   1.547   6.914
  140POPC   C3A 2228   9.498   1.482   6.517
  140POPC   C4A 2229   9.855   1.508   6.279
  140POPC   C1B 2230   9.747   1.037   7.245
  140POPC   C2B 2231   9.750   1.191   6.823
  140POPC   C3B 2232   9.732   1.006   6.388
  140POPC   C4B 2233   9.380   0.779   6.162
  141POPC   NC3 2234   2.683  10.196   8.339
  141POPC   PO4 2235   2.515  10.824   8.107
  141POPC   GL1 2236   2.691  10.638   7.721
  141POPC   GL2 2237   2.677  10.263   7.638
  141POPC   C1A 2238   2.452  10.574   7.317
  141POPC   D2A 2239   2.530  10.368   6.958
  141POPC   C3A 2240   2.469  10.569   6.592
  141POPC   C4A 2241   2.493  10.419   6.183
  141POPC   C1B 2242   2.962  10.458   7.279
  141POPC   C2B 2243   3.022  10.534   6.804
  141POPC   C3B 2244   3.002  10.527   6.336
  141POPC   C4B 2245   2.948  10.170   6.099
  142POPC   NC3 2246   7.123   0.131   8.153
  142POPC   PO4 2247   7.811   0.086   8.099
  142POPC   GL1 2248   7.467   0.129   7.741
  142POPC   GL2 2249   7.293   0.454   7.781
  142POPC   C1A 2250   7.300   0.143   7.272
  142POPC   D2A 2251   7.451   0.102   6.799
  142POPC   C3A 2252   7.227   0.159   6.390
  142POPC   C4A 2253   7.376   0.230   5.930
  142POPC   C1B 2254   7.243   0.647   7.375
  142POPC   C2B 2255   7.175   0.528   6.927
  142POPC   C3B 2256   7.387   0.615   6.560
  142POPC   C4B 2257   7.208   0.681   6.179
  143POPC   NC3 2258   2.931   9.838   7.821
  143POPC   PO4 2259   2.326  10.023   8.092
  143POPC   GL1 2260   2.392   9.787   7.681
  143POPC   GL2 2261   2.613   9.461   7.684
  143POPC   C1A 2262   2.550   9.933   7.260
  143POPC   D2A 2263   2.909  10.033   6.959
  143POPC   C3A 2264   2.710  10.082   6.544
  143POPC   C4A 2265   2.449   9.914   6.187
  143POPC   C1B 2266   2.846   9.510   7.248
  143POPC   C2B 2267   2.872   9.560   6.777
  143POPC   C3B 2268   2.776   9.558   6.336
  143POPC   C4B 2269   2.746   9.271   5.994
  144POPC   NC3 2270   1.671   7.303   8.027
  144POPC   PO4 2271   1.971   7.858   8.313
  144POPC   GL1 2272   1.885   7.869   7.850
  144POPC   GL2 2273   2.082   8.148   7.748
  144POPC   C1A 2274   1.784   7.845   7.373
  144POPC   D2A 2275   1.901   7.953   6.908
  144POPC   C3A 2276   1.736   7.724   6.505
  144POPC   C4A 2277   1.731   7.861   6.055
  144POPC   C1B 2278   1.887   8.348   7.380
  144POPC   C2B 2279   2.000   8.466   6.923
  144POPC   C3B 2280   2.112   8.373   6.481
  144POPC   C4B 2281   2.211   8.115   6.094
  145POPC   NC3 2282   2.622   2.787   8.025
  145POPC   PO4 2283   3.231   2.651   8.236
  145POPC   GL1 2284   3.044   2.734   7.714
  145POPC   GL2 2285   2.740   2.473   7.653
  145POPC   C1A 2286   3.029   2.456   7.245
  145POPC   D2A 2287   2.745   2.441   6.879
  145POPC   C3A 2288   2.867   2.388   6.481
  145POPC   C4A 2289   3.067   2.376   6.099
  145POPC   C1B 2290   2.667   2.782   7.287
  145POPC   C2B 2291   2.570   2.928   6.853
  145POPC   C3B 2292   2.729   2.870   6.407
  145POPC   C4B 2293   2.549   3.010   5.970
  146POPC   NC3 2294  11.159   1.590   8.396
  146POPC   PO4 2295  10.828   1.061   8.137
  146POPC   GL1 2296  11.011   1.182   7.728
  146POPC   GL2 2297  11.376   1.106   7.699
  146POPC   C1A 2298  10.971   1.266   7.277
  146POPC   D2A 2299  11.172   1.412   6.889
  146POPC   C3A 2300  11.006   1.417   6.489
  146POPC   C4A 2301  10.684   1.144   6.360
  146POPC   C1B 2302  11.302   0.874   7.310
  146POPC   C2B 2303  11.048   0.901   6.909
  146POPC   C3B 2304  11.214   0.950   6.489
  146POPC   C4B 2305   0.045   0.827   6.202
  147POPC   NC3 2306   1.846   1.368   8.127
  147POPC   PO4 2307   2.438   1.634   8.007
  147POPC   GL1 2308   2.268   1.448   7.624
  147POPC   GL2 2309   2.017   1.182   7.677
  147POPC   C1A 2310   2.366   1.581   7.195
  147POPC   D2A 2311   2.331   1.352   6.794
  147POPC   C3A 2312   2.133   1.595   6.438
  147POPC   C4A 2313   1.864   1.470   6.058
  147POPC   C1B 2314   2.047   1.167   7.226
  147POPC   C2B 2315   1.835   1.372   6.876
  147POPC   C3B 2316   1.841   1.170   6.477
  147POPC   C4B 2317   1.555   1.023   6.162
  148POPC   NC3 2318  11.459  11.298   8.384
  148POPC   PO4 2319  11.221  10.885   7.893
  148POPC   GL1 2320  11.174  11.028   7.491
  148POPC   GL2 2321  10.951  11.272   7.671
  148POPC   C1A 2322  11.432  11.308   7.190
  148POPC   D2A 2323  11.411   0.039   6.825
  148POPC   C3A 2324  11.365  11.307   6.466
  148POPC   C4A 2325   0.008  11.269   6.020
  148POPC   C1B 2326  10.947  11.425   7.287
  148POPC   C2B 2327  10.971  11.233   6.896
  148POPC   C3B 2328  10.789  11.317   6.527
  148POPC   C4B 2329  10.973  11.256   6.162
  149POPC   NC3 2330   5.297   8.984   8.103
  149POPC   PO4 2331   4.814   8.486   8.098
  149POPC   GL1 2332   4.924   8.814   7.784
  149POPC   GL2 2333   4.859   9.183   7.923
  149POPC   C1A 2334   5.044   8.831   7.330
  149POPC   D2A 2335   4.941   9.007   6.895
  149POPC   C3A 2336   4.985   8.793   6.519
  149POPC   C4A 2337   4.676   8.474   6.376
  149POPC   C1B 2338   4.833   9.281   7.467
  149POPC   C2B 2339   4.728   9.438   7.049
  149POPC   C3B 2340   4.701   9.430   6.589
  149POPC   C4B 2341   4.965   9.275   6.257
  150POPC   NC3 2342   4.460   9.522   8.001
  150POPC   PO4 2343   3.943   9.941   8.101
  150POPC   GL1 2344   4.148   9.842   7.707
  150POPC   GL2 2345   4.019   9.520   7.672
  150POPC   C1A 2346   4.324   9.895   7.267
  150POPC   D2A 2347   4.584   9.910   6.878
  150POPC   C3A 2348   4.349   9.817   6.493
  150POPC   C4A 2349   4.066  10.051   6.237
  150POPC   C1B 2350   4.303   9.380   7.342
  150POPC   C2B 2351   4.246   9.488   6.888
  150POPC   C3B 2352   4.190   9.326   6.452
  150POPC   C4B 2353   4.136   9.482   6.043
  151POPC   NC3 2354   9.006   1.903   8.178
  151POPC   PO4 2355   9.007   1.253   7.993
  151POPC   GL1 2356   9.016   1.629   7.721
  151POPC   GL2 2357   9.004   2.015   7.678
  151POPC   C1A 2358   8.975   1.621   7.289
  151POPC   D2A 2359   8.743   1.745   6.952
  151POPC   C3A 2360   8.972   1.754   6.585
  151POPC   C4A 2361   8.801   1.799   6.201
  151POPC   C1B 2362   8.937   2.130   7.241
  151POPC   C2B 2363   9.117   2.175   6.819
  151POPC   C3B 2364   9.073   2.215   6.356
  151POPC   C4B 2365   8.682   2.319   6.145
  152POPC   NC3 2366  10.566  11.342   8.018
  152POPC   PO4 2367  10.232  10.796   8.017
  152POPC   GL1 2368  10.520  10.966   7.680
  152POPC   GL2 2369  10.444  11.312   7.523
  152POPC   C1A 2370  10.690  10.974   7.258
  152POPC   D2A 2371  10.471  10.799   6.925
  152POPC   C3A 2372  10.391  11.012   6.575
  152POPC   C4A 2373  10.544  11.001   6.179
  152POPC   C1B 2374  10.060   0.069   7.384
  152POPC   C2B 2375   9.919   0.204   6.981
  152POPC   C3B 2376  10.032   0.162   6.553
  152POPC   C4B 2377  10.282  11.424   6.257
  153POPC   NC3 2378   1.991   9.579   8.158
  153POPC   PO4 2379   2.363   9.024   8.086
  153POPC   GL1 2380   2.121   9.287   7.729
  153POPC   GL2 2381   1.853   9.594   7.684
  153POPC   C1A 2382   1.877   9.244   7.324
  153POPC   D2A 2383   1.890   9.414   6.902
  153POPC   C3A 2384   1.900   9.251   6.480
  153POPC   C4A 2385   2.297   9.282   6.259
  153POPC   C1B 2386   1.830   9.766   7.282
  153POPC   C2B 2387   2.129   9.868   6.950
  153POPC   C3B 2388   2.172   9.700   6.556
  153POPC   C4B 2389   1.972   9.689   6.174
  154POPC   NC3 2390   6.528   0.007   8.040
  154POPC   PO4 2391   6.241  10.831   8.066
  154POPC   GL1 2392   6.349  10.901   7.614
  154POPC   GL2 2393   6.601  11.153   7.640
  154POPC   C1A 2394   6.413  11.098   7.188
  154POPC   D2A 2395   6.617  11.121   6.785
  154POPC   C3A 2396   6.319  10.898   6.537
  154POPC   C4A 2397   6.202  10.868   6.126
  154POPC   C1B 2398   6.873  11.305   7.242
  154POPC   C2B 2399   6.930   0.067   6.865
  154POPC   C3B 2400   6.740   0.044   6.481
  154POPC   C4B 2401   6.508  11.272   6.242
  155POPC   NC3 2402   8.409   8.756   8.155
  155POPC   PO4 2403   9.024   8.818   8.149
  155POPC   GL1 2404   8.784   8.964   7.792
  155POPC   GL2 2405   8.620   8.672   7.678
  155POPC   C1A 2406   8.682   9.073   7.350
  155POPC   D2A 2407   8.599   8.818   6.969
  155POPC   C3A 2408   8.485   9.063   6.642
  155POPC   C4A 2409   8.734   9.342   6.380
  155POPC   C1B 2410   9.027   8.688   7.427
  155POPC   C2B 2411   9.090   8.690   6.974
  155POPC   C3B 2412   8.985   8.945   6.625
  155POPC   C4B 2413   8.767   8.848   6.258
  156POPC   NC3 2414   4.206   0.972   7.980
  156POPC   PO4 2415   4.644   1.511   8.033
  156POPC   GL1 2416   4.519   1.269   7.664
  156POPC   GL2 2417   4.716   0.999   7.491
  156POPC   C1A 2418   4.475   1.355   7.218
  156POPC   D2A 2419   4.503   1.053   6.915
  156POPC   C3A 2420   4.443   1.225   6.547
  156POPC   C4A 2421   4.452   1.465   6.209
  156POPC   C1B 2422   4.227   0.937   7.349
  156POPC   C2B 2423   4.003   0.847   6.975
  156POPC   C3B 2424   4.001   0.975   6.573
  156POPC   C4B 2425   4.085   1.146   6.157
  157POPC   NC3 2426   0.902   8.127   3.973
  157POPC   PO4 2427   1.428   7.721   3.954
  157POPC   GL1 2428   1.384   7.938   4.320
  157POPC   GL2 2429   1.260   8.268   4.317
  157POPC   C1A 2430   1.273   7.838   4.731
  157POPC   D2A 2431   1.178   7.540   5.048
  157POPC   C3A 2432   1.228   7.820   5.384
  157POPC   C4A 2433   1.279   7.745   5.800
  157POPC   C1B 2434   0.948   8.239   4.660
  157POPC   C2B 2435   0.866   7.994   5.023
  157POPC   C3B 2436   0.828   8.143   5.436
  157POPC   C4B 2437   1.025   8.173   5.792
  158POPC   NC3 2438   3.530   1.846   4.124
  158POPC   PO4 2439   4.138   2.043   3.801
  158POPC   GL1 2440   3.848   2.240   4.230
  158POPC   GL2 2441   3.560   2.100   4.529
  158POPC   C1A 2442   3.964   2.245   4.731
  158POPC   D2A 2443   3.569   2.252   5.008
  158POPC   C3A 2444   3.640   2.309   5.471
  158POPC   C4A 2445   3.451   2.124   5.840
  158POPC   C1B 2446   3.549   1.750   4.793
  158POPC   C2B 2447   3.677   1.469   5.122
  158POPC   C3B 2448   3.667   1.653   5.529
  158POPC   C4B 2449   3.257   1.684   5.662
  159POPC   NC3 2450   0.761   5.662   3.900
  159POPC   PO4 2451   0.845   6.268   3.900
  159POPC   GL1 2452   0.572   6.110   4.246
  159POPC   GL2 2453   0.445   5.761   4.277
  159POPC   C1A 2454   0.631   5.983   4.691
  159POPC   D2A 2455   0.705   5.728   5.070
  159POPC   C3A 2456   0.550   5.770   5.467
  159POPC   C4A 2457   0.632   5.523   5.822
  159POPC   C1B 2458   0.379   5.537   4.685
  159POPC   C2B 2459   0.178   5.661   5.100
  159POPC   C3B 2460   0.071   5.603   5.559
  159POPC   C4B 2461  11.447   5.691   5.993
  160POPC   NC3 2462   2.028   4.671   4.176
  160POPC   PO4 2463   1.693   4.206   3.938
  160POPC   GL1 2464   1.579   4.041   4.286
  160POPC   GL2 2465   1.913   3.989   4.364
  160POPC   C1A 2466   1.465   4.153   4.677
  160POPC   D2A 2467   1.696   4.369   4.958
  160POPC   C3A 2468   1.619   4.276   5.373
  160POPC   C4A 2469   1.753   4.513   5.703
  160POPC   C1B 2470   2.096   3.997   4.772
  160POPC   C2B 2471   2.187   3.901   5.220
  160POPC   C3B 2472   2.098   4.126   5.627
  160POPC   C4B 2473   2.261   4.536   5.845
  161POPC   NC3 2474   0.763   1.170   3.996
  161POPC   PO4 2475   0.251   0.917   3.700
  161POPC   GL1 2476   0.343   1.011   4.232
  161POPC   GL2 2477   0.215   1.341   4.363
  161POPC   C1A 2478   0.180   0.987   4.708
  161POPC   D2A 2479   0.241   1.254   5.055
  161POPC   C3A 2480   0.317   1.055   5.438
  161POPC   C4A 2481   0.216   1.141   5.858
  161POPC   C1B 2482   0.586   1.316   4.652
  161POPC   C2B 2483   0.707   1.468   5.081
  161POPC   C3B 2484   0.557   1.492   5.523
  161POPC   C4B 2485   0.706   1.140   5.801
  162POPC   NC3 2486   2.292   1.401   4.157
  162POPC   PO4 2487   2.356   0.797   3.807
  162POPC   GL1 2488   2.245   0.893   4.253
  162POPC   GL2 2489   1.899   1.028   4.220
  162POPC   C1A 2490   2.370   0.938   4.712
  162POPC   D2A 2491   2.171   0.892   5.126
  162POPC   C3A 2492   2.253   0.959   5.581
  162POPC   C4A 2493   2.045   0.976   6.020
  162POPC   C1B 2494   1.902   1.215   4.648
  162POPC   C2B 2495   1.761   1.203   5.071
  162POPC   C3B 2496   1.868   1.322   5.491
  162POPC   C4B 2497   1.522   1.536   5.667
  163POPC   NC3 2498   1.110   3.228   3.902
  163POPC   PO4 2499   0.889   3.881   3.645
  163POPC   GL1 2500   0.864   3.583   4.183
  163POPC   GL2 2501   1.132   3.346   4.378
  163POPC   C1A 2502   0.827   3.427   4.733
  163POPC   D2A 2503   0.920   3.535   5.205
  163POPC   C3A 2504   0.812   3.480   5.690
  163POPC   C4A 2505   0.785   3.227   6.071
  163POPC   C1B 2506   1.470   3.168   4.608
  163POPC   C2B 2507   1.553   3.340   5.015
  163POPC   C3B 2508   1.549   3.252   5.437
  163POPC   C4B 2509   1.293   3.574   5.578
  164POPC   NC3 2510   9.613   7.564   3.847
  164POPC   PO4 2511   9.805   7.029   3.919
  164POPC   GL1 2512   9.701   7.262   4.290
  164POPC   GL2 2513   9.936   7.476   4.344
  164POPC   C1A 2514   9.572   7.274   4.742
  164POPC   D2A 2515   9.335   7.520   5.060
  164POPC   C3A 2516   9.419   7.365   5.469
  164POPC   C4A 2517   9.382   7.402   5.896
  164POPC   C1B 2518  10.088   7.306   4.719
  164POPC   C2B 2519  10.026   7.082   5.105
  164POPC   C3B 2520   9.875   7.134   5.513
  164POPC   C4B 2521   9.913   7.560   5.656
  165POPC   NC3 2522   0.218   2.826   4.108
  165POPC   PO4 2523  10.994   2.465   4.005
  165POPC   GL1 2524  11.053   2.629   4.363
  165POPC   GL2 2525  11.211   2.919   4.263
  165POPC   C1A 2526  11.164   2.501   4.766
  165POPC   D2A 2527  10.908   2.537   5.111
  165POPC   C3A 2528  11.140   2.491   5.455
  165POPC   C4A 2529  11.205   2.621   5.855
  165POPC   C1B 2530  11.379   2.991   4.682
  165POPC   C2B 2531  11.337   2.908   5.126
  165POPC   C3B 2532  11.253   3.058   5.534
  165POPC   C4B 2533  11.415   3.061   5.961
  166POPC   NC3 2534  11.138   8.793   3.733
  166POPC   PO4 2535  10.944   9.100   4.348
  166POPC   GL1 2536  11.010   8.707   4.484
  166POPC   GL2 2537  11.252   8.660   4.228
  166POPC   C1A 2538  11.135   8.656   4.908
  166POPC   D2A 2539  11.341   9.001   5.080
  166POPC   C3A 2540  11.074   9.066   5.397
  166POPC   C4A 2541  10.942   8.775   5.716
  166POPC   C1B 2542  11.408   8.378   4.569
  166POPC   C2B 2543  -0.001   8.330   5.043
  166POPC   C3B 2544  11.484   8.621   5.420
  166POPC   C4B 2545  11.379   8.643   5.877
  167POPC   NC3 2546   8.817   5.485   3.903
  167POPC   PO4 2547   8.529   6.023   3.942
  167POPC   GL1 2548   8.701   5.773   4.315
  167POPC   GL2 2549   9.046   5.657   4.326
  167POPC   C1A 2550   8.768   5.681   4.768
  167POPC   D2A 2551   8.763   5.435   5.153
  167POPC   C3A 2552   8.751   5.582   5.584
  167POPC   C4A 2553   8.503   5.708   5.959
  167POPC   C1B 2554   9.265   5.831   4.708
  167POPC   C2B 2555   9.113   5.857   5.158
  167POPC   C3B 2556   9.221   5.798   5.604
  167POPC   C4B 2557   9.016   5.724   6.012
  168POPC   NC3 2558   8.263   3.517   4.039
  168POPC   PO4 2559   7.931   3.920   4.204
  168POPC   GL1 2560   8.100   3.603   4.539
  168POPC   GL2 2561   8.402   3.397   4.505
  168POPC   C1A 2562   8.260   3.462   4.975
  168POPC   D2A 2563   8.546   3.599   5.307
  168POPC   C3A 2564   8.337   3.729   5.705
  168POPC   C4A 2565   7.924   3.673   5.935
  168POPC   C1B 2566   8.477   3.025   4.790
  168POPC   C2B 2567   8.522   3.071   5.261
  168POPC   C3B 2568   8.266   3.091   5.656
  168POPC   C4B 2569   8.133   2.886   6.060
  169POPC   NC3 2570   9.036   9.065   3.927
  169POPC   PO4 2571   8.441   9.146   3.668
  169POPC   GL1 2572   8.611   8.950   4.128
  169POPC   GL2 2573   8.845   8.716   4.257
  169POPC   C1A 2574   8.650   9.003   4.615
  169POPC   D2A 2575   8.615   8.687   4.923
  169POPC   C3A 2576   8.657   8.722   5.390
  169POPC   C4A 2577   8.714   8.913   5.764
  169POPC   C1B 2578   9.060   8.656   4.671
  169POPC   C2B 2579   9.059   8.534   5.135
  169POPC   C3B 2580   9.134   8.793   5.508
  169POPC   C4B 2581   9.163   8.696   5.925
  170POPC   NC3 2582  10.444   1.247   3.883
  170POPC   PO4 2583   9.794   1.096   3.940
  170POPC   GL1 2584  10.017   1.315   4.226
  170POPC   GL2 2585  10.218   1.039   4.294
  170POPC   C1A 2586  10.084   1.472   4.625
  170POPC   D2A 2587  10.157   1.377   5.047
  170POPC   C3A 2588  10.020   1.570   5.413
  170POPC   C4A 2589  10.010   1.410   5.808
  170POPC   C1B 2590  10.448   1.102   4.679
  170POPC   C2B 2591  10.518   1.054   5.137
  170POPC   C3B 2592  10.427   1.269   5.509
  170POPC   C4B 2593  10.649   1.280   5.873
  171POPC   NC3 2594   8.208   8.804   3.877
  171POPC   PO4 2595   8.495   9.434   4.117
  171POPC   GL1 2596   8.214   9.145   4.379
  171POPC   GL2 2597   8.220   8.777   4.387
  171POPC   C1A 2598   8.182   9.086   4.820
  171POPC   D2A 2599   8.428   9.109   5.172
  171POPC   C3A 2600   8.256   9.045   5.577
  171POPC   C4A 2601   8.403   9.268   5.973
  171POPC   C1B 2602   8.131   8.556   4.765
  171POPC   C2B 2603   8.204   8.630   5.196
  171POPC   C3B 2604   8.243   8.501   5.602
  171POPC   C4B 2605   7.929   8.483   5.905
  172POPC   NC3 2606   6.453   0.595   3.800
  172POPC   PO4 2607   7.105   0.643   3.908
  172POPC   GL1 2608   6.962   0.322   4.225
  172POPC   GL2 2609   6.600   0.335   4.233
  172POPC   C1A 2610   6.852   0.261   4.701
  172POPC   D2A 2611   6.802   0.437   5.153
  172POPC   C3A 2612   6.766   0.349   5.603
  172POPC   C4A 2613   6.871   0.322   6.046
  172POPC   C1B 2614   6.348   0.446   4.583
  172POPC   C2B 2615   6.329   0.611   5.009
  172POPC   C3B 2616   6.294   0.440   5.433
  172POPC   C4B 2617   6.276   0.655   5.838
  173POPC   NC3 2618   3.560   8.059   3.877
  173POPC   PO4 2619   2.942   8.052   3.935
  173POPC   GL1 2620   3.007   8.285   4.364
  173POPC   GL2 2621   3.368   8.253   4.391
  173POPC   C1A 2622   3.132   8.367   4.841
  173POPC   D2A 2623   3.347   8.141   5.231
  173POPC   C3A 2624   3.440   8.284   5.680
  173POPC   C4A 2625   3.521   8.490   6.102
  173POPC   C1B 2626   3.418   7.932   4.731
  173POPC   C2B 2627   3.645   7.739   5.106
  173POPC   C3B 2628   3.724   7.838   5.552
  173POPC   C4B 2629   4.015   8.116   5.763
  174POPC   NC3 2630   9.541   9.858   3.958
  174POPC   PO4 2631  10.048   9.400   4.022
  174POPC   GL1 2632   9.785   9.568   4.310
  174POPC   GL2 2633   9.571   9.335   4.416
  174POPC   C1A 2634   9.784   9.794   4.696
  174POPC   D2A 2635   9.847  10.020   5.089
  174POPC   C3A 2636   9.627   9.983   5.468
  174POPC   C4A 2637   9.824   9.914   5.857
  174POPC   C1B 2638   9.593   9.364   4.892
  174POPC   C2B 2639   9.896   9.407   5.233
  174POPC   C3B 2640   9.854   9.439   5.672
  174POPC   C4B 2641   9.400   9.565   5.731
  175POPC   NC3 2642   8.964   0.072   3.998
  175POPC   PO4 2643   8.696   0.666   3.751
  175POPC   GL1 2644   8.734   0.441   4.220
  175POPC   GL2 2645   8.586   0.082   4.340
  175POPC   C1A 2646   8.907   0.562   4.648
  175POPC   D2A 2647   8.704   0.763   5.034
  175POPC   C3A 2648   8.899   0.656   5.432
  175POPC   C4A 2649   9.332   0.715   5.656
  175POPC   C1B 2650   8.781   0.063   4.738
  175POPC   C2B 2651   8.843   0.247   5.111
  175POPC   C3B 2652   8.624   0.183   5.474
  175POPC   C4B 2653   8.463   0.333   5.829
  176POPC   NC3 2654   8.122   9.457   3.824
  176POPC   PO4 2655   7.738   8.917   3.841
  176POPC   GL1 2656   7.769   9.287   4.176
  176POPC   GL2 2657   8.024   9.602   4.281
  176POPC   C1A 2658   7.786   9.367   4.638
  176POPC   D2A 2659   7.777   9.338   5.050
  176POPC   C3A 2660   7.779   9.638   5.380
  176POPC   C4A 2661   7.973   9.515   5.766
  176POPC   C1B 2662   8.223   9.644   4.692
  176POPC   C2B 2663   8.224   9.564   5.122
  176POPC   C3B 2664   8.422   9.527   5.512
  176POPC   C4B 2665   8.353   9.885   5.733
  177POPC   NC3 2666   2.820   0.268   3.894
  177POPC   PO4 2667   2.295  11.485   3.808
  177POPC   GL1 2668   2.415   0.303   4.182
  177POPC   GL2 2669   2.675   0.604   4.248
  177POPC   C1A 2670   2.374   0.421   4.618
  177POPC   D2A 2671   2.264   0.375   5.053
  177POPC   C3A 2672   2.496   0.497   5.415
  177POPC   C4A 2673   2.610   0.318   5.842
  177POPC   C1B 2674   2.840   0.639   4.704
  177POPC   C2B 2675   2.962   0.596   5.170
  177POPC   C3B 2676   2.907   0.726   5.632
  177POPC   C4B 2677   2.952   0.627   6.080
  178POPC   NC3 2678   2.000  11.153   3.981
  178POPC   PO4 2679   1.468  10.914   3.682
  178POPC   GL1 2680   1.549  11.108   4.193
  178POPC   GL2 2681   1.862  10.989   4.451
  178POPC   C1A 2682   1.574  11.346   4.608
  178POPC   D2A 2683   1.881  11.177   4.956
  178POPC   C3A 2684   1.778  11.229   5.411
  178POPC   C4A 2685   1.809  11.085   5.835
  178POPC   C1B 2686   2.238  11.273   4.552
  178POPC   C2B 2687   2.395  11.351   4.933
  178POPC   C3B 2688   2.348  11.107   5.279
  178POPC   C4B 2689   2.349  11.109   5.711
  179POPC   NC3 2690  10.685   8.803   4.102
  179POPC   PO4 2691  10.095   8.532   3.969
  179POPC   GL1 2692  10.146   8.925   4.239
  179POPC   GL2 2693  10.378   8.845   4.494
  179POPC   C1A 2694   9.987   9.128   4.644
  179POPC   D2A 2695  10.191   9.014   5.054
  179POPC   C3A 2696  10.001   8.968   5.479
  179POPC   C4A 2697  10.080   8.535   5.635
  179POPC   C1B 2698  10.632   8.769   4.845
  179POPC   C2B 2699  10.695   8.746   5.266
  179POPC   C3B 2700  10.468   8.872   5.626
  179POPC   C4B 2701  10.310   9.200   5.884
  180POPC   NC3 2702   2.362  10.271   3.933
  180POPC   PO4 2703   3.013   9.949   3.884
  180POPC   GL1 2704   2.862  10.137   4.279
  180POPC   GL2 2705   2.671  10.403   4.294
  180POPC   C1A 2706   2.772  10.022   4.696
  180POPC   D2A 2707   3.017  10.146   5.054
  180POPC   C3A 2708   2.831  10.124   5.467
  180POPC   C4A 2709   2.453  10.144   5.729
  180POPC   C1B 2710   2.755  10.524   4.675
  180POPC   C2B 2711   2.563  10.403   5.052
  180POPC   C3B 2712   2.497  10.575   5.439
  180POPC   C4B 2713   2.800  10.551   5.792
  181POPC   NC3 2714  11.384   4.268   4.002
  181POPC   PO4 2715  11.325   4.908   3.772
  181POPC   GL1 2716  11.302   4.741   4.235
  181POPC   GL2 2717  11.057   4.472   4.322
  181POPC   C1A 2718  11.429   4.604   4.663
  181POPC   D2A 2719  11.188   4.437   5.012
  181POPC   C3A 2720  11.379   4.526   5.422
  181POPC   C4A 2721  11.113   4.455   5.758
  181POPC   C1B 2722  11.191   4.138   4.602
  181POPC   C2B 2723  11.328   3.926   4.986
  181POPC   C3B 2724  11.235   4.042   5.397
  181POPC   C4B 2725  11.358   4.014   5.820
  182POPC   NC3 2726   2.667  11.004   3.501
  182POPC   PO4 2727   2.987  10.491   3.896
  182POPC   GL1 2728   2.834  10.874   4.203
  182POPC   GL2 2729   2.652  11.220   4.140
  182POPC   C1A 2730   2.734  11.047   4.627
  182POPC   D2A 2731   2.746  10.873   5.056
  182POPC   C3A 2732   2.834  10.969   5.499
  182POPC   C4A 2733   3.079  10.962   5.939
  182POPC   C1B 2734   2.736   0.042   4.509
  182POPC   C2B 2735   2.797   0.156   4.956
  182POPC   C3B 2736   2.685   0.000   5.388
  182POPC   C4B 2737   2.787  11.353   5.809
  183POPC   NC3 2738   9.040   8.265   4.008
  183POPC   PO4 2739   8.469   8.438   4.028
  183POPC   GL1 2740   8.722   8.248   4.408
  183POPC   GL2 2741   9.016   7.982   4.420
  183POPC   C1A 2742   8.804   8.212   4.842
  183POPC   D2A 2743   8.568   8.248   5.221
  183POPC   C3A 2744   8.736   8.266   5.634
  183POPC   C4A 2745   8.645   8.395   6.057
  183POPC   C1B 2746   9.251   7.966   4.811
  183POPC   C2B 2747   9.082   7.958   5.238
  183POPC   C3B 2748   9.073   7.788   5.672
  183POPC   C4B 2749   8.739   7.837   6.000
  184POPC   NC3 2750   1.356  10.282   3.997
  184POPC   PO4 2751   1.834  10.696   4.055
  184POPC   GL1 2752   1.630  10.515   4.370
  184POPC   GL2 2753   1.321  10.663   4.303
  184POPC   C1A 2754   1.668  10.234   4.722
  184POPC   D2A 2755   1.625  10.343   5.163
  184POPC   C3A 2756   1.528  10.052   5.485
  184POPC   C4A 2757   1.575   9.912   5.901
  184POPC   C1B 2758   1.190  10.427   4.657
  184POPC   C2B 2759   1.134  10.573   5.052
  184POPC   C3B 2760   1.204  10.462   5.444
  184POPC   C4B 2761   1.068  10.597   5.815
  185POPC   NC3 2762   4.565   8.959   3.887
  185POPC   PO4 2763   4.072   9.209   3.701
  185POPC   GL1 2764   4.146   9.210   4.187
  185POPC   GL2 2765   4.367   9.022   4.360
  185POPC   C1A 2766   4.067   9.239   4.699
  185POPC   D2A 2767   4.191   9.376   5.169
  185POPC   C3A 2768   4.038   9.239   5.606
  185POPC   C4A 2769   4.090   8.966   6.023
  185POPC   C1B 2770   4.557   9.105   4.776
  185POPC   C2B 2771   4.557   8.966   5.196
  185POPC   C3B 2772   4.374   8.855   5.577
  185POPC   C4B 2773   4.469   8.603   5.932
  186POPC   NC3 2774  11.183   9.398   4.095
  186POPC   PO4 2775  10.812  10.031   4.009
  186POPC   GL1 2776  10.930  10.023   4.451
  186POPC   GL2 2777  11.134   9.724   4.504
  186POPC   C1A 2778  10.797   9.920   4.865
  186POPC   D2A 2779  10.676   9.784   5.271
  186POPC   C3A 2780  11.010   9.761   5.552
  186POPC   C4A 2781  11.393   9.898   5.791
  186POPC   C1B 2782  11.146   9.502   4.915
  186POPC   C2B 2783  11.449   9.517   5.266
  186POPC   C3B 2784  11.334   9.402   5.655
  186POPC   C4B 2785  10.894   9.308   5.818
  187POPC   NC3 2786   2.409   6.016   3.658
  187POPC   PO4 2787   3.076   6.193   3.874
  187POPC   GL1 2788   2.766   6.123   4.219
  187POPC   GL2 2789   2.512   5.861   4.133
  187POPC   C1A 2790   2.881   6.037   4.672
  187POPC   D2A 2791   3.116   5.957   5.082
  187POPC   C3A 2792   2.950   5.951   5.530
  187POPC   C4A 2793   2.974   6.302   5.841
  187POPC   C1B 2794   2.411   5.862   4.588
  187POPC   C2B 2795   2.304   5.862   5.056
  187POPC   C3B 2796   2.438   5.754   5.473
  187POPC   C4B 2797   2.706   5.485   5.708
  188POPC   NC3 2798  11.416   8.047   3.972
  188POPC   PO4 2799  10.731   8.289   3.843
  188POPC   GL1 2800  10.972   8.243   4.219
  188POPC   GL2 2801  11.092   7.933   4.340
  188POPC   C1A 2802  10.913   8.248   4.671
  188POPC   D2A 2803  10.769   8.260   5.057
  188POPC   C3A 2804  11.043   8.370   5.374
  188POPC   C4A 2805  11.061   8.256   5.801
  188POPC   C1B 2806  11.347   7.905   4.725
  188POPC   C2B 2807  11.200   7.909   5.124
  188POPC   C3B 2808  11.367   7.976   5.517
  188POPC   C4B 2809  11.498   7.890   5.939
  189POPC   NC3 2810   1.799   9.644   3.967
  189POPC   PO4 2811   1.206   9.901   3.797
  189POPC   GL1 2812   1.317   9.810   4.201
  189POPC   GL2 2813   1.335   9.481   4.120
  189POPC   C1A 2814   1.202   9.892   4.633
  189POPC   D2A 2815   1.207  10.061   5.052
  189POPC   C3A 2816   0.920   9.966   5.392
  189POPC   C4A 2817   1.100  10.079   5.772
  189POPC   C1B 2818   1.504   9.470   4.566
  189POPC   C2B 2819   1.573   9.374   5.028
  189POPC   C3B 2820   1.517   9.538   5.476
  189POPC   C4B 2821   1.166   9.581   5.765
  190POPC   NC3 2822   1.250   7.283   3.916
  190POPC   PO4 2823   1.540   6.767   3.715
  190POPC   GL1 2824   1.494   6.920   4.174
  190POPC   GL2 2825   1.156   6.849   4.299
  190POPC   C1A 2826   1.511   6.969   4.663
  190POPC   D2A 2827   1.639   7.157   5.087
  190POPC   C3A 2828   1.409   7.304   5.486
  190POPC   C4A 2829   1.595   7.379   5.912
  190POPC   C1B 2830   1.012   6.973   4.744
  190POPC   C2B 2831   0.871   7.087   5.181
  190POPC   C3B 2832   0.957   6.994   5.627
  190POPC   C4B 2833   1.115   7.210   6.008
  191POPC   NC3 2834   9.811   5.587   3.872
  191POPC   PO4 2835   9.252   5.331   3.938
  191POPC   GL1 2836   9.522   5.472   4.355
  191POPC   GL2 2837   9.820   5.723   4.385
  191POPC   C1A 2838   9.660   5.507   4.829
  191POPC   D2A 2839   9.615   5.735   5.233
  191POPC   C3A 2840   9.628   5.517   5.646
  191POPC   C4A 2841   9.438   5.404   6.076
  191POPC   C1B 2842   9.909   5.973   4.800
  191POPC   C2B 2843   9.926   6.128   5.240
  191POPC   C3B 2844   9.689   6.077   5.622
  191POPC   C4B 2845   9.655   6.378   5.964
  192POPC   NC3 2846   2.720   2.116   3.892
  192POPC   PO4 2847   3.227   2.198   4.183
  192POPC   GL1 2848   3.045   1.832   4.266
  192POPC   GL2 2849   2.751   1.971   4.373
  192POPC   C1A 2850   3.029   1.698   4.692
  192POPC   D2A 2851   2.977   2.086   4.948
  192POPC   C3A 2852   3.180   2.109   5.332
  192POPC   C4A 2853   2.964   2.114   5.687
  192POPC   C1B 2854   2.535   1.907   4.726
  192POPC   C2B 2855   2.507   1.974   5.170
  192POPC   C3B 2856   2.478   1.990   5.593
  192POPC   C4B 2857   2.749   1.658   5.747
  193POPC   NC3 2858   2.006   2.253   3.719
  193POPC   PO4 2859   1.857   1.552   3.998
  193POPC   GL1 2860   1.888   1.984   4.147
  193POPC   GL2 2861   2.249   1.971   4.235
  193POPC   C1A 2862   1.946   2.255   4.533
  193POPC   D2A 2863   2.210   2.257   4.889
  193POPC   C3A 2864   2.126   2.320   5.354
  193POPC   C4A 2865   1.841   2.294   5.723
  193POPC   C1B 2866   2.050   1.773   4.663
  193POPC   C2B 2867   1.989   1.844   5.146
  193POPC   C3B 2868   1.973   1.814   5.619
  193POPC   C4B 2869   2.195   1.861   6.010
  194POPC   NC3 2870   8.165   1.886   3.918
  194POPC   PO4 2871   7.659   2.335   3.833
  194POPC   GL1 2872   7.918   2.227   4.226
  194POPC   GL2 2873   7.991   1.889   4.375
  194POPC   C1A 2874   8.049   2.287   4.682
  194POPC   D2A 2875   7.991   2.143   5.125
  194POPC   C3A 2876   8.116   2.422   5.468
  194POPC   C4A 2877   8.254   2.413   5.887
  194POPC   C1B 2878   8.156   1.786   4.788
  194POPC   C2B 2879   8.126   1.549   5.166
  194POPC   C3B 2880   7.872   1.674   5.493
  194POPC   C4B 2881   7.928   2.029   5.750
  195POPC   NC3 2882   1.553   1.219   3.863
  195POPC   PO4 2883   0.967   1.584   3.971
  195POPC   GL1 2884   1.093   1.364   4.331
  195POPC   GL2 2885   1.447   1.306   4.347
  195POPC   C1A 2886   1.099   1.359   4.761
  195POPC   D2A 2887   1.228   1.522   5.150
  195POPC   C3A 2888   1.038   1.283   5.440
  195POPC   C4A 2889   1.201   1.189   5.845
  195POPC   C1B 2890   1.429   0.978   4.650
  195POPC   C2B 2891   1.260   0.956   5.062
  195POPC   C3B 2892   1.442   0.990   5.424
  195POPC   C4B 2893   1.687   0.893   5.691
  196POPC   NC3 2894  11.158  10.314   4.102
  196POPC   PO4 2895  10.842  10.787   3.830
  196POPC   GL1 2896  10.997  10.759   4.252
  196POPC   GL2 2897  11.411  10.711   4.298
  196POPC   C1A 2898  10.859  10.618   4.669
  196POPC   D2A 2899  10.861  10.819   5.082
  196POPC   C3A 2900  10.893  10.638   5.500
  196POPC   C4A 2901  10.835  10.627   6.000
  196POPC   C1B 2902  11.347  10.486   4.687
  196POPC   C2B 2903  11.106  10.354   5.041
  196POPC   C3B 2904  11.236  10.242   5.433
  196POPC   C4B 2905  11.273  10.466   5.797
  197POPC   NC3 2906   7.319   1.018   4.067
  197POPC   PO4 2907   7.800   1.524   3.922
  197POPC   GL1 2908   7.704   1.268   4.264
  197POPC   GL2 2909   7.418   1.414   4.403
  197POPC   C1A 2910   7.586   1.007   4.657
  197POPC   D2A 2911   7.273   0.893   4.973
  197POPC   C3A 2912   7.315   1.013   5.394
  197POPC   C4A 2913   7.391   1.021   5.829
  197POPC   C1B 2914   7.298   1.443   4.850
  197POPC   C2B 2915   7.220   1.504   5.296
  197POPC   C3B 2916   6.964   1.317   5.631
  197POPC   C4B 2917   7.009   1.251   6.072
  198POPC   NC3 2918   9.734   9.071   3.948
  198POPC   PO4 2919   9.259   8.667   3.987
  198POPC   GL1 2920   9.392   8.866   4.295
  198POPC   GL2 2921   9.710   8.673   4.294
  198POPC   C1A 2922   9.527   8.906   4.696
  198POPC   D2A 2923   9.408   8.883   5.078
  198POPC   C3A 2924   9.483   9.159   5.395
  198POPC   C4A 2925   9.499   9.078   5.823
  198POPC   C1B 2926   9.955   8.615   4.689
  198POPC   C2B 2927   9.838   8.632   5.129
  198POPC   C3B 2928   9.606   8.654   5.529
  198POPC   C4B 2929   9.705   8.644   5.980
  199POPC   NC3 2930   8.806  10.761   4.042
  199POPC   PO4 2931   9.115  10.101   4.028
  199POPC   GL1 2932   9.192  10.502   4.246
  199POPC   GL2 2933   8.858  10.397   4.385
  199POPC   C1A 2934   9.151  10.617   4.704
  199POPC   D2A 2935   8.946  10.267   4.967
  199POPC   C3A 2936   9.052  10.333   5.420
  199POPC   C4A 2937   9.081  10.562   5.830
  199POPC   C1B 2938   8.576  10.125   4.597
  199POPC   C2B 2939   8.498   9.988   5.011
  199POPC   C3B 2940   8.519  10.233   5.390
  199POPC   C4B 2941   8.710  10.239   5.788
  200POPC   NC3 2942   1.579   8.792   3.740
  200POPC   PO4 2943   0.942   8.595   3.940
  200POPC   GL1 2944   1.118   8.746   4.347
  200POPC   GL2 2945   1.204   9.055   4.351
  200POPC   C1A 2946   1.284   8.601   4.775
  200POPC   D2A 2947   1.235   8.369   5.184
  200POPC   C3A 2948   1.096   8.618   5.554
  200POPC   C4A 2949   1.245   8.582   5.998
  200POPC   C1B 2950   1.128   9.104   4.791
  200POPC   C2B 2951   1.324   8.952   5.168
  200POPC   C3B 2952   1.354   9.069   5.590
  200POPC   C4B 2953   1.033   9.088   5.830
  201POPC   NC3 2954   9.735   4.103   3.865
  201POPC   PO4 2955   9.641   3.441   3.979
  201POPC   GL1 2956   9.795   3.651   4.328
  201POPC   GL2 2957   9.452   3.744   4.395
  201POPC   C1A 2958   9.767   3.749   4.792
  201POPC   D2A 2959   9.538   3.824   5.177
  201POPC   C3A 2960   9.786   3.928   5.561
  201POPC   C4A 2961   9.998   3.813   5.965
  201POPC   C1B 2962   9.397   3.348   4.681
  201POPC   C2B 2963   9.466   3.197   5.110
  201POPC   C3B 2964   9.488   3.421   5.501
  201POPC   C4B 2965   9.173   3.575   5.745
  202POPC   NC3 2966   5.814   0.981   3.917
  202POPC   PO4 2967   5.388   1.506   3.918
  202POPC   GL1 2968   5.450   1.491   4.318
  202POPC   GL2 2969   5.544   1.157   4.300
  202POPC   C1A 2970   5.624   1.391   4.731
  202POPC   D2A 2971   5.481   1.489   5.115
  202POPC   C3A 2972   5.781   1.458   5.407
  202POPC   C4A 2973   5.946   1.661   5.738
  202POPC   C1B 2974   5.435   0.923   4.682
  202POPC   C2B 2975   5.559   0.844   5.115
  202POPC   C3B 2976   5.504   1.045   5.523
  202POPC   C4B 2977   5.943   1.078   5.730
  203POPC   NC3 2978   9.586   2.535   3.842
  203POPC   PO4 2979  10.233   2.596   3.817
  203POPC   GL1 2980   9.998   2.445   4.201
  203POPC   GL2 2981   9.669   2.620   4.332
  203POPC   C1A 2982  10.013   2.465   4.661
  203POPC   D2A 2983   9.906   2.260   5.046
  203POPC   C3A 2984   9.906   2.543   5.390
  203POPC   C4A 2985   9.892   2.510   5.838
  203POPC   C1B 2986   9.573   2.741   4.782
  203POPC   C2B 2987   9.389   2.559   5.149
  203POPC   C3B 2988   9.445   2.653   5.572
  203POPC   C4B 2989   9.734   2.980   5.646
  204POPC   NC3 2990  11.382   5.227   4.097
  204POPC   PO4 2991  10.819   4.900   4.201
  204POPC   GL1 2992  10.861   4.941   4.535
  204POPC   GL2 2993  10.957   5.308   4.472
  204POPC   C1A 2994  10.757   4.746   4.916
  204POPC   D2A 2995  10.897   4.682   5.334
  204POPC   C3A 2996  10.912   4.921   5.665
  204POPC   C4A 2997  10.745   5.290   5.658
  204POPC   C1B 2998  11.272   5.097   4.742
  204POPC   C2B 2999  11.450   4.932   5.099
  204POPC   C3B 3000  11.407   5.066   5.506
  204POPC   C4B 3001  11.446   4.818   5.832
  205POPC   NC3 3002  10.361   3.741   3.826
  205POPC   PO4 3003  10.976   4.032   3.940
  205POPC   GL1 3004  10.666   3.733   4.269
  205POPC   GL2 3005  10.338   3.509   4.263
  205POPC   C1A 3006  10.590   3.432   4.685
  205POPC   D2A 3007  10.516   3.526   5.141
  205POPC   C3A 3008  10.556   3.296   5.557
  205POPC   C4A 3009  10.903   3.258   5.856
  205POPC   C1B 3010  10.248   3.822   4.613
  205POPC   C2B 3011  10.177   3.904   5.089
  205POPC   C3B 3012  10.270   3.742   5.534
  205POPC   C4B 3013  10.097   3.355   5.778
  206POPC   NC3 3014   3.496   0.970   3.672
  206POPC   PO4 3015   3.741   1.539   3.634
  206POPC   GL1 3016   3.417   1.327   4.072
  206POPC   GL2 3017   3.448   0.981   4.196
  206POPC   C1A 3018   3.498   1.266   4.617
  206POPC   D2A 3019   3.769   0.962   4.920
  206POPC   C3A 3020   3.756   1.020   5.408
  206POPC   C4A 3021   3.695   1.251   5.825
  206POPC   C1B 3022   3.358   0.792   4.637
  206POPC   C2B 3023   3.292   0.988   5.094
  206POPC   C3B 3024   3.257   1.109   5.544
  206POPC   C4B 3025   3.383   0.859   5.909
  207POPC   NC3 3026   5.744   9.789   3.908
  207POPC   PO4 3027   5.651   9.192   4.067
  207POPC   GL1 3028   5.593   9.472   4.431
  207POPC   GL2 3029   5.588   9.817   4.393
  207POPC   C1A 3030   5.754   9.609   4.867
  207POPC   D2A 3031   5.736   9.541   5.336
  207POPC   C3A 3032   6.095   9.651   5.646
  207POPC   C4A 3033   6.309   9.456   6.036
  207POPC   C1B 3034   5.292   9.789   4.742
  207POPC   C2B 3035   5.228   9.588   5.201
  207POPC   C3B 3036   5.367   9.669   5.678
  207POPC   C4B 3037   5.565   9.946   6.044
  208POPC   NC3 3038   0.398  11.377   3.886
  208POPC   PO4 3039   0.707  10.816   3.844
  208POPC   GL1 3040   0.638  11.088   4.225
  208POPC   GL2 3041   0.269  11.111   4.317
  208POPC   C1A 3042   0.666  11.165   4.684
  208POPC   D2A 3043   0.860  11.230   5.097
  208POPC   C3A 3044   0.909  10.902   5.379
  208POPC   C4A 3045   0.615  10.808   5.694
  208POPC   C1B 3046   0.253  10.847   4.711
  208POPC   C2B 3047   0.397  10.867   5.185
  208POPC   C3B 3048   0.295  11.168   5.548
  208POPC   C4B 3049   0.145   0.092   5.600
  209POPC   NC3 3050   3.317  10.256   3.637
  209POPC   PO4 3051   3.683   9.869   4.044
  209POPC   GL1 3052   3.656   9.810   4.413
  209POPC   GL2 3053   3.725   9.456   4.367
  209POPC   C1A 3054   3.299   9.838   4.698
  209POPC   D2A 3055   3.259   9.686   5.090
  209POPC   C3A 3056   3.485   9.790   5.469
  209POPC   C4A 3057   3.275   9.992   5.764
  209POPC   C1B 3058   3.548   9.386   4.775
  209POPC   C2B 3059   3.669   9.386   5.215
  209POPC   C3B 3060   3.530   9.309   5.655
  209POPC   C4B 3061   3.644   9.231   6.115
  210POPC   NC3 3062   0.205   8.048   3.381
  210POPC   PO4 3063   0.315   7.821   4.038
  210POPC   GL1 3064   0.232   7.970   4.397
  210POPC   GL2 3065   0.560   8.105   4.377
  210POPC   C1A 3066   0.390   7.855   4.813
  210POPC   D2A 3067   0.240   7.783   5.210
  210POPC   C3A 3068   0.385   7.945   5.597
  210POPC   C4A 3069   0.210   8.305   5.755
  210POPC   C1B 3070   0.406   8.345   4.703
  210POPC   C2B 3071   0.505   8.346   5.098
  210POPC   C3B 3072   0.528   8.566   5.462
  210POPC   C4B 3073   0.665   8.495   5.855
  211POPC   NC3 3074   7.836  10.413   3.831
  211POPC   PO4 3075   8.460  10.736   3.716
  211POPC   GL1 3076   8.232  10.635   4.164
  211POPC   GL2 3077   8.021  10.336   4.283
  211POPC   C1A 3078   8.150  10.698   4.659
  211POPC   D2A 3079   7.887  10.766   5.083
  211POPC   C3A 3080   8.118  10.648   5.478
  211POPC   C4A 3081   8.238  10.406   5.830
  211POPC   C1B 3082   8.069  10.153   4.676
  211POPC   C2B 3083   8.111  10.303   5.085
  211POPC   C3B 3084   7.972  10.129   5.480
  211POPC   C4B 3085   7.913   9.989   5.936
  212POPC   NC3 3086   1.661   5.437   3.982
  212POPC   PO4 3087   1.805   6.029   3.753
  212POPC   GL1 3088   1.781   5.919   4.175
  212POPC   GL2 3089   2.009   5.696   4.316
  212POPC   C1A 3090   1.617   5.942   4.573
  212POPC   D2A 3091   1.552   6.095   4.973
  212POPC   C3A 3092   1.833   6.041   5.316
  212POPC   C4A 3093   1.655   6.194   5.706
  212POPC   C1B 3094   1.958   5.621   4.748
  212POPC   C2B 3095   1.914   5.543   5.174
  212POPC   C3B 3096   1.976   5.528   5.611
  212POPC   C4B 3097   1.917   5.287   6.020
  213POPC   NC3 3098   5.615  11.317   3.571
  213POPC   PO4 3099   6.166   0.220   3.844
  213POPC   GL1 3100   6.113   0.050   4.249
  213POPC   GL2 3101   5.880  11.275   4.217
  213POPC   C1A 3102   6.007   0.041   4.696
  213POPC   D2A 3103   6.021  11.249   5.027
  213POPC   C3A 3104   6.035  11.421   5.397
  213POPC   C4A 3105   6.083  11.205   5.756
  213POPC   C1B 3106   5.737  11.106   4.613
  213POPC   C2B 3107   5.547  10.981   5.041
  213POPC   C3B 3108   5.601  11.096   5.498
  213POPC   C4B 3109   5.617  11.191   5.959
  214POPC   NC3 3110   0.292   4.915   3.797
  214POPC   PO4 3111   0.901   4.510   3.863
  214POPC   GL1 3112   0.748   4.746   4.274
  214POPC   GL2 3113   0.457   4.959   4.293
  214POPC   C1A 3114   0.788   4.964   4.691
  214POPC   D2A 3115   0.825   4.823   5.128
  214POPC   C3A 3116   0.462   4.683   5.387
  214POPC   C4A 3117   0.449   4.808   5.820
  214POPC   C1B 3118   0.273   5.016   4.681
  214POPC   C2B 3119   0.437   5.180   5.064
  214POPC   C3B 3120   0.407   5.208   5.498
  214POPC   C4B 3121   0.201   5.253   5.915
  215POPC   NC3 3122   5.580   0.142   3.981
  215POPC   PO4 3123   5.369   0.816   3.938
  215POPC   GL1 3124   5.636   0.637   4.298
  215POPC   GL2 3125   5.669   0.295   4.426
  215POPC   C1A 3126   5.854   0.609   4.746
  215POPC   D2A 3127   5.870   0.361   5.133
  215POPC   C3A 3128   5.808   0.612   5.524
  215POPC   C4A 3129   5.591   0.721   5.914
  215POPC   C1B 3130   5.490   0.040   4.719
  215POPC   C2B 3131   5.541  11.470   5.162
  215POPC   C3B 3132   5.613   0.140   5.578
  215POPC   C4B 3133   5.988   0.224   5.820
  216POPC   NC3 3134   2.884   7.601   4.054
  216POPC   PO4 3135   2.323   7.933   4.031
  216POPC   GL1 3136   2.620   7.959   4.336
  216POPC   GL2 3137   2.394   8.003   4.563
  216POPC   C1A 3138   2.878   7.935   4.750
  216POPC   D2A 3139   2.836   8.154   5.199
  216POPC   C3A 3140   2.975   8.054   5.638
  216POPC   C4A 3141   2.710   7.858   5.981
  216POPC   C1B 3142   2.562   8.334   4.802
  216POPC   C2B 3143   2.358   8.340   5.216
  216POPC   C3B 3144   2.490   8.201   5.615
  216POPC   C4B 3145   2.656   8.360   5.995
  217POPC   NC3 3146   1.844   6.479   3.919
  217POPC   PO4 3147   2.446   6.387   3.903
  217POPC   GL1 3148   2.176   6.230   4.273
  217POPC   GL2 3149   1.994   6.523   4.408
  217POPC   C1A 3150   2.034   6.153   4.746
  217POPC   D2A 3151   2.188   6.360   5.151
  217POPC   C3A 3152   2.160   6.590   5.564
  217POPC   C4A 3153   1.948   6.529   5.961
  217POPC   C1B 3154   1.785   6.570   4.830
  217POPC   C2B 3155   1.714   6.539   5.277
  217POPC   C3B 3156   1.750   6.900   5.539
  217POPC   C4B 3157   1.986   7.058   5.871
  218POPC   NC3 3158   0.587   3.368   3.821
  218POPC   PO4 3159   0.132   3.875   3.941
  218POPC   GL1 3160   0.389   3.758   4.271
  218POPC   GL2 3161   0.424   3.440   4.337
  218POPC   C1A 3162   0.552   3.823   4.663
  218POPC   D2A 3163   0.328   3.784   5.027
  218POPC   C3A 3164   0.450   3.636   5.401
  218POPC   C4A 3165   0.293   3.736   5.770
  218POPC   C1B 3166   0.345   3.269   4.684
  218POPC   C2B 3167   0.480   3.254   5.071
  218POPC   C3B 3168   0.236   3.165   5.393
  218POPC   C4B 3169   0.359   3.227   5.778
  219POPC   NC3 3170  10.243   7.153   4.005
  219POPC   PO4 3171  10.916   7.389   3.966
  219POPC   GL1 3172  10.836   7.118   4.320
  219POPC   GL2 3173  10.509   7.220   4.405
  219POPC   C1A 3174  10.780   6.980   4.739
  219POPC   D2A 3175  10.542   7.057   5.099
  219POPC   C3A 3176  10.799   7.078   5.436
  219POPC   C4A 3177  10.725   6.921   5.814
  219POPC   C1B 3178  10.560   7.504   4.707
  219POPC   C2B 3179  10.339   7.541   5.115
  219POPC   C3B 3180  10.349   7.318   5.507
  219POPC   C4B 3181  10.637   7.436   5.804
  220POPC   NC3 3182  10.645   4.568   3.948
  220POPC   PO4 3183  10.160   4.170   4.017
  220POPC   GL1 3184  10.277   4.383   4.358
  220POPC   GL2 3185  10.576   4.511   4.454
  220POPC   C1A 3186  10.224   4.311   4.773
  220POPC   D2A 3187  10.458   4.358   5.101
  220POPC   C3A 3188  10.210   4.262   5.455
  220POPC   C4A 3189  10.127   4.391   5.862
  220POPC   C1B 3190  10.685   4.115   4.644
  220POPC   C2B 3191  10.827   4.007   5.061
  220POPC   C3B 3192  10.763   4.214   5.467
  220POPC   C4B 3193  10.546   4.108   5.808
  221POPC   NC3 3194   5.006   8.179   3.836
  221POPC   PO4 3195   4.772   7.662   4.122
  221POPC   GL1 3196   4.941   7.925   4.464
  221POPC   GL2 3197   4.914   8.243   4.348
  221POPC   C1A 3198   4.832   8.106   4.897
  221POPC   D2A 3199   4.553   8.265   5.236
  221POPC   C3A 3200   4.536   8.019   5.617
  221POPC   C4A 3201   4.708   7.706   5.899
  221POPC   C1B 3202   5.187   8.402   4.673
  221POPC   C2B 3203   5.283   8.223   5.097
  221POPC   C3B 3204   5.023   8.181   5.486
  221POPC   C4B 3205   4.871   8.275   5.922
  222POPC   NC3 3206   1.230   4.169   3.844
  222POPC   PO4 3207   1.327   3.619   4.021
  222POPC   GL1 3208   1.087   3.987   4.346
  222POPC   GL2 3209   1.138   4.358   4.302
  222POPC   C1A 3210   1.002   3.996   4.828
  222POPC   D2A 3211   1.243   3.944   5.234
  222POPC   C3A 3212   1.239   4.086   5.690
  222POPC   C4A 3213   1.504   3.999   6.070
  222POPC   C1B 3214   1.022   4.498   4.689
  222POPC   C2B 3215   1.172   4.423   5.090
  222POPC   C3B 3216   0.957   4.449   5.460
  222POPC   C4B 3217   0.879   4.549   5.842
  223POPC   NC3 3218   2.555   8.315   3.927
  223POPC   PO4 3219   2.724   9.018   3.939
  223POPC   GL1 3220   2.780   8.753   4.293
  223POPC   GL2 3221   2.492   8.618   4.388
  223POPC   C1A 3222   2.847   8.791   4.758
  223POPC   D2A 3223   2.735   8.681   5.176
  223POPC   C3A 3224   2.709   8.704   5.623
  223POPC   C4A 3225   3.075   8.607   5.876
  223POPC   C1B 3226   2.481   9.083   4.580
  223POPC   C2B 3227   2.549   9.190   5.030
  223POPC   C3B 3228   2.657   9.201   5.474
  223POPC   C4B 3229   3.074   9.077   5.672
  224POPC   NC3 3230  10.340   0.261   3.743
  224POPC   PO4 3231  10.668   0.088   4.290
  224POPC   GL1 3232  10.378   0.251   4.522
  224POPC   GL2 3233  10.438   0.584   4.385
  224POPC   C1A 3234  10.261   0.200   4.968
  224POPC   D2A 3235  10.320   0.491   5.291
  224POPC   C3A 3236  10.448   0.282   5.653
  224POPC   C4A 3237  10.052   0.122   5.798
  224POPC   C1B 3238  10.527   0.630   4.839
  224POPC   C2B 3239  10.804   0.654   5.223
  224POPC   C3B 3240  10.582   0.803   5.611
  224POPC   C4B 3241  10.627   0.732   6.056
  225POPC   NC3 3242   2.292   3.013   3.998
  225POPC   PO4 3243   1.619   3.085   3.886
  225POPC   GL1 3244   1.823   2.889   4.251
  225POPC   GL2 3245   2.019   2.584   4.155
  225POPC   C1A 3246   1.703   2.705   4.652
  225POPC   D2A 3247   1.584   2.842   5.060
  225POPC   C3A 3248   1.778   2.743   5.437
  225POPC   C4A 3249   1.708   2.920   5.844
  225POPC   C1B 3250   2.218   2.688   4.579
  225POPC   C2B 3251   2.092   2.722   5.010
  225POPC   C3B 3252   2.340   2.804   5.382
  225POPC   C4B 3253   2.177   2.701   5.776
  226POPC   NC3 3254   6.888   7.944   3.951
  226POPC   PO4 3255   7.017   8.469   3.814
  226POPC   GL1 3256   7.052   8.400   4.285
  226POPC   GL2 3257   7.364   8.260   4.401
  226POPC   C1A 3258   7.059   8.460   4.773
  226POPC   D2A 3259   7.265   8.338   5.180
  226POPC   C3A 3260   7.098   8.373   5.597
  226POPC   C4A 3261   7.062   8.063   5.933
  226POPC   C1B 3262   7.576   8.448   4.781
  226POPC   C2B 3263   7.772   8.354   5.197
  226POPC   C3B 3264   7.593   8.230   5.613
  226POPC   C4B 3265   7.479   8.331   6.078
  227POPC   NC3 3266   1.222   0.282   3.973
  227POPC   PO4 3267   1.190   0.979   3.969
  227POPC   GL1 3268   1.007   0.822   4.334
  227POPC   GL2 3269   0.929   0.455   4.370
  227POPC   C1A 3270   0.870   0.878   4.746
  227POPC   D2A 3271   0.735   0.947   5.169
  227POPC   C3A 3272   0.976   0.759   5.512
  227POPC   C4A 3273   1.233   0.696   5.875
  227POPC   C1B 3274   1.245   0.502   4.707
  227POPC   C2B 3275   1.211   0.427   5.149
  227POPC   C3B 3276   1.442   0.406   5.520
  227POPC   C4B 3277   1.635   0.084   5.749
  228POPC   NC3 3278  10.869   7.843   3.890
  228POPC   PO4 3279  11.452   7.720   3.640
  228POPC   GL1 3280  11.368   7.561   4.151
  228POPC   GL2 3281  11.345   7.224   4.257
  228POPC   C1A 3282  11.083   7.497   4.596
  228POPC   D2A 3283  10.918   7.387   5.033
  228POPC   C3A 3284  11.033   7.539   5.450
  228POPC   C4A 3285  11.062   7.685   5.859
  228POPC   C1B 3286  11.278   7.039   4.670
  228POPC   C2B 3287  11.161   6.892   5.077
  228POPC   C3B 3288  11.325   7.035   5.462
  228POPC   C4B 3289  11.150   7.190   5.837
  229POPC   NC3 3290   4.275   2.476   3.903
  229POPC   PO4 3291   4.030   3.025   3.956
  229POPC   GL1 3292   4.003   2.739   4.289
  229POPC   GL2 3293   4.266   2.510   4.419
  229POPC   C1A 3294   4.005   2.811   4.747
  229POPC   D2A 3295   3.927   2.591   5.118
  229POPC   C3A 3296   4.212   2.777   5.371
  229POPC   C4A 3297   4.131   3.035   5.703
  229POPC   C1B 3298   4.389   2.497   4.880
  229POPC   C2B 3299   4.325   2.276   5.265
  229POPC   C3B 3300   4.380   2.410   5.671
  229POPC   C4B 3301   4.585   2.793   5.782
  230POPC   NC3 3302   4.806   9.889   4.165
  230POPC   PO4 3303   5.426  10.112   4.016
  230POPC   GL1 3304   5.370  10.319   4.379
  230POPC   GL2 3305   5.280  10.697   4.352
  230POPC   C1A 3306   5.243  10.354   4.775
  230POPC   D2A 3307   5.126  10.613   5.109
  230POPC   C3A 3308   5.119  10.262   5.348
  230POPC   C4A 3309   5.270  10.168   5.712
  230POPC   C1B 3310   4.899  10.735   4.629
  230POPC   C2B 3311   4.743  10.961   5.014
  230POPC   C3B 3312   4.707  10.780   5.422
  230POPC   C4B 3313   5.089  10.668   5.647
  231POPC   NC3 3314  10.655   2.779   3.890
  231POPC   PO4 3315  10.743   3.424   3.873
  231POPC   GL1 3316  10.714   3.131   4.262
  231POPC   GL2 3317  10.391   2.956   4.288
  231POPC   C1A 3318  10.844   2.960   4.700
  231POPC   D2A 3319  10.849   3.077   5.163
  231POPC   C3A 3320  10.784   2.837   5.543
  231POPC   C4A 3321  10.697   2.641   5.916
  231POPC   C1B 3322  10.517   2.554   4.510
  231POPC   C2B 3323  10.445   2.360   4.924
  231POPC   C3B 3324  10.415   2.534   5.338
  231POPC   C4B 3325  10.261   2.826   5.669
  232POPC   NC3 3326   7.288  10.838   3.985
  232POPC   PO4 3327   6.995  11.425   3.856
  232POPC   GL1 3328   7.129  11.310   4.278
  232POPC   GL2 3329   7.432  11.120   4.393
  232POPC   C1A 3330   7.007  11.269   4.709
  232POPC   D2A 3331   6.961  11.449   5.109
  232POPC   C3A 3332   6.935  11.189   5.483
  232POPC   C4A 3333   6.954  11.362   5.902
  232POPC   C1B 3334   7.409  10.924   4.811
  232POPC   C2B 3335   7.377  11.155   5.192
  232POPC   C3B 3336   7.433  11.288   5.610
  232POPC   C4B 3337   7.557  10.903   5.798
  233POPC   NC3 3338   1.757   3.741   3.927
  233POPC   PO4 3339   2.360   3.466   4.028
  233POPC   GL1 3340   1.959   3.411   4.265
  233POPC   GL2 3341   2.144   3.547   4.523
  233POPC   C1A 3342   1.663   3.636   4.614
  233POPC   D2A 3343   1.694   3.849   5.040
  233POPC   C3A 3344   1.798   3.697   5.473
  233POPC   C4A 3345   1.693   3.520   5.877
  233POPC   C1B 3346   1.971   3.174   4.731
  233POPC   C2B 3347   2.000   3.183   5.178
  233POPC   C3B 3348   2.053   3.186   5.589
  233POPC   C4B 3349   2.107   3.272   5.998
  234POPC   NC3 3350   8.978   1.815   3.861
  234POPC   PO4 3351   8.420   2.304   4.001
  234POPC   GL1 3352   8.835   2.185   4.215
  234POPC   GL2 3353   8.704   1.877   4.285
  234POPC   C1A 3354   9.041   2.099   4.645
  234POPC   D2A 3355   8.964   2.251   5.071
  234POPC   C3A 3356   9.052   1.994   5.414
  234POPC   C4A 3357   9.004   2.060   5.830
  234POPC   C1B 3358   8.544   2.068   4.657
  234POPC   C2B 3359   8.569   1.880   5.073
  234POPC   C3B 3360   8.340   1.942   5.441
  234POPC   C4B 3361   8.474   1.952   5.844
  235POPC   NC3 3362   9.678  11.286   3.943
  235POPC   PO4 3363   9.325   0.366   4.009
  235POPC   GL1 3364   9.579   0.265   4.332
  235POPC   GL2 3365   9.830   0.571   4.258
  235POPC   C1A 3366   9.362   0.253   4.736
  235POPC   D2A 3367   9.254   0.570   5.037
  235POPC   C3A 3368   9.301   0.320   5.363
  235POPC   C4A 3369   9.496   0.173   5.733
  235POPC   C1B 3370   9.910   0.451   4.690
  235POPC   C2B 3371   9.758   0.311   5.100
  235POPC   C3B 3372   9.801   0.518   5.499
  235POPC   C4B 3373  10.134   0.653   5.751
  236POPC   NC3 3374   8.886   1.017   3.996
  236POPC   PO4 3375   8.511   1.582   3.872
  236POPC   GL1 3376   8.616   1.375   4.237
  236POPC   GL2 3377   8.956   1.420   4.321
  236POPC   C1A 3378   8.588   1.490   4.691
  236POPC   D2A 3379   8.607   1.330   5.128
  236POPC   C3A 3380   8.715   1.603   5.505
  236POPC   C4A 3381   9.108   1.570   5.756
  236POPC   C1B 3382   8.984   1.113   4.673
  236POPC   C2B 3383   9.115   1.086   5.114
  236POPC   C3B 3384   8.927   1.146   5.515
  236POPC   C4B 3385   9.056   1.053   5.904
  237POPC   NC3 3386   0.251   7.371   3.875
  237POPC   PO4 3387   0.865   7.000   3.910
  237POPC   GL1 3388   0.662   7.091   4.343
  237POPC   GL2 3389   0.350   7.300   4.353
  237POPC   C1A 3390   0.628   7.313   4.772
  237POPC   D2A 3391   0.380   7.282   5.138
  237POPC   C3A 3392   0.476   7.208   5.570
  237POPC   C4A 3393   0.152   7.085   5.889
  237POPC   C1B 3394   0.097   7.443   4.695
  237POPC   C2B 3395  11.405   7.417   5.119
  237POPC   C3B 3396   0.038   7.495   5.598
  237POPC   C4B 3397   0.384   7.547   5.961
  238POPC   NC3 3398   5.545   1.931   3.952
  238POPC   PO4 3399   5.928   2.331   4.061
  238POPC   GL1 3400   5.797   2.013   4.381
  238POPC   GL2 3401   5.921   1.685   4.291
  238POPC   C1A 3402   5.487   1.878   4.711
  238POPC   D2A 3403   5.279   1.966   5.127
  238POPC   C3A 3404   5.537   1.916   5.503
  238POPC   C4A 3405   5.805   2.149   5.830
  238POPC   C1B 3406   5.997   1.736   4.765
  238POPC   C2B 3407   5.967   1.900   5.199
  238POPC   C3B 3408   6.238   2.046   5.542
  238POPC   C4B 3409   6.265   1.987   6.002
  239POPC   NC3 3410   0.644   6.636   4.096
  239POPC   PO4 3411   0.073   6.926   3.928
  239POPC   GL1 3412   0.201   6.798   4.302
  239POPC   GL2 3413   0.169   6.442   4.246
  239POPC   C1A 3414   0.270   6.926   4.709
  239POPC   D2A 3415   0.475   6.790   5.037
  239POPC   C3A 3416   0.308   6.747   5.446
  239POPC   C4A 3417   0.595   6.618   5.762
  239POPC   C1B 3418   0.364   6.410   4.663
  239POPC   C2B 3419   0.467   6.243   5.096
  239POPC   C3B 3420   0.286   6.230   5.504
  239POPC   C4B 3421   0.375   6.013   5.907
  240POPC   NC3 3422  10.392   9.714   3.934
  240POPC   PO4 3423  10.872   9.160   3.828
  240POPC   GL1 3424  10.522   9.292   4.196
  240POPC   GL2 3425  10.670   9.589   4.337
  240POPC   C1A 3426  10.457   9.303   4.698
  240POPC   D2A 3427  10.652   9.248   5.106
  240POPC   C3A 3428  10.390   9.390   5.433
  240POPC   C4A 3429  10.524   9.685   5.784
  240POPC   C1B 3430  10.307   9.777   4.583
  240POPC   C2B 3431  10.240   9.684   5.014
  240POPC   C3B 3432  10.174   9.870   5.461
  240POPC   C4B 3433  10.282  10.143   5.871
  241POPC   NC3 3434   4.817  11.193   3.799
  241POPC   PO4 3435   5.499  11.003   3.881
  241POPC   GL1 3436   5.350  11.234   4.243
  241POPC   GL2 3437   4.991  11.326   4.263
  241POPC   C1A 3438   5.215  11.120   4.666
  241POPC   D2A 3439   5.067  11.362   4.990
  241POPC   C3A 3440   5.091  11.153   5.369
  241POPC   C4A 3441   5.209  11.372   5.727
  241POPC   C1B 3442   4.694  11.324   4.636
  241POPC   C2B 3443   4.514  11.437   5.049
  241POPC   C3B 3444   4.533  11.287   5.464
  241POPC   C4B 3445   4.773  11.135   5.792
  242POPC   NC3 3446  11.247   6.033   3.542
  242POPC   PO4 3447  11.019   5.648   4.050
  242POPC   GL1 3448  11.157   5.776   4.435
  242POPC   GL2 3449  11.468   5.615   4.399
  242POPC   C1A 3450  11.218   5.589   4.855
  242POPC   D2A 3451  11.066   5.361   5.248
  242POPC   C3A 3452  11.061   5.671   5.618
  242POPC   C4A 3453  10.893   6.085   5.582
  242POPC   C1B 3454   0.079   5.978   4.640
  242POPC   C2B 3455  11.281   6.104   4.933
  242POPC   C3B 3456  11.338   6.006   5.343
  242POPC   C4B 3457  11.367   6.143   5.780
  243POPC   NC3 3458   8.204  11.197   3.838
  243POPC   PO4 3459   7.735  10.801   4.107
  243POPC   GL1 3460   7.958  11.104   4.318
  243POPC   GL2 3461   8.305  11.110   4.331
  243POPC   C1A 3462   7.880  11.133   4.738
  243POPC   D2A 3463   7.857  11.336   5.124
  243POPC   C3A 3464   7.916  11.112   5.504
  243POPC   C4A 3465   7.876  11.289   5.929
  243POPC   C1B 3466   8.388  11.232   4.709
  243POPC   C2B 3467   8.331  11.051   5.109
  243POPC   C3B 3468   8.437  11.186   5.510
  243POPC   C4B 3469   8.364  11.110   5.938
  244POPC   NC3 3470   2.290   8.876   3.978
  244POPC   PO4 3471   1.763   9.217   3.750
  244POPC   GL1 3472   1.717   9.122   4.213
  244POPC   GL2 3473   1.719   8.759   4.236
  244POPC   C1A 3474   1.605   8.982   4.682
  244POPC   D2A 3475   1.785   8.723   5.025
  244POPC   C3A 3476   1.622   8.644   5.439
  244POPC   C4A 3477   1.708   8.801   5.835
  244POPC   C1B 3478   2.040   8.766   4.563
  244POPC   C2B 3479   2.295   8.753   4.920
  244POPC   C3B 3480   2.266   8.826   5.370
  244POPC   C4B 3481   2.279   9.045   5.775
  245POPC   NC3 3482   4.214   0.485   3.899
  245POPC   PO4 3483   4.005  11.376   3.939
  245POPC   GL1 3484   4.077   0.217   4.292
  245POPC   GL2 3485   4.118   0.620   4.386
  245POPC   C1A 3486   4.311   0.251   4.684
  245POPC   D2A 3487   4.102   0.330   5.085
  245POPC   C3A 3488   4.319   0.288   5.476
  245POPC   C4A 3489   4.291   0.347   5.948
  245POPC   C1B 3490   4.373   0.774   4.789
  245POPC   C2B 3491   4.620   0.663   5.192
  245POPC   C3B 3492   4.576   0.693   5.647
  245POPC   C4B 3493   4.156   0.805   5.806
  246POPC   NC3 3494   8.788   9.762   4.001
  246POPC   PO4 3495   9.377   9.397   3.912
  246POPC   GL1 3496   9.096   9.435   4.276
  246POPC   GL2 3497   9.227   9.752   4.402
  246POPC   C1A 3498   9.113   9.221   4.698
  246POPC   D2A 3499   8.935   9.064   5.108
  246POPC   C3A 3500   8.978   9.294   5.534
  246POPC   C4A 3501   9.054   9.220   6.004
  246POPC   C1B 3502   8.838   9.676   4.680
  246POPC   C2B 3503   8.757   9.558   5.119
  246POPC   C3B 3504   8.845   9.819   5.505
  246POPC   C4B 3505   9.161   9.998   5.791
  247POPC   NC3 3506   2.120   0.401   3.762
  247POPC   PO4 3507   1.633   0.083   3.986
  247POPC   GL1 3508   1.943   0.109   4.268
  247POPC   GL2 3509   1.942   0.477   4.259
  247POPC   C1A 3510   1.941   0.172   4.718
  247POPC   D2A 3511   1.788   0.159   5.142
  247POPC   C3A 3512   2.142   0.076   5.461
  247POPC   C4A 3513   2.114   0.006   5.904
  247POPC   C1B 3514   1.897   0.697   4.659
  247POPC   C2B 3515   1.698   0.672   5.066
  247POPC   C3B 3516   1.930   0.548   5.428
  247POPC   C4B 3517   2.143   0.503   5.789
  248POPC   NC3 3518  10.426   6.202   3.754
  248POPC   PO4 3519  10.580   6.818   3.972
  248POPC   GL1 3520  10.511   6.702   4.356
  248POPC   GL2 3521  10.419   6.380   4.248
  248POPC   C1A 3522  10.304   6.796   4.742
  248POPC   D2A 3523  10.177   6.572   5.114
  248POPC   C3A 3524  10.289   6.795   5.485
  248POPC   C4A 3525  10.004   6.755   5.845
  248POPC   C1B 3526  10.395   6.297   4.691
  248POPC   C2B 3527  10.389   6.030   5.033
  248POPC   C3B 3528  10.396   6.193   5.448
  248POPC   C4B 3529  10.427   6.435   5.810
  249POPC   NC3 3530   0.460   1.898   3.825
  249POPC   PO4 3531   0.182   2.371   4.161
  249POPC   GL1 3532   0.233   1.919   4.318
  249POPC   GL2 3533   0.572   1.722   4.304
  249POPC   C1A 3534   0.249   1.711   4.731
  249POPC   D2A 3535   0.435   1.887   5.093
  249POPC   C3A 3536   0.173   1.873   5.409
  249POPC   C4A 3537   0.020   2.220   5.636
  249POPC   C1B 3538   0.626   2.056   4.631
  249POPC   C2B 3539   0.655   2.348   4.987
  249POPC   C3B 3540   0.509   2.290   5.438
  249POPC   C4B 3541   0.494   1.993   5.770
  250POPC   NC3 3542   0.530   8.881   3.912
  250POPC   PO4 3543  11.464   8.464   3.778
  250POPC   GL1 3544   0.242   8.509   4.200
  250POPC   GL2 3545   0.596   8.603   4.313
  250POPC   C1A 3546   0.214   8.806   4.605
  250POPC   D2A 3547   0.343   8.833   5.065
  250POPC   C3A 3548   0.201   9.090   5.448
  250POPC   C4A 3549   0.091   9.077   5.918
  250POPC   C1B 3550   0.754   8.719   4.692
  250POPC   C2B 3551   0.866   8.731   5.087
  250POPC   C3B 3552   0.763   9.015   5.390
  250POPC   C4B 3553   0.555   8.976   5.790
  251POPC   NC3 3554  11.115  11.136   3.642
  251POPC   PO4 3555  10.765   0.108   3.763
  251POPC   GL1 3556  11.128   0.010   4.110
  251POPC   GL2 3557  11.260  11.190   4.172
  251POPC   C1A 3558  11.234   0.006   4.608
  251POPC   D2A 3559  11.070  11.287   5.028
  251POPC   C3A 3560  11.224  11.338   5.455
  251POPC   C4A 3561  11.155   0.092   5.844
  251POPC   C1B 3562  11.206  11.004   4.635
  251POPC   C2B 3563  11.367  10.846   5.041
  251POPC   C3B 3564  11.390  10.835   5.457
  251POPC   C4B 3565  11.149  10.973   5.796
  252POPC   NC3 3566   4.069   1.118   4.085
  252POPC   PO4 3567   4.649   1.189   3.710
  252POPC   GL1 3568   4.590   1.222   4.181
  252POPC   GL2 3569   4.360   1.480   4.296
  252POPC   C1A 3570   4.647   1.276   4.656
  252POPC   D2A 3571   4.640   1.169   5.068
  252POPC   C3A 3572   4.637   1.412   5.456
  252POPC   C4A 3573   4.630   1.174   5.826
  252POPC   C1B 3574   4.145   1.275   4.689
  252POPC   C2B 3575   4.146   1.261   5.094
  252POPC   C3B 3576   4.280   1.060   5.407
  252POPC   C4B 3577   4.178   1.362   5.702
  253POPC   NC3 3578   5.563  10.545   3.951
  253POPC   PO4 3579   6.055  10.112   3.896
  253POPC   GL1 3580   5.878  10.273   4.287
  253POPC   GL2 3581   5.954  10.646   4.286
  253POPC   C1A 3582   5.753  10.126   4.737
  253POPC   D2A 3583   5.522  10.000   5.135
  253POPC   C3A 3584   5.726  10.026   5.515
  253POPC   C4A 3585   5.907  10.270   5.797
  253POPC   C1B 3586   5.682  10.617   4.656
  253POPC   C2B 3587   5.635  10.484   5.080
  253POPC   C3B 3588   5.576  10.557   5.489
  253POPC   C4B 3589   5.856  10.765   5.776
  254POPC   NC3 3590   1.848  10.444   3.664
  254POPC   PO4 3591   2.446  10.776   3.842
  254POPC   GL1 3592   2.317  10.793   4.282
  254POPC   GL2 3593   2.154  10.463   4.376
  254POPC   C1A 3594   2.300  10.793   4.752
  254POPC   D2A 3595   2.060  10.591   5.063
  254POPC   C3A 3596   2.009  10.781   5.459
  254POPC   C4A 3597   2.199  10.649   5.846
  254POPC   C1B 3598   2.250  10.178   4.716
  254POPC   C2B 3599   2.198  10.068   5.169
  254POPC   C3B 3600   2.006  10.284   5.510
  254POPC   C4B 3601   1.657  10.510   5.707
  255POPC   NC3 3602   9.838  11.019   3.467
  255POPC   PO4 3603   9.297  10.991   3.957
  255POPC   GL1 3604   9.442  10.982   4.341
  255POPC   GL2 3605   9.786  10.979   4.347
  255POPC   C1A 3606   9.551  11.247   4.731
  255POPC   D2A 3607   9.430  11.363   5.190
  255POPC   C3A 3608   9.695  11.237   5.597
  255POPC   C4A 3609   9.735  11.367   6.096
  255POPC   C1B 3610   9.644  10.713   4.701
  255POPC   C2B 3611   9.418  10.859   5.078
  255POPC   C3B 3612   9.253  10.951   5.495
  255POPC   C4B 3613   9.476  10.878   5.900
  256POPC   NC3 3614   9.153   4.861   3.929
  256POPC   PO4 3615   8.572   5.109   3.804
  256POPC   GL1 3616   8.721   5.182   4.289
  256POPC   GL2 3617   9.081   5.148   4.387
  256POPC   C1A 3618   8.734   5.077   4.776
  256POPC   D2A 3619   8.958   4.958   5.215
  256POPC   C3A 3620   8.778   4.889   5.652
  256POPC   C4A 3621   8.434   4.858   5.958
  256POPC   C1B 3622   9.165   5.345   4.807
  256POPC   C2B 3623   9.259   5.378   5.260
  256POPC   C3B 3624   9.155   5.259   5.669
  256POPC   C4B 3625   9.214   4.934   5.983
  257POPC   NC3 3626   2.787   3.614   4.002
  257POPC   PO4 3627   3.111   3.080   4.021
  257POPC   GL1 3628   2.746   3.243   4.320
  257POPC   GL2 3629   2.427   3.135   4.459
  257POPC   C1A 3630   2.725   3.447   4.742
  257POPC   D2A 3631   3.011   3.482   5.108
  257POPC   C3A 3632   2.883   3.501   5.544
  257POPC   C4A 3633   3.034   3.351   5.918
  257POPC   C1B 3634   2.440   3.065   4.900
  257POPC   C2B 3635   2.499   3.296   5.273
  257POPC   C3B 3636   2.368   3.585   5.613
  257POPC   C4B 3637   2.549   3.534   6.009
  258POPC   NC3 3638   4.156  10.636   4.025
  258POPC   PO4 3639   4.379  10.012   4.085
  258POPC   GL1 3640   4.103  10.152   4.437
  258POPC   GL2 3641   3.823  10.310   4.304
  258POPC   C1A 3642   4.212  10.180   4.909
  258POPC   D2A 3643   4.621  10.262   5.174
  258POPC   C3A 3644   4.667  10.305   5.638
  258POPC   C4A 3645   4.682  10.652   5.954
  258POPC   C1B 3646   3.935  10.592   4.677
  258POPC   C2B 3647   3.855  10.543   5.119
  258POPC   C3B 3648   4.121  10.357   5.448
  258POPC   C4B 3649   4.234  10.423   5.894
  259POPC   NC3 3650   4.937   0.685   3.842
  259POPC   PO4 3651   5.196   0.029   3.740
  259POPC   GL1 3652   5.130   0.319   4.154
  259POPC   GL2 3653   4.787   0.304   4.355
  259POPC   C1A 3654   5.223   0.472   4.578
  259POPC   D2A 3655   5.309   0.402   5.026
  259POPC   C3A 3656   5.268   0.563   5.444
  259POPC   C4A 3657   5.209   0.367   5.839
  259POPC   C1B 3658   4.812   0.312   4.843
  259POPC   C2B 3659   4.877   0.211   5.313
  259POPC   C3B 3660   4.744   0.180   5.742
  259POPC   C4B 3661   4.771   0.482   6.089
  260POPC   NC3 3662   1.870   7.881   4.031
  260POPC   PO4 3663   2.048   8.503   3.885
  260POPC   GL1 3664   2.087   8.320   4.299
  260POPC   GL2 3665   1.769   8.268   4.391
  260POPC   C1A 3666   2.047   8.315   4.798
  260POPC   D2A 3667   1.763   8.217   5.162
  260POPC   C3A 3668   1.980   8.293   5.565
  260POPC   C4A 3669   2.203   8.556   5.825
  260POPC   C1B 3670   1.780   7.899   4.688
  260POPC   C2B 3671   1.677   7.695   5.099
  260POPC   C3B 3672   1.716   7.831   5.532
  260POPC   C4B 3673   1.507   8.209   5.698
  261POPC   NC3 3674   8.679   2.687   4.126
  261POPC   PO4 3675   9.277   2.820   4.008
  261POPC   GL1 3676   9.240   2.886   4.433
  261POPC   GL2 3677   9.117   2.572   4.490
  261POPC   C1A 3678   9.078   2.923   4.873
  261POPC   D2A 3679   8.915   2.741   5.270
  261POPC   C3A 3680   9.070   2.973   5.638
  261POPC   C4A 3681   9.134   3.132   6.036
  261POPC   C1B 3682   8.722   2.558   4.753
  261POPC   C2B 3683   8.481   2.385   5.108
  261POPC   C3B 3684   8.650   2.365   5.543
  261POPC   C4B 3685   8.628   2.753   5.799
  262POPC   NC3 3686   3.256  10.852   3.917
  262POPC   PO4 3687   3.161  11.476   3.929
  262POPC   GL1 3688   3.180  11.248   4.303
  262POPC   GL2 3689   3.514  11.137   4.352
  262POPC   C1A 3690   3.181  11.315   4.748
  262POPC   D2A 3691   3.183  11.123   5.149
  262POPC   C3A 3692   3.242  11.291   5.559
  262POPC   C4A 3693   3.413  11.403   5.976
  262POPC   C1B 3694   3.640  11.006   4.769
  262POPC   C2B 3695   3.671  11.021   5.220
  262POPC   C3B 3696   3.716  11.079   5.638
  262POPC   C4B 3697   3.826  10.692   5.760
  263POPC   NC3 3698  11.322   2.133   4.020
  263POPC   PO4 3699   0.116   1.579   3.934
  263POPC   GL1 3700  11.278   1.673   4.267
  263POPC   GL2 3701  10.929   1.862   4.168
  263POPC   C1A 3702  11.273   1.917   4.691
  263POPC   D2A 3703  11.284   2.104   5.127
  263POPC   C3A 3704  11.170   1.871   5.521
  263POPC   C4A 3705  11.481   1.791   5.888
  263POPC   C1B 3706  10.818   2.122   4.563
  263POPC   C2B 3707  10.806   2.019   5.003
  263POPC   C3B 3708  10.727   2.144   5.433
  263POPC   C4B 3709  10.926   2.190   5.838
  264POPC   NC3 3710   4.246   1.607   3.644
  264POPC   PO4 3711   3.851   1.516   4.173
  264POPC   GL1 3712   3.989   1.797   4.461
  264POPC   GL2 3713   4.274   1.991   4.315
  264POPC   C1A 3714   4.054   1.737   4.891
  264POPC   D2A 3715   3.929   1.969   5.215
  264POPC   C3A 3716   4.054   1.985   5.654
  264POPC   C4A 3717   4.035   1.714   6.026
  264POPC   C1B 3718   4.443   2.005   4.738
  264POPC   C2B 3719   4.500   1.808   5.158
  264POPC   C3B 3720   4.831   1.922   5.480
  264POPC   C4B 3721   4.799   2.197   5.875
  265POPC   NC3 3722   1.115   6.619   3.755
  265POPC   PO4 3723   1.497   6.429   4.215
  265POPC   GL1 3724   1.303   6.411   4.557
  265POPC   GL2 3725   0.986   6.374   4.401
  265POPC   C1A 3726   1.297   6.555   4.962
  265POPC   D2A 3727   1.293   6.825   5.272
  265POPC   C3A 3728   1.340   6.623   5.660
  265POPC   C4A 3729   1.517   6.874   5.998
  265POPC   C1B 3730   0.828   6.511   4.793
  265POPC   C2B 3731   0.850   6.553   5.269
  265POPC   C3B 3732   0.790   6.216   5.546
  265POPC   C4B 3733   1.053   6.242   5.878
  266POPC   NC3 3734   1.379   6.098   3.928
  266POPC   PO4 3735   1.189   5.432   3.909
  266POPC   GL1 3736   1.293   5.653   4.271
  266POPC   GL2 3737   1.036   5.878   4.265
  266POPC   C1A 3738   1.416   5.508   4.695
  266POPC   D2A 3739   1.245   5.681   5.094
  266POPC   C3A 3740   1.501   5.681   5.431
  266POPC   C4A 3741   1.497   5.499   5.798
  266POPC   C1B 3742   1.126   5.952   4.675
  266POPC   C2B 3743   1.025   6.132   5.048
  266POPC   C3B 3744   1.254   6.126   5.405
  266POPC   C4B 3745   1.060   5.771   5.665
  267POPC   NC3 3746   7.217   2.206   3.934
  267POPC   PO4 3747   7.052   1.561   3.651
  267POPC   GL1 3748   7.179   1.721   4.075
  267POPC   GL2 3749   7.514   1.879   4.184
  267POPC   C1A 3750   7.109   1.844   4.547
  267POPC   D2A 3751   7.160   1.965   5.015
  267POPC   C3A 3752   6.886   1.902   5.391
  267POPC   C4A 3753   7.060   1.778   5.806
  267POPC   C1B 3754   7.594   1.960   4.655
  267POPC   C2B 3755   7.627   1.789   5.072
  267POPC   C3B 3756   7.438   1.930   5.474
  267POPC   C4B 3757   7.163   2.252   5.612
  268POPC   NC3 3758  10.300   8.265   3.657
  268POPC   PO4 3759  10.047   7.723   3.922
  268POPC   GL1 3760  10.347   7.766   4.262
  268POPC   GL2 3761  10.468   8.111   4.259
  268POPC   C1A 3762  10.208   7.867   4.699
  268POPC   D2A 3763   9.931   8.143   4.947
  268POPC   C3A 3764  10.033   8.074   5.369
  268POPC   C4A 3765  10.344   7.827   5.581
  268POPC   C1B 3766  10.393   8.349   4.661
  268POPC   C2B 3767  10.306   8.453   5.117
  268POPC   C3B 3768  10.523   8.317   5.515
  268POPC   C4B 3769  10.595   8.440   5.927
  269POPC   NC3 3770   2.851   9.474   3.890
  269POPC   PO4 3771   2.230   9.800   3.853
  269POPC   GL1 3772   2.528   9.772   4.233
  269POPC   GL2 3773   2.824   9.618   4.380
  269POPC   C1A 3774   2.444   9.616   4.699
  269POPC   D2A 3775   2.732   9.670   5.075
  269POPC   C3A 3776   2.494   9.708   5.441
  269POPC   C4A 3777   2.358   9.538   5.833
  269POPC   C1B 3778   2.959   9.334   4.725
  269POPC   C2B 3779   3.060   9.237   5.168
  269POPC   C3B 3780   3.021   9.562   5.521
  269POPC   C4B 3781   2.805   9.768   5.846
  270POPC   NC3 3782   3.838  11.014   3.702
  270POPC   PO4 3783   4.489  10.870   3.794
  270POPC   GL1 3784   4.515  11.030   4.219
  270POPC   GL2 3785   4.465  11.389   4.193
  270POPC   C1A 3786   4.402  10.859   4.637
  270POPC   D2A 3787   4.336  10.664   5.044
  270POPC   C3A 3788   4.173  10.875   5.404
  270POPC   C4A 3789   4.286  10.962   5.815
  270POPC   C1B 3790   4.148  11.281   4.551
  270POPC   C2B 3791   4.104  11.139   4.960
  270POPC   C3B 3792   4.047  11.365   5.318
  270POPC   C4B 3793   4.066  11.430   5.741
  271POPC   NC3 3794   2.850   6.592   3.947
  271POPC   PO4 3795   2.946   7.156   4.112
  271POPC   GL1 3796   2.865   6.771   4.433
  271POPC   GL2 3797   2.547   6.591   4.363
  271POPC   C1A 3798   2.978   6.518   4.845
  271POPC   D2A 3799   3.056   6.430   5.326
  271POPC   C3A 3800   2.784   6.699   5.595
  271POPC   C4A 3801   2.480   6.932   5.827
  271POPC   C1B 3802   2.494   6.366   4.729
  271POPC   C2B 3803   2.666   6.203   5.117
  271POPC   C3B 3804   2.542   6.254   5.530
  271POPC   C4B 3805   2.164   6.099   5.722
  272POPC   NC3 3806   6.885   3.124   4.102
  272POPC   PO4 3807   6.794   2.444   3.978
  272POPC   GL1 3808   7.084   2.586   4.326
  272POPC   GL2 3809   7.435   2.419   4.335
  272POPC   C1A 3810   7.064   2.808   4.757
  272POPC   D2A 3811   7.301   2.834   5.174
  272POPC   C3A 3812   7.126   2.784   5.623
  272POPC   C4A 3813   7.138   2.985   6.069
  272POPC   C1B 3814   7.420   2.443   4.782
  272POPC   C2B 3815   7.504   2.341   5.196
  272POPC   C3B 3816   7.622   2.445   5.624
  272POPC   C4B 3817   7.775   2.453   6.045
  273POPC   NC3 3818   1.962   9.678   3.480
  273POPC   PO4 3819   1.810  10.104   4.002
  273POPC   GL1 3820   2.045   9.884   4.332
  273POPC   GL2 3821   2.138   9.471   4.278
  273POPC   C1A 3822   1.927   9.766   4.714
  273POPC   D2A 3823   1.736   9.843   5.064
  273POPC   C3A 3824   1.991   9.613   5.319
  273POPC   C4A 3825   1.996   9.808   5.664
  273POPC   C1B 3826   2.010   9.276   4.631
  273POPC   C2B 3827   2.040   9.176   5.042
  273POPC   C3B 3828   1.845   9.121   5.434
  273POPC   C4B 3829   1.852   9.312   5.845
  274POPC   NC3 3830   7.271   8.862   3.841
  274POPC   PO4 3831   7.067   9.425   4.103
  274POPC   GL1 3832   7.324   9.137   4.401
  274POPC   GL2 3833   7.421   8.781   4.322
  274POPC   C1A 3834   7.315   8.953   4.836
  274POPC   D2A 3835   7.333   8.838   5.278
  274POPC   C3A 3836   7.106   9.060   5.630
  274POPC   C4A 3837   6.804   9.081   5.988
  274POPC   C1B 3838   7.760   8.876   4.577
  274POPC   C2B 3839   7.785   8.844   5.026
  274POPC   C3B 3840   7.808   8.795   5.474
  274POPC   C4B 3841   7.485   8.709   5.747
  275POPC   NC3 3842   2.520   1.178   3.609
  275POPC   PO4 3843   2.634   1.665   3.987
  275POPC   GL1 3844   2.769   1.412   4.332
  275POPC   GL2 3845   2.938   1.095   4.263
  275POPC   C1A 3846   2.579   1.410   4.746
  275POPC   D2A 3847   2.241   1.404   5.011
  275POPC   C3A 3848   2.344   1.517   5.418
  275POPC   C4A 3849   2.322   1.390   5.848
  275POPC   C1B 3850   2.993   1.138   4.711
  275POPC   C2B 3851   2.739   1.058   5.100
  275POPC   C3B 3852   2.723   1.189   5.537
  275POPC   C4B 3853   2.759   1.116   5.984
  276POPC   NC3 3854   3.569   2.992   3.968
  276POPC   PO4 3855   3.405   2.377   3.740
  276POPC   GL1 3856   3.458   2.608   4.284
  276POPC   GL2 3857   3.617   2.589   4.570
  276POPC   C1A 3858   3.172   2.513   4.741
  276POPC   D2A 3859   3.251   2.612   5.187
  276POPC   C3A 3860   3.209   2.560   5.620
  276POPC   C4A 3861   3.500   2.615   5.981
  276POPC   C1B 3862   3.456   2.936   4.841
  276POPC   C2B 3863   3.365   3.114   5.280
  276POPC   C3B 3864   3.452   3.063   5.742
  276POPC   C4B 3865   3.803   3.050   6.091
  277POPC   NC3 3866   8.959  10.743   3.541
  277POPC   PO4 3867   8.662  11.197   3.990
  277POPC   GL1 3868   8.833  11.125   4.396
  277POPC   GL2 3869   9.126  11.364   4.432
  277POPC   C1A 3870   8.681  10.820   4.739
  277POPC   D2A 3871   8.883  10.732   5.143
  277POPC   C3A 3872   8.670  10.717   5.533
  277POPC   C4A 3873   8.838  11.022   5.788
  277POPC   C1B 3874   9.064  11.146   4.842
  277POPC   C2B 3875   8.872  11.234   5.228
  277POPC   C3B 3876   9.049  11.430   5.568
  277POPC   C4B 3877   9.008   0.317   5.784
  278POPC   NC3 3878   6.325   2.551   4.033
  278POPC   PO4 3879   6.448   3.182   4.138
  278POPC   GL1 3880   6.607   2.788   4.414
  278POPC   GL2 3881   6.586   2.399   4.439
  278POPC   C1A 3882   6.587   2.680   4.876
  278POPC   D2A 3883   6.776   2.894   5.232
  278POPC   C3A 3884   6.557   2.934   5.638
  278POPC   C4A 3885   6.631   3.131   6.046
  278POPC   C1B 3886   6.919   2.311   4.726
  278POPC   C2B 3887   6.989   2.429   5.155
  278POPC   C3B 3888   6.720   2.467   5.517
  278POPC   C4B 3889   6.343   2.470   5.795
  279POPC   NC3 3890   0.403   2.744   3.577
  279POPC   PO4 3891   0.653   3.046   4.142
  279POPC   GL1 3892   0.576   2.855   4.501
  279POPC   GL2 3893   0.503   2.522   4.499
  279POPC   C1A 3894   0.337   2.802   4.881
  279POPC   D2A 3895   0.539   2.763   5.248
  279POPC   C3A 3896   0.734   3.028   5.479
  279POPC   C4A 3897   0.672   2.788   5.813
  279POPC   C1B 3898   0.181   2.301   4.805
  279POPC   C2B 3899   0.098   2.486   5.205
  279POPC   C3B 3900   0.157   2.710   5.600
  279POPC   C4B 3901   0.262   2.502   5.972
  280POPC   NC3 3902  11.180   3.629   3.839
  280POPC   PO4 3903   0.192   3.135   3.752
  280POPC   GL1 3904  11.479   3.370   4.150
  280POPC   GL2 3905  11.129   3.425   4.287
  280POPC   C1A 3906   0.009   3.624   4.584
  280POPC   D2A 3907  11.480   3.400   5.000
  280POPC   C3A 3908  11.463   3.599   5.375
  280POPC   C4A 3909  11.346   3.512   5.776
  280POPC   C1B 3910  11.016   3.675   4.621
  280POPC   C2B 3911  11.002   3.529   4.994
  280POPC   C3B 3912  10.975   3.524   5.399
  280POPC   C4B 3913  10.902   3.782   5.698
  281POPC   NC3 3914   3.335  10.168   4.138
  281POPC   PO4 3915   3.696  10.743   4.067
  281POPC   GL1 3916   3.341  10.647   4.358
  281POPC   GL2 3917   3.402  10.391   4.584
  281POPC   C1A 3918   3.174  10.807   4.733
  281POPC   D2A 3919   3.326  10.615   5.104
  281POPC   C3A 3920   3.318  10.755   5.537
  281POPC   C4A 3921   3.347  10.495   5.934
  281POPC   C1B 3922   3.693  10.161   4.776
  281POPC   C2B 3923   3.526  10.134   5.112
  281POPC   C3B 3924   3.573  10.313   5.485
  281POPC   C4B 3925   3.795  10.179   5.816
  282POPC   NC3 3926   3.604   0.059   4.069
  282POPC   PO4 3927   3.808   0.720   3.912
  282POPC   GL1 3928   3.618   0.510   4.285
  282POPC   GL2 3929   3.249   0.384   4.260
  282POPC   C1A 3930   3.767   0.305   4.678
  282POPC   D2A 3931   3.641  11.485   4.991
  282POPC   C3A 3932   3.620   0.114   5.439
  282POPC   C4A 3933   3.818   0.424   5.708
  282POPC   C1B 3934   3.252   0.310   4.714
  282POPC   C2B 3935   3.492   0.505   5.065
  282POPC   C3B 3936   3.384   0.586   5.478
  282POPC   C4B 3937   3.133   0.275   5.721
  283POPC   NC3 3938   4.093   9.643   3.922
  283POPC   PO4 3939   4.766   9.361   4.055
  283POPC   GL1 3940   4.521   9.511   4.412
  283POPC   GL2 3941   4.193   9.657   4.423
  283POPC   C1A 3942   4.485   9.637   4.847
  283POPC   D2A 3943   4.704   9.470   5.214
  283POPC   C3A 3944   4.510   9.482   5.626
  283POPC   C4A 3945   4.612   9.617   6.086
  283POPC   C1B 3946   3.947   9.718   4.805
  283POPC   C2B 3947   3.939   9.851   5.198
  283POPC   C3B 3948   4.316   9.883   5.373
  283POPC   C4B 3949   4.289   9.921   5.798
  284POPC   NC3 3950  10.498  10.382   3.866
  284POPC   PO4 3951  10.016  10.944   3.892
  284POPC   GL1 3952  10.113  10.608   4.203
  284POPC   GL2 3953  10.489  10.611   4.311
  284POPC   C1A 3954  10.142  10.757   4.640
  284POPC   D2A 3955  10.414  10.650   4.929
  284POPC   C3A 3956  10.342  10.789   5.316
  284POPC   C4A 3957  10.447  10.757   5.721
  284POPC   C1B 3958  10.487  10.257   4.597
  284POPC   C2B 3959  10.363  10.167   5.043
  284POPC   C3B 3960  10.528  10.281   5.436
  284POPC   C4B 3961  10.826  10.180   5.756
  285POPC   NC3 3962   1.047   4.961   3.921
  285POPC   PO4 3963   0.443   5.338   3.952
  285POPC   GL1 3964   0.798   5.350   4.290
  285POPC   GL2 3965   1.129   5.168   4.369
  285POPC   C1A 3966   0.907   5.478   4.691
  285POPC   D2A 3967   1.135   5.204   4.992
  285POPC   C3A 3968   1.152   5.276   5.439
  285POPC   C4A 3969   0.880   5.066   5.710
  285POPC   C1B 3970   1.361   4.884   4.658
  285POPC   C2B 3971   1.470   4.825   5.117
  285POPC   C3B 3972   1.331   4.783   5.550
  285POPC   C4B 3973   1.486   5.011   5.900
  286POPC   NC3 3974   7.221   9.844   4.022
  286POPC   PO4 3975   7.913   9.901   3.862
  286POPC   GL1 3976   7.674   9.943   4.321
  286POPC   GL2 3977   7.462   9.653   4.408
  286POPC   C1A 3978   7.680   9.852   4.818
  286POPC   D2A 3979   7.354   9.883   5.162
  286POPC   C3A 3980   7.489  10.001   5.599
  286POPC   C4A 3981   7.508   9.700   5.907
  286POPC   C1B 3982   7.313   9.475   4.815
  286POPC   C2B 3983   7.333   9.370   5.264
  286POPC   C3B 3984   7.139   9.587   5.581
  286POPC   C4B 3985   6.724   9.558   5.744
  287POPC   NC3 3986   7.409   0.302   3.807
  287POPC   PO4 3987   7.742   0.943   3.861
  287POPC   GL1 3988   7.796   0.738   4.255
  287POPC   GL2 3989   7.513   0.556   4.238
  287POPC   C1A 3990   7.774   0.544   4.717
  287POPC   D2A 3991   7.782   0.369   5.188
  287POPC   C3A 3992   7.661   0.638   5.578
  287POPC   C4A 3993   7.706   0.678   6.076
  287POPC   C1B 3994   7.254   0.567   4.585
  287POPC   C2B 3995   7.295   0.338   4.971
  287POPC   C3B 3996   7.259   0.279   5.414
  287POPC   C4B 3997   7.153   0.621   5.685
  288POPC   NC3 3998   5.203   9.139   4.032
  288POPC   PO4 3999   4.866   8.616   3.839
  288POPC   GL1 4000   4.760   8.709   4.290
  288POPC   GL2 4001   4.874   8.999   4.385
  288POPC   C1A 4002   4.667   8.575   4.736
  288POPC   D2A 4003   4.935   8.580   5.121
  288POPC   C3A 4004   4.847   8.673   5.559
  288POPC   C4A 4005   4.955   8.789   6.004
  288POPC   C1B 4006   5.048   8.898   4.748
  288POPC   C2B 4007   5.047   9.076   5.175
  288POPC   C3B 4008   4.965   9.189   5.608
  288POPC   C4B 4009   5.318   9.201   5.905
  289POPC   NC3 4010   5.055   1.188   3.932
  289POPC   PO4 4011   4.552   0.715   4.089
  289POPC   GL1 4012   4.922   0.819   4.341
  289POPC   GL2 4013   5.059   1.144   4.419
  289POPC   C1A 4014   4.935   0.836   4.795
  289POPC   D2A 4015   5.137   1.103   5.079
  289POPC   C3A 4016   4.961   1.002   5.449
  289POPC   C4A 4017   5.053   0.850   5.831
  289POPC   C1B 4018   5.117   1.482   4.704
  289POPC   C2B 4019   4.958   1.581   5.092
  289POPC   C3B 4020   5.138   1.487   5.493
  289POPC   C4B 4021   5.436   1.517   5.802
  290POPC   NC3 4022   4.349   7.519   4.169
  290POPC   PO4 4023   3.774   7.715   4.072
  290POPC   GL1 4024   3.944   7.463   4.471
  290POPC   GL2 4025   4.139   7.118   4.420
  290POPC   C1A 4026   4.099   7.563   4.907
  290POPC   D2A 4027   4.201   7.829   5.272
  290POPC   C3A 4028   4.184   7.630   5.679
  290POPC   C4A 4029   3.864   7.364   5.877
  290POPC   C1B 4030   4.380   7.148   4.816
  290POPC   C2B 4031   4.529   7.392   5.195
  290POPC   C3B 4032   4.533   7.261   5.630
  290POPC   C4B 4033   4.209   6.982   5.790
  291POPC   NC3 4034   0.254   0.483   3.826
  291POPC   PO4 4035  11.475  11.404   3.730
  291POPC   GL1 4036   0.113   0.123   4.214
  291POPC   GL2 4037   0.440   0.331   4.252
  291POPC   C1A 4038   0.350   0.064   4.655
  291POPC   D2A 4039   0.688   0.234   4.973
  291POPC   C3A 4040   0.678   0.095   5.423
  291POPC   C4A 4041   0.932   0.275   5.739
  291POPC   C1B 4042   0.470   0.575   4.638
  291POPC   C2B 4043   0.313   0.642   5.076
  291POPC   C3B 4044   0.429   0.548   5.505
  291POPC   C4B 4045   0.466   0.696   5.912
  292POPC   NC3 4046  10.416   2.218   3.606
  292POPC   PO4 4047  10.199   1.630   3.842
  292POPC   GL1 4048  10.121   1.899   4.204
  292POPC   GL2 4049  10.433   2.104   4.202
  292POPC   C1A 4050  10.163   1.982   4.673
  292POPC   D2A 4051  10.302   1.882   5.107
  292POPC   C3A 4052  10.124   2.080   5.480
  292POPC   C4A 4053  10.353   2.297   5.785
  292POPC   C1B 4054  10.531   1.695   4.462
  292POPC   C2B 4055  10.631   1.540   4.890
  292POPC   C3B 4056  10.729   1.632   5.342
  292POPC   C4B 4057  10.470   1.761   5.704
  293POPC   NC3 4058   1.403   1.745   4.041
  293POPC   PO4 4059   1.549   2.313   3.734
  293POPC   GL1 4060   1.336   2.281   4.161
  293POPC   GL2 4061   1.001   2.076   4.184
  293POPC   C1A 4062   1.450   2.236   4.619
  293POPC   D2A 4063   1.695   2.324   5.021
  293POPC   C3A 4064   1.429   2.180   5.365
  293POPC   C4A 4065   1.349   2.003   5.771
  293POPC   C1B 4066   1.085   1.863   4.597
  293POPC   C2B 4067   1.040   2.011   5.016
  293POPC   C3B 4068   0.878   1.898   5.405
  293POPC   C4B 4069   0.981   1.656   5.764
  294POPC   NC3 4070   0.535  10.451   3.640
  294POPC   PO4 4071   0.886  10.219   4.105
  294POPC   GL1 4072   0.806  10.605   4.296
  294POPC   GL2 4073   0.438  10.612   4.251
  294POPC   C1A 4074   0.734  10.657   4.717
  294POPC   D2A 4075   0.730  10.289   4.957
  294POPC   C3A 4076   0.692  10.427   5.344
  294POPC   C4A 4077   0.661  10.315   5.753
  294POPC   C1B 4078   0.336  10.342   4.622
  294POPC   C2B 4079   0.190  10.410   5.071
  294POPC   C3B 4080   0.217  10.443   5.530
  294POPC   C4B 4081   0.212  10.285   5.968
  295POPC   NC3 4082   3.076   2.611   3.973
  295POPC   PO4 4083   2.413   2.480   3.828
  295POPC   GL1 4084   2.520   2.440   4.233
  295POPC   GL2 4085   2.687   2.741   4.273
  295POPC   C1A 4086   2.671   2.395   4.639
  295POPC   D2A 4087   2.601   2.586   4.988
  295POPC   C3A 4088   2.749   2.437   5.352
  295POPC   C4A 4089   2.672   2.538   5.781
  295POPC   C1B 4090   2.883   2.919   4.669
  295POPC   C2B 4091   2.900   2.980   5.114
  295POPC   C3B 4092   2.880   2.973   5.559
  295POPC   C4B 4093   3.028   2.857   5.984
  296POPC   NC3 4094   1.114  10.999   3.951
  296POPC   PO4 4095   0.791   0.106   3.929
  296POPC   GL1 4096   1.028  11.425   4.306
  296POPC   GL2 4097   1.108  11.084   4.466
  296POPC   C1A 4098   1.108   0.009   4.748
  296POPC   D2A 4099   1.375  11.337   5.086
  296POPC   C3A 4100   1.209  11.420   5.482
  296POPC   C4A 4101   0.900  11.246   5.756
  296POPC   C1B 4102   1.435  10.882   4.759
  296POPC   C2B 4103   1.534  10.841   5.211
  296POPC   C3B 4104   1.372  10.951   5.626
  296POPC   C4B 4105   1.444  10.818   6.081
  297POPC   NC3 4106   9.945   8.130   4.143
  297POPC   PO4 4107   9.318   7.902   3.949
  297POPC   GL1 4108   9.535   7.868   4.311
  297POPC   GL2 4109   9.469   8.227   4.362
  297POPC   C1A 4110   9.710   7.755   4.709
  297POPC   D2A 4111   9.825   7.618   5.139
  297POPC   C3A 4112   9.558   7.850   5.458
  297POPC   C4A 4113   9.697   8.178   5.731
  297POPC   C1B 4114   9.498   8.404   4.779
  297POPC   C2B 4115   9.490   8.274   5.202
  297POPC   C3B 4116   9.237   8.297   5.580
  297POPC   C4B 4117   9.111   8.184   5.990
  298POPC   NC3 4118   6.540  11.427   3.933
  298POPC   PO4 4119   6.479  10.771   3.880
  298POPC   GL1 4120   6.341  10.996   4.218
  298POPC   GL2 4121   6.662  11.095   4.335
  298POPC   C1A 4122   6.268  10.991   4.661
  298POPC   D2A 4123   6.557  11.119   4.992
  298POPC   C3A 4124   6.406  10.995   5.400
  298POPC   C4A 4125   6.576  11.012   5.811
  298POPC   C1B 4126   6.496  11.434   4.581
  298POPC   C2B 4127   6.421   0.110   4.989
  298POPC   C3B 4128   6.530  11.481   5.373
  298POPC   C4B 4129   6.465   0.011   5.795
  299POPC   NC3 4130  11.073   6.951   3.900
  299POPC   PO4 4131  10.893   6.252   3.742
  299POPC   GL1 4132  10.946   6.517   4.167
  299POPC   GL2 4133  11.200   6.704   4.304
  299POPC   C1A 4134  10.881   6.486   4.649
  299POPC   D2A 4135  10.676   6.556   5.054
  299POPC   C3A 4136  10.826   6.569   5.468
  299POPC   C4A 4137  10.919   6.464   5.918
  299POPC   C1B 4138  11.384   6.539   4.659
  299POPC   C2B 4139   0.037   6.527   5.057
  299POPC   C3B 4140  11.333   6.513   5.422
  299POPC   C4B 4141  11.379   6.664   5.815
  300POPC   NC3 4142  11.435   1.141   3.959
  300POPC   PO4 4143  10.779   0.922   3.951
  300POPC   GL1 4144  10.924   0.896   4.364
  300POPC   GL2 4145  11.259   1.031   4.423
  300POPC   C1A 4146  10.946   0.938   4.811
  300POPC   D2A 4147  10.987   1.249   5.114
  300POPC   C3A 4148  10.964   1.102   5.513
  300POPC   C4A 4149  11.064   0.991   5.960
  300POPC   C1B 4150  11.322   1.381   4.718
  300POPC   C2B 4151  11.361   1.585   5.130
  300POPC   C3B 4152  11.378   1.397   5.581
  300POPC   C4B 4153  11.346   1.369   6.103
  301POPC   NC3 4154  10.747   5.280   3.969
  301POPC   PO4 4155  10.324   4.863   3.743
  301POPC   GL1 4156  10.294   4.882   4.220
  301POPC   GL2 4157  10.429   5.185   4.390
  301POPC   C1A 4158  10.274   4.822   4.710
  301POPC   D2A 4159  10.130   4.731   5.154
  301POPC   C3A 4160  10.416   4.722   5.537
  301POPC   C4A 4161  10.269   4.872   5.950
  301POPC   C1B 4162  10.583   5.237   4.821
  301POPC   C2B 4163  10.536   5.114   5.222
  301POPC   C3B 4164  10.239   5.222   5.531
  301POPC   C4B 4165  10.326   5.405   5.900
  302POPC   NC3 4166   9.491   0.770   3.883
  302POPC   PO4 4167   9.229   1.392   3.883
  302POPC   GL1 4168   9.470   1.333   4.271
  302POPC   GL2 4169   9.462   0.985   4.356
  302POPC   C1A 4170   9.462   1.368   4.730
  302POPC   D2A 4171   9.661   1.226   5.116
  302POPC   C3A 4172   9.454   1.213   5.549
  302POPC   C4A 4173   9.477   1.316   6.012
  302POPC   C1B 4174   9.838   0.996   4.635
  302POPC   C2B 4175  10.050   0.860   5.019
  302POPC   C3B 4176   9.987   1.023   5.448
  302POPC   C4B 4177   9.761   0.947   5.857
  303POPC   NC3 4178   9.644  10.669   3.909
  303POPC   PO4 4179  10.104  10.115   3.883
  303POPC   GL1 4180   9.943  10.083   4.282
  303POPC   GL2 4181   9.670  10.305   4.264
  303POPC   C1A 4182   9.986  10.281   4.683
  303POPC   D2A 4183   9.935  10.529   5.071
  303POPC   C3A 4184  10.020  10.366   5.469
  303POPC   C4A 4185   9.956  10.642   5.802
  303POPC   C1B 4186   9.466  10.207   4.644
  303POPC   C2B 4187   9.445  10.348   5.066
  303POPC   C3B 4188   9.537  10.528   5.455
  303POPC   C4B 4189   9.537  10.353   5.823
  304POPC   NC3 4190   6.582   1.580   3.692
  304POPC   PO4 4191   6.262   1.025   3.852
  304POPC   GL1 4192   6.487   0.981   4.302
  304POPC   GL2 4193   6.827   0.823   4.297
  304POPC   C1A 4194   6.532   1.205   4.771
  304POPC   D2A 4195   6.700   1.456   5.188
  304POPC   C3A 4196   6.521   1.619   5.633
  304POPC   C4A 4197   6.666   1.661   6.087
  304POPC   C1B 4198   6.780   0.759   4.739
  304POPC   C2B 4199   6.798   0.943   5.160
  304POPC   C3B 4200   6.698   0.870   5.582
  304POPC   C4B 4201   6.460   1.154   5.840
  305POPC   NC3 4202  10.884   0.452   4.085
  305POPC   PO4 4203  11.497   0.663   4.158
  305POPC   GL1 4204  11.264   0.489   4.476
  305POPC   GL2 4205  10.916   0.435   4.582
  305POPC   C1A 4206  11.273   0.541   4.926
  305POPC   D2A 4207  11.358   0.910   5.167
  305POPC   C3A 4208  11.394   0.840   5.587
  305POPC   C4A 4209  11.492   0.519   5.810
  305POPC   C1B 4210  10.768   0.187   4.916
  305POPC   C2B 4211  10.822   0.136   5.320
  305POPC   C3B 4212  11.187   0.358   5.414
  305POPC   C4B 4213  10.988   0.554   5.715
  306POPC   NC3 4214   0.812   9.779   4.006
  306POPC   PO4 4215   0.349   9.309   3.978
  306POPC   GL1 4216   0.672   9.173   4.342
  306POPC   GL2 4217   0.905   9.474   4.456
  306POPC   C1A 4218   0.628   9.194   4.822
  306POPC   D2A 4219   0.500   9.436   5.190
  306POPC   C3A 4220   0.650   9.464   5.626
  306POPC   C4A 4221   0.318   9.516   5.911
  306POPC   C1B 4222   0.702   9.770   4.799
  306POPC   C2B 4223   0.418   9.944   5.161
  306POPC   C3B 4224   0.388   9.922   5.611
  306POPC   C4B 4225   0.672   9.868   6.004
  307POPC   NC3 4226  10.805   6.042   4.151
  307POPC   PO4 4227  10.192   5.838   3.924
  307POPC   GL1 4228  10.487   5.667   4.242
  307POPC   GL2 4229  10.322   5.887   4.426
  307POPC   C1A 4230  10.711   5.713   4.696
  307POPC   D2A 4231  10.856   5.830   5.121
  307POPC   C3A 4232  10.566   5.701   5.431
  307POPC   C4A 4233  10.523   5.878   5.848
  307POPC   C1B 4234  10.205   5.569   4.721
  307POPC   C2B 4235  10.114   5.594   5.170
  307POPC   C3B 4236  10.086   5.766   5.597
  307POPC   C4B 4237  10.080   6.094   5.957
  308POPC   NC3 4238  10.660  11.221   3.999
  308POPC   PO4 4239  10.038  11.417   3.645
  308POPC   GL1 4240  10.163  11.403   4.139
  308POPC   GL2 4241  10.293  11.090   4.293
  308POPC   C1A 4242  10.056  11.361   4.627
  308POPC   D2A 4243   9.940  11.291   5.080
  308POPC   C3A 4244  10.214  11.282   5.452
  308POPC   C4A 4245  10.131  11.118   5.878
  308POPC   C1B 4246  10.572  11.055   4.653
  308POPC   C2B 4247  10.543  11.228   5.054
  308POPC   C3B 4248  10.728  11.141   5.454
  308POPC   C4B 4249  10.609  11.325   5.808
  309POPC   NC3 4250   0.581   4.076   3.934
  309POPC   PO4 4251   0.251   4.561   4.073
  309POPC   GL1 4252   0.294   4.261   4.320
  309POPC   GL2 4253   0.633   4.259   4.399
  309POPC   C1A 4254   0.180   4.139   4.684
  309POPC   D2A 4255   0.169   4.322   5.059
  309POPC   C3A 4256   0.246   4.122   5.422
  309POPC   C4A 4257   0.246   4.349   5.780
  309POPC   C1B 4258   0.500   4.541   4.713
  309POPC   C2B 4259   0.665   4.338   5.043
  309POPC   C3B 4260   0.746   4.022   5.302
  309POPC   C4B 4261   0.696   4.048   5.741
  310POPC   NC3 4262  10.054   4.504   3.682
  310POPC   PO4 4263   9.423   4.460   3.935
  310POPC   GL1 4264   9.776   4.483   4.247
  310POPC   GL2 4265   9.823   4.152   4.422
  310POPC   C1A 4266   9.800   4.570   4.724
  310POPC   D2A 4267   9.816   4.282   5.114
  310POPC   C3A 4268   9.722   4.447   5.547
  310POPC   C4A 4269   9.712   4.687   5.970
  310POPC   C1B 4270   9.473   4.167   4.728
  310POPC   C2B 4271   9.288   4.267   5.149
  310POPC   C3B 4272   9.301   4.105   5.577
  310POPC   C4B 4273   9.375   4.319   5.929
  311POPC   NC3 4274   6.368  10.379   4.080
  311POPC   PO4 4275   6.985  10.252   3.984
  311POPC   GL1 4276   6.827  10.611   4.261
  311POPC   GL2 4277   6.504  10.573   4.509
  311POPC   C1A 4278   6.902  10.772   4.710
  311POPC   D2A 4279   6.642  10.632   5.086
  311POPC   C3A 4280   6.808  10.661   5.522
  311POPC   C4A 4281   6.752  10.350   5.867
  311POPC   C1B 4282   6.156  10.514   4.838
  311POPC   C2B 4283   6.091  10.590   5.306
  311POPC   C3B 4284   6.321  10.571   5.710
  311POPC   C4B 4285   6.308  10.361   6.129
  312POPC   NC3 4286   8.246   0.695   3.876
  312POPC   PO4 4287   7.900   0.062   3.779
  312POPC   GL1 4288   7.950   0.181   4.234
  312POPC   GL2 4289   8.205   0.417   4.295
  312POPC   C1A 4290   8.034   0.109   4.701
  312POPC   D2A 4291   8.317   0.076   5.083
  312POPC   C3A 4292   8.113   0.076   5.506
  312POPC   C4A 4293   7.941   0.299   5.838
  312POPC   C1B 4294   8.418   0.426   4.685
  312POPC   C2B 4295   8.221   0.573   5.005
  312POPC   C3B 4296   8.247   0.553   5.430
  312POPC   C4B 4297   8.115   0.799   5.763
  313POPC   NC3 4298   8.156   1.251   3.942
  313POPC   PO4 4299   8.488   0.865   4.226
  313POPC   GL1 4300   8.166   1.058   4.427
  313POPC   GL2 4301   8.154   1.419   4.423
  313POPC   C1A 4302   8.196   1.139   4.853
  313POPC   D2A 4303   8.189   1.015   5.254
  313POPC   C3A 4304   8.394   1.188   5.576
  313POPC   C4A 4305   8.224   1.502   5.783
  313POPC   C1B 4306   7.807   1.451   4.727
  313POPC   C2B 4307   7.699   1.251   5.122
  313POPC   C3B 4308   7.804   1.165   5.547
  313POPC   C4B 4309   7.843   1.182   5.976
  314POPC   NC3 4310   9.231   3.266   4.047
  314POPC   PO4 4311   8.517   3.122   4.065
  314POPC   GL1 4312   8.839   3.182   4.423
  314POPC   GL2 4313   8.975   3.524   4.427
  314POPC   C1A 4314   8.824   3.371   4.885
  314POPC   D2A 4315   8.990   3.323   5.297
  314POPC   C3A 4316   8.723   3.338   5.707
  314POPC   C4A 4317   8.818   3.518   6.108
  314POPC   C1B 4318   9.138   3.771   4.818
  314POPC   C2B 4319   9.010   3.832   5.257
  314POPC   C3B 4320   8.810   3.919   5.665
  314POPC   C4B 4321   8.999   3.997   6.054
  315POPC   NC3 4322   6.785  10.513   3.665
  315POPC   PO4 4323   7.429  10.544   3.665
  315POPC   GL1 4324   7.442  10.365   4.163
  315POPC   GL2 4325   7.330  10.604   4.418
  315POPC   C1A 4326   7.293  10.147   4.614
  315POPC   D2A 4327   7.106  10.375   4.989
  315POPC   C3A 4328   7.081  10.240   5.435
  315POPC   C4A 4329   7.244  10.425   5.828
  315POPC   C1B 4330   7.671  10.480   4.677
  315POPC   C2B 4331   7.613  10.311   5.067
  315POPC   C3B 4332   7.584  10.505   5.442
  315POPC   C4B 4333   7.740  10.440   5.839
  316POPC   NC3 4334   1.353   2.719   3.821
  316POPC   PO4 4335   0.804   2.974   3.636
  316POPC   GL1 4336   0.935   2.652   4.093
  316POPC   GL2 4337   1.202   2.838   4.293
  316POPC   C1A 4338   0.991   2.448   4.551
  316POPC   D2A 4339   1.196   2.516   4.974
  316POPC   C3A 4340   0.984   2.484   5.366
  316POPC   C4A 4341   0.924   2.283   5.751
  316POPC   C1B 4342   1.029   2.940   4.720
  316POPC   C2B 4343   1.122   3.056   5.148
  316POPC   C3B 4344   1.228   2.887   5.566
  316POPC   C4B 4345   1.384   2.521   5.748
  317POPC   NC3 4346   9.726   1.545   3.871
  317POPC   PO4 4347   9.359   2.111   3.844
  317POPC   GL1 4348   9.376   2.181   4.247
  317POPC   GL2 4349   9.280   1.826   4.288
  317POPC   C1A 4350   9.533   2.247   4.670
  317POPC   D2A 4351   9.424   2.059   5.052
  317POPC   C3A 4352   9.568   2.169   5.491
  317POPC   C4A 4353   9.478   2.232   5.960
  317POPC   C1B 4354   9.688   1.784   4.508
  317POPC   C2B 4355   9.792   1.731   4.963
  317POPC   C3B 4356   9.527   1.673   5.355
  317POPC   C4B 4357   9.626   1.748   5.782
  318POPC   NC3 4358   3.389   5.865   3.789
  318POPC   PO4 4359   3.599   5.349   3.753
  318POPC   GL1 4360   3.585   5.133   4.204
  318POPC   GL2 4361   3.341   4.865   4.253
  318POPC   C1A 4362   3.719   5.139   4.690
  318POPC   D2A 4363   3.757   5.317   5.140
  318POPC   C3A 4364   3.408   5.241   5.435
  318POPC   C4A 4365   3.383   4.986   5.814
  318POPC   C1B 4366   3.405   4.730   4.696
  318POPC   C2B 4367   3.568   4.840   5.122
  318POPC   C3B 4368   3.788   4.905   5.510
  318POPC   C4B 4369   3.811   4.565   5.818
  319W        W 4370  11.115  10.908   8.416
  320W        W 4371   8.649   4.345   3.111
  321W        W 4372   5.698   3.773   8.186
  322W        W 4373   6.729   6.845  11.767
  323W        W 4374   7.562   8.406   9.880
  324W        W 4375   2.198   9.625   8.653
  325W        W 4376   5.956   3.788   8.631
  326W        W 4377   0.888   5.097   2.233
  327W        W 4378   3.851   0.899   3.123
  328W        W 4379   9.333   0.851  11.173
  329W        W 4380   7.591   6.149   8.357
  330W        W 4381   8.654   5.537   8.638
  331W        W 4382  10.938   9.086   9.059
  332W        W 4383   9.774   9.395   9.129
  333W        W 4384  10.461   6.478   2.993
  334W        W 4385   7.777  10.857   2.233
  335W        W 4386  10.260   6.666  10.826
  336W        W 4387   7.464   1.379   0.177
  337W        W 4388   5.108   6.469   0.794
  338W        W 4389   0.747   4.360  11.678
  339W        W 4390   0.085   8.076  10.771
  340W        W 4391   7.989   2.266   2.961
  341W        W 4392   4.074  10.754  11.502
  342W        W 4393   3.171   7.591   9.974
  343W        W 4394   1.482   0.903   1.945
  344W        W 4395   9.696   6.569   9.989
  345W        W 4396   7.290   7.911   0.818
  346W        W 4397  10.946   5.397  10.542
  347W        W 4398   6.690   0.748   1.745
  348W        W 4399   3.211   7.056   1.788
  349W        W 4400   5.498   3.694   9.505
  350W        W 4401   1.842   9.471  11.794
  351W        W 4402   4.756   2.798   0.570
  352W        W 4403   9.964  11.387   3.127
  353W        W 4404   8.588   3.336   2.180
  354W        W 4405   1.500   7.556  10.019
  355W        W 4406   0.422   8.508  11.523
  356W        W 4407   0.910   6.919   8.484
  357W        W 4408   2.499   9.926   0.336
  358W        W 4409   6.297   3.678   8.991
  359W        W 4410   7.664   9.508   9.019
  360W        W 4411  10.632   4.974   0.041
  361W        W 4412   6.094   8.470  10.432
  362W        W 4413   1.084   1.413   9.790
  363W        W 4414   6.524   2.931  11.651
  364W        W 4415   2.330  10.827   1.361
  365W        W 4416   1.833   5.535   2.460
  366W        W 4417   9.434   8.860   2.963
  367W        W 4418   4.650  10.762   2.808
  368W        W 4419   5.254   5.462   1.847
  369W        W 4420   8.445   6.976   3.018
  370W        W 4421   7.639   6.615   9.505
  371W        W 4422   5.630   2.688   1.496
  372W        W 4423  11.281  10.546   2.892
  373W        W 4424   7.722   9.501   3.471
  374W        W 4425   5.556   6.644  10.546
  375W        W 4426   1.516   9.847   0.518
  376W        W 4427   9.819   4.766   0.696
  377W        W 4428   7.607   5.210  10.124
  378W        W 4429   2.214   3.687   2.342
  379W        W 4430   1.422   8.092   2.712
  380W        W 4431   3.709   3.744   1.266
  381W        W 4432   9.247   2.511   2.474
  382W        W 4433   5.127   3.265   1.385
  383W        W 4434   5.609   0.444  11.134
  384W        W 4435   5.409   6.024   9.834
  385W        W 4436   4.824   1.200   2.897
  386W        W 4437   9.415   4.596  11.927
  387W        W 4438   5.003  10.554  10.435
  388W        W 4439   8.618   9.938   2.628
  389W        W 4440  11.197   2.736   8.794
  390W        W 4441   2.676   5.902   1.839
  391W        W 4442   2.977   8.061   9.265
  392W        W 4443   2.718   1.972  11.766
  393W        W 4444   0.844   9.370   2.662
  394W        W 4445   5.389   4.440   3.909
  395W        W 4446   2.680   8.737   3.239
  396W        W 4447   1.697   7.934   3.554
  397W        W 4448   5.230   3.592   1.799
  398W        W 4449   7.017   7.680   1.177
  399W        W 4450   3.151   7.470   2.553
  400W        W 4451   3.786   0.473  10.652
  401W        W 4452  11.380   2.567  10.840
  402W        W 4453   5.396  10.857  10.590
  403W        W 4454   1.380   9.171   0.707
  404W        W 4455   8.686  10.526  11.814
  405W        W 4456   5.302   2.265   8.213
  406W        W 4457   3.108   6.606   1.500
  407W        W 4458   0.250   6.571  11.513
  408W        W 4459   3.316   4.766  11.045
  409W        W 4460  10.332   4.169   1.232
  410W        W 4461   3.560   5.544  11.279
  411W        W 4462   5.995  10.393  10.913
  412W        W 4463   7.595   5.103  11.920
  413W        W 4464   2.828   9.195   3.453
  414W        W 4465   6.381  10.227   3.528
  415W        W 4466   3.285   3.389   0.452
  416W        W 4467   8.245   9.117  11.299
  417W        W 4468   2.290   2.364   9.143
  418W        W 4469   8.920   5.393  11.566
  419W        W 4470   5.250   2.705  10.718
  420W        W 4471  10.007   6.600   2.780
  421W        W 4472   6.965   4.621  10.760
  422W        W 4473   4.223   6.940   0.702
  423W        W 4474  11.277   6.067  10.471
  424W        W 4475   1.249   6.510   0.159
  425W        W 4476   9.090   8.837   0.481
  426W        W 4477   6.488   4.120   9.154
  427W        W 4478   2.284   9.648  11.954
  428W        W 4479  10.900   7.525   1.583
  429W        W 4480  10.048  10.733  10.413
  430W        W 4481   3.948   0.163  11.098
  431W        W 4482   7.126   7.506   0.224
  432W        W 4483   7.802   0.881   2.643
  433W        W 4484   7.108   0.257  11.498
  434W        W 4485   8.599   2.266  11.882
  435W        W 4486   4.196   5.678   0.336
  436W        W 4487   4.176   3.649   1.397
  437W        W 4488   5.535   1.951   9.500
  438W        W 4489   8.424   7.157   1.654
  439W        W 4490   7.497   1.847   3.644
  440W        W 4491   9.819  10.861   1.121
  441W        W 4492   8.029   4.146   1.191
  442W        W 4493   5.708   9.577   9.570
  443W        W 4494   1.271   6.530   1.143
  444W        W 4495   9.466   7.950   2.776
  445W        W 4496   6.974  11.338   2.816
  446W        W 4497   5.520   4.193   2.249
  447W        W 4498   2.152   2.812   8.891
  448W        W 4499   1.000  10.895   9.814
  449W        W 4500   2.825   7.501   1.833
  450W        W 4501   4.231  11.103   3.402
  451W        W 4502   4.733   0.780  11.945
  452W        W 4503   7.646   3.661  10.450
  453W        W 4504  10.846   8.855   1.433
  454W        W 4505  10.616   0.664   1.412
  455W        W 4506   3.214   8.124   9.756
  456W        W 4507   3.151   1.654   2.396
  457W        W 4508   9.327   7.573  10.847
  458W        W 4509   2.681  11.090   2.241
  459W        W 4510   7.917   9.292  11.778
  460W        W 4511   9.531   2.613   0.457
  461W        W 4512   7.036   1.720   0.222
  462W        W 4513   4.147   8.721   8.902
  463W        W 4514   0.911   1.400   0.047
  464W        W 4515   7.147   8.854   3.205
  465W        W 4516   3.136   5.678   9.419
  466W        W 4517  10.047   7.085   0.506
  467W        W 4518   5.513   8.400   9.977
  468W        W 4519   0.650   0.980   0.250
  469W        W 4520   1.111   9.524   0.396
  470W        W 4521   7.189   4.329   0.875
  471W        W 4522   2.626  10.742   1.830
  472W        W 4523   4.304  10.789  11.987
  473W        W 4524   9.202  10.119  11.125
  474W        W 4525   3.210   6.468   8.906
  475W        W 4526   6.029   5.735  11.377
  476W        W 4527   5.931   6.042   9.837
  477W        W 4528   2.151   4.830   3.313
  478W        W 4529   9.546   1.085   9.586
  479W        W 4530  10.630   0.838  11.281
  480W        W 4531   4.713   0.628  11.051
  481W        W 4532   2.363   7.702   8.002
  482W        W 4533   2.460   4.829   8.349
  483W        W 4534   8.054   9.611   9.349
  484W        W 4535   3.583   2.596   8.822
  485W        W 4536   4.560   7.171  11.846
  486W        W 4537   3.862   9.267   8.591
  487W        W 4538   0.895   8.446   1.774
  488W        W 4539   9.451   6.467  10.421
  489W        W 4540   3.065   7.166   9.504
  490W        W 4541   5.044  10.712   9.944
  491W        W 4542   7.111   1.881  10.912
  492W        W 4543   5.106   2.337   3.256
  493W        W 4544   2.273   7.193   9.858
  494W        W 4545   2.804   1.783   3.533
  495W        W 4546   7.986   6.086   3.221
  496W        W 4547  11.260   3.411   2.694
  497W        W 4548   5.962   6.507   0.425
  498W        W 4549   3.963  11.314   2.102
  499W        W 4550   0.892   2.737   1.209
  500W        W 4551   5.518   2.685   3.281
  501W        W 4552   4.858   4.361   0.848
  502W        W 4553   9.745   3.368  10.647
  503W        W 4554   5.233   9.808   2.289
  504W        W 4555   6.139  10.844   9.969
  505W        W 4556   1.430   3.341   1.492
  506W        W 4557   7.217   0.865   9.321
  507W        W 4558   0.831   6.516   1.389
  508W        W 4559  10.061   8.590   0.439
  509W        W 4560   1.647   4.026   9.675
  510W        W 4561   4.506   5.295  11.238
  511W        W 4562  10.605  10.064   2.298
  512W        W 4563  11.432   4.712  11.908
  513W        W 4564   8.294   5.436   8.288
  514W        W 4565  10.845   9.368   1.554
  515W        W 4566   1.361   2.836   2.896
  516W        W 4567   7.423   6.624   8.511
  517W        W 4568   0.055   4.850   0.388
  518W        W 4569   2.814   8.615   0.430
  519W        W 4570   2.639   4.654   1.937
  520W        W 4571   4.626  10.224   0.955
  521W        W 4572   3.869   1.738   2.172
  522W        W 4573   7.603   2.427   2.667
  523W        W 4574   2.401   6.970  10.795
  524W        W 4575   6.226   9.488   9.646
  525W        W 4576   6.184   5.075  10.861
  526W        W 4577   3.200   8.632   9.946
  527W        W 4578   8.251   4.772   3.605
  528W        W 4579   8.931   8.514  11.286
  529W        W 4580   3.303   8.068   0.382
  530W        W 4581   7.410   2.675   1.784
  531W        W 4582   6.742   0.782   9.209
  532W        W 4583   9.723   7.511   1.342
  533W        W 4584   8.468   6.122   3.424
  534W        W 4585   0.921   5.615   9.589
  535W        W 4586   1.756  11.045  10.229
  536W        W 4587   4.964   0.080  10.321
  537W        W 4588   8.536   6.664   2.150
  538W        W 4589   1.306   7.491  10.881
  539W        W 4590   0.306   1.666   0.780
  540W        W 4591   5.641   2.811  11.038
  541W        W 4592   5.534   2.273   3.577
  542W        W 4593   6.685   8.711  11.226
  543W        W 4594   3.626   0.936   1.438
  544W        W 4595   7.375   1.325   0.888
  545W        W 4596   7.312   6.135   0.349
  546W        W 4597   0.792   8.631   8.456
  547W        W 4598  11.409   5.235   3.390
  548W        W 4599   9.269   6.089   8.216
  549W        W 4600   3.881  10.801  11.020
  550W        W 4601   0.857   7.828   1.908
  551W        W 4602  10.559   9.792   1.399
  552W        W 4603   5.674   7.225   1.602
  553W        W 4604   7.640  10.070   0.079
  554W        W 4605   2.619   7.578   0.276
  555W        W 4606   9.879   6.507   2.290
  556W        W 4607  10.982   6.519   9.681
  557W        W 4608  10.031   3.371   1.388
  558W        W 4609   1.544  11.360  11.995
  559W        W 4610   7.753   1.940   2.619
  560W        W 4611   9.464   7.058  10.750
  561W        W 4612   0.375   1.168   0.682
  562W        W 4613   5.672   8.032   2.833
  563W        W 4614   6.111  11.296   2.709
  564W        W 4615   1.216   6.556   0.655
  565W        W 4616  10.818  11.287   1.171
  566W        W 4617   4.603   7.119   9.869
  567W        W 4618  11.396   2.640   3.151
  568W        W 4619   5.600   4.154   8.627
  569W        W 4620   2.235   9.192   2.767
  570W        W 4621   2.497   8.096  11.870
  571W        W 4622   8.976  10.465  10.835
  572W        W 4623   1.010   1.892  11.984
  573W        W 4624   1.331   8.660   1.924
  574W        W 4625   6.464   7.116   3.144
  575W        W 4626   4.885   1.984   1.395
  576W        W 4627   9.885   9.772  10.421
  577W        W 4628   9.567   6.798   9.187
  578W        W 4629   1.132   5.678   0.501
  579W        W 4630   5.813  10.436   9.469
  580W        W 4631   8.050   0.543  11.358
  581W        W 4632   9.412   2.278   3.380
  582W        W 4633   6.500   5.639   2.219
  583W        W 4634   1.850   2.180   9.337
  584W        W 4635   9.412   3.290   3.532
  585W        W 4636   4.320   2.672  11.067
  586W        W 4637   5.699   8.715   9.623
  587W        W 4638  10.882   6.762  11.896
  588W        W 4639   8.084  10.970   0.763
  589W        W 4640   1.321   9.005  11.475
  590W        W 4641   2.146   1.683   2.827
  591W        W 4642   2.684   0.346   2.893
  592W        W 4643   3.244   3.729   0.056
  593W        W 4644   4.595   6.209   3.440
  594W        W 4645   9.435   4.355   9.815
  595W        W 4646   4.283   7.990  10.361
  596W        W 4647   0.774   9.001   1.372
  597W        W 4648   7.407   3.169   9.454
  598W        W 4649   5.074   9.494   9.378
  599W        W 4650   3.031   6.057  11.934
  600W        W 4651   0.432   8.552   1.962
  601W        W 4652   4.326   7.151   8.890
  602W        W 4653   9.852   1.958   1.767
  603W        W 4654   0.957   3.599   3.071
  604W        W 4655   2.760   9.384   9.946
  605W        W 4656   7.403   4.852  10.525
  606W        W 4657   4.777   6.544   1.232
  607W        W 4658   7.378   1.695  11.788
  608W        W 4659   9.577   3.166  11.555
  609W        W 4660   8.707   9.796   0.375
  610W        W 4661  10.301   9.468   9.990
  611W        W 4662   2.367   2.300  10.101
  612W        W 4663  10.765   9.552   8.817
  613W        W 4664   6.820  10.066   3.291
  614W        W 4665   3.501   5.075   3.300
  615W        W 4666   5.571   9.774   1.747
  616W        W 4667   5.559   2.424   9.267
  617W        W 4668   8.470  11.291   2.192
  618W        W 4669   6.272   7.058  10.464
  619W        W 4670   2.253   7.650  11.884
  620W        W 4671   1.381   2.849   1.953
  621W        W 4672   0.201   2.172   1.468
  622W        W 4673   4.107   6.348   8.613
  623W        W 4674   6.642   7.234  11.417
  624W        W 4675   0.249   5.351   1.490
  625W        W 4676   0.289   4.237   3.087
  626W        W 4677   3.859  10.217   0.209
  627W        W 4678   8.922   4.339   0.131
  628W        W 4679   1.407   1.175   2.905
  629W        W 4680   2.366   9.595  10.156
  630W        W 4681   7.867   9.291   0.671
  631W        W 4682  11.469   5.664  11.710
  632W        W 4683   5.735   8.383   1.210
  633W        W 4684   7.192  10.207   1.390
  634W        W 4685   2.839   9.523  11.470
  635W        W 4686   5.985   6.868   1.825
  636W        W 4687  10.951   7.467  11.395
  637W        W 4688   1.406   6.670   2.179
  638W        W 4689   3.579  10.447  10.486
  639W        W 4690   3.644   9.458   3.261
  640W        W 4691   0.784   6.739   8.957
  641W        W 4692   8.976   6.843   9.557
  642W        W 4693   8.668   6.691   1.625
  643W        W 4694  11.409   5.772   1.075
  644W        W 4695   3.613   1.862   2.618
  645W        W 4696  10.557   0.835   0.929
  646W        W 4697   1.784  10.209  11.301
  647W        W 4698   4.144   5.699  11.837
  648W        W 4699  11.291   7.452  11.777
  649W        W 4700   8.568   0.512  10.212
  650W        W 4701   6.220   9.736   0.384
  651W        W 4702   1.772   7.317   0.248
  652W        W 4703   4.148   0.474   1.438
  653W        W 4704   5.258   1.640  11.738
  654W        W 4705   8.141   7.127   9.975
  655W        W 4706   8.459   1.170  10.777
  656W        W 4707   5.116   4.454  11.224
  657W        W 4708   7.092   7.166   1.056
  658W        W 4709   0.682   1.989   2.196
  659W        W 4710   7.964   0.369   0.246
  660W        W 4711   5.031  10.091   3.159
  661W        W 4712   0.706   8.905  11.101
  662W        W 4713   5.131   1.848   3.134
  663W        W 4714   2.695   5.243   3.710
  664W        W 4715   5.753   3.176   2.103
  665W        W 4716   3.606   4.869   0.619
  666W        W 4717   8.921   3.761   0.727
  667W        W 4718   7.584   9.132   3.084
  668W        W 4719   7.410   8.121   2.068
  669W        W 4720   1.390   0.025  11.061
  670W        W 4721   0.986   3.006   9.609
  671W        W 4722   9.017   0.213  11.533
  672W        W 4723   5.835   5.759  11.856
  673W        W 4724   4.966  10.220  10.018
  674W        W 4725   3.584   7.005   9.595
  675W        W 4726   6.533  11.125  10.988
  676W        W 4727   9.628   5.500   9.424
  677W        W 4728   2.089   4.188  10.584
  678W        W 4729   7.416   4.240   1.939
  679W        W 4730   0.900   7.564   9.354
  680W        W 4731   2.447  10.372  10.084
  681W        W 4732   7.111  10.516   8.699
  682W        W 4733   7.152  11.137   0.382
  683W        W 4734   0.855   3.323  10.050
  684W        W 4735   4.677   6.162   0.808
  685W        W 4736   3.655   2.364  11.800
  686W        W 4737   2.217   6.238   2.975
  687W        W 4738   8.311   5.230   2.827
  688W        W 4739   8.818   3.826   9.082
  689W        W 4740  10.836   4.915   3.629
  690W        W 4741   5.859  10.518   0.151
  691W        W 4742   2.333  11.344   9.078
  692W        W 4743   5.699   1.748   1.007
  693W        W 4744   8.165   8.238   2.297
  694W        W 4745   2.292   1.744  11.923
  695W        W 4746   1.355   5.206   2.611
  696W        W 4747   5.485   2.625   0.948
  697W        W 4748   3.152   9.367   9.224
  698W        W 4749   3.000   4.138   0.232
  699W        W 4750   4.730   7.234   0.536
  700W        W 4751   9.866   0.798   3.533
  701W        W 4752  10.522   5.100   2.327
  702W        W 4753   8.109   4.623   9.453
  703W        W 4754   1.638   2.261   2.372
  704W        W 4755   9.277   3.249  10.801
  705W        W 4756   7.172   0.963  11.270
  706W        W 4757   9.675   8.902   0.744
  707W        W 4758   4.329   9.952  10.631
  708W        W 4759  10.631   3.234   0.717
  709W        W 4760   4.936   1.257   1.207
  710W        W 4761   1.285   9.716   9.818
  711W        W 4762   6.577   9.877   9.619
  712W        W 4763   2.174   8.628   1.655
  713W        W 4764   1.819   8.543  10.009
  714W        W 4765   9.407   9.629   2.326
  715W        W 4766   2.752   2.188   0.260
  716W        W 4767   3.127   3.168   1.803
  717W        W 4768  10.092   9.613   3.071
  718W        W 4769   0.217   0.582   0.102
  719W        W 4770   4.160   9.502  10.956
  720W        W 4771   5.122   9.394  11.026
  721W        W 4772   9.231   6.587  10.875
  722W        W 4773   8.140  10.050   9.094
  723W        W 4774   7.954   0.289  10.918
  724W        W 4775   8.101   1.467   1.884
  725W        W 4776   1.129   7.981  11.594
  726W        W 4777   7.109   3.665   1.226
  727W        W 4778   0.582   7.663   1.448
  728W        W 4779  10.286   0.429   1.090
  729W        W 4780   6.299   1.870   2.232
  730W        W 4781   2.605   5.555   3.316
  731W        W 4782   3.667   8.379  11.289
  732W        W 4783   0.732  10.338   1.409
  733W        W 4784   3.658   7.924  11.538
  734W        W 4785   5.220   3.062  11.586
  735W        W 4786   6.572   2.784   3.253
  736W        W 4787   0.805   0.642   3.158
  737W        W 4788   7.009   8.446   1.944
  738W        W 4789   5.683   7.814   9.840
  739W        W 4790   5.917  10.543   2.088
  740W        W 4791   0.501  11.070   0.652
  741W        W 4792   8.303   6.405  11.003
  742W        W 4793  11.413   7.712   9.626
  743W        W 4794   1.542   7.962  10.920
  744W        W 4795   2.191   1.219   1.035
  745W        W 4796   5.628   5.548   2.688
  746W        W 4797   9.913   8.326   0.841
  747W        W 4798   3.263  10.853   0.736
  748W        W 4799  10.791   8.640   8.833
  749W        W 4800   6.683   3.335   8.852
  750W        W 4801   2.742   4.239  11.203
  751W        W 4802  10.378   5.665   1.949
  752W        W 4803  11.304   4.588   1.654
  753W        W 4804   5.005   2.020   9.553
  754W        W 4805   8.575   7.155  11.199
  755W        W 4806  10.812   4.742   1.719
  756W        W 4807   4.796   2.718  10.924
  757W        W 4808   0.958   8.987   9.237
  758W        W 4809   7.128   4.287   9.985
  759W        W 4810   9.062  11.417   9.479
  760W        W 4811  11.457   5.685  10.772
  761W        W 4812   5.698   1.233   1.938
  762W        W 4813   0.690   0.311  10.968
  763W        W 4814  10.898   7.029   1.737
  764W        W 4815  10.135   4.456   9.827
  765W        W 4816   6.684   9.099  11.727
  766W        W 4817   2.050   6.857   3.638
  767W        W 4818   7.565   0.781   2.040
  768W        W 4819   9.992   5.683  10.638
  769W        W 4820   2.614   1.769   1.767
  770W        W 4821   4.206   1.815   3.118
  771W        W 4822   6.764   5.108   0.418
  772W        W 4823   1.950   0.686   0.204
  773W        W 4824   8.554   8.972   2.693
  774W        W 4825   5.061   6.699  10.339
  775W        W 4826   7.113   0.986   3.523
  776W        W 4827   9.685   4.864   3.774
  777W        W 4828   6.270   5.687   1.258
  778W        W 4829   0.856   5.080   1.711
  779W        W 4830   7.826   4.649  10.747
  780W        W 4831  11.482   8.602   9.436
  781W        W 4832   5.965  10.111  10.447
  782W        W 4833   4.821   5.651   2.103
  783W        W 4834  10.982   0.953   1.182
  784W        W 4835   6.720   2.609   9.411
  785W        W 4836   6.070   2.325   2.211
  786W        W 4837  10.158   0.287  10.750
  787W        W 4838  10.473   5.587  10.463
  788W        W 4839   9.400   7.795   3.441
  789W        W 4840   2.783   8.720   2.719
  790W        W 4841   1.194   9.632   1.732
  791W        W 4842   5.776  10.044   0.384
  792W        W 4843   6.578   3.155  11.182
  793W        W 4844   7.527   7.667   1.258
  794W        W 4845   5.533   1.748   3.445
  795W        W 4846   6.422  10.634  11.165
  796W        W 4847   7.387   7.631   2.190
  797W        W 4848   7.551   6.753  11.409
  798W        W 4849  10.525   6.540  10.385
  799W        W 4850   8.570   9.886   8.812
  800W        W 4851   9.136   8.954  11.144
  801W        W 4852  11.443   5.591   1.841
  802W        W 4853   0.910  10.087   0.398
  803W        W 4854   2.736   6.604  10.952
  804W        W 4855  10.329   5.181   3.145
  805W        W 4856   9.974   1.702  10.273
  806W        W 4857   6.408   3.801   9.567
  807W        W 4858   1.358   5.432   3.165
  808W        W 4859   0.034  11.329  10.663
  809W        W 4860   9.327   0.292   0.419
  810W        W 4861   5.024   0.487   0.838
  811W        W 4862   3.641   2.328   1.202
  812W        W 4863   9.895   0.221   0.325
  813W        W 4864   4.583   2.178   1.005
  814W        W 4865   2.541   8.341   0.765
  815W        W 4866   0.540   9.176   0.789
  816W        W 4867   5.920   7.863  11.977
  817W        W 4868   6.529   5.172   1.922
  818W        W 4869   4.774   8.359   1.510
  819W        W 4870   3.204   1.350   2.005
  820W        W 4871  10.409   0.606   9.404
  821W        W 4872   3.826   0.310   9.649
  822W        W 4873   6.254   7.170   9.476
  823W        W 4874   2.237   5.237   9.486
  824W        W 4875   5.463   0.802   9.879
  825W        W 4876   0.868   8.338   3.503
  826W        W 4877   5.672   9.962  11.883
  827W        W 4878   2.232   3.337   2.732
  828W        W 4879  11.412   7.062  10.474
  829W        W 4880   2.690   4.495   0.943
  830W        W 4881   1.432   9.896   9.356
  831W        W 4882   6.997   4.804   0.746
  832W        W 4883   1.832   8.156   1.386
  833W        W 4884   7.906   4.202   8.682
  834W        W 4885  10.880   2.143   2.270
  835W        W 4886  11.233   9.980   0.783
  836W        W 4887   1.296   0.654   3.025
  837W        W 4888   7.759  10.599   0.770
  838W        W 4889   0.687   8.896   2.743
  839W        W 4890  10.047   5.662   1.017
  840W        W 4891   8.017  10.739   1.227
  841W        W 4892   6.277   9.226   3.148
  842W        W 4893   1.559   6.241   9.856
  843W        W 4894   6.451   0.310  11.627
  844W        W 4895   0.868   8.334   9.879
  845W        W 4896   6.565   9.417   1.094
  846W        W 4897  10.867   2.124   1.749
  847W        W 4898   4.243  10.817   2.439
  848W        W 4899   2.645   3.678   2.033
  849W        W 4900   7.873   0.363   2.688
  850W        W 4901   6.596   8.159  11.352
  851W        W 4902   0.665   2.111   1.693
  852W        W 4903   0.778   0.846   0.739
  853W        W 4904   1.365   3.156  11.559
  854W        W 4905  11.421   4.070   3.488
  855W        W 4906   2.372   2.458   0.478
  856W        W 4907   8.320   7.555   2.319
  857W        W 4908   1.226   9.372   9.455
  858W        W 4909   4.232  11.269  11.349
  859W        W 4910   1.765   5.091   1.683
  860W        W 4911   3.853   9.266   0.440
  861W        W 4912   3.481  11.380  11.969
  862W        W 4913   7.486   4.971   0.925
  863W        W 4914   2.562   4.655  11.776
  864W        W 4915   7.750   1.455   0.576
  865W        W 4916   7.920   1.944   0.705
  866W        W 4917   0.844   2.714   8.522
  867W        W 4918   3.167   7.477   1.090
  868W        W 4919   2.677   4.096   1.245
  869W        W 4920   6.978   0.357   2.776
  870W        W 4921   2.352   8.182   8.189
  871W        W 4922   4.972   2.925   4.043
  872W        W 4923   4.285   3.375  11.516
  873W        W 4924   2.234   3.843   1.350
  874W        W 4925  11.146   7.695   0.772
  875W        W 4926   1.031   8.913   0.408
  876W        W 4927   8.500   1.754   3.167
  877W        W 4928   1.332  10.044  11.706
  878W        W 4929   9.940   8.967   9.380
  879W        W 4930   0.353   2.718   0.049
  880W        W 4931   9.868   7.487   8.550
  881W        W 4932   3.885   2.194   2.922
  882W        W 4933   6.945   5.850  10.343
  883W        W 4934   4.188   2.264   3.359
  884W        W 4935   4.294   0.849   2.220
  885W        W 4936   7.794  10.131   0.559
  886W        W 4937   0.488   6.244   1.653
  887W        W 4938   0.301   1.881  10.305
  888W        W 4939  11.416   4.682  10.538
  889W        W 4940   3.596   0.501   2.739
  890W        W 4941   5.697   1.316   0.710
  891W        W 4942   1.184  10.385   9.488
  892W        W 4943  10.935  10.410   9.322
  893W        W 4944   6.273  10.206   0.220
  894W        W 4945   4.468  11.159   9.249
  895W        W 4946   4.255   4.709   2.802
  896W        W 4947   6.640   9.480  10.531
  897W        W 4948  11.306   7.634   9.091
  898W        W 4949  10.375   9.627  10.487
  899W        W 4950   3.944   6.193  10.692
  900W        W 4951   4.041   4.020   9.263
  901W        W 4952   1.694   9.474   8.606
  902W        W 4953   1.383   8.727   1.032
  903W        W 4954   0.851   6.348   2.928
  904W        W 4955   3.554  11.369   9.548
  905W        W 4956   4.796   8.355   2.857
  906W        W 4957   8.282  10.232   2.876
  907W        W 4958   5.621  10.626   2.928
  908W        W 4959   7.593   8.477  10.394
  909W        W 4960   0.197   1.472  11.854
  910W        W 4961   6.050   3.256   0.164
  911W        W 4962   0.640   7.114   9.508
  912W        W 4963   3.385   8.867   1.963
  913W        W 4964  11.268   8.057   3.054
  914W        W 4965   1.732   7.358   2.925
  915W        W 4966   3.075   5.328   8.276
  916W        W 4967   8.146   2.780  11.290
  917W        W 4968   9.247   0.456   2.730
  918W        W 4969   8.651   1.018   2.631
  919W        W 4970   9.428   2.120   0.481
  920W        W 4971  10.999  10.535   0.756
  921W        W 4972   2.277   9.103  10.015
  922W        W 4973   6.584   1.926   1.440
  923W        W 4974   5.751   1.932   2.018
  924W        W 4975   4.307   0.705  11.381
  925W        W 4976   6.215   3.746   0.316
  926W        W 4977   4.760   6.277  10.323
  927W        W 4978   0.320   2.289  10.912
  928W        W 4979   7.971   7.914   1.464
  929W        W 4980   6.575  10.412  10.735
  930W        W 4981   2.117   4.269   0.466
  931W        W 4982   3.132   5.648  10.484
  932W        W 4983   4.471   8.865   9.292
  933W        W 4984  10.362   2.392  10.913
  934W        W 4985   9.650   4.149   1.816
  935W        W 4986   1.475   6.334   3.479
  936W        W 4987   5.116   1.995   3.653
  937W        W 4988   3.226  10.321   2.607
  938W        W 4989   8.607   3.325   3.106
  939W        W 4990   6.165   1.377   2.729
  940W        W 4991  10.999   3.635   1.417
  941W        W 4992   8.581   6.159   9.212
  942W        W 4993  11.129   8.128   3.539
  943W        W 4994   8.016  11.447   8.900
  944W        W 4995   6.095  10.442   2.664
  945W        W 4996   3.595   6.367   2.703
  946W        W 4997   3.671   3.712   3.020
  947W        W 4998   9.430  10.513  10.279
  948W        W 4999   0.451   7.023   2.545
  949W        W 5000   2.116  10.069   2.816
  950W        W 5001   9.793   3.296  12.002
  951W        W 5002   7.661   2.238  10.904
  952W        W 5003   9.098  10.935   0.516
  953W        W 5004   9.286   5.121   1.455
  954W        W 5005   6.763   9.052   9.276
  955W        W 5006   8.400   9.056  11.801
  956W        W 5007   5.789   3.729   1.575
  957W        W 5008   1.329   3.840   2.791
  958W        W 5009   5.257   8.026   9.672
  959W        W 5010   0.986   1.730   1.421
  960W        W 5011   0.283   9.488   1.491
  961W        W 5012  10.322   3.100   2.193
  962W        W 5013   2.801  10.850   9.000
  963W        W 5014   5.744   7.164  11.312
  964W        W 5015   1.341   0.395   3.474
  965W        W 5016   8.607   5.906  10.964
  966W        W 5017   5.149   4.618  11.757
  967W        W 5018   1.065   0.668   1.763
  968W        W 5019   5.591   7.532  10.991
  969W        W 5020   2.094   5.987  10.937
  970W        W 5021   9.468   5.194   3.422
  971W        W 5022   3.818   8.027   8.964
  972W        W 5023   4.160   7.608   9.084
  973W        W 5024   7.207   2.304   2.963
  974W        W 5025   8.746   4.945  10.765
  975W        W 5026   0.844   0.217   1.854
  976W        W 5027   4.416   1.274   1.418
  977W        W 5028   6.966   2.756   8.944
  978W        W 5029   7.676   3.829   3.265
  979W        W 5030  11.469   4.263   0.163
  980W        W 5031   2.650   8.431   1.661
  981W        W 5032  10.842  10.334   0.312
  982W        W 5033   3.200   2.842   9.136
  983W        W 5034   1.385   2.736  10.962
  984W        W 5035   3.290   9.765   8.916
  985W        W 5036   5.069   5.864  11.371
  986W        W 5037   5.359   9.481   8.020
  987W        W 5038  10.869   8.126   2.667
  988W        W 5039   6.431   9.146   1.811
  989W        W 5040   5.873   9.916   8.746
  990W        W 5041   7.075   8.386   9.092
  991W        W 5042   6.037   5.534   9.653
  992W        W 5043   8.894   5.516  10.572
  993W        W 5044   7.405   3.663   0.748
  994W        W 5045   6.309   2.670   2.804
  995W        W 5046   8.050   5.545   0.700
  996W        W 5047   1.440   6.228   9.007
  997W        W 5048   6.723   0.068  10.839
  998W        W 5049   8.048   6.454   0.292
  999W        W 5050  10.600   4.451   9.570
 1000W        W 5051   9.500   3.522   2.642
 1001W        W 5052   4.184   2.796  10.050
 1002W        W 5053   0.369   4.581   9.815
 1003W        W 5054   9.945   8.903  11.480
 1004W        W 5055   2.654   6.577   2.875
 1005W        W 5056   3.265  10.444   3.164
 1006W        W 5057   9.814   1.671   3.342
 1007W        W 5058   9.377   5.531  11.728
 1008W        W 5059   7.962   9.946   3.287
 1009W        W 5060   1.231   4.556   9.857
 1010W        W 5061   8.980   9.361  11.437
 1011W        W 5062   3.602   0.411   0.028
 1012W        W 5063   2.890   2.996   8.426
 1013W        W 5064   0.257   9.099   0.023
 1014W        W 5065   8.138   8.872   0.638
 1015W        W 5066   9.738   6.689   0.495
 1016W        W 5067   9.370   9.399   9.902
 1017W        W 5068   5.267   1.920   0.753
 1018W        W 5069   3.117   2.422   2.198
 1019W        W 5070   9.292   5.932   1.939
 1020W        W 5071   0.950   1.520  11.102
 1021W        W 5072   2.904   1.618  10.500
 1022W        W 5073   3.678   0.192   9.165
 1023W        W 5074   0.439   6.421   3.261
 1024W        W 5075   1.841   3.628   9.406
 1025W        W 5076   9.984  10.003   3.394
 1026W        W 5077   5.978   0.485   9.317
 1027W        W 5078  11.400   6.951   1.707
 1028W        W 5079   7.674   2.611  11.971
 1029W        W 5080   8.413   0.257   0.477
 1030W        W 5081   5.734  10.855   9.158
 1031W        W 5082   8.432   8.103   9.111
 1032W        W 5083   0.260   5.132   2.997
 1033W        W 5084   4.797   8.931   0.918
 1034W        W 5085   0.550   3.960  11.894
 1035W        W 5086   0.341   6.224   9.770
 1036W        W 5087   8.719   1.449  11.748
 1037W        W 5088  11.254  11.166  10.261
 1038W        W 5089   2.596   8.127   2.106
 1039W        W 5090   3.661   8.428   9.700
 1040W        W 5091   8.009   6.859   2.588
 1041W        W 5092   9.529   2.401  11.129
 1042W        W 5093   6.960   0.737   1.260
 1043W        W 5094   6.287   6.421   8.603
 1044W        W 5095   2.147   8.354  10.682
 1045W        W 5096   0.860   1.350   9.070
 1046W        W 5097   2.077   6.841   9.529
 1047W        W 5098   9.773  10.261   9.024
 1048W        W 5099  11.052   7.694  10.489
 1049W        W 5100   1.186   1.980   0.707
 1050W        W 5101   8.566   9.742   1.105
 1051W        W 5102   6.087   8.217   3.059
 1052W        W 5103  11.039   9.837   0.331
 1053W        W 5104   4.848   9.759   2.684
 1054W        W 5105   6.210   1.400   1.200
 1055W        W 5106   1.770  11.211  11.103
 1056W        W 5107   9.436   6.623   0.097
 1057W        W 5108   8.292   0.268   3.008
 1058W        W 5109   2.447   0.710   0.297
 1059W        W 5110   2.578   6.128  11.026
 1060W        W 5111   3.726   0.065   0.390
 1061W        W 5112   7.957   8.954   1.568
 1062W        W 5113   6.686   9.040   0.271
 1063W        W 5114   0.904   3.366  11.481
 1064W        W 5115   0.883   6.799  10.927
 1065W        W 5116   8.167   6.709   1.779
 1066W        W 5117   2.416   4.839   1.187
 1067W        W 5118   9.405   2.428  10.642
 1068W        W 5119   5.140   2.655   1.347
 1069W        W 5120   0.911   3.684  10.949
 1070W        W 5121   7.561   7.212   0.256
 1071W        W 5122  10.123   7.876   0.716
 1072W        W 5123   6.734   9.356   9.704
 1073W        W 5124   9.824  10.129   1.803
 1074W        W 5125   2.207   4.684   0.155
 1075W        W 5126   2.195   7.943   2.380
 1076W        W 5127  11.197   6.535  11.263
 1077W        W 5128  10.911  10.027   9.978
 1078W        W 5129   1.597   2.379   1.472
 1079W        W 5130   6.560   1.697   0.990
 1080W        W 5131   1.910   1.349   9.423
 1081W        W 5132  11.392   7.237   0.784
 1082W        W 5133   9.862  10.814   9.911
 1083W        W 5134   1.226   9.623   0.888
 1084W        W 5135   0.733   2.320  11.305
 1085W        W 5136   9.560  10.377   0.034
 1086W        W 5137   9.333   7.511   0.974
 1087W        W 5138  10.878   7.223   3.073
 1088W        W 5139   6.641   1.441   1.499
 1089W        W 5140   5.487   6.786   1.777
 1090W        W 5141   9.447   1.892  11.095
 1091W        W 5142   9.253   1.471  11.813
 1092W        W 5143   4.711   7.658   2.953
 1093W        W 5144   6.610   3.710  10.944
 1094W        W 5145   5.127   8.132   3.238
 1095W        W 5146   9.522   8.856  10.780
 1096W        W 5147   9.446   1.644   1.529
 1097W        W 5148   2.923   9.490   2.161
 1098W        W 5149  11.272   5.180   2.895
 1099W        W 5150   7.626   9.349  10.508
 1100W        W 5151   2.899   0.934  11.426
 1101W        W 5152   2.175   4.375   9.843
 1102W        W 5153   3.755   7.952  11.018
 1103W        W 5154   5.142   6.683  10.861
 1104W        W 5155   9.749   6.996   0.963
 1105W        W 5156   0.177   2.849   9.011
 1106W        W 5157   3.655  10.290   2.884
 1107W        W 5158   3.213  11.343  10.640
 1108W        W 5159  10.984  10.803   2.545
 1109W        W 5160  10.857   6.371   2.721
 1110W        W 5161  11.097  11.118  11.480
 1111W        W 5162   0.392   6.023  10.768
 1112W        W 5163   8.171   2.863   1.288
 1113W        W 5164   7.494   2.410   9.087
 1114W        W 5165   7.041   6.858   1.994
 1115W        W 5166   0.280   8.990   3.096
 1116W        W 5167   9.860   1.799   1.273
 1117W        W 5168   2.915   5.464   0.745
 1118W        W 5169   8.009   8.362  11.375
 1119W        W 5170   7.932   0.665   3.091
 1120W        W 5171   9.001   8.700   2.696
 1121W        W 5172   2.094   0.934   0.624
 1122W        W 5173   8.012   3.840  10.122
 1123W        W 5174   9.393   7.426   9.910
 1124W        W 5175   0.843   0.495   8.875
 1125W        W 5176   4.755   4.349   2.912
 1126W        W 5177   7.025   5.013  11.336
 1127W        W 5178  10.995   4.088   0.588
 1128W        W 5179   4.334   1.339   2.812
 1129W        W 5180   2.493   4.217  10.206
 1130W        W 5181   6.396   2.742   1.643
 1131W        W 5182   3.238   0.406   9.430
 1132W        W 5183   7.017   2.999   9.767
 1133W        W 5184   5.227   4.029   8.300
 1134W        W 5185   0.083   2.827  11.213
 1135W        W 5186   6.806  10.770   0.565
 1136W        W 5187   2.684  10.821   9.975
 1137W        W 5188   4.576   2.208  11.925
 1138W        W 5189   7.087   6.528  11.423
 1139W        W 5190  10.272   4.095  10.436
 1140W        W 5191   7.882   5.033   1.454
 1141W        W 5192   6.386   3.276   3.224
 1142W        W 5193   4.310   4.219   2.610
 1143W        W 5194  11.326   7.522   3.132
 1144W        W 5195   1.228   6.646   9.768
 1145W        W 5196   9.510   4.066   2.834
 1146W        W 5197   4.685   4.266   8.592
 1147W        W 5198  10.054   8.620   1.855
 1148W        W 5199   0.872   7.678  10.666
 1149W        W 5200   8.943   5.671   0.946
 1150W        W 5201   0.913   0.233  10.200
 1151W        W 5202   1.288  10.194   2.814
 1152W        W 5203  10.156   3.107  10.464
 1153W        W 5204  10.930   1.114   0.655
 1154W        W 5205   4.594   2.177   2.369
 1155W        W 5206   7.391   1.488   8.993
 1156W        W 5207   3.821   0.363  10.166
 1157W        W 5208   2.506   1.731   8.860
 1158W        W 5209   6.691  10.869   8.697
 1159W        W 5210   3.858   4.634  11.365
 1160W        W 5211   6.191   2.908  10.384
 1161W        W 5212   3.038   5.547   8.775
 1162W        W 5213   0.283   3.167  10.829
 1163W        W 5214   2.424   4.638  11.293
 1164W        W 5215   0.043   1.744   8.720
 1165W        W 5216   4.186   5.009   9.567
 1166W        W 5217  10.019   1.827   2.700
 1167W        W 5218   9.093   4.295   2.568
 1168W        W 5219  11.277   3.111  10.866
 1169W        W 5220   8.385   1.772   0.849
 1170W        W 5221   1.280   8.461  11.555
 1171W        W 5222   6.959   6.212   9.173
 1172W        W 5223  11.386   3.175   1.378
 1173W        W 5224  10.693   1.695   3.703
 1174W        W 5225   1.177  10.348  10.404
 1175W        W 5226   9.068   8.915   1.990
 1176W        W 5227   8.943   1.889  11.895
 1177W        W 5228   4.343   9.954   2.760
 1178W        W 5229   8.922   6.926   1.174
 1179W        W 5230   6.894   3.140   9.297
 1180W        W 5231   6.224   8.525  11.285
 1181W        W 5232   9.471   3.630   3.130
 1182W        W 5233   8.551   2.090   1.297
 1183W        W 5234   8.525   8.058   2.776
 1184W        W 5235   9.855   9.313  10.659
 1185W        W 5236   7.403   2.763   2.301
 1186W        W 5237   8.962   7.120  10.860
 1187W        W 5238  10.792   9.797   1.872
 1188W        W 5239   4.733   9.496   8.441
 1189W        W 5240   8.128   1.847   2.234
 1190W        W 5241   8.018   6.447  11.455
 1191W        W 5242   7.577   5.317  10.633
 1192W        W 5243   7.120   9.067   0.009
 1193W        W 5244   7.106  10.971   9.015
 1194W        W 5245   8.818   4.576   8.632
 1195W        W 5246   4.145   2.642   3.027
 1196W        W 5247   5.644   3.865   0.743
 1197W        W 5248   1.255   6.534  11.222
 1198W        W 5249   8.462   9.014   3.186
 1199W        W 5250   4.037   0.525   9.036
 1200W        W 5251   8.792  10.918   0.914
 1201W        W 5252   6.521   8.462   9.732
 1202W        W 5253   2.380   8.678  10.356
 1203W        W 5254   0.467   1.025  11.746
 1204W        W 5255   0.274   4.377   1.699
 1205W        W 5256   0.376   0.374   2.018
 1206W        W 5257  11.312  10.804   0.425
 1207W        W 5258  10.497   4.786   9.942
 1208W        W 5259   1.797   1.713  10.084
 1209W        W 5260   6.438   4.685   0.352
 1210W        W 5261   1.282   4.981   3.415
 1211W        W 5262  10.388   6.206  11.260
 1212W        W 5263   6.123   9.626  10.555
 1213W        W 5264  10.805   7.953   1.850
 1214W        W 5265   3.287   8.375   8.964
 1215W        W 5266   2.276   6.160   9.316
 1216W        W 5267   9.948   5.168   8.623
 1217W        W 5268  10.395   2.156   9.573
 1218W        W 5269   1.857   0.289   2.759
 1219W        W 5270   3.356   1.300   8.841
 1220W        W 5271   7.167   7.228  10.091
 1221W        W 5272   8.601  10.809   0.373
 1222W        W 5273   6.445   8.050   9.064
 1223W        W 5274   6.738   5.449   0.052
 1224W        W 5275   7.514   1.565   2.368
 1225W        W 5276   6.780   9.539   3.185
 1226W        W 5277   3.517   8.624  11.742
 1227W        W 5278   5.855   2.987   0.802
 1228W        W 5279  10.870   5.534  10.061
 1229W        W 5280   2.430   1.790  11.386
 1230W        W 5281   7.196  10.652   0.212
 1231W        W 5282   0.062  10.953   0.882
 1232W        W 5283   3.292   7.478   2.062
 1233W        W 5284   8.895   7.556  11.097
 1234W        W 5285   6.267   9.976  10.913
 1235W        W 5286   3.686  10.909  10.042
 1236W        W 5287  10.041   9.132   1.826
 1237W        W 5288   3.762   7.054   0.503
 1238W        W 5289   9.430   7.119   1.850
 1239W        W 5290   3.667   9.439   9.100
 1240W        W 5291   3.813   9.802   1.186
 1241W        W 5292   1.336   5.324   9.448
 1242W        W 5293  11.310   8.523   8.947
 1243W        W 5294   8.298   6.371   8.822
 1244W        W 5295   6.933  11.483   3.305
 1245W        W 5296   2.383   1.317   9.184
 1246W        W 5297   6.389   9.128  11.308
 1247W        W 5298   3.148   1.864   9.551
 1248W        W 5299   6.530   2.489  11.914
 1249W        W 5300   3.725   9.802   2.076
 1250W        W 5301   6.129  11.030  11.291
 1251W        W 5302   7.154   7.072   0.528
 1252W        W 5303   2.333  10.081   1.644
 1253W        W 5304   8.530   9.446  11.034
 1254W        W 5305   5.562   5.652   9.517
 1255W        W 5306   7.638   7.999  10.170
 1256W        W 5307   1.111   0.423  11.260
 1257W        W 5308   1.303   8.129   1.886
 1258W        W 5309   7.568  10.901  11.460
 1259W        W 5310   1.687   4.542   9.570
 1260W        W 5311   8.922   1.614   2.928
 1261W        W 5312   5.119   8.581   0.515
 1262W        W 5313   5.707  10.087   1.326
 1263W        W 5314   9.857  10.265  10.333
 1264W        W 5315   9.042   3.713   8.625
 1265W        W 5316   5.744   8.666   0.394
 1266W        W 5317   2.052  11.322  11.929
 1267W        W 5318   7.470   4.003  11.903
 1268W        W 5319   4.590   6.723   2.938
 1269W        W 5320   5.359   5.072   2.604
 1270W        W 5321   9.512   2.995   2.493
 1271W        W 5322   9.139   1.234  10.005
 1272W        W 5323   0.639   0.537  10.514
 1273W        W 5324   4.477  10.363   8.513
 1274W        W 5325   1.248   3.561   9.842
 1275W        W 5326   0.750   0.083  11.426
 1276W        W 5327   0.637   7.147   1.268
 1277W        W 5328  10.324  10.834  10.990
 1278W        W 5329   1.853   5.061   2.650
 1279W        W 5330   1.500   9.745   1.307
 1280W        W 5331   3.659   2.315   0.691
 1281W        W 5332   6.679   6.893   2.320
 1282W        W 5333   8.416   7.070   0.274
 1283W        W 5334   5.290   3.320   2.251
 1284W        W 5335   0.273   2.295   9.110
 1285W        W 5336   1.768   6.882   2.735
 1286W        W 5337   5.283   0.141   0.381
 1287W        W 5338   0.073  10.334   2.390
 1288W        W 5339   6.757   9.989  10.997
 1289W        W 5340   6.085   8.478  11.769
 1290W        W 5341   8.086   7.262  11.109
 1291W        W 5342   9.795   9.428   0.689
 1292W        W 5343   2.428  11.326   0.294
 1293W        W 5344   2.459   9.414   0.364
 1294W        W 5345   8.493   5.650   3.577
 1295W        W 5346   4.262   3.546   0.909
 1296W        W 5347   6.945   2.387  11.039
 1297W        W 5348   8.435   3.257   9.495
 1298W        W 5349   9.134  10.087   0.366
 1299W        W 5350  10.343   8.561  11.605
 1300W        W 5351  11.395   8.710   9.918
 1301W        W 5352   6.537   0.644   0.005
 1302W        W 5353   6.105  11.063   3.487
 1303W        W 5354   0.213   7.191   9.823
 1304W        W 5355   2.945   7.576   3.017
 1305W        W 5356   0.409   9.029   1.737
 1306W        W 5357  10.484   8.520   0.102
 1307W        W 5358   7.182   5.670   1.025
 1308W        W 5359   3.370   5.317   9.120
 1309W        W 5360   9.936   8.142   2.702
 1310W        W 5361   2.913   5.459   1.760
 1311W        W 5362   2.393   3.335   1.222
 1312W        W 5363   4.008   1.747   8.419
 1313W        W 5364   8.733   6.657  10.865
 1314W        W 5365  10.402   1.494  10.456
 1315W        W 5366   7.224   6.550   3.155
 1316W        W 5367  11.496   6.128   0.003
 1317W        W 5368   0.163   1.088   0.195
 1318W        W 5369  11.460   3.391  10.441
 1319W        W 5370   8.803   3.241   8.566
 1320W        W 5371   0.064   6.100   1.909
 1321W        W 5372   5.969   4.026   9.417
 1322W        W 5373   9.875   3.670   0.571
 1323W        W 5374   4.594   8.587   0.587
 1324W        W 5375  10.865   3.487   2.324
 1325W        W 5376   0.532  10.005   2.257
 1326W        W 5377   5.039  11.461   0.787
 1327W        W 5378   7.262   6.212  10.598
 1328W        W 5379   3.744  11.125  11.433
 1329W        W 5380   2.687   9.329  11.917
 1330W        W 5381  10.626   7.862   0.605
 1331W        W 5382   1.691   4.877  11.042
 1332W        W 5383   6.862  11.403   9.460
 1333W        W 5384   1.899   8.829   0.271
 1334W        W 5385   8.540   2.301   2.354
 1335W        W 5386   3.683   2.844   0.724
 1336W        W 5387  10.656  11.324   0.616
 1337W        W 5388   2.825   4.168   2.677
 1338W        W 5389   3.167   0.299   1.515
 1339W        W 5390   0.245   5.589   9.847
 1340W        W 5391   6.315  10.450  10.271
 1341W        W 5392   4.964   0.578   1.683
 1342W        W 5393   0.225   3.088   0.404
 1343W        W 5394   2.940   0.128  10.164
 1344W        W 5395   0.465   3.092  11.431
 1345W        W 5396   1.980   8.102  11.873
 1346W        W 5397   4.629   7.624  11.589
 1347W        W 5398   7.271   0.534   8.942
 1348W        W 5399   6.446   7.895   2.287
 1349W        W 5400   7.546   2.291   0.801
 1350W        W 5401   3.801   5.236   0.274
 1351W        W 5402   3.715   4.471   1.929
 1352W        W 5403   8.295   4.560   8.587
 1353W        W 5404   7.818   8.424  11.865
 1354W        W 5405   5.507   8.897   8.608
 1355W        W 5406   0.839   9.203   3.140
 1356W        W 5407   2.756   2.084  10.356
 1357W        W 5408   0.456   1.247   2.612
 1358W        W 5409   5.258  11.424   1.652
 1359W        W 5410  10.197   9.397  11.460
 1360W        W 5411  10.695  10.444   1.372
 1361W        W 5412   2.788   2.367   0.784
 1362W        W 5413   8.042   6.003   4.136
 1363W        W 5414   2.317  10.892  11.813
 1364W        W 5415   6.942   1.509   0.696
 1365W        W 5416   0.047   9.778   8.838
 1366W        W 5417   0.496   3.069   9.791
 1367W        W 5418  10.626   3.891   0.264
 1368W        W 5419   2.787   3.775   9.448
 1369W        W 5420   4.593   9.515  10.662
 1370W        W 5421   5.565   1.677   2.869
 1371W        W 5422   3.344   1.494   2.839
 1372W        W 5423   5.201   9.296   8.497
 1373W        W 5424   0.226   0.306  10.743
 1374W        W 5425  10.857  10.097  11.319
 1375W        W 5426   4.709  10.053   2.276
 1376W        W 5427   4.960   0.824   9.797
 1377W        W 5428   4.091   4.552   3.555
 1378W        W 5429  10.525   7.216  11.625
 1379W        W 5430   6.773   3.676   9.225
 1380W        W 5431   4.518   4.440   9.555
 1381W        W 5432   3.848   0.480  11.573
 1382W        W 5433  10.871   4.202   1.138
 1383W        W 5434   5.320   9.894   3.577
 1384W        W 5435   4.379   1.418   9.951
 1385W        W 5436   7.559   0.771   3.418
 1386W        W 5437   9.052   0.811   2.403
 1387W        W 5438   8.554   7.594   9.304
 1388W        W 5439   3.679   2.646   9.322
 1389W        W 5440   8.532   7.543   2.793
 1390W        W 5441   9.046   4.625   1.263
 1391W        W 5442   8.621   2.575   0.526
 1392W        W 5443   5.970   3.332   1.213
 1393W        W 5444   2.709   7.923   2.667
 1394W        W 5445   3.125  10.276   0.115
 1395W        W 5446  10.564   9.870  10.925
 1396W        W 5447   7.552   4.355   1.478
 1397W        W 5448   2.380   7.885  10.700
 1398W        W 5449   8.647   6.321  11.767
 1399W        W 5450   9.003   9.636  10.977
 1400W        W 5451   5.751   0.345   0.490
 1401W        W 5452   6.075   8.059   8.595
 1402W        W 5453   6.045   7.322   4.026
 1403W        W 5454   4.075  10.897   9.058
 1404W        W 5455   0.899   3.880  11.463
 1405W        W 5456   4.280   8.922   0.810
 1406W        W 5457   2.789   2.472  11.840
 1407W        W 5458   7.820   6.687   9.988
 1408W        W 5459   9.556   2.892   9.470
 1409W        W 5460  10.078   9.005   9.889
 1410W        W 5461   3.571   0.728   9.193
 1411W        W 5462   4.728   9.101  11.425
 1412W        W 5463   8.770  10.897   2.434
 1413W        W 5464   3.887   5.285  10.553
 1414W        W 5465   6.725   3.702   0.308
 1415W        W 5466   8.022   9.636   9.889
 1416W        W 5467   9.069   5.747   2.777
 1417W        W 5468   7.640   4.162  11.071
 1418W        W 5469  10.807   9.801  11.804
 1419W        W 5470   3.122   9.116  10.221
 1420W        W 5471   5.821   5.194  11.634
 1421W        W 5472   3.424   6.098  10.686
 1422W        W 5473   6.543   6.629   1.788
 1423W        W 5474   9.569   6.119  10.817
 1424W        W 5475   6.867  10.864  10.669
 1425W        W 5476   8.224   8.937   1.136
 1426W        W 5477   3.295   8.031  10.236
 1427W        W 5478   4.232   2.312  10.439
 1428W        W 5479  10.855   2.747   9.193
 1429W        W 5480   0.490  11.040   1.196
 1430W        W 5481   0.970  11.287   1.349
 1431W        W 5482   8.953   7.372   9.585
 1432W        W 5483   2.175   3.417   1.881
 1433W        W 5484   9.193   7.067  11.920
 1434W        W 5485   2.952   7.845  11.983
 1435W        W 5486   2.364   0.530   2.002
 1436W        W 5487   1.057   9.820   2.581
 1437W        W 5488   8.942   0.726  11.478
 1438W        W 5489   2.928   3.163   3.232
 1439W        W 5490   4.293   2.765   0.341
 1440W        W 5491   4.701   4.217   9.117
 1441W        W 5492   4.723   2.964   1.427
 1442W        W 5493   5.234   5.618  10.955
 1443W        W 5494   5.667  11.102   3.114
 1444W        W 5495  10.974   6.033   9.854
 1445W        W 5496   1.284   4.808   9.411
 1446W        W 5497   2.343   4.337   8.461
 1447W        W 5498   2.401   2.696  11.571
 1448W        W 5499   5.778   7.113  10.419
 1449W        W 5500   1.303   1.108  11.118
 1450W        W 5501   8.766   4.321   9.183
 1451W        W 5502   7.461   5.204   1.915
 1452W        W 5503   5.188   1.673  11.251
 1453W        W 5504   6.587   6.124  10.055
 1454W        W 5505   6.590   4.525   2.537
 1455W        W 5506   1.192   5.662   1.306
 1456W        W 5507  10.218   0.603   0.131
 1457W        W 5508   3.104   8.956   2.380
 1458W        W 5509   3.401  10.773  10.888
 1459W        W 5510   8.114   4.100   3.140
 1460W        W 5511   3.206   3.564   2.749
 1461W        W 5512   4.691  10.962   9.695
 1462W        W 5513   9.908   0.265  10.270
 1463W        W 5514   5.743   3.381   8.882
 1464W        W 5515   9.082   4.580  10.936
 1465W        W 5516  10.744   1.856   0.860
 1466W        W 5517   5.048   3.766   1.383
 1467W        W 5518   9.111   4.194   8.834
 1468W        W 5519   9.751   5.279   1.257
 1469W        W 5520   9.903   8.118   0.337
 1470W        W 5521  10.300  10.977   3.209
 1471W        W 5522  10.072   2.382   2.727
 1472W        W 5523   1.267   2.427   1.066
 1473W        W 5524   7.088   0.231   1.315
 1474W        W 5525   2.183   2.116  11.037
 1475W        W 5526   7.358   7.072   2.350
 1476W        W 5527  11.484   9.569   2.749
 1477W        W 5528   9.105   6.589   9.128
 1478W        W 5529   3.154   8.883   9.052
 1479W        W 5530   4.083   9.528  10.442
 1480W        W 5531   1.917   2.219   0.434
 1481W        W 5532   4.832  10.584   1.262
 1482W        W 5533   6.172   6.194   3.026
 1483W        W 5534   3.722   5.392  11.782
 1484W        W 5535   0.135   8.921   2.146
 1485W        W 5536   6.216   6.121  11.958
 1486W        W 5537   0.895   6.421   1.915
 1487W        W 5538   5.193   3.643  11.011
 1488W        W 5539   9.329   6.299  11.278
 1489W        W 5540   8.900   3.286  10.450
 1490W        W 5541   4.570   0.267  11.973
 1491W        W 5542   1.781   9.189  11.358
 1492W        W 5543   9.528   0.597   9.423
 1493W        W 5544   9.793   0.855  11.375
 1494W        W 5545  10.512  11.300   1.841
 1495W        W 5546  10.851   1.286  11.086
 1496W        W 5547   3.707   3.369  10.936
 1497W        W 5548   0.381   3.848   2.393
 1498W        W 5549   4.568   0.752   0.785
 1499W        W 5550   9.055   8.098  10.211
 1500W        W 5551  10.718   0.227   0.954
 1501W        W 5552  10.145  10.398   9.944
 1502W        W 5553   8.494  11.315   0.182
 1503W        W 5554   1.055  10.543   2.449
 1504W        W 5555   5.179   0.018   2.667
 1505W        W 5556   5.485   4.026   3.606
 1506W        W 5557   2.003   9.887   9.376
 1507W        W 5558   5.250   1.318   2.630
 1508W        W 5559   6.645   2.641  10.346
 1509W        W 5560   5.153   3.969   3.984
 1510W        W 5561   9.194   6.342   8.666
 1511W        W 5562   8.868   7.420   1.209
 1512W        W 5563  10.591   4.293  10.075
 1513W        W 5564   2.197   9.130  11.958
 1514W        W 5565   8.117   5.024   4.063
 1515W        W 5566   7.555   7.145   1.312
 1516W        W 5567   1.663   6.918   3.245
 1517W        W 5568  11.463   5.995  10.006
 1518W        W 5569   4.435  10.398  11.352
 1519W        W 5570   9.522   9.906   1.363
 1520W        W 5571   5.554   9.597  11.265
 1521W        W 5572   2.704   1.044   1.261
 1522W        W 5573   3.258   2.328   9.284
 1523W        W 5574  11.092   9.384  11.742
 1524W        W 5575   2.275   2.244   0.922
 1525W        W 5576   9.043   6.777   1.953
 1526W        W 5577   7.844   5.749   9.881
 1527W        W 5578  11.107   4.490  10.892
 1528W        W 5579   8.039   4.662   2.157
 1529W        W 5580   7.373   4.653  11.043
 1530W        W 5581   4.257  11.366   2.516
 1531W        W 5582   3.650   6.613   0.266
 1532W        W 5583   6.036   0.808   8.493
 1533W        W 5584  10.890   8.177   0.301
 1534W        W 5585  10.794   1.800  10.511
 1535W        W 5586   9.443   2.620   2.024
 1536W        W 5587   1.605   1.305   9.820
 1537W        W 5588   0.545  10.535   2.364
 1538W        W 5589   9.420   0.103  11.193
 1539W        W 5590   9.968  11.456   9.547
 1540W        W 5591   2.913   5.368   0.218
 1541W        W 5592   3.373   2.583  10.673
 1542W        W 5593   4.352   3.775  11.187
 1543W        W 5594   6.636   2.219   0.968
 1544W        W 5595   2.136   1.768   9.213
 1545W        W 5596   2.212  11.418  11.422
 1546W        W 5597   4.372   0.819   0.310
 1547W        W 5598   9.586   7.978  10.099
 1548W        W 5599   4.947   8.638  10.822
 1549W        W 5600   0.604   5.909   0.696
 1550W        W 5601   3.239   4.290  11.282
 1551W        W 5602   2.243   8.691   2.960
 1552W        W 5603   1.830   0.262   9.503
 1553W        W 5604   6.399   4.028  10.530
 1554W        W 5605   4.122  11.250  10.832
 1555W        W 5606   5.887   6.171   0.828
 1556W        W 5607   0.260   1.617   9.879
 1557W        W 5608   1.392  10.270   1.311
 1558W        W 5609   3.711   6.553   9.393
 1559W        W 5610   1.095   1.790   9.018
 1560W        W 5611   7.891   0.466   1.781
 1561W        W 5612   6.206   8.820  10.052
 1562W        W 5613   7.998   4.158  11.448
 1563W        W 5614   8.609   8.439   1.969
 1564W        W 5615   8.172   6.561   3.183
 1565W        W 5616   9.657   6.973   2.299
 1566W        W 5617   0.701  11.429   0.953
 1567W        W 5618   8.808   8.665   3.710
 1568W        W 5619  11.257   9.039  10.932
 1569W        W 5620   1.317   6.001   0.057
 1570W        W 5621   8.910   6.108   0.543
 1571W        W 5622   8.514   3.410   8.965
 1572W        W 5623   4.782   8.268  11.708
 1573W        W 5624  11.277   9.673   1.745
 1574W        W 5625   6.799   8.110   9.448
 1575W        W 5626   7.125  10.486   9.226
 1576W        W 5627  10.984  10.629  11.391
 1577W        W 5628   5.425   6.231   2.265
 1578W        W 5629   6.299   6.088   2.531
 1579W        W 5630   3.233   8.514  10.446
 1580W        W 5631   2.716   5.521   2.822
 1581W        W 5632   0.389   9.507  11.345
 1582W        W 5633   3.176   6.201   3.396
 1583W        W 5634   0.584   1.442   3.610
 1584W        W 5635   0.341   7.030  11.759
 1585W        W 5636   3.692   3.860  11.832
 1586W        W 5637  10.004  11.372   1.864
 1587W        W 5638  10.404   1.285  11.340
 1588W        W 5639   6.254   7.874   0.406
 1589W        W 5640  11.005  10.044   1.484
 1590W        W 5641  10.803   1.335   9.648
 1591W        W 5642  10.470   6.440  11.976
 1592W        W 5643   0.888   1.115   3.315
 1593W        W 5644   0.888   3.797   2.548
 1594W        W 5645   9.609   2.143   2.616
 1595W        W 5646   3.141   2.058  10.769
 1596W        W 5647   4.548   0.941  10.083
 1597W        W 5648   1.355   2.342   1.955
 1598W        W 5649   8.862   4.619   2.197
 1599W        W 5650   5.801   9.138   9.874
 1600W        W 5651  11.055   9.811   2.300
 1601W        W 5652   8.865   1.746   1.083
 1602W        W 5653   8.011   7.435   1.306
 1603W        W 5654   9.028   7.705   2.832
 1604W        W 5655  10.038   7.019   9.091
 1605W        W 5656   3.373   3.366   1.389
 1606W        W 5657   9.187   7.573  11.898
 1607W        W 5658  10.582   3.625   9.625
 1608W        W 5659   8.132  10.345  11.957
 1609W        W 5660  10.047   8.959   8.866
 1610W        W 5661   6.971   4.660  11.727
 1611W        W 5662   6.638   1.169   9.606
 1612W        W 5663   6.343   8.983   2.683
 1613W        W 5664   9.992   8.934  10.976
 1614W        W 5665   8.333   6.834   0.726
 1615W        W 5666   2.835  11.326   8.811
 1616W        W 5667   2.503   0.058  10.419
 1617W        W 5668   6.589  10.844   1.350
 1618W        W 5669   4.587   9.106  11.910
 1619W        W 5670   9.407   2.886   0.923
 1620W        W 5671   5.007   2.848   3.197
 1621W        W 5672   0.196  10.316   1.443
 1622W        W 5673   9.906   4.824   2.280
 1623W        W 5674  10.104   0.387   9.754
 1624W        W 5675   3.315   9.913   1.336
 1625W        W 5676  10.853   6.444   1.250
 1626W        W 5677   6.103   3.630   1.986
 1627W        W 5678   4.159   4.255  11.202
 1628W        W 5679   0.709  10.812   3.339
 1629W        W 5680   9.360   8.031   1.842
 1630W        W 5681   0.455   6.184  11.774
 1631W        W 5682   4.229  10.068   3.389
 1632W        W 5683   9.431   3.947   2.331
 1633W        W 5684   2.873   2.550  10.546
 1634W        W 5685   0.759   4.171   0.709
 1635W        W 5686   1.807   0.915   8.686
 1636W        W 5687   3.740   3.602  11.400
 1637W        W 5688   2.184   5.689   9.099
 1638W        W 5689   8.107   5.818  10.969
 1639W        W 5690   5.017   9.578   8.878
 1640W        W 5691   3.821   7.540   3.256
 1641W        W 5692   5.624   3.699   2.076
 1642W        W 5693   5.051   3.570   2.675
 1643W        W 5694   0.049   6.731   2.459
 1644W        W 5695  10.420   3.213   2.675
 1645W        W 5696   5.646   7.616   1.927
 1646W        W 5697   6.976   0.645   8.519
 1647W        W 5698   7.986   4.994  10.382
 1648W        W 5699   4.433   1.052  11.037
 1649W        W 5700   2.692   3.282   0.230
 1650W        W 5701   0.440   0.357   3.377
 1651W        W 5702   3.214   3.616  10.538
 1652W        W 5703   3.148   6.047   9.792
 1653W        W 5704   9.936   2.889   1.204
 1654W        W 5705   0.380   8.640  10.079
 1655W        W 5706   7.123   2.862   0.469
 1656W        W 5707   8.102  10.033   2.414
 1657W        W 5708   0.849   8.353  11.262
 1658W        W 5709   6.244   5.232   2.399
 1659W        W 5710   1.874   2.294   1.903
 1660W        W 5711   3.195   5.300   2.506
 1661W        W 5712   5.804   5.016   0.411
 1662W        W 5713   5.216   9.741  11.811
 1663W        W 5714   1.372   5.759   1.773
 1664W        W 5715   2.137   9.004   8.975
 1665W        W 5716  10.553   6.995   9.101
 1666W        W 5717   5.561   7.953   8.715
 1667W        W 5718   4.524   0.730   3.565
 1668W        W 5719   6.407   2.136   9.323
 1669W        W 5720   1.275   7.681   9.001
 1670W        W 5721  11.244   2.824   1.734
 1671W        W 5722   3.383   2.237   3.029
 1672W        W 5723  10.800   3.714   0.944
 1673W        W 5724  11.028   6.204   0.540
 1674W        W 5725   0.845   8.640  10.282
 1675W        W 5726   2.661   0.538  11.251
 1676W        W 5727  11.476   8.152   2.590
 1677W        W 5728   7.297  10.779   2.152
 1678W        W 5729  10.406   0.380   8.944
 1679W        W 5730   5.490   6.746   0.380
 1680W        W 5731   2.728   0.239   0.284
 1681W        W 5732   3.527   3.978   1.996
 1682W        W 5733   9.617   2.936  11.076
 1683W        W 5734   4.561   9.385   9.354
 1684W        W 5735   8.716   5.124   0.439
 1685W        W 5736   5.092   4.025   0.097
 1686W        W 5737   1.702   9.491   9.611
 1687W        W 5738   4.811   1.465  11.529
 1688W        W 5739   5.691   9.437  11.723
 1689W        W 5740   1.830   0.485   1.240
 1690W        W 5741   2.784   3.647   3.032
 1691W        W 5742   9.921   4.781   1.212
 1692W        W 5743   9.023   4.806   2.651
 1693W        W 5744   0.032   9.416   3.291
 1694W        W 5745   4.563   4.804   0.456
 1695W        W 5746  10.669   5.763   3.710
 1696W        W 5747   7.107   9.856   2.238
 1697W        W 5748   6.158   4.879  10.403
 1698W        W 5749  11.014   0.611   0.800
 1699W        W 5750   8.448  10.059  10.353
 1700W        W 5751   2.706   3.667   1.524
 1701W        W 5752   3.827  10.245   0.713
 1702W        W 5753  11.095   0.038  11.779
 1703W        W 5754   4.409   9.363   1.317
 1704W        W 5755   4.648  10.809   1.691
 1705W        W 5756   9.052  11.345  10.480
 1706W        W 5757   4.243   7.785  10.974
 1707W        W 5758   5.540  10.844   1.272
 1708W        W 5759   7.911   3.204  11.627
 1709W        W 5760   5.517   6.822  10.073
 1710W        W 5761  10.122   5.174  10.498
 1711W        W 5762   6.266   3.182   2.189
 1712W        W 5763   8.497   5.208   3.318
 1713W        W 5764  10.819   0.742   0.325
 1714W        W 5765  10.120   6.234  11.688
 1715W        W 5766   8.908   3.578   9.948
 1716W        W 5767   4.825   6.910   2.488
 1717W        W 5768   3.342   8.164  11.852
 1718W        W 5769   1.073   7.911  11.084
 1719W        W 5770   2.195   0.940   3.313
 1720W        W 5771   4.177   8.399   9.451
 1721W        W 5772   8.195   7.988   3.168
 1722W        W 5773   7.844   0.002  10.363
 1723W        W 5774   1.454   3.749   1.194
 1724W        W 5775   7.496   4.565   8.197
 1725W        W 5776   6.156  11.191   9.098
 1726W        W 5777   7.871   5.492   1.727
 1727W        W 5778   5.501   1.656   9.002
 1728W        W 5779   2.735   2.701   1.957
 1729W        W 5780   0.399   4.059   0.369
 1730W        W 5781   2.422   8.600   8.825
 1731W        W 5782   3.814  11.024   8.632
 1732W        W 5783   8.409  10.932  11.860
 1733W        W 5784   9.518   0.095   9.347
 1734W        W 5785   5.500   8.017   3.657
 1735W        W 5786   8.989  10.014   3.004
 1736W        W 5787   0.464   0.369   1.021
 1737W        W 5788   6.293   7.995   0.936
 1738W        W 5789   6.152   4.020   8.174
 1739W        W 5790   5.071   2.574  11.721
 1740W        W 5791   3.035   8.359   2.995
 1741W        W 5792   3.088   5.587   1.255
 1742W        W 5793   0.738  10.470  10.622
 1743W        W 5794   5.337   6.940   3.479
 1744W        W 5795   6.007   4.168   3.622
 1745W        W 5796   8.876   5.080   1.111
 1746W        W 5797   6.200   4.298   0.968
 1747W        W 5798   4.702   3.730  10.817
 1748W        W 5799   6.620   8.024   8.561
 1749W        W 5800   0.952   2.917   0.741
 1750W        W 5801   1.669   3.262   1.918
 1751W        W 5802  10.818   5.518   2.201
 1752W        W 5803   9.438   4.236  10.874
 1753W        W 5804   3.650   6.145   9.715
 1754W        W 5805   3.609   3.562   9.910
 1755W        W 5806   6.336   5.376  10.452
 1756W        W 5807   9.890   4.672   8.809
 1757W        W 5808  10.792   7.592   8.989
 1758W        W 5809   4.266   5.580  10.880
 1759W        W 5810   5.783  10.401   8.913
 1760W        W 5811   5.952   3.774   2.853
 1761W        W 5812   7.206  10.160   0.431
 1762W        W 5813   3.265   9.644   3.582
 1763W        W 5814  11.335   7.969   1.800
 1764W        W 5815   5.720   4.101   0.280
 1765W        W 5816   4.119   6.758   0.212
 1766W        W 5817   6.918   0.692  10.269
 1767W        W 5818  10.421  10.578   0.570
 1768W        W 5819   2.935   2.956  11.911
 1769W        W 5820  10.021   2.612  11.302
 1770W        W 5821   4.470   6.715   3.510
 1771W        W 5822   1.284   8.895   2.373
 1772W        W 5823   2.190   3.306  10.494
 1773W        W 5824   7.944   9.186   9.670
 1774W        W 5825   3.308   4.071   2.824
 1775W        W 5826  11.064   9.492   9.706
 1776W        W 5827   2.748   3.696   8.940
 1777W        W 5828   9.156   7.936   2.299
 1778W        W 5829   7.796   2.873   2.822
 1779W        W 5830   7.466   3.120  10.896
 1780W        W 5831   8.511   0.607   1.205
 1781W        W 5832   6.505   0.825  11.522
 1782W        W 5833   6.523   2.305   2.463
 1783W        W 5834   9.486   8.673  11.393
 1784W        W 5835   3.275   9.837   2.384
 1785W        W 5836   4.619   0.279   1.438
 1786W        W 5837   6.667   1.128  11.923
 1787W        W 5838   5.078   0.993   3.450
 1788W        W 5839   4.492   5.360  10.446
 1789W        W 5840   0.987   8.498   9.418
 1790W        W 5841  10.908   8.643  10.899
 1791W        W 5842   7.164   9.720   1.233
 1792W        W 5843   1.912   2.170   9.888
 1793W        W 5844   6.577   8.283   0.271
 1794W        W 5845   3.388   9.096  11.536
 1795W        W 5846   5.981   7.869  11.037
 1796W        W 5847   6.240   6.466   9.842
 1797W        W 5848   1.227   0.992   0.932
 1798W        W 5849   1.420   3.096   9.924
 1799W        W 5850   1.661   4.607   3.370
 1800W        W 5851   4.050   6.746   2.853
 1801W        W 5852   6.037   1.802   9.532
 1802W        W 5853  10.774   9.096   2.957
 1803W        W 5854   9.775   8.492   8.946
 1804W        W 5855   1.486   8.014   0.044
 1805W        W 5856   9.495   6.564   1.050
 1806W        W 5857   9.314   4.636   3.486
 1807W        W 5858   0.710   6.690  11.861
 1808W        W 5859   2.601  10.577  11.412
 1809W        W 5860   3.701   2.139   9.105
 1810W        W 5861  10.820  10.979   9.821
 1811W        W 5862  10.917   6.708   3.146
 1812W        W 5863   8.018  10.107  10.088
 1813W        W 5864   4.693  10.895   3.310
 1814W        W 5865   1.462   9.677   0.043
 1815W        W 5866   9.529   2.675   1.464
 1816W        W 5867   4.245  10.787  10.603
 1817W        W 5868   9.229   5.143  10.714
 1818W        W 5869   3.248   3.828  11.547
 1819W        W 5870   5.688   4.282  10.009
 1820W        W 5871   4.166   9.942  10.132
 1821W        W 5872   1.224   9.049   2.846
 1822W        W 5873   2.597  10.077   2.952
 1823W        W 5874   6.568   9.523   9.226
 1824W        W 5875   1.628   5.562   0.443
 1825W        W 5876   8.887   4.163   9.668
 1826W        W 5877  10.002   7.118   2.689
 1827W        W 5878   2.479   5.335   1.011
 1828W        W 5879   4.171   3.157  11.063
 1829W        W 5880   1.408   5.785   9.671
 1830W        W 5881   1.333   3.057   3.448
 1831W        W 5882   1.697   6.645  10.956
 1832W        W 5883   1.334  10.855   9.375
 1833W        W 5884   4.113   5.194  11.530
 1834W        W 5885   0.624  10.388   8.977
 1835W        W 5886   4.896   6.003   9.881
 1836W        W 5887   1.363   3.800   1.845
 1837W        W 5888   0.318   3.533   9.939
 1838W        W 5889  10.008   0.470   8.625
 1839W        W 5890   9.538   1.949   8.988
 1840W        W 5891   4.616   3.187   0.276
 1841W        W 5892   9.116   0.382   9.636
 1842W        W 5893   3.594   4.221   3.240
 1843W        W 5894   8.529   5.370  10.942
 1844W        W 5895   5.638   8.537   1.686
 1845W        W 5896  10.007   2.690   9.319
 1846W        W 5897  10.204   3.412  10.872
 1847W        W 5898   8.136   9.597   8.833
 1848W        W 5899   0.757   8.209   2.220
 1849W        W 5900   0.699   8.097   9.261
 1850W        W 5901   9.102   6.713   2.910
 1851W        W 5902   8.614  10.288   0.262
 1852W        W 5903   6.529   2.616  11.224
 1853W        W 5904   0.221   5.867   1.453
 1854W        W 5905   1.827   2.790   1.206
 1855W        W 5906   3.461   8.416   1.639
 1856W        W 5907   3.814   4.825  10.847
 1857W        W 5908   8.160   2.598   8.451
 1858W        W 5909   1.528  11.041   0.846
 1859W        W 5910   6.722   9.921   0.369
 1860W        W 5911   5.879   6.209  11.508
 1861W        W 5912   4.644  11.288   2.846
 1862W        W 5913   7.168   9.397   1.951
 1863W        W 5914  10.614  11.368  11.820
 1864W        W 5915   2.004   6.258  11.807
 1865W        W 5916   7.439   3.338   1.567
 1866W        W 5917   5.748   4.060   3.193
 1867W        W 5918   8.055  10.810   1.746
 1868W        W 5919   2.432  10.865  10.892
 1869W        W 5920  11.284   4.330   2.975
 1870W        W 5921   7.206   2.685   9.411
 1871W        W 5922   9.242   0.706   1.839
 1872W        W 5923   7.262   3.258   3.034
 1873W        W 5924   2.157   3.766   3.361
 1874W        W 5925  10.368   3.383  10.024
 1875W        W 5926   1.343   9.202   1.966
 1876W        W 5927   3.702   2.122   8.608
 1877W        W 5928  10.271   3.907   9.924
 1878W        W 5929   6.958   5.476   2.001
 1879W        W 5930   4.503   2.715   1.026
 1880W        W 5931   6.301   3.658   1.509
 1881W        W 5932   8.336  10.814   9.478
 1882W        W 5933   4.732   5.230   0.763
 1883W        W 5934   7.073   4.544   1.710
 1884W        W 5935  11.052  11.284   0.233
 1885W        W 5936   9.728   5.899  11.727
 1886W        W 5937   6.693  10.389   9.469
 1887W        W 5938   5.244  10.919   8.986
 1888W        W 5939   6.299   2.350   1.335
 1889W        W 5940   4.625   0.470   2.269
 1890W        W 5941   0.427   2.732  10.590
 1891W        W 5942  10.986   1.989   2.755
 1892W        W 5943   6.370   6.145   1.001
 1893W        W 5944   1.928  10.166   1.988
 1894W        W 5945   1.123   0.897   9.098
 1895W        W 5946   3.511   9.500   9.609
 1896W        W 5947  10.571   2.688   2.380
 1897W        W 5948   1.167   7.997   9.436
 1898W        W 5949   0.274   0.813   2.271
 1899W        W 5950   1.704   5.558   1.414
 1900W        W 5951   3.160   8.898   3.093
 1901W        W 5952  10.046   5.009  10.019
 1902W        W 5953   2.092   1.851   1.742
 1903W        W 5954   8.395   3.272  10.440
 1904W        W 5955   3.778   3.095  11.378
 1905W        W 5956   9.070   6.076   9.091
 1906W        W 5957  11.222   5.712  11.233
 1907W        W 5958   1.788   4.593   1.553
 1908W        W 5959   8.764   2.541   2.745
 1909W        W 5960  11.401  10.537  11.091
 1910W        W 5961  10.027   2.627  10.337
 1911W        W 5962   8.264   0.905  10.369
 1912W        W 5963   5.531   2.079   2.524
 1913W        W 5964   5.629   0.362   9.657
 1914W        W 5965  10.995   5.231  11.411
 1915W        W 5966  10.086   3.633   9.511
 1916W        W 5967   0.253   7.275   2.948
 1917W        W 5968   3.204  11.283   1.569
 1918W        W 5969   6.729   6.136   8.713
 1919W        W 5970   1.427   7.058   8.465
 1920W        W 5971  11.317   5.818   9.145
 1921W        W 5972  10.113   6.056   2.215
 1922W        W 5973   5.123  10.342   2.255
 1923W        W 5974   0.431   9.741   3.423
 1924W        W 5975   9.211   9.577   0.311
 1925W        W 5976   8.970  10.497   2.193
 1926W        W 5977   1.755   8.924   1.815
 1927W        W 5978   2.235   2.801  10.127
 1928W        W 5979   4.130   4.216   1.540
 1929W        W 5980   2.238   1.807   3.724
 1930W        W 5981   4.146   3.296  10.087
 1931W        W 5982   0.185   1.480   1.667
 1932W        W 5983   8.427  10.693   2.776
 1933W        W 5984   4.633   3.857   2.783
 1934W        W 5985   6.598   8.452  10.258
 1935W        W 5986   2.993  10.438  10.129
 1936W        W 5987   3.256   1.807   9.045
 1937W        W 5988   9.625  10.930   0.649
 1938W        W 5989   3.483   8.015   0.934
 1939W        W 5990   5.443   7.819   9.217
 1940W        W 5991   4.033   2.535   2.549
 1941W        W 5992   7.650  11.018   0.471
 1942W        W 5993   3.621   2.093   0.236
 1943W        W 5994   6.560   1.247   9.071
 1944W        W 5995   8.071   8.340   2.795
 1945W        W 5996   0.742   0.435   2.385
 1946W        W 5997   7.001   3.362   0.586
 1947W        W 5998   4.211   9.073   1.690
 1948W        W 5999   3.443   0.421   3.716
 1949W        W 6000   3.687   3.553   1.756
 1950W        W 6001   9.940   4.755  10.788
 1951W        W 6002   7.228   1.866   2.699
 1952W        W 6003   8.676   3.655  11.310
 1953W        W 6004  11.476   9.935   9.311
 1954W        W 6005   9.857   0.170   1.041
 1955W        W 6006   1.449   5.136   2.103
 1956W        W 6007   2.436   6.124   8.830
 1957W        W 6008   3.398   9.493   0.393
 1958W        W 6009   8.600   5.220  11.926
 1959W        W 6010   5.990   6.074  10.989
 1960W        W 6011  10.593   3.375   0.237
 1961W        W 6012   3.137  11.352  11.143
 1962W        W 6013   8.745   8.800   1.231
 1963W        W 6014   1.795   5.987   2.202
 1964W        W 6015   1.792  10.788   9.146
 1965W        W 6016  11.263   9.782  11.473
 1966W        W 6017   5.255   9.048   0.693
 1967W        W 6018  10.475  11.388  10.937
 1968W        W 6019  11.405   7.466   1.720
 1969W        W 6020  10.002   5.603   0.028
 1970W        W 6021   1.270   1.451   3.321
 1971W        W 6022   4.823   1.721  11.982
 1972W        W 6023   6.534   7.547   0.962
 1973W        W 6024   4.968   6.572   3.463
 1974W        W 6025   3.831   3.151   1.470
 1975W        W 6026   7.156   8.862  11.096
 1976W        W 6027   3.260   2.679   1.771
 1977W        W 6028   2.261   7.901   1.228
 1978W        W 6029   3.692   0.275   3.206
 1979W        W 6030   4.151  11.206  10.314
 1980W        W 6031  10.429   5.230  11.452
 1981W        W 6032   2.706   8.971   0.802
 1982W        W 6033  10.783   3.231   9.346
 1983W        W 6034   3.959   7.145   9.271
 1984W        W 6035   3.866   3.386  11.838
 1985W        W 6036  11.437   3.121   9.982
 1986W        W 6037   2.226   8.910  11.414
 1987W        W 6038   6.231  10.818  10.709
 1988W        W 6039   2.203   2.212  11.528
 1989W        W 6040   3.288   9.026  10.682
 1990W        W 6041   1.302   5.295   1.634
 1991W        W 6042   9.759   4.600  10.167
 1992W        W 6043   3.826   8.040   8.440
 1993W        W 6044   8.037  10.427   2.074
 1994W        W 6045   6.965   8.434   0.588
 1995W        W 6046   5.537   2.385   9.767
 1996W        W 6047   0.687   5.991   1.215
 1997W        W 6048   1.685   6.654  11.949
 1998W        W 6049   6.046   8.851   1.696
 1999W        W 6050   0.570   1.842   9.039
 2000W        W 6051   2.793   1.110  10.412
 2001W        W 6052   6.098   0.439   2.308
 2002W        W 6053   8.542   9.789   1.632
 2003W        W 6054  11.376   0.892  11.830
 2004W        W 6055   7.232   7.968   9.865
 2005W        W 6056   8.651  10.015  10.966
 2006W        W 6057   3.295   2.287   9.810
 2007W        W 6058   1.819   6.449   1.944
 2008W        W 6059   3.681   8.940   8.934
 2009W        W 6060   2.254   3.701  11.308
 2010W        W 6061  10.049   0.240   1.500
 2011W        W 6062   8.126   1.533  11.297
 2012W        W 6063   2.924   1.859  11.242
 2013W        W 6064   8.400   9.545   0.035
 2014W        W 6065   0.281   8.050   9.550
 2015W        W 6066   2.590   3.411   8.528
 2016W        W 6067   1.228   9.530   3.025
 2017W        W 6068  10.929   6.961  10.859
 2018W        W 6069   3.850   7.495   0.258
 2019W        W 6070   1.994   7.723   3.194
 2020W        W 6071   1.783   1.287   2.143
 2021W        W 6072   9.386   9.416  11.829
 2022W        W 6073   1.627  10.513   1.725
 2023W        W 6074   8.003  11.451   0.924
 2024W        W 6075   8.561   0.620   2.285
 2025W        W 6076   4.278   4.559  11.696
 2026W        W 6077   2.398   7.423   4.094
 2027W        W 6078   9.493   9.846   8.933
 2028W        W 6079   8.117   5.324   3.659
 2029W        W 6080   9.505  11.067  11.242
 2030W        W 6081   8.893   3.624  10.834
 2031W        W 6082   6.127   9.475   0.813
 2032W        W 6083   2.639  10.874   0.207
 2033W        W 6084  10.516   0.463   3.199
 2034W        W 6085   1.562   2.425   0.109
 2035W        W 6086  10.819   1.227   8.634
 2036W        W 6087   8.969  11.330   2.172
 2037W        W 6088   8.140   7.564   1.835
 2038W        W 6089   3.269   1.617   3.460
 2039W        W 6090   2.297   4.922   3.816
 2040W        W 6091   0.280   6.819  10.181
 2041W        W 6092  10.427   6.936   0.054
 2042W        W 6093  10.910   6.130  11.167
 2043W        W 6094   1.754   2.815   3.253
 2044W        W 6095  10.094   2.679   8.788
 2045W        W 6096   4.808  10.090   1.409
 2046W        W 6097   5.684  11.323   8.924
 2047W        W 6098   2.760   4.559   1.453
 2048W        W 6099   4.448  11.275  11.941
 2049W        W 6100   8.971   9.443  10.235
 2050W        W 6101   3.025   7.814   0.742
 2051W        W 6102   5.659   8.121   1.949
 2052W        W 6103   6.413   3.312   9.332
 2053W        W 6104   1.114   2.244   1.516
 2054W        W 6105   5.446   5.866   0.161
 2055W        W 6106   8.897   5.897  11.416
 2056W        W 6107  11.464   6.733   0.877
 2057W        W 6108   6.765  10.401   1.556
 2058W        W 6109   4.316   6.458   1.008
 2059W        W 6110  10.767   5.158   1.391
 2060W        W 6111   0.333  10.369   9.861
 2061W        W 6112   6.966   3.789   2.311
 2062W        W 6113   3.999   7.922   1.009
 2063W        W 6114   5.583   3.254   1.635
 2064W        W 6115  11.251   0.403  11.118
 2065W        W 6116   1.748  10.387   2.908
 2066W        W 6117   1.015   9.914   1.303
 2067W        W 6118  10.426   8.942  11.279
 2068W        W 6119   9.670   8.160   9.540
 2069W        W 6120   1.898   2.526  11.755
 2070W        W 6121   5.984   6.249   8.981
 2071W        W 6122   0.667   1.621   1.823
 2072W        W 6123   2.214  11.323  10.908
 2073W        W 6124   4.280  10.305   2.399
 2074W        W 6125   5.247   9.637   4.045
 2075W        W 6126   3.054   8.608   8.172
 2076W        W 6127   2.856   2.920  10.930
 2077W        W 6128   7.413   2.998  11.761
 2078W        W 6129   5.441   4.665   0.387
 2079W        W 6130   1.823   0.257   3.323
 2080W        W 6131  10.882   5.979   2.409
 2081W        W 6132   6.961   9.901  11.470
 2082W        W 6133   5.789   4.779  10.017
 2083W        W 6134  11.495   5.058   1.815
 2084W        W 6135   8.179   2.833   8.969
 2085W        W 6136   4.143   3.031   2.715
 2086W        W 6137   3.562  11.043   0.353
 2087W        W 6138   2.359   9.175   3.257
 2088W        W 6139   1.680   1.876   0.769
 2089W        W 6140   0.338   9.925  10.689
 2090W        W 6141  10.408   5.448   9.300
 2091W        W 6142  10.849   9.549  10.672
 2092W        W 6143   1.417   1.764  11.267
 2093W        W 6144   9.230   3.883   1.828
 2094W        W 6145   2.623   3.202   1.763
 2095W        W 6146   8.572   1.825   9.470
 2096W        W 6147   8.189  11.116  10.445
 2097W        W 6148   8.217   5.059   0.470
 2098W        W 6149   2.406   5.330   0.014
 2099W        W 6150   3.161   7.934   1.323
 2100W        W 6151   3.657   7.573   9.207
 2101W        W 6152   1.301   9.386   2.449
 2102W        W 6153   7.578  10.419   8.971
 2103W        W 6154   0.070   0.539   9.820
 2104W        W 6155  10.398   2.371   0.302
 2105W        W 6156  11.075   5.986  11.639
 2106W        W 6157   1.880   3.174   9.156
 2107W        W 6158  10.052   6.168   9.914
 2108W        W 6159   6.092  10.854   2.981
 2109W        W 6160   0.047   2.733   2.161
 2110W        W 6161   7.116   7.037  11.482
 2111W        W 6162   0.036   3.324  11.290
 2112W        W 6163   5.723   0.760   2.161
 2113W        W 6164   0.209   3.181  11.886
 2114W        W 6165   3.911   1.031  11.399
 2115W        W 6166   1.889   0.238  10.898
 2116W        W 6167   6.045   4.377  10.341
 2117W        W 6168   9.348   7.588   8.802
 2118W        W 6169   3.254   5.130   9.587
 2119W        W 6170   3.427   3.259   3.143
 2120W        W 6171   3.599   9.292  10.275
 2121W        W 6172  10.202   0.264   2.873
 2122W        W 6173   3.988   8.899   9.428
 2123W        W 6174   5.394   8.110   4.179
 2124W        W 6175   2.156   8.401   2.138
 2125W        W 6176  10.390   6.471   2.429
 2126W        W 6177   8.208   9.963   0.297
 2127W        W 6178  11.293   3.924   1.007
 2128W        W 6179   0.886   7.366   1.724
 2129W        W 6180  10.386   6.674   1.346
 2130W        W 6181   1.873   9.700  11.335
 2131W        W 6182   3.253   2.245  10.316
 2132W        W 6183   8.533   2.601   3.596
 2133W        W 6184   4.587   2.375   9.592
 2134W        W 6185   3.202   9.387  11.926
 2135W        W 6186   2.120   5.615   0.332
 2136W        W 6187  10.012   1.129   2.612
 2137W        W 6188   1.030   3.684   1.485
 2138W        W 6189   9.517   9.790  10.823
 2139W        W 6190   0.884   6.219  10.409
 2140W        W 6191  10.134   0.816   9.014
 2141W        W 6192   9.210   1.303   3.167
 2142W        W 6193   9.297   8.211  11.427
 2143W        W 6194   1.888   1.923   1.278
 2144W        W 6195   4.364   4.396   0.187
 2145W        W 6196   8.656   1.776   0.382
 2146W        W 6197   9.783   6.742   1.851
 2147W        W 6198   1.691   9.445   1.672
 2148W        W 6199   4.504   8.386  10.033
 2149W        W 6200   3.753   9.757   8.666
 2150W        W 6201   3.648   0.245   2.274
 2151W        W 6202   0.437   8.890   9.254
 2152W        W 6203   2.434   3.318   3.228
 2153W        W 6204   5.087   2.980   9.931
 2154W        W 6205   5.127   8.637   3.142
 2155W        W 6206   1.445   1.738  11.774
 2156W        W 6207  10.029  10.491  11.834
 2157W        W 6208   4.565   4.181   3.370
 2158W        W 6209   4.114   2.535   0.753
 2159W        W 6210   8.259   3.672   1.874
 2160W        W 6211   0.579  10.359   1.890
 2161W        W 6212   7.885   4.103   9.332
 2162W        W 6213   0.781   3.744   9.102
 2163W        W 6214   7.018   3.354  11.015
 2164W        W 6215   1.641  10.585  10.404
 2165W        W 6216   6.509   4.811   1.049
 2166W        W 6217   5.283   1.155   9.545
 2167W        W 6218   0.111   7.055   1.251
 2168W        W 6219   2.172  11.273   2.305
 2169W        W 6220   7.063   0.379   9.402
 2170W        W 6221   2.732   5.664  11.758
 2171W        W 6222   5.616   9.467   2.151
 2172W        W 6223   0.807   4.808  10.959
 2173W        W 6224   1.687   8.043  10.054
 2174W        W 6225   2.532   8.970   1.554
 2175W        W 6226   9.594   8.454   1.640
 2176W        W 6227   8.494   2.289   3.133
 2177W        W 6228   7.043   9.754   0.734
 2178W        W 6229   9.644   7.418  11.709
 2179W        W 6230  11.234   6.062   1.472
 2180W        W 6231  10.584   6.136   2.044
 2181W        W 6232   7.681   0.663   9.297
 2182W        W 6233   1.537   9.487  10.995
 2183W        W 6234   9.984   1.695   2.186
 2184W        W 6235   3.224   6.091   1.271
 2185W        W 6236   3.804   9.247  11.270
 2186W        W 6237   5.079   5.542   0.267
 2187W        W 6238   8.625   3.744  10.394
 2188W        W 6239   0.943   9.760  11.410
 2189W        W 6240   9.891   8.757   2.386
 2190W        W 6241  11.059   3.186   0.985
 2191W        W 6242   9.796   7.549   9.069
 2192W        W 6243  10.830   7.460  10.892
 2193W        W 6244   5.496   4.187   9.567
 2194W        W 6245   7.052   7.487  11.226
 2195W        W 6246   1.847   0.519   1.760
 2196W        W 6247   9.250   0.746  10.693
 2197W        W 6248   3.752   3.281   0.990
 2198W        W 6249   8.366   6.324   0.701
 2199W        W 6250   1.797   9.022   9.810
 2200W        W 6251   3.133   0.250   0.002
 2201W        W 6252   1.372   7.059   0.065
 2202W        W 6253   2.823   7.962  10.983
 2203W        W 6254  10.445  11.323   2.848
 2204W        W 6255   0.807   9.914  10.034
 2205W        W 6256   6.506  10.012   1.807
 2206W        W 6257   6.498   0.898   3.383
 2207W        W 6258   7.679   6.337   1.229
 2208W        W 6259   7.899   5.615   0.207
 2209W        W 6260   9.395   3.743  10.807
 2210W        W 6261  10.497   6.920   2.662
 2211W        W 6262   2.354   8.440   0.248
 2212W        W 6263   5.123   7.126   1.670
 2213W        W 6264   8.538  11.337  11.205
 2214W        W 6265   5.503  10.267   3.284
 2215W        W 6266  10.457   2.747  11.892
 2216W        W 6267   6.672   0.929  11.042
 2217W        W 6268  10.993   1.467   2.912
 2218W        W 6269   7.675   3.045   3.300
 2219W        W 6270   8.916   4.246  11.640
 2220W        W 6271   1.542  10.209   0.172
 2221W        W 6272  10.634   3.532   1.835
 2222W        W 6273  11.105   9.946  10.860
 2223W        W 6274   7.536   6.282  11.550
 2224W        W 6275   4.592   9.345   0.714
 2225W        W 6276  10.276  11.149   9.227
 2226W        W 6277   5.407   3.696   3.039
 2227W        W 6278   5.630   4.848   0.868
 2228W        W 6279   0.511   0.716  10.040
 2229W        W 6280   1.492   8.662   0.530
 2230W        W 6281   7.436   5.804  11.502
 2231W        W 6282   0.420   3.559  11.626
 2232W        W 6283  10.223   3.582   3.358
 2233W        W 6284   1.458   3.468   8.979
 2234W        W 6285  10.599   7.546  10.338
 2235W        W 6286  10.805   9.042   9.555
 2236W        W 6287   3.527   4.652   0.149
 2237W        W 6288  10.593  10.556   2.315
 2238W        W 6289   6.654   6.314   9.571
 2239W        W 6290   6.150   0.622   0.328
 2240W        W 6291   6.463   7.531  10.494
 2241W        W 6292   5.241   3.537   9.077
 2242W        W 6293   4.660   2.444   1.443
 2243W        W 6294   4.036   4.772   0.302
 2244W        W 6295  10.911   6.946  11.410
 2245W        W 6296   8.137   5.919   1.552
 2246W        W 6297  10.489   4.083  11.365
 2247W        W 6298   6.744   9.722  10.089
 2248W        W 6299   8.398   3.518   9.981
 2249W        W 6300   3.350   9.365   1.287
 2250W        W 6301   8.197   1.210   9.968
 2251W        W 6302   9.753   6.041  10.324
 2252W        W 6303   2.817   1.375   3.262
 2253W        W 6304   4.285   7.240   0.285
 2254W        W 6305   3.753   1.819  10.964
 2255W        W 6306   1.760   3.584   2.616
 2256W        W 6307   8.048   9.762   0.818
 2257W        W 6308  11.306   7.291  11.023
 2258W        W 6309  10.398   7.873   2.677
 2259W        W 6310   9.436   8.494  10.420
 2260W        W 6311   6.693  10.223   9.981
 2261W        W 6312   7.094   5.135  11.829
 2262W        W 6313   2.366   9.487   2.194
 2263W        W 6314   4.305   8.548   2.899
 2264W        W 6315  10.408   7.969   0.164
 2265W        W 6316   5.660   7.155   2.148
 2266W        W 6317   2.888   7.249  10.275
 2267W        W 6318   3.799   4.610   9.074
 2268W        W 6319   0.350   0.974  10.520
 2269W        W 6320  11.284   3.645   9.963
 2270W        W 6321   6.294   3.190   2.715
 2271W        W 6322   1.227   8.810  11.936
 2272W        W 6323   3.520   8.457   2.238
 2273W        W 6324   0.038  10.035  11.119
 2274W        W 6325   0.337   6.364   9.282
 2275W        W 6326   3.814  10.521   2.475
 2276W        W 6327   1.968   4.308  11.917
 2277W        W 6328   8.005   1.482   2.598
 2278W        W 6329   2.187  10.810  10.060
 2279W        W 6330   1.243  10.953  11.874
 2280W        W 6331   7.640   4.502   1.016
 2281W        W 6332   4.543   0.633   9.073
 2282W        W 6333   7.733   8.502  10.903
 2283W        W 6334   3.425   1.761  10.451
 2284W        W 6335   8.565   8.177  10.495
 2285W        W 6336   3.413   0.213   8.266
 2286W        W 6337   6.198   6.994  11.464
 2287W        W 6338   0.488   8.116   1.690
 2288W        W 6339   4.459   0.363   3.245
 2289W        W 6340   6.361   6.844   2.698
 2290W        W 6341   2.439   6.643   0.171
 2291W        W 6342   2.961   5.118  10.022
 2292W        W 6343   5.911  10.987   0.967
 2293W        W 6344   9.004   9.167   0.056
 2294W        W 6345   0.573  11.448   2.296
 2295W        W 6346   8.626   0.281   3.420
 2296W        W 6347   4.577  10.417  10.832
 2297W        W 6348   4.243   7.653   2.732
 2298W        W 6349   1.670   8.969   8.752
 2299W        W 6350   5.465   0.239   0.887
 2300W        W 6351   5.303   6.880  11.317
 2301W        W 6352  10.260   9.850   2.600
 2302W        W 6353   2.576   8.509  11.570
 2303W        W 6354  10.925   4.333  11.342
 2304W        W 6355   1.456   2.862   0.852
 2305W        W 6356   3.090  11.346   9.702
 2306W        W 6357   7.591   7.534   9.415
 2307W        W 6358   6.626   2.005   0.046
 2308W        W 6359   8.395   5.505   1.673
 2309W        W 6360   2.158  10.010  10.373
 2310W        W 6361   2.787   7.091   0.183
 2311W        W 6362   2.316   7.628   2.791
 2312W        W 6363  11.425   7.687   2.204
 2313W        W 6364   2.722   6.026   9.528
 2314W        W 6365   6.151   0.926   2.474
 2315W        W 6366   0.036   2.670   1.322
 2316W        W 6367   7.352   0.367  11.934
 2317W        W 6368   4.535  10.443   9.846
 2318W        W 6369   9.434   5.597   1.572
 2319W        W 6370   5.650   9.963   9.933
 2320W        W 6371  10.897   0.332   8.815
 2321W        W 6372   6.261   8.471   2.650
 2322W        W 6373   6.933   6.001   1.720
 2323W        W 6374   8.561   9.408   9.065
 2324W        W 6375   6.753   8.947   8.364
 2325W        W 6376   8.372  11.140   1.158
 2326W        W 6377   6.436   3.855   0.749
 2327W        W 6378   5.626   6.898   3.050
 2328W        W 6379   8.061   6.473   2.248
 2329W        W 6380   9.395   0.021   2.374
 2330W        W 6381   1.932   4.606  11.447
 2331W        W 6382   6.603   2.714   1.171
 2332W        W 6383   1.920   7.606   1.463
 2333W        W 6384   4.599   8.039  11.285
 2334W        W 6385  10.634   9.204   1.011
 2335W        W 6386   6.380   4.370  11.370
 2336W        W 6387   3.261   1.800   0.444
 2337W        W 6388   9.024   6.746   3.778
 2338W        W 6389   1.799   8.710   1.321
 2339W        W 6390   7.458   4.634   0.540
 2340W        W 6391   3.075   0.469   1.984
 2341W        W 6392   0.726   6.748   3.490
 2342W        W 6393   8.010   5.098   0.944
 2343W        W 6394   3.701   3.077  10.110
 2344W        W 6395   9.690   6.199   0.619
 2345W        W 6396   7.797   3.774   8.944
 2346W        W 6397   3.007   9.679   9.596
 2347W        W 6398   8.105  10.920   0.257
 2348W        W 6399  10.404   5.655   1.406
 2349W        W 6400   6.098   0.492   0.865
 2350W        W 6401   0.051   2.274   0.971
 2351W        W 6402   5.737   0.846   0.072
 2352W        W 6403   9.823   4.254  11.971
 2353W        W 6404   0.275   6.774   2.954
 2354W        W 6405   0.185  11.007   9.460
 2355W        W 6406   5.494   3.226  10.777
 2356W        W 6407   2.134   6.852  11.228
 2357W        W 6408   4.081   0.483   2.933
 2358W        W 6409   2.762   5.562   2.300
 2359W        W 6410  10.856   6.523   2.234
 2360W        W 6411   8.407   2.367  10.479
 2361W        W 6412   6.270   5.234   0.531
 2362W        W 6413   8.879   7.938   1.237
 2363W        W 6414  10.875   7.251  11.990
 2364W        W 6415   5.035   2.266   8.656
 2365W        W 6416   5.860   6.820   0.037
 2366W        W 6417   3.661   5.617   1.185
 2367W        W 6418   2.798  10.054   2.441
 2368W        W 6419   7.640   9.957   1.349
 2369W        W 6420   8.139   5.808   2.061
 2370W        W 6421   7.626   2.907  10.403
 2371W        W 6422   9.124   4.117   1.337
 2372W        W 6423   6.171   4.049  11.012
 2373W        W 6424   7.790   3.417   2.932
 2374W        W 6425   6.076   9.600  11.334
 2375W        W 6426  10.417   1.134  10.835
 2376W        W 6427   7.798   4.457   3.391
 2377W        W 6428   6.305   6.567   1.331
 2378W        W 6429  10.894   2.827   3.053
 2379W        W 6430   7.236   6.535  11.904
 2380W        W 6431   8.035   2.124   3.467
 2381W        W 6432   0.387   3.165  10.295
 2382W        W 6433   0.070  11.341   2.345
 2383W        W 6434   1.708   1.653   8.555
 2384W        W 6435   4.106   3.955   0.113
 2385W        W 6436   8.473   4.666   1.863
 2386W        W 6437   9.810   2.129   3.093
 2387W        W 6438   0.884   5.537   0.928
 2388W        W 6439   7.911   3.257  10.649
 2389W        W 6440   3.222   7.947   2.730
 2390W        W 6441   1.794   5.535   1.944
 2391W        W 6442   2.862  10.577   2.295
 2392W        W 6443   5.458   3.796  10.007
 2393W        W 6444   0.087   6.971   0.400
 2394W        W 6445   1.604   7.554   8.604
 2395W        W 6446   6.802   2.334   3.271
 2396W        W 6447   8.486   1.299   0.183
 2397W        W 6448   1.833   2.777   1.722
 2398W        W 6449   3.618   1.770   0.854
 2399W        W 6450   4.562  11.310   1.654
 2400W        W 6451   0.942   5.517   1.947
 2401W        W 6452   5.400   7.038   2.581
 2402W        W 6453   7.087  10.839  11.686
 2403W        W 6454  10.821   8.524  11.409
 2404W        W 6455   9.925   7.038  11.020
 2405W        W 6456   4.706   1.768  11.101
 2406W        W 6457  10.011   6.559   0.908
 2407W        W 6458   2.917   5.114   9.082
 2408W        W 6459  10.779   4.621  10.451
 2409W        W 6460   0.345   6.266  10.277
 2410W        W 6461   3.253   6.931   0.285
 2411W        W 6462   6.150   1.538   0.712
 2412W        W 6463   1.832   7.126  11.793
 2413W        W 6464   0.751   9.405   1.681
 2414W        W 6465   4.048   1.785   9.750
 2415W        W 6466   7.397  10.840  10.963
 2416W        W 6467   0.704   0.471   0.330
 2417W        W 6468  11.178   6.906   2.166
 2418W        W 6469   5.204   2.659  11.238
 2419W        W 6470   6.557  10.499  11.721
 2420W        W 6471  10.013   6.957   8.555
 2421W        W 6472   3.348   3.612   0.934
 2422W        W 6473   8.053   1.891   9.606
 2423W        W 6474   1.388   9.789   2.179
 2424W        W 6475   9.886   7.079   9.979
 2425W        W 6476   5.389   1.161   0.317
 2426W        W 6477   6.933  10.842  11.175
 2427W        W 6478   5.426   4.322  10.438
 2428W        W 6479   1.900   7.077  10.802
 2429W        W 6480   2.220   8.082   3.521
 2430W        W 6481   5.363   2.247   0.367
 2431W        W 6482   8.918  11.498   0.580
 2432W        W 6483   8.992   5.530  11.078
 2433W        W 6484   1.919   1.202   2.933
 2434W        W 6485   2.818   5.938   0.953
 2435W        W 6486   4.245   3.839   1.868
 2436W        W 6487  10.306   9.378  10.941
 2437W        W 6488  10.158   1.414   3.018
 2438W        W 6489   8.847  10.795   9.896
 2439W        W 6490  10.957   9.932   9.476
 2440W        W 6491  10.078   4.888   1.756
 2441W        W 6492   0.578   0.282   2.882
 2442W        W 6493   8.181   9.747   2.841
 2443W        W 6494   2.239   6.682  10.037
 2444W        W 6495   0.913  10.813   1.492
 2445W        W 6496   2.695   1.446  10.019
 2446W        W 6497   9.810   9.377   8.619
 2447W        W 6498   6.592   7.897   1.353
 2448W        W 6499   0.254   4.727   3.329
 2449W        W 6500   8.380   9.209  10.588
 2450W        W 6501   3.235   3.124   0.889
 2451W        W 6502  10.893  11.455  10.016
 2452W        W 6503   8.591   5.582   9.514
 2453W        W 6504  10.582   9.028  10.003
 2454W        W 6505   1.254   1.510   0.937
 2455W        W 6506   8.480  10.382   2.347
 2456W        W 6507  11.177   5.651   3.145
 2457W        W 6508   5.992   6.695  10.223
 2458W        W 6509   7.355   3.264   1.057
 2459W        W 6510   9.557   4.618   9.229
 2460W        W 6511   3.590   5.061  11.398
 2461W        W 6512   2.905  10.546   0.507
 2462W        W 6513   6.092   1.020  11.272
 2463W        W 6514   5.628   8.805   3.222
 2464W        W 6515   2.712   0.522   0.710
 2465W        W 6516   8.469   7.629   1.438
 2466W        W 6517   3.164   4.253   1.725
 2467W        W 6518   0.082   0.419   3.001
 2468W        W 6519   8.318   5.542   4.064
 2469W        W 6520   1.653   9.360   2.800
 2470W        W 6521  10.702   1.248   0.129
 2471W        W 6522   6.661   5.289   0.879
 2472W        W 6523   2.207   9.499   9.681
 2473W        W 6524   1.319   6.163   2.995
 2474W        W 6525   1.889   4.632   2.915
 2475W        W 6526   8.916   5.889   9.787
 2476W        W 6527   2.221   6.661   2.631
 2477W        W 6528  11.056   8.701   3.204
 2478W        W 6529   8.495   4.133  11.361
 2479W        W 6530   3.106   5.063   2.970
 2480W        W 6531   3.669   9.820  10.292
 2481W        W 6532   7.834   0.306  11.761
 2482W        W 6533   6.187  10.770   9.425
 2483W        W 6534  10.558   8.194   2.245
 2484W        W 6535   5.251  11.395   2.170
 2485W        W 6536   0.532   5.028   0.247
 2486W        W 6537   3.344   4.222  11.867
 2487W        W 6538   3.899   1.742  10.286
 2488W        W 6539   3.650   0.244   0.865
 2489W        W 6540   3.288   9.780   0.851
 2490W        W 6541   7.512   8.891   9.728
 2491W        W 6542   5.213   8.775   1.154
 2492W        W 6543   2.300  11.465   2.782
 2493W        W 6544   9.044   3.078   2.289
 2494W        W 6545   1.400   0.782   1.392
 2495W        W 6546  10.783   0.000  11.339
 2496W        W 6547   8.006   1.744   3.048
 2497W        W 6548  11.283  11.276   9.235
 2498W        W 6549   9.926   5.209   0.353
 2499W        W 6550   5.506   5.355   0.026
 2500W        W 6551   3.119   9.132   9.703
 2501W        W 6552   3.628   4.900   2.264
 2502W        W 6553   1.781   7.656   9.123
 2503W        W 6554   9.365   8.430   9.898
 2504W        W 6555   9.006   6.350   0.118
 2505W        W 6556  10.566   9.078   1.898
 2506W        W 6557   3.243  11.418   0.555
 2507W        W 6558   1.121   9.367   1.308
 2508W        W 6559   5.155   0.454   3.431
 2509W        W 6560   7.056  10.848   2.625
 2510W        W 6561   2.081   7.230   3.296
 2511W        W 6562   1.737   5.082   3.151
 2512W        W 6563   5.701   5.643  10.051
 2513W        W 6564   0.038   3.576   2.115
 2514W        W 6565   0.900   7.174  11.879
 2515W        W 6566   9.683   7.999  11.035
 2516W        W 6567   1.344   3.604  11.226
 2517W        W 6568   8.254  10.867   2.343
 2518W        W 6569   1.773   4.711  10.569
 2519W        W 6570   9.768   5.714   1.993
 2520W        W 6571   3.482   8.085   9.341
 2521W        W 6572   2.562   4.083   3.122
 2522W        W 6573   6.300   1.158   9.992
 2523W        W 6574   5.539   3.782   2.562
 2524W        W 6575   3.089   8.582  11.453
 2525W        W 6576   9.508   5.713   1.086
 2526W        W 6577   8.382   4.194   9.502
 2527W        W 6578   2.281   0.275   0.016
 2528W        W 6579   6.513   3.987   3.674
 2529W        W 6580   4.666   9.721   1.042
 2530W        W 6581   2.749   6.214   1.395
 2531W        W 6582  11.032   6.460  10.745
 2532W        W 6583   1.665   4.101   0.319
 2533W        W 6584   2.924   0.294  10.711
 2534W        W 6585  10.355   9.533   1.839
 2535W        W 6586   2.723   7.553  11.297
 2536W        W 6587   0.402   3.077   1.420
 2537W        W 6588   4.597  10.394   3.201
 2538W        W 6589   0.066   9.547  10.921
 2539W        W 6590   5.592   6.288   1.769
 2540W        W 6591   6.236   8.056   9.548
 2541W        W 6592   2.634   5.118  11.255
 2542W        W 6593   6.127   1.964  11.353
 2543W        W 6594   1.260   4.091  11.998
 2544W        W 6595   6.590   7.636   1.842
 2545W        W 6596   3.632   9.404   3.842
 2546W        W 6597   0.753   7.238   9.000
 2547W        W 6598   7.557   2.274   2.191
 2548W        W 6599  11.339   6.999   3.089
 2549W        W 6600   7.083  10.513   9.828
 2550W        W 6601   8.910   9.190  10.698
 2551W        W 6602  10.341   2.812   0.871
 2552W        W 6603   8.752   6.823  11.878
 2553W        W 6604  11.117   8.992   1.014
 2554W        W 6605  10.337   0.884   9.823
 2555W        W 6606  10.376   3.663   0.647
 2556W        W 6607   1.895   5.858   9.846
 2557W        W 6608   9.867  10.542   2.646
 2558W        W 6609   9.792   0.898  11.896
 2559W        W 6610  10.932   3.512  10.843
 2560W        W 6611   8.867   5.611   9.083
 2561W        W 6612   5.710   3.590   3.435
 2562W        W 6613   3.380   9.867   8.121
 2563W        W 6614   7.534   9.207   0.269
 2564W        W 6615  10.235   5.323   3.937
 2565W        W 6616   0.185   5.645   3.243
 2566W        W 6617   1.682   5.101  11.506
 2567W        W 6618  10.288   8.033  11.461
 2568W        W 6619   6.805   7.192   3.567
 2569W        W 6620   9.646   5.059  10.351
 2570W        W 6621   0.232   1.931   0.344
 2571W        W 6622   7.058   9.473   0.300
 2572W        W 6623   3.037   4.660   9.636
 2573W        W 6624   6.295   4.646   9.970
 2574W        W 6625   4.776   0.483   9.496
 2575W        W 6626   4.897   4.375  10.397
 2576W        W 6627   7.036   1.858   3.216
 2577W        W 6628   8.938   6.331   9.542
 2578W        W 6629   9.831   9.592   2.626
 2579W        W 6630   4.627   8.374  10.522
 2580W        W 6631   4.823   5.689   1.576
 2581W        W 6632   2.304   2.079   9.575
 2582W        W 6633  11.268   5.334   8.953
 2583W        W 6634   6.433   2.692   2.140
 2584W        W 6635   9.396   8.470   0.736
 2585W        W 6636  10.334   3.154   3.693
 2586W        W 6637   2.861   2.476  10.023
 2587W        W 6638  10.424   3.697   2.891
 2588W        W 6639   3.587   7.567  10.252
 2589W        W 6640   1.682   8.392  10.483
 2590W        W 6641   5.032   3.492   0.937
 2591W        W 6642   0.969   2.699   1.713
 2592W        W 6643   3.797  10.901   9.516
 2593W        W 6644  11.395   2.195   3.428
 2594W        W 6645   8.940   5.092   9.774
 2595W        W 6646   0.025   5.600   3.750
 2596W        W 6647   7.409   6.408   0.775
 2597W        W 6648   1.348   0.926   3.463
 2598W        W 6649   3.166   0.235   2.458
 2599W        W 6650   2.723   6.901   9.906
 2600W        W 6651   8.037   3.821  11.058
 2601W        W 6652   9.689   5.206   2.520
 2602W        W 6653   7.239  10.043   8.938
 2603W        W 6654   2.303   5.730   9.590
 2604W        W 6655   3.635   1.707   9.395
 2605W        W 6656  10.973   4.716   9.337
 2606W        W 6657   8.667  11.165   3.486
 2607W        W 6658   3.875   9.285   1.349
 2608W        W 6659   8.030   9.201  10.182
 2609W        W 6660   0.926   5.330   9.102
 2610W        W 6661   0.358   7.667   1.928
 2611W        W 6662   1.698  11.334   2.491
 2612W        W 6663   9.313  10.401   1.382
 2613W        W 6664   0.876   4.812   9.100
 2614W        W 6665   3.310  10.333   0.844
 2615W        W 6666   7.006   2.282   9.146
 2616W        W 6667   9.494   1.510  10.316
 2617W        W 6668   3.790   5.073   1.255
 2618W        W 6669  10.290   7.940  10.263
 2619W        W 6670  10.986   9.349   2.057
 2620W        W 6671   1.881   0.481   0.728
 2621W        W 6672   2.806   9.887  11.890
 2622W        W 6673   0.565   3.243   2.805
 2623W        W 6674   3.890   5.605   1.639
 2624W        W 6675   9.246  10.639  11.711
 2625W        W 6676   2.174   1.733   0.891
 2626W        W 6677   2.241   6.174   2.458
 2627W        W 6678  10.959   7.556   3.477
 2628W        W 6679   7.256   5.694  10.718
 2629W        W 6680   2.741   9.173   2.931
 2630W        W 6681   1.366   5.475  11.077
 2631W        W 6682   5.723   0.706   8.914
 2632W        W 6683   0.376  10.973   2.081
 2633W        W 6684   9.594  10.565   9.395
 2634W        W 6685  10.321   2.220   1.621
 2635W        W 6686   3.133   1.607   0.923
 2636W        W 6687   4.559   3.682   9.952
 2637W        W 6688   7.907   7.142   1.703
 2638W        W 6689   2.082   4.222   8.886
 2639W        W 6690   0.403   4.791  10.287
 2640W        W 6691  10.767   8.649   0.922
 2641W        W 6692   5.405   2.840   1.916
 2642W        W 6693   3.153   7.558  11.023
 2643W        W 6694   5.590   4.102   1.231
 2644W        W 6695   4.588  11.352  10.611
 2645W        W 6696   0.959   9.796  11.958
 2646W        W 6697   3.912  10.596   1.577
 2647W        W 6698   5.082  10.370  10.934
 2648W        W 6699   4.173  10.591   3.486
 2649W        W 6700   4.656   4.249  10.846
 2650W        W 6701  10.829   1.153   2.119
 2651W        W 6702   2.482   7.555   3.281
 2652W        W 6703  10.464  10.451   9.154
 2653W        W 6704   4.647   8.896   1.425
 2654W        W 6705   4.581   3.939   1.487
 2655W        W 6706   7.737   3.978   2.781
 2656W        W 6707   6.947   3.885   0.746
 2657W        W 6708   4.270   3.231   2.280
 2658W        W 6709   5.787   7.046   0.704
 2659W        W 6710   9.412  10.494   0.513
 2660W        W 6711   9.590   0.977   0.863
 2661W        W 6712  10.351   8.321  10.591
 2662W        W 6713   0.443   6.934  11.225
 2663W        W 6714   7.912   1.661  10.051
 2664W        W 6715   8.464   5.037   8.597
 2665W        W 6716   9.898   7.595   9.918
 2666W        W 6717   1.460  10.438   3.324
 2667W        W 6718   0.831   0.992  10.353
 2668W        W 6719  10.458  11.470   3.336
 2669W        W 6720   6.248   9.959  10.031
 2670W        W 6721   9.196   8.863   1.011
 2671W        W 6722   9.808  10.355   1.258
 2672W        W 6723   6.108   2.932  11.270
 2673W        W 6724   8.903   1.018  10.975
 2674W        W 6725  11.226   0.255   2.243
 2675W        W 6726   2.742   5.062   2.639
 2676W        W 6727   8.445  11.216   2.720
 2677W        W 6728   3.079  10.947   1.951
 2678W        W 6729   1.450   3.287   9.456
 2679W        W 6730   9.510   3.667  11.648
 2680W        W 6731   9.807   2.149  10.492
 2681W        W 6732   7.302   8.927   2.188
 2682W        W 6733   7.567  11.206   8.960
 2683W        W 6734   5.795   7.783   3.257
 2684W        W 6735   7.957   0.499  10.456
 2685W        W 6736   6.979   0.468   2.262
 2686W        W 6737   1.065   9.289  11.910
 2687W        W 6738   4.754   0.967  11.466
 2688W        W 6739   7.440   0.067   2.662
 2689W        W 6740   7.009   6.701   0.836
 2690W        W 6741   6.256   7.351   2.746
 2691W        W 6742   6.621   2.692   0.654
 2692W        W 6743   6.781   3.078   2.874
 2693W        W 6744   7.229   8.947   2.695
 2694W        W 6745   6.600   8.412   1.367
 2695W        W 6746   4.840   2.879   8.704
 2696W        W 6747   8.482   6.049   0.230
 2697W        W 6748   3.833   9.873  10.776
 2698W        W 6749  10.392   1.614   1.394
 2699W        W 6750   2.373   6.078  10.482
 2700W        W 6751   0.338   4.551   8.895
 2701W        W 6752   8.421   7.153  11.690
 2702W        W 6753   1.476  10.038   1.760
 2703W        W 6754   5.675   1.457   9.419
 2704W        W 6755   3.956   0.792   9.515
 2705W        W 6756   9.775  11.311   1.395
 2706W        W 6757  10.524   2.686   9.582
 2707W        W 6758   8.110   0.472   0.894
 2708W        W 6759   8.644   3.122   3.574
 2709W        W 6760   9.937   2.365   1.285
 2710W        W 6761   7.640   9.832  10.295
 2711W        W 6762   3.341   0.715   2.333
 2712W        W 6763   6.170   1.734   1.745
 2713W        W 6764   3.381   7.843   3.201
 2714W        W 6765   5.034   9.159  10.229
 2715W        W 6766   2.413   5.169   9.021
 2716W        W 6767   7.785   5.496   4.001
 2717W        W 6768   4.098   5.753  10.444
 2718W        W 6769   2.225   4.655  10.823
 2719W        W 6770   0.694  10.250   9.510
 2720W        W 6771   8.137   6.826   9.058
 2721W        W 6772   6.054   9.628   9.166
 2722W        W 6773   5.905   3.888  10.274
 2723W        W 6774   8.998   8.203   2.690
 2724W        W 6775   0.205   6.070   2.631
 2725W        W 6776  11.190   8.823  10.459
 2726W        W 6777   5.420   0.390   1.817
 2727W        W 6778   0.411   7.828  10.466
 2728W        W 6779  11.125   9.632   3.608
 2729W        W 6780   0.389   3.884   1.850
 2730W        W 6781  11.372   9.893   9.806
 2731W        W 6782   0.727   5.517   1.456
 2732W        W 6783   0.480   8.508   9.589
 2733W        W 6784   0.620   1.919  10.686
 2734W        W 6785   7.185  10.073  10.088
 2735W        W 6786   4.536   5.800  10.179
 2736W        W 6787   7.837  10.922  10.150
 2737W        W 6788  10.074   6.544   3.314
 2738W        W 6789   7.404   0.846   1.065
 2739W        W 6790   5.619   5.193   9.734
 2740W        W 6791   9.901   3.828   2.596
 2741W        W 6792   5.562   8.431  10.496
 2742W        W 6793   8.448  10.265   1.823
 2743W        W 6794   5.218   4.944  11.135
 2744W        W 6795  10.915   8.147   9.022
 2745W        W 6796   7.508   3.482  11.893
 2746W        W 6797   7.134   5.131  10.855
 2747W        W 6798  11.347  10.288  11.536
 2748W        W 6799   0.977   1.189   1.890
 2749W        W 6800   2.222   6.480  10.885
 2750W        W 6801   5.147   4.124  10.807
 2751W        W 6802   8.916   2.294  10.476
 2752W        W 6803   2.889   7.166   2.231
 2753W        W 6804   7.829   3.084   0.101
 2754W        W 6805   8.034  11.393   0.420
 2755W        W 6806   7.542   1.219   9.433
 2756W        W 6807   4.308   8.285   2.061
 2757W        W 6808   2.627   6.719   1.379
 2758W        W 6809   6.462   3.183   1.356
 2759W        W 6810   2.359   4.684   8.858
 2760W        W 6811   7.121   9.903   0.012
 2761W        W 6812  11.081   5.727   0.700
 2762W        W 6813   5.969  10.076   1.787
 2763W        W 6814   9.677   7.923   2.281
 2764W        W 6815   5.282   4.727  10.160
 2765W        W 6816   9.998   1.315   9.043
 2766W        W 6817   5.592   0.356  11.996
 2767W        W 6818   4.823  10.369   0.326
 2768W        W 6819   7.701   8.122   1.090
 2769W        W 6820   2.243   6.139   0.330
 2770W        W 6821   2.832   9.039   1.952
 2771W        W 6822   2.282   0.425   1.496
 2772W        W 6823   2.110   4.673   2.405
 2773W        W 6824   4.041   2.028  11.879
 2774W        W 6825  10.562   1.215   2.762
 2775W        W 6826  10.258   5.048   9.006
 2776W        W 6827   7.755   4.484   2.874
 2777W        W 6828   2.126   5.065  11.210
 2778W        W 6829   3.967  10.701   0.370
 2779W        W 6830   8.687   7.804   3.209
 2780W        W 6831   2.918   9.610   1.193
 2781W        W 6832   5.719   1.212   2.461
 2782W        W 6833   7.791   4.712   8.597
 2783W        W 6834   2.535   4.248   9.488
 2784W        W 6835   6.970   7.517   0.696
 2785W        W 6836  10.287   4.582   0.896
 2786W        W 6837  10.382   8.686   2.255
 2787W        W 6838   4.612   2.748  11.873
 2788W        W 6839   6.590   2.133  10.238
 2789W        W 6840   8.325   3.170  11.970
 2790W        W 6841   8.239  10.498   8.896
 2791W        W 6842   5.787   9.874  10.897
 2792W        W 6843   8.724   8.759   0.105
 2793W        W 6844   5.331   2.307   1.703
 2794W        W 6845   8.560   4.650   1.369
 2795W        W 6846   5.519   8.999   2.361
 2796W        W 6847   5.902   1.150  10.792
 2797W        W 6848   9.750   4.477  11.199
 2798W        W 6849   6.521   0.604   2.746
 2799W        W 6850   2.897   3.257   1.272
 2800W        W 6851   7.204   9.334   3.409
 2801W        W 6852   3.232   6.241  10.248
 2802W        W 6853   5.084   6.459   1.799
 2803W        W 6854   4.456   7.963   9.347
 2804W        W 6855   5.744   7.463   9.456
 2805W        W 6856   9.390   3.368   9.771
 2806W        W 6857   9.534   1.310  11.302
 2807W        W 6858   3.769   4.597   2.640
 2808W        W 6859   5.491   3.687  10.523
 2809W        W 6860  10.083   7.690  11.827
 2810W        W 6861   0.804   6.886   1.758
 2811W        W 6862   0.412   7.898   0.754
 2812W        W 6863   5.667   0.810  11.512
 2813W        W 6864  10.786   8.092  10.293
 2814W        W 6865   9.874   0.215   2.205
 2815W        W 6866   9.840  11.341   9.032
 2816W        W 6867   8.562   9.344   1.904
 2817W        W 6868   7.256   1.960   8.839
 2818W        W 6869   4.709   9.141   8.924
 2819W        W 6870  10.085   4.681   9.331
 2820W        W 6871   1.284   4.151   1.482
 2821W        W 6872   7.149   0.453   3.400
 2822W        W 6873   2.411   0.990   2.179
 2823W        W 6874   1.395  11.347   3.376
 2824W        W 6875   2.962   7.052   8.109
 2825W        W 6876   8.446   0.221   9.012
 2826W        W 6877   0.672   5.782   9.104
 2827W        W 6878  10.008   9.821   8.831
 2828W        W 6879   6.609   1.291   2.444
 2829W        W 6880   4.575   1.789   9.040
 2830W        W 6881   0.317  11.258  11.593
 2831W        W 6882   8.996   6.833   0.332
 2832W        W 6883   6.080   8.967   0.809
 2833W        W 6884  10.679   7.015   2.201
 2834W        W 6885   8.913  10.047   1.927
 2835W        W 6886   3.736   0.635  11.116
 2836W        W 6887   7.850   1.656  11.992
 2837W        W 6888   3.139   1.158   2.493
 2838W        W 6889  11.319   1.279   8.795
 2839W        W 6890  10.236   6.097   2.733
 2840W        W 6891   0.442   3.572  11.121
 2841W        W 6892   8.481  10.185   4.098
 2842W        W 6893   5.205  10.543   1.762
 2843W        W 6894   6.592  10.974  11.526
 2844W        W 6895  11.012   6.846   2.651
 2845W        W 6896   7.492  10.520  11.819
 2846W        W 6897   5.673   6.138   9.392
 2847W        W 6898   1.809   6.014   2.727
 2848W        W 6899   2.390   7.068   2.324
 2849W        W 6900   0.249   9.942  11.596
 2850W        W 6901   2.209   3.826   2.845
 2851W        W 6902   0.027   8.522   3.277
 2852W        W 6903   7.166   6.424   9.622
 2853W        W 6904  10.504  10.533  11.539
 2854W        W 6905   1.076   7.413   2.227
 2855W        W 6906   3.943   3.607   2.199
 2856W        W 6907   8.956   6.337  10.506
 2857W        W 6908   6.592   8.547  11.698
 2858W        W 6909  10.404   1.949   2.344
 2859W        W 6910   1.294   3.359  10.340
 2860W        W 6911   6.192   7.050   2.244
 2861W        W 6912   4.490   3.929   9.510
 2862W        W 6913   0.859  10.769   2.027
 2863W        W 6914   0.408   8.833   0.438
 2864W        W 6915   3.729   2.205  10.109
 2865W        W 6916   7.090   0.336   9.944
 2866W        W 6917  11.055   3.823   1.939
 2867W        W 6918   7.142   0.398  10.988
 2868W        W 6919   7.530   6.702   3.833
 2869W        W 6920   9.617   7.823   0.029
 2870W        W 6921   5.037   8.226  11.115
 2871W        W 6922   4.865   7.929   2.550
 2872W        W 6923   1.582   6.022   8.560
 2873W        W 6924   6.162   9.672   2.035
 2874W        W 6925   1.741   4.161   1.832
 2875W        W 6926   1.042   7.414   8.564
 2876W        W 6927   5.394  10.436   0.372
 2877W        W 6928   0.465   9.909   0.063
 2878W        W 6929   8.302   8.539  11.933
 2879W        W 6930   8.692   5.630   3.115
 2880W        W 6931   5.575   4.709  11.450
 2881W        W 6932   0.775   1.859   0.430
 2882W        W 6933  10.187   4.232   0.350
 2883W        W 6934   6.631   1.921   0.541
 2884W        W 6935   5.312   7.421  11.418
 2885W        W 6936   5.445   9.103   9.422
 2886W        W 6937   5.545   0.772   3.304
 2887W        W 6938  10.315   4.104   2.573
 2888W        W 6939   2.083   8.795  10.937
 2889W        W 6940   6.276   7.059   1.473
 2890W        W 6941   4.763   3.830   3.673
 2891W        W 6942   5.907   2.369   2.698
 2892W        W 6943   9.340   3.779   9.033
 2893W        W 6944   1.705   4.672   2.041
 2894W        W 6945   4.776   2.237   9.142
 2895W        W 6946   2.175   6.630   1.141
 2896W        W 6947   0.008   7.561  10.636
 2897W        W 6948   3.963   9.307   2.896
 2898W        W 6949   1.970   4.155   2.315
 2899W        W 6950   5.227   2.322   4.051
 2900W        W 6951  10.076   2.230  10.039
 2901W        W 6952   3.467  10.258   2.151
 2902W        W 6953   3.817  10.753   3.150
 2903W        W 6954   7.072   9.163  10.558
 2904W        W 6955   7.919   2.783   2.279
 2905W        W 6956   7.141   3.768  10.744
 2906W        W 6957  10.876   2.600   0.232
 2907W        W 6958   7.193   9.592  10.323
 2908W        W 6959   2.265   9.975   2.338
 2909W        W 6960   4.085   6.473   2.038
 2910W        W 6961   7.595   4.714   1.873
 2911W        W 6962   0.336   1.387   8.967
 2912W        W 6963   0.879   3.763   2.017
 2913W        W 6964  11.299   6.296   2.350
 2914W        W 6965   6.772   8.955   2.206
 2915W        W 6966   2.117   0.722  10.877
 2916W        W 6967   2.870   4.676   8.717
 2917W        W 6968  11.004  10.517   9.852
 2918W        W 6969   7.583   3.624   9.927
 2919W        W 6970   0.723   3.046  11.870
 2920W        W 6971   7.548  10.269   3.222
 2921W        W 6972   4.187   3.320   1.786
 2922W        W 6973  10.809   9.542  10.160
 2923W        W 6974   9.542   8.392   3.151
 2924W        W 6975  10.992   4.524   8.853
 2925W        W 6976   8.370   9.350   0.821
 2926W        W 6977   0.973   0.133   9.684
 2927W        W 6978   9.036   4.822   0.194
 2928W        W 6979   6.645   3.902   1.212
 2929W        W 6980   5.174   5.967   1.902
 2930W        W 6981   0.954   3.094   3.134
 2931W        W 6982  10.514   5.257   8.362
 2932W        W 6983   0.986   7.954   0.095
 2933W        W 6984   7.576   3.625  10.964
 2934W        W 6985  11.238   0.266  10.580
 2935W        W 6986   1.934   8.382   2.654
 2936W        W 6987   1.803   3.695   1.590
 2937W        W 6988   8.328   4.768   0.016
 2938W        W 6989   4.749  11.194  11.115
 2939W        W 6990   0.904   3.168   1.488
 2940W        W 6991   7.273   9.997   2.725
 2941W        W 6992   6.792   4.074  11.454
 2942W        W 6993   3.295   2.782   9.641
 2943W        W 6994   1.132   1.913  10.853
 2944W        W 6995   0.647   9.300   9.509
 2945W        W 6996   1.849   8.303   0.348
 2946W        W 6997   7.403   4.834   1.411
 2947W        W 6998   5.405   7.035  11.800
 2948W        W 6999   4.652   3.467   1.295
 2949W        W 7000   0.752   5.145  10.433
 2950W        W 7001   9.897   3.162   3.375
 2951W        W 7002   1.653   8.118   9.370
 2952W        W 7003   3.072   4.752   3.365
 2953W        W 7004   9.818   1.950   0.778
 2954W        W 7005   0.721  10.122   0.899
 2955W        W 7006   2.783   8.389   9.667
 2956W        W 7007   3.722   7.968   9.940
 2957W        W 7008   8.688   3.037   2.677
 2958W        W 7009  10.541   8.248   9.889
 2959W        W 7010   0.252   1.770   3.383
 2960W        W 7011   1.705   9.995   9.774
 2961W        W 7012   2.771   4.728   3.779
 2962W        W 7013   9.883   9.867   9.908
 2963W        W 7014   0.023   0.205   1.381
 2964W        W 7015   6.634   4.537   2.006
 2965W        W 7016   1.722  11.494  11.535
 2966W        W 7017   5.024   4.399   9.522
 2967W        W 7018   5.212   9.017   3.495
 2968W        W 7019   8.142   3.046   3.627
 2969W        W 7020   7.646   6.586   8.982
 2970W        W 7021   7.123   7.465   2.598
 2971W        W 7022  10.322  10.337   2.696
 2972W        W 7023   7.141   4.186  11.011
 2973W        W 7024   9.762   3.673   3.545
 2974W        W 7025   2.745   0.722   1.673
 2975W        W 7026   8.640   8.926   0.759
 2976W        W 7027   5.015   3.143   1.857
 2977W        W 7028   3.172   0.729   1.252
 2978W        W 7029   4.818  10.695  11.203
 2979W        W 7030   2.397   5.337   4.131
 2980W        W 7031   7.106   0.484   0.786
 2981W        W 7032   2.800   6.125  11.485
 2982W        W 7033   2.132   0.751  10.003
 2983W        W 7034   1.849   9.982   8.874
 2984W        W 7035  10.751   8.593  10.377
 2985W        W 7036   0.604   4.971   8.432
 2986W        W 7037   4.156   2.638   9.517
 2987W        W 7038   7.151   6.393   3.993
 2988W        W 7039   7.493   9.061   1.738
 2989W        W 7040   3.211   6.592  10.736
 2990W        W 7041   0.965   4.384  11.231
 2991W        W 7042   2.271   3.763  10.276
 2992W        W 7043  11.355  10.937   3.260
 2993W        W 7044   9.662  10.799   3.037
 2994W        W 7045   5.967   0.931  10.320
 2995W        W 7046   1.248   7.688   0.839
 2996W        W 7047   7.078   7.049   1.541
 2997W        W 7048  10.782   5.994  10.329
 2998W        W 7049   8.674   0.476   9.400
 2999W        W 7050   4.744   4.743  10.981
 3000W        W 7051   9.650   3.594   1.676
 3001W        W 7052   9.395   6.453   2.087
 3002W        W 7053   5.773   9.910   2.375
 3003W        W 7054   8.503   7.866  10.996
 3004W        W 7055   4.676   3.614   0.546
 3005W        W 7056   3.721   3.526  10.427
 3006W        W 7057   9.144   2.807  10.382
 3007W        W 7058   4.267   7.784   0.406
 3008W        W 7059   0.702   1.616   9.493
 3009W        W 7060  10.469   0.456   0.581
 3010W        W 7061   0.259   5.854   9.413
 3011W        W 7062   1.096   8.190   8.941
 3012W        W 7063   9.049   1.732  11.407
 3013W        W 7064   8.906   9.134   1.566
 3014W        W 7065   4.584   0.232   0.900
 3015W        W 7066   1.365   3.652   0.218
 3016W        W 7067   9.235   5.644   3.254
 3017W        W 7068   8.366   8.950   9.840
 3018W        W 7069   4.045   7.440   0.750
 3019W        W 7070   9.051   2.254   1.174
 3020W        W 7071   8.425   4.314   2.216
 3021W        W 7072   5.983  10.464   0.646
 3022W        W 7073  11.291   1.808   1.645
 3023W        W 7074   7.149   4.810   2.138
 3024W        W 7075   2.110   4.291   3.203
 3025W        W 7076   3.248  10.836  10.383
 3026W        W 7077   0.840   5.331  11.370
 3027W        W 7078   5.573   2.827  10.002
 3028W        W 7079   1.702   1.643   3.111
 3029W        W 7080   4.476   7.670   1.005
 3030W        W 7081   1.756   6.040   9.386
 3031W        W 7082   4.219   7.560  11.887
 3032W        W 7083  11.081   9.179   3.370
 3033W        W 7084   4.015   6.681  10.373
 3034W        W 7085   6.146   7.851   2.714
 3035W        W 7086   5.444   1.943   8.589
 3036W        W 7087   0.574   3.399   1.812
 3037W        W 7088   3.528   1.249   3.238
 3038W        W 7089  11.040   1.073   2.581
 3039W        W 7090   4.728   8.170   0.312
 3040W        W 7091   7.456   4.041   9.668
 3041W        W 7092   7.056   6.744   3.597
 3042W        W 7093   8.681   6.496   3.108
 3043W        W 7094   5.903   5.993   0.342
 3044W        W 7095  10.485  10.776   1.871
 3045W        W 7096   4.844   1.979  11.538
 3046W        W 7097   1.485  10.336   9.056
 3047W        W 7098   8.026   3.262   1.596
 3048W        W 7099   6.341  10.772   2.322
 3049W        W 7100   5.462   8.326   9.073
 3050W        W 7101   3.271   9.598   4.154
 3051W        W 7102   2.119   5.644   3.836
 3052W        W 7103   3.938  11.017   1.237
 3053W        W 7104   7.057   3.238   0.079
 3054W        W 7105   7.859   0.790  10.063
 3055W        W 7106  10.091  10.318   8.633
 3056W        W 7107  11.463   4.149   2.045
 3057W        W 7108   9.979   3.414   2.913
 3058W        W 7109   6.737   7.334  11.921
 3059W        W 7110   2.583   0.861   9.007
 3060W        W 7111   2.569   9.623   2.661
 3061W        W 7112   0.876   6.813   2.745
 3062W        W 7113   1.410   1.236  11.949
 3063W        W 7114  11.361   1.309  11.518
 3064W        W 7115   2.053   4.862   9.836
 3065W        W 7116   3.239   5.056   8.685
 3066W        W 7117   5.067   3.900  10.346
 3067W        W 7118   1.149   1.239   1.391
 3068W        W 7119   9.978   2.234   9.037
 3069W        W 7120   7.468   4.997   9.683
 3070W        W 7121   8.977   9.128   2.941
 3071W        W 7122   2.207   9.995   9.852
 3072W        W 7123   4.518  11.098   2.121
 3073W        W 7124   6.691   7.787   0.142
 3074W        W 7125   1.726   8.681  11.421
 3075W        W 7126   8.562  10.761   1.956
 3076W        W 7127   9.973   1.471   1.672
 3077W        W 7128   7.871   3.660   2.390
 3078W        W 7129  10.937   3.094  11.988
 3079W        W 7130   1.590   7.407   3.445
 3080W        W 7131   7.583   6.564   2.483
 3081W        W 7132   9.596   6.580   3.082
 3082W        W 7133   8.395   0.649   1.710
 3083W        W 7134   8.315   0.148  10.457
 3084W        W 7135  11.407   8.033   8.752
 3085W        W 7136   3.060   7.002   2.875
 3086W        W 7137   9.930   0.869   3.041
 3087W        W 7138   2.100   1.277  10.054
 3088W        W 7139   1.620   4.525   2.515
 3089W        W 7140   3.711   9.956   9.799
 3090W        W 7141   0.699  10.577   0.613
 3091W        W 7142   5.184  11.045   3.478
 3092W        W 7143   0.047   8.347   1.547
 3093W        W 7144   7.994   1.979   1.219
 3094W        W 7145   1.188   3.198   0.054
 3095W        W 7146   7.546  11.480   0.652
 3096W        W 7147  11.207   2.233   1.358
 3097W        W 7148   6.789   8.611  10.731
 3098W        W 7149   3.807   3.730   0.742
 3099W        W 7150   8.679   1.392   9.206
 3100W        W 7151  10.854   5.081   3.156
 3101W        W 7152   9.387   8.406  10.962
 3102W        W 7153   4.643   1.751   2.800
 3103W        W 7154   6.287   7.256   3.588
 3104W        W 7155   5.928   6.170   2.191
 3105W        W 7156   0.326   8.731   8.735
 3106W        W 7157   2.933  10.905  10.808
 3107W        W 7158   6.850   2.362   0.339
 3108W        W 7159  11.236   0.752   3.731
 3109W        W 7160   4.074   7.068  11.715
 3110W        W 7161   9.729   1.421  11.991
 3111W        W 7162   1.482   7.787   3.110
 3112W        W 7163   3.838   2.776  10.886
 3113W        W 7164   3.281   4.741   9.103
 3114W        W 7165   2.210  10.576   2.964
 3115W        W 7166   5.515   3.578   3.912
 3116W        W 7167   9.454   3.345   9.265
 3117W        W 7168   6.215  10.714   8.912
 3118W        W 7169   1.309   3.596   2.315
 3119W        W 7170   1.005   3.276   9.166
 3120W        W 7171   6.281   8.778  10.837
 3121W        W 7172   5.508   5.556  11.418
 3122W        W 7173   1.794   2.736   2.271
 3123W        W 7174   1.028   8.490   0.718
 3124W        W 7175   3.883   9.464   2.428
 3125W        W 7176   5.195   2.573  10.231
 3126W        W 7177  10.672   4.392   0.248
 3127W        W 7178   4.013   4.932   8.214
 3128W        W 7179   2.747   4.647   9.215
 3129W        W 7180   1.645   5.145  10.313
 3130W        W 7181   8.908   9.651  11.893
 3131W        W 7182   9.937   0.730  10.531
 3132W        W 7183   3.001  10.932   2.619
 3133W        W 7184   8.933  10.988  10.845
 3134W        W 7185   7.121   8.419   2.924
 3135W        W 7186   4.386   8.077   1.318
 3136W        W 7187   4.246   9.810   2.239
 3137W        W 7188   0.974   9.328   9.923
 3138W        W 7189   1.185   8.784   8.784
 3139W        W 7190   9.822   3.602   9.937
 3140W        W 7191   4.195   3.521   9.255
 3141W        W 7192   9.428   9.992  10.297
 3142W        W 7193   8.873   9.441   8.642
 3143W        W 7194   7.662   8.149   2.515
 3144W        W 7195   1.389   8.410   1.466
 3145W        W 7196   8.656   2.616  11.019
 3146W        W 7197  11.342   9.334   1.304
 3147W        W 7198  10.694   6.040   0.891
 3148W        W 7199   1.888   7.908  10.527
 3149W        W 7200   1.935   0.783   2.204
 3150W        W 7201  10.420   9.391   2.737
 3151W        W 7202   2.753  11.262   9.336
 3152W        W 7203   4.199   0.935  11.830
 3153W        W 7204  10.274   8.631   0.995
 3154W        W 7205   6.660   7.694   2.723
 3155W        W 7206   3.638   0.437   1.349
 3156W        W 7207  10.750   4.813  11.233
 3157W        W 7208   3.187   6.404   0.302
 3158W        W 7209   6.726  11.445  11.354
 3159W        W 7210   1.153   1.662   8.493
 3160W        W 7211   3.904   8.789  11.455
 3161W        W 7212  10.433   4.673   1.384
 3162W        W 7213   5.316   6.513  11.773
 3163W        W 7214   5.163   0.710  11.286
 3164W        W 7215   1.312  11.040   0.372
 3165W        W 7216   3.204   3.868   1.365
 3166W        W 7217  11.430   5.716   8.651
 3167W        W 7218  10.394   2.978   9.088
 3168W        W 7219   1.418   0.173   2.992
 3169W        W 7220   6.305   7.654   3.173
 3170W        W 7221   7.863   4.152   0.709
 3171W        W 7222   6.756   3.689   3.300
 3172W        W 7223   3.855   6.596  11.780
 3173W        W 7224  10.717   5.692  11.389
 3174W        W 7225   4.811   9.873   9.672
 3175W        W 7226   4.096   0.928   1.214
 3176W        W 7227   9.658   4.283   3.312
 3177W        W 7228   8.505   8.708  10.589
 3178W        W 7229   0.096   9.031  10.244
 3179W        W 7230   0.751   6.370   0.852
 3180W        W 7231   4.235   8.986   3.191
 3181W        W 7232   6.229   0.146   0.494
 3182W        W 7233   5.900   3.312   3.048
 3183W        W 7234   2.257   5.289   3.001
 3184W        W 7235   6.457   5.882  10.545
 3185W        W 7236  10.366   7.226  10.017
 3186W        W 7237   9.861   5.729   0.535
 3187W        W 7238   3.541   8.460   0.650
 3188W        W 7239   8.456  10.107   0.745
 3189W        W 7240   9.163   6.509   3.353
 3190W        W 7241   9.234   8.105   8.578
 3191W        W 7242   1.990   2.717   0.210
 3192W        W 7243   1.653  10.069  10.298
 3193W        W 7244   4.447  10.927   1.238
 3194W        W 7245   6.234   5.727  10.096
 3195W        W 7246  10.606   3.631  11.775
 3196W        W 7247  10.042   1.761   8.773
 3197W        W 7248   9.934   6.131   3.597
 3198W        W 7249   6.967   1.347  10.960
 3199W        W 7250   0.275   2.982   3.153
 3200W        W 7251   8.474   5.831   0.700
 3201W        W 7252   8.872   5.450   1.457
 3202W        W 7253   3.323   2.719  10.169
 3203W        W 7254   4.598   6.734   9.092
 3204W        W 7255   8.495   7.477   9.828
 3205W        W 7256   3.630  10.177   8.948
 3206W        W 7257  10.720   9.500   9.322
 3207W        W 7258  11.372   8.359   0.246
 3208W        W 7259  10.928   7.150  10.372
 3209W        W 7260   3.620   1.357  11.155
 3210W        W 7261   2.052   4.484   3.682
 3211W        W 7262   3.127  10.365  11.151
 3212W        W 7263  11.246   9.375   0.226
 3213W        W 7264   8.002   7.908   0.293
 3214W        W 7265   5.793   0.563  10.671
 3215W        W 7266   0.433   8.183   1.176
 3216W        W 7267   1.284   4.363   1.931
 3217W        W 7268   2.083   5.110   8.085
 3218W        W 7269   3.999   7.924   2.337
 3219W        W 7270   7.057  10.817   1.688
 3220W        W 7271   9.396   9.861   1.881
 3221W        W 7272   3.432   4.316   2.379
 3222W        W 7273   1.671   0.537   9.101
 3223W        W 7274   0.345   3.525   8.906
 3224W        W 7275   8.029   7.646  10.005
 3225W        W 7276   9.169   1.459  10.988
 3226W        W 7277   0.746   1.267   1.054
 3227W        W 7278   3.801  11.051   2.543
 3228W        W 7279   7.379   2.432  11.305
 3229W        W 7280   4.128   4.646   2.295
 3230W        W 7281   2.817  10.518   3.405
 3231W        W 7282  10.988   9.650   1.143
 3232W        W 7283   3.092  10.424  10.648
 3233W        W 7284   5.878   1.707   2.466
 3234W        W 7285   2.911  10.102   1.062
 3235W        W 7286   9.750   4.783   3.252
 3236W        W 7287  10.907  11.292   2.664
 3237W        W 7288   6.759   1.263  11.431
 3238W        W 7289  11.066  10.342   2.327
 3239W        W 7290   0.999  11.293  10.459
 3240W        W 7291   9.282  11.347   1.438
 3241W        W 7292   0.917   7.006  11.397
 3242W        W 7293   9.332   1.933  10.553
 3243W        W 7294   5.493   1.451  10.885
 3244W        W 7295   1.776   2.023   2.788
 3245W        W 7296   7.779  10.084   2.812
 3246W        W 7297   3.226   7.330   9.047
 3247W        W 7298   4.821   8.240   2.115
 3248W        W 7299   2.888  10.618   1.007
 3249W        W 7300   8.654   2.140   1.856
 3250W        W 7301   5.707   5.129  11.112
 3251W        W 7302   0.663   3.253   0.996
 3252W        W 7303   6.613   1.209   1.947
 3253W        W 7304   0.777   4.037   9.532
 3254W        W 7305   6.989   9.995  10.555
 3255W        W 7306  10.907   8.557   2.247
 3256W        W 7307   3.589   7.544  10.756
 3257W        W 7308   0.272   2.586   0.535
 3258W        W 7309   8.996   1.910   1.545
 3259W        W 7310   0.479   9.505   9.951
 3260W        W 7311   0.723   5.784  11.582
 3261W        W 7312   1.456   1.953   0.263
 3262W        W 7313   9.495   2.883   0.008
 3263W        W 7314   4.855   9.579   1.496
 3264W        W 7315   2.501   7.588  10.219
 3265W        W 7316   6.546   6.733  10.754
 3266W        W 7317   0.406   4.822   9.357
 3267W        W 7318   9.041   9.999  10.622
 3268W        W 7319   2.861   7.189   1.415
 3269W        W 7320   7.032   3.560   1.763
 3270W        W 7321   0.987   0.948  11.823
 3271W        W 7322   9.965   1.283  11.583
 3272W        W 7323   1.703   5.713  10.784
 3273W        W 7324   5.435  11.339  10.361
 3274W        W 7325  10.527   4.601   9.064
 3275W        W 7326   0.302   7.164  10.802
 3276W        W 7327   5.395  10.390   9.748
 3277W        W 7328   1.392   0.822  11.531
 3278W        W 7329   9.824   9.346  10.149
 3279W        W 7330   2.739   2.617   9.146
 3280W        W 7331   4.993   5.367  11.321
 3281W        W 7332   1.719   4.776  11.916
 3282W        W 7333   8.895   2.924   0.797
 3283W        W 7334   4.488   7.831   2.179
 3284W        W 7335  11.439   0.779   1.374
 3285W        W 7336   6.716   7.978  10.503
 3286W        W 7337  11.244   1.606   9.789
 3287W        W 7338   4.814   9.368   9.812
 3288W        W 7339   1.810   8.890   2.746
 3289W        W 7340   8.130   8.450   1.446
 3290W        W 7341   4.123   4.686   1.296
 3291W        W 7342   0.861   9.765   9.548
 3292W        W 7343   0.954   6.419   2.412
 3293W        W 7344  10.394   8.388   2.688
 3294W        W 7345  10.910   5.704   1.210
 3295W        W 7346  10.073   5.300   2.164
 3296W        W 7347   5.743   1.202   3.014
 3297W        W 7348   9.519   8.916  11.839
 3298W        W 7349   1.235   6.668   9.191
 3299W        W 7350   5.239   5.127   1.022
 3300W        W 7351   1.266   2.561   3.322
 3301W        W 7352   5.274   2.568   2.809
 3302W        W 7353   2.272   4.752   0.673
 3303W        W 7354   1.937  10.884  10.738
 3304W        W 7355   2.254  11.234   0.762
 3305W        W 7356   0.289   9.022   9.750
 3306W        W 7357   1.221  11.298   9.998
 3307W        W 7358  11.347   6.329   9.034
 3308W        W 7359   3.671   1.769   3.152
 3309W        W 7360   3.231   8.554   9.443
 3310W        W 7361   0.101   2.889   9.529
 3311W        W 7362   6.479   3.302   0.472
 3312W        W 7363   4.954  11.044   2.483
 3313W        W 7364   2.759   0.222   9.581
 3314W        W 7365   0.844   5.812   0.076
 3315W        W 7366   2.023   8.018  11.037
 3316W        W 7367   8.811   0.789   9.805
 3317W        W 7368   2.419   1.253   2.948
 3318W        W 7369   9.554   7.131   0.298
 3319W        W 7370   7.317   8.940   8.420
 3320W        W 7371   0.094  10.527   1.914
 3321W        W 7372   1.795  10.322  10.795
 3322W        W 7373   0.783   7.307  11.003
 3323W        W 7374   8.155   4.245   2.642
 3324W        W 7375   0.509   2.717   2.390
 3325W        W 7376   8.262   6.685  11.882
 3326W        W 7377   6.881   2.708   1.823
 3327W        W 7378   5.739   5.618  10.953
 3328W        W 7379  11.183   0.770   8.895
 3329W        W 7380   4.753   7.988   9.761
 3330W        W 7381   4.368  10.850  11.082
 3331W        W 7382   3.205   0.918   9.582
 3332W        W 7383   2.455   2.813   0.052
 3333W        W 7384  10.334   3.161   9.573
 3334W        W 7385   3.413   4.649  11.621
 3335W        W 7386   3.947   8.754  10.943
 3336W        W 7387   2.681   7.278   2.691
 3337W        W 7388   3.546   5.526   8.698
 3338W        W 7389   9.472   8.034   9.062
 3339W        W 7390   8.118   0.783  10.866
 3340W        W 7391   8.211  10.537  10.299
 3341W        W 7392   5.174  11.467   8.966
 3342W        W 7393   9.106  10.879  10.330
 3343W        W 7394  10.758   8.025  11.219
 3344W        W 7395   0.694   2.586   9.799
 3345W        W 7396   1.852  10.615   1.286
 3346W        W 7397  11.062   4.449   3.640
 3347W        W 7398  11.269   3.144   3.169
 3348W        W 7399   2.378   7.127   8.965
 3349W        W 7400   6.518   4.340   9.604
 3350W        W 7401   1.889   3.801   0.903
 3351W        W 7402   9.514   4.531   1.420
 3352W        W 7403   8.011   9.832  11.787
 3353W        W 7404   7.553   7.695   0.434
 3354W        W 7405   5.049   6.500   0.256
 3355W        W 7406   6.421   4.031   8.632
 3356W        W 7407  10.256   9.132  10.387
 3357W        W 7408  11.299   6.554   0.291
 3358W        W 7409   6.518  10.925  10.296
 3359W        W 7410   5.098  11.301  10.755
 3360W        W 7411   4.707   4.169   9.942
 3361W        W 7412   4.680   9.223   1.828
 3362W        W 7413   8.829   6.596   0.759
 3363W        W 7414   2.494   3.232  11.741
 3364W        W 7415   8.761   8.016   9.501
 3365W        W 7416   6.480   2.903   9.034
 3366W        W 7417   3.744   5.702  10.823
 3367W        W 7418   3.178   1.406   9.833
 3368W        W 7419  10.211   7.802   2.158
 3369W        W 7420   9.855   7.014   3.154
 3370W        W 7421   7.395   5.711   1.809
 3371W        W 7422   2.673  10.426  10.927
 3372W        W 7423   2.179  10.475  11.086
 3373W        W 7424   5.199  10.234  11.935
 3374W        W 7425   8.957   6.641   2.438
 3375W        W 7426   2.066   8.848   3.509
 3376W        W 7427   9.554   2.652  11.556
 3377W        W 7428  11.399  10.292  10.114
 3378W        W 7429   3.049   1.840   3.057
 3379W        W 7430   4.923   5.666  10.529
 3380W        W 7431   4.631   3.408   9.522
 3381W        W 7432   8.054   1.040  11.354
 3382W        W 7433   0.855   9.269  11.430
 3383W        W 7434   7.402   3.607   2.672
 3384W        W 7435   1.712   6.679   8.929
 3385W        W 7436   3.796   9.763  11.273
 3386W        W 7437   5.287   0.657   9.424
 3387W        W 7438   5.812   5.253   9.256
 3388W        W 7439   7.591   9.515   9.518
 3389W        W 7440   2.996  10.343   1.862
 3390W        W 7441   9.674   0.531  10.943
 3391W        W 7442   3.697   3.322   2.695
 3392W        W 7443   8.182   5.904   9.458
 3393W        W 7444   6.931   6.443  10.958
 3394W        W 7445   2.590   8.813  11.984
 3395W        W 7446   3.732   5.061   8.823
 3396W        W 7447   2.284   1.396   0.515
 3397W        W 7448  11.053   0.870   1.711
 3398W        W 7449   7.982   0.791   0.515
 3399W        W 7450   9.529   5.528   0.209
 3400W        W 7451   5.755   7.659  11.488
 3401W        W 7452   6.811   9.587   7.989
 3402W        W 7453   4.442   8.122   0.786
 3403W        W 7454   8.848   6.212   2.702
 3404W        W 7455   0.408   4.540   0.179
 3405W        W 7456   6.225  10.266   9.193
 3406W        W 7457   8.512   7.089   2.536
 3407W        W 7458   2.627   9.204  10.409
 3408W        W 7459   1.915   7.090  10.238
 3409W        W 7460   3.593   3.802   2.498
 3410W        W 7461   3.378   5.426   0.465
 3411W        W 7462   6.070   5.406   1.934
 3412W        W 7463   4.063   0.929   1.732
 3413W        W 7464   7.276   2.274   3.453
 3414W        W 7465   5.763  10.863  10.961
 3415W        W 7466  11.366   8.206   9.819
 3416W        W 7467   0.733   5.983   2.602
 3417W        W 7468   5.796   8.610   2.187
 3418W        W 7469   0.680   3.393   2.310
 3419W        W 7470   7.438   3.327  11.370
 3420W        W 7471   6.021  11.480   3.187
 3421W        W 7472   5.155   1.222  10.577
 3422W        W 7473   7.400   8.520   0.274
 3423W        W 7474   1.736  10.038   0.957
 3424W        W 7475   3.770   7.012   3.231
 3425W        W 7476  11.137   8.463   1.221
 3426W        W 7477   4.567   6.196  11.751
 3427W        W 7478   1.665   4.283   0.808
 3428W        W 7479   8.098   4.655   1.171
 3429W        W 7480   6.793   4.057   2.735
 3430W        W 7481   9.050   3.268   1.425
 3431W        W 7482  10.629   7.903  10.733
 3432W        W 7483   0.136   1.061   9.919
 3433W        W 7484   9.283  10.396   8.954
 3434W        W 7485   7.966   8.227   9.319
 3435W        W 7486   8.007   0.955   1.825
 3436W        W 7487   6.116   6.728   3.127
 3437W        W 7488   4.531   1.279   0.886
 3438W        W 7489  11.479  10.770   9.925
 3439W        W 7490  11.335   6.512   2.873
 3440W        W 7491   4.546   1.780   8.512
 3441W        W 7492   2.321   3.861   9.198
 3442W        W 7493   8.852   9.866  11.424
 3443W        W 7494   1.923   5.938   0.681
 3444W        W 7495   2.915   9.104   0.325
 3445W        W 7496   2.290   1.045   9.605
 3446W        W 7497   5.161   0.792   1.267
 3447W        W 7498   9.290   1.318   1.167
 3448W        W 7499   8.419  10.872  10.960
 3449W        W 7500   0.336   5.740   0.077
 3450W        W 7501   6.642   4.225  10.938
 3451W        W 7502   2.345  11.364   1.412
 3452W        W 7503   3.737   1.401  10.648
 3453W        W 7504   4.038   1.365   3.239
 3454W        W 7505   8.896   9.942  10.121
 3455W        W 7506   6.955   2.337   8.612
 3456W        W 7507   1.051   2.491   9.444
 3457W        W 7508   9.424   4.450   8.517
 3458W        W 7509   3.750   1.242   9.175
 3459W        W 7510   4.677   3.331   3.582
 3460W        W 7511   8.435  10.322   9.450
 3461W        W 7512   0.703   7.092   3.126
 3462W        W 7513   4.492   0.139  11.049
 3463W        W 7514   4.373   6.621   2.456
 3464W        W 7515   5.605   7.908   1.454
 3465W        W 7516   4.963   3.920   3.168
 3466W        W 7517   6.210  10.162   2.220
 3467W        W 7518   5.531   3.070   1.171
 3468W        W 7519   0.341   2.153   2.540
 3469W        W 7520  10.863   2.109   0.401
 3470W        W 7521   7.009   6.509   1.617
 3471W        W 7522   4.646   0.944  10.594
 3472W        W 7523   5.208   2.090  10.020
 3473W        W 7524   8.072   7.863  11.314
 3474W        W 7525   6.415   7.696   4.079
 3475W        W 7526   8.137   6.177  11.865
 3476W        W 7527   8.788   4.757   3.489
 3477W        W 7528   1.894   1.692   0.346
 3478W        W 7529  11.148   3.353   1.824
 3479W        W 7530  11.011  10.923   8.931
 3480W        W 7531   3.674   7.918   1.455
 3481W        W 7532   9.127   1.739   2.482
 3482W        W 7533   0.237   1.880   9.442
 3483W        W 7534   0.349  10.846  11.226
 3484W        W 7535   5.507  10.728   0.773
 3485W        W 7536   8.854   4.037   2.175
 3486W        W 7537   2.072   6.137   8.437
 3487W        W 7538   9.594   1.484   8.735
 3488W        W 7539   0.578   5.509   2.876
 3489W        W 7540   2.289  10.762   2.225
 3490W        W 7541   8.758   5.839   1.820
 3491W        W 7542  10.540   4.845   2.812
 3492W        W 7543   1.368   6.127   2.467
 3493W        W 7544  10.356   1.391   9.936
 3494W        W 7545   7.560   8.064   0.097
 3495W        W 7546   6.550   8.956  10.424
 3496W        W 7547   8.039   7.729   9.164
 3497W        W 7548  10.307   9.785   9.568
 3498W        W 7549   6.455   1.901   9.793
 3499W        W 7550   9.015   0.871   2.949
 3500W        W 7551   7.118   2.082  10.049
 3501W        W 7552   8.353   0.417   8.523
 3502W        W 7553   3.242   7.041   9.972
 3503W        W 7554   0.963   3.758  10.442
 3504W        W 7555   5.771   6.550   8.626
 3505W        W 7556   8.931   6.062   3.197
 3506W        W 7557   6.546   6.578   0.698
 3507W        W 7558   9.379   4.397   0.933
 3508W        W 7559   6.678   0.387   0.465
 3509W        W 7560   2.393   3.730   0.872
 3510W        W 7561  11.417   0.405  11.633
 3511W        W 7562   7.645   7.652   1.755
 3512W        W 7563   1.625   1.307  10.333
 3513W        W 7564  11.098   9.488  11.110
 3514W        W 7565   6.403   9.892   8.862
 3515W        W 7566   4.170  10.502   1.030
 3516W        W 7567   2.700  10.470  11.906
 3517W        W 7568   5.571   2.170   3.065
 3518W        W 7569   5.644   0.696   1.055
 3519W        W 7570   5.265   1.361   3.135
 3520W        W 7571   3.282   8.019  10.733
 3521W        W 7572   4.331   5.070  10.823
 3522W        W 7573   2.156   2.475   3.246
 3523W        W 7574   7.309   4.594   3.518
 3524W        W 7575   1.977   9.928   0.266
 3525W        W 7576   5.951   3.533   9.325
 3526W        W 7577   7.194   7.492  11.727
 3527W        W 7578   3.740   2.597   0.269
 3528W        W 7579   5.988   8.206   3.554
 3529W        W 7580   9.512   0.488   0.870
 3530W        W 7581   5.742   3.086   3.557
 3531W        W 7582   9.465   7.001  10.231
 3532W        W 7583   3.765   4.039   9.683
 3533W        W 7584   1.710   3.113   0.432
 3534W        W 7585   3.325   5.999   8.700
 3535W        W 7586  10.716   9.043   2.397
 3536W        W 7587   1.933   1.618  10.573
 3537W        W 7588  11.369  10.384   9.055
 3538W        W 7589   4.378   4.414  10.337
 3539W        W 7590   3.366   2.819  11.584
 3540W        W 7591   4.136   7.438  11.358
 3541W        W 7592   3.803   4.520   9.993
 3542W        W 7593   1.624   0.422  11.292
 3543W        W 7594   4.840  11.348   1.244
 3544W        W 7595   9.286   9.104   8.506
 3545W        W 7596   1.956   2.064   8.812
 3546W        W 7597   3.016   4.119   0.809
 3547W        W 7598   2.866   3.689   1.022
 3548W        W 7599   6.221   9.938   2.688
 3549W        W 7600   2.305  10.816   9.123
 3550W        W 7601  10.863   7.017   9.522
 3551W        W 7602   5.231   8.526   9.488
 3552W        W 7603  11.137   3.781  10.460
 3553W        W 7604  11.221   8.294  11.184
 3554W        W 7605   0.264   7.484  11.997
 3555W        W 7606   0.399   8.149  10.040
 3556W        W 7607   4.316   5.093   2.083
 3557W        W 7608   6.003   3.684  11.886
 3558W        W 7609   6.577   2.135  11.536
 3559W        W 7610   7.178   3.182   2.519
 3560W        W 7611  10.013   4.405   1.570
 3561W        W 7612  10.240   6.582   0.424
 3562W        W 7613   8.495   3.788  11.917
 3563W        W 7614   4.925   8.278   0.868
 3564W        W 7615   9.979   1.282  11.056
 3565W        W 7616   3.535   6.216  11.982
 3566W        W 7617   2.594   7.045   3.142
 3567W        W 7618   1.463   1.194   8.409
 3568W        W 7619   0.397   5.585   1.049
 3569W        W 7620   6.003   8.397   0.759
 3570W        W 7621  10.323   4.591   2.435
 3571W        W 7622   7.648   6.705   1.609
 3572W        W 7623   6.372   8.574   3.533
 3573W        W 7624   1.713   8.366   0.922
 3574W        W 7625   0.424   7.011   8.671
 3575W        W 7626   1.366   1.374   8.864
 3576W        W 7627   9.630   6.059   8.582
 3577W        W 7628  11.381   1.569   9.222
 3578W        W 7629   5.875   5.101   2.723
 3579W        W 7630   7.601  11.480   0.148
 3580W        W 7631   1.381  10.787   1.317
 3581W        W 7632   7.973   1.524   1.010
 3582W        W 7633   2.308  10.484   3.447
 3583W        W 7634   0.511   8.693   3.437
 3584W        W 7635  11.157  11.393   8.766
 3585W        W 7636   6.053   7.534   2.312
 3586W        W 7637  11.051   2.295   0.863
 3587W        W 7638   9.492  11.228   1.890
 3588W        W 7639   9.647   6.646   3.588
 3589W        W 7640   3.335   0.418   0.484
 3590W        W 7641   6.586   5.277   1.379
 3591W        W 7642  10.175   6.924   2.249
 3592W        W 7643   6.804   1.157  10.099
 3593W        W 7644   4.487   9.602   8.876
 3594W        W 7645   3.339  11.486   3.450
 3595W        W 7646   2.844   6.711   0.517
 3596W        W 7647   1.355   1.653   2.259
 3597W        W 7648   0.710   7.066  10.017
 3598W        W 7649   2.946   7.049  10.786
 3599W        W 7650   3.807   2.591  11.365
 3600W        W 7651   9.077  10.545   9.432
 3601W        W 7652   0.147   3.452   3.038
 3602W        W 7653   2.110   8.583   0.687
 3603W        W 7654   5.259   9.849   1.333
 3604W        W 7655   3.698   8.421  10.208
 3605W        W 7656   5.353  11.320   1.169
 3606W        W 7657   3.426   9.942   3.199
 3607W        W 7658   3.843   4.369  11.837
 3608W        W 7659   2.432   7.988  11.348
 3609W        W 7660   5.498   7.014   9.581
 3610W        W 7661   6.250   5.912   8.686
 3611W        W 7662  10.287   9.419   9.032
 3612W        W 7663   4.666   6.452  10.832
 3613W        W 7664   2.908   5.294  10.845
 3614W        W 7665   3.036   2.231   3.422
 3615W        W 7666  10.072   5.676   9.621
 3616W        W 7667   3.677   4.351  10.972
 3617W        W 7668   6.534   1.199   0.833
 3618W        W 7669  10.323   1.104   1.341
 3619W        W 7670   2.089   8.095   9.132
 3620W        W 7671   2.198   7.141   2.804
 3621W        W 7672   0.729   4.659   2.461
 3622W        W 7673   3.175   5.784  11.493
 3623W        W 7674   7.575   1.510   2.866
 3624W        W 7675   3.717   7.752   2.782
 3625W        W 7676   6.231   0.020  11.267
 3626W        W 7677   1.937   6.336  11.302
 3627W        W 7678   5.268   4.223   0.528
 3628W        W 7679   5.502   3.354   0.735
 3629W        W 7680   4.025   0.577   3.447
 3630W        W 7681   7.760   6.852   2.097
 3631W        W 7682   2.647   9.353   9.449
 3632W        W 7683   2.734   3.785  11.461
 3633W        W 7684   8.423   5.274   9.042
 3634W        W 7685   5.754   6.552   9.703
 3635W        W 7686   8.364   4.170   1.739
 3636W        W 7687   8.099   8.161  10.902
 3637W        W 7688   2.322   8.614   9.834
 3638W        W 7689   4.841   1.716   0.959
 3639W        W 7690   5.342  10.017   8.845
 3640W        W 7691   3.615  10.150   1.677
 3641W        W 7692   5.531  10.207   2.006
 3642W        W 7693   9.743   6.138   2.598
 3643W        W 7694   6.874   9.390   1.502
 3644W        W 7695   0.281   4.126   0.872
 3645W        W 7696  10.680   6.596  11.112
 3646W        W 7697   6.755   2.201   8.054
 3647W        W 7698   1.940   1.364   8.911
 3648W        W 7699   7.459   3.981   2.350
 3649W        W 7700   3.202  10.022  10.368
 3650W        W 7701   4.881   1.996   0.414
 3651W        W 7702  10.140   5.666   2.985
 3652W        W 7703   4.118   0.486   0.915
 3653W        W 7704   7.877   6.282   1.806
 3654W        W 7705  10.972   6.491   8.712
 3655W        W 7706   0.675   9.281   0.293
 3656W        W 7707   6.285   3.306  10.110
 3657W        W 7708   0.942   0.142   3.232
 3658W        W 7709   2.101   2.392   1.417
 3659W        W 7710  10.803   0.303  10.852
 3660W        W 7711   8.588   4.149   1.281
 3661W        W 7712  10.579   4.988   0.935
 3662W        W 7713   5.917   8.030   9.089
 3663W        W 7714   1.759   7.354   1.916
 3664W        W 7715   1.134   3.324   1.916
 3665W        W 7716   3.582   1.362   2.363
 3666W        W 7717   8.151   2.102  10.101
 3667W        W 7718   4.567   4.864   1.487
 3668W        W 7719   0.291  10.563  10.348
 3669W        W 7720   1.058   3.311   2.655
 3670W        W 7721   9.956   7.608  11.320
 3671W        W 7722   8.637  10.451   3.199
 3672W        W 7723   6.515   4.831  11.481
 3673W        W 7724   8.150   3.576   3.303
 3674W        W 7725  10.529   2.709   3.404
 3675W        W 7726   5.725   6.317  11.997
 3676W        W 7727   1.929   6.199  10.226
 3677W        W 7728   7.315  11.046   0.865
 3678W        W 7729   1.889   9.829  10.829
 3679W        W 7730   5.158   8.901  11.219
 3680W        W 7731   3.879   9.941  11.743
 3681W        W 7732   7.017   4.334   3.898
 3682W        W 7733   2.592   1.672  10.895
 3683W        W 7734   6.862  11.311  10.420
 3684W        W 7735  11.259  10.336   1.160
 3685W        W 7736   5.466   4.052  11.193
 3686W        W 7737   7.172   9.660   9.275
 3687W        W 7738   4.395   4.274   2.086
 3688W        W 7739  10.184   5.280   2.659
 3689W        W 7740   2.262   0.710  11.749
 3690W        W 7741   8.104   9.651  10.432
 3691W        W 7742   1.691   2.290   3.231
 3692W        W 7743   6.094   3.197   1.700
 3693W        W 7744  10.898   1.718   9.323
 3694W        W 7745   2.243   6.153   1.453
 3695W        W 7746   0.189  11.434   0.976
 3696W        W 7747   9.629   5.337   0.760
 3697W        W 7748   4.236   1.890  11.204
 3698W        W 7749  10.073   3.881   1.595
 3699W        W 7750   3.189  10.404   1.379
 3700W        W 7751   4.917   8.649   9.085
 3701W        W 7752   8.660   8.275   3.413
 3702W        W 7753   3.031   3.062  10.469
 3703W        W 7754   5.338  11.149   0.240
 3704W        W 7755   8.477   6.698  11.411
 3705W        W 7756   6.673   7.080   0.775
 3706W        W 7757   6.074   1.600   9.995
 3707W        W 7758  10.062   8.397   1.395
 3708W        W 7759   7.954   0.973   9.593
 3709W        W 7760   1.140   1.480  10.329
 3710W        W 7761   5.921   9.369   1.703
 3711W        W 7762  11.422  11.474  11.357
 3712W        W 7763   1.149   4.346   2.678
 3713W        W 7764   3.146   1.287   0.519
 3714W        W 7765   9.503   3.903   0.876
 3715W        W 7766   3.067   8.406   1.974
 3716W        W 7767   3.831   4.706   3.132
 3717W        W 7768   6.231   0.774  10.833
 3718W        W 7769   4.392   1.745   2.139
 3719W        W 7770   1.345   6.588   2.695
 3720W        W 7771  10.985  10.760   2.038
 3721W        W 7772   3.032   4.638  11.986
 3722W        W 7773   6.509   9.545  11.030
 3723W        W 7774   4.088   8.652   9.890
 3724W        W 7775  10.281   3.240  11.870
 3725W        W 7776  10.094  11.413  11.898
 3726W        W 7777   4.207   8.311   0.379
 3727W        W 7778   9.922   2.159   0.311
 3728W        W 7779   1.173   4.058   9.845
 3729W        W 7780   9.523   6.763  11.261
 3730W        W 7781   1.289   7.088   1.884
 3731W        W 7782   2.807   2.310   9.540
 3732W        W 7783   2.994   0.554   9.894
 3733W        W 7784   4.264   7.257  10.878
 3734W        W 7785   0.808  11.193   2.997
 3735W        W 7786   5.490   6.550   2.659
 3736W        W 7787   6.060   4.664  11.734
 3737W        W 7788   7.213   3.706   0.260
 3738W        W 7789  10.213   6.689   9.982
 3739W        W 7790   8.990   9.595   2.671
 3740W        W 7791   0.377   2.388   2.010
 3741W        W 7792   3.851   9.992   2.527
 3742W        W 7793   0.016   5.292   9.405
 3743W        W 7794  11.491   5.286   1.008
 3744W        W 7795   5.001   5.166  10.337
 3745W        W 7796   7.148   2.863  10.242
 3746W        W 7797   9.897   0.580   2.597
 3747W        W 7798   3.532   1.331  11.673
 3748W        W 7799  11.018   8.527  11.913
 3749W        W 7800   4.170   2.331   1.272
 3750W        W 7801   9.915   6.694   9.547
 3751W        W 7802   0.464   1.320   3.124
 3752W        W 7803   4.149   3.058   0.733
 3753W        W 7804   9.984   6.649  11.985
 3754W        W 7805   1.643   1.457   1.280
 3755W        W 7806  10.695   4.047   1.610
 3756W        W 7807   0.284   7.494   1.045
 3757W        W 7808  11.413   0.484   1.806
 3758W        W 7809   0.191   3.054   0.950
 3759W        W 7810   3.667  11.098   1.680
 3760W        W 7811   1.997   6.869   0.301
 3761W        W 7812  11.434   3.961   9.491
 3762W        W 7813  10.274   6.056  10.371
 3763W        W 7814   1.438   7.842   1.417
 3764W        W 7815  11.079   1.704  11.324
 3765W        W 7816   2.228   8.106   1.712
 3766W        W 7817   3.669   7.436   2.399
 3767W        W 7818   8.023  10.236   1.024
 3768W        W 7819   1.371   5.629   2.250
 3769W        W 7820   7.371   8.480   0.917
 3770W        W 7821   5.335   8.975   2.827
 3771W        W 7822   6.246   2.993   8.228
 3772W        W 7823   6.776   3.656  10.408
 3773W        W 7824   6.025   4.212   8.946
 3774W        W 7825   9.455   1.910   0.005
 3775W        W 7826   6.434   8.133   3.801
 3776W        W 7827   9.136   3.345   0.930
 3777W        W 7828   4.268   9.311   2.139
 3778W        W 7829   4.759  10.882  10.722
 3779W        W 7830   0.886   4.621   1.466
 3780W        W 7831   4.261   2.326  11.474
 3781W        W 7832  10.074   6.387   8.564
 3782W        W 7833   1.009   7.511  11.407
 3783W        W 7834  10.009   9.737   2.160
 3784W        W 7835   6.770   6.393   1.177
 3785W        W 7836   6.130   6.544  11.212
 3786W        W 7837   2.462   9.365   1.221
 3787W        W 7838   5.591   9.420  10.775
 3788W        W 7839   1.814   0.806   9.570
 3789W        W 7840   5.768   8.844  10.744
 3790W        W 7841   6.165   0.925   9.086
 3791W        W 7842   7.027   9.582  10.863
 3792W        W 7843   5.677   1.860  10.528
 3793W        W 7844   1.778   3.571   9.934
 3794W        W 7845   4.833   1.076   1.680
 3795W        W 7846   7.424  10.167   8.472
 3796W        W 7847   4.541   7.171   1.027
 3797W        W 7848   6.520   2.897   9.899
 3798W        W 7849  10.008   6.597  11.294
 3799W        W 7850  10.790   4.674   2.267
 3800W        W 7851   5.522   4.688   1.396
 3801W        W 7852   0.255   6.023   8.905
 3802W        W 7853   7.522  10.819   9.306
 3803W        W 7854   7.994   9.496   2.387
 3804W        W 7855   2.227  11.039   3.181
 3805W        W 7856   3.666   4.155   0.255
 3806W        W 7857   0.383   8.836  10.610
 3807W        W 7858   8.627   2.743   0.027
 3808W        W 7859   9.896   6.510   1.417
 3809W        W 7860   5.152   0.162   9.481
 3810W        W 7861   0.100   7.835   1.392
 3811W        W 7862  10.011   7.056   1.408
 3812W        W 7863   7.711   5.927  10.648
 3813W        W 7864   6.196   3.515   8.267
 3814W        W 7865   5.128   6.791   2.951
 3815W        W 7866   0.588   1.203   1.528
 3816W        W 7867   4.165  10.441   2.903
 3817W        W 7868  10.966   7.748   0.064
 3818W        W 7869   1.860   1.485  11.888
 3819W        W 7870   7.192   1.303  10.457
 3820W        W 7871   9.969   8.529   3.399
 3821W        W 7872   7.944   0.009   9.495
 3822W        W 7873  10.405   8.422  11.101
 3823W        W 7874   2.372   8.928   0.429
 3824W        W 7875   1.161   4.479   3.442
 3825W        W 7876   5.473   0.867  10.397
 3826W        W 7877   2.012  10.315   0.616
 3827W        W 7878   9.264   6.982   0.767
 3828W        W 7879   2.390   1.969   1.347
 3829W        W 7880   2.657  10.423   1.429
 3830W        W 7881   2.304   7.646   9.020
 3831W        W 7882   4.836   9.012   0.378
 3832W        W 7883   1.677   3.183  10.649
 3833W        W 7884   6.071   9.258  10.918
 3834W        W 7885   8.373   2.933   1.792
 3835W        W 7886   3.463   3.402   2.220
 3836W        W 7887   0.877   0.454  11.852
 3837W        W 7888  10.748   4.578   3.237
 3838W        W 7889   1.762   7.885   1.849
 3839W        W 7890   4.565   9.851   1.818
 3840W        W 7891  11.134   5.097   0.064
 3841W        W 7892   1.637   1.747   9.093
 3842W        W 7893   5.039   2.492   9.755
 3843W        W 7894  10.420   0.866   8.581
 3844W        W 7895   2.701   1.437   2.250
 3845W        W 7896   4.755   3.256  11.774
 3846W        W 7897   5.118   8.195  10.613
 3847W        W 7898   7.700   4.288   0.255
 3848W        W 7899   8.929   8.340   0.317
 3849W        W 7900   9.599   0.285   9.835
 3850W        W 7901   4.167   7.357   1.776
 3851W        W 7902   8.728   8.539   9.075
 3852W        W 7903   3.845   7.099  10.629
 3853W        W 7904   5.046   6.019   0.459
 3854W        W 7905   6.743   8.048   9.965
 3855W        W 7906   9.634   7.600   1.862
 3856W        W 7907   6.472   1.922   3.288
 3857W        W 7908  11.008   9.401   2.599
 3858W        W 7909   2.408   1.457  10.444
 3859W        W 7910   0.879   1.368   0.578
 3860W        W 7911   4.209  11.482   3.027
 3861W        W 7912   0.079   8.965   3.572
 3862W        W 7913   0.487   6.490   2.599
 3863W        W 7914   5.655   1.363  10.381
 3864W        W 7915   3.222   3.762   3.257
 3865W        W 7916   7.158   3.610   9.553
 3866W        W 7917   8.649   1.809   2.278
 3867W        W 7918   1.859   2.537   2.783
 3868W        W 7919   3.193   0.947   1.707
 3869W        W 7920   2.705   2.766   2.967
 3870W        W 7921  10.387   6.973   1.769
 3871W        W 7922   9.994   4.314   2.153
 3872W        W 7923   0.973   5.963   2.165
 3873W        W 7924   0.818   1.078   9.504
 3874W        W 7925   5.688   5.181   1.277
 3875W        W 7926   6.807   2.361   1.476
 3876W        W 7927   7.066   6.695  10.516
 3877W        W 7928   0.100   7.190   2.133
 3878W        W 7929   2.659   9.668   0.764
 3879W        W 7930   4.236   5.199   0.017
 3880W        W 7931  11.071   2.795  11.240
 3881W        W 7932   1.226   5.630  11.557
 3882W        W 7933   5.141   7.753  11.017
 3883W        W 7934   4.418   2.033   1.650
 3884W        W 7935   5.732   8.553   2.753
 3885W        W 7936   9.415   5.629  10.822
 3886W        W 7937   4.096   7.094   9.770
 3887W        W 7938  11.285   3.349   8.689
 3888W        W 7939   8.655   2.817  10.500
 3889W        W 7940   8.420   8.498   8.630
 3890W        W 7941   4.925   2.477   0.210
 3891W        W 7942   3.937   7.927   9.459
 3892W        W 7943   3.258   2.904   2.236
 3893W        W 7944  10.764  10.003  10.461
 3894W        W 7945   2.921  10.006   9.194
 3895W        W 7946   1.181   6.633   3.191
 3896W        W 7947   7.664   0.240   3.344
 3897W        W 7948   3.379   6.660  11.215
 3898W        W 7949  10.831   1.861   3.230
 3899W        W 7950   4.109   1.324   2.339
 3900W        W 7951   6.471   2.416   8.428
 3901W        W 7952   3.758   7.180   1.485
 3902W        W 7953   1.117   6.987   1.368
 3903W        W 7954   3.723  11.467  10.503
 3904W        W 7955   2.206   4.624  10.297
 3905W        W 7956   3.866   1.372   1.360
 3906W        W 7957   7.904   8.550   0.936
 3907W        W 7958   5.474   1.186   1.150
 3908W        W 7959   0.006   3.634   1.607
 3909W        W 7960   0.506   5.384   9.414
 3910W        W 7961   5.250  10.914  11.076
 3911W        W 7962   7.030   9.484  11.754
 3912W        W 7963   1.883   0.266   2.231
 3913W        W 7964  11.307   2.534   9.282
 3914W        W 7965   0.792   1.763   0.936
 3915W        W 7966   7.100   2.154  11.914
 3916W        W 7967   5.338   5.166   0.504
 3917W        W 7968   1.810   3.882  10.970
 3918W        W 7969   0.293   1.311   9.476
 3919W        W 7970   5.908   9.629   1.254
 3920W        W 7971   5.068   3.065   2.727
 3921W        W 7972   1.233   2.287  11.192
 3922W        W 7973   7.973   4.663   0.676
 3923W        W 7974   9.609   2.388  11.983
 3924W        W 7975  11.406   6.579   3.400
 3925W        W 7976   2.741   0.727   9.473
 3926W        W 7977  10.888   3.633   8.999
 3927W        W 7978   8.583   3.832   3.131
 3928W        W 7979   5.256   2.746   0.507
 3929W        W 7980   2.183   1.338  11.529
 3930W        W 7981   2.453   8.361   2.568
 3931W        W 7982   0.142   0.784  11.401
 3932W        W 7983  11.136   1.613  10.821
 3933W        W 7984   1.480   1.852  10.457
 3934W        W 7985   2.883   6.936   9.028
 3935W        W 7986   2.984   8.324   2.465
 3936W        W 7987  10.598   7.910   3.452
 3937W        W 7988   3.434  10.636   1.770
 3938W        W 7989   2.458   9.878   1.193
 3939W        W 7990   0.727   1.169  10.822
 3940W        W 7991  11.236  10.604  11.965
 3941W        W 7992  11.137   7.924  11.559
 3942W        W 7993   5.273  10.093   2.710
 3943W        W 7994   6.112   4.758   0.724
 3944W        W 7995   0.022   4.890   1.310
 3945W        W 7996   6.543   0.843   8.730
 3946W        W 7997   3.597   6.163   0.482
 3947W        W 7998   8.461   4.009   9.958
 3948W        W 7999   2.912   9.110   1.257
 3949W        W 8000   9.892   2.933   8.386
 3950W        W 8001   8.462   4.295  11.877
 3951W        W 8002   8.871   2.608   2.126
 3952W        W 8003   7.654   0.778  11.089
 3953W        W 8004   8.248   6.445  10.109
 3954W        W 8005   9.153   1.286   8.977
 3955W        W 8006   8.332   6.948  10.796
 3956W        W 8007   9.282   6.695   8.272
 3957W        W 8008   3.026   0.412   3.409
 3958W        W 8009   9.534   6.292   9.063
 3959W        W 8010  10.281   9.339   1.383
 3960W        W 8011   8.948   8.094   9.007
 3961W        W 8012   4.990   4.738   1.230
 3962W        W 8013   2.805   5.900  10.179
 3963W        W 8014   6.197   4.229   0.469
 3964W        W 8015   5.648   3.862   9.046
 3965W        W 8016   3.650   2.497   2.074
 3966W        W 8017   2.692   9.613   3.182
 3967W        W 8018   0.541   9.962  11.163
 3968W        W 8019   7.883   2.396  10.453
 3969W        W 8020   4.188  10.020   8.803
 3970W        W 8021   2.691   0.569  10.328
 3971W        W 8022   3.458  10.130  11.478
 3972W        W 8023   9.494   1.593   0.396
 3973W        W 8024   7.664   1.237   9.956
 3974W        W 8025   3.594  10.302  10.973
 3975W        W 8026   7.708  11.109  10.656
 3976W        W 8027   4.180   3.462   0.406
 3977W        W 8028   7.529  10.400   9.593
 3978W        W 8029   1.608  10.497  11.717
 3979W        W 8030   7.630   6.172   3.854
 3980W        W 8031   9.915   2.769   2.242
 3981W        W 8032   6.711   9.918   1.329
 3982W        W 8033   6.664   3.388   9.763
 3983W        W 8034  11.308   9.070   9.553
 3984W        W 8035   2.842   9.967   1.544
 3985W        W 8036   7.214   8.468   2.419
 3986W        W 8037   9.161   5.521  10.067
 3987W        W 8038  10.711   2.284   1.274
 3988W        W 8039   5.605   4.858  11.949
 3989W        W 8040   6.084   2.321   3.177
 3990W        W 8041   0.649   5.892  10.003
 3991W        W 8042   4.624   6.807   0.240
 3992W        W 8043   2.200   3.927   1.867
 3993W        W 8044   4.500  10.798   8.788
 3994W        W 8045   1.036   6.763  10.315
 3995W        W 8046   9.262   9.003  10.347
 3996W        W 8047   0.420   0.112   0.551
 3997W        W 8048   8.634   7.994   2.262
 3998W        W 8049   1.473   9.321  10.074
 3999W        W 8050   4.322  10.362   0.544
 4000W        W 8051   4.610   0.789   1.303
 4001W        W 8052   0.198   0.646   8.771
 4002W        W 8053   7.677   9.020   1.084
 4003W        W 8054   5.390   0.416   2.957
 4004W        W 8055  11.491   5.277   2.296
 4005W        W 8056   0.818   6.283  10.917
 4006W        W 8057   9.732   9.567   0.198
 4007W        W 8058   5.216  11.396  11.269
 4008W        W 8059   0.805   4.642   1.965
 4009W        W 8060   7.682   7.572  10.435
 4010W        W 8061   8.132   0.417   3.479
 4011W        W 8062   4.469   7.138   9.375
 4012W        W 8063   4.111  10.120   1.837
 4013W        W 8064   3.089   3.656  10.048
 4014W        W 8065   9.518   0.410   3.520
 4015W        W 8066   3.353  10.957  11.713
 4016W        W 8067   1.043   5.123   0.316
 4017W        W 8068   7.843   2.401  11.502
 4018W        W 8069  10.870   5.008   0.509
 4019W        W 8070   5.128   0.409   2.216
 4020W        W 8071   6.295  11.239   1.183
 4021W        W 8072   1.854  10.888   9.683
 4022W        W 8073   3.743   4.965   1.764
 4023W        W 8074   8.749  10.315   3.696
 4024W        W 8075   6.010   9.990   0.866
 4025W        W 8076   3.552  10.633  11.373
 4026W        W 8077   5.039   3.431  10.587
 4027W        W 8078  10.823   7.738   3.004
 4028W        W 8079   3.109   7.460   0.343
 4029W        W 8080   9.557   4.965   4.254
 4030W        W 8081   4.792   7.975  10.268
 4031W        W 8082   3.215   2.713   3.199
 4032W        W 8083   0.592   0.818   1.858
 4033W        W 8084   7.389   9.782   3.184
 4034W        W 8085   2.897   4.478  10.397
 4035W        W 8086   5.104   8.992   2.048
 4036W        W 8087   5.294   3.159   8.744
 4037W        W 8088  10.325   6.991   9.574
 4038W        W 8089   9.109   3.698   9.483
 4039W        W 8090   8.815   1.331   1.359
 4040W        W 8091   2.776   1.244   9.532
 4041W        W 8092   2.215   2.908   3.007
 4042W        W 8093   5.829  10.604  10.468
 4043W        W 8094   3.742   2.641   9.843
 4044W        W 8095  10.892   3.307   9.892
 4045W        W 8096  11.029   5.094   2.442
 4046W        W 8097   8.058   1.014   3.453
 4047W        W 8098  11.003   3.144  10.407
 4048W        W 8099  11.344   2.327   0.408
 4049W        W 8100   3.338   9.341  11.079
 4050W        W 8101   5.052   1.576   9.290
 4051W        W 8102   9.578   7.523  10.378
 4052W        W 8103   4.221   2.854  11.525
 4053W        W 8104   6.585   0.416   1.372
 4054W        W 8105   0.112   8.577   1.091
 4055W        W 8106   0.057   2.349  10.398
 4056W        W 8107   0.451   3.869   3.398
 4057W        W 8108   2.669   6.211   3.264
 4058W        W 8109   2.856   1.991   1.179
 4059W        W 8110   2.677   3.187   3.698
 4060W        W 8111   8.807   0.403   1.863
 4061W        W 8112   0.495   9.239   3.496
 4062W        W 8113   8.943   5.161   2.292
 4063W        W 8114   6.312   2.959   3.672
 4064W        W 8115  11.275   5.682   9.635
 4065W        W 8116   9.170   8.066  11.901
 4066W        W 8117   7.657  11.283  11.137
 4067W        W 8118   1.834   2.454  10.878
 4068W        W 8119   2.290   0.038   3.290
 4069W        W 8120   3.331   9.637  11.485
 4070W        W 8121   6.716   6.975   0.280
 4071W        W 8122   1.321   7.614   1.844
 4072W        W 8123   9.479   8.635   8.549
 4073W        W 8124  10.019   4.836   2.795
 4074W        W 8125  10.183   0.010   0.695
 4075W        W 8126   9.663   4.048   1.330
 4076W        W 8127   4.520   2.294   8.702
 4077W        W 8128   6.663   0.437   3.236
 4078W        W 8129   9.682   1.469   0.847
 4079W        W 8130   4.651  11.495   9.630
 4080W        W 8131   6.156   1.359   2.173
 4081W        W 8132   9.822   7.495  10.837
 4082W        W 8133   7.941   4.996  11.558
 4083W        W 8134   7.928   9.541   0.230
 4084W        W 8135   5.612   5.762   2.076
 4085W        W 8136   8.256   2.280   0.890
 4086W        W 8137   2.946  10.020   3.361
 4087W        W 8138   6.585   8.990   0.782
 4088W        W 8139   6.351   9.822   3.182
 4089W        W 8140   5.552   5.824   1.576
 4090W        W 8141   8.452   8.124   0.226
 4091W        W 8142   6.400   2.221   1.827
 4092W        W 8143   0.748   3.260   0.402
 4093W        W 8144   9.537   8.947   8.978
 4094W        W 8145   8.357   3.033   9.958
 4095W        W 8146  11.101   2.915   9.616
 4096W        W 8147   4.709   2.952  11.371
 4097W        W 8148   6.560  11.366  11.845
 4098W        W 8149   9.850   2.187   8.535
 4099W        W 8150  10.336   0.327  11.696
 4100W        W 8151   0.759   4.327   9.997
 4101W        W 8152  11.273   4.848   0.824
 4102W        W 8153   8.313   1.975   2.704
 4103W        W 8154   5.436   9.779   3.095
 4104W        W 8155  10.517  10.924   1.384
 4105W        W 8156   8.992   8.647  10.755
 4106W        W 8157  11.483   8.730  11.310
 4107W        W 8158   7.119  10.082   9.560
 4108W        W 8159   0.318   0.836   3.195
 4109W        W 8160   5.050   1.791   8.271
 4110W        W 8161   7.844   1.180   2.235
 4111W        W 8162   8.037  11.305  11.884
 4112W        W 8163   6.484   6.418   9.076
 4113W        W 8164  10.611   9.546   3.193
 4114W        W 8165  11.034   4.733   2.795
 4115W        W 8166   0.049   9.853   2.262
 4116W        W 8167   8.946   2.209   9.553
 4117W        W 8168   4.524  10.984   0.391
 4118W        W 8169   7.114   2.336   2.472
 4119W        W 8170   5.720   1.357  11.341
 4120W        W 8171  10.349   0.772   3.703
 4121W        W 8172   0.038   6.133   3.148
 4122W        W 8173   5.227   5.573   1.276
 4123W        W 8174   2.677   6.936   1.841
 4124W        W 8175   5.036   7.579  10.037
 4125W        W 8176  10.952   5.461   8.592
 4126W        W 8177   0.813   5.708  10.499
 4127W        W 8178   5.536   9.508   2.662
 4128W        W 8179   3.091   8.463  10.945
 4129W        W 8180   5.543  10.207   0.832
 4130W        W 8181   1.390   1.946   1.194
 4131W        W 8182   4.147   7.416   1.273
 4132W        W 8183   3.613  11.430   1.289
 4133W        W 8184   6.141   0.860   2.980
 4134W        W 8185  11.160  10.544   1.619
 4135W        W 8186   0.746   0.725   3.679
 4136W        W 8187  10.105   3.220   0.389
 4137W        W 8188   4.280   9.053  11.202
 4138W        W 8189  11.111   3.887   0.109
 4139W        W 8190   3.811   3.111   0.303
 4140W        W 8191   0.117   3.154   1.850
 4141W        W 8192   6.547   7.399   2.323
 4142W        W 8193   4.824   7.040   3.271
 4143W        W 8194   4.569  10.289  10.337
 4144W        W 8195   9.555   2.469  10.174
 4145W        W 8196   0.964   8.709   3.152
 4146W        W 8197   9.460   6.179   1.450
 4147W        W 8198   7.147   1.815   9.331
 4148W        W 8199  11.307   3.010  11.630
 4149W        W 8200   8.136   8.139   0.726
 4150W        W 8201   6.606   1.599   2.904
 4151W        W 8202   9.056   2.251   9.043
 4152W        W 8203   8.731   4.592  11.285
 4153W        W 8204   2.281   1.801  10.094
 4154W        W 8205   1.926   5.342   9.902
 4155W        W 8206   1.085   2.320   0.242
 4156W        W 8207  11.225   6.962   9.912
 4157W        W 8208   2.124  10.922  11.324
 4158W        W 8209   7.892   4.020   1.660
 4159W        W 8210   0.907   8.406   2.734
 4160W        W 8211   8.524   1.805  11.422
 4161W        W 8212   6.966   4.691  10.259
 4162W        W 8213   7.016   1.331   9.316
 4163W        W 8214  11.258   1.344   1.926
 4164W        W 8215   4.359   5.586   1.882
 4165W        W 8216   9.086   8.473   1.742
 4166W        W 8217   5.094   9.404   2.951
 4167W        W 8218   6.069   2.857   3.219
 4168W        W 8219   2.180   7.465   0.505
 4169W        W 8220   8.260   2.671   2.753
 4170W        W 8221   9.020  11.272   2.678
 4171W        W 8222   2.466   9.087   8.583
 4172W        W 8223   4.897   2.969  10.441
 4173W        W 8224   8.898   9.589   9.743
 4174W        W 8225   5.265   7.505   9.602
 4175W        W 8226   9.233   6.064  11.741
 4176W        W 8227   7.961   8.702  10.052
 4177W        W 8228   5.566   8.191   0.248
 4178W        W 8229   9.513   1.544   9.790
 4179W        W 8230   6.030   3.814   1.077
 4180W        W 8231   1.119   7.432   3.151
 4181W        W 8232   3.715   8.965   3.249
 4182W        W 8233   4.881   0.991   0.409
 4183W        W 8234   2.499   8.048   9.426
 4184W        W 8235   2.216   8.404   1.173
 4185W        W 8236   2.036   4.236   9.384
 4186W        W 8237   4.676   5.257   0.251
 4187W        W 8238   1.412   8.585   2.774
 4188W        W 8239   4.407   9.465   2.612
 4189W        W 8240  11.209   7.803  11.020
 4190W        W 8241   6.052   5.882   1.779
 4191W        W 8242   0.385   8.063  11.766
 4192W        W 8243  10.693   8.175  11.768
 4193W        W 8244  10.821   1.514  10.112
 4194W        W 8245   8.443   9.388   9.590
 4195W        W 8246  11.412   4.387   0.652
 4196W        W 8247   5.923   4.739   9.140
 4197W        W 8248  10.494   5.181   1.819
 4198W        W 8249   5.180   3.970   0.947
 4199W        W 8250   4.693   6.980  10.874
 4200W        W 8251   1.074  10.530   3.653
 4201W        W 8252   5.418  10.324  10.244
 4202W        W 8253   7.706   2.751   9.433
 4203W        W 8254   6.614   0.905   0.423
 4204W        W 8255   8.127   8.644   1.967
 4205W        W 8256   0.826   1.055  11.317
 4206W        W 8257   1.570   0.843   0.569
 4207W        W 8258   8.496   5.599  11.387
 4208W        W 8259   4.534   7.561  10.558
 4209W        W 8260   1.425   2.935   9.072
 4210W        W 8261   2.574   8.626  11.076
 4211W        W 8262   6.338   2.342   0.375
 4212W        W 8263   9.280   4.185   9.337
 4213W        W 8264  11.234   5.345   1.440
 4214W        W 8265   4.351   6.680   9.970
 4215W        W 8266   9.678   0.993   1.731
 4216W        W 8267   9.138   8.037   0.798
 4217W        W 8268  10.446  10.335  11.058
 4218W        W 8269   9.789   9.672  11.610
 4219W        W 8270  10.306   8.464   8.916
 4220W        W 8271   2.948  10.862   1.450
 4221W        W 8272   0.752   3.811   9.991
 4222W        W 8273  10.230   7.488   1.176
 4223W        W 8274   9.126   1.757   8.712
 4224W        W 8275   9.553   8.408   2.145
 4225W        W 8276   7.401   7.622  10.864
 4226W        W 8277   0.871   9.583   2.162
 4227W        W 8278   2.001   9.624   1.237
 4228W        W 8279   4.159   6.259   9.749
 4229W        W 8280   0.509   2.574   1.522
 4230W        W 8281   6.012   5.690   2.358
 4231W        W 8282   5.045   0.484   9.021
 4232W        W 8283   7.726  10.557   0.258
 4233W        W 8284   7.732   9.044   2.596
 4234W        W 8285   7.427   2.786   0.908
 4235W        W 8286   8.198   1.349  11.759
 4236W        W 8287   2.318   8.529   9.325
 4237W        W 8288   7.977  11.304   2.481
 4238W        W 8289   4.166   6.894   1.227
 4239W        W 8290   8.490   0.171   1.492
 4240W        W 8291   9.268   4.541  11.417
 4241W        W 8292  11.375   1.208  11.010
 4242W        W 8293   3.621   1.204   9.663
 4243W        W 8294   9.138   5.800   8.648
 4244W        W 8295  10.048  10.486  11.331
 4245W        W 8296   2.272   7.249  11.551
 4246W        W 8297   4.857   2.149   1.883
 4247W        W 8298   5.205   1.193  10.068
 4248W        W 8299   0.095  10.495   3.324
 4249W        W 8300   1.754   8.398   1.826
 4250W        W 8301   6.037   3.693   3.833
 4251W        W 8302   4.112   4.744   8.680
 4252W        W 8303   8.088   9.442   1.708
 4253W        W 8304   5.824   9.024   0.018
 4254W        W 8305  11.167   4.282  10.257
 4255W        W 8306   4.062   1.500   0.899
 4256W        W 8307  11.251   7.457   1.221
 4257W        W 8308   5.235   8.456  11.518
 4258W        W 8309   4.734   4.294  11.841
 4259W        W 8310  10.008   1.634   0.370
 4260W        W 8311   8.462  10.215   1.305
 4261W        W 8312  10.492  10.890   8.832
 4262W        W 8313   0.434   9.474   2.977
 4263W        W 8314   7.403   4.049   9.151
 4264W        W 8315   1.722   5.979   3.232
 4265W        W 8316   4.315   0.314   0.450
 4266W        W 8317   6.183   7.457  11.261
 4267W        W 8318   7.127   9.166  10.027
 4268W        W 8319   2.905   0.935   2.121
 4269W        W 8320   9.366   8.856   3.522
 4270W        W 8321   2.277   2.806   2.526
 4271W        W 8322  11.200   0.079   0.905
 4272W        W 8323   6.596   3.665   1.964
 4273W        W 8324   6.148   2.544   0.845
 4274W        W 8325   1.982  10.783   0.820
 4275W        W 8326   8.010   4.046  11.936
 4276W        W 8327   7.443  10.884   9.842
 4277W        W 8328  10.947   1.229   9.154
 4278W        W 8329  10.707   6.546   1.737
 4279W        W 8330  10.408   6.028   9.481
 4280W        W 8331   8.330   2.303  11.417
 4281W        W 8332   8.502   1.499   2.674
 4282W        W 8333   3.113   2.093   2.607
 4283W        W 8334   7.609   2.542   3.180
 4284W        W 8335   7.873  10.412   8.531
 4285W        W 8336   4.937   8.997   9.467
 4286W        W 8337   4.995   8.831  11.762
 4287W        W 8338   2.775   2.261   2.971
 4288W        W 8339   6.609   5.855  11.780
 4289W        W 8340   7.536   6.895   0.836
 4290W        W 8341   5.326   0.315  11.543
 4291W        W 8342   9.160   2.824   2.855
 4292W        W 8343   1.826  11.330   2.996
 4293W        W 8344   4.244   9.558  11.961
 4294W        W 8345   8.999   4.082  11.170
 4295W        W 8346   1.798   9.184   2.299
 4296W        W 8347   6.893   9.409   2.442
 4297W        W 8348   8.365   1.599   1.345
 4298W        W 8349   6.970   6.982  10.971
 4299W        W 8350   9.043   3.047   3.281
 4300W        W 8351   3.568   9.339   0.854
 4301W        W 8352   8.360   1.115   2.200
 4302W        W 8353   6.960   4.644   1.225
 4303W        W 8354   1.817   8.961   0.821
 4304W        W 8355   3.635   1.763   1.731
 4305W        W 8356   5.638   1.854  11.455
 4306W        W 8357   4.224   3.131   9.620
 4307W        W 8358   8.611   2.761   8.650
 4308W        W 8359  10.656   2.274  10.508
 4309W        W 8360   5.876  10.727   8.490
 4310W        W 8361   9.359  10.799   9.845
 4311W        W 8362   1.767  10.901   0.001
 4312W        W 8363   2.751   5.651  11.244
 4313W        W 8364   0.172   2.397   9.611
 4314W        W 8365   4.440   8.660  10.892
 4315W        W 8366   9.102   2.411   1.693
 4316W        W 8367   0.543   2.895   1.919
 4317W        W 8368   2.367   2.581   9.667
 4318W        W 8369   2.813  11.470   3.239
 4319W        W 8370   3.642   0.769   0.917
 4320W        W 8371   1.848  10.004  11.772
 4321W        W 8372   2.000  10.565   8.703
 4322W        W 8373   0.999   0.641   9.880
 4323W        W 8374   8.507   5.352   0.854
 4324W        W 8375   6.824   7.516   8.656
 4325W        W 8376  10.480   5.466  11.924
 4326W        W 8377   5.096   7.225   2.176
 4327W        W 8378   1.194   2.654   9.928
 4328W        W 8379  10.021   6.841   4.344
 4329W        W 8380  10.777   5.072   8.926
 4330W        W 8381   4.149   6.510   4.193
 4331W        W 8382   0.626  11.224   8.594
 4332W        W 8383   5.571   7.996  10.745
 4333W        W 8384   8.719   7.133   2.083
 4334W        W 8385  10.955   0.810  10.885
 4335W        W 8386   6.747   6.092   0.221
 4336W        W 8387  10.272  11.413  11.413
 4337W        W 8388   8.422   1.670   9.955
 4338W        W 8389   3.222   3.064   2.718
 4339W        W 8390   3.602   9.034   0.037
 4340W        W 8391   8.646   9.652  10.579
 4341W        W 8392   9.956  11.332  10.549
 4342W        W 8393  10.875   5.087   9.818
 4343W        W 8394   7.150  11.342   9.874
 4344W        W 8395  10.510   6.520   0.846
 4345W        W 8396   5.426  10.789   2.220
 4346W        W 8397   9.917   9.234  11.866
 4347W        W 8398  10.184   7.955  10.970
 4348W        W 8399   1.062  10.671   8.956
 4349W        W 8400  11.381   2.277   2.367
 4350W        W 8401   5.220   1.788   1.776
 4351W        W 8402   0.382   8.504  11.024
 4352W        W 8403   0.491   8.102   2.644
 4353W        W 8404   8.451   7.223   8.951
 4354W        W 8405   8.395   5.133   1.324
 4355W        W 8406   0.305   7.461   0.512
 4356W        W 8407  10.160   6.999   3.550
 4357W        W 8408   3.115   2.578   2.710
 4358W        W 8409   5.576   7.230   0.268
 4359W        W 8410   2.403  10.964   2.671
 4360W        W 8411  11.300   9.110   2.918
 4361W        W 8412   9.338   9.350   1.305
 4362W        W 8413  11.452   4.170  10.679
 4363W        W 8414   0.978   8.050   1.476
 4364W        W 8415   1.470   9.565   3.510
 4365W        W 8416   6.537   3.386  11.940
 4366W        W 8417   4.292   0.353   9.451
 4367W        W 8418   4.028   0.009   1.633
 4368W        W 8419   8.359   4.187  10.430
 4369W        W 8420   7.590   8.582   2.803
 4370W        W 8421  10.342   1.019  10.316
 4371W        W 8422   7.688   6.677   2.963
 4372W        W 8423   6.061   4.529  10.813
 4373W        W 8424  11.444   2.210   2.875
 4374W        W 8425   9.277   6.474   0.564
 4375W        W 8426   9.877   7.914  10.559
 4376W        W 8427  10.596   1.772  11.412
 4377W        W 8428   6.231   6.568  11.722
 4378W        W 8429   6.192   1.380  10.456
 4379W        W 8430   4.555  10.931  11.561
 4380W        W 8431   9.858   8.051   1.772
 4381W        W 8432   6.142   9.170   1.280
 4382W        W 8433   5.558   7.024  10.872
 4383W        W 8434   0.506   7.390  11.435
 4384W        W 8435   0.643   4.222   2.703
 4385W        W 8436   1.995   5.686   8.637
 4386W        W 8437   3.555   1.783   9.886
 4387W        W 8438   5.457   5.643  10.502
 4388W        W 8439   6.366   9.578   1.542
 4389W        W 8440   0.886   4.587   0.975
 4390W        W 8441  10.418   7.466   3.629
 4391W        W 8442   6.272   4.159   2.724
 4392W        W 8443   2.451   2.634  11.053
 4393W        W 8444   1.687   7.398   0.742
 4394W        W 8445   1.688   3.305   1.009
 4395W        W 8446   0.015  10.874   8.983
 4396W        W 8447   7.424  10.073   0.902
 4397W        W 8448   9.480   1.034   2.229
 4398W        W 8449   1.222   4.253   0.504
 4399W        W 8450   5.598   4.356  11.845
 4400W        W 8451   8.413   2.305   9.540
 4401W        W 8452   1.805   1.052   1.574
 4402W        W 8453   8.733   2.131   0.770
 4403W        W 8454   4.516   2.225  10.905
 4404W        W 8455   1.494  11.183   8.967
 4405W        W 8456   9.887   9.116   2.780
 4406W        W 8457   8.480   4.842   0.875
 4407W        W 8458   0.407   0.251  11.757
 4408W        W 8459   5.294   7.487   1.336
 4409W        W 8460  10.528   1.744   2.822
 4410W        W 8461   7.918   6.537   0.826
 4411W        W 8462   6.012   5.240  10.076
 4412W        W 8463   4.680   5.298  11.737
 4413W        W 8464   8.664   2.116   9.985
 4414W        W 8465   1.692  11.369   9.824
 4415W        W 8466  11.393  10.351   9.586
 4416W        W 8467   2.836  11.153  10.346
 4417W        W 8468   4.371   0.102   2.035
 4418W        W 8469   5.514   9.359  10.283
 4419W        W 8470   5.628   0.286   1.370
 4420W        W 8471   7.860   1.034   0.949
 4421W        W 8472   7.752   9.964   8.795
 4422W        W 8473   1.774  10.993   1.616
 4423W        W 8474   1.173   7.925   9.948
 4424W        W 8475   4.548   9.381   3.592
 4425W        W 8476   6.084   6.650   0.895
 4426W        W 8477   8.213   7.083   2.127
 4427W        W 8478   0.310   4.797   2.154
 4428W        W 8479   4.678   9.792  10.207
 4429W        W 8480   0.395   0.210  10.178
 4430W        W 8481  11.140   0.880  11.360
 4431W        W 8482   7.620   9.859   2.365
 4432W        W 8483   5.202   9.803   8.400
 4433W        W 8484   4.162   9.221   9.018
 4434W        W 8485   5.055   2.960   0.073
 4435W        W 8486   3.500   5.997   3.061
 4436W        W 8487  10.321  10.123   0.786
 4437W        W 8488   3.122   5.270  11.327
 4438W        W 8489   0.488  10.854   9.842
 4439W        W 8490   2.307   5.539  11.050
 4440W        W 8491   6.670   0.538  10.683
 4441W        W 8492   1.218   0.486   0.407
 4442W        W 8493   3.311   7.955   1.827
 4443W        W 8494   0.953   2.965   2.225
 4444W        W 8495   2.745   5.555   9.777
 4445W        W 8496   3.549   0.614   1.843
 4446W        W 8497  10.303   1.806   3.334
 4447W        W 8498   7.615   0.406   0.911
 4448W        W 8499  10.762   3.016  10.882
 4449W        W 8500   8.284   1.406   8.838
 4450W        W 8501   7.965   8.700   9.537
 4451W        W 8502   3.397   9.966   9.380
 4452W        W 8503  10.834  10.892  10.324
 4453W        W 8504   0.229   1.916   1.919
 4454W        W 8505   0.598   9.431  10.881
 4455W        W 8506  10.680   2.614   8.725
 4456W        W 8507   6.936  10.390   2.860
 4457W        W 8508   4.570   4.797   0.970
 4458W        W 8509   8.511   3.953  10.876
 4459W        W 8510   8.346   2.166   0.388
 4460W        W 8511   0.845   7.327   2.677
 4461W        W 8512   8.208   3.704   8.649
 4462W        W 8513   3.512   7.612   0.621
 4463W        W 8514   1.607   1.041   9.160
 4464W        W 8515   6.216  10.300   8.601
 4465W        W 8516  11.250   3.854   2.412
 4466W        W 8517  10.395   0.019  10.255
 4467W        W 8518   8.363   8.038   1.173
 4468W        W 8519   0.072   9.542  11.857
 4469W        W 8520   5.298  10.383   1.268
 4470W        W 8521   5.614  10.439  11.706
 4471W        W 8522   2.922   9.615   0.306
 4472W        W 8523   8.170   2.756   0.323
 4473W        W 8524   1.371   4.766   2.921
 4474W        W 8525   2.823   6.399   9.983
 4475W        W 8526  10.824  10.888  11.845
 4476W        W 8527   8.041   9.371   8.383
 4477W        W 8528   9.442   5.311  11.269
 4478W        W 8529   8.967   5.261   3.473
 4479W        W 8530   3.423   2.221   1.678
 4480W        W 8531  10.487  10.817   2.743
 4481W        W 8532  10.417  11.303   9.770
 4482W        W 8533   1.317   4.724  10.324
 4483W        W 8534   2.700   0.062  11.322
 4484W        W 8535   8.144   2.742  11.789
 4485W        W 8536   1.353   7.019  11.071
 4486W        W 8537   1.483   6.282  11.633
 4487W        W 8538   2.195   5.784  11.876
 4488W        W 8539  11.362   8.897  11.780
 4489W        W 8540   9.983   2.928   2.748
 4490W        W 8541   4.500   3.025   3.156
 4491W        W 8542   9.936   3.202   9.277
 4492W        W 8543  10.880   3.111   1.491
 4493W        W 8544   9.200   3.605  11.246
 4494W        W 8545   3.501   2.280  11.079
 4495W        W 8546   7.980   0.318   9.918
 4496W        W 8547   2.092   0.872   9.147
 4497W        W 8548   1.923   3.131   9.667
 4498W        W 8549  10.261  11.326   1.176
 4499W        W 8550   6.641  11.368   1.998
 4500W        W 8551   4.049   2.998   9.157
 4501W        W 8552   3.973   0.974  10.795
 4502W        W 8553   1.717   2.231  11.348
 4503W        W 8554   3.194   0.716  11.818
 4504W        W 8555   3.330   6.542   9.834
 4505W        W 8556   8.695   9.018  10.233
 4506W        W 8557   5.679   4.290   8.137
 4507W        W 8558   5.871  10.944   0.460
 4508W        W 8559   0.197   0.348   2.505
 4509W        W 8560   5.559   9.690   0.713
 4510W        W 8561   1.302   3.842   3.368
 4511W        W 8562   9.044  10.555   0.169
 4512W        W 8563   2.863   1.363   9.010
 4513W        W 8564   9.509   0.999  10.314
 4514W        W 8565   7.039   1.729   1.188
 4515W        W 8566   1.227   0.199   9.092
 4516W        W 8567   8.956   7.177   1.639
 4517W        W 8568  11.275   9.340  10.504
 4518W        W 8569   9.112   9.545   3.187
 4519W        W 8570   3.935   6.963   2.400
 4520W        W 8571   3.742   7.100  10.121
 4521W        W 8572   4.634   6.429   3.918
 4522W        W 8573   4.754   7.529   9.561
 4523W        W 8574   7.060   8.778  11.597
 4524W        W 8575   1.301  10.532  10.857
 4525W        W 8576   5.727   8.437   8.633
 4526W        W 8577   9.374   1.096   0.188
 4527W        W 8578   1.995   6.992   0.820
 4528W        W 8579   1.137   7.074   9.463
 4529W        W 8580   5.844   5.292  10.570
 4530W        W 8581   6.934   8.720   1.017
 4531W        W 8582   4.036   7.571  10.540
 4532W        W 8583   6.061   2.826   1.267
 4533W        W 8584  11.456   5.147  11.624
 4534W        W 8585   6.690   9.548   1.951
 4535W        W 8586   6.876   8.146  11.838
 4536W        W 8587   4.363   7.005   2.117
 4537W        W 8588   6.117   7.363   1.846
 4538W        W 8589   6.209   0.478  10.358
 4539W        W 8590   9.624   7.927   0.851
 4540W        W 8591   9.902   3.839  10.785
 4541W        W 8592  11.205   1.345   0.029
 4542W        W 8593   6.047   2.520   9.093
 4543W        W 8594  11.375   2.484  11.545
 4544W        W 8595   3.118   6.627   2.036
 4545W        W 8596   6.288   8.939   9.078
 4546W        W 8597   6.851   0.265  11.966
 4547W        W 8598   2.323   0.947  10.424
 4548W        W 8599   7.108   0.258  10.483
 4549W        W 8600   8.094   8.426  10.470
 4550W        W 8601   7.948   3.311  10.152
 4551W        W 8602   9.630  10.344   3.237
 4552W        W 8603   2.561   8.106   8.921
 4553W        W 8604   7.918   3.227   9.646
 4554W        W 8605   9.811   6.129   1.087
 4555W        W 8606   2.494   6.536   9.614
 4556W        W 8607   4.634   9.538  11.185
 4557W        W 8608   6.047   4.408   8.481
 4558W        W 8609   7.730   7.951   9.670
 4559W        W 8610   1.211  11.477   0.939
 4560W        W 8611   6.614  10.790   9.783
 4561W        W 8612   4.608   6.316   8.796
 4562W        W 8613   8.608   9.478   2.981
 4563W        W 8614   5.063  11.017  11.566
 4564W        W 8615   4.589  11.224   0.827
 4565W        W 8616   0.011   9.934   3.159
 4566W        W 8617   4.560   3.347   2.750
 4567W        W 8618   3.303   7.169   0.732
 4568W        W 8619   3.052   9.875   2.861
 4569W        W 8620  10.763  10.321   1.875
 4570W        W 8621   7.560   7.156   2.814
 4571W        W 8622  10.476   6.533   9.427
 4572W        W 8623  11.441   6.809  10.924
 4573W        W 8624   1.273   8.750  10.571
 4574W        W 8625   3.342   9.275   8.728
 4575W        W 8626   8.881   3.062  10.000
 4576W        W 8627   9.642   5.773   9.882
 4577W        W 8628   9.448   6.094   3.418
 4578W        W 8629   2.677   2.293  11.368
 4579W        W 8630   1.480   2.669  11.474
 4580W        W 8631   9.910   8.329  10.285
 4581W        W 8632   9.723   4.768   9.689
 4582W        W 8633   8.103   2.269  11.949
 4583W        W 8634   9.823   4.111  10.042
 4584W        W 8635   2.335  10.135  11.890
 4585W        W 8636   1.305   5.520  10.525
 4586W        W 8637   7.456   1.209  10.883
 4587W        W 8638  10.031   2.623   3.237
 4588W        W 8639   2.153   6.745  11.745
 4589W        W 8640   1.736   4.085   3.465
 4590W        W 8641   5.968   9.106   2.136
 4591W        W 8642  10.432   2.719   2.883
 4592W        W 8643  10.887   8.662   0.410
 4593W        W 8644   6.449  10.702   3.328
 4594W        W 8645   9.363   0.819   1.319
 4595W        W 8646   9.324   3.956   3.518
 4596W        W 8647   4.571  10.800  10.208
 4597W        W 8648   6.358  10.755   0.880
 4598W        W 8649   9.450  11.002   8.473
 4599W        W 8650  10.928   4.103   3.261
 4600W        W 8651   0.753   8.587   8.983
 4601W        W 8652   0.425   5.647   2.363
 4602W        W 8653   4.635   3.202  10.856
 4603W        W 8654  10.293  10.140  10.551
 4604W        W 8655  11.409   4.408   1.164
 4605W        W 8656   8.027   9.927   1.895
 4606W        W 8657   9.950   4.346   2.869
 4607W        W 8658   2.224   4.864   1.685
 4608W        W 8659   6.487   0.687   9.995
 4609W        W 8660   8.596   6.668   9.237
 4610W        W 8661   5.843   3.339  10.353
 4611W        W 8662   7.206   6.149   1.182
 4612W        W 8663   4.206   6.699   9.464
 4613W        W 8664   8.568   2.036   3.599
 4614W        W 8665   7.319   4.290  11.493
 4615W        W 8666   4.240   0.555  10.878
 4616W        W 8667   9.291   3.385   0.018
 4617W        W 8668   0.297   2.686  10.082
 4618W        W 8669   3.753   2.190   9.598
 4619W        W 8670   7.425  11.301   9.447
 4620W        W 8671   0.148   2.254  11.941
 4621W        W 8672   7.995  11.279   1.968
 4622W        W 8673   1.397   8.385   9.722
 4623W        W 8674   2.326   7.691   9.731
 4624W        W 8675   4.969   2.804   2.295
 4625W        W 8676   5.502   7.034   1.151
 4626W        W 8677   5.725   4.251   2.719
 4627W        W 8678   8.868   9.297   1.060
 4628W        W 8679   8.333   0.202   2.499
 4629W        W 8680   2.774   4.726  10.894
 4630W        W 8681   5.178   9.333  11.518
 4631W        W 8682   6.046   0.366   2.822
 4632W        W 8683   4.242   7.541   9.583
 4633W        W 8684   2.336   3.450   9.502
 4634W        W 8685  11.318  11.238   1.294
 4635W        W 8686   8.317  10.879   3.246
 4636W        W 8687   1.302   2.571   8.704
 4637W        W 8688   2.641   8.641   2.186
 4638W        W 8689  10.091   9.782   0.475
 4639W        W 8690   1.854   2.033  11.927
 4640W        W 8691   5.781   1.230   8.941
 4641W        W 8692   1.836   3.675  10.498
 4642W        W 8693   4.618   3.174   9.972
 4643W        W 8694   5.698   3.639  10.982
 4644W        W 8695   6.434   8.273  10.873
 4645W        W 8696   9.230  11.091   3.175
 4646W        W 8697   1.152   3.120   8.692
 4647W        W 8698   7.708   8.597   2.290
 4648W        W 8699  10.953   8.596   9.334
 4649W        W 8700   3.132   0.818   0.752
 4650W        W 8701   4.727   9.089  10.912
 4651W        W 8702   3.089   0.878   9.090
 4652W        W 8703   6.310   8.862  11.978
 4653W        W 8704   5.121  10.603   3.199
 4654W        W 8705  11.312   2.595   9.992
 4655W        W 8706   8.070   0.976   9.102
 4656W        W 8707   6.724   7.719  11.577
 4657W        W 8708   2.164   9.826   0.748
 4658W        W 8709   0.361  10.956   2.576
 4659W        W 8710  11.043   2.604  10.452
 4660W        W 8711   7.605   5.962   0.882
 4661W        W 8712   3.161   4.355   1.221
 4662W        W 8713   2.368   4.147  11.606
 4663W        W 8714  10.113  10.289   2.231
 4664W        W 8715   7.066  10.369   2.384
 4665W        W 8716   8.209   8.569   3.405
 4666W        W 8717   1.303   9.268   8.957
 4667W        W 8718  10.852   0.849  11.819
 4668W        W 8719   6.503   0.109   2.885
 4669W        W 8720  10.391   9.038   0.093
 4670W        W 8721   2.698   1.188   0.292
 4671W        W 8722   7.874   7.711   0.845
 4672W        W 8723   7.510   4.647  10.072
 4673W        W 8724   5.683   3.591   0.302
 4674W        W 8725  10.466   3.662   1.339
 4675W        W 8726   8.246   2.444   1.956
 4676W        W 8727  11.470   9.012   9.070
 4677W        W 8728   3.237   3.340   9.478
 4678W        W 8729   1.672  10.671   0.431
 4679W        W 8730   2.265   4.373   1.453
 4680W        W 8731   0.551   7.075   0.242
 4681W        W 8732  11.050   7.154   9.061
 4682W        W 8733  10.121   9.117   0.932
 4683W        W 8734   1.597   3.474   3.526
 4684W        W 8735   4.787   0.454  11.533
 4685W        W 8736   0.829  10.899   0.228
 4686W        W 8737   9.541   2.369   0.960
 4687W        W 8738   2.866  10.857   8.483
 4688W        W 8739   5.016   9.505   3.441
 4689W        W 8740   7.987   8.456   0.347
 4690W        W 8741   0.573   2.287   0.249
 4691W        W 8742   0.778   7.369   3.556
 4692W        W 8743   8.247   2.119   8.664
 4693W        W 8744   8.583   8.479   2.482
 4694W        W 8745   6.150   6.214  10.296
 4695W        W 8746   0.268   5.273  10.260
 4696W        W 8747   9.818   9.475  11.136
 4697W        W 8748  10.363   0.735   2.786
 4698W        W 8749   2.889   5.049   2.164
 4699W        W 8750   5.010  11.061  10.310
 4700W        W 8751   4.062  10.394  10.336
 4701W        W 8752   9.612  10.995  10.332
 4702W        W 8753   2.963   4.963   1.674
 4703W        W 8754  10.129   3.763  11.224
 4704W        W 8755   5.089  10.969   1.477
 4705W        W 8756   7.485   0.589  10.643
 4706W        W 8757   6.741   6.298  10.513
 4707W        W 8758   6.212   7.137   0.989
 4708W        W 8759   0.139   4.303   2.573
 4709W        W 8760   7.039   1.429   2.182
 4710W        W 8761   2.946   6.894   0.985
 4711W        W 8762  10.565   0.769   1.898
 4712W        W 8763   9.613   1.723  11.562
 4713W        W 8764   2.433   7.023   0.549
 4714W        W 8765   3.237   9.594  10.057
 4715W        W 8766  10.461   8.888   9.180
 4716W        W 8767   5.136  10.502  11.520
 4717W        W 8768   4.794   5.253   1.270
 4718W        W 8769   8.052   0.663   2.247
 4719W        W 8770   0.572   8.670   0.916
 4720W        W 8771   3.546   4.639   3.571
 4721W        W 8772   6.161   5.205   1.045
 4722W        W 8773   2.055   9.145   1.469
 4723W        W 8774   4.881   0.956   9.296
 4724W        W 8775   0.896   2.414   0.708
 4725W        W 8776   8.619   4.667   9.527
 4726W        W 8777   7.270  10.013  11.070
 4727W        W 8778   4.259   7.156  10.289
 4728W        W 8779   7.375   0.892  10.231
 4729W        W 8780   2.574   4.260  10.720
 4730W        W 8781   0.439  10.769   1.625
 4731W        W 8782   9.746   6.597  10.832
 4732W        W 8783   5.873   6.915   3.543
 4733W        W 8784   5.640   4.508   3.450
 4734W        W 8785  10.661   9.598  11.341
 4735W        W 8786   1.550   6.925   0.547
 4736W        W 8787  10.345   3.617   2.366
 4737W        W 8788   8.789  10.922   3.031
 4738W        W 8789   6.364   0.731   9.519
 4739W        W 8790   9.847   0.391  11.840
 4740W        W 8791   6.041   2.656   9.957
 4741W        W 8792   3.103   1.078   2.998
 4742W        W 8793   1.616   0.719  10.024
 4743W        W 8794   4.755   5.235   1.793
 4744W        W 8795   1.836   0.440  11.767
 4745W        W 8796   1.706   3.374  11.956
 4746W        W 8797  11.417   6.173  10.958
 4747W        W 8798   0.730   9.569   1.042
 4748W        W 8799   6.110   7.867   1.882
 4749W        W 8800   1.210   8.262  10.715
 4750W        W 8801   2.705   0.392  11.754
 4751W        W 8802   5.583   6.602   0.881
 4752W        W 8803   0.254   6.167   0.999
 4753W        W 8804   1.723   9.541   9.107
 4754W        W 8805   7.747   6.656  11.886
 4755W        W 8806   9.977   8.045   9.101
 4756W        W 8807   1.861   7.192   8.888
 4757W        W 8808   7.362  11.293  10.338
 4758W        W 8809   4.813  10.866  11.997
 4759W        W 8810   1.369  10.700   2.813
 4760W        W 8811   8.523   9.936   3.211
 4761W        W 8812   8.240  11.420   3.374
 4762W        W 8813   8.008   0.226   1.345
 4763W        W 8814   4.714   2.209  10.061
 4764W        W 8815   2.258   5.702   2.212
 4765W        W 8816   4.358   1.875  10.161
 4766W        W 8817   9.371  10.116   9.369
 4767W        W 8818   1.381   1.472   0.426
 4768W        W 8819  10.424   5.509   8.788
 4769W        W 8820   5.719  11.338   2.353
 4770W        W 8821  10.267   5.157   1.320
 4771W        W 8822   3.660   8.245   2.698
 4772W        W 8823   2.627   9.126   2.429
 4773W        W 8824   5.067   6.117   1.427
 4774W        W 8825  11.464   4.784  10.050
 4775W        W 8826   2.480   7.167   3.644
 4776W        W 8827   0.751   7.596  10.178
 4777W        W 8828   7.998   0.488   8.912
 4778W        W 8829   1.884  11.269   3.507
 4779W        W 8830   1.015  10.542   1.037
 4780W        W 8831   0.194   9.341   0.461
 4781W        W 8832   9.006   3.438   1.904
 4782W        W 8833   9.687   3.776   0.107
 4783W        W 8834   5.943   1.607  11.752
 4784W        W 8835  10.017   5.398   1.678
 4785W        W 8836   6.092   6.390   1.767
 4786W        W 8837  10.406   5.779  10.965
 4787W        W 8838   6.535   4.366   1.359
 4788W        W 8839   8.187   3.722   2.804
 4789W        W 8840   0.913  11.236   3.554
 4790W        W 8841   3.785   9.825   3.554
 4791W        W 8842  11.220   1.211  10.171
 4792W        W 8843   5.293  10.737  11.956
 4793W        W 8844   6.281   1.469  11.412
 4794W        W 8845   3.204   7.233  11.867
 4795W        W 8846   5.908  11.089  10.375
 4796W        W 8847  11.101  11.232   2.184
 4797W        W 8848   6.054   7.536   0.729
 4798W        W 8849   6.512   9.873   0.858
 4799W        W 8850   1.972   3.221   2.309
 4800W        W 8851   2.894   2.265   1.712
 4801W        W 8852  10.069   9.922   1.389
 4802W        W 8853   1.980  10.444   0.087
 4803W        W 8854   6.123   8.552   9.415
 4804W        W 8855   0.882   2.838   2.712
 4805W        W 8856  10.854   2.223   9.230
 4806W        W 8857   4.124   1.045   3.600
 4807W        W 8858   2.276   3.123  11.278
 4808W        W 8859  10.721   0.086   2.246
 4809W        W 8860   2.568  11.375  11.799
 4810W        W 8861   0.923   1.392   2.845
 4811W        W 8862   1.249   1.049  10.086
 4812W        W 8863   3.123   1.189  11.993
 4813W        W 8864   8.561   3.578   0.383
 4814W        W 8865  11.456   3.864   0.504
 4815W        W 8866  10.423   5.320   9.833
 4816W        W 8867   2.232   5.246   8.551
 4817W        W 8868   2.653   5.042   3.224
 4818W        W 8869   6.534   3.919  11.894
 4819W        W 8870   8.512   9.436   2.466
 4820W        W 8871   8.167   2.393   1.438
 4821W        W 8872   0.211   9.520   0.974
 4822W        W 8873   3.250   1.584  10.898
 4823W        W 8874   1.982  11.471  10.467
 4824W        W 8875   7.032   9.370   8.412
 4825W        W 8876   7.288   4.259   2.747
 4826W        W 8877   9.898  11.423  11.049
 4827W        W 8878   8.482   0.929  11.677
 4828W        W 8879   4.748   3.691   9.133
 4829W        W 8880   5.936   9.600   2.979
 4830W        W 8881   8.990   1.730   9.759
 4831W        W 8882   5.700   6.392   3.098
 4832W        W 8883   6.983   2.268  10.543
 4833W        W 8884   5.269   4.546   8.344
 4834W        W 8885   2.674   7.036   8.548
 4835W        W 8886   4.656   4.825  10.488
 4836W        W 8887   7.931   6.242   9.765
 4837W        W 8888   3.475  11.218   2.152
 4838W        W 8889  11.257   2.046   9.506
 4839W        W 8890  10.324   0.531  10.197
 4840W        W 8891  10.489   8.352   0.583
 4841W        W 8892   4.539   2.342   0.528
 4842W        W 8893   6.984   8.942   1.750
 4843W        W 8894   5.131   2.605   9.037
 4844W        W 8895   6.885   2.790   2.353
 4845W        W 8896   2.595   1.007   0.753
 4846W        W 8897  10.560   3.496  11.244
 4847W        W 8898   9.698   4.146   0.464
 4848W        W 8899   6.122   8.115   1.414
 4849W        W 8900   3.168  11.249   1.043
 4850W        W 8901   0.224  10.026   0.896
 4851W        W 8902   5.715  10.512   1.620
 4852W        W 8903   6.941   2.991   0.934
 4853W        W 8904  10.463   4.886  10.794
 4854W        W 8905   3.440  10.855   1.265
 4855W        W 8906   8.039   2.318   2.424
 4856W        W 8907   8.307   0.226   1.982
 4857W        W 8908   2.419   5.134  10.777
 4858W        W 8909   1.884   9.668   2.088
 4859W        W 8910   2.262  10.511   9.617
 4860W        W 8911   3.064   9.415   2.630
 4861W        W 8912   6.807   2.581   2.819
 4862W        W 8913  10.679   5.554   3.247
 4863W        W 8914   6.946   8.192   1.072
 4864W        W 8915   3.911   8.762   0.471
 4865W        W 8916   8.522  10.900   8.992
 4866W        W 8917   9.846  10.931  10.857
 4867W        W 8918   0.192  11.347   8.865
 4868W        W 8919   9.391   7.515   2.505
 4869W        W 8920  11.444   6.531   1.363
 4870W        W 8921  10.378   3.139   3.171
 4871W        W 8922   4.896   1.757   2.191
 4872W        W 8923  10.311   4.567  11.905
 4873W        W 8924   7.565   1.985   3.128
 4874W        W 8925   6.114   8.381   1.861
 4875W        W 8926  10.809   0.610   2.320
 4876W        W 8927   3.842   1.422   2.788
 4877W        W 8928   1.457   6.084   0.562
 4878W        W 8929   6.133   5.066   0.043
 4879W        W 8930   7.056   5.146   1.170
 4880W        W 8931   2.230  10.334   1.146
 4881W        W 8932   8.845   1.334   2.275
 4882W        W 8933   8.550  10.385   9.943
 4883W        W 8934   0.645   0.602  11.432
 4884W        W 8935   1.454   4.080   2.327
 4885W        W 8936   4.086   6.352   8.093
 4886W        W 8937   8.959   2.004   3.268
 4887W        W 8938   2.153   2.333   2.333
 4888W        W 8939  10.608   0.324   9.803
 4889W        W 8940   0.808   9.500  10.391
 4890W        W 8941   3.615   7.483  11.253
 4891W        W 8942   7.684   5.066  11.076
 4892W        W 8943   3.132   6.782   8.521
 4893W        W 8944   0.903   8.001   0.578
 4894W        W 8945   5.935   2.587   3.623
 4895W        W 8946   3.154   7.589  10.512
 4896W        W 8947   8.363  10.900   9.983
 4897W        W 8948   9.576  10.850   8.953
 4898W        W 8949   3.503   9.011   9.406
 4899W        W 8950   7.762   3.594   1.883
 4900W        W 8951   2.951   1.156  10.904
 4901W        W 8952   2.289   7.400  11.066
 4902W        W 8953   7.946   5.526  10.355
 4903W        W 8954   5.152   8.649   1.659
 4904W        W 8955  11.469   2.066   9.960
 4905W        W 8956   6.559   1.437   0.362
 4906W        W 8957   2.608   5.775   0.237
 4907W        W 8958   0.835   3.550  11.960
 4908W        W 8959   3.695   6.268   8.973
 4909W        W 8960   0.877   9.519   9.105
 4910W        W 8961  10.116   6.600   3.865
 4911W        W 8962   4.674   7.513  11.075
 4912W        W 8963   7.113   8.029   0.321
 4913W        W 8964  10.028   5.166   9.524
 4914W        W 8965   0.323   1.670   2.356
 4915W        W 8966   2.837   1.461   2.763
 4916W        W 8967   1.479  10.375   2.199
 4917W        W 8968  11.435   6.997  11.434
 4918W        W 8969   9.479   3.456   2.138
 4919W        W 8970   9.077   0.833   9.368
 4920W        W 8971   3.681  10.329   1.202
 4921W        W 8972  10.896   2.224  11.425
 4922W        W 8973  10.416   0.110   9.367
 4923W        W 8974   9.266   6.089   2.427
 4924W        W 8975   6.803   7.491   3.156
 4925W        W 8976   6.214  11.369   1.693
 4926W        W 8977   6.473   5.819   9.649
 4927W        W 8978   7.162   2.702   1.331
 4928W        W 8979  10.235   6.513   1.928
 4929W        W 8980   0.775   5.760  11.043
 4930W        W 8981   5.467   2.856   2.419
 4931W        W 8982   7.510   0.488   0.421
 4932W        W 8983   1.123   6.029   0.941
 4933W        W 8984   3.521   8.486   3.147
 4934W        W 8985  10.189   1.160   0.058
 4935W        W 8986   2.791   1.877   0.666
 4936W        W 8987   3.214  10.466   9.525
 4937W        W 8988   3.911   7.002  11.152
 4938W        W 8989   7.451   1.960  10.499
 4939W        W 8990   4.077   2.493   8.996
 4940W        W 8991   3.385   9.872  11.936
 4941W        W 8992   8.740   3.838   1.696
 4942W        W 8993   7.999   6.327   2.740
 4943W        W 8994   1.153  10.454  11.977
 4944W        W 8995  10.421   7.441   0.162
 4945W        W 8996  10.884   1.600   2.422
 4946W        W 8997   9.965   9.079   0.358
 4947W        W 8998   9.627   4.201   8.949
 4948W        W 8999   2.643   1.349  11.274
 4949W        W 9000   4.170  11.014   1.712
 4950W        W 9001   6.965   0.810   3.080
 4951W        W 9002   8.468   8.856   1.653
 4952W        W 9003   1.798   3.044   2.747
 4953W        W 9004  11.466   2.879  10.435
 4954W        W 9005   8.899   7.775  10.605
 4955W        W 9006   5.979  10.491   1.161
 4956W        W 9007   2.820  11.400   2.684
 4957W        W 9008   2.602   2.441   1.277
 4958W        W 9009  10.366   7.389   2.441
 4959W        W 9010   9.365   4.853   2.276
 4960W        W 9011   2.912   5.105   1.195
 4961W        W 9012  10.387   1.631  10.957
 4962W        W 9013  10.873   6.197   3.221
 4963W        W 9014   1.233   4.290   9.395
 4964W        W 9015   1.412   0.330   1.969
 4965W        W 9016   7.183   7.930  11.484
 4966W        W 9017   3.807   8.172   1.926
 4967W        W 9018   1.694   8.142   2.278
 4968W        W 9019   5.861   7.261  11.790
 4969W        W 9020   0.565   3.366   3.322
 4970W        W 9021   2.175   5.789   3.261
 4971W        W 9022  10.240  11.400   2.379
 4972W        W 9023   6.471   0.931  10.429
 4973W        W 9024   6.458   6.117   2.030
 4974W        W 9025  10.146   5.071  11.894
 4975W        W 9026  11.000   4.965  10.802
 4976W        W 9027   8.837   6.371   8.293
 4977W        W 9028   1.759   4.994   0.771
 4978W        W 9029   6.353   5.711   0.260
 4979W        W 9030   6.622   4.955  11.959
 4980W        W 9031   6.265  10.461   1.648
 4981W        W 9032  11.065   0.531   9.906
 4982W        W 9033  10.180   3.667   0.168
 4983W        W 9034   5.242   6.724   2.219
 4984W        W 9035   9.362   5.961   9.490
 4985W        W 9036   0.400   9.017  11.539
 4986W        W 9037   2.359   3.679   0.361
 4987W        W 9038   4.943   9.992   9.176
 4988W        W 9039   9.123   5.503   9.526
 4989W        W 9040   1.745   6.730   9.903
 4990W        W 9041   4.722  11.449  11.537
 4991W        W 9042   7.059   5.544  11.160
 4992W        W 9043   2.485   4.128   2.269
 4993W        W 9044   6.714  11.087   3.564
 4994W        W 9045   7.926   5.924  11.446
 4995W        W 9046   6.721   7.960   0.657
 4996W        W 9047   3.499   7.924   2.303
 4997W        W 9048   8.396   6.095  11.397
 4998W        W 9049  11.448   6.504   9.940
 4999W        W 9050   1.946   2.688   9.389
 5000W        W 9051   7.389   9.660   8.609
 5001W        W 9052   5.796   6.631   1.376
 5002W        W 9053  11.293   2.081   9.001
 5003W        W 9054   8.296  10.537  11.487
 5004W        W 9055   0.185   8.090  11.276
 5005W        W 9056   9.975   5.174   3.510
 5006W        W 9057   0.934   8.991   3.607
 5007W        W 9058   2.875   6.544  11.942
 5008W        W 9059   7.297  10.484  11.340
 5009W        W 9060   4.103   0.090   3.504
 5010W        W 9061   8.011   6.866   1.266
 5011W        W 9062   8.640   4.049   2.671
 5012W        W 9063   3.657  11.218   0.823
 5013W        W 9064   0.696   7.724   2.376
 5014W        W 9065   5.492   9.420   3.644
 5015W        W 9066   1.059   9.649  10.877
 5016W        W 9067   7.434   2.621   9.860
 5017W        W 9068   4.173   6.046   1.682
 5018W        W 9069   7.529  11.047   2.673
 5019W        W 9070   8.535   7.419  10.754
 5020W        W 9071   6.534   6.152   8.232
 5021W        W 9072   2.685   6.458   0.936
 5022W        W 9073   3.260   2.583   0.006
 5023W        W 9074   6.604   8.550   9.218
 5024W        W 9075   2.656  11.084   1.078
 5025W        W 9076   6.576  10.313   2.522
 5026W        W 9077   3.342   1.173   1.061
 5027W        W 9078   8.771  10.314   9.070
 5028W        W 9079   5.553   3.214   9.323
 5029W        W 9080   5.948   5.795  10.515
 5030W        W 9081  10.016   3.654  11.691
 5031W        W 9082   9.967   5.516   9.035
 5032W        W 9083   8.372   2.543   9.995
 5033W        W 9084   5.282   2.198  11.428
 5034W        W 9085   0.569   2.312  10.363
 5035W        W 9086   1.387   9.512  11.540
 5036W        W 9087   6.637   8.363   2.275
 5037W        W 9088   8.225   9.502   3.315
 5038W        W 9089   9.943   8.617   2.895
 5039W        W 9090   2.513   6.659   3.483
 5040W        W 9091   1.430   1.422   1.787
 5041W        W 9092   9.728   9.245   2.258
 5042W        W 9093   5.300   5.108  11.619
 5043W        W 9094   6.677  11.411   1.474
 5044W        W 9095   8.945   8.282   8.154
 5045W        W 9096   2.761   7.920   9.897
 5046W        W 9097   1.702   1.518   2.603
 5047W        W 9098   5.713   9.176   0.493
 5048W        W 9099  10.980   5.528  11.827
 5049W        W 9100   1.319   4.549   8.958
 5050W        W 9101   5.588   6.139  10.669
 5051W        W 9102  11.214  10.810   9.435
 5052W        W 9103   9.379   1.852   1.047
 5053W        W 9104   5.343   1.396   8.590
 5054W        W 9105   9.604   3.791   9.492
 5055W        W 9106   2.518   2.920  10.545
 5056W        W 9107   3.726   8.515   9.208
 5057W        W 9108  11.137   1.479   0.959
 5058W        W 9109   8.618  10.852  10.441
 5059W        W 9110   5.487   7.752   8.245
 5060W        W 9111   1.397   5.706   2.744
 5061W        W 9112   7.540  10.935   1.303
 5062W        W 9113   0.463   1.483   0.290
 5063W        W 9114   4.524   1.301  11.980
 5064W        W 9115   0.276   7.511   2.507
 5065W        W 9116   2.477   5.306   0.507
 5066W        W 9117   7.803   5.521  11.718
 5067W        W 9118   7.552   8.947  10.219
 5068W        W 9119   3.102   1.832  10.080
 5069W        W 9120   4.014   0.450   1.939
 5070W        W 9121   7.535   0.710  11.583
 5071W        W 9122   4.075   4.819   0.813
 5072W        W 9123   9.664   1.321   2.957
 5073W        W 9124   6.671   7.528   9.148
 5074W        W 9125   3.308   7.844   8.922
 5075W        W 9126  11.462   0.746  10.803
 5076W        W 9127   1.416   5.079   8.991
 5077W        W 9128   7.107  10.492   3.297
 5078W        W 9129   1.346   2.310   2.839
 5079W        W 9130   8.775   3.128  10.932
 5080W        W 9131   1.737   7.627  11.837
 5081W        W 9132   4.100   2.187   2.195
 5082W        W 9133  10.084   1.731  11.365
 5083W        W 9134   3.338   8.638   2.685
 5084W        W 9135   7.825   7.600   3.106
 5085W        W 9136   4.624   4.401  11.354
 5086W        W 9137  11.451   9.260  11.407
 5087W        W 9138   8.600   7.190  10.289
 5088W        W 9139   3.436   7.092  10.965
 5089W        W 9140   1.919   0.283  10.020
 5090W        W 9141   2.957  10.049   0.555
 5091W        W 9142   0.524  10.919   9.000
 5092W        W 9143   1.790   6.448   2.456
 5093W        W 9144   3.630   8.924   9.909
 5094W        W 9145   8.577   2.819   3.137
 5095W        W 9146   6.993   0.726  11.731
 5096W        W 9147   9.353  11.156  11.762
 5097W        W 9148   9.325  11.005   9.375
 5098W        W 9149   2.668   5.557   9.244
 5099W        W 9150   1.345   7.855  10.437
 5100W        W 9151   4.363   9.119   8.543
 5101W        W 9152  11.100   9.603   3.070
 5102W        W 9153   0.781   6.633   0.375
 5103W        W 9154   3.815   8.012   0.526
 5104W        W 9155   2.493   9.644  11.122
 5105W        W 9156   9.029   6.312   1.734
 5106W        W 9157   4.373   7.112   2.654
 5107W        W 9158  10.795   8.260   3.148
 5108W        W 9159   6.622   9.455   0.579
 5109W        W 9160   1.399   0.481   0.937
 5110W        W 9161   4.548   2.984   1.918
 5111W        W 9162   8.610   3.690   8.343
 5112W        W 9163   4.509   5.989  10.661
 5113W        W 9164   4.571   1.461   3.259
 5114W        W 9165   3.485   9.134   2.754
 5115W        W 9166   0.884   5.270   3.223
 5116W        W 9167   0.267  10.950   3.596
 5117W        W 9168   0.293   9.458  10.451
 5118W        W 9169   1.871  10.882   2.681
 5119W        W 9170   1.928   3.302   3.161
 5120W        W 9171  11.433  10.824   2.308
 5121W        W 9172   0.398   5.396  11.665
 5122W        W 9173   1.729  11.352   1.971
 5123W        W 9174   3.752   7.649   1.916
 5124W        W 9175   8.009   6.941  11.498
 5125W        W 9176   4.633   4.408   1.670
 5126W        W 9177  10.783   0.975  10.048
 5127W        W 9178  10.615   2.235  11.855
 5128W        W 9179   5.501   5.188  10.221
 5129W        W 9180   7.459   8.874  10.703
 5130W        W 9181   4.027   3.113  10.544
 5131W        W 9182   0.757   4.297   9.093
 5132W        W 9183   3.213   6.703   9.368
 5133W        W 9184   4.472   3.710   2.309
 5134W        W 9185  10.919   2.162   3.621
 5135W        W 9186   6.576   9.823   2.342
 5136W        W 9187   0.772   1.734   3.207
 5137W        W 9188   0.974   1.897  11.477
 5138W        W 9189   1.390   9.916  11.221
 5139W        W 9190   2.618   3.787   9.930
 5140W        W 9191   3.397   3.206  11.964
 5141W        W 9192   0.962   7.900   2.813
 5142W        W 9193   8.210   4.602   3.111
 5143W        W 9194   6.143   2.735   8.659
 5144W        W 9195  10.427   6.960   3.146
 5145W        W 9196   6.182   1.808   0.282
 5146W        W 9197  11.441   9.216   1.793
 5147W        W 9198   0.417   9.557   2.476
 5148W        W 9199   5.038   4.275   3.556
 5149W        W 9200   1.567   1.914   1.700
 5150W        W 9201   2.271   0.709   1.055
 5151W        W 9202   5.288   1.297   1.623
 5152W        W 9203   3.082   5.363   3.393
 5153W        W 9204   6.031   7.443  10.753
 5154W        W 9205  10.831   2.816  10.035
 5155W        W 9206   6.157   2.084  11.854
 5156W        W 9207   4.635   4.819  11.947
 5157W        W 9208  10.611   1.414   3.256
 5158W        W 9209   0.944   8.525   1.243
 5159W        W 9210   5.726   0.937   9.391
 5160W        W 9211   6.920   4.065   1.851
 5161W        W 9212   3.580   5.187   8.320
 5162W        W 9213   8.833  11.352   1.188
 5163W        W 9214   3.751   7.469  11.733
 5164W        W 9215   9.063   2.238  10.979
 5165W        W 9216   9.828   9.855   9.358
 5166W        W 9217   4.180   5.175   1.598
 5167W        W 9218   2.453  10.409   2.563
 5168W        W 9219   1.313   4.735   0.715
 5169W        W 9220   1.257   8.157   1.045
 5170W        W 9221   1.885   4.061  10.134
 5171W        W 9222   2.629   4.611   2.441
 5172W        W 9223   7.970   8.820  11.598
 5173W        W 9224   8.522   5.668   2.630
 5174W        W 9225  10.280   7.004   0.965
 5175W        W 9226   0.581   4.362   3.499
 5176W        W 9227   0.939   5.525   2.511
 5177W        W 9228   8.729   6.140   1.002
 5178W        W 9229   1.804   4.135   2.784
 5179W        W 9230   2.201   9.627   3.047
 5180W        W 9231   5.088   7.026   0.214
 5181W        W 9232  10.775   2.629   1.683
 5182W        W 9233   9.509   5.787   9.014
 5183W        W 9234  10.859  10.439   8.798
 5184W        W 9235   3.613   4.219   1.466
 5185W        W 9236   0.430   5.489  10.763
 5186W        W 9237   6.207   7.583   1.394
 5187W        W 9238   9.566   1.233   3.505
 5188W        W 9239   3.372   4.290   9.845
 5189W        W 9240  10.870   1.040   3.460
 5190W        W 9241   8.170   1.862   9.104
 5191W        W 9242   5.984   0.974   3.436
 5192W        W 9243   0.724  10.867  10.302
 5193W        W 9244   6.914   9.629   8.840
 5194W        W 9245  11.032   2.516   2.662
 5195W        W 9246   9.292   5.323   9.044
 5196W        W 9247   0.877   4.186  10.776
 5197W        W 9248   9.475  10.527   2.333
 5198W        W 9249   3.850   6.491  11.269
 5199W        W 9250   1.831   7.566  10.937
 5200W        W 9251   3.682   6.145   1.980
 5201W        W 9252   2.688   1.728   9.353
 5202W        W 9253   8.888   4.145  10.175
 5203W        W 9254   4.990   3.093   9.155
 5204W        W 9255   6.338   6.161   0.505
 5205W        W 9256   8.655   1.899   8.941
 5206W        W 9257   9.305  10.994   2.312
 5207W        W 9258   9.082   5.311   0.082
 5208W        W 9259   4.667   9.496   0.227
 5209W        W 9260   3.359   7.039   2.331
 5210W        W 9261   2.027   6.347   9.713
 5211W        W 9262   6.747  11.111   0.942
 5212W        W 9263   3.996   1.047   9.999
 5213W        W 9264   6.223   0.456   8.864
 5214W        W 9265   9.147   6.573  11.673
 5215W        W 9266   9.565   1.451   1.973
 5216W        W 9267   8.940   8.551   8.593
 5217W        W 9268   6.522   6.759   3.498
 5218W        W 9269  10.420   5.223   0.441
 5219W        W 9270   0.742   7.129  10.531
 5220W        W 9271   2.204   5.598  10.573
 5221W        W 9272   1.533   4.978   9.841
 5222W        W 9273   0.248   2.144  11.439
 5223W        W 9274   9.312   0.052   3.010
 5224W        W 9275   7.969   1.185   0.196
 5225W        W 9276   3.327   7.035   1.282
 5226W        W 9277   3.595   8.472   1.145
 5227W        W 9278   8.923   7.306  11.545
 5228W        W 9279   2.504   4.267   0.104
 5229W        W 9280   0.904   0.304   1.314
 5230W        W 9281   5.325   1.032   9.044
 5231W        W 9282   7.981   9.345  10.871
 5232W        W 9283   1.230   8.663  11.084
 5233W        W 9284   2.587   0.088   2.231
 5234W        W 9285   3.147  10.799   0.141
 5235W        W 9286   0.659   5.480   0.428
 5236W        W 9287   1.136   1.898   9.507
 5237W        W 9288   2.081   2.916  10.827
 5238W        W 9289   8.481   4.937   2.309
 5239W        W 9290   6.665   0.441  11.192
 5240W        W 9291   9.415   9.892  11.978
 5241W        W 9292   9.628   8.593   1.164
 5242W        W 9293  11.090   8.198  10.684
 5243W        W 9294  11.047   3.994  10.953
 5244W        W 9295   9.318   2.154  11.550
 5245W        W 9296   3.163   4.762   2.515
 5246W        W 9297  11.204   0.478   0.082
 5247W        W 9298   1.469   2.772   9.528
 5248W        W 9299   9.817   2.183  11.504
 5249W        W 9300   7.605   4.144  10.159
 5250W        W 9301   0.654   7.598   3.064
 5251W        W 9302   0.963   2.823  11.384
 5252W        W 9303   6.059   2.105  10.860
 5253W        W 9304   7.193   1.562  11.337
 5254W        W 9305   1.777   8.208   3.111
 5255W        W 9306   3.931   2.776   1.148
 5256W        W 9307   8.525  10.008  11.841
 5257W        W 9308  10.399   1.251   1.844
 5258W        W 9309   1.735   0.028   0.912
 5259W        W 9310   9.235   7.625   1.505
 5260W        W 9311   9.559   8.927   9.919
 5261W        W 9312   9.114   5.434   1.914
 5262W        W 9313   3.705   3.118   9.592
 5263W        W 9314   1.763   0.749   3.156
 5264W        W 9315   7.075   6.309  10.124
 5265W        W 9316   5.121   0.757  10.773
 5266W        W 9317   2.874   2.811   1.482
 5267W        W 9318   1.341   8.873   9.559
 5268W        W 9319   4.398   9.954  11.651
 5269W        W 9320   9.339   3.870   9.929
 5270W        W 9321   2.818   0.005   1.299
 5271W        W 9322  10.719   5.353  10.995
 5272W        W 9323   1.325   7.554   0.361
 5273W        W 9324   0.037   4.758  11.022
 5274W        W 9325  11.168   3.509  11.738
 5275W        W 9326   1.213   4.714   2.298
 5276W        W 9327   4.928  10.372   9.525
 5277W        W 9328   4.286   7.084   3.176
 5278W        W 9329   3.399   6.685   0.716
 5279W        W 9330   5.721   8.508  11.391
 5280W        W 9331   9.636   5.101  11.918
 5281W        W 9332   3.415   0.246  10.937
 5282W        W 9333   6.395   3.644   2.428
 5283W        W 9334   9.088   2.469  11.877
 5284W        W 9335   2.753  10.303   9.677
 5285W        W 9336   4.870  10.030  11.462
 5286W        W 9337   8.879   2.953   1.769
 5287W        W 9338   2.886   9.415  10.849
 5288W        W 9339  11.289   1.323   3.377
 5289W        W 9340   3.473   8.818  11.115
 5290W        W 9341   0.390   4.489  10.717
 5291W        W 9342   6.168   8.652   1.216
 5292W        W 9343   2.308   5.646  10.090
 5293W        W 9344   0.478   1.754   1.341
 5294W        W 9345   0.797   6.602   9.464
 5295W        W 9346   0.845   1.495   2.312
 5296W        W 9347  10.782   4.127  11.804
 5297W        W 9348   1.248   9.751  10.320
 5298W        W 9349   4.347   6.509  11.305
 5299W        W 9350   9.160   7.098   2.341
 5300W        W 9351   1.233   6.231   9.463
 5301W        W 9352   3.333  11.285  10.154
 5302W        W 9353   5.093   0.283  10.962
 5303W        W 9354  11.326   1.783   3.121
 5304W        W 9355   1.448   3.114   2.387
 5305W        W 9356  10.836   7.438   0.461
 5306W        W 9357  10.768   6.599   0.355
 5307W        W 9358   5.091   9.982   1.826
 5308W        W 9359   9.477   4.862  11.061
 5309W        W 9360   7.012   0.970   0.733
 5310W        W 9361   2.094   1.586  11.052
 5311W        W 9362   6.190   0.822   1.951
 5312W        W 9363   7.967   1.306  10.880
 5313W        W 9364   1.581   4.199  10.555
 5314W        W 9365  10.846   8.642   2.740
 5315W        W 9366   5.301   0.653   0.326
 5316W        W 9367   3.615   9.629   1.626
 5317W        W 9368   3.342   6.696  11.830
 5318W        W 9369   8.380   1.654  10.875
 5319W        W 9370   1.446   4.529  11.294
 5320W        W 9371  10.385   1.528  11.789
 5321W        W 9372   5.211   0.353   9.961
 5322W        W 9373   9.872   2.668   9.822
 5323W        W 9374   6.684   4.349   0.839
 5324W        W 9375   1.402   6.011  10.323
 5325W        W 9376   7.634   2.089  10.021
 5326W        W 9377  10.620  11.069   2.294
 5327W        W 9378   9.732   5.237  10.824
 5328W        W 9379   0.084   5.572   2.748
 5329W        W 9380   5.764   6.052   2.668
 5330W        W 9381   6.882   9.700   3.662
 5331W        W 9382   3.931   4.140   2.274
 5332W        W 9383   9.798   0.064   2.675
 5333W        W 9384   4.667   7.388   1.917
 5334W        W 9385   3.851   0.580   0.465
 5335W        W 9386   8.742   7.359   0.021
 5336W        W 9387   5.162   3.474   0.033
 5337W        W 9388   1.411   7.511   9.474
 5338W        W 9389  11.332   5.582  10.271
 5339W        W 9390   2.365   2.972   9.325
 5340W        W 9391   8.994   1.447   0.235
 5341W        W 9392   8.002   7.440  11.570
 5342W        W 9393   8.019   8.799   2.986
 5343W        W 9394   7.679   1.484  10.470
 5344W        W 9395   5.752   2.340  11.238
 5345W        W 9396   8.050   1.983  11.099
 5346W        W 9397   1.418   0.023   0.484
 5347W        W 9398   6.673   5.007  10.581
 5348W        W 9399   0.995   1.970  10.364
 5349W        W 9400   1.726   3.754   3.094
 5350W        W 9401   0.057   8.982   0.782
 5351W        W 9402  10.136   4.236  10.979
 5352W        W 9403   2.855   8.140   8.164
 5353W        W 9404   2.038   5.111   0.351
 5354W        W 9405  10.403   1.445   2.327
 5355W        W 9406   1.420   0.261   2.486
 5356W        W 9407   0.131   5.238   8.579
 5357W        W 9408   2.704   0.894  11.882
 5358W        W 9409   2.760   0.536   2.387
 5359W        W 9410   4.705   7.962  10.798
 5360W        W 9411   0.452   4.536  11.258
 5361W        W 9412   0.985   5.786   3.021
 5362W        W 9413   9.063  10.913   1.874
 5363W        W 9414   3.803   0.038   2.735
 5364W        W 9415   6.418   1.573  11.891
 5365W        W 9416   6.646  10.409   8.926
 5366W        W 9417   4.319   4.703   9.160
 5367W        W 9418   7.243   3.325  10.491
 5368W        W 9419   9.417  10.213   0.929
 5369W        W 9420   9.042  10.856   8.970
 5370W        W 9421   1.877  11.262   9.341
 5371W        W 9422  10.264   9.600  11.978
 5372W        W 9423   0.397   4.634   0.719
 5373W        W 9424   6.087   4.643   2.668
 5374W        W 9425   8.027  10.060   9.589
 5375W        W 9426  11.379   0.139  10.095
 5376W        W 9427   4.420   2.790  10.552
 5377W        W 9428   2.797  10.779   9.496
 5378W        W 9429   5.507   4.717   9.530
 5379W        W 9430  10.317   2.875  10.009
 5380W        W 9431   5.065   0.357  11.972
 5381W        W 9432   7.523   4.003   1.103
 5382W        W 9433   6.782   7.112  10.446
 5383W        W 9434   4.638   4.596   2.469
 5384W        W 9435   7.133   5.295  10.362
 5385W        W 9436   6.234   3.901  11.487
 5386W        W 9437   2.931   6.634  11.436
 5387W        W 9438   9.816   9.587   1.704
 5388W        W 9439   8.996   8.965   8.917
 5389W        W 9440   8.926   0.075   0.055
 5390W        W 9441   7.493   9.715   0.451
 5391W        W 9442   2.627   1.484   0.946
 5392W        W 9443   1.177   8.404   0.220
 5393W        W 9444   8.169   2.434  10.917
 5394W        W 9445   1.143   9.165  11.025
 5395W        W 9446   5.768   1.454   1.463
 5396W        W 9447   6.182   3.758   3.339
 5397W        W 9448   4.119   8.256  10.775
 5398W        W 9449   8.116   6.803   9.576
 5399W        W 9450   3.853   8.694   1.828
 5400W        W 9451   9.057  11.494   3.491
 5401W        W 9452   4.106   8.810   1.277
 5402W        W 9453   6.172   1.883  10.416
 5403W        W 9454   8.704   9.539   3.508
 5404W        W 9455   3.646   7.499   9.719
 5405W        W 9456   3.541   1.003   2.743
 5406W        W 9457   1.230  10.868  10.309
 5407W        W 9458   8.866  10.463   1.143
 5408W        W 9459  11.287   4.727   2.146
 5409W        W 9460   5.321   2.690   8.542
 5410W        W 9461   4.288   5.189   1.096
 5411W        W 9462   1.741   6.453   3.019
 5412W        W 9463   0.232  11.495   9.352
 5413W        W 9464   3.266   1.264  10.499
 5414W        W 9465   9.986   8.722  11.957
 5415W        W 9466   3.391  10.918   8.320
 5416W        W 9467   5.484   9.396   1.434
 5417W        W 9468   5.589   8.861  10.250
 5418W        W 9469   5.959   4.498   9.592
 5419W        W 9470   2.894   8.089  11.534
 5420W        W 9471   8.451  11.299   8.664
 5421W        W 9472   0.853   2.343  10.817
 5422W        W 9473   9.414   4.561   0.442
 5423W        W 9474   2.480   3.243   2.280
 5424W        W 9475   9.965   2.219   2.234
 5425W        W 9476   7.307   6.183   8.787
 5426W        W 9477  10.719   0.288   2.739
 5427W        W 9478   7.549   0.451   1.403
 5428W        W 9479   7.616   9.983   9.288
 5429W        W 9480   3.641   2.763   2.877
 5430W        W 9481  10.512   6.003   8.971
 5431W        W 9482   0.373   3.732   9.411
 5432W        W 9483   8.752   6.350  10.027
 5433W        W 9484  10.982   4.602   9.899
 5434W        W 9485   5.034   4.801   0.687
 5435W        W 9486   3.910   9.871   3.033
 5436W        W 9487   9.056   3.841   2.872
 5437W        W 9488   2.181   0.869   2.666
 5438W        W 9489   7.010   5.547   1.498
 5439W        W 9490   0.030   6.130   0.527
 5440W        W 9491   4.614   9.812   3.176
 5441W        W 9492  10.657   3.095  11.552
 5442W        W 9493   9.874   2.230   9.554
 5443W        W 9494   3.184   4.276   8.863
 5444W        W 9495   9.949   0.355  11.338
 5445W        W 9496   8.107   2.630   3.299
 5446W        W 9497   3.924   5.259  11.066
 5447W        W 9498   1.131   4.237  10.328
 5448W        W 9499   0.424   1.261   2.073
 5449W        W 9500   4.296   0.233  11.538
 5450W        W 9501   3.354   0.310  10.405
 5451W        W 9502   5.922   0.433   1.774
 5452W        W 9503   5.230   7.954   2.203
 5453W        W 9504   4.652   8.616   0.077
 5454W        W 9505   8.435   7.138   1.143
 5455W        W 9506   9.462   6.570   2.582
 5456W        W 9507   8.292   3.842   9.138
 5457W        W 9508   3.282   8.052  11.227
 5458W        W 9509   8.280   3.170   8.550
 5459W        W 9510   7.616   6.076   2.183
 5460W        W 9511  10.844   5.618   9.072
 5461W        W 9512   5.942   9.152   9.379
 5462W        W 9513   5.737  10.978  11.966
 5463W        W 9514   8.890  10.075   9.567
 5464W        W 9515   5.268   1.607   9.763
 5465W        W 9516   9.022   6.450   1.257
 5466W        W 9517   4.796   9.943   0.020
 5467W        W 9518   7.722   7.599  11.955
 5468W        W 9519   0.726   2.214   1.187
 5469W        W 9520  10.946   4.138   9.306
 5470W        W 9521  10.726  11.281   8.506
 5471W        W 9522   1.304   5.253   0.763
 5472W        W 9523   7.027   9.856   1.725
 5473W        W 9524   8.048   5.405  11.285
 5474W        W 9525   1.166   5.177  10.137
 5475W        W 9526   2.684   3.300   0.764
 5476W        W 9527   7.583  10.526   1.744
 5477W        W 9528   9.984  10.439  10.822
 5478W        W 9529   6.276   6.555   2.232
 5479W        W 9530  10.227   9.192   2.301
 5480W        W 9531   2.397   2.279   1.848
 5481W        W 9532   8.876   7.612   0.757
 5482W        W 9533  10.977   4.713   1.227
 5483W        W 9534   9.817  10.965  11.825
 5484W        W 9535  11.123   2.246  11.932
 5485W        W 9536   3.927   1.593  11.478
 5486W        W 9537  11.385   4.446   8.525
 5487W        W 9538   7.574   7.160  11.707
 5488W        W 9539   5.949   2.752   1.910
 5489W        W 9540   1.798  10.838   2.113
 5490W        W 9541   6.030  10.594   3.721
 5491W        W 9542   8.880   8.894  11.622
 5492W        W 9543  10.565   4.182   3.621
 5493W        W 9544   4.660   0.419  10.572
 5494W        W 9545   5.290   0.855   2.423
 5495W        W 9546   7.311   7.538   3.072
 5496W        W 9547   9.619   2.597   2.895
 5497W        W 9548   1.689   0.425   8.581
 5498W        W 9549   8.073   6.846  10.390
 5499W        W 9550   9.378   1.052   8.561
 5500W        W 9551   6.917   2.532  11.549
 5501W        W 9552   8.622   0.709  10.683
 5502W        W 9553   0.778   7.742   8.878
 5503W        W 9554   2.183   3.649  11.840
 5504W        W 9555   9.382  10.767  10.758
 5505W        W 9556   8.861   4.345   1.726
 5506W        W 9557   4.860   7.171   8.972
 5507W        W 9558   5.266   8.274   2.639
 5508W        W 9559   0.470   3.210   9.298
 5509W        W 9560  10.554   6.151   0.378
 5510W        W 9561  10.933   6.635   9.188
 5511W        W 9562   0.973   6.160   0.428
 5512W        W 9563   5.834   1.410   0.206
 5513W        W 9564   1.290   8.923   1.499
 5514W        W 9565   7.658   2.446   1.294
 5515W        W 9566   2.627   3.009   8.856
 5516W        W 9567   9.469   9.138   0.293
 5517W        W 9568   3.680   0.882  11.847
 5518W        W 9569  10.105   5.169   0.842
 5519W        W 9570  11.035   7.390   2.083
 5520W        W 9571   1.625   8.077   8.844
 5521W        W 9572   1.587   2.893  11.944
 5522W        W 9573   4.109   1.279   9.556
 5523W        W 9574   6.113   3.262  11.642
 5524W        W 9575   6.127   6.679   9.356
 5525W        W 9576  11.371   8.876   0.310
 5526W        W 9577   4.092   9.393   0.903
 5527W        W 9578   8.058   5.222   2.356
 5528W        W 9579   6.873   1.684  11.721
 5529W        W 9580   5.279   7.148  10.451
 5530W        W 9581   9.110   8.103   3.165
 5531W        W 9582   7.164   3.757  11.299
 5532W        W 9583   7.217   9.036   1.309
 5533W        W 9584   0.329   5.077   9.792
 5534W        W 9585   9.608   8.871   1.932
 5535W        W 9586   8.464   0.281  10.946
 5536W        W 9587   3.652   4.598   1.073
 5537W        W 9588   6.137   0.333   9.813
 5538W        W 9589   1.529   5.684   0.924
 5539W        W 9590   4.459   0.894   9.575
 5540W        W 9591   3.708   3.616   0.266
 5541W        W 9592   8.897  10.468   0.649
 5542W        W 9593   0.836   4.558   8.655
 5543W        W 9594   2.668   6.428   1.849
 5544W        W 9595   0.757   6.414   8.563
 5545W        W 9596   3.049  11.464   2.032
 5546W        W 9597   9.402   9.755   0.745
 5547W        W 9598   4.496   4.349   1.197
 5548W        W 9599   8.197   3.222   2.611
 5549W        W 9600   7.866   9.067   2.098
 5550W        W 9601   8.478   8.537   0.487
 5551W        W 9602   0.821   8.350  11.820
 5552W        W 9603   9.587   5.549  10.351
 5553W        W 9604   1.262   8.284   3.162
 5554W        W 9605   5.524  10.847  10.086
 5555W        W 9606   5.046   7.617  10.545
 5556W        W 9607   1.967   2.517   8.492
 5557W        W 9608   7.631   8.590   1.359
 5558W        W 9609   5.159  10.616   2.684
 5559W        W 9610  10.980   6.678   0.806
 5560W        W 9611   2.308   2.290   0.009
 5561W        W 9612   9.940   7.631   2.782
 5562W        W 9613   3.742   1.667   8.878
 5563W        W 9614  10.454   7.069  11.122
 5564W        W 9615   2.304   0.957   1.616
 5565W        W 9616   2.612  11.080  11.311
 5566W        W 9617   5.518   0.957  11.034
 5567W        W 9618   4.433   9.886   9.293
 5568W        W 9619   6.445   6.552   0.182
 5569W        W 9620  10.793   3.042   2.018
 5570W        W 9621  10.416   1.119   9.359
 5571W        W 9622   5.994   5.762   9.188
 5572W        W 9623   2.278   2.203   2.824
 5573W        W 9624   8.074   7.846   2.673
 5574W        W 9625   7.501  11.006  11.981
 5575W        W 9626  11.417   8.625   2.787
 5576W        W 9627   4.871   3.973  11.241
 5577W        W 9628   5.634   1.934   1.501
 5578W        W 9629   0.302   2.593   2.825
 5579W        W 9630   7.653  11.369   9.914
 5580W        W 9631   7.769   8.965  11.136
 5581W        W 9632   5.984   3.958   2.366
 5582W        W 9633   5.150   7.514   0.359
 5583W        W 9634   8.197   1.945   1.710
 5584W        W 9635   8.694   8.062   8.576
 5585W        W 9636   5.078   9.296   0.015
 5586W        W 9637   6.973   4.148   3.424
 5587W        W 9638   6.692   7.369   1.417
 5588W        W 9639   6.159   0.475   3.349
 5589W        W 9640   0.378   3.566   0.209
 5590W        W 9641   7.784   7.136  10.717
 5591W        W 9642   0.052   9.813   0.384
 5592W        W 9643   9.064   2.802   0.300
 5593W        W 9644   8.169   1.659   0.378
 5594W        W 9645   2.161   3.872   9.735
 5595W        W 9646   9.356   9.603   8.490
 5596W        W 9647   3.322   8.214   8.473
 5597W        W 9648   5.563   4.373   9.110
 5598W        W 9649   0.792  10.591  11.153
 5599W        W 9650   8.957   8.590  10.250
 5600W        W 9651   5.783   7.462   1.157
 5601W        W 9652   4.196   4.071  10.700
 5602W        W 9653   4.827   1.737   9.976
 5603W        W 9654   8.571   6.696  10.392
 5604W        W 9655   4.056   9.068  10.183
 5605W        W 9656   3.844   5.282   0.803
 5606W        W 9657   9.011   9.932   3.528
 5607W        W 9658   3.664   5.875  11.649
 5608W        W 9659  10.821   3.141   3.460
 5609W        W 9660   4.720   2.697   2.779
 5610W        W 9661   4.047   0.923   2.662
 5611W        W 9662  10.265  10.570   1.077
 5612W        W 9663   3.843   4.889  11.831
 5613W        W 9664   8.609   4.449  10.814
 5614W        W 9665  10.882   0.378   1.833
 5615W        W 9666   3.719   9.456  11.748
 5616W        W 9667  10.277  10.753   9.572
 5617W        W 9668   8.004   5.256   8.680
 5618W        W 9669   9.539   1.156  10.807
 5619W        W 9670   0.383  11.349  11.070
 5620W        W 9671   9.500   0.311   1.376
 5621W        W 9672  11.361   8.117   9.278
 5622W        W 9673   6.000   9.148  10.398
 5623W        W 9674   0.380   0.861   1.103
 5624W        W 9675   6.920   1.644   9.791
 5625W        W 9676   1.373   4.071  11.505
 5626W        W 9677   9.843   7.465   0.824
 5627W        W 9678   7.900   2.806   9.953
 5628W        W 9679   2.654   8.333  10.669
 5629W        W 9680   9.699   6.415   8.201
 5630W        W 9681  11.307   0.079   2.739
 5631W        W 9682   3.762  11.262   3.209
 5632W        W 9683   2.999   7.854   2.237
 5633W        W 9684   3.739   2.922   2.392
 5634W        W 9685   3.666   6.235   3.528
 5635W        W 9686  11.455   9.859   1.298
 5636W        W 9687   7.711   5.183   0.498
 5637W        W 9688   3.135   2.408   1.291
 5638W        W 9689   0.721   7.859   9.732
 5639W        W 9690   0.492   5.768   1.869
 5640W        W 9691   9.545   3.181   1.351
 5641W        W 9692   6.060   8.302   0.234
 5642W        W 9693   2.246   9.038   1.978
 5643W        W 9694   4.559  10.323   9.042
 5644W        W 9695   7.882  11.439   2.979
 5645W        W 9696   9.397   8.144   0.354
 5646W        W 9697   4.234   6.064  11.089
 5647W        W 9698   1.469   6.950  10.554
 5648W        W 9699   8.456   6.219  10.545
 5649W        W 9700   9.211   4.995  11.672
 5650W        W 9701   0.946   3.699   0.945
 5651W        W 9702   7.995   9.059   3.425
 5652W        W 9703   0.366   9.376   9.067
 5653W        W 9704   8.661   1.216   3.115
 5654W        W 9705   8.575   4.771   9.029
 5655W        W 9706   6.452   6.257  10.932
 5656W        W 9707   2.937   4.710  11.419
 5657W        W 9708   2.269   0.541   9.557
 5658W        W 9709   6.577  11.213   2.517
 5659W        W 9710   5.662   5.090   1.775
 5660W        W 9711   6.032   6.316   8.169
 5661W        W 9712   9.818  10.638   1.943
 5662W        W 9713   3.231   3.756   9.121
 5663W        W 9714   1.177   3.248   1.070
 5664W        W 9715   9.077  11.248   9.965
 5665W        W 9716   9.620   2.895  10.516
 5666W        W 9717   5.064   3.227   0.503
 5667W        W 9718   3.418   9.350   2.255
 5668W        W 9719   5.070   7.902   0.009
 5669W        W 9720   3.075   4.138  10.794
 5670W        W 9721   3.657   1.266   0.664
 5671W        W 9722   6.507   4.139   3.179
 5672W        W 9723   7.535   0.373  10.173
 5673W        W 9724   3.589  10.483  11.871
 5674W        W 9725   9.060   2.762   1.291
 5675W        W 9726   3.834  10.814   2.067
 5676W        W 9727   6.211  10.023   1.349
 5677W        W 9728   5.296   7.861   0.973
 5678W        W 9729   7.874   1.449   9.150
 5679W        W 9730   3.432   7.694   0.041
 5680W        W 9731   7.695   1.182  11.765
 5681W        W 9732   9.956  10.719   0.292
 5682W        W 9733   7.296   7.970   9.350
 5683W        W 9734   7.639   9.765  10.805
 5684W        W 9735   3.338   5.233   1.987
 5685W        W 9736   8.432   4.704  10.416
 5686W        W 9737   3.088   0.641   2.774
 5687W        W 9738  10.579   2.274   2.676
 5688W        W 9739   9.966   0.832   9.492
 5689W        W 9740  10.333   9.252   9.528
 5690W        W 9741   9.493   2.786   3.377
 5691W        W 9742   7.418   9.132  11.492
 5692W        W 9743   8.044   3.363   9.163
 5693W        W 9744   5.762   5.709   1.135
 5694W        W 9745   2.205   5.298   3.495
 5695W        W 9746   0.687   5.703   3.413
 5696W        W 9747   4.110   1.436  11.009
 5697W        W 9748   2.652   4.148   1.768
 5698W        W 9749   5.601   8.308   3.237
 5699W        W 9750   6.527  10.109   8.190
 5700W        W 9751   3.357   1.872   1.308
 5701W        W 9752   1.000  10.999   0.813
 5702W        W 9753   6.726   6.682   3.017
 5703W        W 9754   3.867   4.373   0.655
 5704W        W 9755   2.282   0.029   9.555
 5705W        W 9756  11.471  11.429   3.207
 5706W        W 9757   9.176   6.630   9.989
 5707W        W 9758   7.934   4.134   2.163
 5708W        W 9759   9.165   4.355   3.083
 5709W        W 9760   3.213   9.844   1.875
 5710W        W 9761   2.713   6.672   2.359
 5711W        W 9762  10.442   7.046  10.510
 5712W        W 9763   6.760   2.076   2.845
 5713W        W 9764   2.719   9.010  11.515
 5714W        W 9765   4.418   6.759   8.583
 5715W        W 9766   2.116   8.615  11.819
 5716W        W 9767   7.666   3.775  11.470
 5717W        W 9768  10.467   7.590  11.256
 5718W        W 9769   4.485   0.646   1.799
 5719W        W 9770   3.886   4.423  10.506
 5720W        W 9771  10.204  10.446   1.582
 5721W        W 9772   0.095   0.978   1.806
 5722W        W 9773   2.131   7.471   1.008
 5723W        W 9774   1.130   0.255  10.687
 5724W        W 9775  11.286   1.290   1.416
 5725W        W 9776   3.526   9.642   2.781
 5726W        W 9777   3.548   2.368   2.547
 5727W        W 9778   7.618   0.188   9.139
 5728W        W 9779   1.753   1.235   3.406
 5729W        W 9780   3.191   5.724  10.979
 5730W        W 9781   6.938   4.634   0.247
 5731W        W 9782  11.045   0.365   3.131
 5732W        W 9783   4.396   8.724  11.614
 5733W        W 9784   1.204   0.627  10.363
 5734W        W 9785  10.000   1.863  11.887
 5735W        W 9786   5.571   3.307   9.841
 5736W        W 9787   2.563   8.627   8.328
 5737W        W 9788   1.280   1.065  10.611
 5738W        W 9789  10.821   3.360   2.985
 5739W        W 9790   3.961   8.328   1.442
 5740W        W 9791   8.679   7.849  11.889
 5741W        W 9792   9.413   1.780   2.957
 5742W        W 9793   9.425   4.915   1.002
 5743W        W 9794   1.917   3.697   8.902
 5744W        W 9795  11.379   8.832   1.476
 5745W        W 9796   4.219   9.941   0.863
 5746W        W 9797   2.817   1.678   0.187
 5747W        W 9798   7.219   3.851  10.246
 5748W        W 9799   7.681   8.004  11.615
 5749W        W 9800   3.140   3.674   1.841
 5750W        W 9801   5.208   9.093   8.986
 5751W        W 9802  10.594   7.693  11.735
 5752W        W 9803   2.513  10.527   8.711
 5753W        W 9804   0.041   7.602  11.372
 5754W        W 9805   0.334   1.202  11.237
 5755W        W 9806  10.956  11.368   3.192
 5756W        W 9807   5.840   1.611   8.585
 5757W        W 9808   3.252   1.371   9.335
 5758W        W 9809   5.994   6.503   2.657
 5759W        W 9810  10.958   6.244   0.044
 5760W        W 9811   3.869   3.862  11.002
 5761W        W 9812  11.368   7.225   9.452
 5762W        W 9813   0.155   1.399  10.345
 5763W        W 9814   0.771   0.966   2.303
 5764W        W 9815   1.069   6.073  11.323
 5765W        W 9816   3.152   4.945   0.403
 5766W        W 9817   0.672   8.401   0.322
 5767W        W 9818   6.687  11.372   0.365
 5768W        W 9819   8.917   0.969   0.978
 5769W        W 9820  11.283   1.151   9.546
 5770W        W 9821   0.934   4.213   2.250
 5771W        W 9822   8.141   9.255   2.839
 5772W        W 9823   9.489   2.157   1.455
 5773W        W 9824   1.234   7.562  11.868
 5774W        W 9825   2.235   6.135   1.950
 5775W        W 9826   9.378   9.326   1.867
 5776W        W 9827  10.584   6.213  10.767
 5777W        W 9828   9.361   7.003   3.288
 5778W        W 9829   8.603   6.189   1.472
 5779W        W 9830   7.045   6.309   8.339
 5780W        W 9831   0.925   5.311  10.868
 5781W        W 9832   8.935   9.588   2.155
 5782W        W 9833  11.330   7.441   0.295
 5783W        W 9834   8.732   0.454   2.804
 5784W        W 9835   6.746   3.153  10.277
 5785W        W 9836   5.872   9.927   3.405
 5786W        W 9837   5.936   4.574   0.222
 5787W        W 9838   5.699   7.401   3.605
 5788W        W 9839   6.376   8.061  11.843
 5789W        W 9840  11.409   5.797   2.308
 5790W        W 9841  10.808  10.856   0.378
 5791W        W 9842   7.005   3.687  11.795
 5792W        W 9843   6.838   2.255   2.057
 5793W        W 9844   8.184  10.467   0.484
 5794W        W 9845   2.730   1.245   1.763
 5795W        W 9846   8.514   6.611   1.146
 5796W        W 9847   7.958  10.513   2.582
 5797W        W 9848   5.527  10.994   1.760
 5798W        W 9849  11.422   4.815   9.556
 5799W        W 9850   2.830   0.352   9.090
 5800W        W 9851  10.771   4.116  10.530
 5801W        W 9852   3.103   7.158  11.360
 5802W        W 9853   4.766  10.272   2.728
 5803W        W 9854   1.225  10.123   0.834
 5804W        W 9855   5.430   3.653   8.602
 5805W        W 9856   2.301   7.181   0.061
 5806W        W 9857   6.159   9.794  11.849
 5807W        W 9858   4.036   7.553  10.039
 5808W        W 9859   5.262   8.622   4.162
 5809W        W 9860   7.412   1.010   2.941
 5810W        W 9861   0.227   1.339   1.164
 5811W        W 9862   7.161   9.634   9.799
 5812W        W 9863  10.537   2.765  10.482
 5813W        W 9864  11.265   0.811   2.193
 5814W        W 9865   1.192  10.887   3.248
 5815W        W 9866   2.474  10.742   0.728
 5816W        W 9867   0.920   9.558   8.609
 5817W        W 9868   6.554   2.421   8.932
 5818W        W 9869   2.645   0.759  10.795
 5819W        W 9870   4.576   6.195   0.284
 5820W        W 9871   3.440   0.900   0.318
 5821W        W 9872   0.580   9.460  11.819
 5822W        W 9873   5.916   2.298   1.703
 5823W        W 9874   2.785   3.349   9.759
 5824W        W 9875   2.792  10.071  11.403
 5825W        W 9876   5.128   3.344   9.574
 5826W        W 9877   0.217   4.033   8.995
 5827W        W 9878   8.182   3.655  11.519
 5828W        W 9879   6.545   0.124   0.923
 5829W        W 9880   1.778   1.371   0.759
 5830W        W 9881  11.365  10.708   3.793
 5831W        W 9882   0.111   3.860  10.291
 5832W        W 9883  10.247   4.664   3.232
 5833W        W 9884  10.440   7.952   8.911
 5834W        W 9885   5.307   7.979  10.194
 5835W        W 9886   6.966   6.541   0.347
 5836W        W 9887  10.414   6.728  11.558
 5837W        W 9888   6.164   4.569   1.718
 5838W        W 9889  10.516   7.853   1.444
 5839W        W 9890   6.271   7.950  10.077
 5840W        W 9891   4.000   6.452   1.420
 5841W        W 9892   6.612   5.768   0.714
 5842W        W 9893   0.505   0.750   2.725
 5843W        W 9894   3.094   6.225  11.078
 5844W        W 9895   7.212   4.199   0.382
 5845W        W 9896  10.147  10.256   0.307
 5846W        W 9897   6.860   2.137   9.605
 5847W        W 9898  10.935   3.840   2.811
 5848W        W 9899   6.650   0.249  10.234
 5849W        W 9900   1.799   4.387  10.975
 5850W        W 9901  10.813   1.915   9.772
 5851W        W 9902   9.129   7.717   9.275
 5852W        W 9903   0.033   0.073   0.052
 5853W        W 9904   8.282   5.688  11.835
 5854W        W 9905   0.286   9.046   1.230
 5855W        W 9906   4.403   1.751  11.672
 5856W        W 9907   4.180   8.614  10.410
 5857W        W 9908   0.831   4.829  11.482
 5858W        W 9909   6.510   7.227  10.915
 5859W        W 9910   1.729   5.276   8.445
 5860W        W 9911   7.575   0.942   1.544
 5861W        W 9912   7.138   0.148   0.366
 5862W        W 9913   3.514  10.436   9.975
 5863W        W 9914   2.277   0.363   9.087
 5864W        W 9915   9.884  10.065   2.881
 5865W        W 9916   8.261   7.562  11.978
 5866W        W 9917   4.696   6.752   0.758
 5867W        W 9918   9.398   9.284   2.686
 5868W        W 9919  11.079   4.994  10.274
 5869W        W 9920   2.882   4.211   9.869
 5870W        W 9921   3.516   3.062  10.584
 5871W        W 9922  10.921   2.660  11.711
 5872W        W 9923   7.531   1.881   0.358
 5873W        W 9924   7.578   6.700  10.477
 5874W        W 9925   1.890   5.243  10.772
 5875W        W 9926   4.725   9.552  11.695
 5876W        W 9927   7.033   4.316   2.293
 5877W        W 9928   7.096   3.424  10.023
 5878W        W 9929   5.556   5.796   0.668
 5879W        W 9930   2.802   2.859   9.589
 5880W        W 9931  10.529   7.447   1.936
 5881W        W 9932  10.525   4.965   9.448
 5882W        W 9933   7.602  10.439  10.098
 5883W        W 9934   6.283   7.546  11.772
 5884W        W 9935   5.511   8.079  11.745
 5885W        W 9936   9.189   4.124   0.510
 5886W        W 9937  11.260   3.120   9.169
 5887W        W 9938   2.796   8.375  10.177
 5888W        W 9939   7.027   9.272   0.898
 5889W        W 9940   4.188   2.288   9.901
 5890W        W 9941   3.837   6.643   9.886
 5891W        W 9942  11.027   2.704   1.222
 5892W        W 9943   0.199   7.799   2.929
 5893W        W 9944   4.024   1.480  11.963
 5894W        W 9945   5.157   4.712  10.675
 5895W        W 9946   0.296  10.729   0.319
 5896W        W 9947   7.008   7.966  10.971
 5897W        W 9948   1.664   1.781   9.596
 5898W        W 9949  10.084   1.262   3.511
 5899W        W 9950  10.892   9.151   0.555
 5900W        W 9951   8.145   1.549   3.508
 5901W        W 9952   3.588   4.673   8.535
 5902W        W 9953   7.954  10.137  10.593
 5903W        W 9954   5.183   8.128   1.735
 5904W        W 9955   1.699  10.005   2.512
 5905W        W 9956   2.344   1.924   0.419
 5906W        W 9957   6.670   8.194   2.774
 5907W        W 9958   9.793   1.214   1.279
 5908W        W 9959   2.728   3.233   2.759
 5909W        W 9960   8.986   6.848  11.288
 5910W        W 9961   6.141   0.521  11.260
 5911W        W 9962   2.838  10.521   2.877
 5912W        W 9963   9.979  10.840   8.569
 5913W        W 9964   4.650   3.899   0.976
 5914W        W 9965   9.331   9.896   9.821
 5915W        W 9966   5.203   3.718   0.493
 5916W        W 9967   3.307   2.890   0.396
 5917W        W 9968   2.985   1.336   3.798
 5918W        W 9969   0.741  11.218   1.811
 5919W        W 9970   3.734   8.382   0.167
 5920W        W 9971   4.754   8.594  11.300
 5921W        W 9972   9.971  11.299  10.042
 5922W        W 9973   3.813   0.276   8.632
 5923W        W 9974   2.234   9.573   1.698
 5924W        W 9975   9.873   3.810   2.105
 5925W        W 9976  10.980   4.062   9.808
 5926W        W 9977   5.366   7.331   3.144
 5927W        W 9978   5.168   9.471   1.893
 5928W        W 9979   9.051   3.605   2.388
 5929W        W 9980   1.117  10.410   1.741
 5930W        W 9981   1.333   1.432   9.362
 5931W        W 9982   3.312   6.620   3.668
 5932W        W 9983  10.497   7.422   9.393
 5933W        W 9984   6.246   5.587  10.908
 5934W        W 9985  11.349   6.982  11.957
 5935W        W 9986   6.106   5.705   0.743
 5936W        W 9987   4.161   7.917  11.505
 5937W        W 9988   1.234  10.929  11.211
 5938W        W 9989   0.825   3.280  10.551
 5939W        W 9990   4.183   7.875   1.745
 5940W        W 9991   2.978   8.959  11.088
 5941W        W 9992  10.935   1.591   0.455
 5942W        W 9993   4.198   0.187  10.500
 5943W        W 9994   6.440   3.688   2.914
 5944W        W 9995   0.815   7.871   1.046
 5945W        W 9996   1.700   8.933  10.345
 5946W        W 9997   7.315   6.074  11.085
 5947W        W 9998   6.758   7.163   2.742
 5948W        W 9999   8.931   2.216   0.299
 5949W        W10000   2.512   7.801   0.740
 5950W        W10001   6.778   5.497  10.686
 5951W        W10002   9.003   8.068  11.011
 5952W        W10003   3.412   1.801  11.349
 5953W        W10004   8.144   5.338   9.923
 5954W        W10005   0.863  10.702  11.645
 5955W        W10006   2.562   7.578   2.299
 5956W        W10007   2.289   2.887   3.507
 5957W        W10008   1.279   1.169   2.378
 5958W        W10009   4.664   1.997   3.279
 5959W        W10010   6.010   4.702   1.228
 5960W        W10011   8.490  10.426  10.705
 5961W        W10012   2.721   7.428  11.788
 5962W        W10013   8.674   2.770   9.628
 5963W        W10014   7.586   9.937   9.806
 5964W        W10015   4.616   4.300   3.877
 5965W        W10016   4.740   8.841   9.932
 5966W        W10017  11.143   4.348   2.462
 5967W        W10018   8.029  10.540   9.812
 5968W        W10019   1.673   9.828   3.002
 5969W        W10020   1.339  11.359   9.458
 5970W        W10021   2.575   4.109   0.585
 5971W        W10022   9.948   2.093  11.014
 5972W        W10023   4.074  11.210   0.298
 5973W        W10024   8.494   7.609  11.463
 5974W        W10025   7.694   9.565   2.817
 5975W        W10026   3.724   2.504   3.333
 5976W        W10027   7.654   1.385  11.316
 5977W        W10028   7.634   3.100   1.967
 5978W        W10029   9.867   5.397  11.574
 5979W        W10030   2.850   5.062   4.171
 5980W        W10031   8.956   0.489  11.035
 5981W        W10032   4.787   9.988   8.671
 5982W        W10033   6.308   7.050  11.968
 5983W        W10034   9.632   3.386   0.903
 5984W        W10035   0.339   6.866   9.179
 5985W        W10036   9.274   0.188   1.880
 5986W        W10037   8.608   4.744   8.193
 5987W        W10038   9.559   8.631   9.413
 5988W        W10039   2.529   0.461   3.459
 5989W        W10040   2.255   1.403   1.931
 5990W        W10041   7.011   5.697   0.400
 5991W        W10042  10.840   1.634   1.900
 5992W        W10043   0.346   4.301   9.402
 5993W        W10044   4.979  11.358  11.958
 5994W        W10045   6.212   5.261  11.328
 5995W        W10046   5.072  10.433   0.797
 5996W        W10047   9.375   8.017  10.605
 5997W        W10048   0.767  11.083  11.330
 5998W        W10049   6.064   6.970  10.943
 5999W        W10050   8.882   1.797  10.758
 6000W        W10051   8.135   9.134   9.186
 6001W        W10052   7.239   2.198   1.731
 6002W        W10053  11.492   3.885   2.851
 6003W        W10054   8.810   2.049   2.720
 6004W        W10055   3.266   6.192   2.303
 6005W        W10056   7.991   1.904  10.578
 6006W        W10057   8.476   0.739   3.220
 6007W        W10058   5.518   8.054  11.239
 6008W        W10059   3.379   4.488  10.582
 6009W        W10060   4.862   0.133   1.891
 6010W        W10061   8.088   4.858   8.988
 6011W        W10062   6.700   1.345  10.558
 6012W        W10063   6.615   8.948   1.354
 6013W        W10064   0.305   6.520   8.782
 6014W        W10065   7.710   7.068   9.208
 6015W        W10066   8.858   8.475   9.765
 6016W        W10067  10.043  10.702   9.074
 6017W        W10068   6.084   4.181  11.911
 6018W        W10069   7.971   6.821   3.584
 6019W        W10070   9.127   4.916   3.129
 6020W        W10071   8.980   2.431   3.781
 6021W        W10072   5.097   9.922   0.856
 6022W        W10073   3.607   6.601   2.239
 6023W        W10074   3.275   7.041   3.347
 6024W        W10075  10.848  10.957  10.869
 6025W        W10076   1.706  10.426   9.514
 6026W        W10077  10.813   0.558   3.573
 6027W        W10078   6.516   7.424   0.444
 6028W        W10079   5.067  11.068   2.990
 6029W        W10080   5.102   2.290   2.329
 6030W        W10081  10.632   4.101   8.908
 6031W        W10082   2.240   2.860   2.025
 6032W        W10083   9.630   6.913  11.728
 6033W        W10084   3.542   6.893   9.021
 6034W        W10085  11.276  11.205   9.752
 6035W        W10086   3.763   8.896   0.928
 6036W        W10087   6.230   6.843   3.915
 6037W        W10088   6.025   3.459   0.695
 6038W        W10089   8.106   0.904   8.594
 6039W        W10090   3.481   6.568   3.169
 6040W        W10091   2.146   9.110  10.526
 6041W        W10092   5.015   2.389   0.790
 6042W        W10093   8.927   6.211   3.687
 6043W        W10094   2.291   9.318   3.736
 6044W        W10095   6.659  11.310   9.000
 6045W        W10096   1.222   7.896   8.525
 6046W        W10097   7.641   8.186   0.588
 6047W        W10098   4.803  10.748   9.213
 6048W        W10099  10.820   4.557   0.744
 6049W        W10100   6.372   8.979   9.597
 6050W        W10101   7.297   6.680   1.240
 6051W        W10102   2.110   8.237   8.636
 6052W        W10103   0.876   4.592   3.042
 6053W        W10104   4.237   9.085  10.667
 6054W        W10105   0.823   8.691   2.294
 6055W        W10106   1.844   4.656   9.051
 6056W        W10107   2.953   4.314   2.186
 6057W        W10108  11.211   8.932   2.430
 6058W        W10109   3.916   1.065   0.251
 6059W        W10110   2.307   2.835   1.030
 6060W        W10111   7.189  11.242  11.366
 6061W        W10112   9.121   4.857   8.311
 6062W        W10113   9.334   5.771   0.601
 6063W        W10114   9.334   6.183   2.922
 6064W        W10115   6.517  10.332   0.639
 6065W        W10116  10.610   4.394  10.931
 6066W        W10117   1.273  10.192   9.946
 6067W        W10118   5.735   0.836   0.574
 6068W        W10119   7.990  10.955   9.116
 6069W        W10120   7.980   9.542  11.341
 6070W        W10121   9.890   2.985   1.733
 6071W        W10122   0.313  10.944   3.072
 6072W        W10123   8.155   3.099   3.106
 6073W        W10124  10.279   7.444   8.922
 6074W        W10125   6.999   8.050   1.603
 6075W        W10126  11.438   8.347  11.672
 6076W        W10127   5.464   6.952   8.779
 6077W        W10128   7.031  10.333  11.770
 6078W        W10129   4.245   7.996   9.846
 6079W        W10130   8.415   6.073   2.931
 6080W        W10131   4.241   8.977   2.606
 6081W        W10132  11.410   4.355   9.785
 6082W        W10133   0.760   1.735   9.990
 6083W        W10134   7.037   8.448   9.909
 6084W        W10135   6.188   7.631   9.260
 6085W        W10136   1.391   0.270  10.011
 6086W        W10137   4.971  11.206   9.346
 6087W        W10138   7.463   5.717  10.247
 6088W        W10139   6.256   1.953   2.751
 6089W        W10140   2.520   2.188   3.423
 6090W        W10141   7.136   8.187   8.489
 6091W        W10142   4.132   1.618   1.716
 6092W        W10143   1.603   9.216   1.210
 6093W        W10144   8.503   5.434   2.164
 6094W        W10145   0.292   8.377   9.113
 6095W        W10146   8.742   0.521  11.878
 6096W        W10147  10.383   3.497   9.119
 6097W        W10148   6.444   0.032   3.449
 6098W        W10149   1.240   3.767   9.375
 6099W        W10150   5.930   3.456   2.467
 6100W        W10151   9.786   9.536   3.598
 6101W        W10152   4.639   5.733   0.023
 6102W        W10153   8.999   3.742  11.695
 6103W        W10154   9.002   7.098  10.000
 6104W        W10155   9.114  10.044   2.424
 6105W        W10156   6.133   2.404  10.419
 6106W        W10157   2.887   8.420   8.651
 6107W        W10158   8.990   9.794   9.117
 6108W        W10159   8.096   6.004   1.034
 6109W        W10160   5.469   2.647   0.035
 6110W        W10161   0.434   2.170   3.070
 6111W        W10162   6.472   9.497   2.766
 6112W        W10163   5.622   3.325  11.821
 6113W        W10164   3.540   1.434   0.186
 6114W        W10165   8.833   6.221   2.180
 6115W        W10166   4.562   8.572   2.437
 6116W        W10167   0.810   9.819   3.053
 6117W        W10168   5.664   9.266   0.982
 6118W        W10169   3.717   6.206   4.041
 6119W        W10170  10.159  10.821   2.299
 6120W        W10171   0.244  11.363   9.833
 6121W        W10172   6.122   7.567   9.768
 6122W        W10173   2.732   5.165   8.615
 6123W        W10174   2.418   5.756   0.715
 6124W        W10175   5.641   1.838  10.010
 6125W        W10176   6.577   0.764   2.257
 6126W        W10177   1.256   9.198   8.451
 6127W        W10178   8.183   8.697  10.998
 6128W        W10179   3.656   4.849  10.365
 6129W        W10180  11.076   7.000   0.414
 6130W        W10181   2.518   5.236   1.504
 6131W        W10182   4.723   2.315   3.694
 6132W        W10183   9.499   3.144   0.450
 6133W        W10184   7.558   9.471   1.464
 6134W        W10185  10.392   4.029   9.387
 6135W        W10186   8.510   5.734   1.224
 6136W        W10187   4.740   9.558   2.205
 6137W        W10188   9.030  11.222  11.390
 6138W        W10189   6.627  10.005  11.863
 6139W        W10190   2.451   5.261   2.000
 6140W        W10191   7.353   1.627  10.097
 6141W        W10192   9.596   5.196   1.944
 6142W        W10193   7.111  11.336  11.891
 6143W        W10194   7.859   2.330   0.387
 6144W        W10195   0.400   2.609  11.565
 6145W        W10196   8.560   6.564   0.295
 6146W        W10197   0.773   1.855   2.690
 6147W        W10198   0.852   8.092  10.350
 6148W        W10199   1.831   0.982  11.787
 6149W        W10200   4.032   9.422   9.464
 6150W        W10201   4.306   9.906   1.369
 6151W        W10202   6.187  11.443   2.208
 6152W        W10203   1.692  10.684  11.152
 6153W        W10204  10.540   9.921   0.297
 6154W        W10205   4.007   6.573   3.330
 6155W        W10206  11.154   3.039   0.445
 6156W        W10207   1.695   6.216  10.696
 6157W        W10208  10.899   8.616   9.864
 6158W        W10209  10.593  10.509   3.193
 6159W        W10210   5.317   2.189   1.184
 6160W        W10211   4.371   4.413   0.709
 6161W        W10212   6.966   2.939  10.712
 6162W        W10213   9.516  11.167   2.742
 6163W        W10214   6.853   3.859   9.879
 6164W        W10215   9.921   3.887   3.089
 6165W        W10216   5.993   2.812   2.416
 6166W        W10217   4.796   0.485   0.388
 6167W        W10218   1.802   1.181   0.281
 6168W        W10219   9.137   4.783   1.796
 6169W        W10220  10.342   0.298   1.910
 6170W        W10221   7.965   7.190   0.872
 6171W        W10222   6.953  10.938   3.129
 6172W        W10223   6.180   7.943  10.583
 6173W        W10224   9.428   9.491  10.426
 6174W        W10225   3.900   9.884   9.276
 6175W        W10226   8.588   8.054   9.973
 6176W        W10227   3.408   0.911  11.390
 6177W        W10228   3.923   5.874   8.733
 6178W        W10229   8.488   8.969   8.820
 6179W        W10230   7.070   4.164   1.354
 6180W        W10231  11.417  11.002   1.808
 6181W        W10232   3.831   8.749   2.811
 6182W        W10233   0.864   0.559   9.391
 6183W        W10234   8.870   0.826   1.480
 6184W        W10235   4.208   1.848  10.687
 6185W        W10236   6.495  10.364   1.144
 6186W        W10237   1.010  10.129   2.154
 6187W        W10238   6.934  10.467  10.349
 6188W        W10239   7.786   2.259   1.750
 6189W        W10240   4.723   1.605   1.712
 6190W        W10241   0.906   8.950   1.865
 6191W        W10242   5.147   3.816   2.243
 6192W        W10243   4.692   0.118   9.138
 6193W        W10244   8.153   3.704  10.574
 6194W        W10245  10.788   6.393  11.573
 6195W        W10246  11.001   5.981   8.743
 6196W        W10247   1.929   9.404   0.327
 6197W        W10248   7.262  10.561   0.726
 6198W        W10249   7.395   6.511   2.014
 6199W        W10250  11.377   3.432   0.187
 6200W        W10251   9.199  10.773   2.751
 6201W        W10252   7.405   9.620  11.374
 6202W        W10253   2.316   8.093  10.203
 6203W        W10254  11.479   4.281  11.206
 6204W        W10255   4.504   3.664   3.228
 6205W        W10256   8.871   4.275   0.883
 6206W        W10257   9.061   1.762   9.233
 6207W        W10258   1.396   2.313  10.677
 6208W        W10259   3.079   0.729   3.926
 6209W        W10260  11.066   5.969   1.945
 6210W        W10261   8.018   4.536   1.652
 6211W        W10262   6.791   9.994   9.171
 6212W        W10263   2.177   0.454  10.439
 6213W        W10264   2.345   2.834   1.533
 6214W        W10265   3.349   9.861  11.019
 6215W        W10266   5.013  10.432   8.846
 6216W        W10267   5.742   7.505   2.792
 6217W        W10268  11.204   4.043   8.857
 6218W        W10269   8.919   7.113   9.121
 6219W        W10270   1.509   7.311   1.456
 6220W        W10271   9.474   0.525   2.274
 6221W        W10272  10.993   5.276   0.941
 6222W        W10273   7.457   4.117   3.653
 6223W        W10274   5.101   9.551  10.546
 6224W        W10275   9.615   7.139   8.825
 6225W        W10276   9.387   8.865   2.395
 6226W        W10277  10.096   7.715   9.461
 6227W        W10278   4.624  10.705   0.799
 6228W        W10279  11.268   1.828   2.139
 6229W        W10280   7.322   6.747  10.023
 6230W        W10281   5.493   1.965  10.983
 6231W        W10282   6.587   9.513   0.058
 6232W        W10283   8.147   8.760   2.480
 6233W        W10284   7.137   7.563   1.661
 6234W        W10285   4.165   6.116   0.636
 6235W        W10286  10.761   4.010   2.338
 6236W        W10287   4.768   3.468  11.293
 6237W        W10288   9.365   5.053   9.464
 6238W        W10289  11.057   8.390   1.718
 6239W        W10290   7.875   8.220   1.866
 6240W        W10291   2.971   6.648   3.262
 6241W        W10292   0.940   9.549   3.505
 6242W        W10293  10.760   9.833   2.745
 6243W        W10294   2.245   5.736   2.738
 6244W        W10295   1.245   3.308   0.572
 6245W        W10296   3.412   2.855   1.291
 6246W        W10297   9.627   6.629   8.681
 6247W        W10298   7.412   6.189   1.637
 6248W        W10299  10.235   9.947  11.372
 6249W        W10300   2.597  10.400   9.206
 6250W        W10301   0.649   7.887  11.364
 6251W        W10302  11.453  10.266  10.640
 6252W        W10303   8.911  11.025  11.989
 6253W        W10304   4.805   6.845   1.958
 6254W        W10305   3.550   0.098   1.796
 6255W        W10306   9.002   3.567   3.329
 6256W        W10307   7.019   1.192   0.279
 6257W        W10308   4.598   9.323   3.071
 6258W        W10309   3.192  10.860   9.863
 6259W        W10310   3.993   5.819   9.960
 6260W        W10311   5.890   4.120   1.898
 6261W        W10312   5.530   9.843  10.447
 6262W        W10313   3.544   8.901   1.445
 6263W        W10314  11.394   0.275   9.055
 6264W        W10315   2.814   7.930  10.423
 6265W        W10316  10.954   1.697   8.835
 6266W        W10317   2.175   4.434   1.951
 6267W        W10318   9.428   7.241   8.361
 6268W        W10319   4.210   4.155   9.906
 6269W        W10320   1.395  10.011  10.731
 6270W        W10321   7.693   3.775   0.336
 6271W        W10322   9.326   6.156   9.981
 6272W        W10323  11.077   8.876   1.901
 6273W        W10324   8.665  10.881  11.424
 6274W        W10325   4.818   1.304   9.714
 6275W        W10326   7.583   4.490   2.365
 6276W        W10327   4.956   4.531   0.246
 6277W        W10328   9.118   1.324   9.490
 6278W        W10329  10.770   9.103  10.462
 6279W        W10330   0.604   7.851   3.622
 6280W        W10331   0.626   3.103   8.806
 6281W        W10332   2.141   8.416  11.313
 6282W        W10333  11.379  10.794  10.607
 6283W        W10334   5.025   3.484  10.059
 6284W        W10335   7.659   5.997  11.960
 6285W        W10336   4.302  11.423   1.218
 6286W        W10337   0.381   7.648  10.979
 6287W        W10338   1.653   7.439  10.489
 6288W        W10339   6.320   7.647   8.762
 6289W        W10340   7.102   8.709  10.337
 6290W        W10341   5.621  11.414   9.896
 6291W        W10342   8.502   1.872  10.422
 6292W        W10343   3.069  11.385  11.642
 6293W        W10344  11.017   2.173  10.163
 6294W        W10345   1.730   6.893   1.713
 6295W        W10346   3.388   0.226   9.895
 6296W        W10347  10.840   3.128   8.835
 6297W        W10348   8.394   1.802  11.941
 6298W        W10349   1.903   8.550   8.982
 6299W        W10350   4.161   7.437   2.278
 6300W        W10351   7.188   1.207   9.789
 6301W        W10352   4.204  11.056   9.829
 6302W        W10353   5.747   6.706  11.544
 6303W        W10354   5.127   5.543   0.762
 6304W        W10355   6.688   3.447   0.976
 6305W        W10356   0.447   5.144   2.515
 6306W        W10357  10.858  11.383   9.506
 6307W        W10358   7.514   9.588  11.902
 6308W        W10359   8.853   6.941   3.317
 6309W        W10360   9.515   0.883   2.721
 6310W        W10361   2.194   7.102   1.859
 6311W        W10362  11.017   5.146   1.928
 6312W        W10363   4.554   0.825   2.661
 6313W        W10364   0.295  10.533   9.338
 6314W        W10365   2.984   6.747  10.322
 6315W        W10366   1.962   4.802   8.534
 6316W        W10367   0.966  10.389   3.167
 6317W        W10368   9.830  10.998   9.430
 6318W        W10369   1.874   9.638  10.079
 6319W        W10370  11.344   2.720   0.052
 6320W        W10371   8.420   6.385   9.633
 6321W        W10372   8.069  10.906   8.621
 6322W        W10373   8.354   8.036   1.783
 6323W        W10374   2.154   6.744   3.128
 6324W        W10375   1.182   5.800   9.192
 6325W        W10376   2.721   5.064   9.541
 6326W        W10377   3.120   0.366  11.445
 6327W        W10378   1.796   5.960   0.169
 6328W        W10379   6.222  11.193   0.170
 6329W        W10380   0.482   9.911   1.320
 6330W        W10381   1.241  10.425  11.369
 6331W        W10382   0.430   5.257   3.454
 6332W        W10383   6.156   1.113   0.435
 6333W        W10384  11.496   1.318   2.906
 6334W        W10385   3.265  10.956   8.822
 6335W        W10386   5.555   0.030  10.832
 6336W        W10387   3.727  10.713   0.852
 6337W        W10388   5.098   5.019   0.082
 6338W        W10389   0.911   6.254   9.051
 6339W        W10390   0.816  10.056   3.538
 6340W        W10391   9.168   2.101  10.067
 6341W        W10392   0.256   5.655  11.231
 6342W        W10393   9.868   2.897   0.702
 6343W        W10394   8.530   8.540   2.986
 6344W        W10395  10.458   1.449   0.538
 6345W        W10396   6.237   6.963   0.477
 6346W        W10397   4.703  10.624   2.301
 6347W        W10398   1.777   7.227   9.760
 6348W        W10399  10.279   9.135   3.163
 6349W        W10400   9.963   1.792   9.283
 6350W        W10401   4.612  11.295  10.092
 6351W        W10402   7.038   1.046   8.871
 6352W        W10403   8.823   5.274   2.775
 6353W        W10404   2.545   1.785   3.103
 6354W        W10405   3.084   3.285   8.853
 6355W        W10406   0.810   4.838   9.997
 6356W        W10407   9.850   5.644  11.123
 6357W        W10408   2.723   9.561   8.981
 6358W        W10409   2.748   7.504   8.307
 6359W        W10410   3.158   6.261   0.787
 6360W        W10411   4.031   5.091   2.531
 6361W        W10412  10.336   8.170   1.787
 6362W        W10413   9.013   4.751   0.725
 6363W        W10414   7.133  10.339   1.895
 6364W        W10415   5.245   1.655   0.279
 6365W        W10416   7.047   2.481   0.814
 6366W        W10417   4.378   9.640   9.780
 6367W        W10418   5.497   3.592   1.184
 6368W        W10419   3.236   2.107   0.876
 6369W        W10420   2.255   8.901   1.077
 6370W        W10421  10.891   1.774  11.844
 6371W        W10422   7.889   8.922   8.779
 6372W        W10423   4.085   6.156  11.587
 6373W        W10424   2.047   9.352  10.974
 6374W        W10425   0.708   8.846   0.014
 6375W        W10426   7.370   5.558   0.019
 6376W        W10427   3.317   5.775   0.847
 6377W        W10428   0.498   6.184   2.185
 6378W        W10429   0.487   6.112  11.271
 6379W        W10430   1.789   6.051   1.162
 6380W        W10431   8.610   3.731   9.543
 6381W        W10432   9.597   5.256   9.880
 6382W        W10433   0.301   7.490   3.388
 6383W        W10434  10.443   0.364  11.197
 6384W        W10435  11.103   6.919   1.270
 6385W        W10436   3.444  10.015   0.424
 6386W        W10437   0.475   2.144   0.742
 6387W        W10438   3.415   5.268  10.291
 6388W        W10439   1.835   1.823   2.191
 6389W        W10440  10.741   7.082   3.544
 6390W        W10441   6.402   3.776  10.090
 6391W        W10442   0.708  10.695   8.533
 6392W        W10443   7.125   8.527   1.449
 6393W        W10444   3.338   4.420   0.559
 6394W        W10445   4.534   6.737  10.437
 6395W        W10446   6.506   4.714  10.987
 6396W        W10447   9.318  11.316   8.958
 6397W        W10448   8.304   7.444   3.230
 6398W        W10449  10.833   0.820   2.983
 6399W        W10450   9.511   9.186  11.402
 6400W        W10451   9.862   5.828   1.476
 6401W        W10452  10.729   7.634   1.054
 6402W        W10453   8.766  10.364  11.329
 6403W        W10454   5.235   1.657  10.289
 6404W        W10455   6.866   3.196   3.394
 6405W        W10456   0.237   5.522   9.007
 6406W        W10457   1.697   5.810  11.692
 6407W        W10458   8.959   0.302   2.343
 6408W        W10459   2.148   5.701   1.183
 6409W        W10460   1.463   2.389   0.601
 6410W        W10461  10.424   8.115   9.404
 6411W        W10462   0.452   0.759  10.978
 6412W        W10463  11.089  11.099   0.766
 6413W        W10464   1.938   2.711   0.703
 6414W        W10465   7.144  11.270  10.853
 6415W        W10466  10.279   9.630   0.957
 6416W        W10467   7.828   2.777  10.849
 6417W        W10468   5.490   6.264   0.494
 6418W        W10469   9.374   3.077   1.815
 6419W        W10470   6.156   8.462   8.917
 6420W        W10471   0.020   6.117  11.459
 6421W        W10472  10.900   0.451  11.507
 6422W        W10473   9.299   9.271   0.753
 6423W        W10474   5.075   9.496   0.533
 6424W        W10475   6.131   8.728   3.087
 6425W        W10476   5.560   4.525  10.967
 6426W        W10477   5.620   0.847   1.552
 6427W        W10478   9.219   2.272   2.915
 6428W        W10479   1.241   8.390   2.334
 6429W        W10480   4.242   3.095  11.965
 6430W        W10481   0.986   2.194   9.899
 6431W        W10482   1.789   7.797   0.417
 6432W        W10483   4.092   2.214   0.354
 6433W        W10484   2.803   8.520   9.153
 6434W        W10485   8.495  10.719   1.435
 6435W        W10486   7.948   8.900  10.586
 6436W        W10487   8.634   8.059   0.708
 6437W        W10488   6.939   7.911   2.120
 6438W        W10489   7.199   1.911   2.164
 6439W        W10490  11.251   3.131   2.250
 6440W        W10491   8.432   2.831   2.289
 6441W        W10492   4.163   9.538   3.313
 6442W        W10493   3.033   4.227   9.353
 6443W        W10494  10.421   1.630   9.477
 6444W        W10495   9.885   2.568  10.811
 6445W        W10496   2.839   9.660  10.407
 6446W        W10497   0.581   8.185   8.731
 6447W        W10498   3.950   8.808   8.392
 6448W        W10499   2.301   5.950  11.416
 6449W        W10500  11.447   7.915  10.252
 6450W        W10501  10.566   2.651  11.318
 6451W        W10502   3.917   9.506   9.949
 6452W        W10503   2.306   4.316   2.724
 6453W        W10504  11.299   6.513  11.752
 6454W        W10505  10.817  10.360   2.759
 6455W        W10506   9.321   5.295   2.864
 6456W        W10507   0.271   6.973   3.435
 6457W        W10508   5.539   0.276   9.156
 6458W        W10509   3.213   7.659   9.467
 6459W        W10510  11.475  10.785  11.551
 6460W        W10511   8.040   9.923   8.375
 6461W        W10512   1.093   1.895   1.903
 6462W        W10513   5.189   4.125  11.610
 6463W        W10514   5.696   5.258   2.259
 6464W        W10515   1.277   2.619   2.426
 6465W        W10516   9.952   1.251  10.536
 6466W        W10517   9.840   0.733  10.011
 6467W        W10518   4.023   8.475   2.428
 6468W        W10519   8.848   0.494   0.366
 6469W        W10520   8.965   4.588  10.449
 6470W        W10521   4.894   2.212   2.815
 6471W        W10522   8.312  10.004  11.380
 6472W        W10523  10.728   9.454   0.168
 6473W        W10524   1.532   0.691  10.871
 6474W        W10525   7.406   6.606  10.946
 6475W        W10526   8.553   6.591   3.591
 6476W        W10527   3.926   3.105   3.171
 6477W        W10528   9.410   0.145  11.895
 6478W        W10529   8.446   8.656  11.448
 6479W        W10530   4.740   5.706   1.054
 6480W        W10531   0.753  10.710   2.837
 6481W        W10532  10.483   6.520   8.897
 6482W        W10533   0.461   3.658   0.718
 6483W        W10534   0.672   2.157   9.446
 6484W        W10535   1.194   0.671   2.304
 6485W        W10536  10.614   9.228  11.687
 6486W        W10537   4.724   8.395   3.392
 6487W        W10538   7.529   7.549   9.935
 6488W        W10539   1.713   1.953  10.902
 6489W        W10540   4.664   7.606   0.130
 6490W        W10541   0.814  10.193  11.634
 6491W        W10542   2.122   3.317   0.729
 6492W        W10543   0.500   0.008   1.428
 6493W        W10544   1.854   5.538  11.275
 6494W        W10545   4.913   4.041   1.864
 6495W        W10546   3.745   7.028   0.993
 6496W        W10547  10.693   5.878   2.866
 6497W        W10548   8.190   4.371   0.315
 6498W        W10549   0.818   8.859   9.759
 6499W        W10550   7.399  11.312   3.128
 6500W        W10551   9.087   1.778   0.632
 6501W        W10552   9.551  11.418   3.445
 6502W        W10553   2.701   7.623   1.169
 6503W        W10554   7.021   5.066   1.683
 6504W        W10555  11.428   3.398   0.690
 6505W        W10556   2.471   7.095   1.067
 6506W        W10557   0.308   0.667   0.604
 6507W        W10558   5.304   9.924   9.553
 6508W        W10559   3.621   3.038   1.904
 6509W        W10560   5.731   5.339   0.789
 6510W        W10561   7.412   9.391   2.408
 6511W        W10562   1.479   2.294  10.168
 6512W        W10563   3.626   6.592   8.592
 6513W        W10564   2.032   7.423   2.397
 6514W        W10565  11.261  10.042   2.711
 6515W        W10566   4.648   1.352   2.412
 6516W        W10567   6.990   4.191  11.922
 6517W        W10568   0.701   5.370   9.979
 6518W        W10569   6.692   1.730  11.220
 6519W        W10570   8.753  11.460   3.060
 6520W        W10571   7.125   1.996   0.678
 6521W        W10572   1.461   0.722   0.032
 6522W        W10573   7.789   9.983  11.238
 6523W        W10574   4.105   0.465   0.011
 6524W        W10575   8.075   8.200   9.979
 6525W        W10576   0.309   6.513   3.740
 6526W        W10577   4.550   5.744  11.497
 6527W        W10578   4.022  10.570   9.858
 6528W        W10579   5.640   2.376  10.741
 6529W        W10580   8.959   9.279   9.350
 6530W        W10581   1.880   6.921   2.227
 6531W        W10582   0.408  10.815  11.829
 6532W        W10583   3.078  10.861  11.291
 6533W        W10584   0.833   9.979  10.549
 6534W        W10585   2.567   5.398   8.181
 6535W        W10586   6.613   6.709  11.280
 6536W        W10587   3.175   3.308  10.926
 6537W        W10588  10.879  10.303  11.797
 6538W        W10589   1.326  11.200   2.840
 6539W        W10590   3.746  10.954  10.547
 6540W        W10591   7.576   1.948  11.373
 6541W        W10592   3.962  11.468  11.820
 6542W        W10593   0.859   0.812   1.297
 6543W        W10594   1.834   8.606   9.496
 6544W        W10595   3.645   6.148   0.976
 6545W        W10596   9.773   1.675  10.757
 6546W        W10597   3.278   5.602  11.955
 6547W        W10598   0.603   7.264   2.134
 6548W        W10599   5.888   7.013   2.637
 6549W        W10600   9.741  11.426  11.546
 6550W        W10601   5.274   6.606   1.332
 6551W        W10602   6.239   4.103   4.100
 6552W        W10603   1.568   5.981  11.204
 6553W        W10604   6.699   6.883   1.244
 6554W        W10605   7.205   7.689  10.353
 6555W        W10606   6.512   7.758  10.980
 6556W        W10607   4.196  10.990   2.909
 6557W        W10608   7.073   0.877  10.731
 6558W        W10609   5.941  11.476   9.480
 6559W        W10610   5.932   9.573  10.079
 6560W        W10611   3.768   8.940   2.331
 6561W        W10612   4.162   6.284   3.728
 6562W        W10613   1.295   2.803   0.363
 6563W        W10614  10.556   2.390  10.021
 6564W        W10615   0.292  11.392   2.813
 6565W        W10616   0.363   7.229   1.680
 6566W        W10617   3.173   2.081  11.986
 6567W        W10618   2.884   2.783  11.425
 6568W        W10619   5.556   9.297   3.160
 6569W        W10620  10.051   8.282   2.229
 6570W        W10621  10.935  11.076   1.640
 6571W        W10622   1.850   9.230   3.239
 6572W        W10623   2.331  11.082  10.451
 6573W        W10624   7.501   0.985   0.543
 6574W        W10625   1.651   1.328  11.433
 6575W        W10626   6.746   3.301   2.316
 6576W        W10627   2.160   6.597   8.649
 6577W        W10628   2.872   6.216  10.603
 6578W        W10629   4.195   3.554  10.744
 6579W        W10630   6.650   2.892   8.540
 6580W        W10631   2.286   2.463  10.591
 6581W        W10632   1.630   7.039   9.317
 6582W        W10633  11.208   7.708   2.659
 6583W        W10634   9.224   0.769   0.572
 6584W        W10635   1.723   8.662   2.276
 6585W        W10636   5.109  11.281   9.850
 6586W        W10637   2.237   9.476   9.160
 6587W        W10638  10.117   3.445   1.889
 6588W        W10639   8.786   3.355  11.966
 6589W        W10640   4.243   0.097   9.928
 6590W        W10641   9.870   2.467   1.785
 6591W        W10642  10.930   8.164   0.862
 6592W        W10643   9.662   0.673   0.325
 6593W        W10644   5.152   5.995   0.950
 6594W        W10645   7.722   4.500   9.067
 6595W        W10646   3.253   2.616   0.849
 6596W        W10647   5.215   6.055  10.318
 6597W        W10648  10.079   8.222  11.876
 6598W        W10649   6.063   1.000   0.935
 6599W        W10650   2.007   3.422  10.957
 6600W        W10651  10.186   6.097   0.720
 6601W        W10652   8.953   7.857  11.483
 6602W        W10653   1.319   1.961   3.308
 6603W        W10654   6.559   8.657   1.803
 6604W        W10655   6.285   7.189   8.968
 6605W        W10656  10.689   0.805   9.026
 6606W        W10657   2.712   8.860   9.528
 6607W        W10658  11.261   8.548   0.724
 6608W        W10659   3.529   4.111   0.955
 6609W        W10660   4.043   6.194   0.121
 6610W        W10661   4.438   1.793   0.678
 6611W        W10662   6.231   0.260  10.816
 6612W        W10663   4.101  11.475   0.757
 6613W        W10664   7.628   8.825   0.604
 6614W        W10665   2.017   3.031  11.713
 6615W        W10666   8.142   2.830  10.396
 6616W        W10667   1.284   3.623  11.728
 6617W        W10668   4.559   3.428  10.403
 6618W        W10669   4.872   7.176  11.409
 6619W        W10670   5.653   6.310  10.176
 6620W        W10671   7.410   3.858   1.600
 6621W        W10672   0.163   5.642   0.588
 6622W        W10673  10.293   8.630  10.163
 6623W        W10674   7.127   3.104   1.990
 6624W        W10675   5.986   2.318   9.543
 6625W        W10676   4.546   1.351   9.287
 6626W        W10677   4.503   4.679   3.254
 6627W        W10678  10.082   7.463  10.365
 6628W        W10679  10.138  10.987   0.726
 6629W        W10680  11.429   5.255  11.114
 6630W        W10681   4.764   1.354  10.286
 6631W        W10682   0.802   3.506   9.576
 6632W        W10683   5.756   4.375   0.711
 6633W        W10684  10.123   7.629   1.664
 6634W        W10685   8.681   1.292   9.743
 6635W        W10686   3.281   8.576   0.227
 6636W        W10687   5.962   1.631  10.972
 6637W        W10688   5.059   1.819   4.154
 6638W        W10689   6.943   1.238   1.148
 6639W        W10690   7.893   5.097   9.408
 6640W        W10691   0.509   3.771   2.895
 6641W        W10692   8.115  11.301  10.917
 6642W        W10693   1.908   5.255   8.957
 6643W        W10694   1.352   2.855  10.399
 6644W        W10695   8.155  11.347   9.968
 6645W        W10696   9.076   0.456   3.241
 6646W        W10697   0.425  11.243   0.168
 6647W        W10698   8.623  11.330  10.195
 6648W        W10699   2.703   6.549   8.727
 6649W        W10700  10.511   0.668  10.657
 6650W        W10701   5.730   7.730   4.030
 6651W        W10702   3.314   3.312  11.417
 6652W        W10703   4.081  10.352  10.858
 6653W        W10704   9.017   3.358   9.021
 6654W        W10705   6.123   5.692   2.848
 6655W        W10706   4.971   8.125   9.259
 6656W        W10707   9.258   5.928  10.434
 6657W        W10708  10.387   4.161   3.126
 6658W        W10709   3.430   7.361   2.965
 6659W        W10710   7.620   2.118  11.895
 6660W        W10711   3.144   1.361  11.340
 6661W        W10712  10.711  11.360   9.020
 6662W        W10713  10.394   0.965   3.234
 6663W        W10714   4.205   1.259  10.423
 6664W        W10715   5.872  10.867   2.503
 6665W        W10716   2.074  10.351   9.164
 6666W        W10717   1.388   3.686  10.719
 6667W        W10718   1.759   4.626   0.420
 6668W        W10719   4.429   1.249   1.942
 6669W        W10720   9.039   8.998   9.851
 6670W        W10721   1.266   4.557  10.809
 6671W        W10722   4.260   2.760   1.547
 6672W        W10723   0.733   4.101   1.226
 6673W        W10724   9.346  10.309   3.648
 6674W        W10725  10.719   6.053   1.547
 6675W        W10726   2.135  10.563   1.745
 6676W        W10727  11.299   0.820   3.207
 6677W        W10728   0.564   1.872  11.169
 6678W        W10729   1.870  10.107   1.450
 6679W        W10730   7.606   6.251  10.202
 6680W        W10731   4.396   6.677  11.781
 6681W        W10732   0.084   1.683  11.252
 6682W        W10733   7.618  10.374  10.967
 6683W        W10734   7.616   8.045  10.664
 6684W        W10735   3.740   5.058   9.338
 6685W        W10736   5.120   0.274   1.294
 6686W        W10737   1.214   5.951  10.812
 6687W        W10738   9.806   8.999   3.299
 6688W        W10739   7.628   5.451   0.955
 6689W        W10740   2.210   8.805   2.439
 6690W        W10741   7.657   1.920   9.206
 6691W        W10742   9.313   4.821  10.031
 6692W        W10743   7.189   7.488   9.089
 6693W        W10744  10.900  10.889   3.036
 6694W        W10745   7.918   2.370   9.703
 6695W        W10746   3.707   6.639  10.799
 6696W        W10747   7.853  11.079   3.377
 6697W        W10748   3.935  10.275  11.350
 6698W        W10749   5.423   8.526  10.977
 6699W        W10750   0.602   9.080  10.184
 6700W        W10751   0.234   3.168   2.398
 6701W        W10752   6.072   2.606  10.888
 6702W        W10753  10.652   8.370   1.377
 6703W        W10754   3.206  11.453   9.160
 6704W        W10755  10.130   4.259   9.019
 6705W        W10756   6.770   1.793   2.434
 6706W        W10757   0.837   4.621  10.479
 6707W        W10758   5.729   2.851   2.851
 6708W        W10759   9.992   2.709   0.237
 6709W        W10760   3.918   7.268   2.817
 6710W        W10761  10.035   0.354   3.353
 6711W        W10762   7.380   1.088   2.432
 6712W        W10763   7.941   3.282  11.142
 6713W        W10764   0.779   7.402   0.823
 6714W        W10765   1.845   3.126  10.179
 6715W        W10766   1.792   6.418   0.386
 6716W        W10767   5.611   1.867   0.008
 6717W        W10768   2.362   9.584  10.647
 6718W        W10769   6.150   2.481  11.528
 6719W        W10770   4.556   6.097   1.334
 6720W        W10771   4.712  11.471   0.384
 6721W        W10772   9.109   7.341  10.434
 6722W        W10773   1.626  11.000  11.539
 6723W        W10774   4.206   9.506  11.467
 6724W        W10775   6.298   8.745   2.222
 6725W        W10776   3.649   0.884  10.375
 6726W        W10777   0.964   6.249  11.794
 6727W        W10778   8.828   7.604   8.864
 6728W        W10779   5.331   4.463   0.978
 6729W        W10780  10.012   3.247   8.783
 6730W        W10781   8.031   1.917  11.601
 6731W        W10782   9.616   9.430   3.116
 6732W        W10783   5.632   4.577   1.897
 6733W        W10784   5.829   7.063   9.163
 6734W        W10785   3.426   2.014   2.154
 6735W        W10786   8.410   5.943   9.913
 6736W        W10787   8.392   8.406   9.571
 6737W        W10788   0.225   4.015   1.354
 6738W        W10789   6.137   1.585   9.073
 6739W        W10790   4.869   7.921   1.230
 6740W        W10791   8.913   9.087   3.434
 6741W        W10792   9.992   7.931   1.229
 6742W        W10793   6.826  10.927   2.172
 6743W        W10794   9.483   3.367   8.749
 6744W        W10795   8.416   0.178   3.869
 6745W        W10796   2.960   0.715   0.281
 6746W        W10797   6.052   2.130   9.995
 6747W        W10798   4.935   2.644   1.818
 6748W        W10799   7.057   8.709   9.489
 6749W        W10800   7.809  10.440  11.440
 6750W        W10801   5.707   0.761   2.722
 6751W        W10802  11.348   5.248   9.892
 6752W        W10803   7.443  10.060  11.608
 6753W        W10804   7.103  11.195   1.319
 6754W        W10805  11.448   3.808  11.390
 6755W        W10806   9.911   9.998  11.960
 6756W        W10807   7.121   8.925   0.519
 6757W        W10808   2.161   4.980  11.727
 6758W        W10809   4.722   8.882   2.847
 6759W        W10810   2.739   9.459   1.659
 6760W        W10811  10.746   7.736   2.323
 6761W        W10812   1.770   2.669   9.914
 6762W        W10813   5.320   9.369   9.821
 6763W        W10814   2.271  10.033  11.385
 6764W        W10815  11.441   8.096   0.975
 6765W        W10816   8.237   1.229   0.644
 6766W        W10817   9.958   7.581   0.333
 6767W        W10818   5.116   7.249  10.947
 6768W        W10819   3.562   6.891   2.771
 6769W        W10820   8.636   3.040   1.237
 6770W        W10821   7.788   3.619   1.312
 6771W        W10822   1.373   7.183  11.563
 6772W        W10823   0.901   3.776   0.418
 6773W        W10824   2.808   2.841   0.963
 6774W        W10825  10.311  10.958  11.755
 6775W        W10826   6.514   2.337  10.759
 6776W        W10827   9.462   6.961   9.696
 6777W        W10828   4.765   9.950  10.927
 6778W        W10829   6.770   1.110   3.859
 6779W        W10830  10.603   7.173   1.338
 6780W        W10831  11.294   0.176   9.575
 6781W        W10832   5.270   9.021  10.687
 6782W        W10833   2.319   1.947  10.574
 6783W        W10834   5.118   9.313   2.445
 6784W        W10835   3.201   5.025   3.776
 6785W        W10836  11.303   5.284   0.521
 6786W        W10837   8.260   5.917   8.512
 6787W        W10838   9.705   0.478   1.799
 6788W        W10839  10.495   3.851  10.865
 6789W        W10840   1.244   6.596   8.692
 6790W        W10841   2.120   7.588   3.674
 6791W        W10842   4.564   1.458  10.734
 6792W        W10843   6.005   7.539  10.249
 6793W        W10844   2.712   7.574   9.333
 6794W        W10845   4.329  10.691   9.450
 6795W        W10846   4.785   7.180  10.354
 6796W        W10847   8.007  10.320   1.543
 6797W        W10848   7.963   1.262   1.430
 6798W        W10849   7.139   6.792   2.704
 6799W        W10850   9.145   8.402   1.243
 6800W        W10851   5.747   2.641   0.465
 6801W        W10852   1.892   2.153  10.425
 6802W        W10853   3.036   2.470  11.051
 6803W        W10854  10.390   7.437   2.975
 6804W        W10855  11.057   0.414   1.319
 6805W        W10856   5.875   4.281  11.399
 6806W        W10857   7.469   5.344   1.420
 6807W        W10858   7.181   9.442   2.871
 6808W        W10859   9.329   8.868   1.504
 6809W        W10860   5.615  10.737   3.453
 6810W        W10861   8.006   2.352   9.187
 6811W        W10862   3.672   7.058   0.017
 6812W        W10863   2.223  11.068   1.827
 6813W        W10864  11.482   0.504   0.963
 6814W        W10865   3.249   8.852   0.978
 6815W        W10866   7.308   7.010   8.858
 6816W        W10867   8.926   7.619  10.054
 6817W        W10868  10.529   9.095   8.707
 6818W        W10869   4.824   6.680  11.285
 6819W        W10870   0.422   4.852   1.640
 6820W        W10871   2.436   6.476  11.406
 6821W        W10872   9.423   9.806   2.826
 6822W        W10873   8.807   5.765  11.922
 6823W        W10874  10.868   0.368   9.327
 6824W        W10875   4.973   7.452   0.937
 6825W        W10876   2.524  10.215   0.764
 6826W        W10877  10.315   6.180   1.209
 6827W        W10878   5.220   9.952   0.356
 6828W        W10879  11.246   4.760   3.266
 6829W        W10880   5.254   0.798  11.810
 6830W        W10881   5.153   2.626   3.655
 6831W        W10882   5.754   4.092  10.737
 6832W        W10883   9.405  10.303   2.778
 6833W        W10884   1.840   7.823   2.717
 6834W        W10885  10.883   7.181   0.895
 6835W        W10886   9.864   4.713   0.189
 6836W        W10887   9.976   1.194   2.115
 6837W        W10888   3.176   4.755   0.911
 6838W        W10889   2.964   3.434  11.766
 6839W        W10890   0.662  10.427   0.081
 6840W        W10891   6.779   8.685   2.631
 6841W        W10892   8.473   9.467  10.110
 6842W        W10893   1.823   5.546   2.968
 6843W        W10894  11.395   2.889   2.691
 6844W        W10895   5.474  11.288   9.387
 6845W        W10896   8.948   9.988   0.850
 6846W        W10897   8.387   3.457  10.940
 6847W        W10898   6.554   1.606  10.169
 6848W        W10899   0.832   5.316  11.898
 6849W        W10900   2.706   8.137   1.199
 6850W        W10901   9.369   4.234  10.325
 6851W        W10902   7.467   6.689   0.341
 6852W        W10903  10.016   3.779   1.058
 6853W        W10904   2.172   7.433  10.569
 6854W        W10905   9.209   7.910   9.757
 6855W        W10906   8.461   9.898   9.835
 6856W        W10907   2.688   3.799  11.983
 6857W        W10908   0.985   0.732  10.867
 6858W        W10909  10.554  10.257   9.644
 6859W        W10910   6.220   1.257   8.662
 6860W        W10911   0.506   5.984   3.043
 6861W        W10912   0.814   4.559   9.543
 6862W        W10913   7.447   1.406   1.377
 6863W        W10914   9.397   5.811  11.303
 6864W        W10915  10.848   1.316  11.607
 6865W        W10916   8.771   4.734  11.767
 6866W        W10917   2.526   3.313  10.870
 6867W        W10918   6.382   1.332  10.941
 6868W        W10919   7.471   7.395   0.821
 6869W        W10920   1.359  10.962   2.355
 6870W        W10921   9.048   7.431   3.273
 6871W        W10922   5.613  10.393   2.478
 6872W        W10923   4.141  10.361  11.811
 6873W        W10924   1.318   1.823   9.976
 6874W        W10925   3.827   4.130   2.783
 6875W        W10926   5.021   6.078  11.947
 6876W        W10927   9.483   8.440   2.648
 6877W        W10928   7.698   5.565   2.212
 6878W        W10929   1.256   9.972   3.286
 6879W        W10930   5.456   7.422   0.770
 6880W        W10931  10.416  10.027   3.088
 6881W        W10932   4.264   5.211   0.542
 6882W        W10933   4.204   2.145   9.352
 6883W        W10934   8.943   7.192   2.818
 6884W        W10935   5.756   3.725  11.462
 6885W        W10936   7.909   2.753   1.726
 6886W        W10937   3.197   2.305  11.519
 6887W        W10938   7.513  10.003   1.852
 6888W        W10939   2.332   6.636   9.127
 6889W        W10940   9.018   9.610   1.643
 6890W        W10941   4.069  10.374   9.153
 6891W        W10942   3.148   6.167   1.785
 6892W        W10943   1.685   8.142  11.439
 6893W        W10944   6.132   0.211   1.320
 6894W        W10945   2.973   3.344   2.297
 6895W        W10946   4.078  11.418   8.945
 6896W        W10947   9.016   8.619   3.209
 6897W        W10948   7.162   8.193  10.338
 6898W        W10949   7.217   2.198   1.198
 6899W        W10950  10.071   8.075   9.828
 6900W        W10951   5.704   1.787   0.502
 6901W        W10952   0.918  11.370  10.959
 6902W        W10953   0.787  10.732   9.389
 6903W        W10954   3.356  11.296   2.644
 6904W        W10955   0.287   7.862   9.058
 6905W        W10956   1.998   7.600  10.116
 6906W        W10957   4.714   1.924  10.511
 6907W        W10958   7.591  10.448   1.220
 6908W        W10959   5.256   8.862   9.865
 6909W        W10960   7.169   5.300   0.693
 6910W        W10961   8.018   7.418   0.418
 6911W        W10962   5.550   3.099   0.284
 6912W        W10963  10.759   9.144  10.968
 6913W        W10964   3.708  10.369   9.494
 6914W        W10965   8.049   6.368   9.270
 6915W        W10966  10.265   1.973  10.608
 6916W        W10967   2.875   5.760   3.691
 6917W        W10968   6.128   0.205   0.008
 6918W        W10969   2.361   0.925  11.298
 6919W        W10970   8.127  10.340  11.038
 6920W        W10971   2.678  10.147  10.466
 6921W        W10972   1.442   1.504  10.818
 6922W        W10973   9.451   0.499  11.523
 6923W        W10974   7.229   9.246   8.969
 6924W        W10975   3.355   5.242   0.951
 6925W        W10976   9.986   7.183   0.006
 6926W        W10977   7.514   1.801   0.969
 6927W        W10978   6.911   7.510  10.736
 6928W        W10979  11.242   4.722  11.424
 6929W        W10980   9.147   7.520   1.999
 6930W        W10981   2.864   9.939  10.889
 6931W        W10982   7.246  10.073   3.578
 6932W        W10983  10.834   5.492   0.321
 6933W        W10984  10.432   8.809  10.745
 6934W        W10985   0.988   0.065   2.691
 6935W        W10986  11.035   3.307  11.288
 6936W        W10987  10.669   5.350   2.765
 6937W        W10988   4.321  10.022   0.162
 6938W        W10989   8.162  11.044  11.418
 6939W        W10990   0.341   6.724   9.676
 6940W        W10991   9.842   9.415   9.643
 6941W        W10992   7.400   2.436  10.322
 6942W        W10993   5.307   4.311   3.116
 6943W        W10994   2.633  11.322   9.894
 6944W        W10995   3.463   0.983  10.863
 6945W        W10996   1.643   5.717   8.996
 6946W        W10997   1.631   4.055   9.150
 6947W        W10998   8.465   9.317   1.382
 6948W        W10999   3.388   4.702   1.508
 6949W        W11000   1.612   6.901   1.167
 6950W        W11001   6.730   8.873   9.949
 6951W        W11002   9.824   9.499   1.192
 6952W        W11003   8.953  10.026   1.380
 6953W        W11004   3.115   3.854   2.328
 6954W        W11005   7.345   2.619  10.797
 6955W        W11006   8.445   5.222  10.443
 6956W        W11007   8.411   8.497   0.988
 6957W        W11008   7.501   5.657   0.504
 6958W        W11009  11.407   0.354   3.481
 6959W        W11010   8.023   0.745   1.344
 6960W        W11011   0.391   4.017  10.888
 6961W        W11012  10.875   2.471  10.923
 6962W        W11013   6.590   7.675   9.629
 6963W        W11014   4.244   1.451   8.803
 6964W        W11015   6.081   4.992   9.618
 6965W        W11016   5.264   1.659   1.252
 6966W        W11017   5.691   9.996   9.224
 6967W        W11018   6.359  11.385  10.470
 6968W        W11019   4.348   5.616   1.374
 6969W        W11020   8.920   1.018  11.930
 6970W        W11021   3.223   2.231   8.740
 6971W        W11022   9.989   6.019   8.950
 6972W        W11023   7.621   1.712  10.923
 6973W        W11024   3.798  11.391   9.982
 6974W        W11025  10.214   5.308  10.981
 6975W        W11026   7.467   1.298   1.909
 6976W        W11027   9.864   7.447   2.316
 6977W        W11028   5.615   8.554  11.904
 6978W        W11029   5.772  10.974   9.653
 6979W        W11030   6.151   4.144   9.889
 6980W        W11031   5.481  11.373  11.760
 6981W        W11032   8.487   0.761   0.713
 6982W        W11033   5.737   8.769   9.091
 6983W        W11034   9.540  11.273   9.764
 6984W        W11035   2.660   0.820   3.106
 6985W        W11036   4.501   9.306  10.205
 6986W        W11037   6.642   5.204  11.066
 6987W        W11038   4.784   3.291   2.295
 6988W        W11039   2.449   5.170   9.949
 6989W        W11040  11.208   6.477   1.840
 6990W        W11041   2.847   1.992   2.160
 6991W        W11042   3.750   6.237  10.211
 6992W        W11043  11.337   7.431  10.110
 6993W        W11044   4.644  11.403   3.365
 6994W        W11045  10.292   2.044   1.116
 6995W        W11046   9.556   0.473   8.923
 6996W        W11047   8.311   0.715   9.841
 6997W        W11048   3.973  10.217   3.821
 6998W        W11049   1.224   4.525  11.727
 6999W        W11050   5.105   7.084   9.958
 7000W        W11051   6.302  11.191   0.669
 7001W        W11052   2.657   1.399  11.780
 7002W        W11053  10.330   9.536   8.492
 7003W        W11054   9.107   2.870   8.875
 7004W        W11055   1.860   0.068   8.933
 7005W        W11056   7.581   1.011   8.927
 7006W        W11057   3.792   2.874  11.841
 7007W        W11058   6.966   4.108   9.445
 7008W        W11059   2.720   2.967  10.081
 7009W        W11060   0.325   4.047   9.847
 7010W        W11061  10.303   1.961   0.614
 7011W        W11062   1.726  10.858   3.195
 7012W        W11063   8.974   4.120  10.673
 7013W        W11064   2.064   6.354   3.455
 7014W        W11065   2.705  11.228   1.734
 7015W        W11066  10.345   5.708   0.392
 7016W        W11067  10.789   1.280   1.527
 7017W        W11068   9.836   1.148   0.436
 7018W        W11069   1.038   7.079   0.459
 7019W        W11070   0.888   5.041   2.768
 7020W        W11071   7.291   7.176  10.590
 7021W        W11072  11.410   1.025   0.904
 7022W        W11073   2.959  11.281   0.137
 7023W        W11074   5.756   6.652   2.223
 7024W        W11075   1.853   0.870  11.293
 7025W        W11076   4.204   8.390  11.261
 7026W        W11077   7.352   2.372   0.330
 7027W        W11078   0.850   4.652   0.475
 7028W        W11079   1.339   9.782   8.852
 7029W        W11080   8.663   2.941   9.142
 7030W        W11081   6.705   9.048   3.416
 7031W        W11082   4.265   5.634   0.852
 7032W        W11083   6.085   3.663  10.683
 7033W        W11084   5.529   6.192   1.201
 7034W        W11085   4.991   3.867   8.732
 7035W        W11086   6.048   9.964   9.573
 7036W        W11087   6.452  10.914   1.830
 7037W        W11088  11.380   1.723   2.611
 7038W        W11089   7.646   2.785   0.460
 7039W        W11090   0.255   8.100   2.165
 7040W        W11091   9.096   4.704   9.039
 7041W        W11092   1.518  10.727   8.701
 7042W        W11093   7.830   0.206   2.212
 7043W        W11094   3.408   8.981   0.512
 7044W        W11095   7.921   3.655   0.809
 7045W        W11096   5.181   9.772  10.074
 7046W        W11097   8.793   0.936   1.963
 7047W        W11098  10.021  11.046   2.747
 7048W        W11099   5.539   1.220   3.539
 7049W        W11100   5.978   8.924  11.530
 7050W        W11101   5.645   4.693   2.402
 7051W        W11102   8.402   0.756   0.195
 7052W        W11103   8.021   5.827   3.660
 7053W        W11104   0.585   0.909   9.066
 7054W        W11105   2.869   4.228  11.706
 7055W        W11106  11.215   6.017   2.789
 7056W        W11107   7.489   8.120   1.549
 7057W        W11108   5.347   0.365  10.491
 7058W        W11109   5.639   6.598   9.165
 7059W        W11110   7.874   7.822   2.192
 7060W        W11111   8.873  10.413  10.343
 7061W        W11112   7.928  10.788  11.800
 7062W        W11113  10.926   0.234   0.457
 7063W        W11114   3.561   3.992  10.628
 7064W        W11115  10.172   1.575   0.934
 7065W        W11116   9.999   6.487  10.402
 7066W        W11117   4.171   2.783   3.508
 7067W        W11118   6.725   1.896   8.967
 7068W        W11119   5.713   8.214   9.515
 7069W        W11120   3.228   9.313   1.771
 7070W        W11121   7.534  11.456   1.175
 7071W        W11122   1.663   8.710   3.211
 7072W        W11123   7.313   8.370  11.777
 7073W        W11124   6.815  10.365  11.308
 7074W        W11125   0.818   8.550  10.773
 7075W        W11126   5.768  11.416   0.235
 7076W        W11127   6.727   6.350  11.776
 7077W        W11128   9.768   8.103   3.662
 7078W        W11129   5.634   8.763   0.873
 7079W        W11130  10.537   5.525   0.863
 7080W        W11131   9.145  10.480   3.168
 7081W        W11132   7.894  11.011   9.628
 7082W        W11133   6.644  10.846   9.227
 7083W        W11134   2.429   7.068  10.313
 7084W        W11135  10.732   0.363  11.990
 7085W        W11136   6.698   9.096  10.891
 7086W        W11137   4.067   2.805   2.019
 7087W        W11138   8.123   9.843   1.363
 7088W        W11139   5.094   4.461   2.200
 7089W        W11140   0.803   4.182   1.731
 7090W        W11141   6.923   2.530   9.925
 7091W        W11142   2.632   4.905  10.381
 7092W        W11143   8.329   0.237  11.928
 7093W        W11144   7.635   9.043   9.259
 7094W        W11145   3.716   5.760   0.165
 7095W        W11146  10.363   6.050   3.265
 7096W        W11147   0.023  10.775   1.345
 7097W        W11148   4.676   0.395  10.007
 7098W        W11149   6.205   3.243   8.706
 7099W        W11150   8.408  10.591   0.926
 7100W        W11151   4.717   4.108   0.434
 7101W        W11152  11.479   1.796   1.177
 7102W        W11153  10.858   7.325   2.584
 7103W        W11154   5.509   9.530   9.084
 7104W        W11155   1.474   9.172   0.215
 7105W        W11156   9.453   0.493  10.294
 7106W        W11157   2.630   7.032  11.236
 7107W        W11158   2.838  10.934  11.743
 7108W        W11159   2.111   7.339   9.381
 7109W        W11160   1.741   9.514   0.815
 7110W        W11161   0.983  10.148  11.009
 7111W        W11162   9.966   2.865  11.748
 7112W        W11163   2.324   1.552   9.658
 7113W        W11164   8.567   3.366   1.613
 7114W        W11165   0.285  10.499   2.818
 7115W        W11166  11.412   8.475   2.080
 7116W        W11167   8.516   7.110   9.464
 7117W        W11168   5.125   1.803   2.628
 7118W        W11169   9.861   6.119   3.092
 7119W        W11170   7.957   7.069   3.140
 7120W        W11171   6.982   6.586   8.803
 7121W        W11172   1.737   6.486   0.884
 7122W        W11173   6.563   1.816  10.731
 7123W        W11174   2.687   5.741  10.731
 7124W        W11175   6.027  11.286  10.847
 7125W        W11176   1.112   5.675  10.071
 7126W        W11177   1.265   8.849  10.057
 7127W        W11178   5.071   2.963   0.950
 7128W        W11179   0.761   6.521  11.378
 7129W        W11180   8.440   1.149   1.642
 7130W        W11181   7.798   7.329   2.278
 7131W        W11182   2.773   2.681   3.498
 7132W        W11183   5.564   1.243  11.820
 7133W        W11184   2.018   7.688  11.421
 7134W        W11185   8.507   0.765  11.188
 7135W        W11186   0.586   6.629  10.546
 7136W        W11187   1.957  11.141   1.169
 7137W        W11188   0.262  11.088  10.261
 7138W        W11189   4.015   4.475   9.523
 7139W        W11190  10.919   9.004   0.040
 7140W        W11191   5.120   5.583  11.776
 7141W        W11192   9.811   5.259   3.025
 7142W        W11193   6.577   9.623   8.454
 7143W        W11194  10.051   1.789   9.783
 7144W        W11195   4.663   5.699   0.541
 7145W        W11196   1.271   8.354  10.210
 7146W        W11197   8.344  11.291   9.270
 7147W        W11198   3.193   0.976  10.092
 7148W        W11199   8.773   5.843   8.250
 7149W        W11200   3.534   4.194   9.259
 7150W        W11201   2.340  10.056  10.854
 7151W        W11202   1.778   5.022   9.399
 7152W        W11203   8.057   6.009  10.271
 7153W        W11204   7.044   0.935   2.087
 7154W        W11205   5.244   0.901   2.927
 7155W        W11206   4.628   3.198   0.847
 7156W        W11207   3.540   0.083  11.444
 7157W        W11208   8.066   0.037  11.386
 7158W        W11209   4.392   0.263   8.741
 7159W        W11210   8.503   7.630   0.410
 7160W        W11211  10.367   2.671   1.371
 7161W        W11212   8.560   1.278  11.280
 7162W        W11213   5.310  11.470   3.205
 7163W        W11214   4.810   0.712   3.119
 7164W        W11215  10.061   8.471   9.367
 7165W        W11216   4.142   1.991   8.853
 7166W        W11217   5.247   8.282   1.266
 7167W        W11218   3.373  10.738   2.304
 7168W        W11219   5.086   9.122   1.520
 7169W        W11220   6.730  10.921   0.059
 7170W        W11221   1.617   8.992  10.878
 7171W        W11222  11.395   1.865  11.690
 7172W        W11223   2.616   5.717   1.364
 7173W        W11224   8.626   4.091   0.456
 7174W        W11225   3.362   5.222   1.476
 7175W        W11226   6.891   4.536  11.260
 7176W        W11227  10.842   2.764   0.739
 7177W        W11228   6.486  11.162   3.097
 7178W        W11229   5.103   3.133  11.075
 7179W        W11230   9.462  10.853   0.160
 7180W        W11231   3.756   7.994  10.491
 7181W        W11232   7.157   7.028   0.004
 7182W        W11233   1.428   8.537   9.168
 7183W        W11234   3.888   1.876   1.302
 7184W        W11235   1.203   6.717  11.701
 7185W        W11236   5.197   1.418   0.754
 7186W        W11237   4.716   8.704   1.941
 7187W        W11238   3.320   8.753   8.589
 7188W        W11239   1.294   4.653   0.205
 7189W        W11240   7.248   8.406  10.800
 7190W        W11241   0.645   1.483  10.421
 7191W        W11242   2.668   8.647   1.186
 7192W        W11243   6.970   1.765  10.421
 7193W        W11244   5.028  10.825   0.467
 7194W        W11245   2.658   2.377   2.466
 7195W        W11246  10.733   4.324   2.778
 7196W        W11247   4.679   6.102   1.845
 7197W        W11248   8.795   3.667   1.216
 7198W        W11249   5.518   3.297   2.698
 7199W        W11250   1.818   5.533   9.439
 7200W        W11251   4.389   2.227   2.845
 7201W        W11252   6.016   3.051   9.150
 7202W        W11253   6.531   5.661   1.711
 7203W        W11254   3.615  11.258  10.962
 7204W        W11255   3.354   7.130  10.467
 7205W        W11256   3.811   2.644  10.382
 7206W        W11257  11.383   4.403   9.209
 7207W        W11258   9.447   5.048   0.383
 7208W        W11259   6.567   5.692  11.279
 7209W        W11260   8.751   6.607   8.751
 7210W        W11261   0.615   1.237   9.950
 7211W        W11262   4.267   4.572  10.814
 7212W        W11263   1.037   7.872   3.365
 7213W        W11264   4.145   2.523  11.927
 7214W        W11265   5.799   7.532   8.930
 7215W        W11266   8.102   3.733   9.623
 7216W        W11267   0.396   4.877  11.758
 7217W        W11268   0.846   9.042  10.627
 7218W        W11269   6.952   0.874   2.589
 7219W        W11270   0.289   7.675   9.959
 7220W        W11271   3.819   2.082  11.419
 7221W        W11272   7.028  11.457   2.325
 7222W        W11273   9.077   3.331   2.849
 7223W        W11274   4.115   1.662   9.244
 7224W        W11275   9.401   2.425   9.699
 7225W        W11276   5.144   6.747   9.132
 7226W        W11277   6.185   6.175   9.430
 7227W        W11278   0.246   6.603   0.054
 7228W        W11279   2.224   0.186   1.039
 7229W        W11280   5.530  10.282  10.723
 7230W        W11281   4.903   0.204   3.052
 7231W        W11282   2.081   1.970   3.254
 7232W        W11283   0.787  11.209  11.814
 7233W        W11284   7.998  10.959   2.849
 7234W        W11285   8.715   1.392   0.743
 7235W        W11286   0.546   9.725   0.571
 7236W        W11287   7.096   7.536   9.622
 7237W        W11288   0.113   5.285   0.102
 7238W        W11289   4.713   6.174  11.246
 7239W        W11290   3.823  10.954  11.919
 7240W        W11291   4.531   7.593  10.043
 7241W        W11292   8.390   9.881   3.696
 7242W        W11293   3.607   1.348  10.145
 7243W        W11294   2.644   9.861   1.989
 7244W        W11295   2.149   5.135  10.341
 7245W        W11296   1.794   3.522  11.465
 7246W        W11297   8.568   8.924   9.366
 7247W        W11298   6.587   7.126   1.871
 7248W        W11299   2.639   0.927   9.955
 7249W        W11300   2.634   1.887   2.616
 7250W        W11301   0.226  11.418   1.851
 7251W        W11302   4.155   3.739  10.273
 7252W        W11303   3.703   6.135   8.366
 7253W        W11304   3.255   4.709  10.098
 7254W        W11305   0.413   6.647   1.118
 7255W        W11306   0.759   3.185  11.036
 7256W        W11307   8.643   8.918  11.047
 7257W        W11308   1.718   8.982  11.819
 7258W        W11309   8.386   1.111   1.122
 7259W        W11310   2.532   5.641   8.688
 7260W        W11311   7.439   0.502   2.973
 7261W        W11312   2.737   8.861  10.030
 7262W        W11313   4.736   2.440  11.354
 7263W        W11314  10.893   3.026   2.584
 7264W        W11315   3.487  10.526   0.403
 7265W        W11316   6.254   5.492  11.795
 7266W        W11317   7.524   8.101  11.149
 7267W        W11318   8.888   8.489   0.815
 7268W        W11319   8.145   6.390   1.385
 7269W        W11320   9.967   0.363   9.229
 7270W        W11321   9.804   7.947   3.169
 7271W        W11322   5.143   8.409   0.038
 7272W        W11323   1.737   2.518   8.956
 7273W        W11324  10.344   8.890   2.714
 7274W        W11325   3.713   4.213   8.766
 7275W        W11326  10.328   2.200  11.403
 7276W        W11327   6.276  10.385   9.738
 7277W        W11328   2.344   3.847   8.649
 7278W        W11329   3.811   9.710   0.183
 7279W        W11330   4.118   0.393   2.433
 7280W        W11331  10.359   1.778   1.867
 7281W        W11332  11.041   2.623   2.160
 7282W        W11333   1.832   7.728   9.644
 7283W        W11334   0.403   0.521   1.506
 7284W        W11335   9.097   2.609  11.363
 7285W        W11336  10.906   6.113   9.310
 7286W        W11337   2.200   6.636   1.644
 7287W        W11338  10.268   8.161   3.130
 7288W        W11339  10.920   4.619  11.812
 7289W        W11340   6.754   5.868   1.204
 7290W        W11341   0.785   2.859  10.218
 7291W        W11342   2.725   9.915   9.988
 7292W        W11343  11.226   9.499   9.194
 7293W        W11344   8.966   2.530   3.273
 7294W        W11345   0.938   2.822  10.718
 7295W        W11346   7.510  11.301   2.216
 7296W        W11347   5.713   4.047   4.061
 7297W        W11348   0.893  11.384   0.488
 7298W        W11349   1.192   4.156   0.993
 7299W        W11350   8.477   0.952   9.419
 7300W        W11351  11.225   1.756   3.650
 7301W        W11352   3.732   1.285   1.878
 7302W        W11353   2.285   9.401  11.510
 7303W        W11354   7.068   2.046  11.411
 7304W        W11355   1.718   7.839   0.993
 7305W        W11356   9.018  10.900   1.371
 7306W        W11357   9.998  10.994  11.349
 7307W        W11358   1.333   4.092  11.006
 7308W        W11359   4.195   4.674   1.798
 7309W        W11360  10.610   8.586   1.827
 7310W        W11361   2.066   3.329   3.648
 7311W        W11362   6.771   1.315   3.304
 7312W        W11363   1.538  10.521   0.891
 7313W        W11364   5.477   8.303   0.766
 7314W        W11365   0.376  10.413  11.468
 7315W        W11366   5.015  10.985   1.982
 7316W        W11367   1.063   7.501   1.278
 7317W        W11368   2.039   5.177   1.250
 7318W        W11369   0.450   2.613   1.005
 7319W        W11370   5.631   4.701   2.948
 7320W        W11371   4.521   3.208   9.016
 7321W        W11372   9.887   4.279   0.931
 7322W        W11373   3.968   8.342  11.712
 7323W        W11374   4.286  10.588   1.973
 7324W        W11375   8.826   2.203  11.434
 7325W        W11376   6.209   9.217   0.345
 7326W        W11377   0.335   5.165   0.684
 7327W        W11378   5.706   2.822  10.502
 7328W        W11379   0.409  10.921  10.729
 7329W        W11380   0.470   2.132   9.904
 7330W        W11381   0.477   6.716   2.124
 7331W        W11382  10.435   1.952   9.078
 7332W        W11383   6.917   6.045  11.397
 7333W        W11384   8.981   0.324   1.381
 7334W        W11385   2.728   6.212   0.475
 7335W        W11386  11.345  10.278   0.345
 7336W        W11387   9.055   2.138   2.175
 7337W        W11388   1.165   7.898   2.321
 7338W        W11389   3.325   5.080  11.914
 7339W        W11390   6.513   4.525  10.514
 7340W        W11391   9.242   0.617   0.011
 7341W        W11392   1.716   9.060   9.273
 7342W        W11393   3.364   1.722   8.531
 7343W        W11394  10.096   1.074   0.884
 7344W        W11395  10.037   2.411   0.755
 7345W        W11396   0.670  11.221   9.520
 7346W        W11397   8.714   6.075   8.716
 7347W        W11398   7.959   4.232   9.809
 7348W        W11399   9.027  10.162  11.821
 7349W        W11400   6.919   0.764   9.730
 7350W        W11401   7.966   4.492  10.270
 7351W        W11402   9.643   2.905   8.959
 7352W        W11403  10.409   0.944   2.337
 7353W        W11404  11.374   6.190   9.529
 7354W        W11405   5.819   2.320   1.206
 7355W        W11406   6.567   0.224   2.391
 7356W        W11407   8.256   7.892   9.603
 7357W        W11408   7.994   7.119  11.987
 7358W        W11409   7.948  11.218   1.432
 7359W        W11410   2.746   4.964   0.739
 7360W        W11411   4.973   7.076   9.472
 7361W        W11412   4.719   4.774   2.002
 7362W        W11413   1.774   2.326   0.993
 7363W        W11414   0.296   5.767  10.346
 7364W        W11415   2.873   3.701   0.489
 7365W        W11416   5.009   1.764   8.784
 7366W        W11417  10.711   6.836   9.992
 7367W        W11418   2.287   0.257   0.537
 7368W        W11419   4.153   4.871  10.394
 7369W        W11420   2.003   5.429   0.786
 7370W        W11421   6.047   6.513  10.700
 7371W        W11422   8.837   9.328   0.536
 7372W        W11423   9.913   5.673   2.490
 7373W        W11424  10.366   7.438   0.689
 7374W        W11425   1.475  11.431  10.423
 7375W        W11426  10.743   9.648   0.700
 7376W        W11427   8.642   2.560   1.049
 7377W        W11428   4.284   9.951  11.147
 7378W        W11429   8.777   5.909  10.278
 7379W        W11430   8.411   3.830   0.876
 7380W        W11431   2.094   8.075   0.761
 7381W        W11432  11.194   3.656   3.224
 7382W        W11433   7.450  10.500   2.732
 7383W        W11434   9.050   8.456   2.249
 7384W        W11435   0.956   6.911   2.253
 7385W        W11436   7.583  11.391  11.640
 7386W        W11437  10.330   8.838   1.465
 7387W        W11438   3.707   7.129   1.978
 7388W        W11439   0.558   3.616   1.352
 7389W        W11440   3.587   0.718   9.874
 7390W        W11441   0.599   9.137   2.241
 7391W        W11442  11.441   8.575  10.812
 7392W        W11443   7.279   2.788   2.801
 7393W        W11444   8.647   8.360   1.459
 7394W        W11445   3.688   3.621   9.385
 7395W        W11446   4.736   5.708  11.016
 7396W        W11447   5.349   7.278   9.156
 7397W        W11448   7.431   0.556   2.472
 7398W        W11449   3.216   3.174   9.974
 7399W        W11450   9.666   0.419   3.023
 7400W        W11451   2.426   9.981   3.426
 7401W        W11452   7.811  10.623  10.578
 7402W        W11453   7.254   1.398   3.222
 7403W        W11454   1.402   0.272   1.434
 7404W        W11455   4.512   8.529   1.099
 7405W        W11456   5.688   2.785  11.566
 7406W        W11457   1.148   1.004   0.341
 7407W        W11458   6.555   8.142   1.821
 7408W        W11459   2.837   2.695   0.370
 7409W        W11460   9.441   1.959   9.504
 7410W        W11461   3.574   7.029  11.519
 7411W        W11462   0.747   6.086   9.514
 7412W        W11463  10.260   2.906  10.945
 7413W        W11464   3.568   3.198   9.095
 7414W        W11465   1.826   0.811   3.693
 7415W        W11466   5.483   7.595  11.928
 7416W        W11467  11.348   2.718   0.804
 7417W        W11468   6.529   6.660  10.228
 7418W        W11469   7.430  10.237  10.526
 7419W        W11470   6.144   5.070   1.558
 7420W        W11471   3.594   1.812  11.823
 7421W        W11472   1.847   3.621   0.399
 7422W        W11473   5.007   4.253   1.347
 7423W        W11474   3.244   4.692   2.005
 7424W        W11475   6.104   7.726   3.668
 7425W        W11476   7.615   4.520   9.571
 7426W        W11477   5.338   8.899   0.175
 7427W        W11478  10.839   5.574   1.698
 7428W        W11479   8.557   8.909   2.179
 7429W        W11480   9.333   3.657   1.285
 7430W        W11481   8.156   8.034  11.808
 7431W        W11482   2.401   7.416   1.511
 7432W        W11483   9.095   2.685   9.363
 7433W        W11484   2.386   9.972   8.996
 7434W        W11485   6.684   4.201   0.341
 7435W        W11486   8.817   1.007   0.427
 7436W        W11487   9.850  11.213   0.289
 7437W        W11488   5.973  10.574  11.384
 7438W        W11489   4.286   1.355   0.433
 7439W        W11490  10.053  10.302   9.454
 7440W        W11491   2.833   4.539   0.467
 7441W        W11492   8.632   2.560   1.556
 7442W        W11493   8.641   7.590   1.913
 7443W        W11494   3.857   8.075   3.157
 7444W        W11495   9.914   3.328   2.395
 7445W        W11496   0.469   5.073   8.928
 7446W        W11497   0.331   8.563   2.459
 7447W        W11498   9.356  10.375   1.874
 7448W        W11499  11.114   4.615   0.304
 7449W        W11500   2.158   3.231   0.180
 7450W        W11501   5.241   1.188  11.441
 7451W        W11502   9.892   2.171   3.608
 7452W        W11503   4.678  10.404  11.807
 7453W        W11504   5.668   4.786  10.531
 7454W        W11505   7.193   3.861   3.059
 7455W        W11506   4.281   4.689   9.934
 7456W        W11507   0.546   2.683   9.334
 7457W        W11508   9.589   5.726   2.874
 7458W        W11509   9.931   7.486   3.394
 7459W        W11510   2.068   8.747   8.482
 7460W        W11511   1.757   6.474   1.426
 7461W        W11512   4.085   5.999   1.159
 7462W        W11513   5.082   7.882  11.505
 7463W        W11514   2.155  11.319  10.014
 7464W        W11515   1.983   2.689  11.290
 7465W        W11516   8.615   1.610   1.799
 7466W        W11517   0.129   9.473   9.529
 7467W        W11518  10.027   6.133   0.202
 7468W        W11519   3.610   8.409  10.775
 7469W        W11520   6.330  10.715   0.332
 7470W        W11521  10.334  10.032   1.843
 7471W        W11522   7.629   0.024   1.684
 7472W        W11523   5.115   8.656  10.343
 7473W        W11524   8.171   3.873   0.402
 7474W        W11525   9.146   3.107  11.284
 7475W        W11526   7.629   5.613  11.067
 7476W        W11527   6.624   3.583  11.456
 7477W        W11528   8.158   0.486   9.408
 7478W        W11529   4.612   2.510   3.231
 7479W        W11530  10.075   6.174  10.830
 7480W        W11531   2.321   3.390   8.987
 7481W        W11532   8.492   4.979   9.996
 7482W        W11533  11.200   4.946   8.619
 7483W        W11534   8.568   8.373  10.977
 7484W        W11535   0.754   4.849   3.496
 7485W        W11536  10.213   5.760  11.484
 7486W        W11537   0.415   4.673   2.847
 7487W        W11538   0.424   8.517   2.955
 7488W        W11539   8.410  11.182   1.676
 7489W        W11540   8.999   5.026  11.203
 7490W        W11541   7.839   4.517  11.777
 7491W        W11542   7.508   6.950   3.369
 7492W        W11543   8.956   9.149   2.425
 7493W        W11544   5.175   4.020   9.201
 7494W        W11545   8.909   5.722   2.295
 7495W        W11546  11.264  10.138   1.921
 7496W        W11547   5.041  10.056  10.504
 7497W        W11548   4.542   7.028   1.549
 7498W        W11549   1.690   3.091  11.172
 7499W        W11550   0.827  10.449  10.001
 7500W        W11551   6.032   4.899   2.082
 7501W        W11552   2.256   1.157   0.032
 7502W        W11553   2.682   5.410  10.351
 7503W        W11554  10.994  10.102   3.161
 7504W        W11555   7.642   8.676   3.338
 7505W        W11556  11.441   0.305   0.501
 7506W        W11557   6.394   0.173   9.281
 7507W        W11558   3.758   2.645   1.603
 7508W        W11559   6.998   7.956   3.104
 7509W        W11560   9.894   1.030   8.610
 7510W        W11561   5.252   3.580  11.513
 7511W        W11562   6.512   0.982   1.312
 7512W        W11563   1.980   5.102   2.145
 7513W        W11564   4.463   6.525   1.654
 7514W        W11565   0.932   2.215   3.128
 7515W        W11566   2.800   6.439   9.223
 7516W        W11567   5.029   1.235  11.955
 7517W        W11568   7.021   5.602  11.654
 7518W        W11569   9.984   1.344   9.548
 7519W        W11570   0.876   2.453   2.139
 7520W        W11571   6.530   8.115   3.290
 7521W        W11572   5.006   3.461   3.971
 7522W        W11573   8.301   2.966  10.856
 7523W        W11574   9.458   7.637   0.477
 7524W        W11575   7.489  10.797   3.145
 7525W        W11576   6.474   6.136   1.525
 7526W        W11577   6.084   0.647  11.763
 7527W        W11578   8.135   3.303   0.467
 7528W        W11579   8.452   6.577   2.657
 7529W        W11580  11.361   2.311   1.852
 7530W        W11581   9.127   5.266   0.704
 7531W        W11582   5.572  10.906  11.485
 7532W        W11583   0.271   8.570   0.008
 7533W        W11584   9.567   8.633   0.278
 7534W        W11585   6.513   5.909   9.138
 7535W        W11586   5.327   7.475   8.682
 7536W        W11587   4.255   6.234  10.267
 7537W        W11588   5.165   3.128   3.607
 7538W        W11589   8.291   3.750   1.384
 7539W        W11590   8.481   9.838   2.137
 7540W        W11591   6.182  10.813  11.811
 7541W        W11592   4.316   9.102   0.328
 7542W        W11593   1.260  11.394   1.746
 7543W        W11594   1.718   3.017   8.679
 7544W        W11595   3.768   9.224   1.896
 7545W        W11596   3.206   4.093  10.279
 7546W        W11597   2.650   9.026   9.054
 7547W        W11598   4.055  11.382   9.461
 7548W        W11599   6.390  10.065  11.401
 7549W        W11600   4.758  11.495   2.375
 7550W        W11601   1.302   7.053   2.896
 7551W        W11602   7.663   9.526   1.973
 7552W        W11603   7.347  10.770  10.444
 7553W        W11604  10.341   0.407   2.400
 7554W        W11605   0.006   4.831   2.596
 7555W        W11606   5.441   6.018  11.670
 7556W        W11607   7.562   1.688   9.645
 7557W        W11608   8.199   3.338   1.107
 7558W        W11609   6.177   1.219   1.663
 7559W        W11610   5.263   0.922   0.766
 7560W        W11611   2.559   7.044   9.437
 7561W        W11612   2.996   5.817   3.138
 7562W        W11613   2.665  10.669  10.457
 7563W        W11614   6.264   2.763   9.485
 7564W        W11615   0.488   6.189   0.277
 7565W        W11616   5.008   8.380   9.946
 7566W        W11617   5.510   9.547   0.201
 7567W        W11618   7.927   7.668  10.866
 7568W        W11619   2.624   4.218   8.949
 7569W        W11620   8.487  11.247   0.672
 7570W        W11621   3.127   5.875   0.394
 7571W        W11622   2.482  10.326   2.058
 7572W        W11623   9.999   4.174  11.501
 7573W        W11624   6.655   8.611   3.112
 7574W        W11625  11.272   1.734  10.309
 7575W        W11626   0.862  11.053   2.479
 7576W        W11627   6.995  10.926  10.111
 7577W        W11628   6.613   4.254  10.099
 7578W        W11629  10.245   4.631  10.371
 7579W        W11630   8.125   4.779   2.646
 7580W        W11631   1.311   7.548   2.689
 7581W        W11632   9.828   4.295  10.560
 7582W        W11633   2.838   3.712  10.954
 7583W        W11634   0.510   5.050   1.168
 7584W        W11635   9.050   6.832  10.454
 7585W        W11636   8.974   3.191   9.507
 7586W        W11637   9.324   4.084  11.942
 7587W        W11638  11.267   4.211  11.691
 7588W        W11639   5.003   3.846   9.662
 7589W        W11640   4.055   2.043   0.857
 7590W        W11641   8.976   7.831   0.314
 7591W        W11642   3.438   5.256  10.847
 7592W        W11643   7.480   3.277   0.412
 7593W        W11644   2.204   7.632   1.939
 7594W        W11645   3.917   1.718   0.433
 7595W        W11646   4.219   6.725  10.852
 7596W        W11647   3.585   6.635   1.725
 7597W        W11648  10.589   9.559   2.295
 7598W        W11649   9.638   6.404  11.672
 7599W        W11650   6.073   4.442   3.141
 7600W        W11651   9.474   7.051   2.776
 7601W        W11652   0.369  10.223   0.452
 7602W        W11653   2.262   7.948   0.302
 7603W        W11654   9.179   6.903   8.727
 7604W        W11655  10.774   1.981  10.980
 7605W        W11656   2.794   3.284  11.305
 7606W        W11657   5.997  10.416   3.231
 7607W        W11658   2.255   8.106   2.959
 7608W        W11659   1.287   1.774   2.808
 7609W        W11660   2.905   5.979   9.026
 7610W        W11661  10.985   3.564   0.497
 7611W        W11662   9.510   4.801   2.799
 7612W        W11663  10.894   4.160   8.460
 7613W        W11664   2.710  11.347  10.842
 7614W        W11665   4.696   8.473   9.544
 7615W        W11666   1.667   6.757  11.454
 7616W        W11667   9.749   5.662   3.359
 7617W        W11668   6.664   2.913   0.180
 7618W        W11669   7.386   4.593   0.009
 7619W        W11670  10.109   3.620  10.375
 7620W        W11671   6.054  10.891   1.488
 7621W        W11672   8.865   5.116   9.274
 7622W        W11673  10.019   0.698   2.123
 7623W        W11674  11.308   9.979  11.934
 7624W        W11675   7.679   3.203   2.463
 7625W        W11676   8.868   8.008   1.770
 7626W        W11677   8.220   8.619   9.099
 7627W        W11678   6.932  10.213   0.933
 7628W        W11679  10.300   4.054  11.880
 7629W        W11680   3.377   2.872  11.089
 7630W        W11681  11.050   9.969   8.978
 7631W        W11682   3.652  11.182   9.093
 7632W        W11683   8.506   5.074  11.418
 7633W        W11684   3.360   7.502   1.558
 7634W        W11685   5.050   8.725   2.485
 7635W        W11686   9.372   9.610   9.411
 7636W        W11687   2.494   9.113  10.932
 7637W        W11688   4.322   4.813  11.262
 7638W        W11689  11.340   7.224   3.564
 7639W        W11690   2.821   2.116   9.057
 7640W        W11691   0.269   0.317  11.252
 7641W        W11692   0.013   3.391   9.548
 7642W        W11693   5.661   2.368   8.760
 7643W        W11694  10.329   7.466  10.794
 7644W        W11695   1.316  10.899   1.838
 7645W        W11696   7.651   3.630   9.411
 7646W        W11697  11.060  10.552   3.409
 7647W        W11698   6.085   0.721   1.377
 7648W        W11699  11.255   9.842  10.348
 7649W        W11700   5.156   4.075   2.699
 7650W        W11701   6.589   0.672   0.896
 7651W        W11702   9.318   0.242  10.702
 7652W        W11703   6.107   1.890   1.261
 7653W        W11704   3.357   4.588   2.959
 7654W        W11705   7.565   7.583  11.352
 7655W        W11706  10.708  10.895   9.331
 7656W        W11707   4.342   9.111   9.746
 7657W        W11708   5.364   3.178  10.299
 7658W        W11709   4.388   1.751   1.220
 7659W        W11710  11.316   1.888   0.692
 7660W        W11711   1.351   9.101   3.338
 7661W        W11712   8.851   4.611   9.970
 7662W        W11713   0.467   7.917   0.245
 7663W        W11714   7.652   5.824   1.365
 7664W        W11715   5.235   7.774   2.906
 7665W        W11716   3.885   7.930   0.002
 7666W        W11717   3.129   4.935  10.554
 7667W        W11718   4.689   3.546   1.828
 7668W        W11719   0.087   3.564   3.534
 7669W        W11720   5.402   4.102   1.724
 7670W        W11721   5.670   7.730   0.426
 7671W        W11722   7.047  10.932   9.532
 7672W        W11723   1.629   8.491  11.928
 7673W        W11724  10.429   8.676   8.435
 7674W        W11725   8.388   5.108   9.519
 7675W        W11726   7.139   6.036  11.874
 7676W        W11727   6.155   4.418   2.219
 7677W        W11728   6.964   3.216  11.565
 7678W        W11729   0.500   0.302   9.679
 7679W        W11730   8.108   4.933   8.250
 7680W        W11731   3.202   7.650  11.555
 7681W        W11732   4.994   0.716  10.283
 7682W        W11733   1.777   5.647  10.290
 7683W        W11734   8.938   5.107   8.746
 7684W        W11735  11.377  11.065   2.768
 7685W        W11736   4.388   8.128   2.598
 7686W        W11737   1.413   3.801   0.691
 7687W        W11738   7.903  10.812  11.053
 7688W        W11739   5.510   5.194   3.086
 7689W        W11740   1.273   7.136   8.952
 7690W        W11741   9.855   6.144   9.442
 7691W        W11742   7.396   4.341   8.689
 7692W        W11743   5.751   3.035   8.499
 7693W        W11744   0.869   2.448   3.626
 7694W        W11745   5.015   1.518   3.539
 7695W        W11746   6.551   4.093   2.271
 7696W        W11747   8.339   2.924   0.803
 7697W        W11748   3.165   9.426   3.122
 7698W        W11749   8.636   4.856   3.002
 7699W        W11750   4.111   3.684   2.691
 7700W        W11751  11.028  10.435  10.414
 7701W        W11752   8.178   9.815  10.918
 7702W        W11753   2.421  10.431   0.322
 7703W        W11754   7.978   8.926   0.138
 7704W        W11755   4.096   3.660   9.734
 7705W        W11756   1.163   7.361  10.376
 7706W        W11757   2.712   0.491   1.218
 7707W        W11758   9.932   4.992  11.263
 7708W        W11759   6.131  11.358   9.991
 7709W        W11760   7.396   2.205   9.564
 7710W        W11761   7.196   0.643   1.704
 7711W        W11762  11.417  11.039  11.073
 7712W        W11763   5.665   0.015   2.828
 7713W        W11764   5.202   5.075   1.539
 7714W        W11765   6.014   2.647  11.995
 7715W        W11766   0.538  11.429  10.580
 7716W        W11767   3.135   0.750  10.541
 7717W        W11768   7.058  10.680   1.182
 7718W        W11769   4.331   4.022  11.645
 7719W        W11770  11.470   9.463  10.031
 7720W        W11771   0.243   8.370   0.624
 7721W        W11772   2.406   2.947   0.538
 7722W        W11773   4.797   2.430  10.516
 7723W        W11774   0.451   4.305   2.168
 7724W        W11775   7.160   7.980   2.600
 7725W        W11776   5.774  10.096   2.878
 7726W        W11777   6.574   1.640   9.388
 7727W        W11778   1.455  10.667   9.901
 7728W        W11779   1.151   2.097   2.398
 7729W        W11780   1.068   6.172   9.937
 7730W        W11781  10.932   3.817  11.411
 7731W        W11782   4.722   8.916   3.383
 7732W        W11783   6.408   2.374   3.572
 7733W        W11784  10.643   1.353   1.020
 7734W        W11785   6.343   3.059   0.889
 7735W        W11786   5.539   7.353  10.012
 7736W        W11787   4.146   8.684   0.043
 7737W        W11788   2.192  10.502  10.520
 7738W        W11789  10.491   3.168   1.196
 7739W        W11790   1.124   2.703  11.872
 7740W        W11791  10.235   5.599   3.486
 7741W        W11792   5.181   5.589  10.064
 7742W        W11793   9.829   3.111  10.075
 7743W        W11794   5.255   2.084   9.084
 7744W        W11795   0.077   0.986   9.146
 7745W        W11796   9.998   6.514   9.072
 7746W        W11797  11.394   6.705   9.419
 7747W        W11798   2.566   4.542   3.345
 7748W        W11799   9.857   0.687   1.212
 7749W        W11800   6.940   7.923   8.954
 7750W        W11801   2.643   3.693   3.517
 7751W        W11802   2.207   9.309   0.783
 7752W        W11803   0.173   4.354  10.237
 7753W        W11804   0.462  11.354   3.347
 7754W        W11805   0.692   2.657   3.167
 7755W        W11806   5.283   0.876   1.921
 7756W        W11807   7.954  10.534   3.114
 7757W        W11808   5.136   7.617   1.818
 7758W        W11809  10.373  10.884  10.062
 7759W        W11810   1.843   0.189   0.266
 7760W        W11811   5.027   7.391  11.849
 7761W        W11812  10.858   9.300   8.373
 7762W        W11813   1.319   4.800   1.687
 7763W        W11814   8.356   4.501   9.936
 7764W        W11815   1.843   5.369  11.943
 7765W        W11816  11.091   5.565   2.626
 7766W        W11817   8.583  11.310  10.703
 7767W        W11818   2.290   0.403   2.511
 7768W        W11819   9.882   8.437  10.794
 7769W        W11820   8.373   7.592   0.909
 7770W        W11821   5.549   9.036   1.829
 7771W        W11822  10.231   6.075   1.691
 7772W        W11823   9.831   8.844  10.357
 7773W        W11824   0.440   3.605  10.585
 7774W        W11825   0.331   6.552   0.595
 7775W        W11826   5.583   0.340   2.441
 7776W        W11827  10.850   7.341   9.910
 7777W        W11828   4.453   2.752   2.362
 7778W        W11829   2.243   6.554   0.639
 7779W        W11830   5.803   8.047  10.271
 7780W        W11831   1.951   3.213   1.464
 7781W        W11832   6.826   2.027   3.668
 7782W        W11833   3.125   1.798   1.769
 7783W        W11834   6.495   3.463   3.695
 7784W        W11835   1.698   8.443  10.982
 7785W        W11836   4.045   5.674  11.342
 7786W        W11837   2.207   1.360   2.454
 7787W        W11838   8.239   1.417   9.496
 7788W        W11839  11.091   9.103  10.040
 7789W        W11840  10.602  10.420  10.144
 7790W        W11841  11.060   3.630   9.495
 7791W        W11842  11.395   3.630   9.109
 7792W        W11843   2.793   7.340   0.732
 7793W        W11844   7.522   8.046   2.989
 7794W        W11845   3.225  11.120   3.109
 7795W        W11846   0.400   7.042   0.797
 7796W        W11847   0.913   0.357   0.787
 7797W        W11848   9.640  10.322   9.840
 7798W        W11849   8.636   3.543   2.658
 7799W        W11850   0.434   8.350  10.504
 7800W        W11851   5.633   9.093  11.174
 7801W        W11852   3.113   1.642  11.753
 7802W        W11853   9.666  10.057   0.427
 7803W        W11854   3.504   6.677  10.306
 7804W        W11855   6.939   4.064   8.899
 7805W        W11856   1.312   5.491   0.044
 7806W        W11857   5.838   0.251  11.563
 7807W        W11858   9.515  10.847   1.543
 7808W        W11859   5.274   2.828   9.480
 7809W        W11860   8.459   8.530  10.107
 7810W        W11861   7.743   4.938   3.679
 7811W        W11862   1.359   2.841   1.406
 7812W        W11863  10.616  11.018  11.354
 7813W        W11864  10.271  11.424   8.733
 7814W        W11865   8.072   7.371   9.531
 7815W        W11866  11.277   1.833   0.182
 7816W        W11867   8.050   5.511   1.240
 7817W        W11868   9.509   7.492   3.034
 7818W        W11869   5.525  11.251   0.697
 7819W        W11870   7.445   4.794  11.537
 7820W        W11871   7.646   2.863  11.321
 7821W        W11872   3.324   9.131   3.536
 7822W        W11873   4.730   2.886   9.563
 7823W        W11874   8.973   3.793   0.193
 7824W        W11875   0.851   4.760  11.980
 7825W        W11876   6.261   1.362   3.238
 7826W        W11877  10.555   2.355   0.789
 7827W        W11878  10.092  10.501   3.124
 7828W        W11879   0.703  11.301  10.032
 7829W        W11880   4.770   4.118   2.376
 7830W        W11881  10.361   9.364   0.516
 7831W        W11882   8.102   6.336   3.701
 7832W        W11883   6.784   9.109   2.909
 7833W        W11884   1.485  11.279   1.306
 7834W        W11885   5.363   5.184  10.715
 7835W        W11886  11.487   1.261   2.376
 7836W        W11887   8.494   7.689  10.306
 7837W        W11888   3.360   3.776  11.054
 7838W        W11889   0.600   5.484   8.636
 7839W        W11890   6.771   9.904   2.806
 7840W        W11891   0.630   8.078  10.879
 7841W        W11892   5.996   6.133   1.341
 7842W        W11893   8.570   4.103   8.733
 7843W        W11894   9.673  10.058   2.399
 7844W        W11895   8.646   5.475  10.030
 7845W        W11896   9.136   2.765  10.887
 7846W        W11897   8.057   5.295  10.793
 7847W        W11898  10.420   2.463   9.137
 7848W        W11899   2.692   1.928   9.839
 7849W        W11900   1.132   1.391  11.556
 7850W        W11901   3.618  10.670   9.076
 7851W        W11902   6.403   0.329   1.892
 7852W        W11903   7.082  10.436  10.857
 7853W        W11904   0.786   2.326  11.798
 7854W        W11905   7.917   6.910   0.449
 7855W        W11906   9.992   0.598   0.703
 7856W        W11907   7.068   7.056   3.141
 7857W        W11908   0.340   6.499  10.979
 7858W        W11909   4.038   6.708   8.974
 7859W        W11910   3.308   0.383   8.861
 7860W        W11911   8.172   5.595   3.186
 7861W        W11912  11.489   7.915   0.478
 7862W        W11913   2.308   3.321   9.994
 7863W        W11914   7.459   0.768   9.751
 7864W        W11915   9.187   1.205   1.700
 7865W        W11916  11.321   2.136  11.147
 7866W        W11917   5.645   6.532  11.049
 7867W        W11918   4.909   6.808  11.782
 7868W        W11919   5.680   8.917   1.350
 7869W        W11920   7.069   8.376  11.286
 7870W        W11921   0.564   4.083  10.396
 7871W        W11922   2.603   4.667   9.917
 7872W        W11923   8.531   1.129   3.615
 7873W        W11924   3.716   8.837  10.491
 7874W        W11925   9.019   0.246  10.112
 7875W        W11926   5.868   2.214   0.252
 7876W        W11927   2.515   6.574  10.461
 7877W        W11928   5.884   0.091  10.439
 7878W        W11929   0.365   9.903   9.663
 7879W        W11930   0.882   2.273   8.982
 7880W        W11931  11.469   3.664  10.879
 7881W        W11932   5.581   2.423   2.143
 7882W        W11933   5.997   3.141  10.817
 7883W        W11934   9.494  10.163  11.562
 7884W        W11935   9.923   8.395  11.324
 7885W        W11936   0.390   0.802   9.532
 7886W        W11937   4.674   9.064   2.339
 7887W        W11938   2.339   3.781  10.782
 7888W        W11939   7.779   0.991  10.529
 7889W        W11940  10.934  10.429  10.913
 7890W        W11941   0.234   9.957   1.789
 7891W        W11942   7.975   6.014   0.520
 7892W        W11943   3.142  10.453   9.018
 7893W        W11944  10.125   3.296   0.888
 7894W        W11945   3.257  10.964   9.349
 7895W        W11946   4.533   1.796   9.565
 7896W        W11947  10.937   5.820  10.791
 7897W        W11948   5.332   8.525   3.621
 7898W        W11949   0.559   2.725  11.071
 7899W        W11950   5.603   2.833   8.974
 7900W        W11951  10.248   0.835  11.631
 7901W        W11952  10.499   1.453   8.975
 7902W        W11953   8.181   5.084   1.872
 7903W        W11954   6.016   8.083  11.482
 7904W        W11955   7.580   9.406  10.003
 7905W        W11956   6.633   3.166   1.833
 7906W        W11957  10.715   3.669   3.420
 7907W        W11958   9.639   1.986  10.004
 7908W        W11959   8.972  11.488  10.975
 7909W        W11960   9.545   3.134   2.997
 7910W        W11961   4.204   9.624   8.435
 7911W        W11962   4.375   1.802   0.186
 7912W        W11963  10.408  11.080  10.540
 7913W        W11964   7.605   7.649   2.646
 7914W        W11965   6.386   6.153  11.430
 7915W        W11966   7.659   7.096   9.714
 7916W        W11967   3.549   6.583   1.206
 7917W        W11968  10.962   7.574   9.473
 7918W        W11969   8.622   2.717  11.525
 7919W        W11970   8.808  11.341   9.044
 7920W        W11971  10.281   4.595  11.335
 7921W        W11972   5.410   3.186   3.171
 7922W        W11973   8.864  11.400   1.698
 7923W        W11974   4.067   6.860   1.725
 7924W        W11975   9.825   6.125  11.273
 7925W        W11976   4.354   0.939   3.131
 7926W        W11977   4.084   9.113  11.792
 7927W        W11978   3.784   9.745   0.680
 7928W        W11979  10.950   2.418   9.687
 7929W        W11980   9.258   8.510   8.986
 7930W        W11981  10.046   7.109  11.503
 7931W        W11982   5.277   9.880  10.935
 7932W        W11983   2.652   4.927   0.208
 7933W        W11984   9.491  10.279  10.724
 7934W        W11985   6.578   7.210   4.026
 7935W        W11986   5.910   8.361  10.907
 7936W        W11987   1.423   4.252   3.086
 7937W        W11988   1.633   0.764   2.634
 7938W        W11989   8.652   1.229  10.256
 7939W        W11990   4.290   6.015   2.183
 7940W        W11991   3.317   9.561  10.598
 7941W        W11992  10.975   4.318   1.958
 7942W        W11993   9.020   0.973   3.493
 7943W        W11994   9.746   5.071   9.111
 7944W        W11995   6.686   1.752   1.923
 7945W        W11996   9.192   1.263   2.650
 7946W        W11997   2.765   8.097   0.378
 7947W        W11998   1.262   7.180   0.915
 7948W        W11999   4.952  10.804   8.497
 7949W        W12000  11.298   5.710   0.214
 7950W        W12001   1.309   2.232  11.710
 7951W        W12002   5.398   8.273   8.251
 7952W        W12003   5.848   9.080   2.788
 7953W        W12004   9.338   7.228  11.235
 7954W        W12005   3.536   4.645   9.539
 7955W        W12006  11.004   5.236   9.368
 7956W        W12007  11.408   6.833   8.894
 7957W        W12008   9.116  10.733  11.237
 7958W        W12009  10.629  10.897   0.889
 7959W        W12010  10.559   6.320   9.916
 7960W        W12011  10.453   8.877   0.581
 7961W        W12012   6.612   7.679   3.594
 7962W        W12013   5.062  10.952   0.961
 7963W        W12014   2.227   4.216   0.967
 7964W        W12015   8.092   3.247   2.114
 7965W        W12016  10.116   2.372  11.860
 7966W        W12017   9.091   1.236  10.534
 7967W        W12018   9.088   0.302   9.124
 7968W        W12019   4.673   7.444   2.426
 7969W        W12020   3.449  10.767   2.803
 7970W        W12021   7.553   1.899   1.465
 7971W        W12022   5.726  11.347  11.274
 7972W        W12023   5.648   2.322  10.247
 7973W        W12024   9.919   6.990  10.501
 7974W        W12025   6.055   3.180   9.684
 7975W        W12026   8.841   7.518   2.398
 7976W        W12027   9.377   7.129   1.318
 7977W        W12028   2.219   0.501   3.044
 7978W        W12029   2.901   1.528   1.380
 7979W        W12030   2.260   4.715   9.385
 7980W        W12031   9.186   8.277   9.422
 7981W        W12032   4.161   4.303   3.105
 7982W        W12033   9.468  11.269  10.768
 7983W        W12034   7.957   4.851   9.881
 7984W        W12035   1.244   6.483  10.714
 7985W        W12036   7.849   4.781   0.207
 7986W        W12037   2.040   7.090   1.359
 7987W        W12038   1.040   2.461  10.360
 7988W        W12039   0.987   0.906   2.741
 7989W        W12040   6.171   2.039   0.768
 7990W        W12041   2.742   6.147   2.286
 7991W        W12042  10.423   5.700   2.462
 7992W        W12043   9.883  10.453   0.738
 7993W        W12044   7.534   8.593  11.386
 7994W        W12045   4.450   2.465   1.931
 7995W        W12046  11.217  11.498   1.751
 7996W        W12047   9.586   0.989   9.066
 7997W        W12048   8.900   0.466   0.872
 7998W        W12049   1.359   6.134   1.434
 7999W        W12050   2.214   9.018   9.486
 8000W        W12051  10.427   8.117   1.022
 8001W        W12052   9.317  11.313   0.269
 8002W        W12053   6.640  10.458   2.041
 8003W        W12054   0.418   4.026  11.391
 8004W        W12055  10.323   4.804   8.528
 8005W        W12056  11.296   0.655   9.399
 8006W        W12057   1.804   7.228  11.296
 8007W        W12058   8.716   5.106   1.811
 8008W        W12059  10.050   5.543  10.129
 8009W        W12060   2.224   5.654   1.693
 8010W        W12061   4.104   4.564   4.077
 8011W        W12062   0.755   9.906   1.761
 8012W        W12063   9.369   6.676   1.562
 8013W        W12064   8.157   4.322  10.987
 8014W        W12065   6.008   5.315   3.183
 8015W        W12066   9.827   9.011   1.378
 8016W        W12067  10.148   0.752  11.030
 8017W        W12068   2.399   6.122   9.948
 8018W        W12069   6.097  10.283  11.764
 8019W        W12070   7.669   7.126  10.215
 8020W        W12071   9.444   0.833   3.227
 8021W        W12072   6.448   2.399   9.801
 8022W        W12073   7.566  10.350   2.248
 8023W        W12074   9.065   8.774   9.390
 8024W        W12075   8.623   3.357   0.833
 8025W        W12076   3.601   6.055  11.168
 8026W        W12077   7.108   2.750   3.270
 8027W        W12078   7.992   9.395   1.186
 8028W        W12079   0.293   9.983   2.729
 8029W        W12080   8.237  10.328   3.498
 8030W        W12081   1.822   1.171  10.879
 8031W        W12082   1.826   0.865  10.466
 8032W        W12083   5.151   4.352   8.806
 8033W        W12084   8.850  10.408   2.709
 8034W        W12085   0.926   6.203   3.402
 8035W        W12086   7.539   8.837  11.883
 8036W        W12087   5.996   2.040   3.624
 8037W        W12088   4.171  10.135   9.642
 8038W        W12089  11.324   0.819   0.444
 8039W        W12090   1.809   6.001   1.681
 8040W        W12091   6.483   2.857  10.786
 8041W        W12092   1.750   0.947   1.045
 8042W        W12093   0.327   7.322  10.311
 8043W        W12094   0.753  10.210   2.711
 8044W        W12095   8.392   5.516   0.305
 8045W        W12096   0.822   5.058   0.762
 8046W        W12097   6.448  10.294   3.012
 8047W        W12098   1.789   5.021   3.659
 8048W        W12099  11.043   2.668   3.531
 8049W        W12100   7.866   4.116  10.611
 8050W        W12101   9.524   5.456   8.606
 8051W        W12102   1.171   4.038   8.929
 8052W        W12103   9.399   5.588   2.358
 8053W        W12104   6.033  11.304  11.706
 8054W        W12105   0.869   6.855   0.915
 8055W        W12106   6.134   1.140  11.847
 8056W        W12107   8.198   1.442  10.424
 8057W        W12108   4.781   1.489   0.443
 8058W        W12109   3.690   2.175  10.604
 8059W        W12110   6.970   3.168   1.426
 8060W        W12111  10.993   2.331   3.136
 8061W        W12112   1.347   0.314  11.715
 8062W        W12113   0.832   4.257   0.178
 8063W        W12114   7.499   3.123   9.955
 8064W        W12115   9.862   7.246   9.503
 8065W        W12116  10.571   3.419  10.502
 8066W        W12117   0.803   7.524   0.315
 8067W        W12118   6.893   0.259   1.796
 8068W        W12119  11.111   8.090   2.233
 8069W        W12120   4.798   4.670   9.982
 8070W        W12121   4.339   1.285  11.479
 8071W        W12122  10.450   1.888  10.124
 8072W        W12123   1.181   7.049   3.468
 8073W        W12124   9.857   4.681  11.666
 8074W        W12125   3.123  10.491  11.644
 8075W        W12126   0.065   3.830  11.893
 8076W        W12127   3.811   6.661   3.805
 8077W        W12128   8.610   4.618   0.434
 8078W        W12129   1.908   1.784  11.478
 8079W        W12130   0.012  11.284   0.493
 8080W        W12131   1.234   3.226  10.883
 8081W        W12132   8.009   0.781  11.851
 8082W        W12133   9.583   7.675   9.508
 8083W        W12134   9.264   4.354   2.069
 8084W        W12135   6.141   1.256   9.502
 8085W        W12136   8.749   7.122   0.719
 8086W        W12137   4.929   1.232  11.037
 8087W        W12138   8.242   4.354   9.043
 8088W        W12139   8.819   0.269  10.577
 8089W        W12140   1.911  10.400  10.003
 8090W        W12141   5.522  10.473  11.186
 8091W        W12142   9.082   7.325   0.384
 8092W        W12143   8.425   9.126   0.318
 8093W        W12144   8.957   1.666  10.263
 8094W        W12145   0.400   5.069  11.259
 8095W        W12146   6.568  10.757   2.792
 8096W        W12147   5.887   5.499   0.312
 8097W        W12148   2.380   1.461   1.430
 8098W        W12149   0.792   2.747   0.291
 8099W        W12150   5.949   3.670   9.818
 8100W        W12151   3.572   5.043   2.775
 8101W        W12152   9.532   2.437   9.201
 8102W        W12153  11.371   7.207   2.601
 8103W        W12154   7.519   0.094  10.751
 8104W        W12155   0.313   1.728   2.868
 8105W        W12156   8.857   1.513   3.477
 8106W        W12157   7.053   1.143   1.629
 8107W        W12158   8.391   6.118   2.416
 8108W        W12159   6.930   8.605   0.087
 8109W        W12160  10.541  10.582  10.613
 8110W        W12161   9.123  10.354   9.908
 8111W        W12162   1.534   5.074   1.223
 8112W        W12163   6.849   5.947  10.891
 8113W        W12164   6.915   4.175  10.501
 8114W        W12165   1.825   2.672  10.425
 8115W        W12166   4.678   2.693  10.072
 8116W        W12167   6.496   9.988  10.462
 8117W        W12168   2.437   0.304   9.977
 8118W        W12169   3.768  10.290   3.364
 8119W        W12170   3.063   9.327   0.773
 8120W        W12171  11.105   0.755  10.399
 8121W        W12172   0.446   5.271   1.986
 8122W        W12173   3.600   5.754  10.310
 8123W        W12174   1.747   5.536   3.487
 8124W        W12175   5.231   2.136  10.526
 8125W        W12176   0.247   9.079  11.034
 8126W        W12177   8.136   7.360  10.440
 8127W        W12178   5.729  11.471   1.865
 8128W        W12179   5.968   0.808   9.821
 8129W        W12180   2.369   1.192  10.869
 8130W        W12181   1.712   3.868  11.868
 8131W        W12182   4.676   9.905   0.543
 8132W        W12183   9.384   3.303  10.277
 8133W        W12184   3.681   6.068   1.482
 8134W        W12185   2.842  11.088   0.605
 8135W        W12186   2.687   7.481  10.727
 8136W        W12187   5.974   1.797   3.155
 8137W        W12188   6.243   2.039   8.775
 8138W        W12189   1.960  10.433   2.431
 8139W        W12190   9.480   9.876   3.346
 8140W        W12191  10.524   9.935   9.113
 8141W        W12192   5.691   2.292  11.747
 8142W        W12193   6.753  10.404   0.192
 8143W        W12194   3.037   4.255   3.219
 8144W        W12195  10.056  10.938   1.597
 8145W        W12196   7.367   0.274   2.025
 8146W        W12197   7.790   6.237  11.056
 8147W        W12198   4.380   8.059  11.952
 8148W        W12199   6.390  11.216   9.546
 8149W        W12200   3.223   5.576   9.948
 8150W        W12201   5.352  10.389   9.226
 8151W        W12202   5.793   7.933   0.940
 8152W        W12203   0.703   6.531   9.996
 8153W        W12204   2.763   7.460   8.835
 8154W        W12205   2.107  10.483  11.592
 8155W        W12206   1.460   2.269   9.663
 8156W        W12207   1.434   3.838  10.221
 8157W        W12208   3.694   5.016   9.873
 8158W        W12209   8.013   3.555   0.008
 8159W        W12210   5.437  11.061   2.660
 8160W        W12211   7.907   6.745  11.020
 8161W        W12212   6.649  11.308   9.961
 8162W        W12213   8.383   6.240   1.910
 8163W        W12214  10.421   3.027   8.565
 8164W        W12215  10.767   5.655   9.577
 8165W        W12216  10.401   3.084   1.680
 8166W        W12217   7.802   3.145   0.828
 8167W        W12218   5.184   6.987   0.723
 8168W        W12219   0.491   9.884   9.166
 8169W        W12220   4.974   0.530   2.670
 8170W        W12221   1.718   1.825   3.597
 8171W        W12222   6.048   4.771  11.250
 8172W        W12223   3.745   9.278  10.763
 8173W        W12224   1.228   4.998  11.226
 8174W        W12225   9.787  11.179   2.301
 8175W        W12226   5.280  10.824   9.502
 8176W        W12227   9.854   9.942   0.914
 8177W        W12228   7.574  11.030   1.791
 8178W        W12229   3.795   0.893   2.211
 8179W        W12230   4.116   9.593   1.737
 8180W        W12231   4.005  10.538   8.660
 8181W        W12232   5.804  11.308   1.379
 8182W        W12233  10.133   0.738   1.634
 8183W        W12234   1.084   0.043   0.059
 8184W        W12235   0.031  10.473   0.758
 8185W        W12236   2.322   5.429  11.532
 8186W        W12237  10.389   9.958  10.072
 8187W        W12238   0.942  10.901  10.778
 8188W        W12239  10.418   8.688   9.650
 8189W        W12240   4.270   3.151   1.228
 8190W        W12241   9.083   6.034  10.916
 8191W        W12242   9.443   4.933   8.720
 8192W        W12243  11.021   7.813   9.951
 8193W        W12244   8.918   4.150   8.348
 8194W        W12245   1.300   6.613   1.658
 8195W        W12246   6.022   8.368   9.905
 8196W        W12247   9.118   4.629   9.540
 8197W        W12248   8.196   2.787   9.499
 8198W        W12249   7.672   2.960   1.323
 8199W        W12250   3.369   1.391   1.516
 8200W        W12251   7.190   9.205   9.501
 8201W        W12252   0.754   9.085   8.776
 8202W        W12253   6.309   8.696   0.449
 8203W        W12254   1.443  11.031  10.747
 8204W        W12255   1.778   3.716   2.113
 8205W        W12256   4.930   3.373   3.135
 8206W        W12257  11.434   9.370   2.284
 8207W        W12258   2.690   0.028   0.797
 8208W        W12259   1.415   8.109   0.564
 8209W        W12260   6.900   3.552   2.764
 8210W        W12261   5.694   2.218   0.745
 8211W        W12262   9.829   4.245   9.468
 8212W        W12263   3.308   6.274  11.540
 8213W        W12264   4.010   2.285  10.974
 8214W        W12265   9.368   3.634   0.480
 8215W        W12266   7.454   7.146  11.100
 8216W        W12267   2.023   9.606   2.572
 8217W        W12268   2.907   7.899   8.609
 8218W        W12269   6.659   5.290  11.571
 8219W        W12270  11.001   9.002  11.400
 8220W        W12271   2.670   3.696   2.546
 8221W        W12272   5.107   9.403   1.054
 8222W        W12273   4.576   6.367   8.283
 8223W        W12274  10.105   3.218  11.368
 8224W        W12275   7.916   2.645   0.882
 8225W        W12276   9.369   9.687  11.335
 8226W        W12277  10.490   1.833   0.171
 8227W        W12278   9.626   3.785  10.364
 8228W        W12279   8.423   3.197  11.404
 8229W        W12280  10.887   1.769   1.344
 8230W        W12281   2.514   6.183  11.898
 8231W        W12282   4.249   8.809   2.119
 8232W        W12283   0.419   4.522   1.224
 8233W        W12284   0.712   7.652  11.816
 8234W        W12285   4.517   0.287   2.735
 8235W        W12286   9.037   5.922   1.384
 8236W        W12287   0.484  10.198   3.172
 8237W        W12288   0.946   2.780   9.037
 8238W        W12289   9.089   0.756   8.862
 8239W        W12290   5.303   8.476   2.118
 8240W        W12291  10.323   2.645   1.931
 8241W        W12292  10.475  10.582   0.063
 8242W        W12293   4.929   6.739   8.662
 8243W        W12294   1.282   9.280  10.547
 8244W        W12295   2.655   6.040   2.779
 8245W        W12296   6.398   4.104   1.790
 8246W        W12297   1.653   0.395  10.458
 8247W        W12298   9.642   4.655   1.890
 8248W        W12299   5.730   0.470  10.148
 8249W        W12300   7.066  11.489   0.855
 8250W        W12301   1.485   6.514  10.274
 8251W        W12302   5.855   2.029   9.106
 8252W        W12303   9.047   2.964  11.768
 8253W        W12304   4.335   8.568   1.652
 8254W        W12305  10.372   0.951   0.474
 8255W        W12306   2.995   0.934   3.475
 8256W        W12307   4.417   3.585  11.974
 8257W        W12308   3.697   4.125  11.416
 8258W        W12309   0.179  10.345  11.948
 8259W        W12310   8.620  11.368  11.693
 8260W        W12311   6.601   4.809   1.569
 8261W        W12312   2.419   0.291  10.877
 8262W        W12313  10.557   6.605   3.496
 8263W        W12314   1.540   5.087   0.295
 8264W        W12315  11.052   7.966   1.347
 8265W        W12316   2.687   0.981   2.615
 8266W        W12317   6.581   1.088   2.897
 8267W        W12318   5.553   7.584  10.468
 8268W        W12319   8.386   5.708  10.543
 8269W        W12320   9.442   9.121   9.457
 8270W        W12321   5.192   4.246   9.980
 8271W        W12322   4.094   0.979   0.720
 8272W        W12323  10.586   5.106  10.315
 8273W        W12324  10.407   0.087   0.245
 8274W        W12325   8.983   0.795  10.280
 8275W        W12326   2.279   6.162   0.959
 8276W        W12327   1.877   4.083  11.436
 8277W        W12328   6.985   7.352   2.098
 8278W        W12329   1.046   7.414   9.825
 8279W        W12330   2.629   6.925  11.730
 8280W        W12331   3.093   6.278   2.901
 8281W        W12332  11.030  10.810   1.198
 8282W        W12333   9.848   3.682   9.037
 8283W        W12334   8.822   6.358  11.253
 8284W        W12335   6.051   4.172   1.428
 8285W        W12336   0.318   6.019   3.586
 8286W        W12337   5.021   2.203  10.984
 8287W        W12338  10.790   0.360  10.322
 8288W        W12339   8.361   5.774   8.989
 8289W        W12340   4.817   4.885  11.463
 8290W        W12341   4.771   7.459   1.416
 8291W        W12342   2.243   4.183  11.099
 8292W        W12343   7.263   5.029   0.289
 8293W        W12344   9.383   7.267   9.276
 8294W        W12345   6.861  10.064   8.587
 8295W        W12346   7.119   2.876  11.210
 8296W        W12347   1.872   0.045   1.493
 8297W        W12348   9.610  11.443   0.674
 8298W        W12349   4.407   7.008  11.323
 8299W        W12350   8.869   5.620   0.428
 8300W        W12351  11.244   6.247   0.983
 8301W        W12352   5.474   8.948  11.639
 8302W        W12353   7.428   5.301  11.456
 8303W        W12354   7.426   9.303  10.980
 8304W        W12355   0.977   8.989   0.923
 8305W        W12356   0.128   3.551   1.116
 8306W        W12357   8.095   5.209  11.996
 8307W        W12358  10.331   4.734   0.415
 8308W        W12359   5.930   0.001   0.894
 8309W        W12360   5.644   4.662   8.691
 8310W        W12361   5.513   3.839  11.888
 8311W        W12362   2.833   8.798  10.609
 8312W        W12363   5.189   4.587   2.686
 8313W        W12364  10.476   2.879   0.381
 8314W        W12365   3.860   5.349   2.089
 8315W        W12366  10.396  10.114  11.840
 8316W        W12367   3.353   3.891   0.523
 8317W        W12368   6.640   0.293   9.709
 8318W        W12369  10.920   8.108   9.547
 8319W        W12370   2.342  11.025   9.590
 8320W        W12371   6.518   8.452   0.852
 8321W        W12372   5.063   6.101  10.836
 8322W        W12373   8.266   4.845  11.004
 8323W        W12374   9.253   6.127   0.948
 8324W        W12375   7.541  10.807   8.644
 8325W        W12376   3.366   5.497   2.972
 8326W        W12377   9.869   1.244  10.030
 8327W        W12378   2.793   2.862   2.433
 8328W        W12379   4.391  10.409   1.480
 8329W        W12380   9.500   8.040   1.337
 8330W        W12381   3.885   6.555   0.738
 8331W        W12382   3.402   5.716   8.254
 8332W        W12383   6.923   6.177   0.726
 8333W        W12384   0.877   5.081   9.562
 8334W        W12385   9.773   6.217   1.852
 8335W        W12386   1.359   0.453   9.528
 8336W        W12387   5.177   8.007   0.497
 8337W        W12388  10.419   4.484   1.909
 8338W        W12389   9.483  11.478  10.247
 8339W        W12390   8.888  10.477   1.659
 8340W        W12391   1.949   6.649  10.486
 8341W        W12392   8.958   2.548   9.980
 8342W        W12393   8.522   9.828   9.335
 8343W        W12394  10.726   3.757  10.134
 8344W        W12395   3.393   0.703   3.208
 8345W        W12396   0.791   2.357   2.657
 8346W        W12397   9.297   8.331   3.586
 8347W        W12398   6.198   9.305  11.775
 8348W        W12399   1.112  11.423   2.220
 8349W        W12400   5.195   3.620   3.507
 8350W        W12401   0.220   9.093   2.612
 8351W        W12402   5.706   1.255   9.882
 8352W        W12403   1.726   4.540  10.083
 8353W        W12404   5.668   0.295   3.421
 8354W        W12405   4.547   2.695   9.125
 8355W        W12406   1.760   9.439  10.528
 8356W        W12407   7.670   6.441   3.412
 8357W        W12408   9.284   9.384   8.957
 8358W        W12409   5.125   4.588   1.714
 8359W        W12410   3.296   6.186   9.322
 8360W        W12411   7.831   4.604  11.259
 8361W        W12412   3.798   5.753   0.676
 8362W        W12413   1.285   5.832   3.491
 8363W        W12414   7.094   2.678  11.997
 8364W        W12415   1.782   7.263   3.899
 8365W        W12416   4.650   8.875  10.444
 8366W        W12417   9.101   1.660   1.970
 8367W        W12418   8.353   4.342   0.827
 8368W        W12419   2.691   0.227   1.737
 8369W        W12420  10.465   8.650   3.152
 8370W        W12421   1.456   7.136   2.406
 8371W        W12422   2.354   4.816   2.843
 8372W        W12423  10.455   5.819   9.957
 8373W        W12424   4.232   4.282   8.872
 8374W        W12425   1.945   4.634   1.077
 8375W        W12426   4.986   7.012   1.199
 8376W        W12427   2.344   1.850   2.204
 8377W        W12428   8.927   5.079  10.286
 8378W        W12429   4.105   5.290  10.080
 8379W        W12430   8.355   3.822   2.330
 8380W        W12431   9.386   9.318  10.910
 8381W        W12432   4.757   7.758   0.605
 8382W        W12433   1.394   4.578   1.207
 8383W        W12434   8.474   9.528  11.539
 8384W        W12435   2.190   1.479   3.334
 8385W        W12436   3.225   0.179   2.975
 8386W        W12437   7.513   8.486   9.372
 8387W        W12438   1.376   7.053  10.038
 8388W        W12439   8.518   0.323  11.453
 8389W        W12440   7.142  11.311   1.833
 8390W        W12441  11.474   4.885   9.049
 8391W        W12442   0.263   9.924  10.175
 8392W        W12443   5.074   1.696  10.764
 8393W        W12444   1.938   6.175   8.927
 8394W        W12445   7.145   0.007   9.041
 8395W        W12446   7.400   4.342  10.591
 8396W        W12447   2.773   3.282   9.258
 8397W        W12448   6.204   2.856   0.427
 8398W        W12449   8.492   0.151   0.976
 8399W        W12450   2.152   0.424  11.323
 8400W        W12451   3.276   3.850   9.618
 8401W        W12452   6.446   3.330  10.636
 8402W        W12453   0.343   9.502   1.987
 8403W        W12454   0.927   5.971   1.658
 8404W        W12455   1.310   0.956   9.584
 8405W        W12456   1.340   5.053  10.716
 8406W        W12457   7.518   0.279   9.642
 8407W        W12458   3.729   8.468   8.704
 8408W        W12459   4.161  10.961   0.770
 8409W        W12460   9.214   1.271   0.667
 8410W        W12461   2.309   5.274   2.498
 8411W        W12462   2.704   8.015   3.192
 8412W        W12463   6.163   3.486  11.174
 8413W        W12464   4.204   1.015   9.115
 8414W        W12465   5.967   7.263   3.176
 8415W        W12466  10.572   5.963  11.817
 8416W        W12467   3.453  11.403   8.673
 8417W        W12468   7.491   8.571   1.839
 8418W        W12469   1.187  10.535   0.496
 8419W        W12470   6.561   9.585  11.541
 8420W        W12471   9.106   2.476   0.714
 8421W        W12472   3.112   0.663  11.037
 8422W        W12473   8.500   0.729   8.946
 8423W        W12474   1.594   7.642   2.288
 8424W        W12475  11.470   6.542  10.484
 8425W        W12476   7.680   1.795   1.950
 8426W        W12477   7.166   1.223  11.755
 8427W        W12478   4.677   2.827   3.625
 8428W        W12479   6.759   0.352   8.936
 8429W        W12480   2.737   7.400   9.806
 8430W        W12481   0.376   4.997  10.746
 8431W        W12482  10.836  11.380  10.525
 8432W        W12483   1.427   3.344   3.012
 8433W        W12484  10.836   0.842   9.543
 8434W        W12485   8.518   2.416   9.041
 8435W        W12486   1.372   6.212   1.963
 8436W        W12487   7.845   6.111   8.834
 8437W        W12488   9.955   7.211   1.890
 8438W        W12489   9.552   3.865   8.564
 8439W        W12490   6.398   2.040   3.975
 8440W        W12491   2.896   8.395  11.958
 8441W        W12492   9.335   1.724   3.487
 8442W        W12493  10.785  10.103   0.997
 8443W        W12494   3.173   6.627   2.554
 8444W        W12495   4.734  10.344   1.863
 8445W        W12496   3.201  10.064   9.849
 8446W        W12497   5.976  11.030   2.003
 8447W        W12498   3.135   0.285   0.964
 8448ION    NA+12499   2.207   0.070   1.875
 8449ION    NA+12500   3.667   7.531   1.110
 8450ION    NA+12501   9.638   3.923  11.229
 8451ION    NA+12502   3.055   8.753   1.589
 8452ION    NA+12503   9.453   4.668  10.587
 8453ION    NA+12504   2.268   6.604   2.136
 8454ION    NA+12505   4.816   3.779  11.723
 8455ION    NA+12506   7.482   1.301   3.655
 8456ION    NA+12507  11.463   8.410  10.324
 8457ION    NA+12508   6.008   8.159   2.325
 8458ION    NA+12509   9.597   8.376  11.825
 8459ION    NA+12510   9.479   6.077   0.181
 8460ION    NA+12511   3.374   5.702   1.675
 8461ION    NA+12512   9.358   0.993  11.665
 8462ION    NA+12513   5.262   4.950   2.080
 8463ION    NA+12514  11.420   5.193  10.611
 8464ION    NA+12515   7.366   3.510   2.167
 8465ION    NA+12516   7.945  10.486   9.314
 8466ION    NA+12517   0.078   7.401   8.652
 8467ION    NA+12518   9.432   6.465   9.552
 8468ION    NA+12519   2.074   8.180   9.698
 8469ION    NA+12520   7.733   2.118   8.748
 8470ION    NA+12521   8.065   2.560   3.825
 8471ION    NA+12522   8.810  10.976   9.421
 8472ION    NA+12523   5.223   6.351  11.284
 8473ION    NA+12524   0.386   7.547   9.475
 8474ION    NA+12525   9.291  10.699   0.967
 8475ION    NA+12526   3.798   4.045  10.187
 8476ION    NA+12527   9.435   7.707  11.355
 8477ION    NA+12528   3.934   2.186   1.710
 8478ION    NA+12529   4.821   0.924   2.168
 8479ION    NA+12530   1.260   5.035  11.805
 8480ION    NA+12531   0.966  11.207   8.991
 8481ION    NA+12532   8.767   8.372  11.758
 8482ION    NA+12533   0.890   4.092   3.201
 8483ION    NA+12534   7.040   1.377   2.761
 8484ION    NA+12535   5.157   2.109  11.929
 8485ION    NA+12536   4.181   0.702  10.363
 8486ION    NA+12537  10.577   0.150   1.457
 8487ION    NA+12538   5.342   7.540   2.482
 8488ION    NA+12539  11.175   0.564   2.672
 8489ION    NA+12540   4.248   3.947   0.603
 8490ION    NA+12541   6.036   9.470   2.492
 8491ION    NA+12542   3.208   2.334   0.433
 8492ION    NA+12543   1.433   2.045   8.736
 8493ION    NA+12544   3.080   8.888  11.882
 8494ION    NA+12545   4.153   1.809   2.610
 8495ION    NA+12546   8.562   6.825   9.889
 8496ION    NA+12547   7.548   9.564   0.949
 8497ION    NA+12548   7.401   0.869   0.060
 8498ION    NA+12549   1.793   4.146   1.296
 8499ION    NA+12550   7.967   6.391  10.598
 8500ION    NA+12551   3.107   5.818   2.632
 8501ION    NA+12552   5.413   1.602   2.226
 8502ION    NA+12553   0.245   4.363  11.721
 8503ION    NA+12554   3.057   8.320   0.823
 8504ION    NA+12555   7.140   1.667   1.703
 8505ION    NA+12556   3.042  11.049   7.965
 8506ION    NA+12557   8.201   1.091   2.911
 8507ION    NA+12558   4.048   8.444   0.879
 8508ION    NA+12559   9.231   0.098   0.982
 8509ION    NA+12560   3.680   2.003   3.635
 8510ION    NA+12561   5.388  10.050  11.438
 8511ION    NA+12562   8.029   5.060   3.262
 8512ION    NA+12563  11.449   7.907  11.974
 8513ION    NA+12564   9.323   0.757   9.890
 8514ION    NA+12565  11.466  11.067  11.988
 8515ION    NA+12566  11.010   6.448  10.205
 8516ION    NA+12567   5.769   2.795   9.528
 8517ION    NA+12568   6.649   9.191   8.806
 8518ION    NA+12569   1.026   5.115   1.228
 8519ION    NA+12570   7.584   0.278  11.275
 8520ION    NA+12571   0.419   0.423   9.177
 8521ION    NA+12572   2.375   7.801   8.533
 8522ION    NA+12573   8.991   3.299   0.440
 8523ION    NA+12574   9.602   1.572   2.485
 8524ION    NA+12575  10.489   7.723   9.828
 8525ION    NA+12576  10.510   4.142   0.742
 8526ION    NA+12577   7.398   8.738   8.922
 8527ION    NA+12578   0.603   1.515  11.507
 8528ION    NA+12579   9.767  10.105  11.132
 8529ION    NA+12580  10.355  11.069   0.255
 8530ION    NA+12581   9.545   1.498   9.256
 8531ION    NA+12582   0.060   1.866  10.744
 8532ION    NA+12583   8.595   4.539   2.624
 8533ION    NA+12584   1.834  11.191   0.441
 8534ION    NA+12585   2.685   3.430  10.352
 8535ION    NA+12586   8.492   0.205   9.814
 8536ION    NA+12587   4.965   3.410   8.449
 8537ION    CL-12588   2.834   4.625   2.914
 8538ION    CL-12589   4.671   3.116   8.261
 8539ION    CL-12590   0.373   2.278   3.566
 8540ION    CL-12591   1.210  11.349  11.527
 8541ION    CL-12592  10.069   4.075   3.524
 8542ION    CL-12593  11.106  11.412  10.956
 8543ION    CL-12594   5.830  10.067  11.373
 8544ION    CL-12595   9.128   3.744  10.379
 8545ION    CL-12596   9.565  10.512  11.186
 8546ION    CL-12597   0.085   0.581  10.325
 8547ION    CL-12598   2.818   5.129  11.748
 8548ION    CL-12599   5.096   1.287   2.140
 8549ION    CL-12600   3.525  10.680   3.566
 8550ION    CL-12601  11.240   4.088   1.535
 8551ION    CL-12602   1.498   7.658  11.356
 8552ION    CL-12603   0.356   1.529  10.865
 8553ION    CL-12604   6.405   9.307   2.300
 8554ION    CL-12605   0.360  10.402  10.938
 8555ION    CL-12606   4.564   3.963  10.383
 8556ION    CL-12607   6.392   9.320  10.097
 8557ION    CL-12608   0.713   0.072   9.157
 8558ION    CL-12609   2.657   2.188  10.863
 8559ION    CL-12610   7.849   1.675   8.695
 8560ION    CL-12611   9.520   1.902   2.187
 8561ION    CL-12612   9.047   1.212  11.431
 8562ION    CL-12613   0.876   8.776  11.549
 8563ION    CL-12614   8.278   0.695   2.717
 8564ION    CL-12615   9.435  10.779   3.498
 8565ION    CL-12616   0.010   0.853   2.711
 8566ION    CL-12617   8.280   4.604  11.507
 8567ION    CL-12618   2.527   9.860   9.482
 8568ION    CL-12619   8.608   3.076   0.395
 8569ION    CL-12620   9.374   2.881   9.938
 8570ION    CL-12621   5.035   7.321   2.743
 8571ION    CL-12622   9.172   8.559  11.903
 8572ION    CL-12623   8.510   8.145  11.456
 8573ION    CL-12624   6.051   7.417   0.233
 8574ION    CL-12625  10.490   2.267   3.164
 8575ION    CL-12626  11.259   9.456   0.743
 8576ION    CL-12627   1.925   5.111   4.147
 8577ION    CL-12628   0.531   1.856  11.793
 8578ION    CL-12629   8.617  11.286   9.690
 8579ION    CL-12630   1.936  10.108   3.332
 8580ION    CL-12631   8.557   2.117  10.977
 8581ION    CL-12632  11.423   1.404   0.520
 8582ION    CL-12633   2.729  10.998   3.050
 8583ION    CL-12634   8.074   7.921  10.441
 8584ION    CL-12635  10.053   9.842  10.896
 8585ION    CL-12636   4.114  11.414   8.421
 8586ION    CL-12637   0.348   6.726   1.615
 8587ION    CL-12638   5.682   7.847   2.381
 8588ION    CL-12639   7.437   7.193   1.868
 8589ION    CL-12640   1.372   2.211   9.147
 8590ION    CL-12641   9.700   3.485  11.157
 8591ION    CL-12642   5.852  10.423   9.996
 8592ION    CL-12643   2.046  11.082   8.765
 8593ION    CL-12644   4.109   4.049   1.017
 8594ION    CL-12645   0.436  10.553   1.051
 8595ION    CL-12646   3.110   8.449   1.257
 8596ION    CL-12647   9.269  11.150   0.962
 8597ION    CL-12648  10.366   3.972   2.006
 8598ION    CL-12649  10.825   1.195  10.537
 8599ION    CL-12650   4.704   7.891   1.720
 8600ION    CL-12651   5.651   3.242  11.305
 8601ION    CL-12652  10.560   7.002   0.540
 8602ION    CL-12653   2.766   3.857  10.448
 8603ION    CL-12654   4.895   1.284   8.894
 8604ION    CL-12655  11.361   7.678   8.322
 8605ION    CL-12656   6.940   9.296  11.294
 8606ION    CL-12657   9.878   8.547   9.829
 8607ION    CL-12658   5.939   7.068   9.870
 8608ION    CL-12659   4.203   0.596   9.927
 8609ION    CL-12660   9.716   7.994  11.573
 8610ION    CL-12661   0.233   7.356   9.095
 8611ION    CL-12662   8.067   7.341   2.724
 8612ION    CL-12663   1.657   6.537   9.428
 8613ION    CL-12664   6.957   8.850   8.836
 8614ION    CL-12665   2.147  10.888   0.340
 8615ION    CL-12666   9.601   4.425   2.464
 8616ION    CL-12667   5.508   6.030  11.162
 8617ION    CL-12668   4.849   5.227  10.833
 8618ION    CL-12669   7.053   0.672   0.261
 8619ION    CL-12670   0.603   8.090   3.145
 8620ION    CL-12671  11.187   2.120  10.657
 8621ION    CL-12672   4.235   9.619   0.468
 8622ION    CL-12673   0.996  10.057   9.132
 8623ION    CL-12674   6.527   4.447  11.882
 8624ION    CL-12675   0.482   8.601   1.457
 8625ION    CL-12676   6.778   7.560  10.100
  11.50000  11.50000  12.00000
