Protein in INSANE! Membrane UpperLeaflet>POPC=1.0 LowerLeaflet>POPC=1.0
11125
    1AU     AUC    1   2.203   3.514   5.524 -0.0397  0.0228 -0.0239
    1AU     AUC    2   2.294   3.464   5.197 -0.0454 -0.0141  0.0545
    1AU     AUC    3   2.486   3.353   5.476 -0.0195 -0.1021 -0.0295
    1AU     AUC    4   1.948   3.612   5.585 -0.0454  0.0402  0.0388
    1AU     AUC    5   2.194   3.583   5.814  0.1100  0.1040 -0.0904
    1AU     AUC    6   2.217   3.782   5.605 -0.0759  0.0371  0.0514
    1AU     AUC    7   2.441   3.690   5.371 -0.0192 -0.0315 -0.0824
    1AU     AUC    8   1.988   3.326   5.639  0.0413  0.0479  0.0653
    1AU     AUC    9   2.223   3.177   5.431 -0.0045 -0.1268 -0.0205
    1AU     AUC   10   2.323   3.266   5.719  0.0067 -0.0375  0.0365
    1AU     AUC   11   2.451   3.583   5.693 -0.0622 -0.1056 -0.0291
    1AU     AUC   12   1.984   3.424   5.315 -0.0523 -0.0615  0.0305
    1AU     AUC   13   2.116   3.708   5.283 -0.0337 -0.0488 -0.0240
    1AU     AUC   14   2.395   3.398   4.842 -0.1186  0.0348 -0.0083
    1AU     AUC   15   2.607   3.254   5.095  0.0633  0.0046  0.0251
    1AU     AUC   16   2.788   3.190   5.408 -0.0461 -0.0178 -0.0167
    1AU     AUC   17   1.623   3.750   5.670 -0.0433  0.0795 -0.0680
    1AU     AUC   18   1.860   3.701   5.969  0.0861 -0.0322  0.0542
    1AU     AUC   19   2.120   3.658   6.168 -0.0572 -0.0017  0.0124
    1AU     AUC   20   2.220   4.145   5.713 -0.0052  0.1015 -0.0197
    1AU     AUC   21   2.450   4.070   5.431  0.0634 -0.0250 -0.0492
    1AU     AUC   22   2.675   3.895   5.242  0.0161  0.1040  0.0435
    1AU     AUC   23   1.749   3.129   5.830 -0.0579  0.0482  0.0273
    1AU     AUC   24   1.951   2.958   5.564 -0.1411 -0.0514 -0.0444
    1AU     AUC   25   2.235   2.821   5.322  0.0255 -0.0049 -0.0698
    1AU     AUC   26   2.472   3.034   5.974 -0.1308  0.0850  0.0166
    1AU     AUC   27   2.610   3.374   5.951 -0.0485  0.0940 -0.0400
    1AU     AUC   28   2.728   3.680   5.884  0.0409 -0.0865  0.0433
    1AU     AUC   29   1.760   3.304   5.127  0.0082 -0.0641 -0.0427
    1AU     AUC   30   1.840   3.645   5.067  0.0731  0.0749 -0.0701
    1AU     AUC   31   1.976   3.936   5.057 -0.0072  0.0273 -0.0269
    1AU     AUC   32   2.631   3.065   5.703 -0.0304  0.0937  0.0339
    1AU     AUC   33   2.811   3.417   5.641  0.0497 -0.0386 -0.1355
    1AU     AUC   34   2.062   3.361   4.917  0.0155  0.0002  0.0910
    1AU     AUC   35   2.222   3.685   4.926  0.0501  0.0288  0.0538
    1AU     AUC   36   2.305   3.375   6.119  0.0645 -0.0745  0.0128
    1AU     AUC   37   2.455   3.731   6.050  0.0806  0.0337 -0.0176
    1AU     AUC   38   1.680   3.534   5.388  0.0169 -0.0077 -0.0819
    1AU     AUC   39   1.735   3.840   5.358  0.0282 -0.0193 -0.0707
    1AU     AUC   40   2.559   3.608   5.045 -0.0524  0.0551 -0.0104
    1AU     AUC   41   2.753   3.520   5.313 -0.0415 -0.0517 -0.0364
    1AU     AUC   42   1.906   3.971   5.724 -0.0095  0.0069 -0.0397
    1AU     AUC   43   2.190   3.938   5.955 -0.0665  0.0703 -0.0776
    1AU     AUC   44   2.314   3.104   5.068  0.0066  0.0234  0.0103
    1AU     AUC   45   2.501   2.964   5.388 -0.0649 -0.0060 -0.0659
    1AU     AUC   46   1.665   3.407   5.788 -0.0807 -0.0462 -0.0129
    1AU     AUC   47   1.969   3.377   6.005  0.0468  0.0267 -0.0854
    1AU     AUC   48   2.496   3.965   5.798 -0.0917  0.0565 -0.0438
    1AU     AUC   49   2.715   3.812   5.539 -0.0834  0.0065  0.0940
    1AU     AUC   50   2.107   3.064   5.884  0.0494  0.0774 -0.0307
    1AU     AUC   51   2.279   2.902   5.683 -0.0750  0.0411 -0.0019
    1AU     AUC   52   2.074   4.048   5.395 -0.0747 -0.0095 -0.0369
    1AU     AUC   53   2.330   3.953   5.122 -0.1289 -0.0438  0.0379
    1AU     AUC   54   1.719   3.199   5.474 -0.0671 -0.0305  0.0221
    1AU     AUC   55   2.002   3.080   5.198  0.0161 -0.0846 -0.0310
    1AU    AUSL   56   3.025   3.052   5.690 -0.0073  0.0792 -0.0461
    1AU    AUSL   57   2.672   2.699   5.831  0.0241 -0.0919  0.0608
    1AU     AUL   58   3.010   2.717   5.719 -0.0786  0.0486 -0.0808
    1AU       S   59   2.798   2.318   5.713 -0.4157 -0.2964  0.2897
    1AU     LIG   60   2.984   1.904   5.854 -0.1933 -0.1143  0.1596
    1AU     LIG   61   3.118   1.559   6.068  0.0250  0.0084 -0.2421
    1AU     LIG   62   3.467   1.371   6.214 -0.1181  0.1656 -0.1121
    1AU     LIG   63   3.551   1.056   5.908  0.1820  0.0251  0.3820
    1AU       S   64   3.287   2.904   6.066 -0.0223  0.2582  0.5867
    1AU     LIG   65   3.354   2.764   6.360 -0.3204  0.0575  0.0649
    1AU     LIG   66   3.782   2.800   6.420  0.1353 -0.1387  0.1055
    1AU     LIG   67   4.233   2.559   6.428  0.4527  0.3242  0.1933
    1AU     LIG   68   4.496   2.161   6.378 -0.1907 -0.0645  0.0825
    1AU    AUSL   69   2.787   3.057   6.082  0.0594 -0.0083  0.0396
    1AU    AUSL   70   2.830   3.494   6.251 -0.0422 -0.0193  0.0132
    1AU     AUL   71   3.053   3.245   6.256  0.0603 -0.0470  0.0989
    1AU       S   72   2.906   2.804   6.230  0.1715  0.3496 -0.1791
    1AU     LIG   73   2.970   2.485   6.185 -0.1354  0.1331  0.4523
    1AU     LIG   74   3.312   2.247   6.066  0.0851  0.2104 -0.5873
    1AU     LIG   75   3.570   1.912   6.048 -0.0436 -0.1230 -0.3003
    1AU     LIG   76   3.856   1.568   5.927 -0.0032  0.0077 -0.0727
    1AU       S   77   2.817   3.362   6.654 -0.3529  0.4644  0.0509
    1AU     LIG   78   3.112   3.561   6.953 -0.1983  0.2668  0.1102
    1AU     LIG   79   3.523   3.794   6.753 -0.1612 -0.3484 -0.2421
    1AU     LIG   80   3.816   3.944   7.051 -0.2263  0.0677  0.1253
    1AU     LIG   81   4.202   4.045   7.027  0.1557  0.1361 -0.3433
    1AU    AUSL   82   2.835   3.435   5.831 -0.0382 -0.0071  0.0318
    1AU    AUSL   83   3.158   3.415   5.484 -0.0289 -0.0180 -0.1003
    1AU     AUL   84   3.229   3.292   5.806 -0.1456 -0.0247 -0.0554
    1AU       S   85   3.257   3.657   6.188 -0.2296 -0.2738 -0.0127
    1AU     LIG   86   3.711   3.715   6.179  0.0535 -0.0890  0.1618
    1AU     LIG   87   3.971   3.609   5.878  0.1212  0.0839 -0.0680
    1AU     LIG   88   4.477   3.522   5.996  0.1071  0.1279  0.1257
    1AU     LIG   89   4.534   3.460   6.382 -0.2654 -0.0829  0.0160
    1AU       S   90   3.498   3.522   5.487 -0.2638 -0.0944 -0.1050
    1AU     LIG   91   3.711   3.207   5.569  0.1006  0.0233  0.1728
    1AU     LIG   92   3.766   3.168   6.036  0.1521  0.2811 -0.1779
    1AU     LIG   93   4.066   3.359   6.306  0.4055  0.2532 -0.0142
    1AU     LIG   94   3.961   3.525   6.739  0.1406  0.6892  0.2815
    1AU    AUSL   95   2.185   3.607   4.573 -0.0646  0.0040  0.0718
    1AU    AUSL   96   2.276   4.014   4.748 -0.0394 -0.0059 -0.0071
    1AU     AUL   97   2.323   3.844   4.380 -0.0579  0.0486  0.0084
    1AU       S   98   1.883   3.822   4.384 -0.2841 -0.0188 -0.1025
    1AU     LIG   99   1.715   4.216   4.149  0.1453  0.1431 -0.1050
    1AU     LIG  100   1.445   4.552   4.101  0.1975 -0.0582  0.0130
    1AU     LIG  101   1.003   4.803   4.103 -0.3313  0.0391 -0.2684
    1AU     LIG  102   0.740   5.220   3.881 -0.2860  0.1165 -0.0113
    1AU       S  103   2.635   4.153   4.507 -0.0749  0.0802 -0.3999
    1AU     LIG  104   2.666   4.513   4.230 -0.0100 -0.0405  0.1819
    1AU     LIG  105   2.447   4.917   4.189  0.0086 -0.1928 -0.1951
    1AU     LIG  106   1.963   5.087   4.105  0.1583 -0.0827  0.1405
    1AU     LIG  107   1.503   5.092   3.850 -0.0296  0.2005  0.0763
    1AU    AUSL  108   1.794   3.432   4.641  0.1047 -0.0857 -0.1114
    1AU    AUSL  109   2.213   3.181   4.613  0.0712  0.0993  0.0685
    1AU     AUL  110   2.038   3.374   4.365 -0.0045 -0.0367  0.0175
    1AU       S  111   2.085   2.878   4.329 -0.0532  0.0370 -0.2958
    1AU     LIG  112   2.293   2.400   4.134  0.2900  0.0159 -0.1491
    1AU     LIG  113   2.379   2.001   4.119 -0.1480 -0.1034  0.3545
    1AU     LIG  114   2.780   1.724   4.055  0.0502  0.0455  0.0261
    1AU     LIG  115   2.990   1.303   4.018  0.2229  0.0431 -0.0144
    1AU       S  116   1.777   3.731   4.299 -0.1879 -0.1644 -0.1252
    1AU     LIG  117   1.338   3.869   4.297 -0.0610 -0.0294 -0.1604
    1AU     LIG  118   1.259   4.302   4.480 -0.1445 -0.2617  0.4892
    1AU     LIG  119   1.091   4.718   4.636 -0.1833 -0.0854 -0.3192
    1AU     LIG  120   0.904   5.155   4.641 -0.0342  0.0432 -0.0324
    1AU    AUSL  121   1.921   3.799   4.879 -0.0040  0.0100  0.0527
    1AU    AUSL  122   1.558   3.534   4.987  0.0363 -0.0901  0.0210
    1AU     AUL  123   1.539   3.583   4.665  0.0584  0.0844  0.0700
    1AU       S  124   1.149   3.743   4.817  0.3252 -0.0749 -0.2976
    1AU     LIG  125   0.817   4.012   4.576 -0.2756 -0.3900  0.0987
    1AU     LIG  126   0.815   4.366   4.289  0.2425 -0.1693  0.0556
    1AU     LIG  127   0.516   4.644   4.105  0.1876 -0.1791  0.1119
    1AU     LIG  128   0.306   5.008   3.903 -0.1507  0.1475  0.0228
    1AU       S  129   1.860   3.948   4.546  0.2785  0.1765 -0.2745
    1AU     LIG  130   1.706   4.316   4.683 -0.1286  0.0174 -0.1509
    1AU     LIG  131   1.430   4.530   4.945 -0.0083  0.2161  0.2738
    1AU     LIG  132   1.348   5.018   4.944  0.3690 -0.0332 -0.1455
    1AU     LIG  133   1.306   5.469   4.842  0.0506 -0.1260 -0.0837
    1AU    AUSL  134   2.429   3.608   6.457  0.0499  0.0339 -0.1328
    1AU    AUSL  135   2.680   3.889   6.153  0.1045  0.1126 -0.0028
    1AU     AUL  136   2.813   3.768   6.478 -0.0263  0.0165 -0.0107
    1AU       S  137   2.571   3.279   6.697  0.1129 -0.1134  0.0916
    1AU     LIG  138   2.649   3.714   6.913 -0.5977  0.5035  0.1696
    1AU     LIG  139   2.751   3.906   7.343 -0.0106 -0.2915 -0.1841
    1AU     LIG  140   2.676   4.073   7.822  0.3459  0.0871 -0.1429
    1AU     LIG  141   2.789   4.562   7.992 -0.0244 -0.0859 -0.1541
    1AU       S  142   2.627   4.194   6.446 -0.0964 -0.0451  0.1265
    1AU     LIG  143   3.098   4.231   6.466  0.1422  0.1919  0.1600
    1AU     LIG  144   3.501   4.107   6.361  0.1631 -0.0153 -0.0439
    1AU     LIG  145   3.906   4.040   6.453 -0.2063  0.1175  0.0679
    1AU     LIG  146   4.160   3.904   6.269 -0.1856 -0.1173 -0.0907
    1AU    AUSL  147   2.451   3.300   6.155  0.0461  0.0676 -0.0655
    1AU    AUSL  148   2.107   3.296   6.448 -0.0233 -0.0192 -0.1092
    1AU     AUL  149   2.204   3.529   6.595  0.0278 -0.0447 -0.0218
    1AU       S  150   2.119   3.053   6.716 -0.1925  0.0398 -0.1250
    1AU     LIG  151   2.013   2.869   7.168 -0.0552 -0.3717  0.0399
    1AU     LIG  152   2.140   2.430   7.393 -0.0593 -0.1309 -0.0378
    1AU     LIG  153   2.554   2.201   7.362 -0.1448  0.0650 -0.3039
    1AU     LIG  154   2.693   2.087   6.995  0.1564  0.0832 -0.1465
    1AU       S  155   2.620   3.180   6.551 -0.0251 -0.1989 -0.1273
    1AU     LIG  156   2.812   2.826   6.712 -0.2289  0.2398 -0.3630
    1AU     LIG  157   3.013   2.402   6.652 -0.1256 -0.0085  0.1073
    1AU     LIG  158   3.460   2.311   6.556 -0.0314 -0.0392  0.0809
    1AU     LIG  159   3.833   2.114   6.561 -0.0963 -0.2647 -0.0055
    1AU    AUSL  160   1.384   3.754   5.320 -0.0218 -0.0606 -0.1027
    1AU    AUSL  161   1.485   3.282   5.340 -0.0407 -0.0210 -0.0063
    1AU     AUL  162   1.270   3.408   5.120 -0.1209  0.0909 -0.0079
    1AU       S  163   1.005   3.823   5.125 -0.0769  0.2532  0.0709
    1AU     LIG  164   0.804   4.025   5.566 -0.0528 -0.0170 -0.0692
    1AU     LIG  165   0.766   4.460   5.732  0.3023 -0.1432 -0.3698
    1AU     LIG  166   0.637   4.912   5.774 -0.0591 -0.3148 -0.0021
    1AU     LIG  167   0.454   5.080   6.144  0.0666  0.4186  0.1478
    1AU       S  168   0.996   3.309   5.525 -0.2262  0.0085 -0.2460
    1AU     LIG  169   0.539   3.299   5.680 -0.2040  0.1376 -0.2082
    1AU     LIG  170   0.211   3.405   6.039  0.0475 -0.0396  0.1937
    1AU     LIG  171  -0.001   3.709   6.144 -0.1916 -0.2798  0.1441
    1AU     LIG  172  -0.247   3.786   6.459  0.2290 -0.0515  0.0918
    1AU    AUSL  173   1.538   3.986   4.961 -0.0628  0.1024  0.1649
    1AU    AUSL  174   1.468   4.110   5.600 -0.0358 -0.0409 -0.0391
    1AU     AUL  175   1.343   4.072   5.218  0.0637 -0.0030 -0.0695
    1AU       S  176   1.305   4.357   5.573  0.1362 -0.1652  0.0490
    1AU     LIG  177   1.253   4.514   5.998 -0.0956 -0.3300  0.3039
    1AU     LIG  178   1.489   4.525   6.327 -0.1902  0.3282 -0.1784
    1AU     LIG  179   1.775   4.613   6.739  0.2602 -0.1159  0.1948
    1AU     LIG  180   1.979   4.366   7.009 -0.0339  0.0461 -0.0415
    1AU       S  181   1.275   3.947   4.774  0.1436  0.0236  0.0023
    1AU     LIG  182   0.955   4.326   4.971 -0.3983  0.1735  0.1826
    1AU     LIG  183   0.858   4.722   5.097 -0.0570 -0.1112  0.0592
    1AU     LIG  184   0.494   4.810   5.338 -0.1327 -0.0052 -0.1850
    1AU     LIG  185   0.219   5.057   5.531 -0.1578  0.1174  0.1558
    1AU    AUSL  186   2.944   3.677   4.936 -0.1353 -0.0228 -0.0165
    1AU    AUSL  187   2.523   3.631   4.799 -0.0043 -0.0188  0.0174
    1AU     AUL  188   2.837   3.729   4.606  0.0320  0.0028  0.0474
    1AU       S  189   2.727   4.144   4.584  0.1123 -0.4413  0.3543
    1AU     LIG  190   2.693   4.701   4.715  0.2892  0.2103  0.2234
    1AU     LIG  191   2.564   5.054   4.927  0.0928  0.3910  0.2526
    1AU     LIG  192   2.561   5.493   4.934  0.0739 -0.1560  0.0771
    1AU     LIG  193   2.210   5.804   4.865  0.0690  0.2962 -0.2330
    1AU       S  194   3.231   3.513   4.747  0.2248 -0.4310 -0.4840
    1AU     LIG  195   3.687   3.684   4.994  0.3169  0.1965  0.2054
    1AU     LIG  196   3.984   3.529   5.283 -0.0047 -0.2546 -0.0794
    1AU     LIG  197   4.451   3.505   5.368 -0.3649  0.0570  0.3570
    1AU     LIG  198   4.833   3.309   5.438  0.0199  0.1933  0.1508
    1AU    AUSL  199   2.783   3.279   4.763  0.0114 -0.0143  0.0556
    1AU    AUSL  200   2.867   2.914   5.046 -0.0570 -0.0176 -0.0457
    1AU     AUL  201   2.879   2.988   4.638 -0.0128  0.0585  0.0226
    1AU       S  202   3.229   3.290   4.812  0.1249 -0.0502 -0.1248
    1AU     LIG  203   3.357   2.886   4.847 -0.4031 -0.0072  0.0594
    1AU     LIG  204   3.403   2.539   5.094  0.1068 -0.0518  0.1059
    1AU     LIG  205   3.440   2.053   5.133  0.2190 -0.2931 -0.1793
    1AU     LIG  206   3.365   1.615   5.030  0.0176 -0.0201  0.0687
    1AU       S  207   2.863   2.508   4.843 -0.0079 -0.1588 -0.0705
    1AU     LIG  208   2.907   2.232   5.088  0.2989 -0.2034  0.3113
    1AU     LIG  209   2.837   1.834   5.347  0.0362  0.1133 -0.1230
    1AU     LIG  210   2.858   1.487   5.597 -0.0036  0.2070 -0.2265
    1AU     LIG  211   3.080   1.165   5.659  0.1381  0.0913  0.0900
    1AU    AUSL  212   2.864   3.310   5.199  0.0558 -0.0851  0.0356
    1AU    AUSL  213   2.902   3.747   5.358 -0.0111  0.0458  0.0397
    1AU     AUL  214   3.144   3.686   5.179 -0.0898 -0.0850 -0.0914
    1AU       S  215   3.489   3.751   5.483 -0.2232  0.0241  0.0747
    1AU     LIG  216   3.820   3.946   5.518 -0.1350  0.1757  0.2543
    1AU     LIG  217   4.296   3.953   5.661  0.0399 -0.2102 -0.1003
    1AU     LIG  218   4.652   3.973   5.644 -0.0738 -0.1005 -0.1638
    1AU     LIG  219   4.939   3.659   5.820  0.1652 -0.3098 -0.4207
    1AU       S  220   3.191   3.255   5.027  0.4119  0.0861  0.0102
    1AU     LIG  221   3.329   2.903   5.376 -0.1909  0.1004 -0.2750
    1AU     LIG  222   3.529   2.756   5.687 -0.1057  0.0244  0.4251
    1AU     LIG  223   3.797   2.480   6.043  0.0648 -0.2191  0.0563
    1AU     LIG  224   4.051   2.196   6.089  0.0930  0.1702 -0.0974
    1AU    AUSL  225   2.009   4.224   5.973 -0.0046 -0.0082  0.0365
    1AU    AUSL  226   2.249   3.932   6.242 -0.1296 -0.0100 -0.0116
    1AU     AUL  227   2.100   4.332   6.324 -0.0064 -0.0641 -0.0050
    1AU       S  228   2.384   4.029   6.529 -0.3359 -0.3035  0.3110
    1AU     LIG  229   2.167   3.879   6.891  0.0995 -0.1995 -0.2109
    1AU     LIG  230   2.300   3.417   7.144 -0.1320  0.2616  0.1432
    1AU     LIG  231   2.693   3.319   7.408 -0.0437 -0.0948 -0.2800
    1AU     LIG  232   2.755   2.884   7.508  0.0335  0.2774 -0.4051
    1AU       S  233   2.082   4.559   5.936  0.1371  0.3168 -0.2314
    1AU     LIG  234   2.313   4.879   5.953 -0.2295 -0.3508  0.0941
    1AU     LIG  235   2.548   5.234   6.151  0.0066 -0.2929  0.0967
    1AU     LIG  236   2.418   5.486   6.470  0.3119  0.4173 -0.1814
    1AU     LIG  237   2.219   5.511   6.921  0.0135 -0.1727 -0.0097
    1AU    AUSL  238   1.735   3.904   5.861  0.0968 -0.0002  0.0382
    1AU    AUSL  239   1.827   4.371   5.606 -0.0084  0.0223 -0.0575
    1AU     AUL  240   1.649   4.330   5.884 -0.0786 -0.0140  0.0748
    1AU       S  241   1.150   3.969   5.892  0.0883 -0.3947  0.2415
    1AU     LIG  242   0.759   4.128   6.102  0.2483 -0.2689 -0.2244
    1AU     LIG  243   0.329   4.147   6.061  0.0570 -0.0202 -0.3322
    1AU     LIG  244  -0.137   4.192   5.835  0.0075 -0.4068 -0.2286
    1AU     LIG  245  -0.374   4.325   5.504  0.0186  0.6171 -0.0654
    1AU       S  246   1.738   4.719   5.567  0.4486  0.2114 -0.5496
    1AU     LIG  247   1.620   4.877   5.943 -0.0281 -0.0114  0.3642
    1AU     LIG  248   1.288   4.962   6.191 -0.2759 -0.3938 -0.1812
    1AU     LIG  249   0.877   4.788   6.178  0.1127  0.1532 -0.0363
    1AU     LIG  250   0.503   4.572   6.333 -0.0168 -0.0093  0.1260
    1AU    AUSL  251   1.830   3.946   6.304 -0.0209 -0.0181  0.0111
    1AU    AUSL  252   1.463   3.687   6.108  0.0209 -0.0246  0.0732
    1AU     AUL  253   1.514   3.989   6.195  0.0216  0.0412  0.0073
    1AU       S  254   1.470   3.617   6.485 -0.0226  0.5362  0.1604
    1AU     LIG  255   1.026   3.793   6.460 -0.0926 -0.1030 -0.1121
    1AU     LIG  256   1.043   4.278   6.480 -0.0665 -0.0778 -0.1654
    1AU     LIG  257   1.115   4.777   6.608  0.1585  0.1043 -0.2488
    1AU     LIG  258   1.429   5.140   6.682 -0.3041 -0.0972  0.0463
    1AU       S  259   1.853   4.001   6.560  0.3045 -0.2585 -0.0752
    1AU     LIG  260   1.517   4.197   6.699  0.2374 -0.3043 -0.1260
    1AU     LIG  261   1.233   4.402   6.914  0.1109 -0.0806  0.2474
    1AU     LIG  262   1.126   4.487   7.312  0.5103  0.5183  0.3961
    1AU     LIG  263   0.770   4.695   7.514 -0.1863  0.0659  0.1034
    1AU    AUSL  264   2.473   2.702   5.105 -0.0364 -0.0402  0.0122
    1AU    AUSL  265   2.674   2.942   5.455 -0.0041 -0.0135  0.0007
    1AU     AUL  266   2.867   2.706   5.259 -0.1029 -0.0017 -0.0615
    1AU       S  267   2.474   2.489   4.945  0.5215  0.0465  0.0844
    1AU     LIG  268   2.440   2.090   4.970 -0.6223  0.2357 -0.0533
    1AU     LIG  269   2.357   1.755   5.360 -0.0156 -0.2607 -0.1747
    1AU     LIG  270   2.274   1.522   5.720  0.3549  0.0516  0.0411
    1AU     LIG  271   2.441   1.126   5.781  0.4413  0.2380  0.0030
    1AU       S  272   2.760   2.333   5.533  0.2488 -0.0491  0.3271
    1AU     LIG  273   3.221   2.317   5.542 -0.1143 -0.2729  0.1361
    1AU     LIG  274   3.599   2.231   5.612 -0.3843 -0.0756  0.2193
    1AU     LIG  275   3.964   2.039   5.645 -0.1629  0.1146  0.4769
    1AU     LIG  276   4.414   2.000   5.837 -0.1563  0.0008 -0.2135
    1AU    AUSL  277   2.452   3.120   4.963 -0.0229  0.0967 -0.0593
    1AU    AUSL  278   2.124   2.817   4.869 -0.0836  0.0349 -0.0315
    1AU     AUL  279   2.416   2.888   4.683  0.0148 -0.0196 -0.0247
    1AU       S  280   2.676   2.524   4.717  0.0952 -0.1022 -0.0639
    1AU     LIG  281   2.690   2.084   4.519  0.2665 -0.0445 -0.1923
    1AU     LIG  282   2.825   1.788   4.833  0.2762  0.3263  0.1806
    1AU     LIG  283   2.943   1.430   5.095 -0.2306  0.2026  0.3831
    1AU     LIG  284   3.356   1.201   5.248 -0.0585 -0.0494 -0.1558
    1AU       S  285   2.038   2.730   4.490  0.0271 -0.0291 -0.2537
    1AU     LIG  286   2.168   2.329   4.622  0.2530  0.0216 -0.2488
    1AU     LIG  287   2.266   1.815   4.602  0.0297  0.2162  0.0704
    1AU     LIG  288   2.227   1.465   4.943  0.2604  0.1172 -0.1852
    1AU     LIG  289   2.258   1.181   5.308  0.1438 -0.1370  0.2794
    1AU    AUSL  290   1.558   3.250   6.136 -0.0376 -0.0169  0.0320
    1AU    AUSL  291   1.462   3.558   5.691 -0.0675  0.0057  0.0127
    1AU     AUL  292   1.247   3.456   6.056 -0.0418  0.0453 -0.0422
    1AU       S  293   1.139   3.489   5.610 -0.0640 -0.0488 -0.2544
    1AU     LIG  294   0.797   3.634   5.924  0.0011 -0.0813 -0.1624
    1AU     LIG  295   0.553   3.684   6.269 -0.1419  0.1081 -0.0988
    1AU     LIG  296   0.405   3.562   6.625 -0.2777 -0.2744 -0.0883
    1AU     LIG  297   0.015   3.538   6.817  0.4804  0.1144 -0.1886
    1AU       S  298   1.369   3.310   6.492 -0.2626  0.0829  0.0825
    1AU     LIG  299   0.940   3.226   6.493  0.0712  0.0524  0.5601
    1AU     LIG  300   0.739   2.834   6.504  0.3671  0.2196  0.1987
    1AU     LIG  301   0.334   2.639   6.370 -0.1219  0.1088  0.0298
    1AU     LIG  302   0.044   2.891   6.189  0.1656  0.0848  0.2674
    1AU    AUSL  303   1.889   3.552   6.186 -0.0661  0.1052  0.0111
    1AU    AUSL  304   1.961   3.103   6.059 -0.0323  0.0274  0.1202
    1AU     AUL  305   1.789   3.174   6.367 -0.0585 -0.0254  0.0656
    1AU       S  306   2.013   2.905   6.645  0.1591  0.1102 -0.2398
    1AU     LIG  307   1.979   2.493   6.790 -0.0874  0.1239  0.2900
    1AU     LIG  308   1.772   2.053   6.583 -0.1383  0.0775  0.4222
    1AU     LIG  309   1.449   1.750   6.650  0.1814 -0.0076 -0.1412
    1AU     LIG  310   1.071   1.956   6.644  0.2238  0.3083  0.2354
    1AU       S  311   1.630   3.568   6.519 -0.0425 -0.1157 -0.0102
    1AU     LIG  312   1.595   3.785   6.937  0.0293 -0.1072 -0.0190
    1AU     LIG  313   1.147   3.949   6.911  0.2526  0.0632  0.1370
    1AU     LIG  314   0.786   4.109   6.835 -0.3253  0.3135  0.3703
    1AU     LIG  315   0.715   4.596   6.786  0.1621 -0.1391  0.1396
    1AU    AUSL  316   2.770   4.000   5.752  0.0389 -0.0041  0.0192
    1AU    AUSL  317   2.445   4.224   5.981  0.0035 -0.0250 -0.0631
    1AU     AUL  318   2.880   4.109   6.068  0.0408 -0.0149  0.0321
    1AU       S  319   2.564   4.434   6.173 -0.4593 -0.1922  0.1441
    1AU     LIG  320   2.714   4.766   6.396  0.0696  0.2477  0.1556
    1AU     LIG  321   2.594   5.030   6.634 -0.0460 -0.0013 -0.0666
    1AU     LIG  322   2.909   5.372   6.802 -0.0826 -0.0701  0.5887
    1AU     LIG  323   3.105   5.731   7.115  0.4630  0.2826  0.2605
    1AU       S  324   3.041   4.437   5.748  0.0673 -0.2582  0.0776
    1AU     LIG  325   3.165   4.661   6.102  0.2973 -0.0233 -0.3644
    1AU     LIG  326   3.536   4.738   6.416 -0.0268 -0.1177  0.0636
    1AU     LIG  327   3.894   4.640   6.442 -0.0792  0.0773 -0.1180
    1AU     LIG  328   4.314   4.392   6.610  0.0690 -0.4109 -0.0857
    1AU    AUSL  329   2.584   4.385   5.615 -0.1025 -0.0678  0.0491
    1AU    AUSL  330   2.485   4.333   5.169  0.0569  0.0296  0.0257
    1AU     AUL  331   2.646   4.606   5.241  0.0834  0.0486 -0.0286
    1AU       S  332   2.766   4.525   5.748 -0.5234 -0.1276  0.2956
    1AU     LIG  333   2.868   4.961   5.836 -0.0948  0.3198 -0.1086
    1AU     LIG  334   3.069   5.169   6.134  0.0435 -0.2168  0.2731
    1AU     LIG  335   3.090   5.020   6.492  0.0065  0.1666 -0.0431
    1AU     LIG  336   3.171   4.802   6.964 -0.3332  0.0059 -0.0297
    1AU       S  337   2.190   4.664   5.267  0.0291 -0.3310 -0.0767
    1AU     LIG  338   2.005   5.095   5.483 -0.2703 -0.2747 -0.0950
    1AU     LIG  339   1.787   5.527   5.562 -0.1134 -0.3001 -0.0237
    1AU     LIG  340   1.896   6.029   5.548  0.2145  0.2439  0.4822
    1AU     LIG  341   1.716   6.344   5.806  0.1015 -0.1009  0.2826
    1AU    AUSL  342   2.869   4.186   5.360 -0.0383  0.0448 -0.0136
    1AU    AUSL  343   3.126   3.760   5.785  0.0834  0.0515 -0.0192
    1AU     AUL  344   3.110   4.023   5.535  0.0551  0.0700  0.0458
    1AU       S  345   3.403   3.771   5.767 -0.0191  0.0043 -0.1905
    1AU     LIG  346   3.450   4.108   5.872  0.2030 -0.1546 -0.2413
    1AU     LIG  347   3.658   4.509   5.976  0.0113  0.0674 -0.1694
    1AU     LIG  348   3.508   4.974   6.019  0.5307 -0.1866  0.1057
    1AU     LIG  349   3.660   5.272   6.222  0.0159  0.1276 -0.1043
    1AU       S  350   3.049   4.501   5.498 -0.4077  0.0369 -0.1739
    1AU     LIG  351   2.997   4.966   5.298 -0.1201 -0.3119 -0.1853
    1AU     LIG  352   3.307   5.315   5.270 -0.2320  0.0138  0.0452
    1AU     LIG  353   3.376   5.757   5.397  0.1201  0.0956  0.3643
    1AU     LIG  354   3.435   6.107   5.553 -0.3692  0.1950 -0.1141
    1AU    AUSL  355   2.241   2.794   5.887 -0.1044  0.0193 -0.0959
    1AU    AUSL  356   2.385   2.600   5.502 -0.0273 -0.0084 -0.0727
    1AU     AUL  357   2.441   2.525   5.907  0.0427 -0.0652 -0.0309
    1AU       S  358   2.047   2.323   6.006  0.0620  0.4009  0.1042
    1AU     LIG  359   2.171   1.939   6.215 -0.0616 -0.2525  0.1605
    1AU     LIG  360   2.247   1.738   6.571 -0.0185  0.2844  0.1999
    1AU     LIG  361   1.970   1.562   6.574  0.0577  0.0568  0.2623
    1AU     LIG  362   1.656   1.283   6.518 -0.2060 -0.1454  0.1728
    1AU       S  363   2.532   2.321   5.436  0.0920  0.1847 -0.4160
    1AU     LIG  364   2.471   2.014   5.854 -0.1780  0.0806  0.4944
    1AU     LIG  365   2.561   1.686   6.151  0.1545  0.0171 -0.1834
    1AU     LIG  366   2.745   1.239   6.137  0.2831 -0.3093 -0.0106
    1AU     LIG  367   2.370   0.886   6.215 -0.0352  0.0623  0.1479
    1AU    AUSL  368   1.757   2.751   5.947  0.0033 -0.0178  0.0122
    1AU    AUSL  369   2.314   2.920   6.292  0.0976 -0.0258  0.0161
    1AU     AUL  370   1.986   2.764   6.194 -0.0775  0.0208  0.0246
    1AU       S  371   1.816   2.343   6.017  0.0029 -0.1716 -0.1855
    1AU     LIG  372   1.600   2.493   6.354 -0.3257  0.3179 -0.0795
    1AU     LIG  373   1.509   2.743   6.716 -0.1816 -0.2406  0.2656
    1AU     LIG  374   1.124   2.948   6.908  0.1667 -0.3938 -0.0848
    1AU     LIG  375   0.742   2.826   7.011  0.4219  0.4970 -0.1594
    1AU       S  376   2.295   2.823   6.560 -0.1197  0.0999 -0.3270
    1AU     LIG  377   2.508   2.447   6.501  0.2405  0.1410  0.0855
    1AU     LIG  378   2.710   2.047   6.406  0.0084  0.0523  0.1087
    1AU     LIG  379   2.975   1.884   6.418 -0.0210 -0.0465 -0.1321
    1AU     LIG  380   3.356   1.774   6.509  0.0124  0.0547  0.3607
    1AU    AUSL  381   1.973   2.564   5.623 -0.0358  0.0009  0.0510
    1AU    AUSL  382   1.717   2.936   5.566 -0.0251 -0.0205 -0.0987
    1AU     AUL  383   1.589   2.649   5.719  0.0505 -0.0353 -0.0098
    1AU       S  384   1.616   2.466   5.313  0.2685 -0.2252 -0.1701
    1AU     LIG  385   1.527   2.139   5.651 -0.0389 -0.0152 -0.0109
    1AU     LIG  386   1.259   1.734   5.644  0.0990 -0.2700  0.0364
    1AU     LIG  387   1.248   1.175   5.600 -0.1434  0.0399  0.2461
    1AU     LIG  388   1.170   0.894   5.889  0.0047 -0.2199 -0.0200
    1AU       S  389   1.981   2.363   5.728  0.0648 -0.2784 -0.0213
    1AU     LIG  390   1.900   1.878   5.775 -0.1728  0.1598 -0.2466
    1AU     LIG  391   1.689   1.624   6.082 -0.1849  0.1190  0.2387
    1AU     LIG  392   1.325   1.403   6.129 -0.0712 -0.0913 -0.0454
    1AU     LIG  393   0.921   1.726   6.178 -0.0690  0.0681 -0.4111
    1AU    AUSL  394   2.079   4.253   5.043  0.0275 -0.0810 -0.0858
    1AU    AUSL  395   2.644   3.981   5.001 -0.0523 -0.0045 -0.1117
    1AU     AUL  396   2.382   4.339   4.840  0.0110  0.0604 -0.0115
    1AU       S  397   2.149   4.693   5.096  0.1258  0.3180 -0.2177
    1AU     LIG  398   1.786   4.874   5.115 -0.1131 -0.0948 -0.0818
    1AU     LIG  399   1.483   5.146   5.435 -0.0721  0.4598  0.1437
    1AU     LIG  400   1.144   5.448   5.439  0.2328 -0.1741  0.0123
    1AU     LIG  401   0.854   5.776   5.507  0.1686 -0.3926 -0.1020
    1AU       S  402   2.831   4.190   4.832 -0.5106  0.2718  0.1150
    1AU     LIG  403   3.226   4.081   5.034 -0.3393  0.1089  0.1224
    1AU     LIG  404   3.487   4.218   5.304  0.1097  0.3073  0.3103
    1AU     LIG  405   3.825   4.505   5.502  0.3172 -0.0447 -0.1021
    1AU     LIG  406   3.895   4.912   5.709  0.0493 -0.3208  0.1467
    1AU    AUSL  407   2.201   4.230   5.491  0.0214  0.0745  0.0428
    1AU    AUSL  408   1.798   4.035   5.301 -0.0204 -0.0790 -0.0258
    1AU     AUL  409   1.806   4.381   5.225  0.1821 -0.0497 -0.0711
    1AU       S  410   2.208   4.607   5.446  0.0807 -0.1251  0.0153
    1AU     LIG  411   2.446   5.044   5.494 -0.1466  0.3384 -0.0958
    1AU     LIG  412   2.636   5.366   5.474  0.1453  0.0016  0.1256
    1AU     LIG  413   3.054   5.453   5.724 -0.0513  0.0682 -0.2196
    1AU     LIG  414   3.066   5.814   5.799 -0.1355  0.0181  0.2560
    1AU       S  415   1.426   4.564   5.414  0.1068 -0.2196  0.0163
    1AU     LIG  416   1.095   4.863   5.550  0.0428 -0.0088 -0.0020
    1AU     LIG  417   1.125   5.231   5.851  0.1600 -0.4400  0.0324
    1AU     LIG  418   1.034   5.612   5.931  0.1258 -0.0245 -0.2136
    1AU     LIG  419   1.071   6.086   6.053 -0.2405 -0.1411 -0.0083
    1AU    AUSL  420   1.584   2.918   5.134  0.0214 -0.0008 -0.0297
    1AU    AUSL  421   1.386   3.115   5.747  0.0755 -0.0106 -0.0257
    1AU     AUL  422   1.355   2.927   5.417  0.0600  0.0227 -0.0317
    1AU       S  423   1.095   3.235   5.683  0.1691 -0.1694 -0.2050
    1AU     LIG  424   0.916   3.086   6.001  0.2814 -0.1413  0.1256
    1AU     LIG  425   0.542   3.013   6.111  0.2465 -0.0611 -0.3438
    1AU     LIG  426   0.339   2.821   5.796  0.0066  0.1424 -0.0842
    1AU     LIG  427   0.259   2.799   5.478 -0.1483  0.1272 -0.2924
    1AU       S  428   1.510   2.546   5.243  0.1260  0.1512  0.4856
    1AU     LIG  429   1.433   2.014   5.127 -0.1417  0.1265  0.3375
    1AU     LIG  430   1.409   1.507   5.179 -0.1390  0.1427  0.2823
    1AU     LIG  431   1.170   1.090   5.115 -0.1749  0.0483  0.3576
    1AU     LIG  432   1.351   0.706   5.284 -0.1293 -0.0188 -0.1162
    1AU    AUSL  433   1.998   2.797   5.264 -0.0516 -0.0342 -0.0022
    1AU    AUSL  434   1.891   3.161   4.962 -0.0330  0.0579  0.0204
    1AU     AUL  435   1.783   2.799   4.906  0.0993  0.0099 -0.0544
    1AU       S  436   1.847   2.447   5.190  0.0426  0.0369 -0.1637
    1AU     LIG  437   1.997   2.139   5.329  0.1382 -0.2370  0.2087
    1AU     LIG  438   1.865   1.705   5.302  0.1743 -0.1533 -0.1281
    1AU     LIG  439   1.813   1.350   5.594 -0.2610 -0.1699 -0.4075
    1AU     LIG  440   1.656   1.071   5.895 -0.0823  0.0658  0.0104
    1AU       S  441   1.787   2.973   4.470 -0.1431 -0.2561 -0.1917
    1AU     LIG  442   1.677   2.467   4.561  0.4616  0.0129 -0.0012
    1AU     LIG  443   1.350   2.155   4.632 -0.3751  0.0651  0.0747
    1AU     LIG  444   1.207   1.723   4.768 -0.0156 -0.0069  0.0067
    1AU     LIG  445   0.832   1.481   4.942 -0.3271 -0.0731  0.2904
    2POPC   NC3  446   8.213   9.025   7.468  0.3123 -0.2418 -0.1111
    2POPC   PO4  447   8.604   9.275   7.557  0.0794 -0.2229  0.1729
    2POPC   GL1  448   8.643   9.281   7.141 -0.0493  0.0525  0.1651
    2POPC   GL2  449   8.971   9.276   7.157 -0.0341  0.0491 -0.0818
    2POPC   C1A  450   8.475   9.242   6.809  0.0122  0.0942 -0.2359
    2POPC   D2A  451   8.000   9.268   6.637 -0.0808 -0.2382  0.0465
    2POPC   C3A  452   7.883   9.291   6.172 -0.1439  0.2056 -0.1477
    2POPC   C4A  453   7.959   9.565   5.792 -0.0872 -0.1271 -0.0009
    2POPC   C1B  454   9.049   9.272   6.824 -0.0745  0.1598  0.0638
    2POPC   C2B  455   8.868   9.314   6.377  0.1107  0.0272  0.2473
    2POPC   C3B  456   8.861   9.361   6.026 -0.2945 -0.3113  0.1293
    2POPC   C4B  457   8.723   9.423   5.613  0.2813  0.0412  0.0395
    3POPC   NC3  458   6.536   2.259   8.146 -0.0733  0.0038  0.1402
    3POPC   PO4  459   6.085   2.469   8.202  0.1188 -0.0302 -0.1182
    3POPC   GL1  460   5.867   2.447   7.756  0.1142  0.0689 -0.1761
    3POPC   GL2  461   5.919   2.691   7.505 -0.1269 -0.1439  0.0516
    3POPC   C1A  462   5.655   2.213   7.466 -0.0556  0.2744  0.1648
    3POPC   D2A  463   5.920   2.027   7.214  0.0957 -0.0107  0.1089
    3POPC   C3A  464   6.265   1.945   6.926  0.0764 -0.0195  0.2470
    3POPC   C4A  465   6.475   2.079   6.553 -0.3371 -0.0133  0.1146
    3POPC   C1B  466   6.342   2.616   7.344 -0.1598 -0.1680 -0.1174
    3POPC   C2B  467   6.400   2.400   7.048 -0.2085 -0.1548 -0.0812
    3POPC   C3B  468   6.544   2.625   6.676  0.2367  0.2763  0.0357
    3POPC   C4B  469   6.528   2.885   6.185 -0.3329  0.0948  0.3309
    4POPC   NC3  470   9.649   5.711   7.648  0.1755  0.6515 -0.0803
    4POPC   PO4  471   9.761   6.074   7.958 -0.0809  0.0192  0.3132
    4POPC   GL1  472   9.955   6.090   7.540 -0.1525  0.1451  0.1323
    4POPC   GL2  473   9.662   6.115   7.363  0.4685 -0.0924 -0.0146
    4POPC   C1A  474  10.111   6.123   7.101 -0.0644  0.2134 -0.1160
    4POPC   D2A  475  10.113   5.830   6.820  0.1856  0.2961 -0.1565
    4POPC   C3A  476  10.017   5.838   6.420 -0.3202  0.0117 -0.1541
    4POPC   C4A  477   9.884   5.724   5.989 -0.0003 -0.1334 -0.1850
    4POPC   C1B  478   9.657   6.159   6.889 -0.1676  0.1112 -0.2024
    4POPC   C2B  479   9.559   6.119   6.479 -0.0831  0.1631  0.0027
    4POPC   C3B  480   9.347   6.037   6.161  0.0003 -0.0544  0.2876
    4POPC   C4B  481   9.464   5.972   5.730 -0.2177 -0.1460  0.1262
    5POPC   NC3  482   9.326   0.670   7.583 -0.0993 -0.1779  0.1458
    5POPC   PO4  483   9.048   0.929   7.738 -0.1150 -0.0873  0.4614
    5POPC   GL1  484   8.921   0.792   7.274  0.2083 -0.0240  0.0549
    5POPC   GL2  485   9.091   0.682   7.131 -0.1376  0.0338 -0.0556
    5POPC   C1A  486   8.614   0.849   6.990 -0.0486  0.1814  0.1171
    5POPC   D2A  487   8.488   1.193   6.746 -0.1815 -0.2438  0.2168
    5POPC   C3A  488   8.631   1.512   6.498 -0.1817  0.1539  0.0339
    5POPC   C4A  489   8.607   1.888   6.481  0.1048  0.0771  0.3329
    5POPC   C1B  490   8.841   0.469   6.824 -0.2545  0.2618  0.1265
    5POPC   C2B  491   8.772   0.334   6.456 -0.1283  0.0413 -0.1086
    5POPC   C3B  492   8.912   0.122   6.208 -0.1726  0.4484 -0.0736
    5POPC   C4B  493   9.205   0.231   5.918 -0.1086 -0.0395 -0.1197
    6POPC   NC3  494   8.347   6.617   7.843  0.2670 -0.0513 -0.1566
    6POPC   PO4  495   8.678   6.744   7.636  0.1160  0.4319  0.0562
    6POPC   GL1  496   8.788   7.074   7.319 -0.3126  0.0743 -0.2082
    6POPC   GL2  497   9.104   6.922   7.174 -0.1847  0.1230 -0.2533
    6POPC   C1A  498   8.731   7.112   6.802  0.0757  0.1838  0.0397
    6POPC   D2A  499   8.741   6.941   6.404  0.1363  0.3563  0.0924
    6POPC   C3A  500   8.358   6.938   6.111 -0.2882  0.1766 -0.0450
    6POPC   C4A  501   8.045   6.750   5.885  0.3082 -0.1033 -0.1327
    6POPC   C1B  502   9.128   6.804   6.766  0.0509  0.1139  0.1704
    6POPC   C2B  503   9.164   6.692   6.315 -0.0536 -0.1193  0.1813
    6POPC   C3B  504   9.030   6.479   5.984  0.1321 -0.0937 -0.0025
    6POPC   C4B  505   9.030   6.200   5.754 -0.0823  0.0901  0.0280
    7POPC   NC3  506  10.125   4.059   8.793  0.0304 -0.0665  0.0032
    7POPC   PO4  507  10.139   4.284   8.490  0.2224 -0.1005  0.1531
    7POPC   GL1  508  10.026   4.073   8.105  0.0595 -0.1321 -0.1129
    7POPC   GL2  509  10.159   4.176   7.931 -0.1632 -0.1096  0.0502
    7POPC   C1A  510   9.982   3.835   7.609 -0.1245  0.3770 -0.1643
    7POPC   D2A  511   9.863   3.543   7.253  0.1584 -0.1927 -0.0747
    7POPC   C3A  512  10.046   3.169   7.075 -0.3935  0.0660 -0.1525
    7POPC   C4A  513  10.091   2.761   7.067 -0.2241 -0.2365 -0.0477
    7POPC   C1B  514  10.448   3.835   7.713 -0.0989  0.1270  0.0347
    7POPC   C2B  515  10.472   3.670   7.248 -0.3026 -0.1429 -0.3154
    7POPC   C3B  516  10.560   3.195   7.106 -0.0980 -0.0201 -0.1146
    7POPC   C4B  517  10.494   2.979   6.732  0.0021 -0.3515 -0.1970
    8POPC   NC3  518   5.270   3.898   7.928 -0.3327  0.1731 -0.1312
    8POPC   PO4  519   5.635   3.971   7.733  0.1059 -0.0163  0.2612
    8POPC   GL1  520   5.454   3.625   7.524  0.0009 -0.2552 -0.0691
    8POPC   GL2  521   5.658   3.256   7.450 -0.2063 -0.2306 -0.3409
    8POPC   C1A  522   5.296   3.423   7.161  0.1777  0.0716 -0.0369
    8POPC   D2A  523   5.262   3.048   6.916 -0.0818 -0.1844  0.3211
    8POPC   C3A  524   4.982   2.646   6.887  0.1156  0.1975  0.3661
    8POPC   C4A  525   4.590   2.689   6.825 -0.3138  0.3217  0.0971
    8POPC   C1B  526   5.719   2.965   7.073 -0.2975 -0.0717  0.2059
    8POPC   C2B  527   5.904   2.622   7.017  0.0507  0.0256  0.1415
    8POPC   C3B  528   6.034   2.463   6.663 -0.0416  0.0918 -0.1884
    8POPC   C4B  529   6.124   2.263   6.240 -0.3057 -0.1443 -0.0664
    9POPC   NC3  530   0.305   1.393   8.923 -0.1743  0.1324 -0.2553
    9POPC   PO4  531   0.463   1.188   8.502  0.4064 -0.4103 -0.1220
    9POPC   GL1  532   0.481   1.119   8.007 -0.0025 -0.2260  0.2214
    9POPC   GL2  533   0.627   1.320   7.715  0.0260 -0.0839  0.0793
    9POPC   C1A  534   0.330   0.977   7.636 -0.1739  0.1539  0.1750
    9POPC   D2A  535   0.410   0.971   7.210 -0.1976  0.0655  0.1113
    9POPC   C3A  536   0.065   1.134   6.932  0.3078 -0.2422  0.2667
    9POPC   C4A  537  -0.249   0.883   6.897 -0.2330 -0.2593  0.1496
    9POPC   C1B  538   0.670   1.394   7.220  0.1051  0.2322  0.0568
    9POPC   C2B  539   0.627   1.264   6.871 -0.1823 -0.0145  0.0765
    9POPC   C3B  540   0.423   1.053   6.485 -0.1493  0.2852 -0.0293
    9POPC   C4B  541   0.544   0.947   5.988 -0.2529 -0.5766  0.0000
   10POPC   NC3  542   1.759   0.853   8.269 -0.0208 -0.0109  0.0335
   10POPC   PO4  543   1.395   1.121   8.294 -0.3159  0.0824 -0.2056
   10POPC   GL1  544   1.325   1.333   7.991 -0.2316 -0.1595  0.3338
   10POPC   GL2  545   1.066   1.521   7.976  0.0424  0.1636  0.0631
   10POPC   C1A  546   1.382   1.461   7.557  0.2162  0.0828  0.1999
   10POPC   D2A  547   1.469   1.811   7.408 -0.1968 -0.2491  0.2879
   10POPC   C3A  548   1.691   1.968   7.148  0.2834  0.0354 -0.0898
   10POPC   C4A  549   2.123   2.044   6.985  0.0897 -0.3010 -0.2059
   10POPC   C1B  550   1.277   1.863   7.879  0.1079  0.1442 -0.2362
   10POPC   C2B  551   1.528   2.169   7.866  0.3201  0.0363  0.1730
   10POPC   C3B  552   1.857   2.335   7.875 -0.1394  0.3484 -0.2660
   10POPC   C4B  553   2.260   2.572   7.878 -0.2564 -0.3001  0.1683
   11POPC   NC3  554   3.206   7.886   7.950 -0.0500 -0.0295  0.0280
   11POPC   PO4  555   3.496   8.152   7.522 -0.0515 -0.0840  0.1473
   11POPC   GL1  556   3.372   7.914   7.111 -0.2249 -0.0519 -0.4569
   11POPC   GL2  557   3.465   7.679   7.007  0.1104  0.0598  0.0377
   11POPC   C1A  558   3.139   8.033   6.733  0.0562  0.0567 -0.0944
   11POPC   D2A  559   3.100   7.773   6.360  0.1290  0.0702 -0.1462
   11POPC   C3A  560   3.021   8.044   5.989  0.0346 -0.0029 -0.3879
   11POPC   C4A  561   2.984   8.354   5.686  0.0001  0.1262 -0.1807
   11POPC   C1B  562   3.370   7.301   6.636  0.0190  0.0821 -0.0298
   11POPC   C2B  563   3.465   6.988   6.337 -0.0067  0.1679 -0.0723
   11POPC   C3B  564   3.490   6.924   5.951  0.0759 -0.1963  0.0897
   11POPC   C4B  565   3.309   6.536   5.795 -0.1105  0.0665  0.0195
   12POPC   NC3  566   4.508   7.440   7.733  0.0795 -0.0712  0.0847
   12POPC   PO4  567   4.267   6.994   7.659  0.1904  0.1194 -0.2967
   12POPC   GL1  568   4.288   7.163   7.283 -0.2199  0.0429 -0.0647
   12POPC   GL2  569   4.113   6.990   7.100  0.2119  0.4191 -0.1250
   12POPC   C1A  570   4.506   7.378   6.991  0.1714  0.1860  0.4739
   12POPC   D2A  571   4.518   7.829   6.922 -0.0228 -0.1548 -0.0625
   12POPC   C3A  572   4.352   8.054   6.637  0.0214  0.0277  0.4386
   12POPC   C4A  573   3.997   8.203   6.421  0.1297 -0.2555  0.0469
   12POPC   C1B  574   3.853   6.762   6.731 -0.1193  0.1603 -0.0829
   12POPC   C2B  575   3.883   6.539   6.364 -0.1247  0.2469 -0.0688
   12POPC   C3B  576   3.931   6.240   6.059 -0.6381 -0.2057 -0.2015
   12POPC   C4B  577   4.273   5.970   5.874  0.1153 -0.0865 -0.1663
   13POPC   NC3  578  10.109   4.799   8.626  0.0258 -0.3057  0.2102
   13POPC   PO4  579   9.994   5.009   8.284 -0.1383 -0.0987 -0.1010
   13POPC   GL1  580  10.020   4.909   7.837 -0.2868  0.1846  0.3137
   13POPC   GL2  581  10.439   4.967   7.844 -0.0210 -0.0399  0.1502
   13POPC   C1A  582  10.004   5.181   7.517 -0.1304 -0.1190 -0.0649
   13POPC   D2A  583   9.984   5.534   7.238  0.1827 -0.0728 -0.2195
   13POPC   C3A  584   9.895   5.357   6.930 -0.0384  0.0049  0.1537
   13POPC   C4A  585   9.879   5.313   6.485 -0.0348 -0.1196 -0.1640
   13POPC   C1B  586  10.317   4.547   7.542 -0.1733  0.0782  0.1092
   13POPC   C2B  587  10.161   4.214   7.276 -0.1032 -0.1476  0.2188
   13POPC   C3B  588  10.162   4.022   6.835  0.1876 -0.2348  0.0710
   13POPC   C4B  589  10.390   3.975   6.525 -0.1385  0.0210  0.0025
   14POPC   NC3  590   8.994   8.749   8.041  0.3007  0.2217  0.3454
   14POPC   PO4  591   9.067   8.499   7.683 -0.0514  0.1764  0.1302
   14POPC   GL1  592   9.002   8.698   7.333  0.0025  0.1048  0.0244
   14POPC   GL2  593   9.254   8.858   7.133 -0.0748 -0.0497  0.0981
   14POPC   C1A  594   8.808   8.805   6.956 -0.0763 -0.0152 -0.0883
   14POPC   D2A  595   8.704   8.837   6.488 -0.1607 -0.0526 -0.0385
   14POPC   C3A  596   9.049   8.759   6.199  0.0611 -0.0259  0.1426
   14POPC   C4A  597   9.323   8.468   5.858  0.1601  0.0290  0.3911
   14POPC   C1B  598   9.258   8.809   6.633  0.0881 -0.0986 -0.0427
   14POPC   C2B  599   9.441   8.386   6.329 -0.3055 -0.1904  0.3343
   14POPC   C3B  600   9.290   8.042   6.405 -0.0491  0.1395 -0.0953
   14POPC   C4B  601   9.391   7.651   6.476 -0.0385  0.0518 -0.2342
   15POPC   NC3  602   4.194   1.346   7.882 -0.0205  0.1115  0.0479
   15POPC   PO4  603   4.118   1.673   8.025 -0.1414 -0.0791 -0.1715
   15POPC   GL1  604   3.829   1.561   7.586  0.0092 -0.1161  0.3034
   15POPC   GL2  605   3.811   1.372   7.270  0.0530 -0.2750  0.3349
   15POPC   C1A  606   3.443   1.782   7.446 -0.0862 -0.1438  0.0163
   15POPC   D2A  607   3.030   2.004   7.409  0.0224  0.0467  0.2525
   15POPC   C3A  608   2.850   2.512   7.191  0.3358 -0.1286 -0.0481
   15POPC   C4A  609   2.488   2.538   6.982  0.2340 -0.2272 -0.0507
   15POPC   C1B  610   4.126   1.323   6.945  0.1319 -0.2799 -0.1973
   15POPC   C2B  611   4.571   1.252   6.713 -0.1982  0.0304  0.2432
   15POPC   C3B  612   4.677   0.995   6.377 -0.1263  0.1149 -0.1986
   15POPC   C4B  613   5.090   0.708   6.380  0.2018  0.2258  0.3272
   16POPC   NC3  614   6.354   2.832   8.327  0.1980 -0.0147  0.2775
   16POPC   PO4  615   6.433   3.143   7.987 -0.0954 -0.0646  0.3416
   16POPC   GL1  616   6.213   3.234   7.622 -0.0218 -0.5795  0.0053
   16POPC   GL2  617   6.576   3.093   7.501  0.0380  0.0633  0.1512
   16POPC   C1A  618   6.182   3.214   7.210  0.0937 -0.0070  0.0369
   16POPC   D2A  619   6.139   3.028   6.836 -0.1074  0.1590  0.2452
   16POPC   C3A  620   5.631   2.850   6.617  0.1094  0.0379 -0.0621
   16POPC   C4A  621   5.523   2.426   6.383  0.0004  0.1303  0.0816
   16POPC   C1B  622   6.588   2.989   7.068 -0.1074  0.1025  0.0237
   16POPC   C2B  623   6.625   3.157   6.588  0.1029 -0.2867 -0.0617
   16POPC   C3B  624   6.627   3.463   6.346  0.1017  0.0367  0.1875
   16POPC   C4B  625   6.732   3.412   5.936 -0.0663 -0.0303 -0.3874
   17POPC   NC3  626   0.266   9.380   7.594  0.2648  0.1173 -0.1631
   17POPC   PO4  627   0.675   9.402   7.349 -0.2725  0.2944  0.1152
   17POPC   GL1  628   0.888   9.352   7.013 -0.1531 -0.1267  0.1809
   17POPC   GL2  629   0.666   9.238   6.858 -0.1037 -0.1592 -0.0523
   17POPC   C1A  630   0.916   9.475   6.564 -0.0463  0.1513  0.2647
   17POPC   D2A  631   1.060   9.350   6.150 -0.1357 -0.1608 -0.0746
   17POPC   C3A  632   0.724   9.332   5.911 -0.0757 -0.0214 -0.1815
   17POPC   C4A  633   0.634   9.444   5.532 -0.0270  0.0258  0.0354
   17POPC   C1B  634   0.439   9.234   6.576 -0.1834  0.1759 -0.0670
   17POPC   C2B  635   0.335   9.245   6.174 -0.0216  0.0388  0.2743
   17POPC   C3B  636   0.034   9.561   5.890 -0.1170  0.0980 -0.0599
   17POPC   C4B  637  -0.421   9.509   5.715 -0.2521  0.1459 -0.2661
   18POPC   NC3  638   2.996   6.739   7.739 -0.1378 -0.3076 -0.1606
   18POPC   PO4  639   2.886   6.414   7.649 -0.1719  0.6163  0.1965
   18POPC   GL1  640   3.180   6.191   7.411 -0.1607 -0.2917 -0.3174
   18POPC   GL2  641   3.486   6.228   7.502 -0.3142 -0.1575 -0.0295
   18POPC   C1A  642   3.436   6.041   7.037 -0.1999  0.1197 -0.1371
   18POPC   D2A  643   3.789   6.225   6.838 -0.0515  0.2172  0.0697
   18POPC   C3A  644   4.126   6.044   6.506  0.0967  0.0042 -0.0154
   18POPC   C4A  645   4.477   5.735   6.252 -0.0829 -0.0391 -0.2223
   18POPC   C1B  646   3.462   5.804   7.517 -0.1555  0.1682  0.0415
   18POPC   C2B  647   3.172   5.684   7.635  0.2307 -0.2151 -0.1575
   18POPC   C3B  648   2.815   5.409   7.482 -0.1466  0.0549  0.0885
   18POPC   C4B  649   2.541   5.202   7.091 -0.1046  0.1376  0.0516
   19POPC   NC3  650   5.544   0.308   7.369 -0.2615  0.0876 -0.1657
   19POPC   PO4  651   5.098   0.496   7.554  0.0287  0.2189 -0.1867
   19POPC   GL1  652   4.846   0.686   7.173 -0.1554 -0.1702 -0.0206
   19POPC   GL2  653   4.975   0.975   7.056  0.1147  0.2948  0.1391
   19POPC   C1A  654   4.746   0.609   6.736  0.3723 -0.3456  0.0649
   19POPC   D2A  655   4.666   0.539   6.189 -0.0422  0.0747 -0.2381
   19POPC   C3A  656   4.623   0.853   5.906  0.3470  0.0342  0.0934
   19POPC   C4A  657   4.296   1.019   5.714 -0.0481  0.1465  0.0713
   19POPC   C1B  658   5.101   1.386   7.002  0.4190  0.1612 -0.0223
   19POPC   C2B  659   5.006   1.578   6.738 -0.1036  0.1933  0.1158
   19POPC   C3B  660   4.800   1.784   6.545 -0.0235 -0.1818 -0.1829
   19POPC   C4B  661   4.702   1.717   6.219 -0.3420 -0.0744  0.0415
   20POPC   NC3  662   1.123   9.612   7.380  0.0892 -0.2011 -0.0550
   20POPC   PO4  663   1.199   9.265   7.454  0.1047 -0.1404  0.0610
   20POPC   GL1  664   1.412   9.266   7.041 -0.0360 -0.1414 -0.1237
   20POPC   GL2  665   1.546   9.533   7.010  0.2670  0.0432 -0.0379
   20POPC   C1A  666   1.347   9.156   6.604 -0.0797  0.1628 -0.0020
   20POPC   D2A  667   1.488   8.958   6.245  0.2133 -0.2011  0.1318
   20POPC   C3A  668   1.199   8.847   6.000  0.1268  0.0581 -0.3707
   20POPC   C4A  669   0.836   8.628   5.837 -0.0207 -0.2780  0.0225
   20POPC   C1B  670   1.325   9.720   6.661  0.2523 -0.2567  0.1980
   20POPC   C2B  671   1.269   9.838   6.147 -0.0675 -0.0871 -0.0119
   20POPC   C3B  672   1.016  10.151   5.879 -0.2794  0.0497 -0.1275
   20POPC   C4B  673   0.864  10.177   5.506  0.3259 -0.0235  0.0697
   21POPC   NC3  674   3.416   0.740   8.143  0.0025 -0.0504 -0.1083
   21POPC   PO4  675   3.225   0.962   8.053  0.1358 -0.0555 -0.3026
   21POPC   GL1  676   3.356   1.029   7.656  0.1831 -0.0041 -0.0359
   21POPC   GL2  677   3.664   1.081   7.598  0.2396  0.1955 -0.0957
   21POPC   C1A  678   3.326   1.278   7.396  0.0269  0.1463  0.2055
   21POPC   D2A  679   2.958   1.470   7.194  0.3158 -0.1404  0.0007
   21POPC   C3A  680   2.700   1.515   6.833  0.1740  0.0459 -0.1254
   21POPC   C4A  681   3.019   1.428   6.583  0.0040  0.0862  0.1691
   21POPC   C1B  682   3.658   0.824   7.161 -0.0010  0.2918 -0.0440
   21POPC   C2B  683   3.880   0.794   6.810  0.1826 -0.3305 -0.0057
   21POPC   C3B  684   4.159   0.699   6.429 -0.1987  0.1146 -0.3758
   21POPC   C4B  685   3.969   0.735   5.999 -0.1216 -0.2709 -0.1302
   22POPC   NC3  686   6.311  10.154   7.734  0.4079 -0.2220 -0.2231
   22POPC   PO4  687   6.680  10.033   7.525 -0.1318  0.1131  0.0778
   22POPC   GL1  688   6.782  10.146   7.115 -0.0747  0.3519 -0.0466
   22POPC   GL2  689   7.017   9.900   6.910  0.2004 -0.2386  0.3308
   22POPC   C1A  690   6.791  10.314   6.732  0.2494 -0.0378 -0.1106
   22POPC   D2A  691   6.452  10.066   6.403 -0.1781 -0.1913  0.1829
   22POPC   C3A  692   6.080  10.302   6.330  0.1685  0.2579 -0.0667
   22POPC   C4A  693   5.828  10.244   5.996 -0.1838 -0.0409  0.0028
   22POPC   C1B  694   6.972   9.932   6.448 -0.2960 -0.0213 -0.2151
   22POPC   C2B  695   6.905  10.430   6.253  0.1226  0.1007  0.0842
   22POPC   C3B  696   6.546  10.518   5.944 -0.0361  0.3583  0.0453
   22POPC   C4B  697   6.349  10.270   5.648  0.2742  0.0734 -0.0792
   23POPC   NC3  698   9.331  10.001   7.847  0.0196  0.0598  0.1883
   23POPC   PO4  699   9.289   9.512   7.877 -0.1766  0.0775 -0.1848
   23POPC   GL1  700   9.511   9.601   7.494 -0.2567  0.2963  0.2235
   23POPC   GL2  701   9.433   9.286   7.310 -0.2081  0.1435 -0.3422
   23POPC   C1A  702   9.275   9.677   7.003  0.1167  0.3737 -0.0786
   23POPC   D2A  703   9.326   9.691   6.557 -0.1076 -0.0068 -0.0931
   23POPC   C3A  704   9.396  10.168   6.350 -0.1204  0.0632  0.2521
   23POPC   C4A  705   9.657  10.442   6.097  0.0164  0.1704 -0.2378
   23POPC   C1B  706   9.513   9.250   6.911  0.1728 -0.3925 -0.0237
   23POPC   C2B  707   9.530   9.256   6.392  0.2025 -0.1486 -0.2145
   23POPC   C3B  708   9.440   9.056   6.008 -0.0487 -0.0754 -0.1778
   23POPC   C4B  709   9.798   8.748   5.635 -0.0324  0.0732 -0.1242
   24POPC   NC3  710   7.631   6.344   7.163  0.2030  0.3292  0.0590
   24POPC   PO4  711   8.029   6.379   7.324  0.0272  0.0058  0.3111
   24POPC   GL1  712   8.295   6.578   7.061 -0.0011  0.1146 -0.0269
   24POPC   GL2  713   8.671   6.591   7.014  0.1122  0.1127 -0.3052
   24POPC   C1A  714   8.359   6.637   6.634 -0.0874  0.3144 -0.0041
   24POPC   D2A  715   8.530   6.481   6.350 -0.0293 -0.4156  0.2161
   24POPC   C3A  716   8.511   6.489   5.829  0.0553 -0.2084  0.0267
   24POPC   C4A  717   8.513   6.855   5.603  0.2271  0.0735 -0.1667
   24POPC   C1B  718   8.515   6.199   6.744  0.0380  0.1770  0.0709
   24POPC   C2B  719   8.373   6.010   6.402  0.1932 -0.1964  0.1770
   24POPC   C3B  720   8.133   5.658   6.147  0.4765  0.1035  0.0247
   24POPC   C4B  721   8.129   5.612   5.857 -0.0629  0.3395  0.0410
   25POPC   NC3  722   4.243   4.749   7.882  0.5220  0.3821 -0.1825
   25POPC   PO4  723   4.622   4.613   7.612 -0.1116 -0.2113 -0.0632
   25POPC   GL1  724   4.908   4.583   7.265 -0.2903 -0.1866  0.2174
   25POPC   GL2  725   5.136   4.813   7.189  0.2280  0.1525 -0.0493
   25POPC   C1A  726   5.225   4.387   6.941 -0.5128  0.2253 -0.0533
   25POPC   D2A  727   5.583   4.031   6.988  0.0994  0.0378  0.2114
   25POPC   C3A  728   6.005   4.056   6.795 -0.2189 -0.0615 -0.0443
   25POPC   C4A  729   6.121   4.214   6.399  0.3118 -0.0315 -0.1491
   25POPC   C1B  730   5.303   4.982   6.722 -0.1325  0.1399 -0.1086
   25POPC   C2B  731   5.658   5.086   6.395  0.1233 -0.0687  0.0266
   25POPC   C3B  732   5.736   5.027   5.947 -0.2158  0.0177 -0.2626
   25POPC   C4B  733   6.213   5.100   5.802  0.0682 -0.1308  0.2265
   26POPC   NC3  734   2.910  10.017   7.821 -0.1054 -0.1601 -0.0065
   26POPC   PO4  735   3.260  10.244   7.704 -0.0136 -0.0114 -0.0617
   26POPC   GL1  736   3.188   9.831   7.385 -0.1494 -0.4016  0.0692
   26POPC   GL2  737   2.983  10.015   7.199 -0.0688  0.1223  0.1728
   26POPC   C1A  738   2.976   9.538   7.061  0.1618 -0.0869 -0.0671
   26POPC   D2A  739   2.764   9.107   7.204 -0.1088  0.1033  0.0460
   26POPC   C3A  740   2.733   8.748   6.983  0.0343 -0.1018 -0.6561
   26POPC   C4A  741   2.373   8.621   6.804  0.3167 -0.0799  0.0389
   26POPC   C1B  742   3.215  10.148   6.879  0.0693  0.0501  0.3038
   26POPC   C2B  743   3.352  10.342   6.532 -0.1121 -0.0077  0.1255
   26POPC   C3B  744   3.124  10.685   6.269 -0.5667  0.1222 -0.4255
   26POPC   C4B  745   2.824  10.966   5.978 -0.0759  0.2342  0.1882
   27POPC   NC3  746   4.636   8.116   7.281 -0.0539  0.0117  0.1356
   27POPC   PO4  747   4.227   8.069   7.522 -0.1080 -0.2988  0.1788
   27POPC   GL1  748   4.110   8.154   7.016  0.1650  0.0154 -0.2593
   27POPC   GL2  749   4.101   8.399   6.893  0.0324 -0.2643  0.1905
   27POPC   C1A  750   3.999   7.797   6.864 -0.0088 -0.1323  0.3166
   27POPC   D2A  751   4.220   7.556   6.613 -0.1641  0.0273 -0.2968
   27POPC   C3A  752   4.604   7.503   6.488 -0.0017  0.2367  0.2807
   27POPC   C4A  753   4.913   7.629   6.673  0.1285 -0.1792 -0.0193
   27POPC   C1B  754   4.291   8.627   6.537 -0.4931  0.0014  0.0570
   27POPC   C2B  755   4.314   8.309   6.100  0.0162  0.3116 -0.3798
   27POPC   C3B  756   4.479   8.374   5.716 -0.0448 -0.2355 -0.0392
   27POPC   C4B  757   4.735   8.625   5.428 -0.3515 -0.0774 -0.0158
   28POPC   NC3  758   5.249   5.733   8.005  0.0289  0.1331 -0.0705
   28POPC   PO4  759   5.132   6.012   7.691  0.0420 -0.2793  0.1709
   28POPC   GL1  760   5.104   5.925   7.253 -0.0791  0.0205  0.3112
   28POPC   GL2  761   5.287   6.172   7.143  0.1751 -0.1145 -0.0209
   28POPC   C1A  762   4.818   5.918   6.882 -0.1665 -0.2791 -0.0222
   28POPC   D2A  763   4.668   6.204   6.487  0.3047 -0.1411 -0.0405
   28POPC   C3A  764   4.736   6.107   6.059  0.1741  0.0871  0.0684
   28POPC   C4A  765   4.670   6.145   5.610  0.1855 -0.1114  0.0679
   28POPC   C1B  766   4.967   6.436   6.944  0.1342  0.1001 -0.1084
   28POPC   C2B  767   4.874   6.630   6.611  0.0204 -0.1262 -0.0649
   28POPC   C3B  768   4.993   6.618   6.186  0.2194  0.0825  0.0380
   28POPC   C4B  769   4.813   6.708   5.760 -0.2169  0.1832 -0.0961
   29POPC   NC3  770   1.634  10.048   8.223 -0.3057 -0.2925  0.0429
   29POPC   PO4  771   1.481   9.899   7.860 -0.0561 -0.0186 -0.4709
   29POPC   GL1  772   1.491  10.128   7.502 -0.0392 -0.0036 -0.2859
   29POPC   GL2  773   1.160  10.121   7.227 -0.0020  0.0248 -0.0397
   29POPC   C1A  774   1.585  10.331   7.259 -0.0986 -0.2011  0.0846
   29POPC   D2A  775   1.708  10.734   7.153  0.2313 -0.2611  0.0220
   29POPC   C3A  776   1.564  11.072   7.209  0.0095  0.1431  0.0831
   29POPC   C4A  777   1.091  11.334   7.251 -0.1710  0.0827  0.1393
   29POPC   C1B  778   1.117  10.264   6.937 -0.1475 -0.0198  0.1679
   29POPC   C2B  779   1.077  10.574   6.641  0.0618  0.0337 -0.1694
   29POPC   C3B  780   0.983  10.679   6.142  0.1629 -0.4323 -0.1634
   29POPC   C4B  781   1.117  10.607   5.703 -0.2626 -0.0704 -0.3613
   30POPC   NC3  782   3.532   8.723   7.511 -0.2292  0.1033 -0.1634
   30POPC   PO4  783   3.879   8.953   7.310  0.0777 -0.0954  0.0317
   30POPC   GL1  784   3.702   8.808   6.981  0.1142  0.3680  0.0668
   30POPC   GL2  785   3.596   8.502   7.010  0.0348 -0.0940 -0.0562
   30POPC   C1A  786   3.763   8.616   6.587 -0.0069 -0.2532 -0.2581
   30POPC   D2A  787   3.866   8.666   6.195  0.4602 -0.0374  0.0296
   30POPC   C3A  788   4.251   8.800   6.061  0.1277 -0.0066  0.0544
   30POPC   C4A  789   4.606   8.765   6.111  0.2457  0.0238  0.0567
   30POPC   C1B  790   3.603   8.188   6.806  0.2546 -0.1992 -0.0422
   30POPC   C2B  791   3.589   7.831   6.448 -0.1064 -0.1654 -0.4508
   30POPC   C3B  792   3.947   7.784   6.176  0.1027  0.1609  0.1396
   30POPC   C4B  793   4.278   7.370   6.138  0.0095 -0.2718 -0.0130
   31POPC   NC3  794   6.436   6.038   7.450 -0.1156  0.4085 -0.0742
   31POPC   PO4  795   6.518   5.612   7.242 -0.1235  0.2223 -0.0220
   31POPC   GL1  796   6.372   5.829   6.799 -0.3314  0.2509 -0.1337
   31POPC   GL2  797   6.692   6.004   6.674  0.0121  0.0514 -0.3534
   31POPC   C1A  798   6.074   5.626   6.605  0.0300  0.2099  0.1904
   31POPC   D2A  799   6.017   5.434   6.212 -0.0309  0.4669 -0.2700
   31POPC   C3A  800   6.165   5.667   5.762 -0.0694  0.0383 -0.1984
   31POPC   C4A  801   6.245   5.466   5.372 -0.3327  0.0528  0.1084
   31POPC   C1B  802   6.733   6.256   6.342 -0.4342  0.1334  0.0490
   31POPC   C2B  803   7.149   6.611   6.172 -0.0807  0.2883  0.0492
   31POPC   C3B  804   7.570   6.787   6.159 -0.1878 -0.1434 -0.0217
   31POPC   C4B  805   7.928   6.689   6.406  0.1126 -0.1131 -0.0428
   32POPC   NC3  806   6.672   7.906   7.334  0.0232 -0.1077  0.0862
   32POPC   PO4  807   6.555   8.369   7.463 -0.0881  0.3911  0.1105
   32POPC   GL1  808   6.663   8.385   7.041  0.1252  0.1478 -0.1953
   32POPC   GL2  809   6.481   8.165   6.827 -0.1152  0.0413 -0.0955
   32POPC   C1A  810   6.859   8.370   6.614  0.0867  0.0976  0.2831
   32POPC   D2A  811   6.932   8.571   6.091 -0.1760 -0.1303  0.0268
   32POPC   C3A  812   7.043   8.998   6.115  0.2396 -0.1466  0.0030
   32POPC   C4A  813   7.332   9.201   6.338  0.5075 -0.1587  0.0557
   32POPC   C1B  814   6.323   8.026   6.441  0.0524 -0.0132 -0.0912
   32POPC   C2B  815   6.175   8.212   6.112 -0.2680 -0.0241  0.0461
   32POPC   C3B  816   5.989   8.490   5.847  0.0642 -0.1359  0.0797
   32POPC   C4B  817   6.110   8.782   5.599 -0.2433  0.0304  0.1441
   33POPC   NC3  818   2.080   7.422   7.722  0.0294  0.0675  0.1859
   33POPC   PO4  819   2.333   7.162   7.709 -0.2575  0.1765 -0.2307
   33POPC   GL1  820   2.190   7.005   7.250 -0.1704  0.1862 -0.3948
   33POPC   GL2  821   2.173   6.686   7.326 -0.0193 -0.3826 -0.2829
   33POPC   C1A  822   2.157   7.054   6.826  0.0364  0.2439  0.0971
   33POPC   D2A  823   2.251   7.096   6.372  0.0363  0.3474  0.3475
   33POPC   C3A  824   2.404   7.576   6.266 -0.1596  0.2810 -0.1891
   33POPC   C4A  825   2.479   8.012   6.327 -0.2641  0.3102  0.0590
   33POPC   C1B  826   2.128   6.550   6.994 -0.2742 -0.0953 -0.3542
   33POPC   C2B  827   1.851   6.736   6.627  0.1251 -0.0476 -0.2209
   33POPC   C3B  828   1.817   6.766   6.219 -0.1080  0.1598  0.1740
   33POPC   C4B  829   2.034   7.055   5.887  0.0721  0.1078  0.2536
   34POPC   NC3  830   5.592   3.342   7.961  0.2574  0.1074  0.1246
   34POPC   PO4  831   5.125   3.407   8.034  0.1707 -0.0243 -0.0325
   34POPC   GL1  832   5.027   3.433   7.654  0.3835 -0.1516 -0.0218
   34POPC   GL2  833   4.719   3.377   7.669 -0.3203 -0.0877  0.2846
   34POPC   C1A  834   4.781   3.332   7.157 -0.1498 -0.1679  0.2661
   34POPC   D2A  835   4.797   3.154   6.724  0.1074  0.1834 -0.2863
   34POPC   C3A  836   4.667   2.962   6.256  0.0865 -0.1063 -0.1470
   34POPC   C4A  837   4.659   2.985   5.795  0.1819 -0.2444  0.1906
   34POPC   C1B  838   4.427   3.213   7.502  0.0796 -0.2149  0.3825
   34POPC   C2B  839   4.345   3.113   7.009  0.3195 -0.2784  0.1755
   34POPC   C3B  840   4.243   2.997   6.599  0.3939  0.3249 -0.0864
   34POPC   C4B  841   4.199   2.927   6.115 -0.0655 -0.2072  0.2507
   35POPC   NC3  842   6.509   3.626   7.841  0.0609 -0.2897  0.1298
   35POPC   PO4  843   6.639   3.894   7.716 -0.2364  0.1625 -0.0300
   35POPC   GL1  844   6.540   3.719   7.338  0.1913 -0.0781 -0.1354
   35POPC   GL2  845   6.061   3.740   7.367 -0.0916  0.0420  0.3319
   35POPC   C1A  846   6.392   3.630   6.913 -0.1789  0.0931  0.0469
   35POPC   D2A  847   6.143   3.625   6.471 -0.2150 -0.4739  0.0641
   35POPC   C3A  848   5.692   3.850   6.436 -0.2851 -0.0906 -0.0113
   35POPC   C4A  849   5.258   4.131   6.479 -0.2222  0.0290  0.2026
   35POPC   C1B  850   5.848   3.559   7.037  0.0877 -0.1077 -0.0337
   35POPC   C2B  851   5.578   3.489   6.742  0.0899  0.2221  0.0236
   35POPC   C3B  852   5.386   3.280   6.443  0.2229 -0.0901 -0.2877
   35POPC   C4B  853   5.077   3.290   6.094 -0.2227 -0.0583  0.3638
   36POPC   NC3  854   7.914   4.240   7.373 -0.1215 -0.0085  0.0572
   36POPC   PO4  855   8.225   3.912   7.434  0.1978 -0.3405  0.0560
   36POPC   GL1  856   8.184   4.064   7.039  0.1151  0.1371  0.2464
   36POPC   GL2  857   8.363   4.321   7.097  0.0783 -0.0779  0.1769
   36POPC   C1A  858   8.125   4.049   6.565 -0.1302 -0.0028 -0.2536
   36POPC   D2A  859   8.154   3.711   6.221 -0.0335 -0.2744  0.0978
   36POPC   C3A  860   8.413   3.990   5.942  0.0404  0.0392  0.0113
   36POPC   C4A  861   8.778   4.231   6.056 -0.1985  0.3031 -0.2834
   36POPC   C1B  862   8.309   4.537   6.744  0.0625 -0.1578 -0.3352
   36POPC   C2B  863   8.348   4.442   6.228  0.0711  0.0877  0.0616
   36POPC   C3B  864   8.096   4.599   5.902  0.1082 -0.3619  0.0020
   36POPC   C4B  865   7.726   4.498   5.644 -0.1141  0.0308  0.1928
   37POPC   NC3  866   8.661   3.090   8.429  0.3187  0.1259 -0.1143
   37POPC   PO4  867   8.372   3.246   8.087  0.1404 -0.0297 -0.0470
   37POPC   GL1  868   8.464   3.172   7.604 -0.1653  0.3173 -0.1101
   37POPC   GL2  869   8.670   2.917   7.580  0.2386 -0.0862 -0.0767
   37POPC   C1A  870   8.369   3.027   7.220 -0.2472  0.1526 -0.0147
   37POPC   D2A  871   8.365   3.104   6.810  0.0104 -0.1531 -0.1978
   37POPC   C3A  872   8.720   3.053   6.631 -0.0846 -0.1901  0.0813
   37POPC   C4A  873   9.024   2.832   6.602 -0.1899  0.1315 -0.3578
   37POPC   C1B  874   8.849   2.922   7.185 -0.1708 -0.1152  0.0573
   37POPC   C2B  875   9.115   3.246   6.902  0.2752 -0.0061 -0.0386
   37POPC   C3B  876   9.103   3.341   6.489  0.0138  0.1368  0.2534
   37POPC   C4B  877   9.035   3.249   6.019  0.1690  0.1723  0.0790
   38POPC   NC3  878   0.523   5.454   8.097 -0.1201 -0.1063 -0.3570
   38POPC   PO4  879   0.163   5.405   8.063 -0.2432  0.1962  0.3279
   38POPC   GL1  880   0.177   5.463   7.603  0.1411 -0.0611  0.0125
   38POPC   GL2  881   0.497   5.578   7.577  0.3010  0.1911  0.0215
   38POPC   C1A  882   0.226   5.321   7.152  0.0127 -0.0063 -0.0591
   38POPC   D2A  883   0.415   4.981   7.028 -0.3848 -0.3029  0.0660
   38POPC   C3A  884   0.688   5.122   6.659  0.0486  0.4265 -0.1306
   38POPC   C4A  885   0.983   5.293   6.327 -0.1841 -0.3298 -0.0360
   38POPC   C1B  886   0.690   5.171   7.380  0.1888  0.2597  0.2479
   38POPC   C2B  887   1.021   4.891   7.097 -0.1115 -0.3041 -0.2399
   38POPC   C3B  888   1.449   4.830   7.045 -0.0286  0.1097  0.0159
   38POPC   C4B  889   1.775   4.724   7.262  0.0676 -0.1346  0.2592
   39POPC   NC3  890   7.168  10.082   7.813  0.1783  0.1457  0.0130
   39POPC   PO4  891   7.178   9.990   7.397 -0.1567  0.2776  0.1205
   39POPC   GL1  892   7.434   9.709   7.103  0.0315 -0.1623  0.1787
   39POPC   GL2  893   7.687   9.855   7.099  0.1466 -0.2177  0.0940
   39POPC   C1A  894   7.498   9.611   6.651 -0.1420  0.3389 -0.1452
   39POPC   D2A  895   7.457   9.632   6.163  0.0763  0.4546 -0.1953
   39POPC   C3A  896   7.006   9.572   5.988 -0.1977  0.1536  0.0497
   39POPC   C4A  897   6.639   9.539   6.181  0.2848 -0.1944 -0.1481
   39POPC   C1B  898   7.935   9.768   6.723  0.3038  0.1068 -0.0000
   39POPC   C2B  899   7.935   9.778   6.285 -0.1014  0.2948 -0.0299
   39POPC   C3B  900   8.161   9.920   5.986  0.0856  0.1506 -0.0823
   39POPC   C4B  901   8.601   9.800   5.976  0.1562 -0.1769 -0.3564
   40POPC   NC3  902   8.757   0.145   8.145  0.0435 -0.0002  0.1022
   40POPC   PO4  903   8.815  -0.034   7.760  0.0104  0.0124  0.3007
   40POPC   GL1  904   8.689   0.023   7.223 -0.0883 -0.0555  0.2591
   40POPC   GL2  905   8.325  -0.121   7.085  0.1860 -0.2400 -0.0067
   40POPC   C1A  906   8.628  -0.016   6.722 -0.1505 -0.3049 -0.0030
   40POPC   D2A  907   8.416  -0.079   6.382 -0.0102 -0.0275  0.3958
   40POPC   C3A  908   8.344   0.353   6.140  0.1086  0.2277  0.0535
   40POPC   C4A  909   8.175   0.787   5.984 -0.0388  0.1944  0.1689
   40POPC   C1B  910   8.029   0.044   6.822 -0.2409 -0.0489 -0.0691
   40POPC   C2B  911   7.947   0.227   6.434 -0.2198 -0.1772  0.0374
   40POPC   C3B  912   7.936   0.215   5.907 -0.3139  0.3238 -0.0118
   40POPC   C4B  913   8.019   0.468   5.564 -0.1994 -0.0218 -0.3389
   41POPC   NC3  914   1.032   2.379   8.295  0.0099  0.0531 -0.3122
   41POPC   PO4  915   0.974   2.026   8.434 -0.3426  0.1508  0.0513
   41POPC   GL1  916   0.834   2.095   7.969  0.0668 -0.0372  0.1037
   41POPC   GL2  917   0.730   1.894   7.844 -0.3148  0.1998  0.0777
   41POPC   C1A  918   1.090   2.228   7.606  0.2921 -0.1024 -0.2207
   41POPC   D2A  919   1.145   2.142   7.105 -0.0141 -0.0069 -0.1806
   41POPC   C3A  920   1.125   2.432   6.797 -0.0221  0.0960 -0.1033
   41POPC   C4A  921   1.136   2.408   6.417 -0.1771  0.2128  0.0872
   41POPC   C1B  922   0.922   1.762   7.471  0.1348  0.0117 -0.3075
   41POPC   C2B  923   1.094   1.670   7.102  0.0460  0.1479 -0.0772
   41POPC   C3B  924   1.060   1.424   6.725 -0.1108 -0.4477 -0.0676
   41POPC   C4B  925   0.912   1.240   6.369  0.0347 -0.1127  0.2002
   42POPC   NC3  926   8.999   2.324   8.056 -0.1237  0.0758  0.0765
   42POPC   PO4  927   9.326   1.932   7.964  0.1392 -0.1457  0.2579
   42POPC   GL1  928   9.339   2.178   7.660  0.1088  0.4120 -0.2125
   42POPC   GL2  929   9.053   2.451   7.587  0.0488  0.0498 -0.0597
   42POPC   C1A  930   9.577   2.092   7.306 -0.1949 -0.3921 -0.1856
   42POPC   D2A  931   9.703   2.353   6.956 -0.2859  0.0757  0.0350
   42POPC   C3A  932   9.277   2.280   6.676 -0.1665 -0.1712  0.5238
   42POPC   C4A  933   9.135   1.988   6.392  0.0228  0.0308  0.0223
   42POPC   C1B  934   9.431   2.673   7.590 -0.0354  0.1291  0.1990
   42POPC   C2B  935   9.756   2.622   7.364 -0.1960 -0.0430 -0.1058
   42POPC   C3B  936  10.139   2.431   7.459  0.0975  0.1296 -0.1338
   42POPC   C4B  937  10.476   2.349   7.679 -0.2514 -0.3020  0.1630
   43POPC   NC3  938   0.930   0.502   8.194 -0.0905 -0.3537 -0.5895
   43POPC   PO4  939   1.346   0.666   8.117  0.0146 -0.0465 -0.2349
   43POPC   GL1  940   1.201   0.525   7.648  0.2316 -0.0244  0.2798
   43POPC   GL2  941   0.919   0.314   7.591 -0.2366 -0.1380 -0.1132
   43POPC   C1A  942   1.192   0.579   7.121  0.1241  0.0321 -0.2730
   43POPC   D2A  943   1.263   0.967   6.812  0.1165 -0.0211 -0.0897
   43POPC   C3A  944   1.443   0.903   6.291  0.2684 -0.2227 -0.1233
   43POPC   C4A  945   1.846   0.742   6.281 -0.0936 -0.0690 -0.2421
   43POPC   C1B  946   0.802   0.733   7.340  0.0309 -0.0219 -0.1211
   43POPC   C2B  947   0.778   0.793   6.939 -0.3389  0.1308 -0.0275
   43POPC   C3B  948   0.614   0.543   6.538 -0.1260  0.0698 -0.0432
   43POPC   C4B  949   0.394   0.498   6.185  0.1024 -0.1165  0.0337
   44POPC   NC3  950   4.019   2.125   8.263 -0.3623  0.1420  0.3586
   44POPC   PO4  951   4.457   2.051   7.962  0.1761  0.5279  0.1796
   44POPC   GL1  952   4.277   1.914   7.595 -0.2735  0.1828  0.1206
   44POPC   GL2  953   4.207   2.240   7.472  0.2272 -0.0438 -0.0496
   44POPC   C1A  954   4.266   1.820   7.191 -0.0349  0.2322  0.1295
   44POPC   D2A  955   4.291   1.774   6.648 -0.0066 -0.1742  0.0953
   44POPC   C3A  956   4.227   1.604   6.243  0.0325  0.0001  0.3037
   44POPC   C4A  957   4.326   1.195   6.155  0.0042  0.0518 -0.1748
   44POPC   C1B  958   3.870   2.048   7.285  0.3261 -0.1941 -0.0765
   44POPC   C2B  959   3.851   1.751   6.909 -0.0965 -0.2289  0.0610
   44POPC   C3B  960   3.861   1.551   6.581  0.2287  0.2716 -0.3507
   44POPC   C4B  961   3.887   1.134   6.372 -0.0898  0.3231 -0.1978
   45POPC   NC3  962   7.348   3.045   7.852 -0.3677 -0.3442  0.1204
   45POPC   PO4  963   7.499   3.527   7.784  0.1002  0.1432  0.1266
   45POPC   GL1  964   7.367   3.362   7.373  0.0113  0.1604  0.0076
   45POPC   GL2  965   7.052   3.220   7.326  0.0951 -0.3297 -0.0225
   45POPC   C1A  966   7.448   3.436   6.844 -0.1204  0.2548  0.1485
   45POPC   D2A  967   7.490   3.482   6.347  0.3361  0.1743 -0.0353
   45POPC   C3A  968   7.685   3.877   6.221 -0.0856  0.1821  0.0715
   45POPC   C4A  969   7.858   4.234   6.053 -0.0411 -0.3643 -0.1977
   45POPC   C1B  970   6.932   3.406   6.936  0.3901 -0.2603  0.1861
   45POPC   C2B  971   7.033   3.413   6.583 -0.0175  0.1229  0.3073
   45POPC   C3B  972   7.079   3.200   6.235  0.1339 -0.1358  0.0883
   45POPC   C4B  973   7.174   2.823   5.970 -0.0871  0.2248 -0.1021
   46POPC   NC3  974   5.105   1.443   8.032  0.1194 -0.0015  0.1718
   46POPC   PO4  975   5.118   1.699   7.693  0.0258  0.3743 -0.0684
   46POPC   GL1  976   5.412   1.638   7.277  0.0659 -0.1659 -0.3039
   46POPC   GL2  977   5.728   1.565   7.151 -0.0053  0.2015 -0.2509
   46POPC   C1A  978   5.293   1.978   7.047 -0.0158 -0.2290 -0.0785
   46POPC   D2A  979   5.023   2.180   6.754 -0.2933  0.1216 -0.4821
   46POPC   C3A  980   5.045   2.459   6.371  0.0237 -0.0976  0.2426
   46POPC   C4A  981   5.135   2.814   6.097 -0.0375  0.1426 -0.2058
   46POPC   C1B  982   5.530   1.612   6.826  0.2004  0.4822  0.0723
   46POPC   C2B  983   5.383   1.618   6.398 -0.1397 -0.0941 -0.0123
   46POPC   C3B  984   5.172   1.966   6.332 -0.1943 -0.2384  0.3211
   46POPC   C4B  985   4.853   2.194   6.031 -0.0595  0.0978  0.1602
   47POPC   NC3  986   5.808   4.911   7.388  0.0632  0.2333  0.2226
   47POPC   PO4  987   5.497   4.609   7.483 -0.1831  0.1513 -0.0693
   47POPC   GL1  988   5.672   4.729   6.968 -0.0609  0.2918 -0.2871
   47POPC   GL2  989   5.902   5.001   6.915 -0.5307  0.0323 -0.1929
   47POPC   C1A  990   5.736   4.600   6.498 -0.2400 -0.0441  0.0894
   47POPC   D2A  991   5.620   4.316   6.207  0.1788 -0.0229 -0.1755
   47POPC   C3A  992   5.638   4.141   5.831 -0.1791 -0.1818 -0.0568
   47POPC   C4A  993   5.720   4.147   5.333 -0.2087  0.0806 -0.1008
   47POPC   C1B  994   6.134   5.058   6.528  0.0033 -0.1103  0.1565
   47POPC   C2B  995   6.174   4.780   6.224  0.1164 -0.2859  0.0293
   47POPC   C3B  996   6.411   4.430   6.075  0.1140 -0.3497  0.0464
   47POPC   C4B  997   6.859   4.152   6.061  0.1329 -0.1007  0.0370
   48POPC   NC3  998   1.676   9.554   7.501 -0.1532  0.0130  0.1471
   48POPC   PO4  999   1.972   9.905   7.629  0.0862  0.2208 -0.0114
   48POPC   GL1 1000   2.006  10.030   7.181 -0.2875  0.1878 -0.0462
   48POPC   GL2 1001   2.091  10.327   7.203  0.1810  0.1051  0.0533
   48POPC   C1A 1002   1.768  10.007   6.813  0.1477  0.1482 -0.0080
   48POPC   D2A 1003   1.408  10.192   6.534 -0.3216  0.0333 -0.2480
   48POPC   C3A 1004   1.454  10.534   6.222  0.0655  0.0060  0.0438
   48POPC   C4A 1005   1.621  10.737   5.832 -0.2973 -0.2084 -0.2464
   48POPC   C1B 1006   2.137  10.570   6.982  0.0612  0.0098  0.3813
   48POPC   C2B 1007   2.084  10.571   6.539  0.1434 -0.1119  0.0689
   48POPC   C3B 1008   1.854  10.234   6.358  0.0380  0.2028  0.1184
   48POPC   C4B 1009   1.790   9.862   6.373  0.0266  0.0060 -0.0752
   49POPC   NC3 1010   6.831   9.615   7.268 -0.1052 -0.1365 -0.3241
   49POPC   PO4 1011   6.526   9.384   7.382 -0.0481 -0.1168 -0.0812
   49POPC   GL1 1012   6.516   9.106   6.963 -0.1245  0.3314 -0.2289
   49POPC   GL2 1013   6.812   8.885   7.074  0.0058 -0.4469 -0.0332
   49POPC   C1A 1014   6.540   8.999   6.515  0.0341  0.1325  0.0266
   49POPC   D2A 1015   6.531   9.055   6.009  0.0025  0.2166 -0.1113
   49POPC   C3A 1016   6.259   9.258   5.709 -0.4152  0.0019 -0.0340
   49POPC   C4A 1017   5.970   9.216   5.373  0.2446 -0.2223 -0.1565
   49POPC   C1B 1018   7.053   8.974   6.687 -0.2221  0.0894  0.1053
   49POPC   C2B 1019   6.929   9.378   6.550 -0.4201  0.1129 -0.0221
   49POPC   C3B 1020   6.560   9.682   6.688 -0.0714 -0.0788 -0.3075
   49POPC   C4B 1021   6.186   9.463   6.616  0.2421  0.1887 -0.2228
   50POPC   NC3 1022   7.240   7.189   7.589  0.6098  0.0349  0.1902
   50POPC   PO4 1023   7.527   6.863   7.377  0.0044  0.0308 -0.2677
   50POPC   GL1 1024   7.126   6.800   7.106 -0.2457 -0.2405  0.0172
   50POPC   GL2 1025   7.070   6.476   7.064  0.1339  0.0114  0.3490
   50POPC   C1A 1026   6.917   6.967   6.710 -0.0552  0.2479  0.0450
   50POPC   D2A 1027   6.857   7.184   6.329 -0.1579  0.2169 -0.3453
   50POPC   C3A 1028   7.012   7.060   5.997  0.1275 -0.2357  0.3447
   50POPC   C4A 1029   7.101   6.815   5.664 -0.2138  0.1003  0.2341
   50POPC   C1B 1030   7.115   6.387   6.627 -0.1178 -0.2585  0.0975
   50POPC   C2B 1031   7.476   6.245   6.328 -0.0864  0.2468  0.1533
   50POPC   C3B 1032   7.918   6.147   6.186 -0.1474  0.0333 -0.0239
   50POPC   C4B 1033   8.265   6.088   5.949 -0.1766  0.2915 -0.2928
   51POPC   NC3 1034   5.641   7.930   7.382  0.1435  0.0463 -0.1090
   51POPC   PO4 1035   6.104   8.019   7.271 -0.1842 -0.1161  0.1651
   51POPC   GL1 1036   5.949   7.721   7.054  0.1230  0.0510  0.1499
   51POPC   GL2 1037   5.759   7.889   6.871  0.2547 -0.1595  0.0238
   51POPC   C1A 1038   5.920   7.459   6.687  0.0139 -0.1583  0.0714
   51POPC   D2A 1039   5.839   7.303   6.336  0.1193  0.0277  0.0861
   51POPC   C3A 1040   5.958   6.907   6.236  0.0057  0.0316 -0.1962
   51POPC   C4A 1041   5.945   6.623   6.631  0.0300 -0.4808 -0.3908
   51POPC   C1B 1042   5.739   7.882   6.475 -0.4895 -0.1619  0.0264
   51POPC   C2B 1043   5.698   8.230   6.267 -0.2348 -0.0082  0.0173
   51POPC   C3B 1044   5.531   8.525   5.996  0.0399 -0.1733 -0.2097
   51POPC   C4B 1045   5.319   8.605   5.674  0.2721 -0.3370 -0.2141
   52POPC   NC3 1046   8.756   0.688   8.048  0.4753 -0.2646 -0.1875
   52POPC   PO4 1047   8.440   1.072   7.964 -0.1393  0.3266  0.1280
   52POPC   GL1 1048   8.623   1.163   7.509  0.0702 -0.0349 -0.3035
   52POPC   GL2 1049   8.332   1.091   7.378 -0.1415 -0.1238 -0.0986
   52POPC   C1A 1050   8.766   1.297   7.186 -0.2703 -0.0865 -0.1583
   52POPC   D2A 1051   9.037   1.199   6.903  0.0342  0.0204  0.1869
   52POPC   C3A 1052   8.962   0.917   6.647  0.1699  0.3106 -0.1873
   52POPC   C4A 1053   8.921   1.045   6.257 -0.0455  0.2830 -0.0461
   52POPC   C1B 1054   8.252   1.348   7.179 -0.3944 -0.2846 -0.2162
   52POPC   C2B 1055   8.501   1.681   6.946  0.2452 -0.0140 -0.1326
   52POPC   C3B 1056   8.951   1.703   6.792 -0.0836  0.0212 -0.0796
   52POPC   C4B 1057   9.173   1.485   6.528  0.0922  0.1429  0.0448
   53POPC   NC3 1058   9.441   5.449   8.296  0.1120  0.3041  0.2501
   53POPC   PO4 1059   9.246   5.406   7.828 -0.1427 -0.1494 -0.2209
   53POPC   GL1 1060   9.243   5.432   7.444 -0.2460 -0.1279  0.3041
   53POPC   GL2 1061   9.242   5.689   7.344 -0.0192 -0.1225  0.1343
   53POPC   C1A 1062   9.415   5.218   7.113  0.1338 -0.0270 -0.1618
   53POPC   D2A 1063   9.638   4.944   6.840 -0.0167  0.1033 -0.0043
   53POPC   C3A 1064   9.860   4.659   6.505  0.3196  0.2140 -0.2526
   53POPC   C4A 1065  10.171   4.377   6.358 -0.0238  0.2214 -0.0172
   53POPC   C1B 1066   9.548   5.679   7.024  0.1282 -0.1837  0.3319
   53POPC   C2B 1067   9.523   5.661   6.612 -0.1919  0.0611 -0.0630
   53POPC   C3B 1068   9.499   5.374   6.138  0.2719  0.6777 -0.1545
   53POPC   C4B 1069   9.513   5.002   6.190  0.2080  0.1321 -0.2271
   54POPC   NC3 1070   1.336   7.921   7.579  0.0304 -0.1534  0.3532
   54POPC   PO4 1071   1.027   8.057   7.258  0.0234 -0.1013  0.2188
   54POPC   GL1 1072   0.875   7.785   7.020  0.5554 -0.1930  0.2098
   54POPC   GL2 1073   0.608   7.907   6.865  0.2359 -0.0947  0.1383
   54POPC   C1A 1074   0.917   7.506   6.736 -0.1164  0.2894  0.3318
   54POPC   D2A 1075   0.713   7.205   6.473 -0.1558  0.2418 -0.3054
   54POPC   C3A 1076   0.880   6.961   6.179 -0.0536 -0.0478  0.2335
   54POPC   C4A 1077   0.936   6.794   5.801 -0.1589 -0.1443  0.2155
   54POPC   C1B 1078   0.946   7.994   6.495  0.1709  0.2352 -0.0476
   54POPC   C2B 1079   1.268   8.006   6.127 -0.0088  0.1951  0.3919
   54POPC   C3B 1080   1.642   8.041   5.968 -0.3380  0.0809 -0.1810
   54POPC   C4B 1081   1.810   7.877   5.652 -0.1020  0.0261  0.0862
   55POPC   NC3 1082   7.692   2.667   7.764  0.2879  0.0547 -0.0184
   55POPC   PO4 1083   7.264   2.515   7.988 -0.3103  0.1141  0.0304
   55POPC   GL1 1084   7.278   2.343   7.564 -0.2227  0.2226  0.0651
   55POPC   GL2 1085   7.209   2.049   7.516  0.2828  0.0304  0.1199
   55POPC   C1A 1086   7.300   2.376   7.115  0.0353 -0.3313 -0.1160
   55POPC   D2A 1087   7.307   2.274   6.650 -0.2620 -0.4790  0.1640
   55POPC   C3A 1088   7.683   2.139   6.433 -0.2373  0.0464  0.0762
   55POPC   C4A 1089   7.898   2.281   6.039 -0.4058 -0.1896  0.0867
   55POPC   C1B 1090   7.101   1.908   7.107 -0.2627 -0.0649 -0.1348
   55POPC   C2B 1091   6.754   1.766   6.816 -0.2618 -0.2505  0.2389
   55POPC   C3B 1092   6.530   1.545   6.456  0.2704 -0.0047  0.0115
   55POPC   C4B 1093   6.105   1.411   6.226 -0.0829 -0.3110 -0.2327
   56POPC   NC3 1094   6.099   5.751   7.770  0.0021  0.0246 -0.2349
   56POPC   PO4 1095   5.968   6.214   7.446 -0.0238  0.0618  0.2304
   56POPC   GL1 1096   5.795   6.265   7.051  0.4695  0.1732 -0.3722
   56POPC   GL2 1097   5.687   5.889   6.870  0.1229  0.0357 -0.0375
   56POPC   C1A 1098   5.814   6.183   6.482  0.1845 -0.0416  0.0305
   56POPC   D2A 1099   6.013   5.939   6.160  0.0346  0.1542 -0.1658
   56POPC   C3A 1100   6.399   5.754   6.180  0.0254  0.0222 -0.5858
   56POPC   C4A 1101   6.608   5.379   6.148  0.0271  0.0828  0.1299
   56POPC   C1B 1102   5.285   5.917   6.640 -0.0698 -0.1436  0.2134
   56POPC   C2B 1103   4.978   5.841   6.388 -0.3057  0.3958 -0.2349
   56POPC   C3B 1104   4.931   5.484   6.316  0.1372 -0.0326 -0.2145
   56POPC   C4B 1105   5.186   5.132   6.033  0.3841 -0.0610  0.1549
   57POPC   NC3 1106   8.785   7.309   7.769  0.0947  0.0672  0.0406
   57POPC   PO4 1107   8.466   7.596   8.053 -0.1149 -0.1452 -0.2147
   57POPC   GL1 1108   8.304   7.529   7.544 -0.3195  0.2564 -0.1345
   57POPC   GL2 1109   8.508   7.627   7.373 -0.3789  0.3076 -0.0707
   57POPC   C1A 1110   8.323   7.136   7.247 -0.0651 -0.0644 -0.6423
   57POPC   D2A 1111   8.219   7.099   6.825 -0.1691  0.0899  0.3836
   57POPC   C3A 1112   8.322   7.254   6.526  0.2367 -0.2402  0.1223
   57POPC   C4A 1113   8.061   7.634   6.268 -0.1848  0.1247 -0.1739
   57POPC   C1B 1114   8.495   7.581   6.850 -0.2737  0.0450 -0.0982
   57POPC   C2B 1115   8.737   7.530   6.526 -0.1197 -0.3084  0.0601
   57POPC   C3B 1116   8.604   7.488   6.143  0.1478  0.1997 -0.1405
   57POPC   C4B 1117   8.466   7.405   5.754  0.0410  0.2687  0.2596
   58POPC   NC3 1118   0.034   1.216   8.267  0.2673  0.2467  0.1360
   58POPC   PO4 1119  -0.305   1.027   8.263  0.0691 -0.1194  0.2024
   58POPC   GL1 1120  -0.120   1.148   7.796  0.0015 -0.1346 -0.1686
   58POPC   GL2 1121   0.075   1.410   7.784  0.0227 -0.1994  0.0042
   58POPC   C1A 1122  -0.106   0.969   7.431  0.1249  0.0199 -0.1457
   58POPC   D2A 1123  -0.399   1.325   7.163 -0.4869 -0.0081 -0.1902
   58POPC   C3A 1124  -0.521   1.380   6.698 -0.2518  0.3057 -0.0948
   58POPC   C4A 1125  -0.230   1.143   6.463  0.2305 -0.2958  0.1362
   58POPC   C1B 1126   0.138   1.375   7.357 -0.1509 -0.1990  0.1142
   58POPC   C2B 1127   0.239   1.613   6.987  0.1318 -0.1350  0.1291
   58POPC   C3B 1128   0.252   1.506   6.551 -0.2444  0.0567  0.2585
   58POPC   C4B 1129   0.430   1.458   6.177  0.1678  0.4003  0.2064
   59POPC   NC3 1130   0.197   9.937   7.897 -0.2329 -0.0436  0.1751
   59POPC   PO4 1131  -0.037   9.684   7.811  0.2689  0.1739 -0.2244
   59POPC   GL1 1132  -0.114   9.721   7.469 -0.1642 -0.1087  0.3247
   59POPC   GL2 1133   0.178   9.825   7.360 -0.0151  0.3511 -0.1388
   59POPC   C1A 1134  -0.355   9.623   7.125  0.3510 -0.1402 -0.2243
   59POPC   D2A 1135  -0.388   9.718   6.696  0.0441 -0.0782 -0.2602
   59POPC   C3A 1136   0.027   9.850   6.468 -0.1192 -0.0890  0.1620
   59POPC   C4A 1137   0.239  10.090   6.184  0.0957  0.0434  0.0653
   59POPC   C1B 1138   0.335   9.892   6.941 -0.1436  0.2834 -0.1450
   59POPC   C2B 1139   0.481   9.723   6.576  0.0362 -0.0358  0.2812
   59POPC   C3B 1140   0.582   9.702   6.198 -0.1063  0.0880  0.2418
   59POPC   C4B 1141   0.530   9.852   5.745  0.2113 -0.0046 -0.1631
   60POPC   NC3 1142   6.735   8.136   7.852  0.2566 -0.1114 -0.2339
   60POPC   PO4 1143   7.115   8.114   7.499  0.2152  0.2725 -0.3285
   60POPC   GL1 1144   7.098   7.931   7.037  0.2026 -0.2885  0.1457
   60POPC   GL2 1145   6.916   7.797   6.884 -0.1731 -0.2294  0.0446
   60POPC   C1A 1146   7.246   8.099   6.597  0.2240  0.2166 -0.2751
   60POPC   D2A 1147   7.212   8.132   6.261 -0.0074 -0.0346  0.0744
   60POPC   C3A 1148   7.029   7.684   6.120  0.2161 -0.1840  0.1887
   60POPC   C4A 1149   6.731   7.540   5.798  0.1772  0.0927 -0.0075
   60POPC   C1B 1150   6.814   7.876   6.532 -0.4853 -0.0753  0.1959
   60POPC   C2B 1151   6.684   8.061   6.133 -0.0586 -0.1532 -0.4500
   60POPC   C3B 1152   6.903   8.200   5.771 -0.3464 -0.2688 -0.0876
   60POPC   C4B 1153   6.981   8.702   5.589  0.0725  0.1810 -0.2483
   61POPC   NC3 1154   5.095   4.824   7.699 -0.0054  0.3780 -0.3805
   61POPC   PO4 1155   5.184   5.275   7.736  0.1808 -0.0503 -0.0562
   61POPC   GL1 1156   4.998   5.376   7.283 -0.1248  0.2417  0.2828
   61POPC   GL2 1157   4.739   5.129   7.325  0.0584  0.0955  0.1810
   61POPC   C1A 1158   5.035   5.400   6.912  0.1025 -0.1594  0.1034
   61POPC   D2A 1159   5.381   5.437   6.615 -0.0664 -0.2987 -0.1395
   61POPC   C3A 1160   5.559   5.689   6.292  0.2853  0.3386  0.2997
   61POPC   C4A 1161   5.633   5.572   5.890  0.3163  0.1193 -0.0913
   61POPC   C1B 1162   4.676   5.028   7.024  0.0586  0.0870 -0.0734
   61POPC   C2B 1163   4.811   4.723   6.738  0.2115 -0.2030 -0.1337
   61POPC   C3B 1164   5.151   4.616   6.399 -0.3156  0.1321 -0.1524
   61POPC   C4B 1165   5.286   4.596   5.989 -0.3080  0.0573 -0.1195
   62POPC   NC3 1166   2.364   4.620   8.752  0.2498  0.0172  0.1118
   62POPC   PO4 1167   1.977   4.435   8.577 -0.0895  0.0364  0.0806
   62POPC   GL1 1168   1.963   4.356   8.134  0.0159 -0.0156 -0.1516
   62POPC   GL2 1169   2.300   4.413   8.003  0.1463  0.0631  0.2028
   62POPC   C1A 1170   2.079   4.044   7.746  0.3349  0.4896 -0.0297
   62POPC   D2A 1171   2.340   4.150   7.347 -0.1372  0.2883  0.0634
   62POPC   C3A 1172   2.525   4.319   6.980  0.1995  0.0284 -0.0721
   62POPC   C4A 1173   2.795   4.484   6.793  0.1691  0.0309  0.2086
   62POPC   C1B 1174   2.393   4.569   7.576 -0.3255 -0.0786  0.0336
   62POPC   C2B 1175   2.228   4.816   7.262 -0.1445 -0.0570  0.1915
   62POPC   C3B 1176   2.215   4.841   6.838  0.3652  0.2404  0.1618
   62POPC   C4B 1177   2.182   4.777   6.460  0.3833 -0.0849  0.3227
   63POPC   NC3 1178   6.707   4.705   7.589 -0.3632 -0.1825 -0.0780
   63POPC   PO4 1179   6.631   5.163   7.451 -0.2163  0.1823 -0.2585
   63POPC   GL1 1180   6.761   4.949   7.158 -0.1929 -0.2856 -0.3766
   63POPC   GL2 1181   6.596   4.621   7.051  0.0625  0.0795  0.0570
   63POPC   C1A 1182   7.058   4.900   6.878 -0.2228 -0.0006  0.0638
   63POPC   D2A 1183   7.143   4.805   6.375  0.2497  0.2907 -0.0865
   63POPC   C3A 1184   7.328   4.396   6.150  0.2291 -0.2058 -0.2237
   63POPC   C4A 1185   7.354   4.079   5.928 -0.0344 -0.1977  0.2085
   63POPC   C1B 1186   6.495   4.171   6.897  0.3638 -0.3725  0.2980
   63POPC   C2B 1187   6.543   3.957   6.434  0.1077  0.0859 -0.0583
   63POPC   C3B 1188   6.386   3.893   6.059  0.0349  0.0697  0.2269
   63POPC   C4B 1189   5.911   3.707   6.030 -0.0982  0.1617 -0.0543
   64POPC   NC3 1190   4.602   4.041   8.355 -0.0885  0.2708 -0.2542
   64POPC   PO4 1191   4.761   3.858   7.913  0.0757 -0.0489  0.1574
   64POPC   GL1 1192   4.675   3.845   7.490 -0.2800  0.0791  0.0557
   64POPC   GL2 1193   4.677   4.080   7.381  0.1562 -0.0581  0.0747
   64POPC   C1A 1194   5.019   3.859   7.075 -0.0398 -0.1962 -0.1011
   64POPC   D2A 1195   5.025   3.591   6.655 -0.0719 -0.1194 -0.1933
   64POPC   C3A 1196   5.107   3.706   6.354  0.0433  0.0335  0.1472
   64POPC   C4A 1197   5.418   3.705   6.019 -0.5308 -0.1136  0.1129
   64POPC   C1B 1198   4.699   4.220   6.973  0.1527  0.1018 -0.0008
   64POPC   C2B 1199   4.793   4.266   6.575  0.1520  0.0107 -0.0275
   64POPC   C3B 1200   4.629   4.509   6.238 -0.1250 -0.0663 -0.0470
   64POPC   C4B 1201   4.187   4.454   6.098 -0.0096 -0.2982 -0.3623
   65POPC   NC3 1202   5.520   6.363   7.617  0.0181  0.1502 -0.0794
   65POPC   PO4 1203   5.302   6.729   7.790 -0.0319  0.0483  0.1286
   65POPC   GL1 1204   5.277   6.900   7.311  0.1326  0.2496 -0.2955
   65POPC   GL2 1205   5.201   7.165   7.360 -0.3363 -0.0852 -0.0656
   65POPC   C1A 1206   5.426   6.710   7.010 -0.2685  0.4062  0.0305
   65POPC   D2A 1207   5.387   6.412   6.624 -0.1863 -0.0649 -0.2824
   65POPC   C3A 1208   5.247   6.159   6.206 -0.2481 -0.3913  0.0286
   65POPC   C4A 1209   5.145   6.273   5.787 -0.1098  0.3947 -0.1426
   65POPC   C1B 1210   5.086   7.222   6.950  0.3738 -0.3976 -0.1973
   65POPC   C2B 1211   4.796   7.090   6.703  0.3027 -0.0051 -0.0086
   65POPC   C3B 1212   4.359   7.040   6.606 -0.1362  0.1959 -0.0772
   65POPC   C4B 1213   4.153   6.940   6.331  0.1160 -0.0517 -0.1088
   66POPC   NC3 1214   3.007   2.244   8.376  0.0743  0.0115 -0.1216
   66POPC   PO4 1215   2.994   2.700   8.547  0.1230  0.2252  0.1282
   66POPC   GL1 1216   2.960   2.940   8.243 -0.1532  0.0041 -0.0476
   66POPC   GL2 1217   2.887   3.220   8.285 -0.2991  0.2350 -0.1017
   66POPC   C1A 1218   3.022   3.175   7.837  0.1809  0.1387  0.2203
   66POPC   D2A 1219   3.183   3.203   7.480  0.1857 -0.0140  0.2137
   66POPC   C3A 1220   2.976   3.081   7.105  0.2675 -0.2343  0.1989
   66POPC   C4A 1221   2.499   2.995   7.076 -0.2108 -0.1817 -0.1909
   66POPC   C1B 1222   2.757   3.547   8.013  0.1579  0.1039 -0.4540
   66POPC   C2B 1223   3.077   3.680   7.707  0.0217 -0.0607  0.0177
   66POPC   C3B 1224   3.276   4.031   7.442  0.1954 -0.0852 -0.2205
   66POPC   C4B 1225   3.644   4.321   7.416 -0.0036 -0.0047 -0.1563
   67POPC   NC3 1226   3.194   9.116   7.692  0.1065 -0.1016 -0.1276
   67POPC   PO4 1227   3.585   9.254   7.682  0.2390 -0.2704  0.2248
   67POPC   GL1 1228   3.415   9.349   7.213 -0.2826 -0.1628 -0.0363
   67POPC   GL2 1229   3.475   9.614   7.016 -0.0066  0.1129  0.1188
   67POPC   C1A 1230   3.457   9.161   6.818 -0.1156 -0.0018 -0.1816
   67POPC   D2A 1231   3.415   9.463   6.518 -0.0325 -0.0627  0.2795
   67POPC   C3A 1232   3.115   9.747   6.587  0.0915  0.1726 -0.3267
   67POPC   C4A 1233   2.957  10.143   6.427 -0.0795 -0.0949  0.0143
   67POPC   C1B 1234   3.672   9.982   6.686  0.2394  0.0206 -0.2902
   67POPC   C2B 1235   3.429  10.019   6.172 -0.0975  0.4124 -0.0245
   67POPC   C3B 1236   3.431   9.849   5.843  0.0318 -0.2765  0.0980
   67POPC   C4B 1237   3.231   9.676   5.525 -0.3014 -0.2116  0.3116
   68POPC   NC3 1238   9.749  10.010   7.629 -0.1907  0.1191 -0.0469
   68POPC   PO4 1239   9.541  10.461   7.675 -0.0706 -0.2189 -0.0799
   68POPC   GL1 1240   9.533  10.476   7.274 -0.0463  0.0584  0.0517
   68POPC   GL2 1241   9.602  10.775   7.167 -0.2564 -0.1514  0.2405
   68POPC   C1A 1242   9.933  10.568   6.935  0.0764  0.1931  0.3279
   68POPC   D2A 1243   9.932  10.322   6.538  0.0236  0.1996  0.2827
   68POPC   C3A 1244  10.140  10.525   6.186 -0.3486  0.1434 -0.1446
   68POPC   C4A 1245  10.238  10.702   5.821  0.0942  0.1557 -0.2475
   68POPC   C1B 1246   9.376  10.628   6.794 -0.0747 -0.2187 -0.1577
   68POPC   C2B 1247   9.227  10.633   6.414 -0.0807  0.2475  0.0870
   68POPC   C3B 1248   9.292  10.874   6.082 -0.0055 -0.2288  0.0457
   68POPC   C4B 1249   9.194  11.315   5.823 -0.1814  0.1092  0.0338
   69POPC   NC3 1250   1.929   1.349   8.366  0.1601 -0.1157 -0.3534
   69POPC   PO4 1251   2.206   1.078   8.238 -0.1414  0.2108  0.2095
   69POPC   GL1 1252   2.429   1.223   7.916  0.1850  0.1462  0.0125
   69POPC   GL2 1253   2.743   1.264   7.938  0.0625  0.1610  0.1625
   69POPC   C1A 1254   2.400   1.235   7.447 -0.0370 -0.0485 -0.1218
   69POPC   D2A 1255   2.667   1.074   7.081  0.1923  0.4372 -0.1428
   69POPC   C3A 1256   2.786   1.023   6.611  0.4639 -0.0100  0.3140
   69POPC   C4A 1257   3.161   0.996   6.329  0.0540 -0.0886 -0.0968
   69POPC   C1B 1258   2.854   1.179   7.593  0.3918  0.1663  0.2181
   69POPC   C2B 1259   3.021   0.901   7.320 -0.1217  0.0010  0.2261
   69POPC   C3B 1260   3.123   0.918   6.891 -0.0871  0.0411  0.2330
   69POPC   C4B 1261   3.360   0.627   6.708 -0.1282 -0.2909  0.1552
   70POPC   NC3 1262   6.991   0.292   7.456  0.0605  0.0830  0.1858
   70POPC   PO4 1263   6.506   0.297   7.406  0.0955 -0.2530 -0.0662
   70POPC   GL1 1264   6.412   0.613   7.035 -0.3246  0.1132 -0.2954
   70POPC   GL2 1265   6.132   0.710   6.915  0.0446  0.1328 -0.3646
   70POPC   C1A 1266   6.525   0.552   6.648  0.1071 -0.0296  0.3011
   70POPC   D2A 1267   6.888   0.689   6.465  0.3708 -0.2514 -0.0032
   70POPC   C3A 1268   6.984   1.012   6.275 -0.0576  0.2072  0.2691
   70POPC   C4A 1269   7.002   1.185   5.896  0.3196  0.1063  0.0287
   70POPC   C1B 1270   5.940   0.581   6.480 -0.1251  0.2907  0.0675
   70POPC   C2B 1271   6.011   0.587   6.114  0.0010  0.0913 -0.1509
   70POPC   C3B 1272   6.033   0.966   5.957 -0.3246 -0.0536  0.1135
   70POPC   C4B 1273   6.129   1.243   5.596 -0.1469 -0.2128 -0.0983
   71POPC   NC3 1274   0.716   2.728   8.937  0.0438  0.0047  0.1168
   71POPC   PO4 1275   0.699   2.818   8.496 -0.0515 -0.0842  0.0255
   71POPC   GL1 1276   0.895   2.961   8.141  0.0558  0.0904 -0.1976
   71POPC   GL2 1277   0.629   2.934   7.920 -0.0584 -0.2874 -0.1507
   71POPC   C1A 1278   0.960   3.327   7.894  0.2155  0.3142  0.0146
   71POPC   D2A 1279   0.845   3.803   7.689  0.2906 -0.2378  0.0313
   71POPC   C3A 1280   0.793   3.760   7.215 -0.1135 -0.1002  0.0716
   71POPC   C4A 1281   1.153   3.468   6.903 -0.0991  0.0937 -0.0339
   71POPC   C1B 1282   0.692   2.616   7.674  0.1509  0.1240  0.1287
   71POPC   C2B 1283   0.704   2.217   7.332 -0.1079 -0.2715 -0.2105
   71POPC   C3B 1284   0.673   1.882   7.020 -0.0783  0.2710  0.2101
   71POPC   C4B 1285   0.601   1.827   6.551  0.0923 -0.1635  0.2278
   72POPC   NC3 1286   7.305   8.865   7.298 -0.1972  0.0913 -0.3855
   72POPC   PO4 1287   7.712   8.859   7.408 -0.1162 -0.3314 -0.0861
   72POPC   GL1 1288   7.635   8.846   6.912  0.1298  0.1750  0.1311
   72POPC   GL2 1289   7.528   9.099   6.837 -0.0075 -0.0856 -0.0469
   72POPC   C1A 1290   7.330   8.600   6.584 -0.0620 -0.4035  0.2318
   72POPC   D2A 1291   7.428   8.573   6.168 -0.0067 -0.1784  0.0159
   72POPC   C3A 1292   7.537   9.027   5.916  0.3427  0.0258  0.2582
   72POPC   C4A 1293   7.332   9.239   5.770  0.4952 -0.0674 -0.0285
   72POPC   C1B 1294   7.770   8.862   6.425  0.0815  0.0526 -0.0219
   72POPC   C2B 1295   8.213   8.867   6.276 -0.1115 -0.0516  0.2327
   72POPC   C3B 1296   8.578   8.928   5.980 -0.3421 -0.1518  0.2727
   72POPC   C4B 1297   8.943   8.923   5.695 -0.1960 -0.1103  0.4751
   73POPC   NC3 1298   9.897   2.727   8.350 -0.2305  0.1240  0.0497
   73POPC   PO4 1299   9.587   2.954   8.158 -0.0921  0.2347  0.0515
   73POPC   GL1 1300   9.815   3.102   7.868  0.0212 -0.1182 -0.0290
   73POPC   GL2 1301  10.074   3.348   7.735  0.2210 -0.2013 -0.0473
   73POPC   C1A 1302   9.611   3.133   7.461  0.3649 -0.0347 -0.1129
   73POPC   D2A 1303   9.565   3.002   7.110 -0.0298 -0.4490 -0.1645
   73POPC   C3A 1304   9.679   2.831   6.679  0.1730 -0.5684 -0.0794
   73POPC   C4A 1305   9.671   2.543   6.383  0.1393  0.3580 -0.3602
   73POPC   C1B 1306  10.199   3.031   7.567  0.2542 -0.0756  0.1748
   73POPC   C2B 1307  10.498   2.796   7.434 -0.2739 -0.1939  0.2446
   73POPC   C3B 1308  10.531   2.506   7.099  0.0091  0.0600  0.1090
   73POPC   C4B 1309  10.901   2.304   6.784  0.0261  0.1334 -0.0426
   74POPC   NC3 1310   7.791   0.201   7.931 -0.5486  0.1395 -0.1046
   74POPC   PO4 1311   7.485   0.215   7.657  0.2618  0.0744 -0.2770
   74POPC   GL1 1312   7.530   0.222   7.265 -0.0668  0.1215  0.0367
   74POPC   GL2 1313   7.547   0.505   7.172  0.0023  0.1663  0.0543
   74POPC   C1A 1314   7.562   0.077   6.762 -0.0626  0.1122 -0.0435
   74POPC   D2A 1315   7.512  -0.078   6.421 -0.0912  0.0572  0.0000
   74POPC   C3A 1316   7.176  -0.061   6.007 -0.1279  0.3873 -0.2347
   74POPC   C4A 1317   6.992  -0.072   5.600 -0.0235 -0.1540  0.0646
   74POPC   C1B 1318   7.824   0.540   6.789  0.3622  0.3592  0.0017
   74POPC   C2B 1319   7.783   0.655   6.264 -0.0116  0.0185  0.0480
   74POPC   C3B 1320   7.700   1.010   5.941 -0.0689  0.1942 -0.1993
   74POPC   C4B 1321   7.430   1.343   6.002 -0.3438 -0.1372 -0.0941
   75POPC   NC3 1322   4.064   9.559   7.887 -0.1774 -0.2190  0.1769
   75POPC   PO4 1323   4.223   9.973   7.753 -0.0710 -0.1974  0.0484
   75POPC   GL1 1324   4.163  10.032   7.362  0.0862 -0.0646 -0.1492
   75POPC   GL2 1325   3.976   9.907   7.099  0.0929 -0.0989  0.1720
   75POPC   C1A 1326   4.349  10.170   6.966 -0.3663  0.0050  0.1458
   75POPC   D2A 1327   4.808  10.263   6.715  0.1843  0.2315  0.4080
   75POPC   C3A 1328   4.956  10.358   6.361  0.0386  0.0491  0.1689
   75POPC   C4A 1329   4.937  10.331   5.894 -0.0687 -0.1796  0.1564
   75POPC   C1B 1330   3.904   9.532   6.723 -0.0902  0.0980  0.0560
   75POPC   C2B 1331   3.842   9.697   6.331 -0.0555 -0.0610  0.0924
   75POPC   C3B 1332   4.071   9.784   5.847  0.0502  0.4261 -0.0171
   75POPC   C4B 1333   4.331   9.552   5.490 -0.1705 -0.3628 -0.1734
   76POPC   NC3 1334   5.251   2.530   7.763 -0.3393  0.2781 -0.0372
   76POPC   PO4 1335   5.490   2.848   7.782 -0.0742 -0.2069  0.0095
   76POPC   GL1 1336   5.271   2.914   7.374 -0.1532 -0.0803  0.1939
   76POPC   GL2 1337   5.409   2.605   7.266  0.0163  0.0643 -0.3940
   76POPC   C1A 1338   4.863   2.841   7.343  0.1919 -0.3236  0.0167
   76POPC   D2A 1339   4.433   2.654   7.332  0.0558  0.0859  0.1493
   76POPC   C3A 1340   4.026   2.791   7.472 -0.4086 -0.0466  0.0452
   76POPC   C4A 1341   3.814   3.234   7.596  0.0737 -0.3657  0.2335
   76POPC   C1B 1342   5.428   2.447   6.832 -0.0480 -0.0352 -0.0229
   76POPC   C2B 1343   5.614   2.043   6.651  0.0569  0.1093  0.2176
   76POPC   C3B 1344   5.723   1.927   6.184  0.0010  0.0350  0.3096
   76POPC   C4B 1345   5.891   2.102   5.798  0.2458  0.0794 -0.0329
   77POPC   NC3 1346   5.292   8.926   7.417 -0.1595 -0.1775 -0.1077
   77POPC   PO4 1347   5.268   9.056   7.078 -0.1613  0.0563 -0.2367
   77POPC   GL1 1348   5.613   9.152   6.841  0.0143  0.1724 -0.1007
   77POPC   GL2 1349   5.590   9.424   6.893  0.1486 -0.1065 -0.1712
   77POPC   C1A 1350   6.019   9.000   6.709  0.0053  0.0792  0.1465
   77POPC   D2A 1351   6.365   8.606   6.676 -0.1939  0.0318  0.0686
   77POPC   C3A 1352   6.477   8.552   6.278 -0.1478  0.0051  0.2686
   77POPC   C4A 1353   6.471   8.576   5.901  0.0905  0.2649  0.0598
   77POPC   C1B 1354   5.670   9.409   6.431  0.1203 -0.0155 -0.0893
   77POPC   C2B 1355   5.735   9.345   6.014  0.2248  0.0830  0.0096
   77POPC   C3B 1356   5.683   8.975   5.756 -0.0752  0.0962 -0.0154
   77POPC   C4B 1357   5.581   8.916   5.363  0.1314  0.1890  0.1137
   78POPC   NC3 1358   7.867   5.500   7.569  0.0289 -0.0764 -0.0748
   78POPC   PO4 1359   7.402   5.505   7.510 -0.0242  0.2198  0.0643
   78POPC   GL1 1360   7.479   5.503   7.094  0.3440 -0.1762 -0.0526
   78POPC   GL2 1361   7.759   5.699   7.107  0.0821  0.0464 -0.0249
   78POPC   C1A 1362   7.471   5.258   6.750  0.1352  0.1153  0.1450
   78POPC   D2A 1363   7.399   5.283   6.276 -0.1512 -0.1929 -0.0649
   78POPC   C3A 1364   7.131   5.478   5.991 -0.0566 -0.1379 -0.1828
   78POPC   C4A 1365   7.422   5.444   5.723  0.1355  0.3175  0.1512
   78POPC   C1B 1366   7.668   5.859   6.585  0.4853  0.0833  0.1893
   78POPC   C2B 1367   7.595   5.706   6.106  0.2465  0.2455 -0.0122
   78POPC   C3B 1368   7.682   5.903   5.733  0.0415 -0.0740  0.0155
   78POPC   C4B 1369   7.867   6.322   5.622 -0.3586  0.1848 -0.3626
   79POPC   NC3 1370   1.995   8.611   8.238  0.3373  0.0250  0.0702
   79POPC   PO4 1371   2.269   8.750   7.764  0.0916 -0.1797 -0.1201
   79POPC   GL1 1372   2.305   9.011   7.331 -0.0375  0.2913 -0.0147
   79POPC   GL2 1373   1.965   8.975   7.157 -0.4228  0.0598  0.1554
   79POPC   C1A 1374   2.385   9.204   6.912 -0.3048 -0.1130 -0.0259
   79POPC   D2A 1375   2.298   9.401   6.448 -0.2105  0.1172 -0.0453
   79POPC   C3A 1376   2.621   9.776   6.226 -0.0480  0.0236 -0.0631
   79POPC   C4A 1377   2.462  10.043   5.919  0.1665 -0.0939 -0.3179
   79POPC   C1B 1378   1.948   9.020   6.772  0.2486 -0.1192  0.0067
   79POPC   C2B 1379   1.809   9.349   6.507  0.3207  0.0092 -0.0239
   79POPC   C3B 1380   1.600   9.396   6.090  0.0021  0.1474  0.0346
   79POPC   C4B 1381   1.684   9.576   5.711 -0.0214 -0.0778  0.2309
   80POPC   NC3 1382   3.067   1.348   8.322  0.2062 -0.1724  0.1090
   80POPC   PO4 1383   3.011   1.767   8.317  0.0950 -0.0177 -0.4439
   80POPC   GL1 1384   2.803   1.732   8.046 -0.2740  0.0069  0.3114
   80POPC   GL2 1385   2.620   2.059   8.095  0.2949  0.1554 -0.0052
   80POPC   C1A 1386   2.624   1.694   7.679 -0.1866 -0.1523  0.1856
   80POPC   D2A 1387   2.303   1.715   7.337 -0.0238 -0.0404  0.0996
   80POPC   C3A 1388   2.236   1.388   7.009 -0.2027 -0.0798 -0.1212
   80POPC   C4A 1389   1.699   1.356   6.992  0.2091  0.0723  0.1827
   80POPC   C1B 1390   2.264   2.078   7.766 -0.2402 -0.0719 -0.3194
   80POPC   C2B 1391   1.901   1.903   7.624 -0.0283 -0.0528 -0.1887
   80POPC   C3B 1392   1.875   1.413   7.408  0.3827  0.1599 -0.1887
   80POPC   C4B 1393   1.939   0.990   7.541  0.0747 -0.1892  0.0528
   81POPC   NC3 1394   8.560   9.683   7.933 -0.0582 -0.0105 -0.0829
   81POPC   PO4 1395   8.071   9.701   7.922 -0.0455  0.2926  0.2425
   81POPC   GL1 1396   8.163   9.586   7.512  0.3161  0.5170  0.1992
   81POPC   GL2 1397   8.517   9.762   7.393  0.4521  0.0270 -0.0171
   81POPC   C1A 1398   8.233   9.569   7.066 -0.1292 -0.0623  0.2744
   81POPC   D2A 1399   8.384   9.715   6.662  0.0194 -0.2687  0.2005
   81POPC   C3A 1400   8.404   9.417   6.346  0.2435  0.0929  0.1707
   81POPC   C4A 1401   8.361   9.360   5.943  0.0643  0.3298  0.2277
   81POPC   C1B 1402   8.853   9.778   6.928  0.2338  0.0702 -0.1503
   81POPC   C2B 1403   8.809   9.819   6.420 -0.2255 -0.0601  0.0207
   81POPC   C3B 1404   9.160   9.753   6.080 -0.3226  0.1251  0.1822
   81POPC   C4B 1405   9.246   9.496   5.640 -0.0710  0.0879 -0.0441
   82POPC   NC3 1406   1.863   6.988   7.779 -0.1705 -0.2438  0.2909
   82POPC   PO4 1407   1.537   7.406   7.695  0.5242 -0.1036 -0.1068
   82POPC   GL1 1408   1.795   7.255   7.365 -0.3173  0.1876  0.2785
   82POPC   GL2 1409   1.792   7.421   7.034  0.1801  0.1952 -0.0345
   82POPC   C1A 1410   1.700   6.872   7.137  0.0842 -0.2483  0.1581
   82POPC   D2A 1411   1.668   6.483   7.122  0.2354  0.0107  0.4343
   82POPC   C3A 1412   1.592   6.314   6.757 -0.1942 -0.2059 -0.2071
   82POPC   C4A 1413   1.591   6.128   6.350  0.2453 -0.1004 -0.0140
   82POPC   C1B 1414   1.894   7.864   6.884  0.1622 -0.0216 -0.5562
   82POPC   C2B 1415   2.176   8.174   6.691  0.1155 -0.0797  0.1468
   82POPC   C3B 1416   2.223   8.394   6.322 -0.0278 -0.0237  0.0929
   82POPC   C4B 1417   2.029   8.394   6.006  0.3037  0.2474  0.1098
   83POPC   NC3 1418   5.457   7.226   7.807 -0.1745 -0.1668 -0.5104
   83POPC   PO4 1419   5.331   7.583   7.527 -0.0630 -0.2170  0.0126
   83POPC   GL1 1420   5.471   7.558   7.073 -0.2037 -0.1312 -0.0660
   83POPC   GL2 1421   5.621   7.155   6.932 -0.0553  0.2503 -0.0245
   83POPC   C1A 1422   5.426   7.468   6.650  0.2356 -0.0583  0.2253
   83POPC   D2A 1423   5.353   7.425   6.339  0.1755  0.3959 -0.1086
   83POPC   C3A 1424   5.005   7.144   6.266  0.0630 -0.1159  0.2929
   83POPC   C4A 1425   4.632   7.005   6.144 -0.0925  0.1414 -0.2490
   83POPC   C1B 1426   5.445   6.945   6.532  0.2876 -0.1570 -0.0092
   83POPC   C2B 1427   5.522   6.719   6.146  0.1136  0.0297 -0.1689
   83POPC   C3B 1428   5.457   6.671   5.777  0.1765  0.0484  0.2822
   83POPC   C4B 1429   5.221   6.618   5.392 -0.0410 -0.1011 -0.1003
   84POPC   NC3 1430   1.147   8.517   7.360  0.4809  0.1416 -0.1338
   84POPC   PO4 1431   1.529   8.780   7.424 -0.1493 -0.0911  0.1948
   84POPC   GL1 1432   1.483   8.761   7.011  0.0807 -0.0543 -0.0264
   84POPC   GL2 1433   1.192   8.824   6.945  0.0717  0.0310 -0.0669
   84POPC   C1A 1434   1.707   8.612   6.645  0.0386 -0.2344  0.1137
   84POPC   D2A 1435   1.969   8.846   6.314  0.1786 -0.0649 -0.1542
   84POPC   C3A 1436   2.446   8.914   6.428  0.1913 -0.1297  0.4052
   84POPC   C4A 1437   2.784   9.031   6.108 -0.1903 -0.1075 -0.2215
   84POPC   C1B 1438   0.909   8.926   6.523  0.1180 -0.1199  0.0022
   84POPC   C2B 1439   0.625   8.824   6.314 -0.0211  0.3318  0.1703
   84POPC   C3B 1440   0.376   8.837   5.859  0.1831  0.2055 -0.2023
   84POPC   C4B 1441   0.137   8.582   5.574 -0.0782 -0.1202  0.7137
   85POPC   NC3 1442   7.956   0.055   7.401 -0.1068  0.0787  0.1095
   85POPC   PO4 1443   7.982   0.502   7.567  0.4006  0.1644  0.1021
   85POPC   GL1 1444   8.086   0.561   7.204  0.5216  0.0017  0.2725
   85POPC   GL2 1445   8.406   0.425   7.140  0.1337 -0.0565 -0.0746
   85POPC   C1A 1446   8.089   0.861   6.987  0.0387  0.0034  0.1159
   85POPC   D2A 1447   7.903   1.093   6.700  0.0852 -0.2050 -0.1026
   85POPC   C3A 1448   8.135   1.470   6.492 -0.3712 -0.1181 -0.0115
   85POPC   C4A 1449   8.068   1.831   6.281 -0.2322 -0.2710 -0.1447
   85POPC   C1B 1450   8.304   0.515   6.736 -0.0406 -0.0751 -0.1589
   85POPC   C2B 1451   8.490   0.795   6.367 -0.3558 -0.1334  0.1468
   85POPC   C3B 1452   8.426   1.174   6.136  0.0448 -0.0150  0.0264
   85POPC   C4B 1453   8.468   1.554   6.067  0.1246  0.2010  0.1377
   86POPC   NC3 1454   6.763   6.944   7.369 -0.0678 -0.2854 -0.0822
   86POPC   PO4 1455   6.721   6.391   7.461 -0.0830  0.2353 -0.4823
   86POPC   GL1 1456   6.557   6.499   7.080  0.0891 -0.1654 -0.2240
   86POPC   GL2 1457   6.281   6.286   7.034  0.1120  0.3177 -0.0518
   86POPC   C1A 1458   6.604   6.586   6.661 -0.1356  0.1909 -0.2675
   86POPC   D2A 1459   6.661   6.730   6.319  0.1110 -0.1970 -0.0151
   86POPC   C3A 1460   6.722   6.645   5.987 -0.2466  0.0888 -0.0074
   86POPC   C4A 1461   6.854   6.391   5.587  0.1899  0.1019 -0.0540
   86POPC   C1B 1462   6.253   6.258   6.670  0.0450 -0.0385 -0.0707
   86POPC   C2B 1463   6.228   6.398   6.201 -0.1202 -0.1262 -0.0242
   86POPC   C3B 1464   5.777   6.335   6.036 -0.1566  0.2449 -0.1271
   86POPC   C4B 1465   5.577   6.063   5.842  0.0748  0.2436  0.0302
   87POPC   NC3 1466   4.799   0.140   7.805  0.3752  0.0332  0.1179
   87POPC   PO4 1467   4.652  -0.070   7.561 -0.1504  0.2350  0.1210
   87POPC   GL1 1468   4.744  -0.317   7.176  0.1279  0.3558  0.4094
   87POPC   GL2 1469   4.517  -0.541   7.325 -0.3184  0.1352 -0.0268
   87POPC   C1A 1470   4.837  -0.512   6.783  0.2084  0.2500  0.0966
   87POPC   D2A 1471   4.878  -0.316   6.396  0.0771 -0.0807  0.1231
   87POPC   C3A 1472   4.837  -0.400   5.920 -0.1612  0.0430  0.0571
   87POPC   C4A 1473   4.896  -0.264   5.411 -0.1627  0.2143  0.2980
   87POPC   C1B 1474   4.338  -0.522   6.823 -0.1633  0.2534 -0.0830
   87POPC   C2B 1475   4.288  -0.325   6.460  0.0071  0.0672  0.2610
   87POPC   C3B 1476   4.426  -0.111   6.055 -0.1513  0.0519  0.0105
   87POPC   C4B 1477   4.283   0.269   5.834  0.0576 -0.2395 -0.1922
   88POPC   NC3 1478  10.023   7.445   7.293  0.1824 -0.1247 -0.3433
   88POPC   PO4 1479  10.240   7.931   7.400 -0.2367  0.2721  0.2627
   88POPC   GL1 1480  10.427   7.672   7.079  0.3457 -0.3128 -0.0879
   88POPC   GL2 1481  10.642   7.382   6.923 -0.0771  0.2276 -0.0372
   88POPC   C1A 1482  10.384   7.625   6.572 -0.1929  0.4541 -0.1245
   88POPC   D2A 1483  10.558   7.848   6.284  0.1645 -0.1456  0.2571
   88POPC   C3A 1484  10.928   7.766   6.125  0.0075 -0.1520  0.1009
   88POPC   C4A 1485  11.221   7.674   5.767  0.0277  0.1654 -0.1764
   88POPC   C1B 1486  10.290   7.063   6.771 -0.3082 -0.0824  0.0699
   88POPC   C2B 1487  10.082   6.915   6.352  0.0132 -0.1472 -0.1402
   88POPC   C3B 1488  10.081   6.619   6.013 -0.0786  0.0855  0.0852
   88POPC   C4B 1489  10.196   6.812   5.650 -0.1136  0.0087 -0.0502
   89POPC   NC3 1490   8.568   4.977   7.774 -0.0958 -0.3334  0.0360
   89POPC   PO4 1491   8.139   5.086   7.593 -0.1609 -0.0066  0.3736
   89POPC   GL1 1492   8.423   5.267   7.240  0.0536  0.2300  0.0587
   89POPC   GL2 1493   8.164   5.408   7.090 -0.0658 -0.2723 -0.0975
   89POPC   C1A 1494   8.938   5.248   7.124  0.2053  0.3683 -0.4604
   89POPC   D2A 1495   9.194   5.204   6.677 -0.1036  0.1125 -0.2874
   89POPC   C3A 1496   9.240   4.764   6.567 -0.0774 -0.2652  0.1936
   89POPC   C4A 1497   9.160   4.603   6.058 -0.3663  0.1499 -0.0218
   89POPC   C1B 1498   8.328   5.501   6.738  0.2088 -0.1592  0.0000
   89POPC   C2B 1499   8.585   5.474   6.369 -0.1643  0.0798  0.0154
   89POPC   C3B 1500   8.402   5.130   6.174  0.1195 -0.2577 -0.1239
   89POPC   C4B 1501   8.261   5.121   5.807 -0.0825 -0.1685 -0.1587
   90POPC   NC3 1502   9.226   7.943   7.479 -0.2363 -0.1934 -0.1402
   90POPC   PO4 1503   9.015   7.616   7.303  0.0376  0.0737 -0.2617
   90POPC   GL1 1504   8.964   7.595   7.013 -0.0628 -0.3504  0.4039
   90POPC   GL2 1505   9.199   7.368   6.924  0.0130 -0.0151 -0.3291
   90POPC   C1A 1506   8.850   7.996   6.789  0.1603 -0.0898 -0.2855
   90POPC   D2A 1507   8.568   8.388   6.879 -0.2277  0.0131  0.2248
   90POPC   C3A 1508   8.182   8.475   6.612 -0.0442  0.1438 -0.1659
   90POPC   C4A 1509   7.782   8.268   6.607  0.0190 -0.1372  0.0923
   90POPC   C1B 1510   9.199   7.209   6.474  0.0680  0.1032 -0.2110
   90POPC   C2B 1511   9.125   7.476   6.104  0.0576  0.0482  0.2176
   90POPC   C3B 1512   9.001   7.539   5.737  0.0856 -0.1428  0.2218
   90POPC   C4B 1513   8.928   7.198   5.469 -0.1143  0.0231 -0.1254
   91POPC   NC3 1514   8.139   2.430   7.970 -0.1237  0.2249 -0.0916
   91POPC   PO4 1515   8.507   2.326   7.734  0.0800 -0.0582  0.1558
   91POPC   GL1 1516   8.572   2.196   7.372  0.0787  0.0704 -0.1353
   91POPC   GL2 1517   8.688   2.495   7.253  0.1281 -0.0486 -0.1862
   91POPC   C1A 1518   8.684   2.163   6.916  0.0808 -0.1657  0.1005
   91POPC   D2A 1519   8.797   2.400   6.569  0.0456  0.0185 -0.0866
   91POPC   C3A 1520   8.568   2.260   6.106 -0.2402  0.2032  0.0459
   91POPC   C4A 1521   8.276   2.285   5.762 -0.1069  0.0864  0.2825
   91POPC   C1B 1522   8.485   2.642   6.910  0.0244  0.2450  0.0135
   91POPC   C2B 1523   8.300   2.714   6.471 -0.1915 -0.1195  0.0637
   91POPC   C3B 1524   8.144   2.795   6.080 -0.1826  0.0541  0.2284
   91POPC   C4B 1525   8.044   3.061   5.761  0.0848 -0.1874  0.1718
   92POPC   NC3 1526   4.844   8.791   7.241  0.5598 -0.3100  0.2830
   92POPC   PO4 1527   5.108   8.506   7.205  0.3060  0.1919  0.1464
   92POPC   GL1 1528   5.018   8.548   6.755  0.0895  0.3318 -0.1320
   92POPC   GL2 1529   4.702   8.468   6.881  0.0507  0.1206  0.1857
   92POPC   C1A 1530   5.085   8.534   6.269 -0.0443  0.0143 -0.1325
   92POPC   D2A 1531   4.878   8.383   5.943 -0.0854 -0.1271  0.3701
   92POPC   C3A 1532   4.762   7.936   5.738  0.0250 -0.0668 -0.2619
   92POPC   C4A 1533   4.569   7.635   5.747 -0.1842  0.1784 -0.3546
   92POPC   C1B 1534   4.847   8.954   6.552 -0.0652  0.1728 -0.1274
   92POPC   C2B 1535   5.160   9.322   6.455 -0.0845 -0.1047  0.0549
   92POPC   C3B 1536   5.214   9.481   5.996 -0.1198  0.1985 -0.1959
   92POPC   C4B 1537   5.210   9.534   5.562  0.1425  0.1350 -0.0770
   93POPC   NC3 1538   4.365   6.025   7.751 -0.3823  0.1500  0.1872
   93POPC   PO4 1539   4.672   6.069   7.517  0.0828  0.1772 -0.1262
   93POPC   GL1 1540   4.562   6.218   7.148 -0.1190 -0.3435  0.1130
   93POPC   GL2 1541   4.333   6.158   6.921 -0.1280 -0.1363 -0.1114
   93POPC   C1A 1542   4.484   6.677   6.924  0.2711 -0.0312 -0.3114
   93POPC   D2A 1543   4.315   6.530   6.526  0.1197  0.0551 -0.2800
   93POPC   C3A 1544   4.379   6.551   6.100 -0.1941  0.3022  0.1942
   93POPC   C4A 1545   4.372   6.591   5.708 -0.0529  0.0202  0.1246
   93POPC   C1B 1546   4.429   5.626   6.749  0.0677 -0.2020  0.3018
   93POPC   C2B 1547   4.538   5.291   6.576 -0.0643 -0.2639 -0.1200
   93POPC   C3B 1548   4.784   4.998   6.343  0.2663  0.1747 -0.1345
   93POPC   C4B 1549   4.717   4.942   5.807 -0.1455 -0.2372 -0.3469
   94POPC   NC3 1550   0.861   7.427   7.398  0.0141  0.0613  0.4121
   94POPC   PO4 1551   0.737   7.098   7.690 -0.3327 -0.0440 -0.2263
   94POPC   GL1 1552   0.639   6.879   7.307  0.0441 -0.3167 -0.1296
   94POPC   GL2 1553   0.826   6.532   7.238 -0.1747 -0.1851  0.0116
   94POPC   C1A 1554   0.819   6.842   6.830  0.4670 -0.0409  0.2395
   94POPC   D2A 1555   1.222   7.122   6.549 -0.0259  0.0035  0.1439
   94POPC   C3A 1556   1.347   7.249   6.149  0.0725  0.1935 -0.2722
   94POPC   C4A 1557   1.578   7.435   5.767 -0.0517 -0.2448  0.0218
   94POPC   C1B 1558   1.115   6.406   6.853  0.0748  0.2002 -0.0218
   94POPC   C2B 1559   1.143   6.549   6.429 -0.0591 -0.0035  0.1873
   94POPC   C3B 1560   1.358   6.552   6.083  0.3015  0.2364  0.0019
   94POPC   C4B 1561   1.460   6.869   5.826 -0.2469 -0.1115  0.2958
   95POPC   NC3 1562   3.271   7.604   7.500 -0.1655 -0.1221  0.0327
   95POPC   PO4 1563   3.256   7.188   7.592  0.2673  0.1235 -0.1275
   95POPC   GL1 1564   3.270   7.215   7.136  0.1250  0.2785  0.0336
   95POPC   GL2 1565   3.581   7.068   7.096 -0.1914  0.0954  0.0022
   95POPC   C1A 1566   3.106   6.952   6.797 -0.1242 -0.1339  0.0630
   95POPC   D2A 1567   3.031   6.796   6.410 -0.0361 -0.0852  0.2974
   95POPC   C3A 1568   2.906   7.116   6.112  0.1363  0.0758  0.3039
   95POPC   C4A 1569   2.878   7.490   6.026  0.1165 -0.0583 -0.1071
   95POPC   C1B 1570   3.868   7.330   6.879 -0.1176 -0.0074 -0.0443
   95POPC   C2B 1571   3.814   7.316   6.391  0.1546  0.0869 -0.0956
   95POPC   C3B 1572   3.552   7.492   6.065  0.0853 -0.1598  0.1167
   95POPC   C4B 1573   3.572   7.861   5.684  0.0375 -0.3228 -0.0615
   96POPC   NC3 1574   2.618   8.470   7.912 -0.1986  0.0831  0.0554
   96POPC   PO4 1575   2.735   8.040   7.944  0.0412  0.3020 -0.2660
   96POPC   GL1 1576   2.993   8.014   7.522  0.0694 -0.0913  0.1867
   96POPC   GL2 1577   2.825   7.842   7.323 -0.1590  0.0436  0.1463
   96POPC   C1A 1578   3.054   8.337   7.163  0.0396 -0.1215 -0.0994
   96POPC   D2A 1579   3.190   8.512   6.630 -0.0515  0.0229  0.0047
   96POPC   C3A 1580   3.474   8.261   6.242  0.0886  0.2887  0.0424
   96POPC   C4A 1581   3.437   8.352   5.813 -0.0935 -0.0871  0.2797
   96POPC   C1B 1582   2.625   8.148   6.926 -0.3078  0.3305  0.0983
   96POPC   C2B 1583   2.696   8.372   6.577 -0.0552  0.1307 -0.1502
   96POPC   C3B 1584   2.774   8.498   6.155  0.0305  0.0877 -0.2442
   96POPC   C4B 1585   2.512   8.316   5.819 -0.0292  0.2899  0.3404
   97POPC   NC3 1586   9.954   8.392   7.349  0.1822  0.1699 -0.0833
   97POPC   PO4 1587   9.713   8.036   7.296  0.0506 -0.1231  0.0402
   97POPC   GL1 1588   9.937   7.863   6.954  0.2463 -0.1133 -0.1905
   97POPC   GL2 1589   9.807   7.551   6.870  0.0465 -0.0829  0.3569
   97POPC   C1A 1590   9.915   7.939   6.530  0.2914  0.2605  0.0483
   97POPC   D2A 1591  10.113   7.806   6.049 -0.0184 -0.0352 -0.0015
   97POPC   C3A 1592  10.049   7.638   5.653 -0.0652 -0.2225 -0.1322
   97POPC   C4A 1593  10.020   7.318   5.335 -0.1280 -0.0284 -0.0371
   97POPC   C1B 1594   9.959   7.444   6.389  0.2445 -0.1758 -0.2204
   97POPC   C2B 1595   9.997   7.260   5.947 -0.0232  0.0507  0.0959
   97POPC   C3B 1596   9.737   7.000   5.686 -0.0424 -0.0468 -0.2382
   97POPC   C4B 1597   9.479   6.578   5.843  0.2218  0.0962  0.1693
   98POPC   NC3 1598   1.180   4.648   8.759 -0.2380  0.1793 -0.1020
   98POPC   PO4 1599   0.879   4.343   8.682  0.1032 -0.1326 -0.1045
   98POPC   GL1 1600   1.032   4.291   8.262  0.0897 -0.3084 -0.2669
   98POPC   GL2 1601   1.109   3.956   8.160  0.1428 -0.1656 -0.2168
   98POPC   C1A 1602   1.213   4.454   7.840 -0.0865  0.0375 -0.1080
   98POPC   D2A 1603   1.352   4.833   7.596 -0.0587 -0.1209  0.3038
   98POPC   C3A 1604   1.282   5.170   7.497  0.0339 -0.2236  0.2587
   98POPC   C4A 1605   1.308   5.374   7.133  0.0535 -0.0398  0.1695
   98POPC   C1B 1606   1.336   3.694   7.906 -0.1584  0.0143  0.2932
   98POPC   C2B 1607   1.767   3.602   7.892  0.1026  0.1078 -0.0925
   98POPC   C3B 1608   2.135   3.573   8.011 -0.0854  0.1259 -0.0401
   98POPC   C4B 1609   2.417   3.679   7.672 -0.4938 -0.1309  0.0804
   99POPC   NC3 1610   0.727   3.659   8.800  0.0126  0.2798 -0.0796
   99POPC   PO4 1611   0.474   3.976   8.892 -0.0333  0.0253 -0.0364
   99POPC   GL1 1612   0.633   3.983   8.431  0.1512 -0.2268  0.3385
   99POPC   GL2 1613   0.377   4.155   8.250  0.1235  0.2530 -0.4527
   99POPC   C1A 1614   0.673   3.711   8.140 -0.3015 -0.2083  0.1215
   99POPC   D2A 1615   0.436   3.431   8.030  0.1847  0.0619 -0.3606
   99POPC   C3A 1616   0.479   3.375   7.596 -0.1340 -0.2231  0.1245
   99POPC   C4A 1617   0.884   3.232   7.302 -0.0222  0.0254  0.2858
   99POPC   C1B 1618   0.645   4.188   7.944 -0.0453 -0.2115  0.2105
   99POPC   C2B 1619   0.600   4.203   7.455  0.0376  0.0781 -0.1945
   99POPC   C3B 1620   0.404   4.283   7.082 -0.2856  0.0633 -0.0152
   99POPC   C4B 1621   0.212   4.488   6.819 -0.0271 -0.3776  0.0851
  100POPC   NC3 1622   5.455   8.155   7.876  0.1481 -0.1573  0.1229
  100POPC   PO4 1623   5.180   8.067   7.525  0.0421 -0.1831  0.1719
  100POPC   GL1 1624   5.315   8.062   7.101 -0.0170  0.0887  0.1511
  100POPC   GL2 1625   5.042   8.066   6.914  0.3494  0.1281 -0.4092
  100POPC   C1A 1626   5.395   8.216   6.675  0.1986  0.1407 -0.0455
  100POPC   D2A 1627   5.304   7.988   6.327  0.0435  0.0418 -0.1251
  100POPC   C3A 1628   5.342   8.096   5.851  0.0260 -0.1296 -0.0340
  100POPC   C4A 1629   5.121   8.146   5.479  0.0264 -0.2268 -0.1206
  100POPC   C1B 1630   4.876   8.153   6.505  0.2180 -0.3143 -0.1395
  100POPC   C2B 1631   4.693   7.951   6.242  0.2632  0.3756 -0.0519
  100POPC   C3B 1632   4.972   7.675   6.072 -0.2540 -0.1201  0.0782
  100POPC   C4B 1633   5.137   7.570   5.636 -0.1038  0.1238  0.3066
  101POPC   NC3 1634   7.812   4.485   7.783 -0.0149 -0.1222  0.0412
  101POPC   PO4 1635   7.634   4.698   7.457 -0.0625  0.4112  0.4070
  101POPC   GL1 1636   7.585   4.526   7.072  0.0301 -0.0042  0.0781
  101POPC   GL2 1637   7.608   4.767   6.810 -0.1197 -0.2405 -0.1823
  101POPC   C1A 1638   7.179   4.349   6.763 -0.1869 -0.0027  0.1717
  101POPC   D2A 1639   6.703   4.486   6.537  0.0705 -0.0973  0.1713
  101POPC   C3A 1640   6.353   4.608   6.652  0.0990 -0.2620  0.0397
  101POPC   C4A 1641   6.142   4.498   7.025  0.0456 -0.0997  0.0118
  101POPC   C1B 1642   7.901   4.996   6.682 -0.1108  0.1971 -0.1358
  101POPC   C2B 1643   8.379   5.032   6.772  0.1092  0.0898 -0.1321
  101POPC   C3B 1644   8.727   5.214   6.710  0.1267 -0.1238 -0.0120
  101POPC   C4B 1645   8.950   5.133   6.274  0.0866 -0.0428  0.1017
  102POPC   NC3 1646   9.827   1.548   7.956  0.0739 -0.1491  0.1542
  102POPC   PO4 1647  10.162   1.832   8.122 -0.0669  0.0471  0.2207
  102POPC   GL1 1648  10.219   1.851   7.714 -0.0723 -0.4049 -0.2304
  102POPC   GL2 1649  10.586   1.748   7.564 -0.0602  0.1004 -0.0847
  102POPC   C1A 1650   9.998   1.746   7.275 -0.2997  0.1954  0.1464
  102POPC   D2A 1651  10.024   1.778   6.747 -0.1955 -0.0874 -0.3036
  102POPC   C3A 1652   9.920   2.116   6.543  0.0582 -0.0929 -0.1085
  102POPC   C4A 1653  10.162   2.450   6.658 -0.0145 -0.2421 -0.0542
  102POPC   C1B 1654  10.366   2.060   7.256 -0.2821  0.1479  0.1094
  102POPC   C2B 1655  10.409   2.078   6.798  0.1673  0.1357  0.5303
  102POPC   C3B 1656  10.374   2.018   6.315  0.0730  0.3867  0.1035
  102POPC   C4B 1657  10.292   2.290   5.948  0.0768  0.2160 -0.2767
  103POPC   NC3 1658   8.208   7.995   7.772 -0.2601  0.2740 -0.1557
  103POPC   PO4 1659   7.901   7.881   7.471 -0.0228 -0.0895 -0.0843
  103POPC   GL1 1660   7.928   7.734   7.087  0.2880 -0.1573  0.1825
  103POPC   GL2 1661   7.921   7.463   7.073  0.1131  0.1235 -0.1097
  103POPC   C1A 1662   8.083   7.825   6.794  0.2182 -0.1945  0.0628
  103POPC   D2A 1663   8.392   8.036   6.605  0.0438  0.1444  0.0402
  103POPC   C3A 1664   8.649   7.970   6.335  0.0978 -0.0824  0.1203
  103POPC   C4A 1665   9.024   8.010   5.989  0.1295 -0.2168  0.0383
  103POPC   C1B 1666   7.558   7.709   6.731 -0.1954  0.2289 -0.1153
  103POPC   C2B 1667   7.567   7.760   6.296 -0.2241  0.1125  0.0384
  103POPC   C3B 1668   7.556   8.117   5.916 -0.1020  0.2170 -0.0554
  103POPC   C4B 1669   7.360   8.413   5.566 -0.0274 -0.1403  0.2480
  104POPC   NC3 1670   1.684   3.023   8.740 -0.2327 -0.0485 -0.2554
  104POPC   PO4 1671   1.687   2.627   8.559 -0.1023 -0.0858 -0.2788
  104POPC   GL1 1672   1.529   2.650   8.055 -0.0088 -0.2071  0.0274
  104POPC   GL2 1673   1.490   3.045   8.085  0.1294 -0.0746 -0.0392
  104POPC   C1A 1674   1.285   2.660   7.743 -0.0418 -0.1187  0.1484
  104POPC   D2A 1675   1.092   2.635   7.306 -0.1753  0.3263 -0.1982
  104POPC   C3A 1676   1.469   2.963   7.224 -0.0738 -0.3543 -0.0300
  104POPC   C4A 1677   1.703   3.317   6.981 -0.1655 -0.2873  0.1789
  104POPC   C1B 1678   1.449   3.204   7.724  0.2149 -0.2017 -0.1502
  104POPC   C2B 1679   1.472   3.589   7.387 -0.0574 -0.2972 -0.2936
  104POPC   C3B 1680   1.269   4.043   7.381 -0.2072 -0.1463 -0.1228
  104POPC   C4B 1681   1.598   4.206   7.297 -0.1972 -0.0919  0.0824
  105POPC   NC3 1682   2.206   2.602   8.754 -0.2028  0.0299 -0.2982
  105POPC   PO4 1683   2.131   3.130   8.873 -0.2908  0.4075  0.0866
  105POPC   GL1 1684   2.114   3.096   8.445 -0.2744  0.1811  0.1662
  105POPC   GL2 1685   2.359   3.227   8.326  0.1810 -0.0193 -0.0735
  105POPC   C1A 1686   1.959   2.917   8.031 -0.1924 -0.1244  0.0721
  105POPC   D2A 1687   1.822   2.811   7.623  0.2336 -0.0520 -0.0422
  105POPC   C3A 1688   1.584   2.427   7.458 -0.0587  0.1743  0.0549
  105POPC   C4A 1689   1.521   2.458   7.081  0.3904 -0.0842  0.0285
  105POPC   C1B 1690   2.467   3.102   7.916  0.1738 -0.2645  0.0985
  105POPC   C2B 1691   2.257   3.103   7.618  0.0035 -0.3527 -0.3663
  105POPC   C3B 1692   1.920   3.311   7.509 -0.0726 -0.1505  0.1863
  105POPC   C4B 1693   1.939   3.812   7.362  0.1117 -0.0561 -0.0817
  106POPC   NC3 1694   6.272   6.664   7.432  0.0426  0.1981 -0.0383
  106POPC   PO4 1695   6.263   7.036   7.562 -0.2814 -0.2811  0.0559
  106POPC   GL1 1696   6.202   7.293   7.109 -0.0731  0.2328 -0.1582
  106POPC   GL2 1697   6.410   7.085   6.982 -0.1145  0.4024 -0.0906
  106POPC   C1A 1698   6.567   7.415   6.702 -0.1049  0.0425  0.1368
  106POPC   D2A 1699   6.514   7.582   6.309 -0.0753 -0.0708  0.2611
  106POPC   C3A 1700   6.104   7.658   6.149  0.0352  0.0025  0.1415
  106POPC   C4A 1701   5.642   7.673   5.990  0.1543  0.1475 -0.1571
  106POPC   C1B 1702   6.336   6.964   6.610 -0.1461 -0.4765  0.2216
  106POPC   C2B 1703   6.404   7.099   6.136 -0.1657  0.1557 -0.3636
  106POPC   C3B 1704   6.299   7.243   5.876  0.3976 -0.0260 -0.0964
  106POPC   C4B 1705   6.156   7.082   5.356  0.3550 -0.0194  0.1556
  107POPC   NC3 1706   0.773   8.873   7.218 -0.0061  0.3167  0.1396
  107POPC   PO4 1707   0.366   8.806   7.235 -0.1638 -0.1549  0.0493
  107POPC   GL1 1708   0.041   8.923   7.022  0.0457  0.3661  0.1419
  107POPC   GL2 1709   0.241   8.722   6.695  0.1237 -0.0847  0.0314
  107POPC   C1A 1710  -0.110   9.330   6.703  0.2304  0.0041  0.0949
  107POPC   D2A 1711  -0.223   9.439   6.324  0.0254  0.0891  0.1502
  107POPC   C3A 1712  -0.508   9.769   6.186 -0.0172  0.0519 -0.0224
  107POPC   C4A 1713  -0.706  10.051   5.819  0.2692  0.2782  0.2539
  107POPC   C1B 1714   0.022   8.918   6.366 -0.1455 -0.1047 -0.1025
  107POPC   C2B 1715  -0.145   9.074   5.948  0.2377 -0.0916  0.2142
  107POPC   C3B 1716   0.131   9.181   5.570  0.0346  0.0683 -0.2395
  107POPC   C4B 1717   0.154   9.619   5.374 -0.0758 -0.1683  0.0302
  108POPC   NC3 1718   7.005   2.048   7.944 -0.0958 -0.1329  0.1274
  108POPC   PO4 1719   6.725   2.259   7.637  0.0376  0.3847 -0.3061
  108POPC   GL1 1720   6.816   2.363   7.297  0.1820  0.0195  0.1604
  108POPC   GL2 1721   6.860   2.627   7.306 -0.0547  0.3857  0.1524
  108POPC   C1A 1722   6.856   2.255   6.877 -0.2718  0.1875 -0.0789
  108POPC   D2A 1723   6.918   2.001   6.423 -0.3223 -0.1610 -0.0575
  108POPC   C3A 1724   6.892   1.905   5.954  0.0826 -0.1987 -0.0903
  108POPC   C4A 1725   6.753   2.058   5.566  0.0471 -0.1682  0.3653
  108POPC   C1B 1726   7.062   2.851   6.888 -0.1473 -0.2491 -0.1130
  108POPC   C2B 1727   7.050   2.694   6.514  0.2794  0.1028  0.0012
  108POPC   C3B 1728   7.241   2.378   6.177 -0.2316  0.0091 -0.0654
  108POPC   C4B 1729   7.251   2.426   5.639 -0.2498  0.1490 -0.0096
  109POPC   NC3 1730   9.704   6.817   7.941  0.1551  0.5073 -0.0884
  109POPC   PO4 1731   9.976   6.566   7.728 -0.1067 -0.2601 -0.1482
  109POPC   GL1 1732  10.088   6.512   7.379 -0.0793 -0.3154 -0.1596
  109POPC   GL2 1733  10.383   6.528   7.380  0.0568  0.1165  0.0950
  109POPC   C1A 1734  10.072   6.589   6.836 -0.0151 -0.0987 -0.1897
  109POPC   D2A 1735  10.091   6.338   6.426 -0.0775 -0.1961 -0.1009
  109POPC   C3A 1736  10.455   6.342   6.132  0.1506 -0.1610  0.1342
  109POPC   C4A 1737  10.974   6.492   6.092  0.1011  0.0577 -0.0920
  109POPC   C1B 1738  10.475   6.443   7.085 -0.1958 -0.1144  0.1786
  109POPC   C2B 1739  10.572   6.684   6.636 -0.0463 -0.5213 -0.2879
  109POPC   C3B 1740  10.530   6.827   6.191  0.1403 -0.1156  0.0024
  109POPC   C4B 1741  10.550   7.342   6.101  0.1465  0.2345 -0.1313
  110POPC   NC3 1742   6.340   0.843   7.498  0.0603 -0.0605 -0.0050
  110POPC   PO4 1743   5.888   1.074   7.672  0.2194 -0.0347 -0.2459
  110POPC   GL1 1744   5.868   1.003   7.281 -0.1200  0.2154 -0.0194
  110POPC   GL2 1745   6.140   1.176   7.165 -0.1215 -0.0145  0.4815
  110POPC   C1A 1746   5.738   1.139   6.868  0.2067 -0.0205 -0.1458
  110POPC   D2A 1747   5.790   1.078   6.431 -0.1598  0.4161 -0.1765
  110POPC   C3A 1748   5.555   0.872   6.145 -0.0652 -0.0684 -0.0517
  110POPC   C4A 1749   5.617   0.882   5.609  0.2583 -0.4393  0.0113
  110POPC   C1B 1750   6.136   1.421   6.805 -0.1037 -0.2444  0.0146
  110POPC   C2B 1751   6.099   1.801   6.496  0.2586  0.0148 -0.0092
  110POPC   C3B 1752   6.387   1.805   6.107 -0.1923 -0.0786 -0.3051
  110POPC   C4B 1753   6.302   1.706   5.768 -0.2835 -0.0600 -0.0256
  111POPC   NC3 1754   9.247   3.792   8.195 -0.0343  0.6904 -0.3469
  111POPC   PO4 1755   9.042   3.733   7.877 -0.0023  0.0699 -0.1086
  111POPC   GL1 1756   9.057   3.599   7.554  0.1790 -0.1314 -0.0870
  111POPC   GL2 1757   9.023   3.282   7.552 -0.1938 -0.2673 -0.1490
  111POPC   C1A 1758   9.302   3.535   7.230 -0.1177  0.0530  0.0484
  111POPC   D2A 1759   9.480   3.668   6.871 -0.3681 -0.1763 -0.4125
  111POPC   C3A 1760   9.587   3.356   6.631  0.0036  0.1846  0.1696
  111POPC   C4A 1761   9.880   3.174   6.340  0.0896  0.0717  0.0761
  111POPC   C1B 1762   8.748   3.420   7.263  0.3339 -0.2718  0.2984
  111POPC   C2B 1763   8.780   3.636   6.774  0.0044  0.0730 -0.2071
  111POPC   C3B 1764   8.344   3.664   6.740 -0.0229 -0.3722  0.2906
  111POPC   C4B 1765   7.931   3.608   6.737  0.3541 -0.2168 -0.2592
  112POPC   NC3 1766   0.826   9.322   7.830  0.0470 -0.0595  0.1732
  112POPC   PO4 1767   0.588   9.685   7.775  0.1018 -0.0472 -0.0682
  112POPC   GL1 1768   0.705   9.879   7.377 -0.1813  0.0359 -0.1294
  112POPC   GL2 1769   0.540  10.165   7.453  0.3315  0.2305  0.0043
  112POPC   C1A 1770   0.861   9.850   6.903 -0.2857 -0.0835 -0.0367
  112POPC   D2A 1771   0.905   9.993   6.427 -0.1321  0.0375  0.0714
  112POPC   C3A 1772   0.742  10.259   6.253 -0.3165 -0.2036 -0.0448
  112POPC   C4A 1773   0.580  10.384   5.859  0.2719  0.2582 -0.1889
  112POPC   C1B 1774   0.184  10.323   7.152 -0.3233 -0.1757  0.0330
  112POPC   C2B 1775  -0.221  10.096   7.066  0.1338 -0.2593 -0.1024
  112POPC   C3B 1776  -0.676  10.061   6.864  0.1914 -0.2458 -0.0954
  112POPC   C4B 1777  -1.056  10.183   6.826 -0.1012  0.4662 -0.1652
  113POPC   NC3 1778   3.433   3.140   8.385  0.0559  0.1402  0.0375
  113POPC   PO4 1779   3.715   2.854   8.108  0.1727 -0.0857 -0.2079
  113POPC   GL1 1780   3.502   2.812   7.725 -0.1778 -0.1342  0.0779
  113POPC   GL2 1781   3.563   2.450   7.572  0.0102  0.0177  0.2918
  113POPC   C1A 1782   3.398   2.758   7.300  0.1218 -0.0920  0.5170
  113POPC   D2A 1783   3.313   2.765   6.887 -0.0468 -0.0889 -0.2844
  113POPC   C3A 1784   3.286   3.072   6.732 -0.0927  0.2686  0.2031
  113POPC   C4A 1785   3.548   3.327   6.496 -0.0057  0.2377 -0.3636
  113POPC   C1B 1786   3.378   2.280   7.129 -0.1075  0.0922  0.0391
  113POPC   C2B 1787   3.176   2.020   6.911 -0.0908  0.1952 -0.0800
  113POPC   C3B 1788   3.361   1.538   6.968 -0.2177  0.6090 -0.1400
  113POPC   C4B 1789   3.456   1.255   6.737  0.0709 -0.0586  0.1784
  114POPC   NC3 1790   3.280   4.967   9.001  0.2388  0.2508  0.1325
  114POPC   PO4 1791   3.572   4.784   8.661 -0.1819  0.0608  0.1142
  114POPC   GL1 1792   3.292   4.734   8.145 -0.0540  0.0646  0.3583
  114POPC   GL2 1793   3.037   4.985   8.037  0.2345 -0.0908 -0.2235
  114POPC   C1A 1794   3.479   4.707   7.721  0.1840 -0.0739 -0.0464
  114POPC   D2A 1795   3.123   4.542   7.444 -0.1703 -0.1260 -0.0160
  114POPC   C3A 1796   2.853   4.829   7.412 -0.2031  0.0724 -0.0787
  114POPC   C4A 1797   2.530   5.042   7.686  0.2744 -0.1824  0.1273
  114POPC   C1B 1798   3.227   5.201   7.692  0.2114  0.1592 -0.2449
  114POPC   C2B 1799   3.208   5.270   7.288  0.1267  0.0330  0.2700
  114POPC   C3B 1800   3.529   5.230   6.959  0.0914 -0.3028  0.3612
  114POPC   C4B 1801   3.727   5.102   6.784 -0.0285  0.0963  0.2325
  115POPC   NC3 1802   5.230   0.435   8.075 -0.0364 -0.4733  0.1601
  115POPC   PO4 1803   5.303   0.043   7.800 -0.1103 -0.0012  0.1078
  115POPC   GL1 1804   5.153   0.049   7.362  0.0544 -0.3346  0.1944
  115POPC   GL2 1805   4.891   0.174   7.187 -0.2190  0.0844 -0.3154
  115POPC   C1A 1806   5.171  -0.213   6.962 -0.0528 -0.0478  0.1365
  115POPC   D2A 1807   5.361  -0.402   6.629 -0.0998 -0.0588  0.0904
  115POPC   C3A 1808   5.384  -0.358   6.233  0.1525  0.1146 -0.1129
  115POPC   C4A 1809   5.349  -0.208   5.932 -0.2276  0.0297 -0.2626
  115POPC   C1B 1810   5.223   0.344   6.802 -0.0603  0.0813 -0.0290
  115POPC   C2B 1811   5.506   0.702   6.686  0.4465 -0.1990  0.3004
  115POPC   C3B 1812   5.321   1.127   6.599  0.1602 -0.1634  0.0005
  115POPC   C4B 1813   5.063   1.316   6.237  0.1327  0.3293 -0.0641
  116POPC   NC3 1814   3.107   5.565   8.541 -0.3091  0.0883  0.4028
  116POPC   PO4 1815   2.774   5.426   8.222  0.0614 -0.1812  0.1772
  116POPC   GL1 1816   2.402   5.502   7.945 -0.5807  0.1746  0.1748
  116POPC   GL2 1817   2.513   5.690   7.766  0.0018  0.0502 -0.0604
  116POPC   C1A 1818   2.205   5.419   7.430  0.0530 -0.0695  0.1730
  116POPC   D2A 1819   1.913   5.253   7.211  0.0050 -0.1359 -0.1660
  116POPC   C3A 1820   1.908   5.229   6.729 -0.1203 -0.0155 -0.0401
  116POPC   C4A 1821   1.739   5.234   6.232 -0.2974 -0.3583 -0.0663
  116POPC   C1B 1822   2.561   5.750   7.242  0.2964 -0.0953 -0.3217
  116POPC   C2B 1823   2.661   5.808   6.814 -0.0015 -0.1905 -0.0115
  116POPC   C3B 1824   2.589   5.995   6.416  0.0187 -0.1216 -0.0410
  116POPC   C4B 1825   2.617   5.764   6.027  0.3498  0.2141 -0.3085
  117POPC   NC3 1826   3.892   8.429   7.382 -0.0879  0.1162 -0.3123
  117POPC   PO4 1827   4.406   8.535   7.289  0.4875 -0.0289  0.1422
  117POPC   GL1 1828   4.313   8.870   6.953  0.1013 -0.1544  0.0718
  117POPC   GL2 1829   4.571   9.158   6.946 -0.1398 -0.0464 -0.0129
  117POPC   C1A 1830   4.102   9.060   6.599 -0.3887  0.0947  0.2687
  117POPC   D2A 1831   3.790   9.177   6.396 -0.0050 -0.0829  0.0267
  117POPC   C3A 1832   3.462   8.919   6.334  0.0773  0.0855 -0.1333
  117POPC   C4A 1833   3.210   8.727   6.085  0.1234 -0.2742  0.0957
  117POPC   C1B 1834   4.535   9.387   6.519 -0.0800 -0.2154  0.2439
  117POPC   C2B 1835   4.248   9.416   6.225  0.0209  0.1920 -0.1434
  117POPC   C3B 1836   4.065   9.306   5.921  0.4709  0.2549 -0.3163
  117POPC   C4B 1837   3.775   8.967   5.751  0.0238 -0.0380 -0.3363
  118POPC   NC3 1838   0.579   6.451   7.726  0.2656  0.0149  0.1074
  118POPC   PO4 1839   0.233   6.315   7.960 -0.0921  0.1632 -0.3266
  118POPC   GL1 1840   0.288   6.067   7.546  0.1015 -0.0231 -0.1570
  118POPC   GL2 1841   0.660   6.088   7.408  0.1626  0.2236 -0.2345
  118POPC   C1A 1842   0.258   5.785   7.221  0.2116 -0.1723  0.2362
  118POPC   D2A 1843   0.402   5.684   6.798 -0.0060  0.2532 -0.3709
  118POPC   C3A 1844   0.277   5.411   6.517  0.0572  0.1212  0.0181
  118POPC   C4A 1845   0.057   5.408   6.128  0.0046  0.2097  0.1034
  118POPC   C1B 1846   0.661   6.073   6.982 -0.0325  0.0016 -0.0270
  118POPC   C2B 1847   0.303   6.167   6.655 -0.0419 -0.2437  0.2885
  118POPC   C3B 1848   0.371   5.838   6.238 -0.1515 -0.2458 -0.1809
  118POPC   C4B 1849   0.588   5.491   6.016  0.0414 -0.1534  0.0123
  119POPC   NC3 1850   6.000   8.552   7.587  0.3153  0.0191  0.2616
  119POPC   PO4 1851   5.601   8.502   7.508  0.4587 -0.1612 -0.2896
  119POPC   GL1 1852   5.764   8.380   7.106  0.2380 -0.0152 -0.2103
  119POPC   GL2 1853   5.548   8.568   7.024 -0.2245  0.0238 -0.0829
  119POPC   C1A 1854   5.984   8.297   6.718  0.5035  0.1646  0.0532
  119POPC   D2A 1855   6.002   8.619   6.362  0.2146  0.0283  0.2171
  119POPC   C3A 1856   6.085   8.881   6.190  0.0718  0.1030  0.2537
  119POPC   C4A 1857   6.186   9.379   6.140 -0.1594  0.1508 -0.0370
  119POPC   C1B 1858   5.528   8.671   6.542  0.0720 -0.0672 -0.1756
  119POPC   C2B 1859   5.453   8.950   6.228  0.4106 -0.0927  0.2548
  119POPC   C3B 1860   5.003   8.987   6.045 -0.0354  0.0186  0.2062
  119POPC   C4B 1861   4.716   9.297   6.047 -0.1185  0.0832 -0.1420
  120POPC   NC3 1862   3.772   6.875   7.535  0.2997  0.1012  0.0443
  120POPC   PO4 1863   3.472   6.734   7.684 -0.1755 -0.1150 -0.0870
  120POPC   GL1 1864   3.160   6.703   7.244  0.2803 -0.0285 -0.4966
  120POPC   GL2 1865   3.482   6.553   7.100 -0.1242 -0.0634 -0.0969
  120POPC   C1A 1866   2.977   6.420   7.044  0.0646 -0.1658  0.1657
  120POPC   D2A 1867   3.006   6.129   6.712  0.0037  0.2514 -0.1657
  120POPC   C3A 1868   3.066   6.256   6.333 -0.2267  0.0985 -0.0585
  120POPC   C4A 1869   2.865   6.165   6.018 -0.1204  0.0255  0.0454
  120POPC   C1B 1870   3.343   6.488   6.660 -0.3179  0.0054  0.2273
  120POPC   C2B 1871   3.558   6.111   6.405 -0.0325 -0.2276  0.0078
  120POPC   C3B 1872   3.499   5.772   6.091 -0.1175 -0.3446 -0.2953
  120POPC   C4B 1873   3.619   5.441   5.734  0.0466 -0.0568  0.0857
  121POPC   NC3 1874   7.221   0.938   8.109 -0.2889 -0.5200  0.0185
  121POPC   PO4 1875   7.088   1.153   7.784 -0.1095  0.2252  0.0582
  121POPC   GL1 1876   7.202   1.193   7.358  0.2042  0.1650  0.1562
  121POPC   GL2 1877   7.282   0.954   7.205  0.1423  0.1590 -0.1116
  121POPC   C1A 1878   7.148   1.292   6.857 -0.2268 -0.1998 -0.0483
  121POPC   D2A 1879   7.023   1.494   6.494  0.2510 -0.1119 -0.2524
  121POPC   C3A 1880   7.315   1.824   6.238  0.0477  0.0811 -0.2442
  121POPC   C4A 1881   7.644   1.831   5.945 -0.2543 -0.3516 -0.0409
  121POPC   C1B 1882   7.416   0.860   6.850 -0.0386 -0.0493  0.1291
  121POPC   C2B 1883   7.457   0.985   6.499 -0.3951 -0.0538  0.0894
  121POPC   C3B 1884   7.288   0.725   6.036 -0.0413 -0.1924 -0.2709
  121POPC   C4B 1885   7.091   0.473   5.791 -0.3959 -0.0380  0.0870
  122POPC   NC3 1886   2.028   8.494   7.447 -0.3419 -0.2659 -0.1030
  122POPC   PO4 1887   1.653   8.308   7.545  0.0192  0.3336  0.0503
  122POPC   GL1 1888   1.495   8.160   7.159  0.0021 -0.3846 -0.1355
  122POPC   GL2 1889   1.312   8.233   6.921 -0.0829  0.0651 -0.0636
  122POPC   C1A 1890   1.408   7.761   6.814 -0.2703  0.0908 -0.1314
  122POPC   D2A 1891   1.548   7.652   6.384  0.1667  0.0253 -0.0345
  122POPC   C3A 1892   1.893   7.479   6.122 -0.0571  0.0274 -0.1098
  122POPC   C4A 1893   2.147   7.536   5.650  0.2394  0.2819 -0.3434
  122POPC   C1B 1894   1.585   8.140   6.497 -0.0175 -0.0141  0.1100
  122POPC   C2B 1895   1.948   7.925   6.339 -0.2970 -0.1309 -0.1074
  122POPC   C3B 1896   2.200   7.927   5.942 -0.2093 -0.4198  0.2745
  122POPC   C4B 1897   2.546   7.855   5.642  0.0422 -0.1621 -0.1038
  123POPC   NC3 1898   2.269   5.871   8.312  0.0020 -0.2325 -0.0066
  123POPC   PO4 1899   1.840   5.924   8.408 -0.2014 -0.1195 -0.0131
  123POPC   GL1 1900   1.834   5.704   7.934 -0.3637 -0.1173 -0.0918
  123POPC   GL2 1901   1.992   5.772   7.646 -0.2080 -0.0282  0.0272
  123POPC   C1A 1902   1.749   5.336   7.701 -0.1860 -0.3506  0.1056
  123POPC   D2A 1903   1.886   5.028   7.637  0.1739 -0.0601 -0.0871
  123POPC   C3A 1904   1.798   4.514   7.730  0.1202 -0.0560  0.2743
  123POPC   C4A 1905   1.621   4.121   7.774 -0.0107  0.2033 -0.0201
  123POPC   C1B 1906   1.702   5.705   7.309  0.1189  0.1222  0.0021
  123POPC   C2B 1907   1.689   5.741   6.813 -0.3468 -0.1584  0.1890
  123POPC   C3B 1908   1.864   5.717   6.366 -0.4285 -0.0184 -0.1699
  123POPC   C4B 1909   2.123   5.574   6.036 -0.3769 -0.0586 -0.0224
  124POPC   NC3 1910   1.938   6.172   8.010  0.0617 -0.0094  0.4273
  124POPC   PO4 1911   1.953   6.523   7.753 -0.3743  0.1040 -0.2500
  124POPC   GL1 1912   2.086   6.222   7.508 -0.1830  0.0667  0.1286
  124POPC   GL2 1913   2.449   6.230   7.426  0.3265  0.5981  0.0629
  124POPC   C1A 1914   2.021   6.019   7.116 -0.1643  0.0709  0.0536
  124POPC   D2A 1915   2.183   5.958   6.741  0.0018  0.3643  0.1842
  124POPC   C3A 1916   2.052   6.252   6.507 -0.0800 -0.0874 -0.3198
  124POPC   C4A 1917   2.030   6.115   6.082  0.1012  0.1311 -0.1706
  124POPC   C1B 1918   2.504   6.228   7.067 -0.1210  0.0424  0.1632
  124POPC   C2B 1919   2.601   6.453   6.717 -0.4500 -0.1165  0.0362
  124POPC   C3B 1920   2.462   6.553   6.289  0.1154 -0.0033 -0.2284
  124POPC   C4B 1921   2.241   6.614   5.917 -0.1193 -0.1340 -0.0678
  125POPC   NC3 1922   2.668   0.398   8.554 -0.0287  0.1465  0.0046
  125POPC   PO4 1923   2.472   0.266   8.061 -0.2739  0.1585 -0.0732
  125POPC   GL1 1924   2.467   0.392   7.634  0.1722 -0.2430 -0.0974
  125POPC   GL2 1925   2.598   0.730   7.555 -0.2568  0.0223 -0.0664
  125POPC   C1A 1926   2.193   0.642   7.373  0.3986 -0.0779  0.0341
  125POPC   D2A 1927   2.066   0.914   7.090  0.5208 -0.1524 -0.2281
  125POPC   C3A 1928   1.838   0.828   6.744  0.0293 -0.0870  0.1638
  125POPC   C4A 1929   1.559   0.488   6.685 -0.1877  0.0453 -0.5581
  125POPC   C1B 1930   2.536   0.595   7.038 -0.0914 -0.3364  0.0966
  125POPC   C2B 1931   2.410   0.753   6.681 -0.0294 -0.1771 -0.4618
  125POPC   C3B 1932   2.282   1.156   6.628 -0.0069  0.2324  0.2644
  125POPC   C4B 1933   2.063   1.298   6.162  0.3330  0.4274 -0.1085
  126POPC   NC3 1934   2.767   7.149   7.905  0.2925 -0.0302  0.1603
  126POPC   PO4 1935   2.863   7.556   7.724  0.1830 -0.1579 -0.0262
  126POPC   GL1 1936   2.785   7.315   7.421 -0.4274 -0.1264  0.2938
  126POPC   GL2 1937   2.762   7.016   7.418 -0.1213  0.2519  0.2137
  126POPC   C1A 1938   2.573   7.314   6.988 -0.1558  0.1916  0.1038
  126POPC   D2A 1939   2.386   7.697   6.760  0.1934  0.2403  0.0675
  126POPC   C3A 1940   2.011   7.466   6.609 -0.1598 -0.3678 -0.0950
  126POPC   C4A 1941   1.695   7.200   6.593 -0.1901  0.0120 -0.3258
  126POPC   C1B 1942   2.615   6.829   7.065  0.0544 -0.0772  0.1507
  126POPC   C2B 1943   2.619   6.946   6.658 -0.1546  0.1629 -0.3843
  126POPC   C3B 1944   2.825   7.288   6.599  0.4226  0.0139  0.1926
  126POPC   C4B 1945   2.989   7.580   6.889  0.1158 -0.0962  0.0699
  127POPC   NC3 1946   5.048   9.801   7.571  0.1498 -0.2946  0.0862
  127POPC   PO4 1947   5.541   9.871   7.573  0.3140 -0.2652  0.3432
  127POPC   GL1 1948   5.663   9.852   7.138 -0.0256  0.0031 -0.2824
  127POPC   GL2 1949   5.619  10.154   7.048  0.0389 -0.0271 -0.2660
  127POPC   C1A 1950   5.924   9.903   6.690 -0.0718 -0.1168 -0.0621
  127POPC   D2A 1951   5.918   9.826   6.228 -0.0554  0.1411 -0.3468
  127POPC   C3A 1952   6.282   9.820   5.896 -0.0141 -0.0614 -0.1161
  127POPC   C4A 1953   6.715  10.004   5.994 -0.0930  0.0652 -0.2561
  127POPC   C1B 1954   5.607  10.297   6.576  0.2184  0.0915 -0.1078
  127POPC   C2B 1955   5.481  10.395   6.329  0.1393  0.0178  0.1872
  127POPC   C3B 1956   5.432  10.580   5.948  0.0169 -0.0195  0.2830
  127POPC   C4B 1957   5.455  10.427   5.566 -0.1964 -0.2351 -0.2256
  128POPC   NC3 1958   7.594   1.643   8.105 -0.1252 -0.0497  0.1374
  128POPC   PO4 1959   7.743   2.118   7.909 -0.1612  0.2037 -0.0756
  128POPC   GL1 1960   7.703   1.884   7.563 -0.0114 -0.1726 -0.2311
  128POPC   GL2 1961   7.457   1.589   7.604 -0.0232 -0.2772 -0.4335
  128POPC   C1A 1962   7.613   2.006   7.134 -0.4256  0.2811  0.0469
  128POPC   D2A 1963   7.479   1.786   6.741 -0.1791  0.1907 -0.1362
  128POPC   C3A 1964   7.594   1.494   6.467 -0.0143 -0.0590  0.4773
  128POPC   C4A 1965   7.887   1.435   6.092 -0.3655  0.1102  0.1315
  128POPC   C1B 1966   7.651   1.532   7.248 -0.0500 -0.2732  0.2307
  128POPC   C2B 1967   7.883   1.553   6.937  0.3495  0.1445 -0.2048
  128POPC   C3B 1968   8.007   1.891   6.770  0.0515  0.0518  0.0088
  128POPC   C4B 1969   8.253   2.178   6.567  0.2082  0.0701  0.0841
  129POPC   NC3 1970   6.132   1.438   7.932 -0.2465  0.3063  0.0287
  129POPC   PO4 1971   6.556   1.269   7.651 -0.2555 -0.0107  0.4210
  129POPC   GL1 1972   6.708   1.135   7.322  0.0354  0.1063  0.0985
  129POPC   GL2 1973   6.750   1.351   7.090  0.0669  0.3722 -0.0565
  129POPC   C1A 1974   6.886   0.775   6.955 -0.0292  0.0150 -0.2280
  129POPC   D2A 1975   7.202   0.420   6.880 -0.1605  0.0639  0.0893
  129POPC   C3A 1976   7.354   0.446   6.472 -0.0736 -0.2090  0.1602
  129POPC   C4A 1977   7.491   0.299   6.088  0.3394 -0.3573 -0.0532
  129POPC   C1B 1978   6.573   1.120   6.788 -0.3222  0.2077  0.2285
  129POPC   C2B 1979   6.423   1.030   6.419  0.0304  0.0479 -0.1017
  129POPC   C3B 1980   6.503   0.842   6.017  0.0776 -0.0156  0.0352
  129POPC   C4B 1981   6.469   0.882   5.592 -0.0413  0.0809 -0.1814
  130POPC   NC3 1982   9.091   9.077   7.647 -0.1435 -0.0604  0.0263
  130POPC   PO4 1983   9.539   8.870   7.523  0.0198  0.1455  0.2446
  130POPC   GL1 1984   9.724   8.834   7.064 -0.0513 -0.1379  0.0593
  130POPC   GL2 1985   9.678   8.455   6.901  0.3517  0.0155 -0.3254
  130POPC   C1A 1986   9.721   8.904   6.598 -0.0832  0.1011 -0.1125
  130POPC   D2A 1987   9.833   8.721   6.182 -0.0358 -0.3145 -0.5383
  130POPC   C3A 1988   9.842   8.382   5.922  0.0513 -0.0344 -0.0514
  130POPC   C4A 1989  10.036   8.152   5.660 -0.0273 -0.1671 -0.0249
  130POPC   C1B 1990   9.176   8.411   6.848 -0.2618  0.2976 -0.1045
  130POPC   C2B 1991   8.942   8.421   6.479 -0.3482 -0.2880 -0.0079
  130POPC   C3B 1992   8.576   8.455   6.199 -0.0027 -0.0071  0.2808
  130POPC   C4B 1993   8.195   8.178   6.193 -0.1479  0.0667 -0.0025
  131POPC   NC3 1994   0.999   6.124   8.597 -0.2481 -0.0012  0.0264
  131POPC   PO4 1995   0.951   6.303   8.102  0.0971 -0.1827 -0.1477
  131POPC   GL1 1996   1.037   6.051   7.786 -0.0976  0.2192 -0.0622
  131POPC   GL2 1997   1.161   6.192   7.441 -0.0360  0.0896  0.0385
  131POPC   C1A 1998   1.074   5.720   7.375  0.3477  0.1282  0.6036
  131POPC   D2A 1999   0.861   5.477   6.951 -0.3365 -0.0216  0.0433
  131POPC   C3A 2000   0.837   5.724   6.515  0.2147 -0.2646 -0.0289
  131POPC   C4A 2001   0.791   6.186   6.498  0.1293 -0.2439  0.1943
  131POPC   C1B 2002   1.322   6.041   7.124  0.1340 -0.1157  0.1369
  131POPC   C2B 2003   1.216   5.955   6.742 -0.3159  0.0640  0.1419
  131POPC   C3B 2004   1.383   5.665   6.323  0.2251 -0.1747 -0.0811
  131POPC   C4B 2005   1.518   5.816   5.835  0.3336 -0.0570 -0.2342
  132POPC   NC3 2006   7.138   3.883   7.873  0.0640 -0.1546 -0.2940
  132POPC   PO4 2007   6.916   4.294   7.770 -0.5902  0.4881  0.0184
  132POPC   GL1 2008   6.949   4.077   7.325 -0.0850 -0.2492  0.2745
  132POPC   GL2 2009   7.011   3.778   7.411 -0.2322  0.4303  0.1273
  132POPC   C1A 2010   6.949   3.931   6.874  0.3177  0.3516 -0.2696
  132POPC   D2A 2011   7.261   3.926   6.501 -0.1349 -0.1351 -0.3214
  132POPC   C3A 2012   7.085   3.700   6.143  0.0843 -0.3260  0.0524
  132POPC   C4A 2013   7.333   3.580   5.855  0.2236  0.1811 -0.0550
  132POPC   C1B 2014   7.373   3.886   7.094  0.0310  0.3335  0.0787
  132POPC   C2B 2015   7.676   4.106   6.773 -0.1765  0.2109  0.2072
  132POPC   C3B 2016   7.710   4.439   6.502 -0.0583  0.0522  0.0842
  132POPC   C4B 2017   7.644   4.794   6.264 -0.0929 -0.1204  0.0239
  133POPC   NC3 2018   6.965   5.480   7.307 -0.1694  0.0738 -0.2142
  133POPC   PO4 2019   7.297   5.970   7.225 -0.1750  0.0947  0.2624
  133POPC   GL1 2020   7.235   5.959   6.843 -0.1088 -0.2511 -0.0729
  133POPC   GL2 2021   7.011   5.648   6.763 -0.1970 -0.3849  0.0089
  133POPC   C1A 2022   7.098   5.858   6.330 -0.0180 -0.1323 -0.0852
  133POPC   D2A 2023   7.141   5.953   5.908  0.1251 -0.1415  0.1600
  133POPC   C3A 2024   7.301   6.328   5.740 -0.2648  0.2524  0.1130
  133POPC   C4A 2025   7.501   6.481   5.376  0.1213 -0.1155 -0.0155
  133POPC   C1B 2026   6.842   5.192   6.515 -0.1044  0.0699  0.2064
  133POPC   C2B 2027   6.670   4.923   6.266  0.1208 -0.0572 -0.1353
  133POPC   C3B 2028   6.955   4.668   5.972  0.0774  0.0676 -0.2934
  133POPC   C4B 2029   7.168   4.494   5.615  0.0049  0.0125  0.1294
  134POPC   NC3 2030   8.019   3.448   7.689 -0.1652  0.0558 -0.0985
  134POPC   PO4 2031   7.777   3.095   7.533 -0.0866 -0.1944 -0.0027
  134POPC   GL1 2032   7.825   2.872   7.203 -0.1686 -0.1315 -0.0961
  134POPC   GL2 2033   7.877   3.071   6.864  0.0780 -0.2713 -0.2622
  134POPC   C1A 2034   7.552   2.719   6.852  0.2517 -0.0047 -0.0744
  134POPC   D2A 2035   7.436   2.982   6.557 -0.0311  0.3546  0.0176
  134POPC   C3A 2036   7.624   3.004   6.127  0.4631 -0.4255  0.0194
  134POPC   C4A 2037   7.549   2.915   5.592  0.2796 -0.1682  0.4300
  134POPC   C1B 2038   7.990   3.185   6.420  0.0083  0.3669  0.2000
  134POPC   C2B 2039   8.449   3.304   6.274 -0.1076 -0.0950 -0.3527
  134POPC   C3B 2040   8.715   3.731   6.260  0.2722  0.0534  0.0056
  134POPC   C4B 2041   8.662   4.096   6.546 -0.2757 -0.1262  0.1520
  135POPC   NC3 2042   7.420   7.721   7.421  0.2352 -0.0378 -0.2853
  135POPC   PO4 2043   7.038   7.519   7.300 -0.1680  0.1564  0.2521
  135POPC   GL1 2044   7.360   7.361   7.064 -0.1291  0.1558  0.0762
  135POPC   GL2 2045   7.147   7.380   6.656  0.2392  0.1005 -0.3211
  135POPC   C1A 2046   7.663   7.169   6.772 -0.0561  0.1267  0.0382
  135POPC   D2A 2047   7.855   7.216   6.376  0.1767  0.0843  0.1221
  135POPC   C3A 2048   7.842   7.307   5.977 -0.1867  0.1347 -0.1265
  135POPC   C4A 2049   8.055   7.174   5.572  0.2570 -0.0645 -0.2211
  135POPC   C1B 2050   7.368   7.179   6.328  0.1707  0.1649  0.0446
  135POPC   C2B 2051   7.408   7.416   5.948  0.0239  0.1029  0.2717
  135POPC   C3B 2052   7.324   7.765   5.574  0.0721  0.0987 -0.1974
  135POPC   C4B 2053   7.280   7.895   5.210  0.1643  0.0931  0.1771
  136POPC   NC3 2054   8.737   4.072   7.456 -0.0843 -0.2244 -0.2534
  136POPC   PO4 2055   8.812   4.506   7.657 -0.1497 -0.1171  0.0078
  136POPC   GL1 2056   9.005   4.475   7.298 -0.4135  0.2109  0.0802
  136POPC   GL2 2057   9.261   4.633   7.168 -0.1130 -0.0829  0.0769
  136POPC   C1A 2058   9.165   4.320   6.841  0.1671 -0.0940  0.1329
  136POPC   D2A 2059   9.209   4.308   6.402  0.0964  0.0206 -0.0179
  136POPC   C3A 2060   9.605   4.244   6.180  0.0612 -0.1882  0.1597
  136POPC   C4A 2061   9.757   4.611   5.963 -0.2206  0.0058  0.1423
  136POPC   C1B 2062   8.905   4.790   6.939  0.3397 -0.1132 -0.0314
  136POPC   C2B 2063   8.740   4.736   6.539  0.0499 -0.1271 -0.0721
  136POPC   C3B 2064   8.707   4.727   6.024 -0.0146  0.0843  0.2181
  136POPC   C4B 2065   8.690   4.915   5.568 -0.3355 -0.2761  0.0353
  137POPC   NC3 2066   3.728   6.344   8.227 -0.2947  0.0477 -0.1499
  137POPC   PO4 2067   3.942   5.918   8.064  0.1644 -0.2457  0.0903
  137POPC   GL1 2068   3.922   5.735   7.645  0.7646 -0.2244 -0.2288
  137POPC   GL2 2069   4.014   5.907   7.337  0.1276 -0.1180  0.0769
  137POPC   C1A 2070   3.822   5.339   7.398 -0.0591  0.0862  0.4227
  137POPC   D2A 2071   3.869   4.860   7.417 -0.0817 -0.3902  0.1096
  137POPC   C3A 2072   3.791   4.670   7.055  0.0024  0.0558 -0.1253
  137POPC   C4A 2073   3.453   4.311   6.894  0.2268 -0.5509  0.5990
  137POPC   C1B 2074   3.945   5.741   6.953  0.0656  0.3740  0.1572
  137POPC   C2B 2075   3.571   5.713   6.710  0.0217 -0.0448  0.1279
  137POPC   C3B 2076   3.329   5.486   6.486  0.1020 -0.0330  0.2457
  137POPC   C4B 2077   2.935   5.607   6.360  0.0915 -0.0914  0.1832
  138POPC   NC3 2078   3.741   3.855   8.377  0.0475 -0.0074 -0.3219
  138POPC   PO4 2079   3.957   3.858   8.049  0.0802  0.3295 -0.1307
  138POPC   GL1 2080   3.872   3.853   7.718  0.1106  0.3583 -0.2450
  138POPC   GL2 2081   4.121   3.921   7.491  0.0766 -0.2438 -0.0813
  138POPC   C1A 2082   3.627   3.695   7.400 -0.2867  0.1555 -0.1145
  138POPC   D2A 2083   3.581   3.288   7.120 -0.2277 -0.1771  0.1060
  138POPC   C3A 2084   3.812   2.987   7.003 -0.1737  0.2057 -0.0900
  138POPC   C4A 2085   3.875   2.626   6.923  0.1755  0.0965  0.2607
  138POPC   C1B 2086   4.073   3.534   7.270  0.1416 -0.0122  0.1769
  138POPC   C2B 2087   4.440   3.582   6.904  0.0028 -0.1682 -0.0885
  138POPC   C3B 2088   4.545   3.842   6.633 -0.1807  0.1367  0.0063
  138POPC   C4B 2089   4.643   3.951   6.157 -0.1565 -0.1441 -0.1256
  139POPC   NC3 2090   4.185   0.890   8.010 -0.2830  0.0877 -0.2900
  139POPC   PO4 2091   3.856   0.688   7.831 -0.0491  0.2179 -0.3144
  139POPC   GL1 2092   3.480   0.522   7.570 -0.1345 -0.1502 -0.1184
  139POPC   GL2 2093   3.584   0.072   7.348  0.0067 -0.0470 -0.1472
  139POPC   C1A 2094   3.150   0.478   7.138  0.0532 -0.3032 -0.1435
  139POPC   D2A 2095   2.954   0.425   6.778 -0.0587  0.2977 -0.0421
  139POPC   C3A 2096   2.627   0.427   6.420 -0.1009  0.2361  0.0998
  139POPC   C4A 2097   2.415   0.414   6.012 -0.1991  0.1534 -0.0609
  139POPC   C1B 2098   3.700   0.312   7.076 -0.1120  0.0816  0.0902
  139POPC   C2B 2099   3.826   0.291   6.701 -0.0492 -0.0831  0.1622
  139POPC   C3B 2100   3.650   0.461   6.318  0.0374 -0.1431 -0.1517
  139POPC   C4B 2101   3.507   0.566   5.891  0.2830 -0.0421  0.1738
  140POPC   NC3 2102   9.442   6.405   7.852  0.0598  0.2190  0.3129
  140POPC   PO4 2103   9.486   6.596   7.453  0.1298 -0.1766 -0.2526
  140POPC   GL1 2104   9.599   6.730   7.097 -0.1397 -0.1140 -0.0285
  140POPC   GL2 2105   9.765   7.009   7.069 -0.0170 -0.0655  0.1258
  140POPC   C1A 2106   9.525   6.596   6.674 -0.2951  0.2116 -0.1423
  140POPC   D2A 2107   9.678   6.584   6.283  0.0736  0.2034  0.1528
  140POPC   C3A 2108   9.797   6.222   6.042 -0.2733 -0.1274  0.2235
  140POPC   C4A 2109  10.193   6.083   5.793 -0.1437  0.1541  0.0412
  140POPC   C1B 2110   9.688   7.073   6.675  0.2897  0.0048  0.0828
  140POPC   C2B 2111   9.596   7.063   6.179  0.1948  0.1267 -0.0338
  140POPC   C3B 2112   9.252   7.043   5.975  0.1121  0.3193  0.2334
  140POPC   C4B 2113   8.893   6.973   5.914 -0.1660  0.0477  0.0376
  141POPC   NC3 2114   8.239   5.890   7.288  0.4133 -0.2907  0.0169
  141POPC   PO4 2115   8.353   5.618   7.619  0.1720  0.3080  0.2693
  141POPC   GL1 2116   8.708   5.819   7.533  0.0217 -0.2443  0.3695
  141POPC   GL2 2117   8.683   5.727   7.135  0.0542  0.0299 -0.0800
  141POPC   C1A 2118   9.029   6.075   7.187  0.2312  0.0702  0.1013
  141POPC   D2A 2119   8.975   6.316   6.757 -0.1515  0.1723 -0.2587
  141POPC   C3A 2120   8.921   6.120   6.421  0.0187 -0.3374  0.0604
  141POPC   C4A 2121   8.771   5.963   6.114  0.2767 -0.0638 -0.1231
  141POPC   C1B 2122   9.004   5.662   6.824  0.1325 -0.2333 -0.1169
  141POPC   C2B 2123   9.130   5.668   6.329  0.2148 -0.1260 -0.1191
  141POPC   C3B 2124   9.134   5.663   5.883 -0.0330  0.3177 -0.0110
  141POPC   C4B 2125   9.017   5.798   5.497  0.0857 -0.1909  0.0625
  142POPC   NC3 2126   7.995   0.960   7.792 -0.0455  0.1794 -0.1346
  142POPC   PO4 2127   7.609   1.193   7.846 -0.3925  0.3969 -0.0661
  142POPC   GL1 2128   7.974   1.459   7.618 -0.1462 -0.1372 -0.0542
  142POPC   GL2 2129   8.241   1.437   7.694 -0.0049  0.1206  0.0707
  142POPC   C1A 2130   8.119   1.861   7.351  0.2618  0.1162  0.0112
  142POPC   D2A 2131   8.231   2.233   7.045 -0.1008 -0.0220 -0.3083
  142POPC   C3A 2132   7.858   2.387   6.870 -0.1530  0.1211 -0.0210
  142POPC   C4A 2133   7.780   2.632   6.447  0.0398  0.1176 -0.0170
  142POPC   C1B 2134   8.566   1.647   7.469 -0.0405  0.2367  0.0705
  142POPC   C2B 2135   9.067   1.817   7.409  0.2526  0.0730 -0.0529
  142POPC   C3B 2136   9.138   2.130   7.098  0.4407 -0.3449 -0.2403
  142POPC   C4B 2137   9.218   2.586   7.049 -0.2058  0.0261 -0.2069
  143POPC   NC3 2138   2.348   9.885   7.912  0.3605 -0.0759 -0.0420
  143POPC   PO4 2139   2.298   9.399   7.788 -0.1675 -0.2235 -0.1973
  143POPC   GL1 2140   2.244   9.524   7.353  0.1440 -0.1199  0.1005
  143POPC   GL2 2141   2.060   9.560   7.096 -0.0836 -0.2937 -0.2018
  143POPC   C1A 2142   2.511   9.737   7.126 -0.2033 -0.0051 -0.1470
  143POPC   D2A 2143   2.616   9.788   6.744 -0.1266 -0.1299  0.4399
  143POPC   C3A 2144   2.743   9.405   6.595 -0.2031 -0.0244 -0.0749
  143POPC   C4A 2145   2.925   8.945   6.591  0.3512  0.0651  0.2346
  143POPC   C1B 2146   2.151   9.750   6.712  0.0626 -0.1203  0.3246
  143POPC   C2B 2147   2.334  10.153   6.466 -0.2234  0.1655  0.3041
  143POPC   C3B 2148   2.550  10.321   6.823  0.4066 -0.0461 -0.4330
  143POPC   C4B 2149   2.780  10.402   7.278 -0.1022  0.1348 -0.0318
  144POPC   NC3 2150   4.560   0.447   7.470  0.2362  0.3025 -0.0559
  144POPC   PO4 2151   4.586   0.867   7.719  0.1750  0.1614 -0.1181
  144POPC   GL1 2152   4.491   1.094   7.414  0.2053  0.1579  0.0598
  144POPC   GL2 2153   4.263   1.226   7.409  0.0493  0.1379 -0.0193
  144POPC   C1A 2154   4.637   1.473   7.213  0.1536  0.0705  0.0662
  144POPC   D2A 2155   4.771   1.903   7.348 -0.0481 -0.3034 -0.2477
  144POPC   C3A 2156   4.607   2.242   7.166  0.0801  0.5860  0.1653
  144POPC   C4A 2157   4.256   2.261   6.851  0.0933 -0.4872 -0.1578
  144POPC   C1B 2158   4.381   0.879   7.017  0.1211 -0.1198  0.0345
  144POPC   C2B 2159   4.248   0.471   6.854  0.1600 -0.0136 -0.0507
  144POPC   C3B 2160   4.300   0.228   6.482  0.0555 -0.2076  0.1905
  144POPC   C4B 2161   3.939   0.001   6.127  0.0900  0.1428  0.2170
  145POPC   NC3 2162  10.155   8.775   7.554 -0.1033 -0.1584  0.1704
  145POPC   PO4 2163  10.429   8.377   7.473  0.0677 -0.0738  0.0053
  145POPC   GL1 2164  10.280   8.276   6.969  0.0160  0.0127 -0.0490
  145POPC   GL2 2165  10.343   8.084   6.726  0.2930 -0.0113 -0.0178
  145POPC   C1A 2166  10.059   8.463   6.562  0.2290 -0.2973 -0.2738
  145POPC   D2A 2167  10.281   8.479   6.111 -0.0430 -0.0467 -0.1160
  145POPC   C3A 2168  10.556   8.257   5.927 -0.1097 -0.1748  0.2127
  145POPC   C4A 2169  11.005   8.296   6.130 -0.1460 -0.1404  0.1282
  145POPC   C1B 2170  10.675   8.323   6.490 -0.0270  0.2273 -0.0703
  145POPC   C2B 2171  11.056   8.448   6.682  0.0443  0.2717 -0.2407
  145POPC   C3B 2172  11.406   8.479   6.380  0.1024 -0.0947 -0.2699
  145POPC   C4B 2173  11.770   8.495   6.132  0.0109 -0.2908  0.0584
  146POPC   NC3 2174   9.284   1.431   8.100 -0.0394  0.0446 -0.1309
  146POPC   PO4 2175   9.532   1.110   7.849 -0.1190 -0.1173 -0.1204
  146POPC   GL1 2176   9.297   1.348   7.479  0.0407  0.2119 -0.2107
  146POPC   GL2 2177   9.340   1.139   7.287  0.2563  0.2132 -0.1062
  146POPC   C1A 2178   9.360   1.565   7.088  0.1735 -0.0089  0.2972
  146POPC   D2A 2179   9.528   1.852   6.802 -0.0916  0.0118 -0.0991
  146POPC   C3A 2180   9.630   1.724   6.285 -0.1531  0.0932  0.0158
  146POPC   C4A 2181   9.289   1.595   6.037  0.1872  0.0191  0.2285
  146POPC   C1B 2182   9.462   0.967   6.814  0.1065  0.0937 -0.3789
  146POPC   C2B 2183   9.402   1.037   6.389 -0.2416  0.0406  0.2599
  146POPC   C3B 2184   9.635   1.045   6.063 -0.1160 -0.3356 -0.1205
  146POPC   C4B 2185   9.650   1.419   5.650  0.2470  0.1203 -0.1425
  147POPC   NC3 2186   0.677   0.094   7.971 -0.1017  0.0693  0.0186
  147POPC   PO4 2187   0.275   0.204   8.163  0.1887 -0.3065  0.3578
  147POPC   GL1 2188   0.223   0.218   7.706 -0.3537 -0.0970  0.5972
  147POPC   GL2 2189  -0.062   0.042   7.544 -0.1157 -0.2199  0.2020
  147POPC   C1A 2190   0.390   0.506   7.427 -0.2002 -0.0953  0.0504
  147POPC   D2A 2191   0.714   0.328   7.100 -0.0433  0.0343  0.0727
  147POPC   C3A 2192   0.553   0.146   6.773 -0.0009  0.1314 -0.2592
  147POPC   C4A 2193   0.234   0.151   6.587  0.1179 -0.2538  0.3368
  147POPC   C1B 2194  -0.097   0.453   7.367  0.3778  0.1997 -0.1584
  147POPC   C2B 2195   0.147   0.647   6.973  0.0987 -0.4073 -0.0918
  147POPC   C3B 2196   0.053   0.707   6.508 -0.1121  0.1511 -0.3930
  147POPC   C4B 2197  -0.441   0.643   6.433 -0.0047 -0.1371 -0.1186
  148POPC   NC3 2198   9.365   4.539   7.725 -0.0685  0.1147 -0.2509
  148POPC   PO4 2199   9.497   4.185   7.931 -0.3657 -0.3893 -0.0562
  148POPC   GL1 2200   9.794   4.253   7.614  0.3386  0.1775  0.0173
  148POPC   GL2 2201   9.873   4.534   7.532  0.1527 -0.5268 -0.1604
  148POPC   C1A 2202   9.654   4.043   7.203 -0.2243 -0.1158 -0.0119
  148POPC   D2A 2203   9.637   4.163   6.729  0.3740  0.1982  0.4342
  148POPC   C3A 2204   9.344   3.791   6.443 -0.0383  0.1682 -0.0133
  148POPC   C4A 2205   9.186   3.848   5.991 -0.2434  0.1837 -0.0918
  148POPC   C1B 2206  10.050   4.653   7.137  0.3347 -0.1230 -0.4351
  148POPC   C2B 2207  10.126   4.935   6.825 -0.0229 -0.0245  0.1766
  148POPC   C3B 2208  10.339   4.851   6.519  0.3064 -0.1986 -0.3219
  148POPC   C4B 2209  10.325   4.759   5.994 -0.1087  0.2309 -0.0128
  149POPC   NC3 2210   4.307   5.258   8.214  0.3208 -0.1306  0.2094
  149POPC   PO4 2211   4.321   5.496   7.892  0.3621 -0.0239 -0.2643
  149POPC   GL1 2212   4.311   5.318   7.501 -0.1297 -0.1012 -0.0488
  149POPC   GL2 2213   4.313   4.975   7.448  0.0264 -0.4054  0.2655
  149POPC   C1A 2214   4.120   5.269   7.029 -0.1705  0.2659  0.2416
  149POPC   D2A 2215   4.050   5.326   6.518 -0.1687  0.3310  0.0907
  149POPC   C3A 2216   3.998   5.611   6.181  0.2502 -0.0907  0.0092
  149POPC   C4A 2217   4.097   5.562   5.698 -0.1778 -0.0519 -0.0893
  149POPC   C1B 2218   4.283   4.762   7.067 -0.0517  0.0067 -0.3167
  149POPC   C2B 2219   4.333   4.874   6.744  0.1476 -0.1646  0.0251
  149POPC   C3B 2220   4.224   4.931   6.307  0.1699 -0.1372  0.0251
  149POPC   C4B 2221   4.330   5.237   6.034  0.2616 -0.1322  0.0272
  150POPC   NC3 2222   7.563   9.301   3.327  0.0533 -0.0235  0.1046
  150POPC   PO4 2223   7.751   9.048   3.671  0.1447 -0.3299 -0.0298
  150POPC   GL1 2224   7.431   9.124   3.976 -0.0982  0.1297  0.1733
  150POPC   GL2 2225   7.201   8.832   3.855 -0.1919 -0.0016 -0.0297
  150POPC   C1A 2226   6.936   9.179   4.146 -0.0911 -0.0668 -0.2894
  150POPC   D2A 2227   6.743   9.242   4.564  0.3545 -0.1018 -0.2058
  150POPC   C3A 2228   6.993   9.102   4.914 -0.0978  0.0131 -0.0096
  150POPC   C4A 2229   7.098   9.272   5.278  0.2184 -0.1373 -0.2381
  150POPC   C1B 2230   7.092   8.745   4.275 -0.2127 -0.3268 -0.0648
  150POPC   C2B 2231   7.279   8.714   4.611 -0.0738 -0.1115  0.3993
  150POPC   C3B 2232   7.184   8.635   4.965 -0.0484 -0.0665  0.0247
  150POPC   C4B 2233   6.971   8.271   5.240  0.1881 -0.2890 -0.0107
  151POPC   NC3 2234   2.409   7.993   3.949 -0.1575  0.1945 -0.0889
  151POPC   PO4 2235   2.840   7.820   3.897  0.0755 -0.0172  0.2644
  151POPC   GL1 2236   2.759   7.669   4.181 -0.2896 -0.1274  0.1387
  151POPC   GL2 2237   2.997   7.628   4.336 -0.0511  0.0552 -0.0368
  151POPC   C1A 2238   2.476   7.549   4.564 -0.0603 -0.0016 -0.1301
  151POPC   D2A 2239   2.449   7.442   4.973 -0.3108  0.1106  0.0254
  151POPC   C3A 2240   2.193   7.679   5.191  0.0351 -0.2448  0.3590
  151POPC   C4A 2241   2.204   8.116   5.443  0.3564 -0.0177 -0.2423
  151POPC   C1B 2242   3.066   7.416   4.788  0.2335  0.0992 -0.2329
  151POPC   C2B 2243   3.026   7.068   5.134 -0.0272  0.5731 -0.1963
  151POPC   C3B 2244   3.001   6.789   5.503 -0.1447 -0.0766 -0.1105
  151POPC   C4B 2245   2.744   6.686   5.875 -0.0939 -0.3862  0.0647
  152POPC   NC3 2246   4.356   9.627   3.623  0.2371 -0.0619  0.2484
  152POPC   PO4 2247   4.478  10.094   3.494 -0.0012 -0.0986  0.2877
  152POPC   GL1 2248   4.437  10.074   3.943  0.0105  0.1436 -0.0946
  152POPC   GL2 2249   4.247   9.744   4.106  0.1670 -0.1294 -0.3051
  152POPC   C1A 2250   4.576  10.187   4.337 -0.0102 -0.0677  0.2520
  152POPC   D2A 2251   4.326  10.301   4.690 -0.1459  0.1627  0.2431
  152POPC   C3A 2252   4.527  10.415   5.049  0.2296  0.2724 -0.2322
  152POPC   C4A 2253   4.686  10.411   5.447 -0.0307 -0.1021  0.0291
  152POPC   C1B 2254   4.279   9.784   4.578 -0.0141 -0.0719  0.2675
  152POPC   C2B 2255   4.311   9.458   4.983  0.1020 -0.1271  0.2503
  152POPC   C3B 2256   4.072   9.133   5.273  0.0111 -0.0882  0.5529
  152POPC   C4B 2257   3.792   8.778   5.302 -0.0096 -0.1449 -0.2033
  153POPC   NC3 2258   5.211   5.927   3.166 -0.3127 -0.2094  0.2253
  153POPC   PO4 2259   5.250   5.643   3.517  0.0175  0.0499 -0.0094
  153POPC   GL1 2260   5.236   5.539   3.920 -0.1009  0.0631  0.1351
  153POPC   GL2 2261   5.014   5.497   4.183 -0.2623 -0.1413  0.0902
  153POPC   C1A 2262   5.555   5.488   4.224  0.1062 -0.0814  0.0053
  153POPC   D2A 2263   5.887   5.357   4.553  0.1749 -0.1107 -0.0135
  153POPC   C3A 2264   5.817   5.433   5.013  0.2750 -0.4721 -0.0362
  153POPC   C4A 2265   5.748   5.292   5.492 -0.1434 -0.0891  0.0355
  153POPC   C1B 2266   5.080   5.447   4.668 -0.0334 -0.1582  0.3629
  153POPC   C2B 2267   5.094   5.287   5.009 -0.1431  0.0589 -0.0099
  153POPC   C3B 2268   5.140   5.345   5.458 -0.0532 -0.3104 -0.1233
  153POPC   C4B 2269   5.116   5.686   5.856  0.0138  0.4274 -0.0003
  154POPC   NC3 2270   9.390   0.170   3.744 -0.0807  0.2436  0.1933
  154POPC   PO4 2271   9.681   0.514   3.957 -0.0324  0.0183  0.2060
  154POPC   GL1 2272   9.848   0.597   4.317  0.0224 -0.0811 -0.5443
  154POPC   GL2 2273   9.808   0.915   4.408 -0.0219  0.1863 -0.0911
  154POPC   C1A 2274   9.805   0.392   4.721 -0.0588 -0.0295 -0.2574
  154POPC   D2A 2275   9.835   0.169   5.150 -0.0374  0.0193 -0.0900
  154POPC   C3A 2276   9.999   0.157   5.609 -0.3338 -0.0005 -0.2027
  154POPC   C4A 2277  10.032  -0.193   5.945 -0.1257  0.2211  0.1968
  154POPC   C1B 2278   9.928   0.847   4.886  0.1953 -0.0328 -0.0853
  154POPC   C2B 2279  10.250   0.895   5.054 -0.1519  0.0671  0.0085
  154POPC   C3B 2280  10.356   0.850   5.529 -0.1213 -0.0890  0.2682
  154POPC   C4B 2281  10.172   0.983   5.980  0.0630  0.1701  0.1699
  155POPC   NC3 2282   0.224   6.558   3.443  0.2346  0.1006  0.0758
  155POPC   PO4 2283   0.176   6.911   3.717 -0.2393  0.2086 -0.3956
  155POPC   GL1 2284   0.167   6.891   4.073 -0.0279 -0.2176 -0.1625
  155POPC   GL2 2285   0.490   6.751   4.276 -0.1178 -0.2294 -0.1691
  155POPC   C1A 2286  -0.090   6.658   4.454  0.1958  0.2476 -0.0233
  155POPC   D2A 2287  -0.062   6.349   4.671 -0.1877  0.3810 -0.0837
  155POPC   C3A 2288  -0.342   6.181   4.937 -0.0110 -0.3105  0.1074
  155POPC   C4A 2289  -0.387   6.026   5.375 -0.4191  0.1795  0.5475
  155POPC   C1B 2290   0.351   6.605   4.693 -0.1804 -0.3030 -0.1989
  155POPC   C2B 2291   0.456   6.388   5.101 -0.1139 -0.0257  0.0319
  155POPC   C3B 2292   0.473   6.202   5.473 -0.1879  0.2641 -0.1656
  155POPC   C4B 2293   0.614   6.069   5.813 -0.2155  0.0974 -0.0612
  156POPC   NC3 2294   2.666   8.789   4.066 -0.3986  0.1321 -0.0193
  156POPC   PO4 2295   2.582   8.484   3.719 -0.1605 -0.1103 -0.0120
  156POPC   GL1 2296   2.800   8.285   4.050  0.0054 -0.1626  0.0927
  156POPC   GL2 2297   3.065   8.347   4.121  0.1029 -0.0799  0.2548
  156POPC   C1A 2298   2.850   8.151   4.532 -0.0892 -0.0532 -0.1088
  156POPC   D2A 2299   2.897   8.292   4.986  0.2440 -0.0712 -0.1235
  156POPC   C3A 2300   2.639   8.375   5.263 -0.5239  0.2306  0.2600
  156POPC   C4A 2301   2.705   8.749   5.629  0.1581 -0.0141  0.1834
  156POPC   C1B 2302   3.303   8.062   4.347 -0.1948  0.0146 -0.0499
  156POPC   C2B 2303   3.333   7.828   4.724  0.1396  0.0516 -0.0375
  156POPC   C3B 2304   3.301   8.006   5.117  0.0706  0.2153  0.0104
  156POPC   C4B 2305   3.141   7.969   5.515 -0.2226  0.1656  0.4081
  157POPC   NC3 2306   3.174   8.219   3.635 -0.2081  0.1896 -0.2699
  157POPC   PO4 2307   3.623   8.308   3.511 -0.1795  0.3076  0.0695
  157POPC   GL1 2308   3.867   8.275   3.868  0.2304 -0.0009 -0.1883
  157POPC   GL2 2309   3.927   8.581   4.065  0.2514  0.1778  0.0882
  157POPC   C1A 2310   3.942   8.119   4.306 -0.1667 -0.0516  0.2289
  157POPC   D2A 2311   4.276   7.855   4.483 -0.1336 -0.2038  0.0999
  157POPC   C3A 2312   4.022   7.726   4.836 -0.3034 -0.0571  0.0964
  157POPC   C4A 2313   3.670   7.695   5.185 -0.1442 -0.1137 -0.1744
  157POPC   C1B 2314   3.546   8.463   4.378 -0.3598 -0.2177  0.2603
  157POPC   C2B 2315   3.275   8.387   4.740 -0.1072 -0.1208  0.4097
  157POPC   C3B 2316   3.327   8.552   5.142 -0.1511 -0.0564 -0.0673
  157POPC   C4B 2317   2.950   8.807   5.183 -0.1454  0.1210 -0.1529
  158POPC   NC3 2318   8.187   2.649   3.820 -0.3176 -0.0943  0.0082
  158POPC   PO4 2319   8.589   2.707   4.026  0.0886 -0.0435  0.4049
  158POPC   GL1 2320   8.450   3.016   4.314  0.3507 -0.0726 -0.1622
  158POPC   GL2 2321   8.802   3.085   4.509  0.0066 -0.1965  0.2816
  158POPC   C1A 2322   8.104   3.335   4.412  0.0481  0.0650 -0.2754
  158POPC   D2A 2323   8.148   3.670   4.715  0.0629 -0.1040  0.1136
  158POPC   C3A 2324   7.995   3.665   5.185 -0.0643 -0.2184  0.0378
  158POPC   C4A 2325   7.683   3.383   5.394 -0.1768  0.2105  0.0812
  158POPC   C1B 2326   8.857   3.274   4.949  0.0208 -0.2055 -0.0410
  158POPC   C2B 2327   8.548   3.431   5.269  0.1121  0.1183 -0.1723
  158POPC   C3B 2328   8.170   3.556   5.709 -0.2871  0.2466  0.3195
  158POPC   C4B 2329   7.828   3.443   5.943  0.1489  0.2001  0.0217
  159POPC   NC3 2330   8.652   8.065   3.113  0.0398 -0.4210 -0.1122
  159POPC   PO4 2331   8.127   8.080   3.207 -0.2007 -0.1854  0.1982
  159POPC   GL1 2332   8.007   8.207   3.698 -0.0513 -0.2703 -0.1515
  159POPC   GL2 2333   8.253   8.266   3.893  0.0059 -0.1872 -0.0115
  159POPC   C1A 2334   7.804   8.262   4.133 -0.2292 -0.1502 -0.1493
  159POPC   D2A 2335   7.686   8.280   4.568 -0.0422  0.2315 -0.0520
  159POPC   C3A 2336   7.264   8.214   4.711 -0.0952  0.2099 -0.3503
  159POPC   C4A 2337   6.953   7.829   4.774  0.2853  0.1651  0.0370
  159POPC   C1B 2338   8.319   8.046   4.231  0.1145 -0.1143  0.0407
  159POPC   C2B 2339   8.389   7.614   4.370  0.0078 -0.1612 -0.1879
  159POPC   C3B 2340   8.679   7.338   4.433 -0.3918 -0.0894  0.1432
  159POPC   C4B 2341   8.766   7.005   4.272 -0.2807  0.0833 -0.1117
  160POPC   NC3 2342   9.397   7.099   3.986  0.0401 -0.0502  0.0655
  160POPC   PO4 2343   9.126   7.409   3.920  0.2540 -0.0205 -0.2874
  160POPC   GL1 2344   9.221   7.372   4.381 -0.2697  0.0357 -0.2814
  160POPC   GL2 2345   9.525   7.267   4.455 -0.1327 -0.0004  0.0973
  160POPC   C1A 2346   9.043   7.140   4.769 -0.2140 -0.4799  0.0850
  160POPC   D2A 2347   8.782   6.999   4.884  0.0632  0.1749  0.2556
  160POPC   C3A 2348   8.833   6.747   5.217 -0.1111 -0.1135 -0.0685
  160POPC   C4A 2349   9.071   6.611   5.479 -0.0994  0.0592  0.2030
  160POPC   C1B 2350   9.319   7.571   4.890 -0.0794 -0.0193  0.2250
  160POPC   C2B 2351   9.160   7.659   5.272 -0.1152 -0.0888  0.3402
  160POPC   C3B 2352   9.024   8.193   5.451  0.1114 -0.1995  0.4262
  160POPC   C4B 2353   8.826   8.457   5.759 -0.1618 -0.1276  0.1862
  161POPC   NC3 2354   6.201   5.887   3.601 -0.2547  0.0073  0.0135
  161POPC   PO4 2355   6.519   5.964   3.878  0.1332  0.1767 -0.3419
  161POPC   GL1 2356   6.873   6.066   4.174  0.2297  0.1098  0.0647
  161POPC   GL2 2357   7.024   6.307   4.154  0.3871 -0.0502  0.0034
  161POPC   C1A 2358   7.172   6.053   4.600 -0.1099  0.2441 -0.2122
  161POPC   D2A 2359   7.390   6.042   5.010 -0.1505 -0.0144  0.0675
  161POPC   C3A 2360   7.681   5.699   5.166  0.1258 -0.1154  0.1308
  161POPC   C4A 2361   7.993   5.488   5.383  0.0872  0.2298 -0.1940
  161POPC   C1B 2362   7.513   6.366   4.334  0.2821 -0.1959 -0.1902
  161POPC   C2B 2363   7.732   6.156   4.632 -0.1268 -0.1025  0.2104
  161POPC   C3B 2364   7.955   6.190   5.026 -0.1996  0.1215 -0.2402
  161POPC   C4B 2365   8.169   6.453   5.300  0.1164  0.0052  0.0617
  162POPC   NC3 2366   6.706   0.573   3.393 -0.1574 -0.1226  0.2871
  162POPC   PO4 2367   6.923   0.455   3.699  0.1452 -0.1146 -0.0190
  162POPC   GL1 2368   7.180   0.420   4.073 -0.0336 -0.2892 -0.2155
  162POPC   GL2 2369   7.339   0.608   4.405  0.0967 -0.0936  0.3738
  162POPC   C1A 2370   6.991   0.162   4.411 -0.0030 -0.1734 -0.0183
  162POPC   D2A 2371   6.956  -0.027   4.780 -0.2476 -0.0244 -0.0537
  162POPC   C3A 2372   6.564  -0.001   5.022 -0.0123  0.0809  0.1639
  162POPC   C4A 2373   6.670   0.320   5.397 -0.1935  0.1534  0.1936
  162POPC   C1B 2374   7.453   0.297   4.711  0.2480  0.2656  0.0120
  162POPC   C2B 2375   7.475   0.003   5.018  0.1694  0.3316  0.1455
  162POPC   C3B 2376   7.416  -0.280   5.253 -0.2003 -0.0009  0.0386
  162POPC   C4B 2377   7.344  -0.494   5.579 -0.2625  0.1568  0.0103
  163POPC   NC3 2378   2.736   5.933   3.222 -0.0240 -0.1247 -0.1587
  163POPC   PO4 2379   2.871   6.329   3.441 -0.1043 -0.1259  0.1471
  163POPC   GL1 2380   2.731   6.095   3.806 -0.0402 -0.4079 -0.1488
  163POPC   GL2 2381   2.428   5.905   3.682  0.0002 -0.2145  0.2894
  163POPC   C1A 2382   2.714   5.949   4.168 -0.0936 -0.3624 -0.1488
  163POPC   D2A 2383   2.648   5.893   4.593  0.1714 -0.0827  0.0395
  163POPC   C3A 2384   2.653   6.037   4.982 -0.0300  0.1232 -0.1459
  163POPC   C4A 2385   2.875   5.798   5.314  0.0603  0.0349 -0.0676
  163POPC   C1B 2386   2.054   5.759   3.640  0.1875  0.0478 -0.2635
  163POPC   C2B 2387   1.612   5.609   3.851 -0.0476  0.1770 -0.0511
  163POPC   C3B 2388   1.672   5.569   4.312 -0.0586  0.3076  0.0114
  163POPC   C4B 2389   1.736   5.274   4.608  0.0763 -0.1173 -0.1280
  164POPC   NC3 2390   0.336   8.672   3.811  0.3250 -0.0466  0.0286
  164POPC   PO4 2391   0.483   9.126   3.926 -0.1221  0.1361  0.3491
  164POPC   GL1 2392   0.608   9.211   4.315  0.4403 -0.1130  0.1996
  164POPC   GL2 2393   0.883   8.991   4.315  0.3079  0.0855 -0.3412
  164POPC   C1A 2394   0.493   9.282   4.598 -0.2017 -0.0760 -0.0220
  164POPC   D2A 2395   0.533   9.395   5.013 -0.0806 -0.1268  0.3318
  164POPC   C3A 2396   0.873   9.238   5.022  0.2220 -0.2927 -0.1415
  164POPC   C4A 2397   1.246   9.418   4.871  0.0633 -0.3050 -0.0093
  164POPC   C1B 2398   0.578   8.776   4.571  0.2413 -0.1524  0.1484
  164POPC   C2B 2399   0.230   8.654   4.573 -0.0289  0.1120  0.2729
  164POPC   C3B 2400  -0.211   8.751   4.645  0.0471  0.0747 -0.2205
  164POPC   C4B 2401  -0.357   8.847   5.115  0.0955 -0.1905  0.0462
  165POPC   NC3 2402   8.634   9.021   3.344  0.0911  0.0427  0.0339
  165POPC   PO4 2403   8.627   9.408   3.705 -0.1379 -0.3795  0.0863
  165POPC   GL1 2404   8.575   9.448   4.081 -0.1431 -0.5121 -0.2741
  165POPC   GL2 2405   8.716   9.796   4.067  0.0007 -0.2198 -0.4123
  165POPC   C1A 2406   8.732   9.582   4.530 -0.0364  0.2316 -0.0711
  165POPC   D2A 2407   8.565   9.569   4.948  0.0395 -0.1844 -0.2339
  165POPC   C3A 2408   8.660   9.230   5.078  0.0680 -0.0368  0.1874
  165POPC   C4A 2409   8.466   8.919   5.419  0.3847  0.0457  0.1930
  165POPC   C1B 2410   9.141   9.704   4.344 -0.0660 -0.0755 -0.2247
  165POPC   C2B 2411   9.220   9.321   4.535 -0.0247 -0.1185  0.0950
  165POPC   C3B 2412   9.093   9.104   4.750  0.0734  0.3125  0.0460
  165POPC   C4B 2413   8.848   8.861   4.491  0.0871 -0.2074 -0.0295
  166POPC   NC3 2414   5.812   7.029   3.720 -0.0386  0.0759  0.5178
  166POPC   PO4 2415   6.071   6.750   3.866 -0.4141 -0.0264 -0.0140
  166POPC   GL1 2416   5.786   6.908   4.176  0.1922 -0.2029  0.0629
  166POPC   GL2 2417   5.541   7.113   4.323 -0.0824  0.2080  0.0867
  166POPC   C1A 2418   5.832   6.813   4.612  0.1001  0.0680 -0.0012
  166POPC   D2A 2419   6.133   6.749   4.988 -0.3193 -0.3439 -0.3210
  166POPC   C3A 2420   6.023   6.327   5.254 -0.0872  0.0977  0.1388
  166POPC   C4A 2421   6.011   6.196   5.638  0.0979  0.0611 -0.2457
  166POPC   C1B 2422   5.588   7.331   4.618  0.1724 -0.2662  0.2198
  166POPC   C2B 2423   5.822   7.201   5.004 -0.0632 -0.2360  0.2651
  166POPC   C3B 2424   5.537   7.087   5.335 -0.0797 -0.2651  0.0985
  166POPC   C4B 2425   5.358   7.149   5.851 -0.4262 -0.2383  0.0572
  167POPC   NC3 2426   0.400   4.585   3.397  0.2574  0.1543  0.1775
  167POPC   PO4 2427   0.219   4.180   3.615 -0.0365 -0.0481  0.1615
  167POPC   GL1 2428   0.099   4.276   4.054 -0.4117  0.1393 -0.2013
  167POPC   GL2 2429  -0.245   4.445   4.073 -0.3836 -0.4495  0.1753
  167POPC   C1A 2430   0.085   4.583   4.422  0.1493  0.0547  0.2294
  167POPC   D2A 2431   0.135   4.776   4.832  0.0029 -0.0369  0.0263
  167POPC   C3A 2432   0.486   5.075   4.960 -0.0228  0.1192  0.0150
  167POPC   C4A 2433   0.680   5.247   5.388  0.0358  0.2600  0.1390
  167POPC   C1B 2434  -0.428   4.416   4.553 -0.1056 -0.5466  0.3252
  167POPC   C2B 2435  -0.575   4.459   5.007 -0.1187 -0.2163 -0.0866
  167POPC   C3B 2436  -0.711   4.642   5.349 -0.2509 -0.0449  0.1581
  167POPC   C4B 2437  -0.708   4.904   5.700 -0.0624 -0.1877  0.0170
  168POPC   NC3 2438   8.036   1.763   3.629  0.2863  0.1249 -0.1053
  168POPC   PO4 2439   7.964   1.286   3.740  0.2636  0.1992 -0.0034
  168POPC   GL1 2440   7.753   1.120   4.108  0.0994 -0.0647 -0.0247
  168POPC   GL2 2441   7.728   0.782   4.145  0.1572  0.0625 -0.6956
  168POPC   C1A 2442   7.772   1.171   4.565  0.1824  0.0844  0.1439
  168POPC   D2A 2443   7.601   0.972   4.918 -0.0326 -0.1459  0.1785
  168POPC   C3A 2444   7.841   0.926   5.364  0.0314 -0.0545 -0.0815
  168POPC   C4A 2445   8.098   1.195   5.644 -0.0620 -0.2801  0.0475
  168POPC   C1B 2446   7.825   0.597   4.646  0.1021  0.1505  0.3009
  168POPC   C2B 2447   7.673   0.517   5.091 -0.0721  0.1486  0.2932
  168POPC   C3B 2448   7.397   0.705   5.339 -0.2609 -0.0684 -0.0377
  168POPC   C4B 2449   6.921   0.855   5.475 -0.0885 -0.1936 -0.1033
  169POPC   NC3 2450   4.238   4.363   3.027 -0.0953 -0.1076 -0.1214
  169POPC   PO4 2451   4.318   4.781   3.224  0.1328  0.0246  0.2419
  169POPC   GL1 2452   4.152   4.691   3.655 -0.0062  0.1356  0.4079
  169POPC   GL2 2453   4.362   4.784   3.962  0.2959 -0.0472  0.1858
  169POPC   C1A 2454   3.862   4.796   4.071  0.0390  0.0455 -0.2120
  169POPC   D2A 2455   3.576   4.431   4.162  0.0403 -0.1170 -0.3070
  169POPC   C3A 2456   3.206   4.486   4.524 -0.3794  0.2338  0.0879
  169POPC   C4A 2457   3.160   4.587   4.940  0.3250 -0.1546  0.0779
  169POPC   C1B 2458   4.467   4.754   4.384  0.0932  0.3170  0.0896
  169POPC   C2B 2459   4.511   4.931   4.813 -0.0493  0.1597 -0.0059
  169POPC   C3B 2460   4.623   5.110   5.186 -0.2062  0.0155 -0.2442
  169POPC   C4B 2461   4.392   5.206   5.517  0.3348 -0.0659 -0.0336
  170POPC   NC3 2462  10.048   7.741   3.177  0.2701 -0.3266 -0.0428
  170POPC   PO4 2463  10.200   7.741   3.576  0.0181  0.2619 -0.0200
  170POPC   GL1 2464  10.217   7.802   4.034 -0.0367 -0.0436 -0.4000
  170POPC   GL2 2465  10.517   7.602   4.209 -0.1345 -0.3772 -0.0656
  170POPC   C1A 2466  10.283   7.946   4.441 -0.3422 -0.2885  0.0854
  170POPC   D2A 2467  10.205   8.270   4.779 -0.1163  0.2040 -0.1934
  170POPC   C3A 2468   9.935   8.187   5.161 -0.0887  0.0539 -0.0976
  170POPC   C4A 2469   9.610   8.373   5.430  0.0964 -0.4115  0.1925
  170POPC   C1B 2470  10.530   7.291   4.478 -0.2721 -0.0521  0.0603
  170POPC   C2B 2471  10.329   7.043   4.766  0.0303 -0.1895  0.0412
  170POPC   C3B 2472  10.470   6.971   5.241  0.0879 -0.1324 -0.1503
  170POPC   C4B 2473  10.452   7.241   5.632  0.0400  0.2077  0.2108
  171POPC   NC3 2474   5.164   2.638   4.084  0.3161 -0.2581 -0.1990
  171POPC   PO4 2475   5.549   2.482   4.095  0.3456  0.0196 -0.1377
  171POPC   GL1 2476   5.445   2.825   4.482  0.2722 -0.0256  0.2299
  171POPC   GL2 2477   5.693   3.144   4.484 -0.0408  0.1810  0.3390
  171POPC   C1A 2478   5.386   2.701   4.899  0.2193  0.0572 -0.0286
  171POPC   D2A 2479   5.428   2.758   5.333  0.1536 -0.1461 -0.1445
  171POPC   C3A 2480   5.534   2.638   5.802  0.0897  0.0318  0.1364
  171POPC   C4A 2481   5.385   2.286   5.893  0.1152  0.1417  0.0425
  171POPC   C1B 2482   5.995   3.233   4.775 -0.1071  0.1317 -0.0907
  171POPC   C2B 2483   5.837   3.321   5.244 -0.3522 -0.2173  0.5811
  171POPC   C3B 2484   5.787   3.104   5.669  0.2307  0.1320  0.0560
  171POPC   C4B 2485   5.634   3.040   6.134  0.2265 -0.2011 -0.1512
  172POPC   NC3 2486   6.215   1.510   4.066 -0.0119  0.1564 -0.1241
  172POPC   PO4 2487   5.779   1.395   4.121 -0.0117 -0.0356 -0.1820
  172POPC   GL1 2488   5.787   1.213   4.476 -0.1245  0.0757 -0.0269
  172POPC   GL2 2489   5.993   1.121   4.530  0.0330 -0.0033  0.2716
  172POPC   C1A 2490   5.744   1.159   5.014  0.0321  0.1769 -0.2754
  172POPC   D2A 2491   5.663   1.338   5.303 -0.3630 -0.0733 -0.2325
  172POPC   C3A 2492   5.247   1.404   5.509  0.4235  0.0685  0.0306
  172POPC   C4A 2493   4.907   1.843   5.626 -0.5746  0.0713 -0.1681
  172POPC   C1B 2494   6.177   1.362   4.870  0.1740  0.1790  0.2206
  172POPC   C2B 2495   6.117   1.558   5.200 -0.0232 -0.0740  0.2826
  172POPC   C3B 2496   5.866   1.703   5.542 -0.1411  0.3941  0.3299
  172POPC   C4B 2497   5.756   1.454   5.876  0.1816 -0.0555  0.1154
  173POPC   NC3 2498   1.308   8.809   4.102 -0.2132 -0.1973 -0.1290
  173POPC   PO4 2499   1.632   8.491   3.968  0.1700 -0.0846 -0.2408
  173POPC   GL1 2500   1.951   8.535   4.253  0.1267 -0.1983  0.1357
  173POPC   GL2 2501   2.263   8.452   4.157  0.0048 -0.3459  0.2322
  173POPC   C1A 2502   2.020   8.675   4.718  0.1390 -0.3894 -0.0764
  173POPC   D2A 2503   2.118   8.470   5.084  0.1894  0.3871  0.0040
  173POPC   C3A 2504   2.177   8.646   5.545  0.0533  0.1657  0.2562
  173POPC   C4A 2505   2.278   8.870   5.932 -0.0507 -0.0614  0.1111
  173POPC   C1B 2506   2.303   8.277   4.620 -0.0589  0.0231  0.1819
  173POPC   C2B 2507   2.436   7.975   4.891  0.0114  0.2950 -0.0987
  173POPC   C3B 2508   2.821   7.796   5.105  0.0796 -0.0736  0.0870
  173POPC   C4B 2509   3.200   7.521   5.279  0.0243  0.2877 -0.1260
  174POPC   NC3 2510   5.766   0.597   3.599 -0.1666  0.1596 -0.0086
  174POPC   PO4 2511   5.515   0.299   3.704 -0.0947  0.0595  0.0913
  174POPC   GL1 2512   5.164   0.326   3.942 -0.0972  0.2028  0.1039
  174POPC   GL2 2513   5.036  -0.033   3.991  0.1120 -0.1645  0.2548
  174POPC   C1A 2514   5.307   0.337   4.345  0.2175 -0.0389 -0.1024
  174POPC   D2A 2515   5.374   0.432   4.728  0.0118  0.1685  0.0768
  174POPC   C3A 2516   5.045   0.489   5.155  0.1357  0.3867 -0.1194
  174POPC   C4A 2517   5.024   0.558   5.600 -0.1774  0.1478 -0.0934
  174POPC   C1B 2518   5.058  -0.239   4.385 -0.1635  0.0592 -0.0078
  174POPC   C2B 2519   4.752  -0.259   4.815 -0.0218 -0.2020 -0.2238
  174POPC   C3B 2520   4.344  -0.254   5.117 -0.1034 -0.1021  0.0044
  174POPC   C4B 2521   4.342  -0.113   5.472 -0.0690 -0.3245 -0.0304
  175POPC   NC3 2522   3.074   9.638   3.726  0.2378 -0.0328  0.2801
  175POPC   PO4 2523   2.993   9.251   3.839  0.1373 -0.0451  0.0963
  175POPC   GL1 2524   3.184   9.414   4.198 -0.0200  0.1459 -0.1073
  175POPC   GL2 2525   3.384   9.631   4.178  0.4609  0.1024  0.0802
  175POPC   C1A 2526   3.352   9.321   4.671 -0.2145 -0.1620  0.2380
  175POPC   D2A 2527   3.414   9.503   5.096  0.2638 -0.0543 -0.0202
  175POPC   C3A 2528   3.518   9.189   5.372 -0.2464  0.1596 -0.2809
  175POPC   C4A 2529   3.295   8.821   5.522  0.0780 -0.1508 -0.0109
  175POPC   C1B 2530   3.404   9.833   4.558 -0.1326  0.1838  0.0924
  175POPC   C2B 2531   3.360   9.977   4.994 -0.2459  0.2791  0.0055
  175POPC   C3B 2532   3.597  10.037   5.391 -0.0222  0.2395 -0.2559
  175POPC   C4B 2533   3.863  10.216   5.632  0.2066  0.0674  0.6251
  176POPC   NC3 2534   2.380   4.954   3.157  0.0277  0.1371 -0.0786
  176POPC   PO4 2535   2.691   5.162   3.113 -0.2254 -0.1353 -0.2014
  176POPC   GL1 2536   2.942   5.072   3.456 -0.0853  0.1225  0.0485
  176POPC   GL2 2537   3.230   5.181   3.707 -0.1810  0.4613 -0.0640
  176POPC   C1A 2538   2.800   5.155   3.905  0.2035  0.3719  0.0180
  176POPC   D2A 2539   2.987   5.519   4.181  0.0776 -0.2341  0.3482
  176POPC   C3A 2540   3.310   5.405   4.426 -0.0366 -0.1533  0.0466
  176POPC   C4A 2541   3.708   5.477   4.349 -0.0720  0.1579 -0.1189
  176POPC   C1B 2542   3.364   5.063   4.082 -0.1877  0.0528  0.1811
  176POPC   C2B 2543   3.655   4.873   4.522 -0.0381 -0.3131  0.0672
  176POPC   C3B 2544   4.101   4.693   4.835 -0.0225 -0.3515  0.2853
  176POPC   C4B 2545   4.025   4.828   5.157 -0.1958  0.0529  0.0829
  177POPC   NC3 2546   8.984   5.240   3.680 -0.0029 -0.2224 -0.1425
  177POPC   PO4 2547   8.970   5.708   3.865  0.1304 -0.0666  0.0150
  177POPC   GL1 2548   8.791   5.853   4.271 -0.1085  0.2092 -0.1101
  177POPC   GL2 2549   8.995   6.202   4.531 -0.0318  0.1349 -0.0073
  177POPC   C1A 2550   8.939   5.678   4.704 -0.0463  0.0528  0.0893
  177POPC   D2A 2551   9.015   5.314   4.898  0.1523  0.0130  0.0654
  177POPC   C3A 2552   8.949   5.341   5.330  0.0028 -0.1588 -0.2731
  177POPC   C4A 2553   9.067   5.195   5.769  0.3000  0.0948 -0.3221
  177POPC   C1B 2554   8.922   6.298   4.870 -0.1437  0.0385 -0.4554
  177POPC   C2B 2555   8.717   6.252   5.261  0.3188  0.0746  0.0010
  177POPC   C3B 2556   8.481   6.074   5.496 -0.0245 -0.3506 -0.0040
  177POPC   C4B 2557   8.130   5.940   5.413  0.2060  0.2278  0.1305
  178POPC   NC3 2558   3.659  10.133   3.252  0.3417  0.2402  0.0153
  178POPC   PO4 2559   3.143   9.998   3.288  0.0654  0.0296 -0.3149
  178POPC   GL1 2560   3.383  10.011   3.687  0.2514  0.1070 -0.0874
  178POPC   GL2 2561   3.519  10.338   3.686 -0.0340 -0.2110  0.3538
  178POPC   C1A 2562   3.707   9.995   4.037 -0.1592 -0.0675 -0.0112
  178POPC   D2A 2563   4.032  10.110   4.290 -0.5882 -0.2907 -0.2148
  178POPC   C3A 2564   3.865  10.216   4.608 -0.1118  0.1492  0.0264
  178POPC   C4A 2565   3.875  10.217   5.043 -0.0509  0.0081 -0.2388
  178POPC   C1B 2566   3.486  10.438   3.985  0.3490  0.0145 -0.1257
  178POPC   C2B 2567   3.495  10.494   4.415 -0.2139  0.1935 -0.5179
  178POPC   C3B 2568   3.378  10.471   4.923  0.0833 -0.1733 -0.1511
  178POPC   C4B 2569   3.540  10.578   5.267 -0.0253  0.1988  0.0624
  179POPC   NC3 2570   1.272   0.898   3.609  0.2819  0.0454  0.0389
  179POPC   PO4 2571   1.578   0.604   3.553  0.1345 -0.0450  0.2435
  179POPC   GL1 2572   1.666   0.723   4.008  0.0127 -0.0880 -0.1597
  179POPC   GL2 2573   1.995   0.562   4.218  0.1693  0.0395 -0.1022
  179POPC   C1A 2574   1.456   0.907   4.331 -0.0902  0.0031  0.1433
  179POPC   D2A 2575   1.197   1.193   4.607  0.3323 -0.4020 -0.0145
  179POPC   C3A 2576   0.911   1.434   4.465  0.0161  0.2341 -0.0978
  179POPC   C4A 2577   0.454   1.362   4.489  0.2147  0.0105  0.2753
  179POPC   C1B 2578   1.822   0.329   4.480 -0.1372 -0.2842 -0.5783
  179POPC   C2B 2579   1.650   0.199   4.903 -0.1929 -0.0618 -0.0644
  179POPC   C3B 2580   1.543   0.254   5.393  0.3385 -0.3192  0.1148
  179POPC   C4B 2581   1.339  -0.145   5.503 -0.0927 -0.0310 -0.3786
  180POPC   NC3 2582   2.750   0.105   3.252  0.2227  0.0551  0.2637
  180POPC   PO4 2583   2.464   0.367   3.579  0.0472 -0.0977  0.0921
  180POPC   GL1 2584   2.514   0.411   4.040  0.1204  0.0193 -0.0529
  180POPC   GL2 2585   2.356   0.238   4.295  0.3109 -0.0386 -0.0494
  180POPC   C1A 2586   2.880   0.315   4.259  0.1028 -0.3385 -0.0788
  180POPC   D2A 2587   3.029   0.505   4.537 -0.4074  0.2897  0.0170
  180POPC   C3A 2588   3.006   0.686   5.033 -0.0310  0.2474 -0.2136
  180POPC   C4A 2589   3.249   0.736   5.447 -0.1401 -0.2251  0.0695
  180POPC   C1B 2590   2.127   0.241   4.835 -0.1416 -0.0659  0.0863
  180POPC   C2B 2591   2.026   0.198   5.279 -0.0580 -0.3069 -0.1811
  180POPC   C3B 2592   1.965   0.218   5.775 -0.1771  0.0033  0.1888
  180POPC   C4B 2593   1.551  -0.020   5.926 -0.1170  0.2112  0.4098
  181POPC   NC3 2594   1.989   6.801   2.977  0.1241  0.0504 -0.1613
  181POPC   PO4 2595   1.957   6.723   3.378  0.1105  0.0409 -0.3176
  181POPC   GL1 2596   1.934   6.611   3.828  0.0614  0.2231 -0.1210
  181POPC   GL2 2597   2.147   6.779   4.197 -0.1878 -0.0054  0.0335
  181POPC   C1A 2598   2.304   6.302   4.090 -0.3542 -0.0100  0.1514
  181POPC   D2A 2599   2.262   6.150   4.448 -0.0304  0.0664  0.0536
  181POPC   C3A 2600   2.078   6.281   4.887 -0.2290  0.0792 -0.1437
  181POPC   C4A 2601   1.742   6.178   5.100 -0.1347  0.4995  0.3254
  181POPC   C1B 2602   1.878   6.491   4.352  0.0658  0.0995  0.0174
  181POPC   C2B 2603   1.785   6.075   4.490 -0.0675 -0.1210  0.2418
  181POPC   C3B 2604   1.718   5.838   4.739 -0.0211  0.2587  0.0149
  181POPC   C4B 2605   1.768   5.624   5.016 -0.0532 -0.0891 -0.0201
  182POPC   NC3 2606   4.251   2.570   3.902 -0.3060 -0.2210 -0.2235
  182POPC   PO4 2607   4.678   2.695   3.791 -0.0041  0.0421 -0.0676
  182POPC   GL1 2608   4.621   2.722   4.230 -0.4344 -0.0402  0.1575
  182POPC   GL2 2609   4.715   2.504   4.358 -0.4014 -0.1856 -0.1586
  182POPC   C1A 2610   4.555   3.019   4.530 -0.0367 -0.1163  0.0988
  182POPC   D2A 2611   4.734   3.118   4.931  0.3789 -0.3744  0.2543
  182POPC   C3A 2612   5.083   3.088   5.086 -0.0693 -0.1088 -0.0296
  182POPC   C4A 2613   5.461   3.248   4.909  0.1667  0.2650  0.1319
  182POPC   C1B 2614   4.816   2.142   4.796  0.6511 -0.2442 -0.0460
  182POPC   C2B 2615   4.908   2.281   5.292  0.0398  0.0508  0.2253
  182POPC   C3B 2616   4.587   2.403   5.588  0.0674  0.1084 -0.0601
  182POPC   C4B 2617   4.465   2.517   5.998  0.0117  0.2921  0.0928
  183POPC   NC3 2618   7.378   1.978   3.617  0.2441 -0.1090 -0.0092
  183POPC   PO4 2619   7.600   1.619   3.457  0.2200  0.1341 -0.2292
  183POPC   GL1 2620   7.603   1.635   3.920  0.0443  0.1574 -0.0590
  183POPC   GL2 2621   7.898   1.772   4.183 -0.0977 -0.1251  0.1836
  183POPC   C1A 2622   7.414   1.489   4.292 -0.3489 -0.1131 -0.0540
  183POPC   D2A 2623   7.425   1.521   4.778 -0.0789 -0.4109 -0.0297
  183POPC   C3A 2624   7.569   1.900   5.054  0.1573  0.3056 -0.1223
  183POPC   C4A 2625   7.595   2.065   5.546 -0.2524 -0.0659  0.1003
  183POPC   C1B 2626   7.706   1.891   4.551 -0.1016 -0.1038 -0.0850
  183POPC   C2B 2627   7.333   2.147   4.590 -0.1210 -0.0094 -0.1638
  183POPC   C3B 2628   7.036   2.492   4.830  0.2488 -0.2809 -0.3499
  183POPC   C4B 2629   6.665   2.687   4.805 -0.1457  0.2267 -0.0155
  184POPC   NC3 2630   4.559   3.162   3.442  0.3511  0.0495 -0.0961
  184POPC   PO4 2631   4.148   3.036   3.666  0.1366  0.1534  0.1477
  184POPC   GL1 2632   4.283   3.127   4.011  0.1211 -0.1321  0.0438
  184POPC   GL2 2633   4.527   3.308   4.117  0.5417 -0.0035 -0.0176
  184POPC   C1A 2634   4.147   3.345   4.425  0.0324  0.1900  0.2702
  184POPC   D2A 2635   4.245   3.250   4.839  0.1738 -0.0560  0.0553
  184POPC   C3A 2636   4.195   3.046   5.249 -0.3128  0.3582 -0.1327
  184POPC   C4A 2637   4.186   3.206   5.654  0.4141 -0.1035  0.1019
  184POPC   C1B 2638   4.574   3.635   4.486 -0.0649 -0.0898 -0.0128
  184POPC   C2B 2639   4.747   4.008   4.724  0.0713 -0.0704  0.0376
  184POPC   C3B 2640   5.008   4.391   4.606 -0.2726 -0.1062  0.3329
  184POPC   C4B 2641   5.367   4.635   4.503  0.0699 -0.2692 -0.0780
  185POPC   NC3 2642   0.656   0.173   3.439  0.0029 -0.0290  0.0045
  185POPC   PO4 2643   0.817  -0.276   3.610  0.1505  0.4106  0.0782
  185POPC   GL1 2644   0.610  -0.219   4.063 -0.0352 -0.0249  0.2308
  185POPC   GL2 2645   0.520  -0.547   4.022  0.1438 -0.0173  0.4044
  185POPC   C1A 2646   0.706  -0.040   4.379 -0.3353  0.0017 -0.1430
  185POPC   D2A 2647   0.510   0.014   4.774  0.0920 -0.0631  0.0295
  185POPC   C3A 2648   0.579   0.234   5.141  0.0846 -0.0033 -0.1231
  185POPC   C4A 2649   0.965   0.465   5.171 -0.0553  0.0437 -0.2326
  185POPC   C1B 2650   0.337  -0.421   4.515 -0.3691 -0.0605  0.0065
  185POPC   C2B 2651   0.079  -0.619   4.869  0.2885 -0.0976 -0.0964
  185POPC   C3B 2652  -0.370  -0.490   5.059  0.0043  0.2239 -0.3050
  185POPC   C4B 2653  -0.264  -0.300   5.457 -0.0067 -0.1760  0.2655
  186POPC   NC3 2654   1.070   5.564   2.924  0.0572 -0.2268  0.1096
  186POPC   PO4 2655   0.809   5.881   3.156  0.3871 -0.1601 -0.1685
  186POPC   GL1 2656   1.034   5.822   3.466 -0.0555 -0.1104  0.1808
  186POPC   GL2 2657   1.183   5.991   3.658 -0.0599 -0.1853  0.0910
  186POPC   C1A 2658   1.125   5.531   3.844  0.1042  0.1244  0.0361
  186POPC   D2A 2659   1.180   5.423   4.288 -0.0559  0.1365  0.4012
  186POPC   C3A 2660   1.374   5.043   4.357 -0.1377 -0.0518 -0.2467
  186POPC   C4A 2661   1.605   4.788   4.624  0.2571 -0.1532 -0.0265
  186POPC   C1B 2662   1.269   5.897   4.111  0.0205 -0.1566 -0.0067
  186POPC   C2B 2663   1.269   5.959   4.580 -0.0223 -0.2179  0.1537
  186POPC   C3B 2664   1.285   6.136   4.962  0.0344 -0.1606  0.3068
  186POPC   C4B 2665   1.397   5.855   5.336  0.2876  0.0678  0.0747
  187POPC   NC3 2666   2.716   1.232   3.414 -0.2028 -0.0687  0.1803
  187POPC   PO4 2667   3.197   1.146   3.368  0.0738 -0.1161  0.0495
  187POPC   GL1 2668   3.203   0.957   3.730 -0.3826 -0.0256 -0.0762
  187POPC   GL2 2669   3.355   0.672   3.637  0.1146 -0.0872  0.1332
  187POPC   C1A 2670   3.086   0.836   4.147  0.1109  0.2951 -0.1033
  187POPC   D2A 2671   2.692   0.858   4.317 -0.0058  0.0168 -0.0513
  187POPC   C3A 2672   2.484   0.640   4.625 -0.0385 -0.3505  0.3927
  187POPC   C4A 2673   2.283   0.819   5.024  0.1557 -0.1839  0.0209
  187POPC   C1B 2674   3.632   0.718   4.022 -0.2947 -0.1198 -0.0787
  187POPC   C2B 2675   3.951   0.958   4.217  0.0733  0.0374  0.1390
  187POPC   C3B 2676   4.104   1.015   4.610 -0.2737 -0.0707  0.1977
  187POPC   C4B 2677   4.131   0.933   5.089 -0.0819  0.0901  0.2894
  188POPC   NC3 2678   9.393   3.981   3.465 -0.1494  0.0122  0.1440
  188POPC   PO4 2679   9.520   3.762   3.841 -0.0203 -0.3447 -0.4277
  188POPC   GL1 2680   9.463   3.857   4.269 -0.3677  0.0258 -0.1218
  188POPC   GL2 2681   9.794   3.964   4.223 -0.2308 -0.1601 -0.2945
  188POPC   C1A 2682   9.477   3.958   4.677 -0.2294 -0.1064  0.1148
  188POPC   D2A 2683   9.216   4.004   5.008  0.0875 -0.1093  0.1277
  188POPC   C3A 2684   9.286   4.189   5.297 -0.1031 -0.0086  0.1417
  188POPC   C4A 2685   9.340   4.261   5.737  0.0803  0.0334  0.2420
  188POPC   C1B 2686  10.157   4.133   4.475  0.1600  0.0597  0.0655
  188POPC   C2B 2687  10.532   4.180   4.718 -0.2579 -0.0140  0.3241
  188POPC   C3B 2688  10.633   4.346   5.104  0.0316 -0.1950 -0.1742
  188POPC   C4B 2689  10.532   4.307   5.543  0.1795  0.0701 -0.3793
  189POPC   NC3 2690   8.921   1.469   3.523 -0.2706  0.0968 -0.0478
  189POPC   PO4 2691   8.558   1.767   3.582  0.2242 -0.1203 -0.1917
  189POPC   GL1 2692   8.377   1.742   4.030  0.0898 -0.3650 -0.2101
  189POPC   GL2 2693   8.215   1.432   4.209  0.2121  0.3605  0.0879
  189POPC   C1A 2694   8.360   1.929   4.461 -0.2193  0.1318  0.1937
  189POPC   D2A 2695   8.214   2.126   4.891  0.3092 -0.1194  0.0342
  189POPC   C3A 2696   8.046   1.859   5.302  0.1891  0.0608 -0.0627
  189POPC   C4A 2697   8.173   1.773   5.781 -0.3371 -0.0208  0.0478
  189POPC   C1B 2698   8.212   1.488   4.663 -0.0934 -0.0439 -0.0121
  189POPC   C2B 2699   7.904   1.521   4.892 -0.0303 -0.2528 -0.0248
  189POPC   C3B 2700   7.678   1.388   5.247 -0.1822  0.1492  0.0936
  189POPC   C4B 2701   7.653   1.513   5.568  0.1327  0.0671  0.1731
  190POPC   NC3 2702   6.876   9.647   3.210 -0.1340  0.0323  0.1849
  190POPC   PO4 2703   6.915   9.833   3.625  0.1485  0.0442  0.1658
  190POPC   GL1 2704   6.686   9.635   3.923  0.0506 -0.1726  0.0072
  190POPC   GL2 2705   6.516   9.683   4.071 -0.1052 -0.3735  0.3159
  190POPC   C1A 2706   6.449   9.181   4.034  0.0884  0.4380 -0.0337
  190POPC   D2A 2707   6.143   9.008   4.269  0.2893 -0.0329  0.2887
  190POPC   C3A 2708   6.195   8.874   4.647 -0.3490 -0.0590 -0.1209
  190POPC   C4A 2709   6.206   9.001   5.028 -0.1512 -0.1262  0.0193
  190POPC   C1B 2710   6.316   9.476   4.486 -0.1527 -0.0666  0.3892
  190POPC   C2B 2711   6.112   9.480   4.960  0.1669  0.1433 -0.1489
  190POPC   C3B 2712   6.064   9.696   5.365  0.2479  0.0080  0.2732
  190POPC   C4B 2713   5.743   9.752   5.730  0.0105  0.1049 -0.2681
  191POPC   NC3 2714   3.742   0.898   3.374  0.4165  0.0294  0.3068
  191POPC   PO4 2715   3.756   0.425   3.410  0.3080 -0.0289 -0.2468
  191POPC   GL1 2716   3.961   0.285   3.856  0.1827  0.3507 -0.2341
  191POPC   GL2 2717   4.074   0.501   3.829 -0.1524 -0.5809 -0.1334
  191POPC   C1A 2718   3.988   0.414   4.309 -0.0428 -0.1529  0.0645
  191POPC   D2A 2719   3.843   0.456   4.792  0.0282  0.0327 -0.0374
  191POPC   C3A 2720   4.069   0.470   5.004 -0.1392  0.0928  0.1790
  191POPC   C4A 2721   4.157   0.317   5.371  0.1313 -0.0618 -0.2594
  191POPC   C1B 2722   4.438   0.378   4.023  0.0984  0.0652 -0.1499
  191POPC   C2B 2723   4.769   0.510   4.327  0.1887  0.0845  0.1532
  191POPC   C3B 2724   4.878   0.292   4.682  0.3743 -0.0763  0.2432
  191POPC   C4B 2725   5.141   0.071   4.918  0.0868  0.0947  0.0952
  192POPC   NC3 2726   6.534   1.107   3.359 -0.0743  0.0121 -0.0383
  192POPC   PO4 2727   6.593   1.154   3.770 -0.1647 -0.0046 -0.1080
  192POPC   GL1 2728   6.787   1.421   4.084 -0.1769  0.1240 -0.3665
  192POPC   GL2 2729   6.617   1.215   4.267  0.1056  0.0350 -0.2070
  192POPC   C1A 2730   6.949   1.532   4.480 -0.0861  0.1660  0.4719
  192POPC   D2A 2731   7.021   1.888   4.894 -0.0615  0.0742  0.0882
  192POPC   C3A 2732   7.169   1.657   5.168 -0.0883  0.0945 -0.2073
  192POPC   C4A 2733   7.170   1.702   5.613  0.2720 -0.0448  0.2792
  192POPC   C1B 2734   6.602   1.249   4.680  0.2960  0.0316 -0.1970
  192POPC   C2B 2735   6.914   1.223   5.041 -0.5255 -0.1252  0.1251
  192POPC   C3B 2736   7.239   1.164   5.186  0.3322 -0.6606 -0.2441
  192POPC   C4B 2737   7.323   1.147   5.546 -0.2260  0.0492  0.0838
  193POPC   NC3 2738   4.699   4.664   3.588  0.2223 -0.1095 -0.2362
  193POPC   PO4 2739   4.679   4.241   3.833 -0.0935 -0.1246  0.1756
  193POPC   GL1 2740   4.346   4.304   4.237  0.2048 -0.1792  0.3489
  193POPC   GL2 2741   4.059   4.301   4.019 -0.0591  0.1852  0.0084
  193POPC   C1A 2742   4.365   4.329   4.687  0.1472 -0.0562  0.1844
  193POPC   D2A 2743   4.691   4.492   4.936 -0.0300  0.0702 -0.3710
  193POPC   C3A 2744   4.824   4.375   5.292 -0.3784  0.0545  0.1105
  193POPC   C4A 2745   4.823   4.486   5.733  0.2501 -0.2184  0.1230
  193POPC   C1B 2746   3.950   4.445   4.464  0.3199 -0.4880 -0.1672
  193POPC   C2B 2747   3.646   4.518   4.895 -0.1017  0.0066  0.0622
  193POPC   C3B 2748   3.543   4.706   5.183  0.0359 -0.0863  0.0824
  193POPC   C4B 2749   3.401   4.788   5.539  0.1087 -0.1376  0.0275
  194POPC   NC3 2750  10.161   3.093   4.553  0.0032  0.1553 -0.2260
  194POPC   PO4 2751   9.849   2.982   4.204  0.0319 -0.0373  0.0455
  194POPC   GL1 2752   9.733   2.824   4.679  0.2131  0.0353  0.0689
  194POPC   GL2 2753   9.994   2.676   4.798  0.1123  0.3082 -0.1630
  194POPC   C1A 2754   9.511   2.885   4.989  0.1475 -0.2811  0.2641
  194POPC   D2A 2755   9.222   3.121   5.242 -0.2696 -0.0627  0.0722
  194POPC   C3A 2756   8.882   3.052   5.448 -0.1656  0.2144  0.2207
  194POPC   C4A 2757   8.551   3.197   5.702 -0.3551  0.3712  0.4890
  194POPC   C1B 2758  10.036   2.889   5.153 -0.0041  0.2144  0.0914
  194POPC   C2B 2759   9.945   2.724   5.612 -0.0794 -0.0154  0.0241
  194POPC   C3B 2760   9.826   2.816   6.005  0.5351 -0.1015 -0.0700
  194POPC   C4B 2761   9.434   2.972   6.277 -0.0829 -0.2980  0.2016
  195POPC   NC3 2762   8.118   5.163   3.294 -0.0874 -0.1488 -0.0431
  195POPC   PO4 2763   8.289   4.969   3.667 -0.2774 -0.0721  0.0988
  195POPC   GL1 2764   8.040   4.790   4.124 -0.1558  0.1712 -0.1762
  195POPC   GL2 2765   8.233   4.956   4.289 -0.0400 -0.0948 -0.1398
  195POPC   C1A 2766   8.027   4.508   4.573  0.0610  0.1177 -0.3385
  195POPC   D2A 2767   8.141   4.468   4.923 -0.0031 -0.1305  0.0829
  195POPC   C3A 2768   7.936   4.214   5.279 -0.0897  0.5294  0.1404
  195POPC   C4A 2769   7.808   3.962   5.598  0.3015 -0.0128  0.0527
  195POPC   C1B 2770   8.199   4.978   4.637 -0.3805 -0.3084  0.1927
  195POPC   C2B 2771   8.210   4.967   5.162 -0.2643  0.0794  0.1261
  195POPC   C3B 2772   8.356   4.693   5.367 -0.1501  0.2002  0.1204
  195POPC   C4B 2773   8.446   4.418   5.582  0.1562 -0.5612  0.0591
  196POPC   NC3 2774   8.269   9.795   3.811 -0.0763 -0.2695 -0.1997
  196POPC   PO4 2775   7.923   9.583   3.632  0.1920  0.0637 -0.1846
  196POPC   GL1 2776   7.848   9.496   3.981  0.3337 -0.0544 -0.2778
  196POPC   GL2 2777   7.893   9.257   4.216  0.1369  0.0269 -0.1579
  196POPC   C1A 2778   7.489   9.469   4.288  0.1702  0.0401  0.3201
  196POPC   D2A 2779   7.424   9.226   4.610  0.3337 -0.0603 -0.4643
  196POPC   C3A 2780   7.536   9.022   5.006  0.0512 -0.1537  0.0054
  196POPC   C4A 2781   7.399   8.881   5.414 -0.1584 -0.1497 -0.0243
  196POPC   C1B 2782   7.898   9.292   4.660 -0.0807  0.0216 -0.0110
  196POPC   C2B 2783   8.093   9.292   5.041 -0.4303  0.1545  0.3330
  196POPC   C3B 2784   8.254   9.507   5.374  0.0417  0.1604 -0.0665
  196POPC   C4B 2785   8.375   9.832   5.536  0.0874  0.0371 -0.1413
  197POPC   NC3 2786   5.175   2.903   3.681 -0.1185  0.0976 -0.2295
  197POPC   PO4 2787   4.935   3.200   3.879 -0.3344  0.1281  0.1420
  197POPC   GL1 2788   5.098   3.119   4.326  0.0554 -0.3061 -0.1148
  197POPC   GL2 2789   5.034   3.350   4.527  0.3063 -0.2044  0.0479
  197POPC   C1A 2790   4.991   2.845   4.636  0.0706  0.0668 -0.0554
  197POPC   D2A 2791   4.732   2.618   4.919  0.0202 -0.0751 -0.2311
  197POPC   C3A 2792   4.688   2.805   5.344  0.2182  0.1018 -0.1061
  197POPC   C4A 2793   5.008   2.639   5.630 -0.6282  0.2212 -0.3978
  197POPC   C1B 2794   4.821   3.605   4.978 -0.0507  0.1495 -0.0717
  197POPC   C2B 2795   5.021   3.798   5.385 -0.1569 -0.1169 -0.0653
  197POPC   C3B 2796   5.332   3.862   5.543 -0.2137  0.1403  0.0432
  197POPC   C4B 2797   5.733   3.620   5.583 -0.1876  0.1156 -0.1490
  198POPC   NC3 2798   5.010   1.905   3.781 -0.0549 -0.1406  0.1298
  198POPC   PO4 2799   5.133   2.131   4.105  0.2097 -0.1013  0.3116
  198POPC   GL1 2800   5.080   1.876   4.419 -0.0825  0.1962 -0.0887
  198POPC   GL2 2801   5.199   1.859   4.731  0.1417  0.0242 -0.0519
  198POPC   C1A 2802   5.189   1.426   4.512  0.0160  0.1335 -0.3331
  198POPC   D2A 2803   5.272   1.297   4.901 -0.6006  0.2256  0.1486
  198POPC   C3A 2804   5.518   0.897   4.723 -0.1849 -0.0427  0.0381
  198POPC   C4A 2805   5.815   0.662   4.512  0.2026 -0.1029 -0.0653
  198POPC   C1B 2806   5.316   2.203   4.975  0.1557 -0.1292 -0.2667
  198POPC   C2B 2807   5.388   2.160   5.418 -0.3282  0.1265 -0.2357
  198POPC   C3B 2808   5.430   1.861   5.715 -0.2308 -0.0542  0.0825
  198POPC   C4B 2809   5.247   1.642   5.936  0.4105  0.0868  0.1931
  199POPC   NC3 2810   1.882   1.009   3.627  0.0527 -0.4778 -0.0879
  199POPC   PO4 2811   2.201   0.738   3.837  0.0676  0.2273  0.0595
  199POPC   GL1 2812   2.204   1.016   4.151 -0.2443  0.1009  0.1708
  199POPC   GL2 2813   1.954   1.074   4.224  0.2352  0.3586  0.0638
  199POPC   C1A 2814   2.327   1.159   4.600  0.1167  0.1456  0.1167
  199POPC   D2A 2815   2.625   1.125   4.919 -0.3584  0.0472 -0.0097
  199POPC   C3A 2816   2.698   0.967   5.364  0.1917  0.1571  0.0798
  199POPC   C4A 2817   2.358   0.648   5.457 -0.2452 -0.0930 -0.1354
  199POPC   C1B 2818   1.946   0.841   4.615  0.3218 -0.0822  0.1143
  199POPC   C2B 2819   1.858   0.638   5.104  0.1808 -0.0129 -0.1244
  199POPC   C3B 2820   1.884   0.812   5.522  0.0119  0.1346  0.1493
  199POPC   C4B 2821   2.065   0.750   5.849  0.0288 -0.2322 -0.1045
  200POPC   NC3 2822   2.220   9.312   3.963  0.0758  0.1590  0.0715
  200POPC   PO4 2823   2.626   9.281   4.155 -0.0038 -0.0217 -0.1319
  200POPC   GL1 2824   2.736   9.226   4.572 -0.1303 -0.0969 -0.1994
  200POPC   GL2 2825   2.678   8.813   4.573 -0.1456  0.0146  0.1155
  200POPC   C1A 2826   2.943   9.201   4.952 -0.0760  0.1368  0.2310
  200POPC   D2A 2827   3.017   9.258   5.423 -0.1143  0.1009  0.1200
  200POPC   C3A 2828   3.074   9.233   5.775 -0.2143  0.0088  0.2295
  200POPC   C4A 2829   3.458   9.302   5.936  0.1872  0.1601 -0.0873
  200POPC   C1B 2830   2.368   8.979   4.866 -0.3193  0.5347  0.0639
  200POPC   C2B 2831   2.409   9.097   5.354 -0.4499 -0.0566  0.2272
  200POPC   C3B 2832   2.171   9.371   5.692  0.0296  0.2516 -0.1342
  200POPC   C4B 2833   2.126   9.645   6.063  0.1960  0.1839  0.0859
  201POPC   NC3 2834   6.652   1.948   3.912  0.1224  0.1162  0.1641
  201POPC   PO4 2835   7.067   1.994   3.990  0.3802  0.0611 -0.0031
  201POPC   GL1 2836   6.839   2.027   4.405 -0.0955  0.1516  0.0534
  201POPC   GL2 2837   6.553   1.861   4.395 -0.0698 -0.0773  0.2082
  201POPC   C1A 2838   6.581   2.222   4.715  0.2828 -0.0928 -0.1486
  201POPC   D2A 2839   6.598   2.264   5.112 -0.1799  0.0796 -0.0323
  201POPC   C3A 2840   6.884   2.498   5.314  0.1506  0.0117 -0.2016
  201POPC   C4A 2841   7.192   2.747   5.261 -0.1259  0.0205 -0.0992
  201POPC   C1B 2842   6.402   1.772   4.862  0.0220  0.3964 -0.0310
  201POPC   C2B 2843   6.644   1.598   5.180 -0.1811 -0.0871 -0.0334
  201POPC   C3B 2844   6.705   1.372   5.544 -0.0463 -0.2335  0.1804
  201POPC   C4B 2845   6.557   1.339   5.975 -0.0722  0.2710 -0.0865
  202POPC   NC3 2846   6.718   4.646   3.696 -0.1125 -0.0460 -0.0962
  202POPC   PO4 2847   6.532   4.221   3.809 -0.2186 -0.0073 -0.1376
  202POPC   GL1 2848   6.235   4.409   4.009 -0.1136  0.0733  0.0363
  202POPC   GL2 2849   5.955   4.623   3.963  0.3582  0.0133  0.2168
  202POPC   C1A 2850   6.080   4.546   4.475  0.2130  0.0440  0.4098
  202POPC   D2A 2851   6.334   4.558   4.915 -0.0929 -0.1601 -0.0710
  202POPC   C3A 2852   6.133   4.468   5.279 -0.0712  0.3684 -0.3684
  202POPC   C4A 2853   6.031   4.482   5.752 -0.0695 -0.0379  0.2074
  202POPC   C1B 2854   5.770   4.997   4.261 -0.4398 -0.1769  0.1469
  202POPC   C2B 2855   5.486   5.105   4.707  0.0169  0.3142 -0.1131
  202POPC   C3B 2856   5.555   5.033   5.143 -0.1377 -0.2590  0.0265
  202POPC   C4B 2857   5.606   4.714   5.487  0.0855 -0.1942 -0.1664
  203POPC   NC3 2858   1.153   8.462   3.741 -0.0568  0.0969 -0.1342
  203POPC   PO4 2859   0.784   8.587   4.021 -0.4684 -0.0948  0.0067
  203POPC   GL1 2860   0.972   8.475   4.437 -0.2825 -0.2415 -0.1479
  203POPC   GL2 2861   1.202   8.270   4.348  0.0267 -0.0525  0.1076
  203POPC   C1A 2862   1.103   8.424   4.789  0.0461 -0.1377 -0.3404
  203POPC   D2A 2863   0.846   8.722   5.092 -0.2437  0.2838  0.0443
  203POPC   C3A 2864   0.785   8.470   5.365 -0.2314  0.2844  0.4577
  203POPC   C4A 2865   0.772   8.063   5.642  0.2545 -0.0730  0.2389
  203POPC   C1B 2866   1.022   7.971   4.633 -0.1062 -0.2401  0.3714
  203POPC   C2B 2867   1.001   7.491   4.722 -0.2568  0.1958 -0.2560
  203POPC   C3B 2868   1.084   7.269   5.075 -0.2682  0.0367  0.0963
  203POPC   C4B 2869   1.217   7.107   5.485 -0.3403 -0.1330  0.0739
  204POPC   NC3 2870   7.307   0.106   3.758  0.0677  0.0094  0.0889
  204POPC   PO4 2871   7.706   0.330   3.915 -0.1491 -0.1334  0.0716
  204POPC   GL1 2872   7.467   0.025   4.233 -0.0768  0.3583  0.0676
  204POPC   GL2 2873   7.680  -0.248   4.342  0.0059  0.0636  0.1397
  204POPC   C1A 2874   7.111  -0.354   4.398  0.2077 -0.0457 -0.2367
  204POPC   D2A 2875   7.054  -0.565   4.780  0.0677 -0.1606  0.1165
  204POPC   C3A 2876   6.917  -0.403   5.254 -0.1828  0.0019 -0.4653
  204POPC   C4A 2877   6.557  -0.333   5.474 -0.0333 -0.4658 -0.1462
  204POPC   C1B 2878   7.532  -0.372   4.741  0.1118 -0.3015 -0.1430
  204POPC   C2B 2879   7.522  -0.700   5.047  0.0860  0.2507 -0.1795
  204POPC   C3B 2880   7.717  -0.812   5.407  0.1312 -0.0758  0.0640
  204POPC   C4B 2881   8.003  -1.092   5.704  0.0250 -0.0544  0.0643
  205POPC   NC3 2882   9.992   2.950   3.753 -0.1557  0.0603  0.0100
  205POPC   PO4 2883  10.319   3.208   4.123  0.1280  0.0680  0.1084
  205POPC   GL1 2884  10.163   3.607   4.396 -0.0691 -0.0188  0.1519
  205POPC   GL2 2885   9.901   3.536   4.457 -0.0271 -0.0911 -0.0432
  205POPC   C1A 2886  10.354   3.704   4.779 -0.1191  0.1418 -0.0375
  205POPC   D2A 2887  10.199   3.943   5.201  0.0657 -0.2645 -0.0355
  205POPC   C3A 2888  10.080   4.336   5.008  0.0198  0.1856 -0.0171
  205POPC   C4A 2889  10.099   4.707   5.302  0.1087  0.1755  0.2838
  205POPC   C1B 2890   9.862   3.647   4.843 -0.1487  0.1385 -0.2935
  205POPC   C2B 2891   9.881   3.328   5.068  0.1223  0.0279  0.3988
  205POPC   C3B 2892   9.706   3.157   5.448  0.0346  0.3505  0.0621
  205POPC   C4B 2893   9.373   2.982   5.694  0.1988 -0.1852  0.1064
  206POPC   NC3 2894   2.819   3.775   4.077 -0.2439  0.1304  0.1151
  206POPC   PO4 2895   2.519   3.692   3.876  0.0896  0.2738 -0.1689
  206POPC   GL1 2896   2.267   4.151   4.006 -0.1755  0.1268 -0.0236
  206POPC   GL2 2897   2.206   4.287   4.344 -0.3109 -0.0035  0.4049
  206POPC   C1A 2898   2.021   4.535   3.932  0.3161 -0.1135  0.0769
  206POPC   D2A 2899   1.820   4.783   3.663  0.3078 -0.2361  0.0544
  206POPC   C3A 2900   1.904   5.244   3.621 -0.0769 -0.1052  0.2657
  206POPC   C4A 2901   1.888   5.549   3.216 -0.1947 -0.0689 -0.1214
  206POPC   C1B 2902   2.071   4.672   4.549 -0.0737 -0.0694  0.2881
  206POPC   C2B 2903   2.136   5.069   4.721 -0.1562 -0.0235  0.1402
  206POPC   C3B 2904   2.148   5.300   5.091 -0.2177  0.2705  0.4136
  206POPC   C4B 2905   2.213   5.614   5.405 -0.1792  0.2319  0.1011
  207POPC   NC3 2906   6.380   9.937   3.573 -0.1579 -0.1081 -0.0625
  207POPC   PO4 2907   5.958   9.707   3.515 -0.0395 -0.0175  0.2408
  207POPC   GL1 2908   6.041   9.771   3.913  0.1891 -0.1271  0.1101
  207POPC   GL2 2909   5.935   9.602   4.105  0.3641 -0.0906  0.0444
  207POPC   C1A 2910   6.172  10.058   4.242  0.1081  0.0428 -0.0697
  207POPC   D2A 2911   6.227  10.138   4.665  0.1462 -0.0892  0.0235
  207POPC   C3A 2912   6.066  10.062   5.032  0.0088  0.0165  0.0526
  207POPC   C4A 2913   5.847  10.155   5.438  0.3399 -0.1223  0.0744
  207POPC   C1B 2914   5.844   9.703   4.567 -0.4495 -0.1262  0.2585
  207POPC   C2B 2915   5.375   9.550   4.580  0.2727  0.0189 -0.2980
  207POPC   C3B 2916   5.098   9.491   5.012 -0.1653 -0.0227 -0.0808
  207POPC   C4B 2917   4.761   9.484   5.294 -0.0071 -0.3658  0.1737
  208POPC   NC3 2918   5.971   7.795   3.822  0.1317  0.1586  0.4702
  208POPC   PO4 2919   5.753   7.465   3.958 -0.1432 -0.2989 -0.2762
  208POPC   GL1 2920   5.665   7.705   4.289  0.0074 -0.0837 -0.2444
  208POPC   GL2 2921   6.023   7.751   4.327  0.2937 -0.1241  0.2545
  208POPC   C1A 2922   5.488   7.881   4.665  0.1768  0.1513 -0.2274
  208POPC   D2A 2923   5.196   8.019   4.932 -0.1756 -0.0113 -0.0916
  208POPC   C3A 2924   4.907   7.728   5.232  0.0475  0.0570 -0.0489
  208POPC   C4A 2925   4.639   7.419   5.248 -0.0495  0.0089  0.0409
  208POPC   C1B 2926   5.926   7.656   4.821 -0.0465 -0.1544 -0.0420
  208POPC   C2B 2927   5.965   7.652   5.282  0.2589  0.0910  0.0436
  208POPC   C3B 2928   6.248   7.703   5.622  0.1868 -0.0445 -0.0365
  208POPC   C4B 2929   6.434   8.012   5.726 -0.0936 -0.2817 -0.1577
  209POPC   NC3 2930   8.654   9.963   3.540  0.0157 -0.1698  0.3114
  209POPC   PO4 2931   8.765  10.309   3.773  0.0815 -0.0295  0.2141
  209POPC   GL1 2932   8.626  10.392   4.166  0.1659 -0.1735  0.0681
  209POPC   GL2 2933   8.573  10.759   4.258  0.3718  0.2875 -0.0385
  209POPC   C1A 2934   8.912  10.428   4.528 -0.3266 -0.1420  0.3361
  209POPC   D2A 2935   8.885  10.454   4.897  0.0987 -0.1687 -0.0859
  209POPC   C3A 2936   8.861  10.061   5.206 -0.0926 -0.0461 -0.5920
  209POPC   C4A 2937   8.922   9.870   5.621  0.0853 -0.1302  0.1540
  209POPC   C1B 2938   8.366  10.608   4.705  0.1460 -0.0615  0.1142
  209POPC   C2B 2939   8.345  10.635   5.142  0.2019 -0.0641 -0.4207
  209POPC   C3B 2940   8.537  10.802   5.511  0.0121  0.0717 -0.1806
  209POPC   C4B 2941   8.593  11.138   5.745  0.3454 -0.0807 -0.0265
  210POPC   NC3 2942   8.136   0.502   4.057  0.1721 -0.0849  0.1630
  210POPC   PO4 2943   8.253   0.187   3.817  0.0639  0.0093 -0.0814
  210POPC   GL1 2944   8.190  -0.082   4.165 -0.1278  0.0529 -0.2524
  210POPC   GL2 2945   8.147  -0.407   4.314  0.2322 -0.1779  0.2027
  210POPC   C1A 2946   7.991  -0.042   4.653  0.1548  0.1254  0.0794
  210POPC   D2A 2947   7.967   0.089   5.074  0.1414  0.1464 -0.0194
  210POPC   C3A 2948   7.873  -0.198   5.521  0.1335  0.0432 -0.1918
  210POPC   C4A 2949   7.656  -0.190   5.874  0.3007  0.1180  0.1042
  210POPC   C1B 2950   8.190  -0.466   4.716  0.0787  0.0369  0.0209
  210POPC   C2B 2951   8.378  -0.183   5.062  0.0203 -0.0459 -0.0870
  210POPC   C3B 2952   8.421   0.099   5.549 -0.0051  0.4607  0.0400
  210POPC   C4B 2953   8.663   0.158   5.787  0.1185 -0.1772  0.0528
  211POPC   NC3 2954   9.671   5.388   3.237 -0.0068 -0.4647  0.1634
  211POPC   PO4 2955   9.983   5.250   3.603 -0.1114  0.0552 -0.1382
  211POPC   GL1 2956  10.123   5.568   3.949 -0.4006  0.0679  0.2235
  211POPC   GL2 2957  10.059   5.916   3.973 -0.0952  0.1423  0.0666
  211POPC   C1A 2958  10.478   5.501   4.084  0.0775 -0.1143  0.1210
  211POPC   D2A 2959  10.642   5.414   4.469 -0.0818 -0.1391 -0.1888
  211POPC   C3A 2960  10.639   5.032   4.459  0.1265 -0.0220  0.6299
  211POPC   C4A 2961  10.809   4.677   4.635 -0.1375 -0.1838  0.0709
  211POPC   C1B 2962  10.302   5.795   4.432 -0.0686  0.0199 -0.1053
  211POPC   C2B 2963  10.477   5.714   4.807  0.1109 -0.0057 -0.0766
  211POPC   C3B 2964  10.593   5.604   5.260  0.2461  0.3214  0.0780
  211POPC   C4B 2965  10.518   5.722   5.615 -0.1743 -0.0458 -0.1373
  212POPC   NC3 2966   9.982   6.485   3.798 -0.0409 -0.2009  0.0605
  212POPC   PO4 2967  10.124   6.163   3.556  0.2426  0.0130  0.2222
  212POPC   GL1 2968  10.462   6.039   3.757  0.1631 -0.0041 -0.0107
  212POPC   GL2 2969  10.504   6.369   3.864 -0.0025  0.0855 -0.0526
  212POPC   C1A 2970  10.810   5.908   3.926 -0.1680 -0.0542  0.3193
  212POPC   D2A 2971  10.983   5.732   4.256 -0.1689  0.1693  0.2619
  212POPC   C3A 2972  11.024   5.757   4.635 -0.1139  0.1989 -0.1765
  212POPC   C4A 2973  11.011   5.486   4.962  0.0941 -0.1385 -0.1388
  212POPC   C1B 2974  10.455   6.263   4.266  0.0506  0.0657 -0.0794
  212POPC   C2B 2975  10.634   6.109   4.659 -0.0807 -0.1787 -0.0467
  212POPC   C3B 2976  11.014   6.086   5.040  0.1065 -0.0527  0.0084
  212POPC   C4B 2977  11.215   6.291   5.422  0.1128  0.0026  0.0144
  213POPC   NC3 2978   3.426   1.176   2.928  0.1500 -0.0023  0.0975
  213POPC   PO4 2979   3.636   1.400   3.302 -0.0489  0.0632  0.0077
  213POPC   GL1 2980   3.642   1.239   3.842 -0.1356  0.0659  0.0930
  213POPC   GL2 2981   3.415   1.562   3.907  0.1769  0.1432  0.0457
  213POPC   C1A 2982   3.490   1.149   4.207 -0.5034  0.0509  0.1303
  213POPC   D2A 2983   3.386   0.847   4.565  0.1165 -0.1543  0.2171
  213POPC   C3A 2984   3.515   0.843   4.932 -0.1562 -0.2561  0.1133
  213POPC   C4A 2985   3.711   0.840   5.307  0.3571  0.0180 -0.5189
  213POPC   C1B 2986   3.233   1.566   4.347  0.2087 -0.2055  0.1779
  213POPC   C2B 2987   3.216   1.928   4.585 -0.0451  0.1109  0.0278
  213POPC   C3B 2988   3.479   2.315   4.675  0.1800 -0.1534 -0.1704
  213POPC   C4B 2989   3.830   2.585   4.866  0.1278 -0.2133  0.1399
  214POPC   NC3 2990   5.313  10.001   3.585  0.1854 -0.1843 -0.1173
  214POPC   PO4 2991   5.534   9.675   3.786 -0.4780  0.0159 -0.2261
  214POPC   GL1 2992   5.516   9.858   4.199  0.1479  0.0557 -0.1616
  214POPC   GL2 2993   5.599  10.141   4.033  0.0392 -0.0528  0.1376
  214POPC   C1A 2994   5.455  10.095   4.610 -0.2316  0.2825  0.0420
  214POPC   D2A 2995   5.603  10.092   4.927  0.2889  0.0217  0.0186
  214POPC   C3A 2996   5.696  10.542   5.128 -0.0080 -0.1841  0.0586
  214POPC   C4A 2997   5.506  10.933   5.177  0.0547  0.0025  0.0752
  214POPC   C1B 2998   5.853  10.356   4.441 -0.2169 -0.0806  0.2207
  214POPC   C2B 2999   6.126  10.549   4.824  0.1553  0.0370 -0.1583
  214POPC   C3B 3000   6.152  10.528   5.248 -0.3281  0.0034 -0.2328
  214POPC   C4B 3001   5.943  10.627   5.679  0.2214 -0.0675 -0.0495
  215POPC   NC3 3002   4.312   7.697   4.001  0.1249  0.0391 -0.1107
  215POPC   PO4 3003   4.760   7.517   3.956 -0.1136  0.2746 -0.0977
  215POPC   GL1 3004   5.051   7.285   4.194  0.1303  0.2039  0.3341
  215POPC   GL2 3005   5.190   7.501   4.413 -0.3155 -0.1774 -0.0818
  215POPC   C1A 3006   5.072   6.998   4.580 -0.3127 -0.0184 -0.1353
  215POPC   D2A 3007   4.919   6.928   4.905  0.3270  0.4193  0.1050
  215POPC   C3A 3008   5.011   7.100   5.242  0.2425  0.0550  0.2511
  215POPC   C4A 3009   4.864   7.202   5.688  0.2078  0.0857 -0.2553
  215POPC   C1B 3010   4.835   7.797   4.557  0.1935 -0.0378  0.1492
  215POPC   C2B 3011   4.563   7.818   4.885  0.1720  0.3210 -0.2435
  215POPC   C3B 3012   4.261   7.720   5.351 -0.2504  0.0615 -0.1247
  215POPC   C4B 3013   4.150   7.970   5.674  0.0638  0.2810 -0.1236
  216POPC   NC3 3014   4.818   6.159   3.418 -0.0349  0.1742 -0.1190
  216POPC   PO4 3015   4.456   6.087   3.354  0.0405 -0.2341  0.1638
  216POPC   GL1 3016   4.474   6.144   3.792  0.1908 -0.0084  0.4738
  216POPC   GL2 3017   4.476   6.468   3.968  0.1470  0.2310 -0.1136
  216POPC   C1A 3018   4.353   5.771   4.022 -0.0918 -0.1395  0.0616
  216POPC   D2A 3019   4.173   5.695   4.357  0.1935  0.2159  0.1485
  216POPC   C3A 3020   4.121   5.890   4.851 -0.3495  0.2048 -0.0174
  216POPC   C4A 3021   4.335   5.922   5.257 -0.2138  0.0560 -0.2713
  216POPC   C1B 3022   4.092   6.312   4.115  0.0111 -0.0197  0.2537
  216POPC   C2B 3023   3.959   6.392   4.608 -0.1209 -0.0400 -0.2112
  216POPC   C3B 3024   4.010   6.353   5.084  0.0550  0.1666  0.0890
  216POPC   C4B 3025   3.909   6.310   5.492 -0.0959  0.1950  0.1916
  217POPC   NC3 3026   1.641   7.452   3.602 -0.1277  0.1515  0.4256
  217POPC   PO4 3027   1.970   7.169   3.689 -0.0227 -0.0483 -0.1225
  217POPC   GL1 3028   1.815   7.115   4.065  0.3380 -0.1813  0.1494
  217POPC   GL2 3029   1.609   6.858   4.206 -0.1867  0.0093  0.0917
  217POPC   C1A 3030   1.748   7.323   4.425  0.2613  0.1088 -0.1015
  217POPC   D2A 3031   1.516   7.490   4.791  0.0019  0.1027 -0.1963
  217POPC   C3A 3032   1.403   7.870   4.924 -0.0423 -0.0125  0.0286
  217POPC   C4A 3033   1.312   8.234   5.266 -0.3795 -0.1268 -0.0481
  217POPC   C1B 3034   1.811   6.891   4.646 -0.1188 -0.0561  0.0642
  217POPC   C2B 3035   1.996   6.760   5.031  0.1388 -0.1281 -0.0487
  217POPC   C3B 3036   2.101   6.445   5.386  0.1882 -0.0789 -0.1332
  217POPC   C4B 3037   2.405   6.028   5.456  0.0623  0.2743  0.1639
  218POPC   NC3 3038   7.357   6.139   3.412  0.1243 -0.0369 -0.0939
  218POPC   PO4 3039   7.116   5.899   3.706 -0.2113 -0.2455  0.0091
  218POPC   GL1 3040   7.300   5.781   4.176  0.2109  0.0315  0.0369
  218POPC   GL2 3041   7.573   5.818   4.239 -0.0242 -0.3337 -0.0337
  218POPC   C1A 3042   7.066   5.507   4.403 -0.0384  0.1341 -0.2327
  218POPC   D2A 3043   6.715   5.737   4.629 -0.0728 -0.0557  0.0748
  218POPC   C3A 3044   6.919   5.969   5.019  0.1919  0.1080  0.3483
  218POPC   C4A 3045   7.133   5.844   5.336 -0.0836 -0.2485 -0.0996
  218POPC   C1B 3046   7.495   5.628   4.659  0.0991  0.3872  0.2547
  218POPC   C2B 3047   7.264   5.479   4.938  0.2860 -0.0939 -0.0128
  218POPC   C3B 3048   7.083   5.229   5.351 -0.0985 -0.1070 -0.1566
  218POPC   C4B 3049   6.825   5.162   5.744  0.1354  0.4174 -0.2723
  219POPC   NC3 3050   4.364   8.677   3.832 -0.0641  0.1323 -0.0297
  219POPC   PO4 3051   4.283   9.089   3.610  0.0513 -0.2199 -0.0865
  219POPC   GL1 3052   4.390   9.214   4.087  0.1340 -0.1379  0.1504
  219POPC   GL2 3053   4.525   8.971   4.239 -0.0673 -0.2764 -0.0278
  219POPC   C1A 3054   4.219   9.217   4.555  0.5413  0.2463 -0.0157
  219POPC   D2A 3055   3.836   9.235   4.867 -0.0981 -0.0315  0.1532
  219POPC   C3A 3056   3.531   8.917   4.873  0.2425 -0.0812 -0.0466
  219POPC   C4A 3057   3.164   8.827   4.656  0.1044  0.2925 -0.2995
  219POPC   C1B 3058   4.501   8.749   4.555 -0.0067 -0.0325 -0.2865
  219POPC   C2B 3059   4.295   8.693   5.029 -0.0538 -0.1666 -0.0150
  219POPC   C3B 3060   4.226   8.633   5.427  0.1140 -0.1167 -0.1853
  219POPC   C4B 3061   3.999   8.451   5.688  0.0167 -0.0984  0.0866
  220POPC   NC3 3062   7.946   6.737   3.540  0.3558  0.0924 -0.0016
  220POPC   PO4 3063   7.499   6.627   3.580 -0.1850  0.1124 -0.1210
  220POPC   GL1 3064   7.765   6.565   3.951 -0.0967  0.1154 -0.1565
  220POPC   GL2 3065   7.949   6.369   4.109 -0.0331  0.0406  0.0418
  220POPC   C1A 3066   7.794   6.864   4.297  0.4042 -0.0167  0.0966
  220POPC   D2A 3067   7.323   6.822   4.413 -0.1683 -0.1424  0.0981
  220POPC   C3A 3068   7.336   6.635   4.723 -0.1337 -0.0864  0.1604
  220POPC   C4A 3069   7.216   6.914   5.068  0.0654 -0.0759 -0.1254
  220POPC   C1B 3070   8.143   6.554   4.449  0.3292  0.1006  0.1307
  220POPC   C2B 3071   7.849   6.641   4.772  0.1100 -0.1602  0.0722
  220POPC   C3B 3072   7.720   6.890   5.206 -0.2289  0.1206 -0.0598
  220POPC   C4B 3073   7.573   7.044   5.594 -0.0707  0.1219 -0.0947
  221POPC   NC3 3074   8.553   0.635   3.742 -0.3098 -0.0483  0.1382
  221POPC   PO4 3075   8.869   0.992   3.638 -0.3829 -0.0488  0.1259
  221POPC   GL1 3076   8.781   0.957   4.076 -0.0915 -0.0751  0.0043
  221POPC   GL2 3077   8.785   1.172   4.270  0.2708  0.0399  0.0961
  221POPC   C1A 3078   9.010   0.712   4.468 -0.0782 -0.0554 -0.0382
  221POPC   D2A 3079   9.387   0.863   4.701 -0.3648  0.1373 -0.3977
  221POPC   C3A 3080   9.544   0.612   5.086  0.0252 -0.2704  0.2367
  221POPC   C4A 3081   9.459   0.394   5.531 -0.0065 -0.0417 -0.1088
  221POPC   C1B 3082   8.667   1.499   4.524  0.1055 -0.2123  0.0474
  221POPC   C2B 3083   8.547   1.774   4.932 -0.0629 -0.1152 -0.0063
  221POPC   C3B 3084   8.649   1.723   5.376 -0.2302 -0.0585 -0.2939
  221POPC   C4B 3085   8.584   1.395   5.599 -0.1049  0.2355 -0.6399
  222POPC   NC3 3086   4.215   1.739   3.292 -0.2393 -0.0728 -0.3573
  222POPC   PO4 3087   4.543   1.748   3.642 -0.0605 -0.1847 -0.1022
  222POPC   GL1 3088   4.590   1.427   3.971 -0.0483 -0.1068 -0.1012
  222POPC   GL2 3089   4.830   1.452   4.154 -0.0099  0.2974 -0.0197
  222POPC   C1A 3090   4.332   1.365   4.309 -0.2170  0.0992  0.0933
  222POPC   D2A 3091   4.189   1.469   4.737  0.2879  0.1659 -0.1733
  222POPC   C3A 3092   4.310   1.434   5.187  0.0800  0.0776  0.1174
  222POPC   C4A 3093   4.249   1.604   5.634  0.0968 -0.1930 -0.2510
  222POPC   C1B 3094   4.767   1.173   4.528 -0.3012  0.1478 -0.1851
  222POPC   C2B 3095   4.762   1.196   4.977 -0.1058 -0.0663 -0.0912
  222POPC   C3B 3096   4.787   1.328   5.378  0.1338  0.2519 -0.2507
  222POPC   C4B 3097   4.686   1.418   5.804  0.1310  0.1954  0.0188
  223POPC   NC3 3098   4.002   6.684   3.138 -0.0775  0.0954  0.0749
  223POPC   PO4 3099   4.042   6.260   3.063 -0.0052  0.1483 -0.0934
  223POPC   GL1 3100   3.856   6.123   3.405  0.1072 -0.0986 -0.0907
  223POPC   GL2 3101   3.984   5.968   3.644 -0.1662 -0.2487 -0.0404
  223POPC   C1A 3102   3.563   6.195   3.720  0.1334 -0.0499 -0.0431
  223POPC   D2A 3103   3.183   6.383   3.813  0.1626 -0.3915  0.2523
  223POPC   C3A 3104   2.987   6.429   4.222 -0.0526 -0.0005 -0.1131
  223POPC   C4A 3105   2.792   6.408   4.576 -0.2668 -0.1169  0.1060
  223POPC   C1B 3106   3.808   5.940   4.089  0.0098 -0.2025 -0.1505
  223POPC   C2B 3107   3.672   5.964   4.609  0.1603 -0.0269  0.2609
  223POPC   C3B 3108   3.648   5.936   5.033  0.0094 -0.1255 -0.1619
  223POPC   C4B 3109   3.863   5.861   5.318  0.0347  0.1104 -0.0238
  224POPC   NC3 3110   0.549   3.476   3.995 -0.0419 -0.0948  0.1834
  224POPC   PO4 3111   0.572   3.310   4.487 -0.1253  0.4208 -0.0761
  224POPC   GL1 3112   0.664   3.557   4.854 -0.0412 -0.1664  0.0939
  224POPC   GL2 3113   0.760   3.354   5.136 -0.2083  0.0867 -0.0801
  224POPC   C1A 3114   0.514   3.850   5.168 -0.1129  0.3337 -0.1253
  224POPC   D2A 3115   0.379   3.729   5.595 -0.0487 -0.2041  0.1406
  224POPC   C3A 3116  -0.067   3.731   5.671 -0.0353  0.1105  0.0109
  224POPC   C4A 3117  -0.501   3.859   5.835 -0.3528  0.0160 -0.0300
  224POPC   C1B 3118   0.396   3.172   5.189  0.1843  0.0530 -0.1091
  224POPC   C2B 3119   0.065   3.307   5.421 -0.2072  0.0704 -0.1576
  224POPC   C3B 3120  -0.289   3.316   5.850  0.5718  0.0573 -0.2900
  224POPC   C4B 3121  -0.685   3.462   6.067 -0.3129 -0.0241 -0.2618
  225POPC   NC3 3122   6.489   7.334   3.614 -0.1144  0.1287 -0.1346
  225POPC   PO4 3123   6.183   7.419   3.615  0.4801  0.2307  0.3117
  225POPC   GL1 3124   6.167   7.211   4.047  0.1360 -0.0296 -0.1109
  225POPC   GL2 3125   6.418   7.032   3.992  0.0429  0.0625  0.1378
  225POPC   C1A 3126   6.030   7.255   4.506 -0.4739 -0.1400 -0.1115
  225POPC   D2A 3127   6.257   7.338   4.788  0.2017 -0.2762  0.2295
  225POPC   C3A 3128   6.645   7.469   4.571  0.3550 -0.0280 -0.1394
  225POPC   C4A 3129   6.888   7.646   4.365  0.1314  0.1847  0.3317
  225POPC   C1B 3130   6.413   6.944   4.446 -0.2443  0.2417 -0.0793
  225POPC   C2B 3131   6.685   6.889   4.787  0.2123  0.0136 -0.3300
  225POPC   C3B 3132   6.762   6.868   5.274  0.1588  0.0531  0.1518
  225POPC   C4B 3133   6.665   7.043   5.583 -0.1993 -0.1981  0.3328
  226POPC   NC3 3134   4.502   7.181   3.570 -0.2910 -0.1283 -0.1050
  226POPC   PO4 3135   4.102   7.427   3.627  0.1466  0.0034 -0.0114
  226POPC   GL1 3136   4.100   7.202   4.061  0.2127  0.2065 -0.4727
  226POPC   GL2 3137   4.069   6.873   3.969  0.1128  0.1643 -0.1407
  226POPC   C1A 3138   4.173   7.289   4.466  0.2669 -0.0323 -0.3226
  226POPC   D2A 3139   4.291   7.319   4.914  0.1437  0.2926 -0.1614
  226POPC   C3A 3140   3.985   7.307   5.190  0.2939  0.1044  0.1116
  226POPC   C4A 3141   3.849   7.473   5.614 -0.2131 -0.1604  0.1228
  226POPC   C1B 3142   4.191   6.769   4.412  0.1034 -0.1954 -0.3190
  226POPC   C2B 3143   4.383   6.734   4.780 -0.0381  0.0419 -0.0243
  226POPC   C3B 3144   4.491   6.936   5.184 -0.1498 -0.0847  0.3689
  226POPC   C4B 3145   4.387   7.171   5.579 -0.3291  0.1621 -0.0897
  227POPC   NC3 3146   8.612   2.251   3.774 -0.0753 -0.1617 -0.1311
  227POPC   PO4 3147   8.294   2.174   3.805  0.0523 -0.2106 -0.2408
  227POPC   GL1 3148   7.996   2.268   4.246 -0.1913  0.1056  0.3477
  227POPC   GL2 3149   8.266   2.406   4.354 -0.0107  0.2129 -0.0013
  227POPC   C1A 3150   7.796   2.361   4.703 -0.0449 -0.1459 -0.2711
  227POPC   D2A 3151   7.572   2.410   5.112 -0.1835  0.2770 -0.0490
  227POPC   C3A 3152   7.757   2.847   5.135 -0.0043 -0.0102  0.2647
  227POPC   C4A 3153   8.048   3.052   5.173  0.2023 -0.0620  0.3316
  227POPC   C1B 3154   8.582   2.366   4.655  0.1013 -0.0928 -0.0867
  227POPC   C2B 3155   8.650   2.299   5.124 -0.2060 -0.1589 -0.0923
  227POPC   C3B 3156   8.812   2.178   5.600  0.1474  0.0072 -0.0299
  227POPC   C4B 3157   8.825   1.873   6.024 -0.0729  0.1412 -0.0349
  228POPC   NC3 3158  10.111   0.373   3.005 -0.2648 -0.0914 -0.1027
  228POPC   PO4 3159  10.278   0.205   3.436 -0.1440 -0.0158  0.0486
  228POPC   GL1 3160  10.385   0.201   3.919 -0.1807 -0.2344 -0.0833
  228POPC   GL2 3161  10.786   0.322   3.931  0.0888 -0.0986  0.1612
  228POPC   C1A 3162  10.388   0.103   4.312 -0.0354  0.0894 -0.0152
  228POPC   D2A 3163  10.127  -0.023   4.760 -0.0225 -0.0497 -0.1892
  228POPC   C3A 3164  10.267  -0.179   5.086 -0.4782  0.2512  0.1859
  228POPC   C4A 3165  10.456  -0.009   5.503 -0.1544 -0.2539 -0.3900
  228POPC   C1B 3166  10.793   0.419   4.277  0.3016  0.3841 -0.1008
  228POPC   C2B 3167  10.909   0.487   4.633 -0.1192 -0.0490  0.1368
  228POPC   C3B 3168  11.215   0.756   4.771 -0.0499 -0.0014  0.0307
  228POPC   C4B 3169  11.649   0.693   4.757 -0.1554  0.1832 -0.3274
  229POPC   NC3 3170   0.663   9.407   3.586  0.0503 -0.0171  0.1750
  229POPC   PO4 3171   1.103   9.477   3.722 -0.0074 -0.1202  0.2881
  229POPC   GL1 3172   1.080   9.764   4.067 -0.0488  0.1195 -0.2461
  229POPC   GL2 3173   1.144  10.083   4.136  0.1172  0.0701  0.1982
  229POPC   C1A 3174   0.906   9.566   4.416  0.1279 -0.0136 -0.4317
  229POPC   D2A 3175   0.859   9.724   4.814  0.2784  0.1073 -0.1693
  229POPC   C3A 3176   0.989   9.670   5.295 -0.0456 -0.2016 -0.1506
  229POPC   C4A 3177   1.042   9.663   5.706 -0.1314  0.0277  0.0222
  229POPC   C1B 3178   1.259   9.924   4.587  0.0079  0.1844 -0.0513
  229POPC   C2B 3179   1.457   9.849   4.973 -0.0258  0.1495  0.2632
  229POPC   C3B 3180   1.770   9.939   5.337 -0.1679  0.1025 -0.1716
  229POPC   C4B 3181   2.112   9.925   5.591 -0.0410 -0.0790  0.1507
  230POPC   NC3 3182   5.145   4.145   4.030 -0.0160 -0.1564 -0.2217
  230POPC   PO4 3183   5.504   4.136   3.771 -0.1190  0.1392  0.2286
  230POPC   GL1 3184   5.724   4.147   4.104  0.1334  0.4601 -0.1767
  230POPC   GL2 3185   5.488   4.123   4.358 -0.3460  0.0124  0.1457
  230POPC   C1A 3186   6.161   3.994   4.375  0.2055 -0.0443  0.0221
  230POPC   D2A 3187   6.279   3.636   4.498 -0.1481  0.1075  0.1545
  230POPC   C3A 3188   6.285   3.555   4.938 -0.0557 -0.0418  0.0619
  230POPC   C4A 3189   6.324   3.421   5.241  0.1827 -0.1976  0.0966
  230POPC   C1B 3190   5.768   4.171   4.586 -0.1176  0.0074 -0.2173
  230POPC   C2B 3191   6.032   4.080   4.922 -0.0486 -0.0704  0.0907
  230POPC   C3B 3192   6.177   3.960   5.271 -0.3257 -0.0955 -0.4049
  230POPC   C4B 3193   6.253   3.729   5.639  0.1146 -0.2372 -0.1682
  231POPC   NC3 3194   5.497   3.260   3.564 -0.2610  0.2814  0.3268
  231POPC   PO4 3195   5.273   3.647   3.818  0.2298 -0.0576 -0.3622
  231POPC   GL1 3196   5.424   3.507   4.276  0.1051  0.1643 -0.0504
  231POPC   GL2 3197   5.741   3.622   4.364  0.5183 -0.1119 -0.2032
  231POPC   C1A 3198   5.343   3.882   4.751  0.0387 -0.0402 -0.2640
  231POPC   D2A 3199   5.301   4.187   5.089 -0.1605  0.1073 -0.1292
  231POPC   C3A 3200   5.250   4.344   5.543  0.0826  0.1869 -0.0369
  231POPC   C4A 3201   5.105   4.127   5.863 -0.0863 -0.5121  0.3477
  231POPC   C1B 3202   5.806   3.693   4.837 -0.1789 -0.2369 -0.0649
  231POPC   C2B 3203   5.557   3.697   5.160 -0.0684  0.2106 -0.1177
  231POPC   C3B 3204   5.326   3.409   5.399 -0.2808 -0.0036 -0.2080
  231POPC   C4B 3205   5.268   3.186   5.624  0.0092 -0.1276  0.0219
  232POPC   NC3 3206   3.221   3.001   4.036 -0.0806 -0.1186 -0.1295
  232POPC   PO4 3207   3.071   3.362   4.318 -0.1800  0.0250 -0.0499
  232POPC   GL1 3208   3.541   3.224   4.351 -0.1918 -0.1574  0.1255
  232POPC   GL2 3209   3.736   2.939   4.121 -0.0204  0.0951  0.1956
  232POPC   C1A 3210   3.768   3.208   4.695  0.2008  0.1440  0.0041
  232POPC   D2A 3211   3.735   3.131   5.107 -0.1210  0.0397  0.3239
  232POPC   C3A 3212   3.857   2.717   5.351  0.0339 -0.1292 -0.0080
  232POPC   C4A 3213   4.178   2.683   5.669 -0.2168  0.0101  0.2482
  232POPC   C1B 3214   4.085   2.863   4.409 -0.2443 -0.1784 -0.1630
  232POPC   C2B 3215   4.285   2.631   4.670  0.2975  0.4671 -0.2075
  232POPC   C3B 3216   4.373   2.375   5.099 -0.1404 -0.1516 -0.3323
  232POPC   C4B 3217   4.452   1.988   5.329 -0.0353 -0.3731 -0.0849
  233POPC   NC3 3218   8.578   1.343   3.859  0.2124 -0.0264 -0.0013
  233POPC   PO4 3219   8.260   0.998   4.011 -0.1122 -0.1052  0.0485
  233POPC   GL1 3220   8.204   0.932   4.486 -0.1470 -0.0633 -0.0908
  233POPC   GL2 3221   8.501   1.020   4.646 -0.2867 -0.0423 -0.0042
  233POPC   C1A 3222   8.128   0.893   4.949 -0.1014 -0.0553 -0.0009
  233POPC   D2A 3223   8.218   1.231   5.176  0.0731  0.2109 -0.3051
  233POPC   C3A 3224   8.616   1.308   5.029  0.1971 -0.1833 -0.1001
  233POPC   C4A 3225   8.993   1.559   4.979  0.2583 -0.0234  0.3339
  233POPC   C1B 3226   8.712   0.731   4.981 -0.2186 -0.2076  0.0848
  233POPC   C2B 3227   9.022   0.564   5.237 -0.1790  0.1021  0.1497
  233POPC   C3B 3228   9.321   0.202   5.070 -0.1034 -0.0967 -0.0366
  233POPC   C4B 3229   9.408  -0.143   5.323  0.1223 -0.0451 -0.0904
  234POPC   NC3 3230   8.438   5.814   3.876  0.0451 -0.1509  0.1710
  234POPC   PO4 3231   7.914   5.945   3.923 -0.1207  0.2589  0.0265
  234POPC   GL1 3232   8.132   5.898   4.275 -0.1948  0.3404  0.3475
  234POPC   GL2 3233   8.404   6.160   4.249 -0.0220 -0.1636 -0.3880
  234POPC   C1A 3234   8.018   5.778   4.642 -0.2883 -0.0665 -0.0795
  234POPC   D2A 3235   8.208   5.738   4.986  0.0399  0.1541  0.1474
  234POPC   C3A 3236   8.406   5.388   4.983  0.0199 -0.1718 -0.0493
  234POPC   C4A 3237   8.726   4.923   5.057  0.3082  0.0581 -0.3015
  234POPC   C1B 3238   8.513   6.108   4.719 -0.1140  0.0206 -0.0449
  234POPC   C2B 3239   8.682   5.815   5.079 -0.0227 -0.0570 -0.1619
  234POPC   C3B 3240   8.523   5.568   5.432 -0.0542 -0.2438  0.1438
  234POPC   C4B 3241   8.635   5.570   5.856 -0.0722 -0.0726 -0.2715
  235POPC   NC3 3242   0.487   7.751   3.708  0.1521 -0.3738 -0.1617
  235POPC   PO4 3243   0.413   7.337   3.812 -0.1894 -0.2025 -0.1852
  235POPC   GL1 3244   0.760   7.475   4.010  0.3873 -0.0026 -0.1141
  235POPC   GL2 3245   0.819   7.319   4.266 -0.0750  0.2210  0.0069
  235POPC   C1A 3246   1.112   7.662   4.232  0.0550  0.0811  0.2095
  235POPC   D2A 3247   1.490   7.905   4.432  0.0142  0.0434  0.2211
  235POPC   C3A 3248   1.559   8.239   4.716  0.1137 -0.2146  0.3820
  235POPC   C4A 3249   1.605   8.574   5.008  0.0089  0.0104  0.1349
  235POPC   C1B 3250   0.734   7.057   4.649  0.4142  0.0243  0.3960
  235POPC   C2B 3251   0.663   6.950   4.975  0.0069  0.0285  0.0630
  235POPC   C3B 3252   0.723   6.853   5.384 -0.3007  0.1854 -0.1775
  235POPC   C4B 3253   0.484   6.614   5.742  0.0908  0.2973  0.0959
  236POPC   NC3 3254   5.937   2.327   3.788  0.0614 -0.1171  0.2146
  236POPC   PO4 3255   6.076   2.020   4.148 -0.1932  0.3493 -0.2559
  236POPC   GL1 3256   6.133   2.204   4.556  0.4010  0.1667  0.1626
  236POPC   GL2 3257   5.772   2.160   4.753 -0.3527 -0.1927 -0.0220
  236POPC   C1A 3258   6.148   2.396   4.973 -0.3436 -0.1642 -0.1625
  236POPC   D2A 3259   6.309   2.560   5.415  0.0516  0.1238  0.1705
  236POPC   C3A 3260   6.081   2.703   5.855 -0.1458 -0.0008  0.0978
  236POPC   C4A 3261   6.037   2.809   6.319 -0.1016  0.3270  0.2353
  236POPC   C1B 3262   5.830   2.081   5.223 -0.1871  0.2069  0.1315
  236POPC   C2B 3263   6.235   2.076   5.409 -0.2726  0.2420  0.3471
  236POPC   C3B 3264   6.393   2.290   5.795 -0.0813  0.0344  0.0539
  236POPC   C4B 3265   6.727   2.350   6.146  0.2714 -0.2834 -0.0011
  237POPC   NC3 3266   2.469   7.475   3.754 -0.2435  0.0487  0.1097
  237POPC   PO4 3267   2.075   7.678   3.804 -0.0207 -0.0472 -0.1641
  237POPC   GL1 3268   2.136   7.567   4.177  0.1031  0.3062  0.0581
  237POPC   GL2 3269   2.311   7.248   4.206  0.1691 -0.4729 -0.0429
  237POPC   C1A 3270   2.062   7.793   4.503 -0.2564  0.1290  0.1147
  237POPC   D2A 3271   1.919   7.965   4.815 -0.0694 -0.1218  0.0082
  237POPC   C3A 3272   1.764   8.077   5.240 -0.2774 -0.0118  0.2301
  237POPC   C4A 3273   1.772   8.406   5.543  0.0971 -0.3939 -0.0739
  237POPC   C1B 3274   2.231   7.132   4.617  0.0220 -0.2046 -0.0916
  237POPC   C2B 3275   1.939   7.396   4.906 -0.2173  0.0508  0.2897
  237POPC   C3B 3276   1.713   7.491   5.271  0.0714  0.0393  0.3874
  237POPC   C4B 3277   1.394   7.783   5.425  0.0036 -0.1402 -0.1954
  238POPC   NC3 3278   0.463   2.286   4.034 -0.1040  0.1910 -0.0407
  238POPC   PO4 3279   0.475   1.888   3.985  0.1174  0.1258 -0.1304
  238POPC   GL1 3280   0.474   1.850   4.369  0.3758  0.1112  0.1583
  238POPC   GL2 3281   0.204   1.841   4.606  0.1887 -0.1233 -0.0767
  238POPC   C1A 3282   0.759   1.917   4.790  0.2995 -0.2181  0.0554
  238POPC   D2A 3283   0.729   1.911   5.237 -0.2677  0.0491 -0.0684
  238POPC   C3A 3284   0.830   1.564   5.442 -0.2030  0.0779 -0.0447
  238POPC   C4A 3285   0.752   1.075   5.423 -0.0495 -0.1730 -0.0721
  238POPC   C1B 3286   0.226   1.922   5.061 -0.0045 -0.3934 -0.3641
  238POPC   C2B 3287   0.251   1.858   5.412  0.1456  0.0110  0.0540
  238POPC   C3B 3288   0.054   1.676   5.837  0.0280  0.1119 -0.1263
  238POPC   C4B 3289  -0.103   1.589   6.249  0.3267 -0.0941  0.0540
  239POPC   NC3 3290   9.382   6.771   3.345  0.1639 -0.1867  0.0888
  239POPC   PO4 3291   9.288   6.520   3.757 -0.0087 -0.2289  0.1245
  239POPC   GL1 3292   9.308   6.643   4.157  0.1265  0.1297  0.0596
  239POPC   GL2 3293   9.629   6.733   4.248 -0.0393  0.0501  0.0066
  239POPC   C1A 3294   9.127   6.658   4.459  0.0832  0.1952 -0.1435
  239POPC   D2A 3295   9.242   6.664   4.958  0.0232  0.0280  0.1295
  239POPC   C3A 3296   9.570   6.498   5.226 -0.0571  0.1801 -0.2087
  239POPC   C4A 3297   9.836   6.469   5.568 -0.0376  0.3634 -0.0813
  239POPC   C1B 3298   9.674   6.754   4.705 -0.0959  0.0231 -0.0234
  239POPC   C2B 3299  10.067   6.664   5.037  0.0951  0.1072 -0.1780
  239POPC   C3B 3300  10.207   6.391   5.310 -0.3549  0.1782 -0.2989
  239POPC   C4B 3301  10.290   5.952   5.174 -0.2371 -0.2722  0.2486
  240POPC   NC3 3302   9.462   2.405   3.479  0.0912 -0.1726  0.2239
  240POPC   PO4 3303   9.298   2.384   4.020 -0.0015  0.1029 -0.0989
  240POPC   GL1 3304   9.340   2.674   4.306 -0.0985 -0.1586  0.2057
  240POPC   GL2 3305   9.244   2.430   4.570  0.0531 -0.2286  0.4782
  240POPC   C1A 3306   9.269   3.001   4.542  0.1062 -0.1266 -0.1397
  240POPC   D2A 3307   9.339   3.350   4.737 -0.2972 -0.3880 -0.1223
  240POPC   C3A 3308   9.485   3.573   5.098 -0.2196  0.1489  0.1485
  240POPC   C4A 3309   9.683   3.712   5.355 -0.0820 -0.0265 -0.3437
  240POPC   C1B 3310   9.070   2.563   4.980 -0.3368 -0.2088 -0.2791
  240POPC   C2B 3311   9.117   2.532   5.422 -0.3633  0.0543  0.0624
  240POPC   C3B 3312   8.910   2.601   5.796 -0.1126  0.0107 -0.2499
  240POPC   C4B 3313   8.724   2.788   6.227 -0.0663  0.2018  0.0347
  241POPC   NC3 3314   1.311   9.958   3.575  0.1024  0.1541  0.0150
  241POPC   PO4 3315   1.551   9.812   4.001 -0.1186  0.1112  0.1564
  241POPC   GL1 3316   1.904   9.537   4.261  0.1853  0.2892 -0.2306
  241POPC   GL2 3317   1.621   9.591   4.398 -0.0771 -0.1835 -0.3704
  241POPC   C1A 3318   1.982   9.502   4.717 -0.0699  0.2466  0.0824
  241POPC   D2A 3319   1.905   9.527   5.077 -0.0813 -0.0936 -0.1245
  241POPC   C3A 3320   1.421   9.433   5.313  0.1316  0.0776  0.0279
  241POPC   C4A 3321   1.330   9.221   5.684 -0.0496  0.0914 -0.1055
  241POPC   C1B 3322   1.828   9.986   4.596 -0.3408 -0.0033 -0.0216
  241POPC   C2B 3323   2.147   9.934   4.901  0.2773 -0.0489 -0.2559
  241POPC   C3B 3324   2.389  10.116   5.181 -0.1688  0.1805 -0.0926
  241POPC   C4B 3325   2.479  10.345   5.503  0.4652 -0.1514  0.3034
  242POPC   NC3 3326   5.905   8.714   3.414 -0.2202 -0.3551  0.0585
  242POPC   PO4 3327   5.744   8.656   3.829  0.1768  0.0163  0.2312
  242POPC   GL1 3328   6.010   8.400   4.192 -0.4241 -0.0341  0.0953
  242POPC   GL2 3329   6.149   8.182   4.048  0.0253  0.3451 -0.0855
  242POPC   C1A 3330   5.938   8.137   4.628 -0.0839  0.1788  0.0596
  242POPC   D2A 3331   5.902   8.091   5.045 -0.0360 -0.0699 -0.0368
  242POPC   C3A 3332   6.183   8.310   5.397  0.5466  0.1117 -0.1481
  242POPC   C4A 3333   6.583   8.480   5.489 -0.1649  0.1759 -0.0983
  242POPC   C1B 3334   6.443   8.520   4.347  0.0948  0.2473 -0.1899
  242POPC   C2B 3335   6.707   8.679   4.618  0.0829 -0.2603 -0.0923
  242POPC   C3B 3336   6.658   8.733   5.071  0.0495 -0.0139  0.0877
  242POPC   C4B 3337   6.554   8.969   5.421 -0.0954  0.1946 -0.1107
  243POPC   NC3 3338   7.243   3.961   3.354  0.0064 -0.4437 -0.0784
  243POPC   PO4 3339   6.845   3.816   3.691  0.0494  0.0690  0.0759
  243POPC   GL1 3340   6.953   3.998   4.090 -0.1609  0.1613 -0.0300
  243POPC   GL2 3341   6.967   4.307   4.137  0.0134  0.2659 -0.1446
  243POPC   C1A 3342   6.612   4.074   4.472 -0.2335 -0.0098 -0.4130
  243POPC   D2A 3343   6.550   4.062   4.939 -0.2432  0.0003 -0.4349
  243POPC   C3A 3344   6.663   3.795   5.215  0.0137 -0.1091 -0.5287
  243POPC   C4A 3345   6.922   3.888   5.614  0.0172  0.0089 -0.0677
  243POPC   C1B 3346   6.696   4.685   4.365 -0.0151  0.0430  0.1828
  243POPC   C2B 3347   6.777   4.780   4.808 -0.1941  0.0903 -0.1242
  243POPC   C3B 3348   6.733   4.758   5.266 -0.0150 -0.3277  0.1851
  243POPC   C4B 3349   6.533   4.700   5.635  0.1026  0.0596 -0.0674
  244POPC   NC3 3350   1.010   6.329   3.117  0.2658  0.2401  0.3518
  244POPC   PO4 3351   0.960   6.745   3.406 -0.0531 -0.2941 -0.1731
  244POPC   GL1 3352   1.084   6.502   3.615  0.0199 -0.1049 -0.3677
  244POPC   GL2 3353   1.353   6.551   3.843 -0.0629  0.0871 -0.2039
  244POPC   C1A 3354   0.869   6.366   4.017 -0.3062  0.3729  0.1394
  244POPC   D2A 3355   0.855   6.196   4.404  0.2357 -0.0840 -0.1868
  244POPC   C3A 3356   0.868   6.533   4.638  0.0001  0.0550  0.0206
  244POPC   C4A 3357   1.065   6.603   5.020  0.1484  0.1695 -0.1232
  244POPC   C1B 3358   1.663   6.180   3.787 -0.0194  0.1080  0.0330
  244POPC   C2B 3359   1.910   6.076   3.961 -0.1536 -0.1054 -0.0453
  244POPC   C3B 3360   2.141   5.785   4.137  0.0698  0.1108  0.1817
  244POPC   C4B 3361   2.125   5.509   4.500  0.0539 -0.0671 -0.2536
  245POPC   NC3 3362   3.842   8.856   3.666  0.0744  0.5225  0.0605
  245POPC   PO4 3363   3.374   9.093   3.536 -0.0586 -0.1416  0.0371
  245POPC   GL1 3364   3.559   9.182   3.914  0.0963 -0.3151 -0.1926
  245POPC   GL2 3365   3.844   9.221   3.960 -0.0733 -0.2677  0.0022
  245POPC   C1A 3366   3.606   9.069   4.365  0.1770  0.1483 -0.0004
  245POPC   D2A 3367   3.972   8.806   4.496 -0.0761 -0.4941  0.4585
  245POPC   C3A 3368   3.852   8.531   4.823 -0.0980  0.0578 -0.1706
  245POPC   C4A 3369   3.684   8.179   4.830 -0.0665  0.0834  0.2579
  245POPC   C1B 3370   3.842   9.535   4.383 -0.1538  0.2854 -0.0103
  245POPC   C2B 3371   3.810   9.735   4.831 -0.0977  0.1924 -0.1131
  245POPC   C3B 3372   3.872   9.597   5.234  0.2184  0.0628 -0.2861
  245POPC   C4B 3373   3.709   9.574   5.581 -0.0504  0.2641  0.0111
  246POPC   NC3 3374   2.888   6.789   3.696  0.0278 -0.0560  0.1432
  246POPC   PO4 3375   2.863   7.143   3.593 -0.0336 -0.1746  0.1619
  246POPC   GL1 3376   2.800   7.143   4.073  0.1020  0.1099 -0.1090
  246POPC   GL2 3377   2.605   6.733   4.242 -0.3373 -0.1407  0.1748
  246POPC   C1A 3378   2.751   7.079   4.556 -0.0105 -0.0982  0.3303
  246POPC   D2A 3379   2.581   6.968   4.962  0.0945 -0.0549 -0.2304
  246POPC   C3A 3380   2.671   7.266   5.404  0.2061  0.1694  0.0621
  246POPC   C4A 3381   2.539   7.234   5.843  0.2366  0.1858 -0.2932
  246POPC   C1B 3382   2.377   6.654   4.607  0.0796  0.1597  0.1045
  246POPC   C2B 3383   2.481   6.504   4.982 -0.0268 -0.0625  0.0032
  246POPC   C3B 3384   2.518   6.673   5.388  0.2587  0.0060 -0.0443
  246POPC   C4B 3385   2.252   7.000   5.408  0.1412  0.1480  0.0798
  247POPC   NC3 3386   5.342   7.041   3.895 -0.4218  0.2811  0.1449
  247POPC   PO4 3387   5.601   6.613   3.824  0.0607  0.1138  0.2187
  247POPC   GL1 3388   5.663   6.406   4.256 -0.1777  0.1029  0.0650
  247POPC   GL2 3389   5.409   6.610   4.343 -0.0998 -0.1387  0.0844
  247POPC   C1A 3390   5.655   6.023   4.452  0.0821  0.1117  0.0380
  247POPC   D2A 3391   5.515   5.684   4.676 -0.3360 -0.5610 -0.0644
  247POPC   C3A 3392   5.442   5.724   5.140  0.0583 -0.1345  0.2198
  247POPC   C4A 3393   5.168   5.865   5.444 -0.2082  0.3261  0.1167
  247POPC   C1B 3394   5.429   6.531   4.772 -0.2017 -0.0938  0.1908
  247POPC   C2B 3395   5.623   6.647   5.146  0.1824 -0.0644 -0.1654
  247POPC   C3B 3396   5.884   6.701   5.517 -0.0026  0.0535 -0.0055
  247POPC   C4B 3397   5.855   7.157   5.820  0.2072  0.1946 -0.1353
  248POPC   NC3 3398   0.819   1.668   3.668  0.1893 -0.1078  0.2157
  248POPC   PO4 3399   1.312   1.825   3.823 -0.0606 -0.1615 -0.3979
  248POPC   GL1 3400   1.564   1.833   4.159  0.2829  0.0243  0.3466
  248POPC   GL2 3401   1.453   1.544   4.338  0.3925  0.0961  0.0632
  248POPC   C1A 3402   1.816   2.044   4.373  0.4175  0.2153 -0.2161
  248POPC   D2A 3403   1.799   1.989   4.787 -0.0999  0.0635  0.1290
  248POPC   C3A 3404   1.744   1.588   4.786 -0.1331 -0.1307 -0.0442
  248POPC   C4A 3405   1.783   1.122   5.062 -0.1464  0.3949  0.0117
  248POPC   C1B 3406   1.967   1.566   4.334  0.2532 -0.0148  0.0620
  248POPC   C2B 3407   2.343   1.490   4.205 -0.0009  0.0953  0.1658
  248POPC   C3B 3408   2.689   1.473   4.490 -0.1228  0.0824  0.1514
  248POPC   C4B 3409   3.009   1.157   4.621  0.2004  0.3036 -0.4077
  249POPC   NC3 3410   7.430   1.147   3.742  0.1242  0.2813  0.0707
  249POPC   PO4 3411   7.034   0.998   3.551 -0.2118  0.1080  0.2404
  249POPC   GL1 3412   6.974   0.905   3.975 -0.0908 -0.1203 -0.0295
  249POPC   GL2 3413   7.165   1.065   4.113  0.2731  0.1082  0.0554
  249POPC   C1A 3414   6.805   0.735   4.405  0.0827  0.1111 -0.0803
  249POPC   D2A 3415   6.718   0.468   4.853 -0.0423 -0.1484  0.1729
  249POPC   C3A 3416   6.619   0.682   5.099  0.2834  0.2120  0.1996
  249POPC   C4A 3417   6.435   1.149   5.234  0.1975 -0.0071  0.2712
  249POPC   C1B 3418   7.140   1.055   4.575 -0.1229  0.0490 -0.1102
  249POPC   C2B 3419   7.160   0.677   4.856 -0.1581  0.2406 -0.1339
  249POPC   C3B 3420   7.147   0.346   5.142 -0.0284  0.1831 -0.0371
  249POPC   C4B 3421   7.450   0.197   5.525 -0.2589 -0.0582  0.1068
  250POPC   NC3 3422   5.945  10.189   3.698  0.0913 -0.4724  0.1783
  250POPC   PO4 3423   6.335  10.427   3.576  0.0187  0.1187  0.1136
  250POPC   GL1 3424   6.522  10.275   3.972 -0.2014  0.0937 -0.1568
  250POPC   GL2 3425   6.777  10.147   3.981 -0.3224  0.5971 -0.1931
  250POPC   C1A 3426   6.443  10.505   4.349  0.0165 -0.1880  0.2786
  250POPC   D2A 3427   6.274  10.912   4.542 -0.1726  0.1904  0.0115
  250POPC   C3A 3428   6.225  11.016   4.885 -0.1474 -0.1276  0.1077
  250POPC   C4A 3429   6.020  11.060   5.306 -0.0856 -0.1892 -0.0200
  250POPC   C1B 3430   6.621  10.003   4.402 -0.0319  0.0612  0.1492
  250POPC   C2B 3431   6.548   9.725   4.834 -0.3162 -0.1963  0.2049
  250POPC   C3B 3432   6.576   9.393   5.160 -0.1832  0.0309  0.0374
  250POPC   C4B 3433   6.684   9.407   5.645 -0.3786 -0.0070  0.1229
  251POPC   NC3 3434   6.991   7.897   3.172 -0.2242  0.0828 -0.2074
  251POPC   PO4 3435   7.223   7.824   3.617  0.2946  0.2304  0.2105
  251POPC   GL1 3436   7.473   8.081   3.853  0.1226  0.4388  0.3533
  251POPC   GL2 3437   7.294   8.345   3.983  0.0650  0.0848 -0.0240
  251POPC   C1A 3438   7.448   7.975   4.275  0.3969  0.0970  0.0635
  251POPC   D2A 3439   7.421   7.676   4.665 -0.3090  0.3080  0.0603
  251POPC   C3A 3440   7.717   7.838   5.024  0.0299  0.2292 -0.3439
  251POPC   C4A 3441   7.746   8.068   5.460  0.1492  0.1134  0.2052
  251POPC   C1B 3442   7.597   8.707   4.198 -0.0901  0.1624 -0.3016
  251POPC   C2B 3443   7.984   8.719   4.447 -0.1828 -0.3036 -0.2325
  251POPC   C3B 3444   8.015   8.798   4.945 -0.0003  0.1999 -0.5190
  251POPC   C4B 3445   7.989   8.581   5.355 -0.0411 -0.1539  0.0200
  252POPC   NC3 3446   4.154   7.958   3.493  0.2415 -0.2149 -0.1303
  252POPC   PO4 3447   3.784   7.795   3.675 -0.1837  0.0197  0.2160
  252POPC   GL1 3448   3.682   7.496   4.054 -0.0332 -0.0868 -0.0333
  252POPC   GL2 3449   3.771   7.660   4.330  0.0739 -0.1994 -0.1639
  252POPC   C1A 3450   3.299   7.270   4.275  0.0941 -0.0750  0.0473
  252POPC   D2A 3451   3.190   6.851   4.293 -0.1962 -0.3079 -0.1307
  252POPC   C3A 3452   3.157   6.778   4.706  0.1022 -0.2537  0.1247
  252POPC   C4A 3453   3.090   6.564   5.082  0.0432  0.0121  0.0667
  252POPC   C1B 3454   3.635   7.388   4.684  0.2893  0.1161  0.1902
  252POPC   C2B 3455   3.486   7.199   5.079  0.0222 -0.2723 -0.1040
  252POPC   C3B 3456   3.443   7.072   5.476 -0.0303 -0.2103  0.0461
  252POPC   C4B 3457   3.206   7.311   5.699  0.2771  0.0018  0.0810
  253POPC   NC3 3458   5.964   4.901   3.444 -0.1707 -0.1260 -0.0002
  253POPC   PO4 3459   6.400   5.041   3.377  0.3474 -0.1732 -0.0663
  253POPC   GL1 3460   6.413   5.107   3.786 -0.0717 -0.1874  0.1405
  253POPC   GL2 3461   6.723   5.052   3.957 -0.3379 -0.2988  0.0676
  253POPC   C1A 3462   6.241   5.021   4.113 -0.0479  0.0205 -0.2835
  253POPC   D2A 3463   6.257   4.983   4.626  0.2149  0.4490  0.1925
  253POPC   C3A 3464   5.958   4.848   4.826  0.1657  0.3057  0.0602
  253POPC   C4A 3465   5.588   4.622   4.924 -0.2389  0.1273 -0.0704
  253POPC   C1B 3466   6.733   5.160   4.398  0.3456  0.1593 -0.0573
  253POPC   C2B 3467   6.776   5.301   4.828 -0.0680 -0.0551  0.2639
  253POPC   C3B 3468   6.691   5.583   5.204  0.1320  0.0371 -0.1752
  253POPC   C4B 3469   6.764   5.666   5.724 -0.1513 -0.0774  0.2493
  254POPC   NC3 3470   4.007   5.659   3.229  0.0868  0.1294 -0.0575
  254POPC   PO4 3471   3.918   5.165   3.367 -0.2170 -0.0371 -0.0305
  254POPC   GL1 3472   3.804   5.151   3.789  0.0049 -0.4540  0.1351
  254POPC   GL2 3473   3.956   5.467   3.788  0.4208 -0.0324  0.0183
  254POPC   C1A 3474   3.523   5.565   3.931  0.3110  0.0608  0.1537
  254POPC   D2A 3475   3.322   5.915   4.115 -0.4539  0.0241 -0.1347
  254POPC   C3A 3476   3.154   5.921   4.554  0.1427 -0.1050 -0.0932
  254POPC   C4A 3477   3.130   6.013   4.982 -0.1576 -0.1699  0.2667
  254POPC   C1B 3478   4.202   5.243   4.104 -0.1056  0.3816  0.0935
  254POPC   C2B 3479   4.102   5.168   4.475 -0.2247  0.2699  0.3100
  254POPC   C3B 3480   3.971   5.366   4.729 -0.0065 -0.3245  0.2422
  254POPC   C4B 3481   3.596   5.463   4.889 -0.5616  0.2270  0.0643
  255POPC   NC3 3482   2.065   4.284   2.696 -0.0326  0.3393 -0.1767
  255POPC   PO4 3483   2.044   4.529   3.204 -0.3178 -0.0241  0.1358
  255POPC   GL1 3484   2.319   4.756   3.588 -0.1424  0.0005 -0.1631
  255POPC   GL2 3485   2.403   5.097   3.590  0.1305  0.0837  0.1323
  255POPC   C1A 3486   2.702   4.694   3.750 -0.0511 -0.0195 -0.1006
  255POPC   D2A 3487   3.084   4.678   4.062 -0.0337 -0.0203 -0.1791
  255POPC   C3A 3488   2.957   4.920   4.343  0.1680  0.1138  0.1728
  255POPC   C4A 3489   3.138   4.985   4.690 -0.3934 -0.0008  0.2473
  255POPC   C1B 3490   2.298   5.373   3.865  0.1859  0.0676  0.4186
  255POPC   C2B 3491   2.504   5.463   4.185  0.2757 -0.2222  0.2693
  255POPC   C3B 3492   2.811   5.326   4.580 -0.1231  0.0927  0.0631
  255POPC   C4B 3493   3.059   5.467   4.897 -0.0305  0.1467  0.0420
  256POPC   NC3 3494   6.270   8.620   3.725  0.2919 -0.1398 -0.0279
  256POPC   PO4 3495   6.498   8.222   3.639 -0.1594  0.2570 -0.0497
  256POPC   GL1 3496   6.629   8.163   3.972  0.0051  0.0712  0.2816
  256POPC   GL2 3497   6.899   8.004   3.994  0.1582  0.0193 -0.0134
  256POPC   C1A 3498   6.520   7.990   4.376 -0.0164 -0.3396 -0.3871
  256POPC   D2A 3499   6.349   7.855   4.801  0.1298  0.0467  0.1657
  256POPC   C3A 3500   6.501   7.986   5.129 -0.0509 -0.0540  0.0015
  256POPC   C4A 3501   6.825   7.821   5.391  0.1514 -0.3557  0.1982
  256POPC   C1B 3502   6.931   8.264   4.353 -0.1421 -0.0481 -0.3814
  256POPC   C2B 3503   6.671   8.287   4.842 -0.0236 -0.0269  0.1834
  256POPC   C3B 3504   6.247   8.447   4.908 -0.0987  0.0182  0.2674
  256POPC   C4B 3505   5.870   8.664   4.933  0.2493  0.0878 -0.1383
  257POPC   NC3 3506   1.372   6.821   3.120 -0.2334  0.1058  0.0643
  257POPC   PO4 3507   1.196   7.186   3.421 -0.1410 -0.2144 -0.0040
  257POPC   GL1 3508   1.046   7.093   3.755 -0.1540  0.1527 -0.0713
  257POPC   GL2 3509   1.256   7.239   3.928 -0.1205  0.0004  0.0481
  257POPC   C1A 3510   1.100   6.774   4.179  0.2593  0.1420 -0.1393
  257POPC   D2A 3511   1.337   6.448   4.333  0.3276 -0.2126  0.0035
  257POPC   C3A 3512   1.539   6.531   4.848 -0.2422 -0.2183  0.0789
  257POPC   C4A 3513   1.565   6.560   5.359 -0.0246 -0.1042 -0.2805
  257POPC   C1B 3514   1.296   7.150   4.387 -0.0446 -0.1907 -0.2606
  257POPC   C2B 3515   1.303   6.988   4.697  0.1353 -0.1002  0.0783
  257POPC   C3B 3516   1.587   7.046   5.079 -0.0029  0.0191 -0.0033
  257POPC   C4B 3517   1.773   7.012   5.440  0.2178  0.0904  0.1967
  258POPC   NC3 3518   9.461   1.285   3.510  0.1037 -0.0440 -0.0275
  258POPC   PO4 3519   9.369   1.709   3.552 -0.2137 -0.0301 -0.1270
  258POPC   GL1 3520   9.245   1.823   4.096 -0.2274 -0.2121  0.0141
  258POPC   GL2 3521   8.854   1.753   4.146  0.2105  0.1153  0.0579
  258POPC   C1A 3522   9.434   1.769   4.516 -0.3870  0.1157 -0.0198
  258POPC   D2A 3523   9.812   1.717   4.758 -0.1141  0.1894 -0.4265
  258POPC   C3A 3524   9.483   1.717   5.208 -0.2776  0.1499 -0.0500
  258POPC   C4A 3525   9.215   1.563   5.516  0.1365  0.0517  0.3295
  258POPC   C1B 3526   8.927   1.961   4.606  0.2027 -0.1491  0.2336
  258POPC   C2B 3527   9.127   2.039   5.090  0.2444  0.0717  0.1134
  258POPC   C3B 3528   9.314   2.061   5.485  0.1040  0.2611 -0.0602
  258POPC   C4B 3529   9.655   1.868   5.621  0.0799 -0.3763  0.1200
  259POPC   NC3 3530   9.297   5.983   3.664  0.0171  0.3339  0.1764
  259POPC   PO4 3531   9.367   5.533   3.583  0.2003 -0.2027 -0.1493
  259POPC   GL1 3532   9.630   5.502   3.896 -0.0643  0.3162 -0.1093
  259POPC   GL2 3533   9.376   5.280   4.035  0.2644  0.1484 -0.2994
  259POPC   C1A 3534   9.757   5.448   4.312 -0.0024  0.3894 -0.2689
  259POPC   D2A 3535   9.961   5.627   4.724  0.3339 -0.1996  0.1345
  259POPC   C3A 3536   9.715   5.568   5.117  0.2368 -0.0715  0.0397
  259POPC   C4A 3537   9.438   5.479   5.463  0.2390 -0.1856 -0.1884
  259POPC   C1B 3538   9.312   5.225   4.377 -0.1719 -0.1316 -0.4083
  259POPC   C2B 3539   9.478   5.435   4.659 -0.0037  0.1376 -0.1840
  259POPC   C3B 3540   9.388   5.878   4.839 -0.0679  0.5317 -0.2473
  259POPC   C4B 3541   9.211   6.173   5.238 -0.2770  0.2280  0.1264
  260POPC   NC3 3542   4.414   0.332   3.297 -0.1258  0.2125  0.1805
  260POPC   PO4 3543   4.765   0.721   3.455  0.2959  0.2283 -0.0444
  260POPC   GL1 3544   4.669   0.777   3.839 -0.1271  0.0615  0.4715
  260POPC   GL2 3545   4.863   0.925   4.059 -0.1201 -0.4236 -0.0013
  260POPC   C1A 3546   4.423   0.825   4.235  0.0970 -0.1701 -0.2035
  260POPC   D2A 3547   4.389   0.557   4.583  0.0161  0.0489 -0.3313
  260POPC   C3A 3548   4.538   0.712   4.934 -0.0878 -0.0741  0.2812
  260POPC   C4A 3549   4.579   0.726   5.248  0.1932 -0.2201 -0.1130
  260POPC   C1B 3550   5.131   0.814   4.404  0.0745  0.1837 -0.0009
  260POPC   C2B 3551   5.035   0.806   4.827 -0.3663 -0.0369  0.0526
  260POPC   C3B 3552   5.080   0.986   5.331 -0.0023  0.0886 -0.0673
  260POPC   C4B 3553   5.157   1.013   5.821  0.0712 -0.1346  0.1313
  261POPC   NC3 3554   8.903   7.700   3.565 -0.1217 -0.2296 -0.0898
  261POPC   PO4 3555   8.643   7.989   3.643  0.0339 -0.0739  0.3576
  261POPC   GL1 3556   8.842   7.774   4.058  0.1612 -0.1336  0.1126
  261POPC   GL2 3557   9.245   7.830   4.196 -0.2178 -0.1146  0.2995
  261POPC   C1A 3558   8.770   7.911   4.474 -0.0149  0.0716  0.0080
  261POPC   D2A 3559   8.787   7.692   4.891  0.1079 -0.1835  0.1951
  261POPC   C3A 3560   8.703   7.831   5.325 -0.1435 -0.0281  0.2134
  261POPC   C4A 3561   8.483   7.927   5.813 -0.2362  0.0016 -0.2274
  261POPC   C1B 3562   9.170   7.966   4.657  0.3643 -0.1835  0.0769
  261POPC   C2B 3563   9.393   8.038   5.070 -0.0612  0.1136  0.0347
  261POPC   C3B 3564   9.437   7.943   5.562  0.0520 -0.0250 -0.0085
  261POPC   C4B 3565   9.583   7.865   6.025  0.1891 -0.1713 -0.2686
  262POPC   NC3 3566   6.584   5.560   3.634  0.3449  0.5425 -0.1806
  262POPC   PO4 3567   6.099   5.416   3.565  0.1469  0.1532  0.1712
  262POPC   GL1 3568   6.105   5.498   3.959 -0.2805  0.0655  0.1165
  262POPC   GL2 3569   5.977   5.850   4.148 -0.2455  0.0644 -0.0923
  262POPC   C1A 3570   6.318   5.505   4.342 -0.5300  0.1716 -0.0180
  262POPC   D2A 3571   6.304   5.461   4.825 -0.0695 -0.3223  0.0946
  262POPC   C3A 3572   6.375   5.046   5.075  0.0600 -0.0050 -0.1923
  262POPC   C4A 3573   6.077   4.969   5.285  0.0578  0.4317 -0.0748
  262POPC   C1B 3574   6.114   5.839   4.603  0.2927 -0.4795 -0.0552
  262POPC   C2B 3575   6.300   5.952   5.035 -0.3823  0.0433  0.0710
  262POPC   C3B 3576   6.433   5.996   5.385  0.2387  0.0344  0.0841
  262POPC   C4B 3577   6.536   6.098   5.880 -0.3393 -0.3281 -0.1975
  263POPC   NC3 3578   8.855   4.403   3.121  0.2412  0.2779  0.1006
  263POPC   PO4 3579   9.040   4.262   3.560  0.0762 -0.3685  0.1969
  263POPC   GL1 3580   8.858   4.238   3.955 -0.1189 -0.0657  0.0480
  263POPC   GL2 3581   9.066   4.350   4.257  0.2624  0.3708  0.2198
  263POPC   C1A 3582   8.646   3.975   4.259 -0.1933  0.3845 -0.1687
  263POPC   D2A 3583   8.359   4.087   4.602  0.0043  0.1158 -0.1875
  263POPC   C3A 3584   8.361   3.956   5.074  0.0150 -0.0077  0.1199
  263POPC   C4A 3585   8.342   3.912   5.440 -0.1870 -0.1354 -0.3638
  263POPC   C1B 3586   8.925   4.213   4.685  0.2723 -0.0038  0.2064
  263POPC   C2B 3587   8.805   4.270   5.160 -0.2704  0.1116 -0.2177
  263POPC   C3B 3588   8.850   4.041   5.590 -0.0086 -0.0026 -0.0437
  263POPC   C4B 3589   8.791   3.723   5.765  0.3395 -0.3202 -0.0815
  264POPC   NC3 3590   1.010   2.696   3.879  0.0694 -0.3486 -0.2600
  264POPC   PO4 3591   0.822   2.581   4.258  0.0631  0.0269  0.0778
  264POPC   GL1 3592   0.866   2.475   4.598  0.1946 -0.0601  0.0701
  264POPC   GL2 3593   0.523   2.375   4.690  0.1348 -0.0617 -0.0235
  264POPC   C1A 3594   1.055   2.369   5.060  0.2057  0.2546 -0.2719
  264POPC   D2A 3595   1.114   2.273   5.444 -0.0053 -0.0621  0.0245
  264POPC   C3A 3596   0.929   2.055   5.810  0.3598  0.3805  0.1792
  264POPC   C4A 3597   0.546   1.844   5.805  0.0051  0.2257  0.3387
  264POPC   C1B 3598   0.556   2.362   5.153 -0.2144 -0.3188 -0.0607
  264POPC   C2B 3599   0.500   2.361   5.583  0.0119  0.2757 -0.0444
  264POPC   C3B 3600   0.545   2.395   5.975 -0.0339 -0.0242  0.0470
  264POPC   C4B 3601   0.677   2.185   6.227 -0.2819  0.2124 -0.2298
  265POPC   NC3 3602   5.293   8.228   3.820 -0.0879 -0.0541  0.0472
  265POPC   PO4 3603   5.645   8.127   4.011 -0.0132 -0.0282  0.1264
  265POPC   GL1 3604   5.520   8.378   4.344 -0.1934 -0.0495  0.2667
  265POPC   GL2 3605   5.666   8.789   4.350  0.1779  0.1332 -0.3433
  265POPC   C1A 3606   5.467   8.397   4.763 -0.0268 -0.2535  0.1320
  265POPC   D2A 3607   5.331   8.478   5.193  0.0981 -0.0006  0.3751
  265POPC   C3A 3608   5.623   8.345   5.403  0.1969  0.0150  0.0315
  265POPC   C4A 3609   5.876   8.049   5.734  0.0660  0.0632 -0.0047
  265POPC   C1B 3610   5.810   9.171   4.546 -0.1422 -0.1111 -0.0988
  265POPC   C2B 3611   5.722   9.186   4.958  0.2040 -0.1068  0.2412
  265POPC   C3B 3612   5.578   9.631   5.192  0.0387 -0.0381 -0.0203
  265POPC   C4B 3613   5.367   9.988   5.382 -0.2815  0.1246  0.1533
  266POPC   NC3 3614   2.052   0.201   3.858  0.1026  0.0674  0.4183
  266POPC   PO4 3615   2.042  -0.230   3.900 -0.2863 -0.2334 -0.0032
  266POPC   GL1 3616   2.275  -0.311   4.311 -0.1540  0.0889  0.1077
  266POPC   GL2 3617   2.427  -0.524   4.426 -0.0719  0.0911 -0.2755
  266POPC   C1A 3618   2.543  -0.049   4.680  0.1967  0.1314 -0.0846
  266POPC   D2A 3619   2.581   0.378   5.005 -0.0957  0.1042  0.0367
  266POPC   C3A 3620   2.849   0.517   5.468 -0.0757 -0.0525  0.3190
  266POPC   C4A 3621   2.838   0.311   5.854 -0.2205 -0.1652  0.1951
  266POPC   C1B 3622   2.507  -0.599   4.850  0.1679  0.0274  0.0593
  266POPC   C2B 3623   2.400  -0.594   5.292  0.1270 -0.0899  0.5600
  266POPC   C3B 3624   2.665  -0.726   5.772  0.2555  0.1510  0.2544
  266POPC   C4B 3625   3.035  -0.662   6.095 -0.1373  0.1666 -0.2113
  267POPC   NC3 3626   7.187   4.395   3.654  0.0877 -0.2294 -0.1500
  267POPC   PO4 3627   7.699   4.322   3.518  0.3768 -0.1656 -0.1186
  267POPC   GL1 3628   7.650   4.548   3.846  0.1687 -0.0311 -0.1832
  267POPC   GL2 3629   7.817   4.318   3.987  0.3043 -0.1725  0.0691
  267POPC   C1A 3630   7.601   4.723   4.185 -0.0752 -0.0669  0.2411
  267POPC   D2A 3631   7.701   4.850   4.640  0.1831 -0.0773 -0.3078
  267POPC   C3A 3632   7.546   4.465   4.953 -0.2087  0.3192  0.4107
  267POPC   C4A 3633   7.446   4.178   5.267  0.2034  0.1536  0.1517
  267POPC   C1B 3634   7.503   4.262   4.287  0.1406  0.1384  0.0198
  267POPC   C2B 3635   7.136   3.933   4.558  0.0065  0.1229 -0.0118
  267POPC   C3B 3636   7.142   3.911   4.993 -0.1836  0.0695 -0.2847
  267POPC   C4B 3637   7.284   3.696   5.323 -0.0325  0.0276 -0.2632
  268POPC   NC3 3638   3.466   1.827   3.497 -0.2859 -0.2084 -0.1565
  268POPC   PO4 3639   3.833   1.838   3.538  0.4941 -0.0086 -0.2940
  268POPC   GL1 3640   3.999   1.697   3.950 -0.2301  0.1005 -0.2285
  268POPC   GL2 3641   4.309   1.836   4.053  0.0522 -0.2083 -0.2919
  268POPC   C1A 3642   3.838   1.514   4.366  0.2588 -0.2102 -0.0859
  268POPC   D2A 3643   3.627   1.301   4.625  0.3043  0.2018  0.1023
  268POPC   C3A 3644   3.801   1.309   4.976  0.0071  0.0641 -0.2218
  268POPC   C4A 3645   3.918   1.238   5.448  0.2650 -0.1589 -0.0720
  268POPC   C1B 3646   4.579   1.855   4.368  0.1359  0.0816  0.1105
  268POPC   C2B 3647   4.645   1.651   4.801  0.2362 -0.0472  0.1859
  268POPC   C3B 3648   5.036   1.695   5.167 -0.0206  0.0786 -0.1962
  268POPC   C4B 3649   5.466   1.742   5.139  0.0421  0.2556 -0.2470
  269POPC   NC3 3650   9.238   8.893   3.193 -0.1407  0.0047 -0.0516
  269POPC   PO4 3651   9.064   9.082   3.618 -0.1685  0.0506  0.0976
  269POPC   GL1 3652   8.657   8.898   3.842  0.4335 -0.2200  0.1271
  269POPC   GL2 3653   8.671   8.639   3.859  0.0752 -0.2072  0.3098
  269POPC   C1A 3654   8.322   9.014   4.232 -0.3133  0.0180  0.2838
  269POPC   D2A 3655   8.384   9.111   4.644  0.1773 -0.2842 -0.3238
  269POPC   C3A 3656   8.521   8.754   4.893  0.0627 -0.0254  0.0815
  269POPC   C4A 3657   8.865   8.729   5.091 -0.1584 -0.1908 -0.1512
  269POPC   C1B 3658   8.466   8.559   4.274 -0.0014  0.2039  0.2606
  269POPC   C2B 3659   8.213   8.362   4.708  0.2292 -0.0699  0.1290
  269POPC   C3B 3660   8.008   8.231   5.031 -0.0729 -0.0652 -0.0022
  269POPC   C4B 3661   7.579   8.383   5.102 -0.0501  0.0535 -0.0030
  270POPC   NC3 3662   2.522  10.084   3.863 -0.1827  0.0914 -0.0581
  270POPC   PO4 3663   2.875  10.089   3.698  0.1970  0.2875  0.0295
  270POPC   GL1 3664   3.059  10.068   4.163 -0.5846  0.0814 -0.0439
  270POPC   GL2 3665   2.865   9.792   4.319  0.3527  0.4117 -0.2452
  270POPC   C1A 3666   3.060  10.195   4.542 -0.1100 -0.0671 -0.1829
  270POPC   D2A 3667   2.905  10.194   4.970 -0.0136 -0.0058 -0.1306
  270POPC   C3A 3668   3.013  10.281   5.386 -0.0027  0.0384  0.2237
  270POPC   C4A 3669   3.331  10.319   5.732  0.1031 -0.2034  0.0213
  270POPC   C1B 3670   2.976   9.703   4.704 -0.1229  0.0911 -0.1636
  270POPC   C2B 3671   2.934   9.659   5.101 -0.0795 -0.2915 -0.1222
  270POPC   C3B 3672   2.742   9.893   5.521 -0.2080  0.1364  0.2676
  270POPC   C4B 3673   2.946  10.043   5.920  0.2978  0.0974 -0.0134
  271POPC   NC3 3674   1.622   9.334   3.863  0.0572 -0.0779  0.0387
  271POPC   PO4 3675   1.759   9.054   4.113 -0.0903  0.3129  0.2377
  271POPC   GL1 3676   1.614   9.018   4.442  0.0951  0.0467  0.0318
  271POPC   GL2 3677   1.533   8.678   4.503 -0.0199  0.1383 -0.2221
  271POPC   C1A 3678   1.674   9.085   4.865 -0.2833  0.2746  0.1184
  271POPC   D2A 3679   1.934   9.025   5.120 -0.1448 -0.0210  0.0093
  271POPC   C3A 3680   1.849   9.091   5.478  0.0825  0.2478  0.3253
  271POPC   C4A 3681   1.796   8.895   5.807 -0.1776 -0.0267 -0.4558
  271POPC   C1B 3682   1.237   8.915   4.735 -0.0452  0.0276  0.0362
  271POPC   C2B 3683   1.266   8.951   5.158  0.2208 -0.1094  0.2127
  271POPC   C3B 3684   1.402   8.731   5.489 -0.0629  0.1136  0.1260
  271POPC   C4B 3685   1.226   8.344   5.767  0.1206 -0.0212  0.2297
  272POPC   NC3 3686   9.830   0.970   3.754 -0.1954 -0.0715  0.1522
  272POPC   PO4 3687   9.661   1.249   4.035  0.1614 -0.3372  0.3742
  272POPC   GL1 3688   9.468   1.262   4.453 -0.1594 -0.1835  0.1222
  272POPC   GL2 3689   9.220   1.348   4.450  0.1690  0.2484 -0.1803
  272POPC   C1A 3690   9.545   1.276   4.878 -0.1269  0.0119 -0.1285
  272POPC   D2A 3691   9.734   1.166   5.229 -0.2760 -0.0485 -0.1723
  272POPC   C3A 3692   9.524   0.913   5.509  0.1977  0.0066  0.0526
  272POPC   C4A 3693   9.773   0.687   5.835  0.0641  0.3030 -0.1816
  272POPC   C1B 3694   8.998   1.124   4.848 -0.1115  0.0459 -0.1306
  272POPC   C2B 3695   8.937   1.053   5.366  0.1887 -0.1445 -0.2236
  272POPC   C3B 3696   9.031   0.679   5.688 -0.0251  0.0115  0.2145
  272POPC   C4B 3697   8.765   0.548   6.034 -0.3920 -0.2155 -0.1321
  273POPC   NC3 3698   9.654   2.055   3.782  0.1253  0.2897 -0.2449
  273POPC   PO4 3699   9.851   2.482   3.927 -0.1609 -0.3022 -0.0587
  273POPC   GL1 3700   9.836   2.381   4.430 -0.0490  0.1843  0.2504
  273POPC   GL2 3701   9.658   2.223   4.320 -0.0227  0.2129 -0.0340
  273POPC   C1A 3702  10.084   2.194   4.724  0.1629 -0.1312  0.1617
  273POPC   D2A 3703   9.931   1.975   5.152  0.1670 -0.0507  0.2161
  273POPC   C3A 3704  10.011   1.648   5.343 -0.2006 -0.0634 -0.1048
  273POPC   C4A 3705  10.107   1.286   5.545 -0.1251 -0.0077 -0.0736
  273POPC   C1B 3706   9.606   2.230   4.827 -0.1463  0.1921 -0.0574
  273POPC   C2B 3707   9.564   2.421   5.270 -0.0218 -0.0729 -0.0595
  273POPC   C3B 3708   9.502   2.493   5.757 -0.2921  0.0266 -0.1429
  273POPC   C4B 3709   9.216   2.188   5.979  0.0844 -0.2136 -0.0071
  274POPC   NC3 3710   7.741   3.285   3.537  0.0984  0.2460 -0.2589
  274POPC   PO4 3711   7.286   3.476   3.628  0.0800 -0.0312 -0.0328
  274POPC   GL1 3712   7.405   3.140   3.919 -0.0970 -0.3418 -0.2025
  274POPC   GL2 3713   7.135   3.007   4.115  0.1094  0.0651 -0.2496
  274POPC   C1A 3714   7.608   3.114   4.357 -0.1451 -0.2440  0.0927
  274POPC   D2A 3715   7.749   3.309   4.822 -0.1715  0.3079  0.0366
  274POPC   C3A 3716   7.596   3.686   4.903  0.2106  0.2282  0.0744
  274POPC   C4A 3717   7.795   4.062   4.730  0.2800  0.4870  0.2090
  274POPC   C1B 3718   6.975   2.927   4.503 -0.1549 -0.2104 -0.0943
  274POPC   C2B 3719   6.926   3.064   4.986  0.1862  0.0875  0.2715
  274POPC   C3B 3720   6.706   2.982   5.236 -0.0670 -0.0633 -0.0773
  274POPC   C4B 3721   6.761   2.917   5.633  0.3681  0.1289  0.0243
  275POPC   NC3 3722   8.983   8.224   3.946  0.1317 -0.1812  0.0164
  275POPC   PO4 3723   9.379   8.267   3.901 -0.2358  0.2366  0.3090
  275POPC   GL1 3724   9.370   8.384   4.368  0.1601  0.3279  0.0333
  275POPC   GL2 3725   8.958   8.413   4.526 -0.3336  0.2589 -0.0984
  275POPC   C1A 3726   9.287   8.513   4.889  0.1368  0.2518 -0.3023
  275POPC   D2A 3727   9.361   8.813   5.195 -0.2962  0.0550 -0.0868
  275POPC   C3A 3728   9.114   9.168   5.249 -0.0024  0.0351 -0.5265
  275POPC   C4A 3729   9.033   9.573   5.234  0.0044 -0.1543  0.2261
  275POPC   C1B 3730   8.709   8.256   4.890  0.1109 -0.2602  0.0410
  275POPC   C2B 3731   8.449   8.438   5.254  0.0387 -0.0724  0.0911
  275POPC   C3B 3732   8.290   8.528   5.734  0.1404  0.2795 -0.0567
  275POPC   C4B 3733   7.925   8.563   5.959  0.3115  0.3812 -0.0970
  276POPC   NC3 3734   7.595   5.603   3.791 -0.0943  0.1157  0.0504
  276POPC   PO4 3735   7.967   5.480   3.663 -0.1250  0.0086  0.0816
  276POPC   GL1 3736   8.160   5.444   4.069  0.2787  0.0364 -0.2760
  276POPC   GL2 3737   7.914   5.350   4.395  0.0534  0.0876 -0.0190
  276POPC   C1A 3738   8.421   5.502   4.480  0.0811 -0.1662 -0.0129
  276POPC   D2A 3739   8.656   5.150   4.653  0.0288 -0.0143  0.0518
  276POPC   C3A 3740   8.937   4.863   4.476 -0.0125  0.2790  0.2638
  276POPC   C4A 3741   9.306   4.616   4.544  0.1554 -0.0443  0.2512
  276POPC   C1B 3742   7.900   5.293   4.889 -0.2332 -0.1437  0.0445
  276POPC   C2B 3743   7.616   5.226   5.224  0.1496 -0.2659 -0.1690
  276POPC   C3B 3744   7.713   5.052   5.622 -0.0219 -0.1844  0.0887
  276POPC   C4B 3745   7.826   5.254   5.983  0.2347  0.2903  0.0798
  277POPC   NC3 3746   1.084   3.294   4.635  0.2232  0.1715 -0.2320
  277POPC   PO4 3747   1.399   3.109   4.742  0.2183  0.0363 -0.1378
  277POPC   GL1 3748   1.031   2.974   5.024 -0.0604 -0.1479 -0.0331
  277POPC   GL2 3749   0.737   2.923   4.920 -0.0818 -0.0469  0.0582
  277POPC   C1A 3750   0.878   2.805   5.428  0.0987  0.3998  0.3403
  277POPC   D2A 3751   0.936   2.620   5.824 -0.2354 -0.0672  0.1983
  277POPC   C3A 3752   1.231   2.406   5.944  0.2124 -0.0917  0.1359
  277POPC   C4A 3753   1.426   2.035   6.154  0.0457 -0.1645 -0.1266
  277POPC   C1B 3754   0.270   2.707   4.964 -0.1627  0.2622 -0.3157
  277POPC   C2B 3755   0.083   2.368   5.245 -0.1992  0.0453  0.0798
  277POPC   C3B 3756  -0.191   2.166   5.596  0.1832  0.0127  0.1238
  277POPC   C4B 3757  -0.397   2.146   6.013  0.0172 -0.3418  0.1897
  278POPC   NC3 3758   3.392   3.938   3.515  0.4632  0.2043 -0.1566
  278POPC   PO4 3759   3.233   4.206   3.795 -0.1023 -0.1129 -0.2518
  278POPC   GL1 3760   3.317   3.870   4.118 -0.1444  0.0787  0.2195
  278POPC   GL2 3761   3.251   4.025   4.384  0.0935  0.0791  0.0961
  278POPC   C1A 3762   3.721   3.656   4.346 -0.1204  0.2088  0.0144
  278POPC   D2A 3763   4.070   3.893   4.483  0.1632 -0.0877 -0.2571
  278POPC   C3A 3764   4.351   3.732   4.884 -0.1308 -0.2372 -0.0836
  278POPC   C4A 3765   4.561   3.988   5.147  0.2882  0.0657 -0.2971
  278POPC   C1B 3766   3.575   4.016   4.687  0.2505 -0.2600  0.0294
  278POPC   C2B 3767   3.951   4.073   4.952 -0.2008 -0.0966 -0.1054
  278POPC   C3B 3768   4.175   4.301   5.200 -0.1558  0.1159 -0.2837
  278POPC   C4B 3769   4.362   4.589   5.505  0.3105 -0.3595  0.0180
  279POPC   NC3 3770   5.591   9.158   3.931  0.1488  0.4364  0.0657
  279POPC   PO4 3771   5.267   8.774   3.782  0.0346  0.1419  0.0467
  279POPC   GL1 3772   5.091   8.696   4.116 -0.0260  0.1418 -0.0433
  279POPC   GL2 3773   4.844   8.500   4.063 -0.0017  0.1514  0.0025
  279POPC   C1A 3774   5.037   8.579   4.540  0.0349  0.0158 -0.0449
  279POPC   D2A 3775   4.868   8.625   4.880  0.0914 -0.1851 -0.2032
  279POPC   C3A 3776   4.771   8.308   5.043 -0.1619 -0.2462 -0.1909
  279POPC   C4A 3777   4.544   8.097   5.305 -0.1238 -0.0778  0.0288
  279POPC   C1B 3778   4.611   8.274   4.432  0.3325 -0.1967 -0.0330
  279POPC   C2B 3779   4.323   8.273   4.815 -0.1102 -0.0703 -0.5113
  279POPC   C3B 3780   4.059   8.185   5.181  0.0444  0.1667 -0.0741
  279POPC   C4B 3781   3.658   8.252   5.301 -0.3003 -0.2124 -0.0020
  280POPC   NC3 3782   6.713   2.710   3.387  0.1732 -0.0512  0.2511
  280POPC   PO4 3783   6.770   2.755   3.824  0.0271  0.2121  0.1127
  280POPC   GL1 3784   6.546   2.893   4.142 -0.0970 -0.0327  0.1293
  280POPC   GL2 3785   6.618   3.296   4.327  0.0980 -0.0665 -0.3286
  280POPC   C1A 3786   6.279   2.733   4.441 -0.4057  0.3070  0.2778
  280POPC   D2A 3787   5.906   2.625   4.640  0.1263  0.2498  0.1237
  280POPC   C3A 3788   5.823   2.835   5.035 -0.1756 -0.2190 -0.1947
  280POPC   C4A 3789   5.833   2.544   5.451  0.0510  0.3904 -0.1065
  280POPC   C1B 3790   6.477   3.111   4.714 -0.1273 -0.2819  0.1731
  280POPC   C2B 3791   6.297   2.916   5.056  0.1324  0.3296  0.1294
  280POPC   C3B 3792   6.287   3.037   5.569 -0.3323 -0.1646 -0.1985
  280POPC   C4B 3793   6.172   3.296   5.850  0.0307  0.1378 -0.0102
  281POPC   NC3 3794   9.488   4.272   3.990 -0.0596 -0.1033  0.0458
  281POPC   PO4 3795   9.254   4.628   3.865 -0.3202 -0.1586 -0.0205
  281POPC   GL1 3796   9.575   4.823   4.134  0.1016 -0.1446 -0.0653
  281POPC   GL2 3797   9.860   4.994   4.042 -0.0707 -0.3008 -0.2438
  281POPC   C1A 3798   9.697   4.934   4.563  0.0071  0.0536  0.2157
  281POPC   D2A 3799   9.872   5.095   4.934  0.0638 -0.1517  0.1812
  281POPC   C3A 3800   9.710   5.070   5.255  0.0353  0.2205 -0.1668
  281POPC   C4A 3801   9.911   5.114   5.698 -0.1551  0.2489 -0.1898
  281POPC   C1B 3802  10.136   5.089   4.339 -0.1663 -0.1470  0.1050
  281POPC   C2B 3803  10.304   5.241   4.716  0.1473  0.4204  0.0145
  281POPC   C3B 3804  10.234   5.373   5.088 -0.0663  0.0938  0.0290
  281POPC   C4B 3805  10.090   5.526   5.476  0.0369  0.0767  0.1720
  282POPC   NC3 3806   8.717   3.406   3.513 -0.1906 -0.4233  0.0076
  282POPC   PO4 3807   8.538   3.180   3.735 -0.0457 -0.2121  0.0906
  282POPC   GL1 3808   8.709   3.390   4.062  0.0656  0.0384 -0.1878
  282POPC   GL2 3809   9.013   3.509   4.102 -0.1645  0.1204  0.1440
  282POPC   C1A 3810   8.585   3.499   4.475 -0.3064 -0.2826 -0.2699
  282POPC   D2A 3811   8.391   3.168   4.796 -0.1077  0.1540  0.3764
  282POPC   C3A 3812   8.648   2.830   5.070  0.0400 -0.0479 -0.0652
  282POPC   C4A 3813   8.439   2.707   5.480 -0.1541  0.1239 -0.0549
  282POPC   C1B 3814   9.026   3.719   4.499 -0.2617 -0.0498  0.1709
  282POPC   C2B 3815   8.806   3.808   4.915 -0.2450 -0.1570  0.2454
  282POPC   C3B 3816   9.015   3.658   5.274  0.0810  0.0698 -0.3696
  282POPC   C4B 3817   9.278   3.519   5.563  0.0903  0.0907  0.0249
  283POPC   NC3 3818   8.941   6.214   4.026  0.2030  0.0937  0.0438
  283POPC   PO4 3819   8.793   6.447   3.669 -0.0018 -0.3052 -0.2516
  283POPC   GL1 3820   8.642   6.597   4.059 -0.0376  0.2812 -0.0094
  283POPC   GL2 3821   8.258   6.809   4.014 -0.2380 -0.0402 -0.3081
  283POPC   C1A 3822   8.665   6.591   4.551 -0.0326  0.2984  0.3168
  283POPC   D2A 3823   8.434   6.608   4.950 -0.1813  0.1913  0.0337
  283POPC   C3A 3824   8.280   6.967   5.107  0.1981  0.1474 -0.0169
  283POPC   C4A 3825   8.543   7.369   5.194  0.1598  0.1285 -0.0403
  283POPC   C1B 3826   8.286   7.041   4.370 -0.1482  0.1775 -0.0028
  283POPC   C2B 3827   8.249   7.253   4.689 -0.1649 -0.1635 -0.4780
  283POPC   C3B 3828   8.017   7.386   5.096 -0.1750  0.1251  0.0478
  283POPC   C4B 3829   7.720   7.514   5.484  0.0329  0.1532  0.1970
  284POPC   NC3 3830   9.476   9.335   3.906 -0.1825 -0.1192  0.2813
  284POPC   PO4 3831   9.948   9.095   3.865  0.1200 -0.1288  0.0157
  284POPC   GL1 3832   9.850   9.047   4.316 -0.0089  0.2251  0.3194
  284POPC   GL2 3833   9.579   9.036   4.275 -0.3992 -0.1226 -0.4517
  284POPC   C1A 3834  10.235   9.158   4.586 -0.1114 -0.1179 -0.0045
  284POPC   D2A 3835  10.390   9.009   4.974 -0.0797  0.0672  0.1591
  284POPC   C3A 3836  10.682   8.925   5.368  0.0610 -0.2140  0.1145
  284POPC   C4A 3837  11.087   9.002   5.552 -0.1399  0.0688  0.0206
  284POPC   C1B 3838   9.493   8.823   4.667 -0.0923  0.0891  0.1417
  284POPC   C2B 3839   9.649   8.284   4.735 -0.1796  0.4823 -0.0143
  284POPC   C3B 3840   9.764   7.781   4.835  0.2583  0.0328 -0.1443
  284POPC   C4B 3841   9.702   7.677   5.209 -0.0505  0.1988  0.0641
  285POPC   NC3 3842   7.263   5.032   3.052 -0.0027 -0.0279 -0.2904
  285POPC   PO4 3843   7.184   4.899   3.561 -0.1926  0.1501  0.1185
  285POPC   GL1 3844   7.159   4.783   4.022  0.0077 -0.0456  0.0012
  285POPC   GL2 3845   7.228   5.061   4.130 -0.0330 -0.0280  0.0007
  285POPC   C1A 3846   7.181   4.625   4.438  0.2553  0.1773 -0.4666
  285POPC   D2A 3847   6.971   4.370   4.766 -0.3407 -0.1040  0.1450
  285POPC   C3A 3848   6.918   4.322   5.198 -0.2892 -0.0557 -0.1243
  285POPC   C4A 3849   6.599   4.252   5.417 -0.1331 -0.4307  0.1027
  285POPC   C1B 3850   7.255   5.070   4.589  0.0077  0.0477  0.1564
  285POPC   C2B 3851   7.217   4.838   5.003 -0.2520 -0.0433  0.3580
  285POPC   C3B 3852   7.378   4.779   5.283 -0.1769 -0.1526 -0.0455
  285POPC   C4B 3853   7.317   4.966   5.868 -0.3651  0.0139  0.0420
  286POPC   NC3 3854   5.911   6.243   3.863  0.1515  0.0006  0.1244
  286POPC   PO4 3855   5.379   6.171   3.680 -0.1889  0.2096  0.2626
  286POPC   GL1 3856   5.229   6.289   4.021 -0.1861 -0.1713 -0.1221
  286POPC   GL2 3857   5.268   6.019   4.163 -0.2680  0.2497  0.1114
  286POPC   C1A 3858   4.794   6.156   4.210 -0.0866  0.1249  0.0000
  286POPC   D2A 3859   4.419   6.280   4.520  0.0885 -0.0833 -0.2331
  286POPC   C3A 3860   4.553   6.298   4.977 -0.1827  0.0359  0.3628
  286POPC   C4A 3861   4.696   6.494   5.290 -0.0517 -0.1148  0.1000
  286POPC   C1B 3862   5.109   5.940   4.566 -0.0244  0.3224  0.3495
  286POPC   C2B 3863   4.889   5.724   4.973 -0.1486  0.0407 -0.1147
  286POPC   C3B 3864   4.682   5.574   5.395 -0.0312  0.0053 -0.1591
  286POPC   C4B 3865   4.674   5.561   5.831  0.2470 -0.1945 -0.0403
  287POPC   NC3 3866   7.399   7.603   3.193 -0.0330  0.2276  0.0270
  287POPC   PO4 3867   6.955   7.422   3.343 -0.1362 -0.2550 -0.1232
  287POPC   GL1 3868   6.957   7.427   3.864 -0.0730  0.0498  0.0421
  287POPC   GL2 3869   7.213   7.522   3.997  0.3947 -0.3412 -0.3356
  287POPC   C1A 3870   6.910   7.155   4.180  0.1011 -0.1999  0.1447
  287POPC   D2A 3871   6.861   6.755   4.368  0.2881 -0.0015 -0.1543
  287POPC   C3A 3872   6.898   6.468   4.625 -0.1119  0.1118 -0.1233
  287POPC   C4A 3873   6.965   6.515   5.007  0.3701 -0.3312  0.1174
  287POPC   C1B 3874   7.323   7.335   4.260 -0.2265  0.1440 -0.0146
  287POPC   C2B 3875   7.103   7.188   4.639  0.0363 -0.1645 -0.0054
  287POPC   C3B 3876   6.944   7.338   4.990  0.3531 -0.0284 -0.1182
  287POPC   C4B 3877   6.598   7.448   5.225  0.1942  0.1518 -0.0616
  288POPC   NC3 3878   8.155   4.474   3.614 -0.0453  0.0651 -0.0781
  288POPC   PO4 3879   8.606   4.474   3.597  0.2478 -0.0555  0.2256
  288POPC   GL1 3880   8.464   4.518   4.040 -0.0843 -0.3577  0.4549
  288POPC   GL2 3881   8.269   4.206   4.115 -0.2479 -0.2840  0.1122
  288POPC   C1A 3882   8.509   4.593   4.461  0.1307  0.0394 -0.2714
  288POPC   D2A 3883   8.612   4.535   4.796 -0.2202  0.0161 -0.1771
  288POPC   C3A 3884   9.120   4.644   4.997 -0.0099  0.3385 -0.1047
  288POPC   C4A 3885   9.381   4.960   4.927 -0.2413 -0.0234 -0.3244
  288POPC   C1B 3886   7.959   3.876   4.249 -0.0576 -0.0574 -0.2241
  288POPC   C2B 3887   7.571   3.753   4.396 -0.2193  0.1817  0.2633
  288POPC   C3B 3888   7.234   3.405   4.623  0.1581 -0.0204 -0.1121
  288POPC   C4B 3889   6.790   3.573   4.801  0.0078 -0.1862 -0.1750
  289POPC   NC3 3890   7.342   2.592   3.902  0.3470  0.0333  0.1472
  289POPC   PO4 3891   7.695   2.795   3.690 -0.3687  0.2316  0.0306
  289POPC   GL1 3892   7.781   2.670   4.207 -0.0894 -0.0844  0.0711
  289POPC   GL2 3893   7.416   2.586   4.375  0.0971 -0.1678  0.3839
  289POPC   C1A 3894   8.047   2.814   4.579  0.3185 -0.0261 -0.1268
  289POPC   D2A 3895   8.195   2.639   4.946  0.2327 -0.3208 -0.2706
  289POPC   C3A 3896   8.052   2.433   5.265 -0.2002 -0.0526 -0.1946
  289POPC   C4A 3897   7.866   2.519   5.597  0.0485 -0.0975 -0.3066
  289POPC   C1B 3898   7.413   2.866   4.771  0.2888  0.0344 -0.1442
  289POPC   C2B 3899   7.395   3.159   5.079  0.0883  0.0582 -0.3958
  289POPC   C3B 3900   7.202   3.253   5.443 -0.0315  0.3975 -0.1190
  289POPC   C4B 3901   6.806   3.420   5.464 -0.0489 -0.0882  0.0342
  290POPC   NC3 3902   2.577   2.834   3.596 -0.2231  0.2220 -0.0350
  290POPC   PO4 3903   2.986   2.660   3.773  0.2061 -0.0736  0.0160
  290POPC   GL1 3904   3.403   2.507   3.948 -0.0629 -0.0036  0.1120
  290POPC   GL2 3905   3.311   2.109   4.066  0.2978  0.2625 -0.0751
  290POPC   C1A 3906   3.782   2.494   4.328  0.1918 -0.1050 -0.2793
  290POPC   D2A 3907   4.194   2.224   4.281  0.0394 -0.2533 -0.0357
  290POPC   C3A 3908   4.231   2.114   4.725  0.0984  0.1507 -0.0171
  290POPC   C4A 3909   3.938   2.197   5.130 -0.1166  0.1043 -0.0478
  290POPC   C1B 3910   3.683   1.977   4.326  0.2267 -0.3631 -0.0869
  290POPC   C2B 3911   3.740   1.817   4.787 -0.5068 -0.1388  0.0594
  290POPC   C3B 3912   3.733   1.734   5.323 -0.3062 -0.3651  0.2174
  290POPC   C4B 3913   3.326   1.737   5.533 -0.2461  0.5647  0.1602
  291POPC   NC3 3914   4.785   4.987   3.065  0.0341  0.3837  0.0491
  291POPC   PO4 3915   4.933   5.300   3.363 -0.0712  0.1638  0.2996
  291POPC   GL1 3916   4.923   5.118   3.804  0.3691  0.0510 -0.3321
  291POPC   GL2 3917   4.730   5.084   4.015  0.3481  0.1420 -0.0309
  291POPC   C1A 3918   5.187   5.008   4.191 -0.0362  0.1478  0.3670
  291POPC   D2A 3919   4.962   4.973   4.582  0.3344  0.1959 -0.1796
  291POPC   C3A 3920   5.093   4.824   4.996  0.3295  0.0547 -0.1308
  291POPC   C4A 3921   5.050   4.841   5.397  0.0717 -0.3291 -0.2048
  291POPC   C1B 3922   4.606   5.331   4.402 -0.1528  0.0551  0.1412
  291POPC   C2B 3923   4.522   5.485   4.784 -0.0696  0.0114 -0.1147
  291POPC   C3B 3924   4.252   5.491   5.125 -0.0656  0.2067 -0.0473
  291POPC   C4B 3925   3.900   5.330   5.260  0.1683 -0.2920  0.4964
  292POPC   NC3 3926   6.416   6.375   3.651 -0.0458 -0.1277  0.2091
  292POPC   PO4 3927   6.668   6.523   3.979 -0.0841  0.3767 -0.2017
  292POPC   GL1 3928   6.317   6.434   4.170  0.0955  0.2212  0.0413
  292POPC   GL2 3929   6.435   6.096   4.366  0.2958  0.1593 -0.0319
  292POPC   C1A 3930   6.145   6.481   4.484  0.0160 -0.2237  0.0997
  292POPC   D2A 3931   5.880   6.355   4.789 -0.0050  0.4076  0.1696
  292POPC   C3A 3932   5.813   5.997   4.960  0.3594  0.0434 -0.1080
  292POPC   C4A 3933   5.879   5.814   5.363 -0.3898 -0.0076 -0.0545
  292POPC   C1B 3934   6.523   6.203   4.679  0.0551  0.4939  0.0957
  292POPC   C2B 3935   6.504   6.403   5.036 -0.1765 -0.3597  0.5335
  292POPC   C3B 3936   6.377   6.574   5.454 -0.0158 -0.1415 -0.1833
  292POPC   C4B 3937   6.270   6.716   5.817 -0.0334 -0.1548 -0.1646
  293POPC   NC3 3938  10.136   7.321   3.876  0.0330 -0.1629  0.0187
  293POPC   PO4 3939   9.899   6.961   3.881  0.0296 -0.1802 -0.0464
  293POPC   GL1 3940   9.962   7.142   4.286  0.1184 -0.1395  0.0250
  293POPC   GL2 3941  10.043   7.444   4.424 -0.1124 -0.1063 -0.2395
  293POPC   C1A 3942   9.818   7.241   4.803 -0.3189 -0.1291 -0.0887
  293POPC   D2A 3943   9.512   7.072   5.077  0.0833 -0.0118 -0.0725
  293POPC   C3A 3944   9.470   7.343   5.465  0.1729 -0.0428 -0.3555
  293POPC   C4A 3945   9.516   7.457   5.780  0.0627  0.0258  0.0939
  293POPC   C1B 3946  10.232   7.605   4.826 -0.0329 -0.0608  0.0573
  293POPC   C2B 3947  10.397   7.852   4.990  0.0944 -0.2990 -0.1012
  293POPC   C3B 3948  10.862   7.942   5.059 -0.1582  0.1482  0.0136
  293POPC   C4B 3949  11.179   7.764   5.238 -0.0421  0.0275  0.0243
  294POPC   NC3 3950   3.616   7.361   3.482 -0.3284 -0.0031  0.0408
  294POPC   PO4 3951   3.826   6.911   3.539  0.0705  0.0579 -0.0382
  294POPC   GL1 3952   3.670   6.649   3.837  0.2271  0.1214 -0.0161
  294POPC   GL2 3953   3.575   6.872   4.019  0.0405 -0.1521 -0.0682
  294POPC   C1A 3954   3.504   6.417   4.202  0.0793  0.1403  0.0656
  294POPC   D2A 3955   3.345   6.377   4.522 -0.0080  0.2737 -0.0278
  294POPC   C3A 3956   3.542   6.434   4.942 -0.1146 -0.0009  0.1785
  294POPC   C4A 3957   3.480   6.606   5.373 -0.0122  0.1097  0.1579
  294POPC   C1B 3958   3.651   6.872   4.474 -0.1222 -0.0738 -0.0376
  294POPC   C2B 3959   3.810   6.878   4.921  0.0740 -0.0518 -0.2488
  294POPC   C3B 3960   4.025   6.819   5.338 -0.0357  0.0698  0.1872
  294POPC   C4B 3961   3.914   6.775   5.796 -0.2451  0.0005  0.0273
  295POPC   NC3 3962   0.723   1.421   3.211 -0.0208  0.0676  0.0717
  295POPC   PO4 3963   0.841   1.158   3.575 -0.2989  0.0627  0.0582
  295POPC   GL1 3964   0.899   0.855   3.945  0.0199  0.2064  0.1245
  295POPC   GL2 3965   1.103   0.515   3.938 -0.0708 -0.0460 -0.4442
  295POPC   C1A 3966   0.648   0.905   4.350 -0.2482 -0.0118 -0.3850
  295POPC   D2A 3967   0.498   1.040   4.816  0.3285 -0.1620  0.1555
  295POPC   C3A 3968   0.492   0.710   5.201 -0.1587  0.3378  0.1060
  295POPC   C4A 3969   0.598   0.584   5.613 -0.1781 -0.0387  0.3993
  295POPC   C1B 3970   1.218   0.421   4.370  0.1195  0.1525 -0.0951
  295POPC   C2B 3971   1.171   0.255   4.779  0.2461  0.1409  0.0456
  295POPC   C3B 3972   0.966  -0.060   5.058 -0.1615  0.1006  0.1244
  295POPC   C4B 3973   0.540  -0.296   5.187  0.2997  0.0994  0.0069
  296POPC   NC3 3974   0.044   1.608   4.011 -0.2521 -0.1680 -0.0367
  296POPC   PO4 3975   0.107   1.181   3.789 -0.0090  0.0068  0.1326
  296POPC   GL1 3976  -0.046   1.172   4.144  0.0537  0.1000 -0.3159
  296POPC   GL2 3977  -0.210   1.388   4.431  0.0763 -0.1755  0.0670
  296POPC   C1A 3978   0.176   0.812   4.557  0.1582 -0.0073  0.1100
  296POPC   D2A 3979   0.236   0.455   4.826 -0.1488 -0.0362  0.0046
  296POPC   C3A 3980   0.106   0.403   5.183  0.0554  0.0091  0.1589
  296POPC   C4A 3981  -0.229   0.613   5.372  0.1311 -0.1469 -0.3108
  296POPC   C1B 3982   0.084   1.387   4.826  0.1083 -0.0883 -0.0158
  296POPC   C2B 3983   0.278   1.375   5.200  0.1419 -0.0453  0.0760
  296POPC   C3B 3984   0.367   1.364   5.636 -0.0631  0.0695 -0.4481
  296POPC   C4B 3985   0.844   1.350   5.905 -0.0834  0.1205 -0.0012
  297POPC   NC3 3986   5.032   7.625   3.430 -0.0056 -0.1693  0.2781
  297POPC   PO4 3987   5.023   7.228   3.618  0.2619 -0.2768 -0.2900
  297POPC   GL1 3988   4.823   6.906   3.852 -0.0388 -0.3895 -0.3192
  297POPC   GL2 3989   4.529   6.960   4.070  0.1853 -0.2426  0.2124
  297POPC   C1A 3990   4.870   6.662   4.202 -0.1364  0.0758 -0.0880
  297POPC   D2A 3991   4.960   6.401   4.601 -0.1791  0.1184 -0.0062
  297POPC   C3A 3992   5.095   6.234   5.074 -0.0731  0.1099 -0.0274
  297POPC   C4A 3993   5.502   6.179   5.300  0.2861 -0.1830 -0.0764
  297POPC   C1B 3994   4.640   7.163   4.542  0.2865 -0.1703  0.0214
  297POPC   C2B 3995   4.912   7.388   4.795 -0.2760  0.0047  0.0175
  297POPC   C3B 3996   5.276   7.435   5.011 -0.0658 -0.1719  0.0789
  297POPC   C4B 3997   5.494   7.796   5.266 -0.1031 -0.1216  0.5148
  298POPC   NC3 3998   9.977   9.759   3.622  0.1464 -0.0136 -0.0058
  298POPC   PO4 3999   9.536   9.803   3.805 -0.2366 -0.1800  0.2942
  298POPC   GL1 4000   9.690  10.063   4.164  0.5120 -0.1604  0.2918
  298POPC   GL2 4001   9.892  10.247   4.327  0.0578  0.0577  0.3384
  298POPC   C1A 4002   9.580   9.985   4.621 -0.1521  0.0115 -0.0022
  298POPC   D2A 4003   9.332   9.791   4.838  0.1570  0.1893 -0.2804
  298POPC   C3A 4004   8.959   9.998   4.719  0.2357  0.1152  0.0700
  298POPC   C4A 4005   8.514  10.073   4.547  0.0269  0.0270 -0.0131
  298POPC   C1B 4006  10.045   9.798   4.493 -0.0941  0.0179 -0.0994
  298POPC   C2B 4007   9.786   9.485   4.591 -0.0700  0.1047 -0.4356
  298POPC   C3B 4008   9.525   9.286   4.986  0.2241 -0.0389  0.1524
  298POPC   C4B 4009   9.572   9.169   5.437  0.0607  0.0648  0.0363
  299POPC   NC3 4010   5.159   9.366   3.622 -0.1188 -0.2297  0.4200
  299POPC   PO4 4011   4.811   9.780   3.665  0.1690 -0.1235 -0.1760
  299POPC   GL1 4012   4.807   9.486   3.943  0.0502 -0.0761 -0.0620
  299POPC   GL2 4013   5.142   9.434   4.102  0.0085  0.0571 -0.0762
  299POPC   C1A 4014   4.736   9.469   4.465  0.2248  0.1117  0.0073
  299POPC   D2A 4015   4.644   9.158   4.806  0.1496 -0.0844 -0.1092
  299POPC   C3A 4016   4.608   9.057   5.163 -0.1446 -0.2653  0.0238
  299POPC   C4A 4017   4.492   9.058   5.618  0.0896 -0.0082  0.0220
  299POPC   C1B 4018   5.225   9.133   4.456 -0.2089  0.0562 -0.0989
  299POPC   C2B 4019   5.276   8.960   4.794 -0.1557 -0.2278 -0.1471
  299POPC   C3B 4020   5.094   8.973   5.174 -0.3566 -0.1058  0.0087
  299POPC   C4B 4021   5.064   9.053   5.527 -0.1077 -0.1216 -0.1719
  300POPC   NC3 4022   7.989   7.651   3.401  0.2521  0.0086  0.1249
  300POPC   PO4 4023   8.082   7.285   3.635 -0.4563  0.3686 -0.0640
  300POPC   GL1 4024   7.996   7.353   4.088 -0.0743  0.0167 -0.1844
  300POPC   GL2 4025   7.896   7.679   4.209 -0.1061  0.0868 -0.2507
  300POPC   C1A 4026   7.784   7.301   4.437  0.1767 -0.1859 -0.0320
  300POPC   D2A 4027   7.597   7.073   4.757  0.0368 -0.0565  0.2161
  300POPC   C3A 4028   7.426   7.388   5.064  0.3033  0.1443  0.3309
  300POPC   C4A 4029   7.124   7.323   5.474  0.1036 -0.2343 -0.0055
  300POPC   C1B 4030   7.951   7.843   4.532  0.1294  0.0215 -0.0141
  300POPC   C2B 4031   8.282   7.799   4.933 -0.0434 -0.1541  0.3299
  300POPC   C3B 4032   8.175   7.892   5.395  0.0490  0.0752  0.0814
  300POPC   C4B 4033   8.004   7.848   5.813  0.3250  0.1265 -0.0026
  301POPC   NC3 4034   9.900   8.117   3.766 -0.1906  0.0770 -0.0560
  301POPC   PO4 4035  10.342   8.222   3.786 -0.0186  0.0775 -0.1805
  301POPC   GL1 4036  10.628   8.191   4.178 -0.1743  0.0804  0.1729
  301POPC   GL2 4037  10.910   7.979   4.080 -0.0528  0.3733  0.0461
  301POPC   C1A 4038  10.698   8.249   4.665  0.0896  0.1774 -0.0021
  301POPC   D2A 4039  10.604   8.494   5.065 -0.0386  0.1817  0.3381
  301POPC   C3A 4040  10.493   8.127   5.420 -0.0256 -0.1119 -0.1368
  301POPC   C4A 4041  10.574   7.754   5.787  0.2912  0.2595 -0.3514
  301POPC   C1B 4042  10.825   7.782   4.524  0.0105  0.1197  0.0943
  301POPC   C2B 4043  10.762   7.508   4.934  0.1463  0.1846 -0.0428
  301POPC   C3B 4044  10.935   7.421   5.381  0.0512  0.0426  0.6595
  301POPC   C4B 4045  10.922   7.241   5.778  0.2667 -0.1001  0.2507
  302W        W 4046   1.958  10.188  10.028  0.1021 -0.1133  0.1214
  303W        W 4047   9.393   4.544   0.374 -0.0158 -0.0303 -0.2000
  304W        W 4048   7.894   5.161   1.888  0.1001 -0.1834 -0.1245
  305W        W 4049   9.723   2.161   9.738  0.0739 -0.1725  0.0463
  306W        W 4050   0.926   8.618   9.222  0.1288  0.0609 -0.0353
  307W        W 4051   9.930   0.147   0.525 -0.3793  0.0355 -0.0300
  308W        W 4052   5.786   0.715   9.705 -0.0514 -0.4569 -0.0677
  309W        W 4053   4.808   8.003   3.844  0.1871 -0.2375  0.1463
  310W        W 4054  10.127   8.620   8.310  0.3504 -0.1600 -0.0645
  311W        W 4055   4.634   5.635   3.560  0.0440  0.0326 -0.1070
  312W        W 4056   6.278   6.336   2.515  0.2264 -0.0802  0.0737
  313W        W 4057   2.889   1.313   9.841  0.2548  0.4289 -0.1251
  314W        W 4058   9.412   1.631  11.743 -0.1459  0.3508 -0.1580
  315W        W 4059   6.494   8.135   0.412  0.0435  0.0631  0.0806
  316W        W 4060   6.526   0.698   4.010 -0.1008  0.0998  0.3779
  317W        W 4061   3.231   5.823   1.632  0.1592 -0.3204  0.0140
  318W        W 4062   6.508   0.465  10.343  0.4219 -0.1713 -0.0828
  319W        W 4063   2.547   1.823  11.721 -0.2191  0.1109  0.3014
  320W        W 4064   5.665   6.552   9.405 -0.1806 -0.2039 -0.2675
  321W        W 4065   1.387   5.006   2.695 -0.1070  0.2650  0.1540
  322W        W 4066   5.897   3.377   2.558  0.1395  0.1354 -0.0083
  323W        W 4067   4.106   6.492   3.627  0.4944 -0.0247 -0.0957
  324W        W 4068   4.408   6.535   7.606  0.0013  0.3243  0.0314
  325W        W 4069   7.408   1.204   0.302  0.0722  0.1952 -0.1253
  326W        W 4070   8.422   4.211   2.906 -0.0179 -0.2728 -0.1544
  327W        W 4071   8.796   3.632  11.642  0.1786 -0.1912 -0.2112
  328W        W 4072   1.311   7.889   1.576 -0.2249 -0.3379 -0.0261
  329W        W 4073   1.197   4.541  10.711 -0.2961 -0.3022 -0.2318
  330W        W 4074   5.989   2.571   1.906 -0.0050 -0.1262  0.1792
  331W        W 4075   3.213   0.448  11.726 -0.0045 -0.2432  0.4310
  332W        W 4076   8.101   8.017  11.293  0.2812  0.4155  0.3575
  333W        W 4077   6.745   3.112   0.617 -0.0730  0.1516  0.0608
  334W        W 4078   8.184   1.181   2.309 -0.0479 -0.1255 -0.0268
  335W        W 4079   9.806   0.437  11.408 -0.1173 -0.1129 -0.0364
  336W        W 4080   3.308   6.634   1.886 -0.0203  0.0371  0.2601
  337W        W 4081   8.583   2.040  10.239 -0.0059  0.0170 -0.0446
  338W        W 4082   7.715   8.852   9.709  0.3942  0.1447  0.0451
  339W        W 4083   5.702   3.216   8.840 -0.0447 -0.1364  0.0514
  340W        W 4084   4.642   6.581   9.415 -0.0569  0.0489  0.4161
  341W        W 4085   5.258   0.820  10.186 -0.0188 -0.2120 -0.3039
  342W        W 4086   4.957   1.177   2.068  0.0025  0.1963  0.0716
  343W        W 4087   9.389   2.118   1.598  0.1343 -0.2153  0.0125
  344W        W 4088   6.604   7.929  11.461 -0.1147 -0.1921 -0.0582
  345W        W 4089   2.482   8.103   8.380  0.0332 -0.3280 -0.0967
  346W        W 4090   6.673   5.328   9.442 -0.1692  0.0099 -0.0612
  347W        W 4091   4.706   1.747   2.600 -0.2519  0.0784  0.1738
  348W        W 4092   6.310   6.285   7.867 -0.0800  0.0274  0.2826
  349W        W 4093   7.677   3.207   1.352 -0.1245 -0.2036  0.1760
  350W        W 4094   0.914   5.244  10.126  0.1734  0.0118 -0.2158
  351W        W 4095   3.381   7.595   1.813 -0.3002 -0.1239 -0.0480
  352W        W 4096   7.214   2.508   9.637  0.1988 -0.0454 -0.0056
  353W        W 4097   1.960   4.069   3.666 -0.0990  0.2572  0.0627
  354W        W 4098   3.601   5.235  10.496 -0.1602 -0.2377  0.3286
  355W        W 4099   5.102   8.557   7.712  0.2256 -0.0202  0.2025
  356W        W 4100   9.690   4.124   0.417  0.0898  0.2081  0.2971
  357W        W 4101   3.961   6.874  11.286  0.0805  0.3273 -0.0511
  358W        W 4102   5.837   0.164   7.748 -0.0345  0.2793 -0.0223
  359W        W 4103   1.926   3.419  11.507  0.0932 -0.0723  0.3440
  360W        W 4104   8.133   0.809   8.305 -0.0681 -0.2663 -0.1574
  361W        W 4105   5.267   0.749   3.691  0.1215 -0.0265  0.0658
  362W        W 4106   9.985   9.615   2.726 -0.1196  0.0543  0.0395
  363W        W 4107   6.189   3.072   8.807  0.4950 -0.2977  0.0903
  364W        W 4108   7.970   8.430   8.415  0.3260  0.0210  0.0227
  365W        W 4109   0.894   0.977  10.282 -0.3126 -0.0063 -0.0212
  366W        W 4110   7.788   3.765  11.219 -0.0278  0.1035  0.1453
  367W        W 4111   3.416   6.255   8.881 -0.3892  0.1041  0.0041
  368W        W 4112   1.254   2.160   0.726 -0.1304 -0.1570 -0.0669
  369W        W 4113   6.110   4.391   0.002  0.0245 -0.1375 -0.1547
  370W        W 4114   6.629   6.052   1.279 -0.2806  0.2020  0.3095
  371W        W 4115   6.713   6.935  10.259  0.0534  0.0772 -0.0401
  372W        W 4116   7.436   9.683   9.837 -0.2389 -0.1367  0.0548
  373W        W 4117   2.488   6.686   3.201  0.1816  0.2416 -0.1178
  374W        W 4118   3.567   9.665   1.332  0.0088  0.0526 -0.0441
  375W        W 4119   9.955   4.030  10.942 -0.0112 -0.0715  0.0264
  376W        W 4120   7.399   8.323   0.755  0.4565 -0.1801  0.3252
  377W        W 4121   5.637   7.070   2.238 -0.1255 -0.0537  0.3402
  378W        W 4122   3.184   7.748   0.221 -0.1655  0.0172 -0.1309
  379W        W 4123   4.640   2.922   2.553  0.0860 -0.0343  0.1469
  380W        W 4124   2.795   5.090  10.381  0.0017  0.0442 -0.1859
  381W        W 4125   7.975   7.614   7.919  0.2621  0.0942 -0.0124
  382W        W 4126   5.536   7.780   0.461 -0.0348  0.3313 -0.0632
  383W        W 4127   3.637   5.017  11.537 -0.1302  0.4661  0.1009
  384W        W 4128   7.321   0.379   1.463 -0.0392  0.0440 -0.1171
  385W        W 4129   6.968   2.277  12.066 -0.0738 -0.0975 -0.0494
  386W        W 4130   5.616   8.899   7.787 -0.0798 -0.1037 -0.0902
  387W        W 4131   5.748   8.584   1.633  0.2732  0.2434 -0.0273
  388W        W 4132   1.386   0.587   2.356 -0.0445 -0.1893 -0.1574
  389W        W 4133   1.297   9.488   1.954 -0.3919 -0.4199  0.1367
  390W        W 4134   7.137   9.938   2.818 -0.0652  0.1328 -0.1274
  391W        W 4135   7.073   0.560   9.070 -0.2773  0.3363  0.4764
  392W        W 4136   5.567   3.218  10.779  0.0183 -0.3140  0.3927
  393W        W 4137   3.454   6.243  11.849 -0.4901 -0.2520  0.1364
  394W        W 4138   2.836   3.464   1.852  0.1335 -0.2382  0.1461
  395W        W 4139   8.687   1.138   1.557 -0.2447 -0.1574 -0.0561
  396W        W 4140   6.079   8.261  11.459 -0.1204  0.1828  0.1353
  397W        W 4141   9.202   4.069   9.133 -0.0390  0.2573 -0.2545
  398W        W 4142   3.085   8.781   9.007  0.1993 -0.0210  0.1818
  399W        W 4143   5.485   3.970   9.327  0.0198 -0.1854 -0.2905
  400W        W 4144   7.166   7.192  10.204 -0.2174  0.1565  0.2768
  401W        W 4145   9.292   8.926   8.560  0.2344 -0.0106  0.2820
  402W        W 4146   8.245   1.496   3.265 -0.1110 -0.1246 -0.1658
  403W        W 4147   8.209   1.915   7.830  0.1236  0.0713  0.1596
  404W        W 4148   6.269   1.371  11.775  0.4919 -0.0725 -0.2629
  405W        W 4149   5.070   7.716  11.472  0.0928  0.2329 -0.0323
  406W        W 4150   8.486   0.878   2.631 -0.3046 -0.0106  0.0553
  407W        W 4151   5.162   0.760   2.624 -0.2135 -0.3486 -0.1020
  408W        W 4152   1.995   3.085  11.131  0.0163 -0.0532 -0.3948
  409W        W 4153   6.985   4.776  11.115 -0.2067  0.0517  0.5024
  410W        W 4154   7.526   5.060   9.278  0.4165  0.1837  0.1370
  411W        W 4155   8.258   7.802   1.544  0.2174 -0.0128 -0.0663
  412W        W 4156   1.359   2.646   0.712  0.1673  0.2544  0.1710
  413W        W 4157   3.978   6.511   7.267  0.0442  0.1136 -0.0527
  414W        W 4158   8.031   5.813   1.615  0.1825  0.2137 -0.0728
  415W        W 4159   8.489  10.130   0.280 -0.0392 -0.0612  0.0536
  416W        W 4160   2.858   8.585  10.892 -0.1881  0.0443 -0.0024
  417W        W 4161   3.651   0.851   2.671  0.1393  0.0515  0.0461
  418W        W 4162   4.135   2.492   9.234  0.3344 -0.0246  0.0721
  419W        W 4163   5.643   6.371  11.587 -0.0123 -0.0739 -0.1092
  420W        W 4164   4.634   9.535   2.109 -0.1312  0.1595  0.2205
  421W        W 4165   9.768   5.844   0.444  0.0784  0.0833  0.1370
  422W        W 4166   1.078   5.701   1.236  0.4824 -0.4413  0.0636
  423W        W 4167   1.262   2.886   8.516 -0.1649 -0.2008  0.0389
  424W        W 4168   7.682   7.716   1.529 -0.1043  0.0909  0.1992
  425W        W 4169   5.756   0.632   1.626 -0.0312  0.1764 -0.1028
  426W        W 4170   4.952   2.730   9.168 -0.0743  0.0192 -0.1343
  427W        W 4171   4.459   7.480   1.567 -0.1206  0.0001 -0.0782
  428W        W 4172   5.352   4.274   8.877 -0.0285  0.2484 -0.0072
  429W        W 4173   7.277   7.203  12.056  0.0390 -0.0634 -0.0172
  430W        W 4174   0.217   9.065   1.286 -0.2185 -0.0373  0.0827
  431W        W 4175   0.341   3.172   8.460  0.2347 -0.1324  0.0040
  432W        W 4176   4.311   1.664   1.711 -0.3908 -0.1861 -0.0136
  433W        W 4177   4.047   1.956   9.984 -0.3431 -0.1355 -0.0315
  434W        W 4178  10.052   1.172   8.737 -0.1179 -0.0704 -0.0289
  435W        W 4179   1.516   4.566  11.503 -0.0606 -0.3391 -0.2005
  436W        W 4180   4.949   1.078   3.118  0.4343  0.4565 -0.1300
  437W        W 4181   5.263   0.470   9.824 -0.1296 -0.1851  0.1582
  438W        W 4182   9.691   1.656  10.648 -0.0326 -0.1098 -0.1343
  439W        W 4183   1.606  10.112  11.169  0.0159 -0.0710 -0.1860
  440W        W 4184   2.503   0.869  11.556  0.1715 -0.2677  0.0816
  441W        W 4185   6.894   2.010   2.358 -0.0577 -0.2893  0.1939
  442W        W 4186   4.641   5.853   9.922  0.1700 -0.1544 -0.1249
  443W        W 4187   6.150   2.053   3.403  0.2502  0.3061  0.0107
  444W        W 4188   5.600   1.835   0.813 -0.0649  0.0975  0.1814
  445W        W 4189   9.343   5.905   1.444 -0.1853 -0.0473  0.0804
  446W        W 4190   1.854   2.226   8.785 -0.2702  0.0432  0.1709
  447W        W 4191   1.652   4.945   1.441  0.0430 -0.0937  0.0036
  448W        W 4192   7.828   2.299   1.430  0.0325 -0.5662 -0.1716
  449W        W 4193   5.336   3.598   2.552  0.1014  0.1109  0.2476
  450W        W 4194   8.108   3.036  12.038 -0.3644 -0.2350  0.0201
  451W        W 4195   4.652   9.853   8.002 -0.3282  0.2467 -0.1286
  452W        W 4196   1.531   1.627  11.526 -0.1473 -0.2503  0.0008
  453W        W 4197   0.104   9.058   8.019  0.2074 -0.0738  0.0301
  454W        W 4198   8.115   1.709  11.041  0.0237 -0.1712 -0.1159
  455W        W 4199   5.184   9.799   2.262 -0.1632 -0.2012  0.2835
  456W        W 4200   5.106  10.173   0.436 -0.1222  0.3138  0.0480
  457W        W 4201   7.012   3.881   1.047 -0.2311 -0.1110 -0.2367
  458W        W 4202   9.304   5.569   9.782 -0.3241  0.0940  0.0812
  459W        W 4203   4.088   7.785   9.624  0.2122  0.1074  0.1528
  460W        W 4204   8.247   8.547   7.992 -0.3852  0.2455  0.1806
  461W        W 4205   7.951   9.792   2.123 -0.1403 -0.0495 -0.0538
  462W        W 4206   3.813   1.824   0.594 -0.0277  0.2248  0.2112
  463W        W 4207   1.436   0.266   8.993  0.1491  0.0447 -0.0901
  464W        W 4208   0.318   0.467  11.858  0.1262 -0.0833  0.1749
  465W        W 4209   4.733   9.312   3.359  0.3675  0.2151  0.0391
  466W        W 4210   0.299   2.185   9.550 -0.4466  0.0817  0.0781
  467W        W 4211   3.315   6.194   0.094  0.1242  0.0209 -0.0649
  468W        W 4212   2.186   9.026   2.519 -0.3699  0.1856  0.0416
  469W        W 4213   1.780   6.501   9.735  0.2350  0.3057 -0.1745
  470W        W 4214   2.958   7.674   2.925  0.2356 -0.0656  0.2578
  471W        W 4215   8.146   3.222   1.139 -0.2599 -0.2349 -0.2222
  472W        W 4216   1.136   2.171  10.683 -0.0879 -0.0295 -0.0851
  473W        W 4217   5.994   9.361   2.394  0.0822 -0.0109 -0.0596
  474W        W 4218   5.182   8.703   9.206  0.0884  0.0736 -0.2875
  475W        W 4219   1.453   7.128   8.742 -0.2968  0.1515  0.3740
  476W        W 4220   4.294   3.601   0.868  0.1934  0.1489  0.1472
  477W        W 4221   1.055   4.009   3.478 -0.0524  0.2585  0.0386
  478W        W 4222   0.680   4.280   3.715 -0.0569 -0.0251  0.0489
  479W        W 4223   7.066   7.167   0.322 -0.1745 -0.2422 -0.0919
  480W        W 4224   7.251   0.679   3.194  0.1017 -0.1473 -0.1425
  481W        W 4225   5.286   6.289   8.115 -0.2044 -0.1205  0.0197
  482W        W 4226   8.828   8.099   9.928 -0.0276 -0.0996  0.3016
  483W        W 4227   9.108   5.576   8.685  0.2871  0.0324 -0.1191
  484W        W 4228   9.650   5.143   9.887  0.4895 -0.2302 -0.1777
  485W        W 4229   7.164   5.234   9.660 -0.0387 -0.4156  0.3026
  486W        W 4230   0.422   0.471  10.937  0.1514 -0.3272 -0.1479
  487W        W 4231   2.994   9.618   9.036  0.0262 -0.1085  0.0314
  488W        W 4232   9.592   9.876   8.620 -0.0213  0.0172  0.2892
  489W        W 4233   8.226   0.367   0.219  0.0548 -0.0169 -0.1106
  490W        W 4234   6.467   7.673   3.998  0.4007  0.0486  0.1516
  491W        W 4235   7.963   7.638  11.588  0.1262 -0.1178 -0.0570
  492W        W 4236   1.778   9.900  10.350  0.3493 -0.1134 -0.0751
  493W        W 4237  10.045   3.154   2.054 -0.0199  0.1796  0.0578
  494W        W 4238   4.808   6.436   7.888 -0.2609  0.1164 -0.0611
  495W        W 4239   1.680   8.005  12.193  0.3028 -0.3172 -0.0088
  496W        W 4240   9.780   9.240   7.841  0.1120 -0.0460  0.0039
  497W        W 4241   7.917   4.440   9.663  0.1071  0.1113 -0.0015
  498W        W 4242   5.393   6.932   3.334 -0.0212  0.2309  0.1467
  499W        W 4243   8.266   6.589  10.234 -0.0515  0.0375  0.2285
  500W        W 4244   4.864   2.323  11.575 -0.3552 -0.0250  0.0082
  501W        W 4245   3.958   3.996   0.697 -0.0018 -0.0719  0.0054
  502W        W 4246   4.650   6.248  10.846 -0.0206 -0.2029  0.2822
  503W        W 4247   5.541  10.161   2.254  0.0925 -0.0486 -0.0733
  504W        W 4248   0.833   9.086   1.153  0.0995  0.2345  0.1435
  505W        W 4249   3.400   6.645  10.631  0.0773  0.0431 -0.0006
  506W        W 4250   0.395   7.479  11.311  0.0096  0.0963 -0.0090
  507W        W 4251   6.328   8.712   9.725  0.0482 -0.2917  0.0417
  508W        W 4252   0.312   9.839   0.168  0.0360 -0.3033 -0.1533
  509W        W 4253   0.641   8.905   0.431 -0.0597 -0.1616 -0.2341
  510W        W 4254   1.318   9.853   9.180 -0.0902 -0.0897 -0.2673
  511W        W 4255   3.450   2.253   1.722  0.0285 -0.1047 -0.0699
  512W        W 4256   7.651   3.380  12.153  0.3323  0.0202 -0.1370
  513W        W 4257   7.300   9.339  10.762  0.1390  0.0059 -0.2700
  514W        W 4258   6.158   8.233   8.261 -0.0538 -0.2175 -0.3669
  515W        W 4259   2.172   1.991   0.304 -0.1134  0.0317  0.0702
  516W        W 4260   8.022   7.342   1.625  0.0649 -0.0087 -0.1207
  517W        W 4261   9.849   4.891   9.080 -0.2614 -0.0305  0.2130
  518W        W 4262   9.924   5.070   0.513 -0.2102 -0.1362 -0.0044
  519W        W 4263   8.326   1.103   0.701  0.1437  0.4122 -0.0073
  520W        W 4264   5.707   0.991   1.070 -0.1667  0.1328  0.0088
  521W        W 4265   5.053   6.608  11.014 -0.2110  0.0964 -0.0411
  522W        W 4266   2.751   2.854   1.916 -0.0321 -0.2749 -0.0684
  523W        W 4267   7.403   6.053   0.503 -0.1818 -0.1900 -0.0946
  524W        W 4268   2.626   2.862   4.125  0.0592  0.3302 -0.1978
  525W        W 4269   9.562   8.920   3.571  0.0533  0.1386 -0.0395
  526W        W 4270   9.225   3.055   1.310  0.0084 -0.0076 -0.0835
  527W        W 4271   8.485   3.467   9.270 -0.1862  0.2685 -0.0161
  528W        W 4272   7.368   5.703   8.461  0.0290 -0.2055  0.1041
  529W        W 4273   5.694   3.576   1.256  0.0302 -0.0559 -0.2431
  530W        W 4274   5.170   8.916   1.122 -0.0937  0.1125 -0.2370
  531W        W 4275   6.680   2.047   8.805  0.3079 -0.1951  0.1149
  532W        W 4276   8.010   1.649   2.149 -0.0854 -0.4076  0.1055
  533W        W 4277   9.550   8.438   3.469 -0.0257  0.1063  0.2248
  534W        W 4278   5.256   7.352   3.114  0.0384  0.0868 -0.0434
  535W        W 4279   4.678   4.341  10.635 -0.3142 -0.2340 -0.1488
  536W        W 4280   4.765   7.148  10.401 -0.1481  0.0144  0.5355
  537W        W 4281   5.657   8.973  10.027  0.2830 -0.3048  0.3616
  538W        W 4282   1.332   4.138   0.311  0.1374  0.5750  0.0193
  539W        W 4283   0.877   8.957   9.666  0.2680 -0.3879 -0.1216
  540W        W 4284   0.313   8.916   2.956  0.2047  0.0848 -0.1810
  541W        W 4285   7.815   4.185  11.456 -0.1592 -0.2482 -0.2007
  542W        W 4286   7.728   5.733   3.300 -0.2884 -0.1352 -0.0573
  543W        W 4287   0.204   5.768   8.388 -0.1360  0.1129 -0.0503
  544W        W 4288   3.013   3.654   8.888  0.1720  0.0688  0.1295
  545W        W 4289   9.217   0.878  11.694 -0.0408 -0.0760 -0.0578
  546W        W 4290   2.432   2.532   2.235  0.0661 -0.0324  0.0088
  547W        W 4291   1.888   5.229   9.116  0.1837  0.0715  0.1004
  548W        W 4292   3.622   3.470   7.992  0.0605  0.3113 -0.1077
  549W        W 4293   8.755   8.545   1.745 -0.2602 -0.0855  0.1222
  550W        W 4294   9.861   4.239   3.176 -0.2284  0.0016  0.2400
  551W        W 4295   6.595   9.084   8.429  0.0238  0.1155 -0.0659
  552W        W 4296   2.351   8.087   0.784  0.0536  0.0840  0.2291
  553W        W 4297   0.351   9.898   1.423 -0.0475 -0.4133  0.2418
  554W        W 4298   9.067   2.526   3.111  0.0870 -0.0160 -0.0061
  555W        W 4299   3.613   9.175  11.485 -0.1948  0.2109  0.2927
  556W        W 4300   3.033   2.509   0.407 -0.0538 -0.0379  0.1483
  557W        W 4301   6.993   8.275   3.539 -0.0144  0.1016 -0.2886
  558W        W 4302   3.337   8.335   8.797  0.0325  0.0712 -0.1287
  559W        W 4303   6.711  10.010   8.585  0.3111 -0.0466 -0.1441
  560W        W 4304   3.248   0.177   9.712 -0.2793  0.2397  0.0198
  561W        W 4305   7.688   3.393   2.230 -0.1795  0.1437  0.1192
  562W        W 4306   4.332   8.266  11.276  0.0742 -0.0878  0.1760
  563W        W 4307   4.801   7.904   3.020  0.0523  0.3338  0.3915
  564W        W 4308   5.854   5.105   8.970 -0.0133 -0.0366  0.3333
  565W        W 4309   9.726   4.503  10.865 -0.0832  0.0508  0.0204
  566W        W 4310   0.334   6.415   9.559 -0.2779  0.1308  0.5324
  567W        W 4311   7.965   4.476   0.300  0.4125  0.1952 -0.1537
  568W        W 4312   0.614   5.814   8.650  0.1911 -0.0824  0.0570
  569W        W 4313   0.114   3.568  11.472 -0.2662 -0.3084  0.0283
  570W        W 4314   3.301   1.378  11.568  0.2468  0.1222 -0.3457
  571W        W 4315  10.031   8.274   3.294  0.1425  0.1892 -0.0793
  572W        W 4316   0.256   6.647   8.620 -0.2356  0.1485 -0.2403
  573W        W 4317   5.969   4.505   7.725 -0.0042  0.3105  0.0229
  574W        W 4318   2.727  10.074   8.265 -0.1786 -0.1791  0.4313
  575W        W 4319   0.959   4.631  10.229 -0.2690  0.1431 -0.3773
  576W        W 4320   9.444   9.480   8.374  0.2325 -0.0645  0.3786
  577W        W 4321   8.064   1.633   8.983  0.4455  0.0257  0.3992
  578W        W 4322   3.513   8.584   1.723 -0.2338 -0.0478 -0.0471
  579W        W 4323   9.033   0.359   9.042  0.0557  0.1122  0.3586
  580W        W 4324   1.935   7.117   0.471 -0.2901 -0.1672 -0.2613
  581W        W 4325   2.315   3.567   1.805  0.2438 -0.0856 -0.0884
  582W        W 4326   8.227   4.288  11.838  0.2716 -0.3681  0.2815
  583W        W 4327   1.302   0.692   1.878 -0.0352  0.1367 -0.0132
  584W        W 4328   3.327   4.008   8.682 -0.0304  0.0625  0.1106
  585W        W 4329   0.647   8.962   8.186  0.4399  0.0826  0.0038
  586W        W 4330   9.108   2.117   3.655  0.0272 -0.3253 -0.2939
  587W        W 4331   8.765   8.829   0.397 -0.0775 -0.2919  0.3396
  588W        W 4332   9.373  10.191   8.902 -0.2161 -0.2042 -0.1821
  589W        W 4333   9.170   3.843  11.021 -0.3510  0.1128 -0.1472
  590W        W 4334   3.665   1.506   1.042 -0.1713  0.0167 -0.2720
  591W        W 4335   7.369   2.759   9.139 -0.0323 -0.0592  0.4038
  592W        W 4336   5.273   3.808   1.312 -0.2955 -0.0507 -0.0065
  593W        W 4337   5.189  10.157   1.878  0.3589 -0.0453 -0.3065
  594W        W 4338   5.038   7.146   2.450 -0.1851 -0.1105  0.1860
  595W        W 4339   4.299   1.062  10.640 -0.1602  0.2822 -0.0145
  596W        W 4340   1.166   6.979  10.575  0.1183 -0.0494 -0.0770
  597W        W 4341   2.249   3.095   0.789 -0.1531  0.1012  0.1003
  598W        W 4342   3.688   1.401  12.000 -0.0560  0.2145 -0.3190
  599W        W 4343   4.525   0.004  10.252  0.1930  0.1222 -0.2787
  600W        W 4344   6.030   4.421   9.609  0.0083 -0.2972 -0.0869
  601W        W 4345   4.763  10.024   2.184  0.1422  0.1101 -0.0631
  602W        W 4346   1.270   5.505   0.333 -0.0785 -0.0332 -0.2810
  603W        W 4347   7.149   2.616  11.702  0.1867 -0.2375  0.3795
  604W        W 4348   2.403   5.431   1.695  0.1878 -0.2347 -0.2965
  605W        W 4349   4.704   2.945  10.118 -0.2485  0.1624  0.0111
  606W        W 4350   7.122   4.898   8.998  0.2999  0.0096  0.3736
  607W        W 4351   8.459   9.654   8.849  0.1810  0.0759  0.0870
  608W        W 4352   7.046   3.639   0.547  0.0316 -0.2057 -0.0492
  609W        W 4353   7.854   6.479   2.683  0.1083  0.2175  0.0902
  610W        W 4354   8.627   3.220  10.983 -0.1382  0.2346  0.1765
  611W        W 4355   1.314   1.156   1.108 -0.1203  0.3520  0.1784
  612W        W 4356   0.011   7.141   2.724  0.0147  0.0472  0.2645
  613W        W 4357   7.114   7.321   2.484  0.1500  0.3310 -0.0144
  614W        W 4358   5.561   9.455   1.432  0.1450  0.3445  0.0732
  615W        W 4359   4.875   3.272   0.050 -0.0643 -0.3077 -0.1317
  616W        W 4360   3.297   5.505   1.203 -0.0060  0.0993  0.2539
  617W        W 4361   6.648  10.049   2.885  0.1037 -0.0990  0.1227
  618W        W 4362   6.488   7.454  11.235  0.2142 -0.3134 -0.0874
  619W        W 4363   4.995   7.930   9.616 -0.0152 -0.0795 -0.0030
  620W        W 4364   1.286   0.656   9.235 -0.1059 -0.1274  0.0062
  621W        W 4365   5.990   4.201   3.238 -0.0795  0.1148 -0.2278
  622W        W 4366   2.769   2.609   9.184 -0.1714 -0.0655  0.1188
  623W        W 4367   4.215   5.435  10.036 -0.2097 -0.2919  0.1015
  624W        W 4368   7.533   0.733  10.167 -0.2152 -0.3523 -0.1286
  625W        W 4369   0.338   3.695   2.780 -0.1538  0.0210 -0.3706
  626W        W 4370   9.384   2.861   3.329  0.2736 -0.0666  0.1650
  627W        W 4371   6.789   6.355   0.008  0.0741 -0.2606 -0.1405
  628W        W 4372   0.182   1.869   1.602  0.2474 -0.3276 -0.3813
  629W        W 4373   2.316   8.491   0.414  0.1789  0.0611  0.0938
  630W        W 4374   9.157   5.972   7.803 -0.0808  0.3274  0.0294
  631W        W 4375   4.999   4.099  11.327 -0.0565  0.0948  0.2254
  632W        W 4376   8.331   9.204   1.094 -0.1780  0.0415  0.1001
  633W        W 4377   3.433   5.125   2.445  0.3905  0.2481  0.0883
  634W        W 4378   1.155   1.234  11.933 -0.1433 -0.0410  0.4691
  635W        W 4379   7.962   2.473   3.302 -0.1638 -0.1077  0.1100
  636W        W 4380   9.752   4.015   9.430  0.2210  0.0675  0.1912
  637W        W 4381   2.926   2.572   3.260 -0.1431  0.1592 -0.3496
  638W        W 4382   2.755   3.066   0.911 -0.0645  0.0475 -0.0564
  639W        W 4383   1.252   6.382   1.844 -0.0502  0.0250 -0.2687
  640W        W 4384   7.875   5.360   1.428 -0.2613  0.2651  0.2740
  641W        W 4385   6.006   5.936   0.530  0.3028 -0.2664 -0.4829
  642W        W 4386   5.593   3.959  10.080  0.0265 -0.0181  0.2132
  643W        W 4387   5.842   9.974   8.639  0.2440 -0.2482  0.0084
  644W        W 4388   4.208   7.762  10.107 -0.0270 -0.2516 -0.0187
  645W        W 4389   4.853   2.001   3.046 -0.1657  0.2988  0.0370
  646W        W 4390   4.579   4.047  11.047 -0.0404 -0.4096 -0.3070
  647W        W 4391   6.103   0.206  10.224  0.0510  0.4869 -0.1692
  648W        W 4392   8.116   5.098   8.572  0.0765  0.1531  0.1874
  649W        W 4393   3.114   9.353  10.128 -0.3070  0.0845 -0.1338
  650W        W 4394   4.314   9.444  12.038 -0.3406  0.0043  0.1633
  651W        W 4395   3.825   9.777  10.170  0.1576 -0.1307  0.2127
  652W        W 4396   4.357   3.787   0.361 -0.0493 -0.2155 -0.0331
  653W        W 4397   4.072   9.541   2.619  0.1012  0.0664 -0.2472
  654W        W 4398   5.012   3.329   3.384 -0.3125 -0.1189  0.3351
  655W        W 4399   3.364   3.896   2.940 -0.0031  0.0823 -0.0317
  656W        W 4400   9.043   6.842   1.881  0.1849  0.0202  0.0183
  657W        W 4401   8.596   4.191   1.063 -0.1509 -0.1088  0.3114
  658W        W 4402   8.410   1.264  11.093 -0.0039 -0.3219 -0.2596
  659W        W 4403   8.565   8.153   1.412  0.0393 -0.0384 -0.0544
  660W        W 4404   1.402   7.002   7.950 -0.0624 -0.0682 -0.0313
  661W        W 4405   7.832   0.162   0.916 -0.1741  0.0080 -0.6162
  662W        W 4406   7.490   8.422   7.492 -0.0422  0.2897  0.0270
  663W        W 4407   4.790   0.501   2.959 -0.4778  0.0124 -0.2974
  664W        W 4408   5.780   6.055   3.315  0.2504 -0.2308  0.1117
  665W        W 4409   1.264   6.310   9.845  0.3030  0.1166 -0.1971
  666W        W 4410   3.268   9.789  11.824 -0.0392  0.1862 -0.0169
  667W        W 4411   5.133   3.650   8.944  0.1203  0.0307  0.2067
  668W        W 4412   0.591   3.598   9.813  0.0754 -0.1507 -0.1754
  669W        W 4413   7.328   7.327   0.683 -0.2407  0.0718  0.1499
  670W        W 4414   5.480   6.761   9.015 -0.1443 -0.0306  0.0312
  671W        W 4415   1.147   0.987  11.014  0.0374  0.1197 -0.1074
  672W        W 4416   1.099   8.881   1.870 -0.2373  0.3290 -0.0216
  673W        W 4417   3.333   1.166   9.531 -0.0093 -0.0489  0.1522
  674W        W 4418   1.934   9.149   3.501  0.0718  0.0118  0.3010
  675W        W 4419   8.206   0.908  11.400 -0.1084 -0.0757 -0.1714
  676W        W 4420   1.009   6.067  10.662 -0.4886 -0.1300 -0.1144
  677W        W 4421   4.331   7.021   3.154 -0.2672 -0.2298  0.1021
  678W        W 4422   5.862   8.754   9.545 -0.1164 -0.2331  0.4409
  679W        W 4423   2.586   9.601   3.778  0.0021  0.0211  0.2478
  680W        W 4424   0.084   1.929  11.490  0.3526 -0.1964 -0.0140
  681W        W 4425   2.236   7.694   2.573  0.1657  0.3106  0.1210
  682W        W 4426   7.866   2.942   9.281  0.1518 -0.3260 -0.3384
  683W        W 4427   9.347   9.617   0.683  0.0832 -0.0228  0.3224
  684W        W 4428   9.641   2.295   0.493  0.1623  0.2305  0.2256
  685W        W 4429   3.658   7.634   8.190  0.0716 -0.0178  0.0078
  686W        W 4430   0.921   7.119   8.166  0.2307  0.3872  0.0907
  687W        W 4431   3.418   7.773  10.989  0.3083 -0.0445 -0.1124
  688W        W 4432   3.383   7.682   0.813  0.2682  0.1524  0.1391
  689W        W 4433   5.844   1.642   0.086 -0.0557  0.1839  0.0548
  690W        W 4434   9.296   9.003   1.474 -0.5244 -0.0924 -0.2722
  691W        W 4435   4.312   6.494  11.117 -0.0038 -0.0831  0.1221
  692W        W 4436   9.510   7.295  11.054 -0.0392  0.3924  0.1933
  693W        W 4437   0.280   9.116   2.101 -0.2397  0.0864  0.1863
  694W        W 4438   7.494   8.831  10.987 -0.1194 -0.1074 -0.2747
  695W        W 4439   8.943   6.924   3.806  0.1211  0.0735 -0.1016
  696W        W 4440   2.399   4.705   1.829  0.1496  0.2404  0.0602
  697W        W 4441   4.030   3.312   9.588 -0.3854  0.0331  0.1997
  698W        W 4442   8.261   0.390  10.817  0.4581  0.0402  0.0224
  699W        W 4443   3.444   2.663   3.258 -0.0986  0.0769  0.0258
  700W        W 4444   1.292   4.162  11.695  0.3697 -0.0698 -0.2825
  701W        W 4445   0.556   3.347  11.461 -0.2577  0.0637 -0.2129
  702W        W 4446   8.724  10.120   9.614 -0.0217  0.0038  0.2658
  703W        W 4447   3.726   6.841   1.296 -0.1154 -0.3635 -0.0890
  704W        W 4448   2.906   8.929  10.509 -0.0508 -0.0813 -0.0480
  705W        W 4449   1.386   9.777  11.675  0.2502  0.0001  0.0444
  706W        W 4450   6.509   0.093   1.312  0.0847  0.3681 -0.0078
  707W        W 4451   6.149   8.764   8.393 -0.0689 -0.1343  0.1210
  708W        W 4452   3.980   0.137  11.185  0.3833 -0.3042  0.1396
  709W        W 4453   7.050   3.455   9.847 -0.1511 -0.1860 -0.2167
  710W        W 4454   3.888   8.393   2.944 -0.0247 -0.2450  0.1199
  711W        W 4455   1.455   4.551   1.754  0.1329 -0.2769 -0.0630
  712W        W 4456   8.815   4.236   2.000  0.1000 -0.2454  0.0466
  713W        W 4457   2.561   4.335   8.415 -0.1010  0.0161 -0.1109
  714W        W 4458   6.387   1.747   3.058 -0.0762 -0.0871  0.0555
  715W        W 4459   7.661   0.957   1.492  0.0221 -0.0602  0.0110
  716W        W 4460   1.084   7.490   7.862  0.0660  0.1221  0.0588
  717W        W 4461   2.362   8.598  10.528  0.4968 -0.0432 -0.3332
  718W        W 4462   8.350   3.060   1.998 -0.1490 -0.0625 -0.2279
  719W        W 4463   9.762   6.182  11.815  0.0822 -0.1131  0.0776
  720W        W 4464   1.202   8.233   9.138  0.0837 -0.1821 -0.0782
  721W        W 4465   5.135   4.565   2.269  0.1949  0.1280 -0.0513
  722W        W 4466   5.569   2.742  11.394 -0.2311 -0.0943 -0.3752
  723W        W 4467   3.243   2.269   3.523  0.0397 -0.3263 -0.2258
  724W        W 4468   0.238   5.273   0.710 -0.0105  0.0644 -0.0538
  725W        W 4469   8.387   7.173   8.989 -0.1973 -0.0549  0.1336
  726W        W 4470   8.649   8.148  11.426 -0.4742 -0.4109  0.1519
  727W        W 4471   3.179   1.788   1.173  0.3021 -0.0349 -0.3754
  728W        W 4472   7.024   6.041  11.738  0.0645  0.2441 -0.0416
  729W        W 4473   0.998   9.743  10.778  0.0010 -0.1816 -0.1471
  730W        W 4474   0.650   2.246   1.209 -0.0429  0.2210  0.1893
  731W        W 4475   3.709   1.595  10.092 -0.1028  0.2494 -0.1976
  732W        W 4476   4.082   7.942   0.753  0.0917 -0.3352  0.2892
  733W        W 4477   0.038   7.167   8.415  0.3081  0.1464  0.2182
  734W        W 4478   1.212   8.375   1.775 -0.0400  0.0635  0.1385
  735W        W 4479   0.713   4.992   0.804  0.0947  0.0021  0.4687
  736W        W 4480   6.958   1.605   7.552  0.3219 -0.1095  0.1337
  737W        W 4481   9.032   4.975   1.501 -0.1844  0.2749 -0.3530
  738W        W 4482   1.819   6.955   1.487  0.0123  0.0389 -0.2928
  739W        W 4483   9.133   9.622   2.898  0.1183 -0.0682  0.1333
  740W        W 4484   0.305   9.082   8.599 -0.0693  0.0893  0.0182
  741W        W 4485   7.691   8.709   1.372  0.0423  0.2715 -0.3312
  742W        W 4486   0.925   8.132  11.408 -0.1847 -0.0143  0.0697
  743W        W 4487   3.252  10.023   8.212  0.0427 -0.0789 -0.1432
  744W        W 4488   4.728   7.882  11.108  0.3270 -0.2839  0.3972
  745W        W 4489   2.033   3.626   9.774 -0.3379 -0.0223  0.1557
  746W        W 4490   5.061   8.120   3.374 -0.0068 -0.1510  0.1565
  747W        W 4491   0.955   4.674   2.052 -0.1045  0.0889  0.1198
  748W        W 4492   3.628   6.069   0.600  0.0111  0.0401  0.0410
  749W        W 4493   2.886   2.080   3.209 -0.0072 -0.3606 -0.3346
  750W        W 4494   2.022   0.394   0.717  0.1599  0.1691 -0.2492
  751W        W 4495   5.731   3.010   0.386 -0.1297 -0.2105  0.0547
  752W        W 4496   1.070   8.517  10.539 -0.2599 -0.1284 -0.0669
  753W        W 4497   6.793   3.794   3.144  0.0178  0.0575 -0.2353
  754W        W 4498   1.798   0.694   3.018 -0.0558  0.1962  0.0271
  755W        W 4499   7.767   9.408   7.299 -0.0989 -0.0925 -0.0104
  756W        W 4500   6.395   4.345   0.783  0.1884 -0.2656  0.3288
  757W        W 4501   6.154   2.201   1.589  0.0687 -0.0337 -0.2433
  758W        W 4502   4.329   8.223  11.787  0.4012 -0.4827 -0.0748
  759W        W 4503   5.946   6.717   2.487  0.0895 -0.1196  0.0803
  760W        W 4504   1.471   5.091   1.017 -0.1634 -0.1981 -0.0653
  761W        W 4505   9.367   3.473  12.013  0.2198  0.0381  0.2224
  762W        W 4506   2.478   9.756  10.736  0.2409 -0.3003 -0.0329
  763W        W 4507   0.852   2.088   2.125 -0.1103 -0.0724 -0.2630
  764W        W 4508   8.612   8.255  10.392  0.0763 -0.1768 -0.2927
  765W        W 4509   7.400   2.104   1.622  0.0536 -0.0959  0.1068
  766W        W 4510   6.425   9.401   3.028 -0.0225 -0.2618  0.1125
  767W        W 4511   4.125   9.849   8.312  0.2976 -0.3704  0.2442
  768W        W 4512   8.687   7.124  12.208  0.2156 -0.2148 -0.0584
  769W        W 4513   2.774   7.255   0.107  0.1510  0.0403 -0.1330
  770W        W 4514   0.726   1.993  10.326 -0.0581 -0.0899  0.2961
  771W        W 4515   8.414   8.119   7.273  0.3248 -0.2021  0.1066
  772W        W 4516   6.082   0.801  11.393  0.1674  0.2136  0.0642
  773W        W 4517   5.546   2.095   7.975  0.0749  0.1678  0.1723
  774W        W 4518   5.199   8.916   8.051  0.3685 -0.2465  0.0542
  775W        W 4519   9.855   4.380  10.369  0.1072 -0.1061 -0.0031
  776W        W 4520   7.094   8.052   0.380 -0.2322 -0.0928 -0.1992
  777W        W 4521   3.456   0.650   9.445 -0.0472 -0.0425  0.0512
  778W        W 4522   3.724   4.145   3.189  0.0941  0.4523  0.0051
  779W        W 4523   6.770   9.596   2.723  0.0375 -0.1343  0.2506
  780W        W 4524   1.853   6.995   9.419  0.1611 -0.1641 -0.0858
  781W        W 4525   2.551   9.049   3.681 -0.1219 -0.0192  0.1208
  782W        W 4526   0.576   9.496   1.014 -0.0243  0.3314  0.2426
  783W        W 4527   1.577   9.287  11.864 -0.0135  0.0373  0.2175
  784W        W 4528   8.790   3.698  10.238  0.0198  0.2559  0.0726
  785W        W 4529   9.092   2.500   0.840  0.2607 -0.0412 -0.2279
  786W        W 4530   0.899   2.207   3.834  0.0153 -0.1071 -0.3046
  787W        W 4531   7.902   5.130  11.510 -0.3700 -0.2901 -0.1716
  788W        W 4532   9.057   6.513  10.577 -0.2322  0.3549 -0.2484
  789W        W 4533   7.144   8.645   8.506  0.2742  0.1448  0.0187
  790W        W 4534   8.315   4.959  11.169  0.0408  0.1231  0.2130
  791W        W 4535   9.778   9.588  11.341  0.3270  0.2944 -0.0502
  792W        W 4536   6.533   8.504  10.747  0.1276 -0.1938 -0.0594
  793W        W 4537   5.620   5.465  12.117 -0.0582  0.0214 -0.2376
  794W        W 4538   2.052   7.537  11.233  0.1113 -0.0273 -0.1403
  795W        W 4539   1.397   5.277   3.144  0.2025 -0.1750  0.2233
  796W        W 4540   9.279   5.074   9.508 -0.1734 -0.2295 -0.1086
  797W        W 4541   6.190   8.522   1.961 -0.0246  0.1834 -0.2969
  798W        W 4542   6.981   2.267   1.885  0.0723  0.0071 -0.0581
  799W        W 4543   9.099   8.079   2.127  0.4596  0.3233 -0.1887
  800W        W 4544   1.354   2.905   4.258 -0.3862  0.0690 -0.0087
  801W        W 4545   0.323   7.646   8.268  0.0343 -0.4659 -0.0587
  802W        W 4546   4.656   4.582   0.996  0.2422 -0.1498  0.0679
  803W        W 4547   5.580   5.108   1.803 -0.1150  0.1545 -0.4423
  804W        W 4548   7.132   0.828   9.471  0.0766 -0.0905  0.0629
  805W        W 4549   5.569   2.892   2.029 -0.0835  0.3501  0.0418
  806W        W 4550   7.467   2.519   1.959  0.2590 -0.2088  0.0603
  807W        W 4551   3.220   1.270  12.054  0.0258  0.1724 -0.0672
  808W        W 4552   2.822   8.752   1.120  0.2373 -0.0108  0.0954
  809W        W 4553   0.652   6.245   0.208 -0.0454  0.1222 -0.2006
  810W        W 4554   9.033   3.935   2.273  0.0394 -0.1358  0.1341
  811W        W 4555   4.436  10.067  11.347  0.2599  0.1060  0.1964
  812W        W 4556   0.345  10.119  11.831  0.0237 -0.1386  0.2336
  813W        W 4557   1.067   5.149   0.102 -0.0730  0.1525  0.1661
  814W        W 4558   7.389   8.858   0.763 -0.4905  0.0950  0.2491
  815W        W 4559   3.149   8.899   4.199  0.0904  0.5937  0.3173
  816W        W 4560   9.538   5.919   9.440 -0.0327 -0.0701 -0.0005
  817W        W 4561   4.114   3.133   0.831 -0.1248 -0.1971 -0.0852
  818W        W 4562   2.026   2.334  10.136  0.1635 -0.1519  0.0446
  819W        W 4563   5.229   1.124   8.810 -0.2375  0.2206 -0.1628
  820W        W 4564   4.999   3.761   8.369 -0.2989 -0.1519 -0.1374
  821W        W 4565   4.835   1.416   1.544  0.2989  0.1259  0.0577
  822W        W 4566   2.272   3.375  10.759  0.1276 -0.0948  0.0448
  823W        W 4567   8.545   1.212  12.029 -0.0899  0.1894  0.4121
  824W        W 4568   7.574   7.699  10.583  0.0291 -0.2636 -0.4906
  825W        W 4569   8.917   0.849   9.917  0.0387  0.0393 -0.1188
  826W        W 4570   4.727   2.838  10.660 -0.3919  0.0141 -0.4361
  827W        W 4571   0.170   3.405   9.952  0.0069  0.1186 -0.1566
  828W        W 4572   9.543   9.398   1.112 -0.2414  0.0024  0.0115
  829W        W 4573   7.529   0.531   9.652  0.1271  0.0744 -0.3039
  830W        W 4574   5.643   0.350   8.843 -0.2418 -0.2769 -0.1025
  831W        W 4575   8.525   5.635  11.668 -0.0967 -0.0161  0.1258
  832W        W 4576   4.687   6.428   1.328  0.1373 -0.2265 -0.0772
  833W        W 4577   6.897   9.127   7.536  0.1398  0.0885 -0.2953
  834W        W 4578   8.717   9.663  10.436  0.0031 -0.0390 -0.2739
  835W        W 4579   9.551   3.653   1.398 -0.1458 -0.0819  0.1159
  836W        W 4580   1.411   3.137   0.904  0.1883 -0.1387 -0.0738
  837W        W 4581   4.282   4.373   2.085  0.0264 -0.4929  0.0165
  838W        W 4582   9.297   4.024   1.608 -0.0583 -0.0296  0.0233
  839W        W 4583   4.353   8.192   3.946  0.1034  0.0632 -0.1088
  840W        W 4584   2.655   4.528  11.076 -0.0055  0.1075 -0.1231
  841W        W 4585   6.959   3.344   7.866  0.1803  0.1723  0.0214
  842W        W 4586   1.339   7.369   8.303 -0.2315  0.2555  0.0163
  843W        W 4587   0.684   4.625   8.239  0.0889  0.0421 -0.2763
  844W        W 4588   1.523   3.759   3.272  0.1487  0.0276  0.2591
  845W        W 4589   1.517   5.591   8.320  0.3594 -0.2357 -0.0109
  846W        W 4590   6.214   0.640   9.929  0.3496  0.2498 -0.0321
  847W        W 4591   7.496   8.234   2.329  0.1049  0.1179 -0.1358
  848W        W 4592   1.320   5.326  11.374 -0.1708 -0.0365  0.2793
  849W        W 4593   6.756   7.230   0.770 -0.5758  0.1221  0.0781
  850W        W 4594   6.999   9.000   9.432  0.2117  0.0781  0.1077
  851W        W 4595   4.400   5.123   9.694  0.1562 -0.1196  0.1834
  852W        W 4596   4.487   1.098   0.441 -0.0096 -0.0147  0.0363
  853W        W 4597   7.331   2.801   7.318 -0.0188 -0.1489 -0.0731
  854W        W 4598   0.124   2.499   3.724  0.0823 -0.2757 -0.1435
  855W        W 4599   3.916   2.264   3.274 -0.3725  0.0549  0.0481
  856W        W 4600   7.073   4.150   1.513 -0.0707 -0.3788  0.1040
  857W        W 4601   3.129   4.369   0.313 -0.0918 -0.0199  0.0639
  858W        W 4602   2.546   3.937  10.567  0.0729 -0.2358  0.0559
  859W        W 4603   2.222   0.863   9.990  0.1819 -0.4446  0.0758
  860W        W 4604   6.186   7.300   8.567  0.2631 -0.2473  0.5390
  861W        W 4605   4.904   4.101   8.717  0.1602  0.0883 -0.3589
  862W        W 4606   6.563   3.928   9.353 -0.2340  0.0738 -0.0419
  863W        W 4607   2.581   3.338   3.462  0.0276 -0.0011 -0.0078
  864W        W 4608   8.581   6.259   7.363 -0.2295  0.1421  0.0792
  865W        W 4609   6.288   5.225   9.191  0.2586 -0.0874  0.1993
  866W        W 4610   3.866   6.330   8.685 -0.1258 -0.1453 -0.1161
  867W        W 4611   3.082   4.605   3.474  0.0387 -0.1305 -0.1941
  868W        W 4612   2.867   9.688  12.217 -0.0052 -0.1435  0.5130
  869W        W 4613   7.241   3.543   4.132  0.0240  0.2365 -0.2450
  870W        W 4614   2.396   6.392   0.337  0.0519  0.1312  0.1643
  871W        W 4615   8.316   3.613   4.019  0.4161  0.1697 -0.2434
  872W        W 4616   9.730   0.907   9.297  0.1927 -0.1797 -0.1010
  873W        W 4617   4.068   5.228  11.166  0.2111 -0.1359 -0.0376
  874W        W 4618   7.368   6.868   1.920 -0.2948 -0.2651 -0.1253
  875W        W 4619   4.840   5.443  11.238  0.0587  0.0345 -0.2761
  876W        W 4620   6.415   5.942  12.126  0.1836  0.0830 -0.0468
  877W        W 4621   9.960   8.750  10.077 -0.0052  0.0398  0.0058
  878W        W 4622   7.342   1.943  12.181  0.2017 -0.0937  0.2422
  879W        W 4623   9.531   1.752   1.108  0.1940 -0.3921 -0.0509
  880W        W 4624   7.990   8.947  10.268 -0.0750  0.3447  0.0683
  881W        W 4625   5.360   5.041  10.573  0.3578 -0.3122 -0.0036
  882W        W 4626   9.751   8.201   9.044  0.3414  0.0984 -0.2251
  883W        W 4627   8.338   0.859   0.221 -0.3042 -0.1873 -0.1530
  884W        W 4628   4.511   8.195   2.061  0.0103 -0.2637  0.2089
  885W        W 4629   2.643   1.206  10.311  0.1480  0.0661 -0.1852
  886W        W 4630   3.657   4.054   1.118 -0.0971 -0.2131 -0.0570
  887W        W 4631   8.046   2.032   9.887 -0.1790 -0.4044  0.2584
  888W        W 4632   4.962   7.624   2.259 -0.3140  0.0366 -0.4135
  889W        W 4633   4.167   9.010   1.094 -0.1218 -0.0342 -0.2735
  890W        W 4634   2.577   5.436  10.722  0.0709 -0.2056 -0.4416
  891W        W 4635   7.315   3.487  11.217  0.2379  0.0849 -0.0070
  892W        W 4636   9.694   9.727   9.097  0.0698 -0.0154  0.1792
  893W        W 4637   2.051   0.938   9.562 -0.2031  0.0229  0.1711
  894W        W 4638   3.185   6.891   2.305  0.4577  0.0414  0.3678
  895W        W 4639   4.747   5.829   8.599  0.0459 -0.0438 -0.1994
  896W        W 4640   4.613   1.557  11.017 -0.1266 -0.0041  0.4452
  897W        W 4641   9.814   7.531   9.600  0.0522  0.1107  0.0547
  898W        W 4642   8.871   4.558   0.307  0.0882 -0.1099  0.3804
  899W        W 4643   9.526   8.936   9.615 -0.1849  0.0088 -0.3400
  900W        W 4644   0.212   6.475   0.626  0.0162 -0.1067  0.1007
  901W        W 4645   6.413   0.532   2.133  0.2415 -0.0044  0.1527
  902W        W 4646   0.008   9.776  10.406  0.2129 -0.0945 -0.0150
  903W        W 4647   4.578   1.721  11.924  0.0626 -0.0681  0.2719
  904W        W 4648   0.465   8.275   2.389  0.3162  0.0033 -0.1476
  905W        W 4649   7.941   9.217   2.102  0.0180  0.0951  0.0073
  906W        W 4650   8.503   1.629   1.520  0.0627  0.0495  0.1291
  907W        W 4651   7.990   6.673   8.174 -0.2987 -0.0499  0.3432
  908W        W 4652   0.840   3.776  10.191  0.1862  0.2641  0.0189
  909W        W 4653   4.402   3.252   0.443 -0.0794 -0.2395 -0.3915
  910W        W 4654   1.288   1.672   2.985  0.3028  0.1304  0.1005
  911W        W 4655   6.114   4.015   7.783  0.1179  0.3300 -0.0804
  912W        W 4656   0.875   3.654   3.168 -0.1450 -0.1988 -0.0536
  913W        W 4657   9.525   3.741   7.633  0.0926  0.0511 -0.1968
  914W        W 4658   8.936   7.439   0.332  0.2793  0.0172 -0.1567
  915W        W 4659   4.632   8.621  11.436 -0.2944 -0.2080 -0.1849
  916W        W 4660   2.426   7.596   8.062 -0.1334 -0.1215 -0.1960
  917W        W 4661   7.844   7.370  11.070  0.0820  0.0516  0.4568
  918W        W 4662   2.683   9.548   9.791 -0.2473  0.1515  0.0977
  919W        W 4663   5.069   2.282   1.814  0.0341 -0.3202  0.2090
  920W        W 4664  10.008   7.925   0.136  0.0821  0.0090 -0.2922
  921W        W 4665   5.131   6.217   1.241  0.4432  0.1613 -0.1046
  922W        W 4666  10.023   5.359   1.800 -0.2260 -0.2797 -0.1016
  923W        W 4667   9.337   5.836   4.266  0.0491  0.1178 -0.0023
  924W        W 4668   5.418   8.039   9.889 -0.3020 -0.0357 -0.0414
  925W        W 4669   9.077   1.043  10.368 -0.1782  0.3320 -0.2352
  926W        W 4670   1.110   3.153   2.717  0.1627 -0.3395 -0.1406
  927W        W 4671   5.749  10.048   1.377  0.1430 -0.0415 -0.0174
  928W        W 4672   0.355   7.344   7.457  0.3063 -0.0766  0.2579
  929W        W 4673   0.245   8.559   7.940  0.1917 -0.0557  0.0228
  930W        W 4674   2.869   9.125   9.721  0.1580  0.2717 -0.2724
  931W        W 4675   0.096   1.347   2.319  0.0441  0.1946 -0.2399
  932W        W 4676   2.454   9.746   1.349 -0.0686  0.2490 -0.1164
  933W        W 4677   4.348   8.485   8.143  0.0197 -0.0343  0.0961
  934W        W 4678   4.819   7.485   1.248  0.1957  0.3552  0.2899
  935W        W 4679   0.031   0.442   0.937  0.0881 -0.1170 -0.1130
  936W        W 4680   2.255   4.793   0.134 -0.2942 -0.0340 -0.0657
  937W        W 4681   6.545   4.603   2.703  0.1146  0.1130  0.1225
  938W        W 4682   6.048   7.679   8.161 -0.1570  0.1461  0.0340
  939W        W 4683   2.048   2.887   1.252  0.1780 -0.1421  0.1395
  940W        W 4684   5.532   9.670   9.352  0.2361  0.1330 -0.0227
  941W        W 4685   2.822   5.959   8.033  0.0713 -0.0865 -0.1221
  942W        W 4686   5.385   4.998   3.391  0.0010  0.2327  0.0622
  943W        W 4687   7.452   2.868  11.351  0.1157 -0.0470  0.1263
  944W        W 4688   2.785   6.386   0.696  0.2662 -0.1088  0.3228
  945W        W 4689   9.411   8.983   8.024  0.0782  0.1153  0.1237
  946W        W 4690   2.328   1.662   1.024  0.0051  0.0223  0.0384
  947W        W 4691   5.121   4.593  10.755  0.1376  0.0684  0.1343
  948W        W 4692   1.034   7.937   0.969 -0.1159  0.2662  0.1032
  949W        W 4693   5.247   8.390   0.320 -0.2271 -0.0371  0.0375
  950W        W 4694   2.318   4.004   9.629  0.0271  0.2674  0.0348
  951W        W 4695   6.880   1.167   8.423 -0.1739  0.0063 -0.0676
  952W        W 4696   4.792   0.290   8.467 -0.1616  0.1316 -0.0113
  953W        W 4697   3.194   3.601   0.577  0.4512  0.2787  0.0553
  954W        W 4698   0.332   7.218   8.034 -0.0606  0.1293  0.1729
  955W        W 4699   4.701   0.486   8.929 -0.1199  0.3387 -0.2039
  956W        W 4700   9.465   6.987   2.225 -0.0395  0.2505 -0.4483
  957W        W 4701   8.027   9.669  11.968 -0.0282  0.0545 -0.1835
  958W        W 4702   2.145   0.120   2.359  0.1738 -0.1229 -0.0916
  959W        W 4703   8.869   2.195  11.850  0.0164 -0.2943 -0.1436
  960W        W 4704   2.254   6.323  11.620 -0.1906  0.1805 -0.3627
  961W        W 4705   5.641   2.372   3.293 -0.1158  0.1060 -0.0029
  962W        W 4706   4.918   8.387  11.007  0.1070  0.0059 -0.2411
  963W        W 4707   3.494   3.593   2.057  0.2499 -0.0238 -0.0411
  964W        W 4708   4.089   7.394   8.633 -0.0805 -0.0815  0.1394
  965W        W 4709   1.456   0.241   0.751  0.1066  0.5190 -0.0440
  966W        W 4710   7.123   2.296  11.239 -0.0148 -0.0332 -0.0649
  967W        W 4711   9.602   5.951  10.646  0.0885 -0.4019 -0.3174
  968W        W 4712   9.079   8.541   9.704 -0.1274  0.1091  0.1253
  969W        W 4713  10.146   6.578   9.859 -0.1061 -0.3357  0.0448
  970W        W 4714   8.348   4.697   9.784 -0.1366 -0.0252  0.1040
  971W        W 4715   9.053   3.035   3.991 -0.2279  0.1894 -0.2664
  972W        W 4716   6.194   9.069   1.103  0.0881 -0.3748  0.0288
  973W        W 4717   2.540   3.883  11.093 -0.1112  0.0437 -0.0157
  974W        W 4718   0.380   6.674   1.981 -0.0939 -0.0787 -0.1381
  975W        W 4719   0.004   4.986   2.146  0.1548 -0.0501  0.3116
  976W        W 4720   6.709   9.828   1.363  0.1043 -0.0773 -0.1012
  977W        W 4721   4.855   6.695  11.915  0.0649  0.0394 -0.0183
  978W        W 4722   2.692   9.146   8.357  0.0794  0.0362 -0.0867
  979W        W 4723   5.009   1.398  10.345  0.1939  0.0496  0.0211
  980W        W 4724   9.519   7.810  10.013 -0.3293 -0.0185 -0.1161
  981W        W 4725   5.562   1.572   1.427 -0.1052  0.1941 -0.3460
  982W        W 4726   3.831   6.837   2.228 -0.2757  0.2299  0.2900
  983W        W 4727   7.756   4.303  12.046 -0.2168  0.0550 -0.1150
  984W        W 4728   0.134   4.799   9.389  0.0662 -0.2443 -0.0670
  985W        W 4729   3.194   1.453   7.848  0.0471  0.0991  0.2057
  986W        W 4730   5.735   2.617  10.038 -0.2751 -0.0670  0.2671
  987W        W 4731   8.885   7.428   3.058 -0.1075 -0.0663 -0.1312
  988W        W 4732   5.177   1.384  10.937  0.0977 -0.0176 -0.3998
  989W        W 4733   9.460   3.366  10.849  0.0606  0.2363 -0.0587
  990W        W 4734   5.947   3.187   3.730 -0.3314 -0.0521  0.1535
  991W        W 4735   5.931   6.355   0.246 -0.1808  0.0088 -0.2474
  992W        W 4736   9.947   7.703   8.200 -0.1670 -0.0375 -0.4350
  993W        W 4737   8.223   3.526   3.453  0.2979  0.1582 -0.0782
  994W        W 4738   5.717   3.502  11.657 -0.2553 -0.0663  0.3866
  995W        W 4739   9.513   3.452   8.484 -0.0108 -0.2937 -0.2129
  996W        W 4740   9.352   3.552   3.209  0.0084 -0.0266  0.0465
  997W        W 4741   0.612   3.180  10.770  0.0837  0.4313  0.0178
  998W        W 4742   5.303   0.300   8.527 -0.0215 -0.1029  0.0398
  999W        W 4743   6.921   1.643  10.688  0.0493  0.1718 -0.0512
 1000W        W 4744   5.205   9.190   0.649 -0.0872 -0.2229 -0.1431
 1001W        W 4745   2.044   2.890  12.010 -0.3020  0.0178  0.1723
 1002W        W 4746   2.594   5.921  11.481  0.0868 -0.3025  0.0050
 1003W        W 4747   1.719   9.770  12.129 -0.0461  0.0773 -0.1997
 1004W        W 4748   0.550   1.382   4.017 -0.0666  0.1000  0.1009
 1005W        W 4749   6.360   8.472   7.912 -0.1106  0.0634  0.3381
 1006W        W 4750   3.503   0.636  10.291  0.1585 -0.0855  0.0761
 1007W        W 4751   3.718   9.747   2.321  0.3364  0.1722  0.0040
 1008W        W 4752   2.495   2.282   9.599  0.1421 -0.3084 -0.0412
 1009W        W 4753   8.646   5.242   4.134 -0.1889 -0.1009  0.0421
 1010W        W 4754   6.634   9.883   1.890 -0.1902 -0.2856 -0.4361
 1011W        W 4755   2.454   7.868   2.958  0.2046  0.2080  0.0194
 1012W        W 4756   4.534   6.117   2.882 -0.0923  0.1454  0.0263
 1013W        W 4757   2.879   5.154   9.298 -0.0340 -0.2553  0.1717
 1014W        W 4758   1.408   9.893   0.940 -0.0821 -0.0027 -0.0617
 1015W        W 4759   7.730   6.334   9.153  0.1136  0.1452 -0.3230
 1016W        W 4760   2.372   7.031  12.035 -0.1877  0.0333  0.3157
 1017W        W 4761   3.107   6.153  10.867 -0.0340 -0.0994 -0.1333
 1018W        W 4762   4.380   0.545   8.394  0.1775 -0.3792  0.1567
 1019W        W 4763   3.074   7.579  11.497 -0.0792  0.3306  0.0483
 1020W        W 4764   8.414   9.211  10.542  0.1984 -0.0243 -0.0677
 1021W        W 4765   1.073   4.738   0.994  0.0187  0.0292  0.2249
 1022W        W 4766   7.021   5.005   1.866 -0.0041 -0.1107 -0.0163
 1023W        W 4767   3.188   4.313   7.871 -0.0261  0.0537 -0.0430
 1024W        W 4768   1.702   8.489   1.690  0.0703 -0.1646  0.0769
 1025W        W 4769   2.762   4.568   1.449 -0.0040 -0.1723 -0.0345
 1026W        W 4770   1.222   2.501   3.452 -0.1830 -0.0196 -0.0422
 1027W        W 4771   9.030   5.813   8.249 -0.1402  0.1368 -0.2528
 1028W        W 4772   4.432   6.148   1.829 -0.1009 -0.1323 -0.2649
 1029W        W 4773   0.455   2.019   8.309  0.0349  0.0620 -0.0497
 1030W        W 4774  10.123   6.195   8.368  0.0069 -0.0836 -0.1148
 1031W        W 4775   2.334   9.186   9.706 -0.3853  0.3635 -0.1429
 1032W        W 4776   1.749   3.390  10.651 -0.2360 -0.1443 -0.2257
 1033W        W 4777   7.816   4.226   9.211  0.1933 -0.5894 -0.1384
 1034W        W 4778   8.576   6.395  10.715 -0.1566 -0.0772 -0.1501
 1035W        W 4779   4.936   2.899   1.288 -0.1154 -0.1676  0.0293
 1036W        W 4780   3.242   0.015   2.057 -0.2227 -0.0714 -0.0075
 1037W        W 4781   7.791   3.874   9.628  0.2457 -0.2994 -0.2282
 1038W        W 4782   1.110   1.803   8.894 -0.0544 -0.1963  0.0918
 1039W        W 4783   4.214   2.099  12.147  0.1068 -0.1795 -0.1081
 1040W        W 4784   5.719   6.856   7.491 -0.1526 -0.0460  0.5207
 1041W        W 4785   7.890   0.315  10.022 -0.2721 -0.1678  0.2383
 1042W        W 4786   4.459   1.059   1.351 -0.1436 -0.1438  0.0292
 1043W        W 4787  10.064   0.252   2.449  0.2337 -0.1241  0.2876
 1044W        W 4788   9.276   4.712   9.946  0.0955  0.0346 -0.1562
 1045W        W 4789   9.356   2.219   9.405 -0.0341 -0.0970  0.3365
 1046W        W 4790   5.507   3.207   9.574 -0.1855 -0.0734 -0.2032
 1047W        W 4791   8.312   6.345   3.256  0.1447  0.0954 -0.0534
 1048W        W 4792   5.229   9.697   0.636  0.4951  0.0944 -0.0593
 1049W        W 4793   0.369   7.349  10.793  0.1303 -0.0724 -0.3846
 1050W        W 4794   2.450   6.956   1.749 -0.0167 -0.1276 -0.0526
 1051W        W 4795   4.985   2.113   9.984  0.0621 -0.4167  0.1616
 1052W        W 4796   4.176   7.745  11.915  0.0264  0.1707 -0.0830
 1053W        W 4797   9.398   9.545   1.626  0.3522 -0.0838  0.0817
 1054W        W 4798   8.631   8.090   1.959 -0.1815 -0.1158  0.1551
 1055W        W 4799   9.230   4.840   8.525  0.1341 -0.0569 -0.1474
 1056W        W 4800   6.435   5.546   1.119  0.3508  0.0624  0.0402
 1057W        W 4801   9.153   1.390   3.967  0.0714 -0.1835 -0.3076
 1058W        W 4802   8.220   2.264   8.642 -0.1092 -0.1516  0.2606
 1059W        W 4803   7.301   6.449   7.538  0.1162  0.1747 -0.0630
 1060W        W 4804   1.333   5.976  10.225 -0.1440 -0.2042 -0.0974
 1061W        W 4805   4.440   2.136   2.572  0.0461  0.0477 -0.0495
 1062W        W 4806   0.651   3.030   2.383  0.1952 -0.1072  0.1360
 1063W        W 4807   2.040   0.947   8.690  0.2461 -0.3021 -0.3136
 1064W        W 4808   0.938   7.575   2.905 -0.0860  0.0359  0.0739
 1065W        W 4809   0.258   9.363   7.083  0.0139 -0.2239 -0.3688
 1066W        W 4810   9.090   6.440   1.540  0.1692  0.0454  0.1767
 1067W        W 4811   3.580   8.354   1.277 -0.4699 -0.3160 -0.0551
 1068W        W 4812   4.503   4.414   8.657  0.0322 -0.0322  0.0076
 1069W        W 4813   1.727   5.661   0.166 -0.1857 -0.0523 -0.1132
 1070W        W 4814   0.072   8.127   8.226  0.2797 -0.1320  0.2414
 1071W        W 4815   2.115   3.605   8.646 -0.2807 -0.2292 -0.0306
 1072W        W 4816   1.364   1.431   9.219 -0.2238 -0.0305  0.2522
 1073W        W 4817   7.060   3.125  12.003 -0.1960 -0.0799  0.2265
 1074W        W 4818   0.899   2.914   0.759 -0.1177  0.3044  0.0205
 1075W        W 4819   9.525   8.147   1.537 -0.3518 -0.0839  0.4207
 1076W        W 4820   3.362   5.728  10.984 -0.2256 -0.2908  0.3660
 1077W        W 4821   5.989   3.581   1.691  0.0242  0.2521 -0.1902
 1078W        W 4822   7.770   5.140   7.183  0.0678  0.0536 -0.1754
 1079W        W 4823   1.424   2.483  11.768  0.0541 -0.1696 -0.0575
 1080W        W 4824   3.013   8.873   0.663 -0.2360 -0.1279 -0.1940
 1081W        W 4825   1.297   8.777   9.478 -0.0606 -0.2571  0.2386
 1082W        W 4826   3.955   3.061   0.168  0.0729  0.1484  0.1335
 1083W        W 4827   4.973   0.779   9.531  0.0170 -0.3004 -0.1470
 1084W        W 4828   0.480   1.132  11.102  0.0345  0.2595 -0.0762
 1085W        W 4829   8.923   6.473  11.069  0.3870 -0.2569 -0.0317
 1086W        W 4830   7.593   4.787   1.076  0.0077  0.1668 -0.1988
 1087W        W 4831   6.910   8.323   0.931  0.0062  0.1328  0.1992
 1088W        W 4832   8.847   4.358   9.438 -0.0258 -0.2854  0.4494
 1089W        W 4833   4.471   0.764   0.825 -0.2475 -0.0333  0.0157
 1090W        W 4834   6.559   0.991  11.607  0.2157  0.0793 -0.2898
 1091W        W 4835   0.988   3.131   4.116  0.0326 -0.3790 -0.1603
 1092W        W 4836   8.667   0.827  11.552 -0.2315 -0.2216 -0.1258
 1093W        W 4837   4.622   9.101  10.291  0.1416  0.0239 -0.1672
 1094W        W 4838   0.650   4.284  10.107 -0.1175 -0.0857  0.0250
 1095W        W 4839   3.200   7.553   9.201 -0.0751  0.0852 -0.2936
 1096W        W 4840   9.354   0.580  10.097 -0.0536  0.2321 -0.0683
 1097W        W 4841   9.276   0.921   0.680 -0.1192  0.1308 -0.1054
 1098W        W 4842   9.180  10.126   7.390 -0.0178  0.1761  0.4970
 1099W        W 4843   5.860   2.805   8.526  0.1747 -0.1611  0.1704
 1100W        W 4844   8.691   5.839   8.902  0.2955 -0.1591 -0.0421
 1101W        W 4845   3.632   4.006   1.645 -0.2304  0.2610 -0.3566
 1102W        W 4846   8.545   8.154   0.509 -0.0809 -0.1995 -0.1953
 1103W        W 4847   4.594   6.964   9.036  0.0029  0.2478  0.1655
 1104W        W 4848   7.404   5.595  12.055  0.2232  0.2252  0.0920
 1105W        W 4849   1.958   4.275  11.768  0.3328 -0.2014  0.1569
 1106W        W 4850   1.135   9.246   2.871 -0.1791 -0.2266  0.1094
 1107W        W 4851   3.196   8.816   7.123  0.2197 -0.0377 -0.0321
 1108W        W 4852   0.924  10.058   9.387  0.2481 -0.1602  0.2452
 1109W        W 4853   0.791   7.423   3.494  0.3299  0.4541 -0.1910
 1110W        W 4854   8.585   3.683   7.687  0.2310  0.3361  0.2991
 1111W        W 4855   7.598   2.922   3.209 -0.0784  0.3323  0.0048
 1112W        W 4856   8.619   5.649   0.841 -0.4745  0.0797  0.1316
 1113W        W 4857   4.518   4.288   9.496  0.0268  0.3110 -0.2591
 1114W        W 4858   1.846   1.225   7.917  0.0999  0.0039 -0.1045
 1115W        W 4859   7.185   6.745   3.193  0.1616 -0.0616 -0.1820
 1116W        W 4860   9.500   2.653   9.004 -0.1003  0.5814 -0.2389
 1117W        W 4861   2.378   7.189   0.762  0.1534  0.0561 -0.3272
 1118W        W 4862   3.481   5.592   2.614 -0.0785 -0.0979  0.0005
 1119W        W 4863   3.088   7.446   2.212 -0.1383 -0.0045 -0.1322
 1120W        W 4864   6.074   8.542  11.013 -0.1983  0.4098  0.2079
 1121W        W 4865   8.854   0.812  12.099  0.1983  0.0573 -0.2507
 1122W        W 4866   7.086   1.778   1.856  0.0978  0.0174  0.0842
 1123W        W 4867   6.636   0.380  11.089 -0.0415 -0.2003 -0.3469
 1124W        W 4868   1.584   9.443   2.866 -0.1015 -0.1437 -0.2317
 1125W        W 4869   8.498   6.429   1.294  0.2888  0.1941  0.1073
 1126W        W 4870   3.977   7.457  11.580  0.0379  0.0173 -0.2973
 1127W        W 4871   3.514   3.534   8.774 -0.1582 -0.2433 -0.2542
 1128W        W 4872   7.215   7.160   2.993  0.5453 -0.2551 -0.3375
 1129W        W 4873   5.448   5.424   0.995 -0.0267  0.1378  0.3053
 1130W        W 4874   1.940   7.292   0.011  0.2305  0.1880 -0.0560
 1131W        W 4875   5.838   5.481  11.515  0.1832  0.1121 -0.1007
 1132W        W 4876   7.969   3.914   3.757 -0.1013 -0.2641  0.2324
 1133W        W 4877   0.693   6.254   1.838 -0.2212 -0.1825  0.0022
 1134W        W 4878   0.334   1.758  10.056  0.2745  0.0305 -0.1266
 1135W        W 4879   7.881   9.673   3.131 -0.2152 -0.1748  0.0623
 1136W        W 4880   4.739   9.158  12.092 -0.1324  0.0505  0.1873
 1137W        W 4881   3.455   3.081   1.104  0.5395 -0.0745 -0.0013
 1138W        W 4882   4.263   1.641  11.375 -0.0531  0.2582 -0.1862
 1139W        W 4883   5.683   4.968   7.876 -0.2291 -0.0450  0.2368
 1140W        W 4884   4.141   0.742   7.397 -0.1873  0.1285 -0.0965
 1141W        W 4885   3.184   2.697   1.686  0.1517  0.0110 -0.1784
 1142W        W 4886   7.604   0.242   3.330 -0.1467  0.3894  0.1098
 1143W        W 4887   7.633   0.948  10.623  0.1003  0.2065  0.1383
 1144W        W 4888   9.779   4.525   2.739  0.1062  0.4405 -0.0855
 1145W        W 4889   4.265   2.084   9.467  0.3761 -0.2029  0.2029
 1146W        W 4890   7.082   6.023   0.967 -0.2828 -0.0088 -0.3356
 1147W        W 4891   0.823   6.729  10.253  0.2530  0.1868 -0.2144
 1148W        W 4892   6.170   3.278   4.167 -0.1965 -0.1083  0.2499
 1149W        W 4893   3.835   7.840   7.344 -0.3773 -0.2909 -0.0373
 1150W        W 4894   6.903   5.339  10.262  0.2657 -0.2936  0.2556
 1151W        W 4895   2.346   2.690   1.673 -0.0688  0.0099  0.1954
 1152W        W 4896   1.213   6.659   8.383 -0.1038 -0.1704  0.0802
 1153W        W 4897   7.450   4.602   3.146  0.2686  0.1445 -0.0559
 1154W        W 4898   3.817   7.097   0.167  0.0954  0.0068 -0.2472
 1155W        W 4899   9.343   0.867   9.051  0.2530  0.0391  0.0145
 1156W        W 4900   2.312   5.864   2.966  0.0973  0.1155  0.3408
 1157W        W 4901   4.942   8.946  11.690  0.1428  0.1329  0.1695
 1158W        W 4902   9.218   4.806   0.940 -0.0495 -0.0860 -0.0193
 1159W        W 4903   3.805   1.563   8.946 -0.1302  0.2879  0.1633
 1160W        W 4904   2.536   7.583   1.138  0.1895 -0.1218 -0.0615
 1161W        W 4905   2.273  10.117  11.692 -0.2809  0.0373 -0.0623
 1162W        W 4906   1.672   5.334   0.570  0.0448 -0.0499  0.6637
 1163W        W 4907   7.266   1.646   9.918 -0.0917 -0.0080  0.2357
 1164W        W 4908   5.723   8.431   9.123  0.1473 -0.1150  0.0509
 1165W        W 4909   8.135   9.005  11.761 -0.1079  0.0849 -0.0467
 1166W        W 4910   5.037   8.797  10.073  0.4436  0.1618  0.1877
 1167W        W 4911   8.470   0.677   7.605  0.1492 -0.0868  0.0289
 1168W        W 4912   8.159   9.619   9.249  0.0183  0.1634 -0.0470
 1169W        W 4913   8.869   9.578   2.042 -0.0046  0.0788 -0.2780
 1170W        W 4914   4.101   2.609   1.841  0.4626 -0.0854 -0.0704
 1171W        W 4915   4.834   3.201   9.022  0.2656  0.2684 -0.0603
 1172W        W 4916   0.265   8.356   0.739  0.0790 -0.0008  0.1302
 1173W        W 4917   1.640   5.829  10.576  0.0878 -0.3482  0.0819
 1174W        W 4918   7.673   8.211  10.322 -0.1665 -0.0112 -0.1200
 1175W        W 4919   9.098   8.132  10.487  0.1860 -0.1052 -0.2610
 1176W        W 4920   6.351   1.098   8.496  0.0942  0.1000  0.1707
 1177W        W 4921   3.054   8.924   1.668  0.0461 -0.0891 -0.0805
 1178W        W 4922   3.905   2.037   9.070 -0.1911 -0.1246  0.0199
 1179W        W 4923   0.325   8.707   2.521 -0.1162 -0.1751 -0.0631
 1180W        W 4924   1.938   8.673   2.859  0.1121 -0.1053 -0.1554
 1181W        W 4925   9.470   8.972   2.025 -0.1803  0.0234  0.1292
 1182W        W 4926   0.572   7.054   8.542 -0.3042  0.1953  0.1266
 1183W        W 4927   6.189   9.741  11.290  0.3021  0.0419 -0.0678
 1184W        W 4928   8.370   4.627   0.648 -0.1116 -0.1128  0.2368
 1185W        W 4929   0.590   7.094   9.974  0.0764 -0.3530 -0.0704
 1186W        W 4930   9.877   6.267   0.051  0.2312 -0.0045  0.0218
 1187W        W 4931   2.605   8.242   9.372  0.0153 -0.2610  0.0709
 1188W        W 4932   7.882   5.432   2.316 -0.2284  0.2362 -0.1967
 1189W        W 4933   4.623   1.427   2.953  0.0422 -0.0441 -0.0504
 1190W        W 4934   5.261   0.799   0.961  0.0158 -0.1947  0.1064
 1191W        W 4935   0.544   2.813  11.190 -0.1307  0.0213  0.0915
 1192W        W 4936   0.558   5.623  11.337  0.0609 -0.2805  0.5144
 1193W        W 4937   8.068   3.394   7.195 -0.1862  0.2335  0.4256
 1194W        W 4938   3.007   5.243   0.205 -0.1109  0.3323  0.1547
 1195W        W 4939   5.959   3.020   9.759  0.3691 -0.1428 -0.1379
 1196W        W 4940   9.301   1.344  10.830 -0.0115 -0.3751 -0.4137
 1197W        W 4941   9.219   4.517  12.100  0.1865  0.2544 -0.0937
 1198W        W 4942   2.037   3.696   9.151 -0.1602  0.0078  0.2383
 1199W        W 4943   5.250   5.742   8.515 -0.0499  0.3870 -0.1533
 1200W        W 4944   4.062   8.747  11.460  0.1846 -0.3990  0.0895
 1201W        W 4945   4.629   9.035   2.929  0.1372 -0.0236 -0.3295
 1202W        W 4946   7.566   8.325   9.696  0.1427  0.1584  0.0196
 1203W        W 4947   6.758   1.569  11.563  0.3448  0.0119 -0.3377
 1204W        W 4948   8.563   4.560   8.084  0.3377  0.0024 -0.2191
 1205W        W 4949   3.305   0.691   3.081 -0.2755  0.0016 -0.1258
 1206W        W 4950   0.927   6.031   9.635 -0.2477  0.3642  0.1263
 1207W        W 4951   8.342   7.166   1.003 -0.0861  0.1916 -0.1948
 1208W        W 4952   0.311   4.420   8.750  0.1806  0.0044  0.0612
 1209W        W 4953   8.448   0.297   0.671  0.3829 -0.1391  0.0622
 1210W        W 4954   4.473   2.436   8.330  0.0436 -0.1512 -0.2795
 1211W        W 4955   1.036   1.372   4.044  0.0687 -0.3795 -0.0391
 1212W        W 4956   3.372   3.374  10.903 -0.1138 -0.1507 -0.2424
 1213W        W 4957   4.653   6.968   2.751 -0.1456 -0.1629 -0.0167
 1214W        W 4958   6.808   4.589   2.303 -0.3127  0.1499 -0.0724
 1215W        W 4959   7.790   2.429   9.999  0.1658  0.2774  0.1785
 1216W        W 4960   2.984   9.484   2.938  0.0659 -0.0291  0.0175
 1217W        W 4961   9.963   2.576   7.889  0.1211  0.2788 -0.0361
 1218W        W 4962   4.839   8.270   9.162 -0.2093 -0.1633 -0.0031
 1219W        W 4963   7.189   4.288   2.413 -0.3764  0.1591 -0.4031
 1220W        W 4964   3.726   0.517   9.843 -0.0174 -0.0661 -0.2114
 1221W        W 4965   8.195   7.238  10.060  0.0704 -0.2706  0.1656
 1222W        W 4966   9.866   2.062   1.474  0.4184 -0.3482  0.1938
 1223W        W 4967   8.260   8.152  11.767  0.3422 -0.3096  0.0934
 1224W        W 4968   8.106   6.505   2.253 -0.0732  0.0296 -0.0210
 1225W        W 4969   3.606   7.264   7.870  0.1516 -0.0109 -0.0755
 1226W        W 4970   6.476   2.493  10.509  0.2414 -0.1876 -0.0374
 1227W        W 4971   4.240   6.304   2.560  0.0002  0.1095 -0.0943
 1228W        W 4972   1.942   8.771  11.446 -0.1945  0.0442 -0.4067
 1229W        W 4973   2.235   2.573   3.248  0.1183  0.1391 -0.3799
 1230W        W 4974   9.034   6.389   7.504  0.4485 -0.1520 -0.2546
 1231W        W 4975   3.016   6.999  10.405 -0.0104 -0.0571  0.0368
 1232W        W 4976   7.054   3.160   9.036 -0.1158 -0.1776 -0.0183
 1233W        W 4977   7.695   2.839  11.814 -0.0159  0.0484  0.1213
 1234W        W 4978   7.493   7.981   0.143 -0.0465  0.2290  0.1197
 1235W        W 4979   3.796   1.045   9.019 -0.4046  0.0551 -0.3051
 1236W        W 4980   8.300   5.580  10.275 -0.0434 -0.1722 -0.3749
 1237W        W 4981   4.579   8.160   3.418 -0.0610 -0.0469  0.0287
 1238W        W 4982   8.950   1.259   2.655  0.1952  0.0169 -0.3163
 1239W        W 4983   1.028   2.062   0.248  0.0824  0.0555 -0.0656
 1240W        W 4984   2.011   8.018   8.433 -0.1380 -0.0257  0.4246
 1241W        W 4985   4.304   1.250   8.371  0.3567  0.0419  0.1358
 1242W        W 4986   8.921   0.522  10.371 -0.3108 -0.3641 -0.3064
 1243W        W 4987   3.332   8.611   0.349 -0.3819 -0.1734 -0.4062
 1244W        W 4988   6.378   8.322  11.865 -0.0950 -0.1255  0.0519
 1245W        W 4989  10.017   0.926   1.927  0.0313  0.2986 -0.1064
 1246W        W 4990   5.931   4.211   7.332  0.0647  0.0131  0.2257
 1247W        W 4991   4.773   1.925   1.507  0.2515 -0.3596 -0.2791
 1248W        W 4992   3.076  10.073  10.628  0.0767  0.0602 -0.1449
 1249W        W 4993   3.715   0.425  11.651  0.0850  0.0101 -0.1504
 1250W        W 4994   2.541   6.911  10.200 -0.1805  0.0808 -0.1808
 1251W        W 4995   2.003   6.067  12.019 -0.1262  0.1310  0.0054
 1252W        W 4996   7.933   9.421   9.689  0.0314 -0.0982 -0.2474
 1253W        W 4997   7.695   9.647   2.607 -0.2424 -0.0982 -0.1240
 1254W        W 4998   2.280   4.001   0.865 -0.1721  0.1281 -0.1327
 1255W        W 4999   1.876   8.006   2.475 -0.0335 -0.0077 -0.0517
 1256W        W 5000   3.292   4.798   0.083 -0.2276 -0.1119  0.1612
 1257W        W 5001   3.473   0.348  11.237 -0.1256 -0.0529 -0.0498
 1258W        W 5002   7.055   6.886   2.282 -0.3549  0.0688 -0.0786
 1259W        W 5003  10.061   7.313  11.119  0.3455  0.4937  0.4237
 1260W        W 5004   1.044   5.738  11.623 -0.1073  0.0342  0.1742
 1261W        W 5005   6.611   8.799   2.213 -0.0301 -0.0854 -0.1562
 1262W        W 5006   7.450   5.684   2.383 -0.0606  0.3357 -0.2185
 1263W        W 5007   4.840   5.335   2.673 -0.0038  0.0534 -0.1655
 1264W        W 5008   5.970   6.624   7.831 -0.1049 -0.2506  0.1851
 1265W        W 5009   1.643   0.999  10.944  0.0179  0.2458  0.1347
 1266W        W 5010   5.388   0.161   1.470 -0.0651 -0.4267  0.0918
 1267W        W 5011   2.229   8.393   8.710 -0.1853  0.2112 -0.0023
 1268W        W 5012   1.665   4.260   3.290 -0.0189 -0.4772 -0.0812
 1269W        W 5013  10.157   2.021   3.742 -0.0863  0.3065 -0.1374
 1270W        W 5014   1.395   4.580   2.983  0.0999 -0.4505 -0.2675
 1271W        W 5015   6.423   4.862   9.623  0.1707  0.0036  0.0175
 1272W        W 5016   5.471   8.969  11.950  0.3992  0.1387  0.1977
 1273W        W 5017   7.524   4.456  10.030  0.1582  0.2125  0.0307
 1274W        W 5018   8.796   4.988  11.043  0.1393 -0.1480  0.1582
 1275W        W 5019   0.746   9.396   8.481  0.1246  0.3037  0.0128
 1276W        W 5020   5.363   2.809   8.651  0.1479  0.2764 -0.0124
 1277W        W 5021   2.949   2.740  12.183  0.2543 -0.0882  0.1341
 1278W        W 5022   3.569  10.157   8.915  0.0613  0.0327 -0.1277
 1279W        W 5023   1.355   9.431   7.883  0.0950  0.1066  0.1253
 1280W        W 5024   9.039   8.696   0.883  0.0440  0.0130  0.0627
 1281W        W 5025   8.479   4.030   3.668 -0.1577 -0.2839  0.0201
 1282W        W 5026   3.581   5.541   3.463  0.1977 -0.1502 -0.0144
 1283W        W 5027   9.114   7.417  12.007  0.0923  0.0821 -0.1131
 1284W        W 5028   8.660   2.846   1.655 -0.2800  0.0658 -0.2902
 1285W        W 5029   8.919   7.922   0.184  0.4765 -0.0294  0.2192
 1286W        W 5030   5.288   5.539   2.437  0.2852  0.2302 -0.0186
 1287W        W 5031   7.934  10.042   0.204  0.2019  0.0386  0.3217
 1288W        W 5032   9.793   0.979  11.517  0.0847  0.1736  0.1059
 1289W        W 5033   0.969   7.354   8.705  0.1656  0.0537  0.0724
 1290W        W 5034   5.696   1.188  11.086 -0.0447 -0.2071 -0.0548
 1291W        W 5035   8.377   6.999  10.460  0.1300 -0.3668  0.0496
 1292W        W 5036   3.503   8.006   9.101 -0.1843  0.1317  0.1072
 1293W        W 5037   9.015   8.751   2.261  0.2599 -0.0781  0.0776
 1294W        W 5038   2.156   4.805   8.256 -0.2304  0.1700  0.0864
 1295W        W 5039   0.118   5.757  10.104  0.1572 -0.0148 -0.0677
 1296W        W 5040   9.377   5.704  11.112 -0.1450 -0.1790  0.2130
 1297W        W 5041   4.709   1.986   0.950 -0.0759  0.1025 -0.1242
 1298W        W 5042   9.899   9.053   0.131  0.1645 -0.0295  0.0691
 1299W        W 5043   4.015   2.510   9.696 -0.0811  0.0932 -0.2039
 1300W        W 5044   4.076   2.595  11.407 -0.1342 -0.1527 -0.0284
 1301W        W 5045   5.223   4.136   7.464 -0.0545 -0.1214  0.0675
 1302W        W 5046   3.043   7.372  11.003 -0.0293 -0.2333 -0.0034
 1303W        W 5047   6.723   8.381   0.061  0.0808  0.0366  0.0001
 1304W        W 5048   7.150   7.782   1.474 -0.5135  0.0378  0.0115
 1305W        W 5049   3.977   7.308   9.454 -0.0795 -0.0462  0.0791
 1306W        W 5050   9.564   3.396   2.746  0.0600 -0.0123  0.0349
 1307W        W 5051   0.179   0.094   1.226  0.1490 -0.1456  0.2678
 1308W        W 5052   7.932   7.295   8.780 -0.0370 -0.0750 -0.1589
 1309W        W 5053   4.306   2.584  10.414  0.1363  0.0636  0.0616
 1310W        W 5054   4.592   3.466   2.017  0.3059  0.0941  0.1770
 1311W        W 5055   8.974   1.199   0.259  0.3140  0.1922 -0.2893
 1312W        W 5056   7.270   5.076   7.252  0.2026  0.0281 -0.2413
 1313W        W 5057   3.834   2.546   3.686 -0.1491 -0.0972 -0.3740
 1314W        W 5058   0.639   1.721   2.674  0.0707  0.0084  0.0787
 1315W        W 5059   7.791   3.610   0.933 -0.2425  0.0875  0.0404
 1316W        W 5060   0.622   1.154   0.055  0.2342  0.2211 -0.0964
 1317W        W 5061   2.874   5.443  11.928  0.3917 -0.0378 -0.0763
 1318W        W 5062  10.079   1.761   2.040 -0.0998  0.0285  0.1617
 1319W        W 5063   2.717   5.836  11.035  0.0985  0.0150  0.3490
 1320W        W 5064   0.997   9.149   9.202  0.1732 -0.0729 -0.1388
 1321W        W 5065   3.252   3.636   8.338  0.0765  0.2584 -0.1248
 1322W        W 5066   7.549   7.785   0.586  0.1302  0.3494 -0.1437
 1323W        W 5067   7.879   3.897   2.245 -0.0785 -0.1024 -0.0666
 1324W        W 5068   3.612   3.542   0.939  0.0520  0.1901 -0.0365
 1325W        W 5069   5.339   4.039   0.426 -0.0627  0.2368  0.0079
 1326W        W 5070   8.284   9.506   1.551  0.0084 -0.2778  0.0863
 1327W        W 5071   8.726   3.321   1.789 -0.3322 -0.0322  0.1319
 1328W        W 5072   3.125   7.511  12.001 -0.0604 -0.0587 -0.2470
 1329W        W 5073   4.574   4.124   3.328 -0.0283 -0.1973  0.1683
 1330W        W 5074   3.905   7.300   2.949 -0.4159  0.1447  0.2614
 1331W        W 5075   8.693   4.493   1.587 -0.2943  0.1267 -0.1380
 1332W        W 5076   2.769   5.559   3.720  0.2409  0.2962  0.2335
 1333W        W 5077   9.837   3.007  11.008 -0.2143  0.0564 -0.2092
 1334W        W 5078   6.309   5.334  11.275  0.1947  0.0259 -0.2195
 1335W        W 5079   3.818   0.059   2.141  0.3246 -0.2419 -0.2428
 1336W        W 5080   7.562   5.888  10.117  0.3105 -0.0887 -0.3045
 1337W        W 5081   5.060   5.309  12.047 -0.0206 -0.0715  0.3544
 1338W        W 5082   7.863   6.940  10.323 -0.1154 -0.0861  0.0580
 1339W        W 5083   0.852   1.369   8.981  0.2342  0.0071  0.3347
 1340W        W 5084   4.081   1.720  11.830  0.3107 -0.1590 -0.0666
 1341W        W 5085   5.173   9.270   9.162 -0.0296 -0.0265 -0.0568
 1342W        W 5086   2.243   9.015   4.404  0.3526 -0.2513 -0.0563
 1343W        W 5087   6.251   1.551   1.485  0.0262 -0.0522 -0.3740
 1344W        W 5088   7.181   7.909   0.900  0.1266 -0.0755  0.0454
 1345W        W 5089   5.653   4.960  10.105  0.0898 -0.0136  0.1728
 1346W        W 5090   1.522   6.522   1.376  0.0688 -0.3027 -0.2441
 1347W        W 5091   2.448   5.468  11.226  0.1669 -0.1325 -0.2089
 1348W        W 5092   6.775   3.975   9.792 -0.0442 -0.1982  0.0068
 1349W        W 5093   8.656   8.887   9.754 -0.3276 -0.2400  0.2357
 1350W        W 5094   2.287   8.243   2.677  0.0004  0.0205 -0.0512
 1351W        W 5095   3.237   0.045   1.177 -0.2506  0.0194  0.0613
 1352W        W 5096   5.394   2.718   1.311 -0.0769  0.0064  0.3077
 1353W        W 5097   2.042   9.252   2.985  0.0411  0.0604  0.0305
 1354W        W 5098   7.614   9.289  10.075 -0.3433 -0.4635 -0.0284
 1355W        W 5099   3.272   4.714  11.214 -0.0868 -0.0391  0.0229
 1356W        W 5100   3.621   5.954   9.924 -0.1821  0.1479 -0.0372
 1357W        W 5101   1.508   0.228   1.671 -0.0092 -0.0329  0.1150
 1358W        W 5102   3.236   4.020   9.823 -0.0353 -0.0766  0.0871
 1359W        W 5103   9.793   8.210   8.295 -0.2959 -0.0608  0.0441
 1360W        W 5104   8.199   6.153   7.763  0.0458  0.1552  0.1246
 1361W        W 5105   4.157   0.687   1.262  0.3908 -0.1853  0.1737
 1362W        W 5106   9.633   4.139   1.161  0.1122  0.0960  0.1044
 1363W        W 5107   4.771   8.877   7.727 -0.1022  0.1616 -0.0631
 1364W        W 5108   1.728   8.576   9.873 -0.0021 -0.1362 -0.1250
 1365W        W 5109   7.147   1.193   1.251  0.0870 -0.1682  0.0062
 1366W        W 5110   0.386   1.570  10.868 -0.1938  0.1944 -0.0380
 1367W        W 5111   9.421   6.578   8.797  0.1075  0.0015  0.0835
 1368W        W 5112   5.148   5.033  10.130 -0.0113 -0.1156  0.0800
 1369W        W 5113   5.905   4.903  10.579  0.2616 -0.1091 -0.0115
 1370W        W 5114   9.223   4.098   0.152  0.2111  0.1198 -0.0321
 1371W        W 5115   1.770   0.985   0.441 -0.3028  0.1569  0.0085
 1372W        W 5116   6.012   6.967   9.701  0.1156  0.2511  0.0310
 1373W        W 5117   8.985   7.469   9.817 -0.3399 -0.2153  0.2204
 1374W        W 5118   7.044   0.577   2.300 -0.1276 -0.1683 -0.1087
 1375W        W 5119   2.548   4.645  10.562  0.1127 -0.0105  0.0973
 1376W        W 5120   6.120   3.991   9.884  0.0912 -0.1396 -0.1466
 1377W        W 5121   5.899   1.779   1.785  0.0732 -0.1218  0.1916
 1378W        W 5122   8.344   9.952   2.936  0.1685  0.0388 -0.0614
 1379W        W 5123  10.014   3.169   2.585  0.2700  0.2323  0.0332
 1380W        W 5124   5.506   2.102   2.744 -0.2118  0.0007 -0.1760
 1381W        W 5125   2.493   5.857  12.029  0.0618 -0.0675  0.0563
 1382W        W 5126   3.182   1.324   0.919 -0.0958  0.1187  0.2338
 1383W        W 5127   0.153   9.443   4.222 -0.3284  0.1573 -0.0084
 1384W        W 5128   2.920   5.207  11.120  0.2113 -0.0876 -0.0583
 1385W        W 5129   5.767   4.758  12.030 -0.1203 -0.0651 -0.0632
 1386W        W 5130   4.727   2.494   2.914  0.0824 -0.0797 -0.3604
 1387W        W 5131   5.917   1.212   1.591  0.0974  0.0482  0.1009
 1388W        W 5132   0.560   6.757  11.631 -0.0270  0.1652  0.1836
 1389W        W 5133   5.363   2.935   9.973 -0.1067 -0.0445  0.1405
 1390W        W 5134   2.063   4.384  10.554 -0.1245 -0.1361 -0.0429
 1391W        W 5135   8.236   1.686   9.580  0.0713 -0.0484 -0.1826
 1392W        W 5136   5.363   2.172  11.440 -0.1278 -0.2838  0.0608
 1393W        W 5137   9.225   3.565   2.040 -0.0516 -0.0852 -0.2922
 1394W        W 5138   8.628   2.303   0.818  0.0718  0.1029  0.2030
 1395W        W 5139   7.950  10.161  10.419  0.0098  0.2408  0.1205
 1396W        W 5140   8.644   8.117   8.846  0.1018  0.0287  0.0236
 1397W        W 5141   8.733   3.924   3.267 -0.1187 -0.1872 -0.0141
 1398W        W 5142   1.923   9.976   2.656 -0.1497 -0.1246  0.1309
 1399W        W 5143   5.157   9.494   1.105  0.2307  0.1447  0.0296
 1400W        W 5144   9.257   7.504   7.752  0.1696  0.1352 -0.4048
 1401W        W 5145   9.097   3.462   1.008  0.0405  0.1553  0.0333
 1402W        W 5146   5.508   5.092  11.717 -0.2060  0.2020  0.1109
 1403W        W 5147   1.624   2.774  11.099 -0.1447 -0.0707 -0.0889
 1404W        W 5148   4.152   5.620   9.543  0.1480 -0.2427  0.0302
 1405W        W 5149   7.522   6.624   2.347 -0.0503 -0.0750  0.0522
 1406W        W 5150   9.184   6.988  10.420  0.1083  0.1415 -0.1504
 1407W        W 5151   3.480   1.811   2.007  0.1093 -0.0327  0.3759
 1408W        W 5152   0.193   6.316   1.194  0.1750 -0.0219 -0.0969
 1409W        W 5153   9.802   9.816   1.862 -0.1757 -0.4079 -0.0818
 1410W        W 5154   4.041   4.300   0.252  0.1928 -0.0728 -0.1375
 1411W        W 5155   9.714   4.771   1.845  0.0650  0.1400  0.0348
 1412W        W 5156   8.896   1.436   7.788 -0.1114 -0.2129 -0.3258
 1413W        W 5157   7.397   0.042   0.235  0.1625  0.0178  0.2403
 1414W        W 5158   5.604   8.902   9.085 -0.2857  0.0567 -0.2006
 1415W        W 5159   1.556   1.460  12.039 -0.0654 -0.2490 -0.0227
 1416W        W 5160   0.881   4.000  11.438 -0.2948  0.0393 -0.0522
 1417W        W 5161   2.578   8.986   1.793 -0.0654 -0.2613 -0.2167
 1418W        W 5162   0.216   2.954   9.323  0.0523  0.1537  0.0154
 1419W        W 5163   9.919   3.490   1.094  0.0867  0.1738  0.0719
 1420W        W 5164   0.690   9.286  10.715  0.3573 -0.3201 -0.3050
 1421W        W 5165   3.069   6.624  10.052  0.3174 -0.0980 -0.1349
 1422W        W 5166   6.768  10.027   0.230  0.0816  0.0304  0.1066
 1423W        W 5167   3.884   9.385   0.981 -0.2303 -0.0123  0.0562
 1424W        W 5168   6.718   1.438   2.009 -0.2364 -0.1745  0.2893
 1425W        W 5169   0.522   8.746   8.941 -0.1626  0.2940  0.1654
 1426W        W 5170   4.574   9.435   8.296  0.0283 -0.3077 -0.2420
 1427W        W 5171   0.376   1.575   1.971 -0.0815  0.1399 -0.3149
 1428W        W 5172   6.414   0.617   0.636  0.4099 -0.2139 -0.2853
 1429W        W 5173   5.058   2.575  10.088 -0.2170  0.3588  0.0905
 1430W        W 5174   8.790   6.823   9.025 -0.0494 -0.0618 -0.1821
 1431W        W 5175   4.857   8.430   2.978 -0.0947  0.4347 -0.0828
 1432W        W 5176   0.993   5.345   0.748 -0.0257 -0.0198  0.4102
 1433W        W 5177   8.260   5.059  10.230  0.5829  0.2025 -0.1223
 1434W        W 5178   6.144   0.372  11.134  0.1892 -0.0467  0.1553
 1435W        W 5179   0.271   7.346   1.305 -0.0183 -0.3938  0.3066
 1436W        W 5180   3.007   4.223   2.786  0.1556 -0.1063 -0.1623
 1437W        W 5181   8.865   0.419   7.558  0.3405 -0.1376 -0.1014
 1438W        W 5182   1.776   7.194   3.173 -0.2633 -0.1072  0.2115
 1439W        W 5183   4.677   5.669   3.089  0.1814 -0.0452  0.1002
 1440W        W 5184   0.597   8.948   1.718 -0.3358  0.0948  0.1888
 1441W        W 5185   2.562   2.884   3.000  0.0498  0.1133 -0.0444
 1442W        W 5186   8.755   6.725  10.224  0.2038 -0.1975 -0.1001
 1443W        W 5187   3.347   7.825   3.945  0.4385 -0.0390 -0.0316
 1444W        W 5188   3.347   9.199  10.541 -0.0565  0.1355 -0.2130
 1445W        W 5189   6.272   2.090   7.597 -0.1752  0.1713  0.5492
 1446W        W 5190   6.872   8.392   9.095 -0.3233  0.0920 -0.0335
 1447W        W 5191   3.983   1.861   1.303  0.1000 -0.1478  0.0049
 1448W        W 5192   4.451   1.256   2.415  0.1570 -0.1709  0.2908
 1449W        W 5193   0.649   8.379   7.147 -0.0213  0.0684 -0.3097
 1450W        W 5194   2.002   0.485   3.380 -0.4429  0.0162  0.2822
 1451W        W 5195   4.780   0.274   1.898 -0.0534 -0.1462 -0.0401
 1452W        W 5196   5.164   5.803   9.825  0.0140 -0.2235  0.0346
 1453W        W 5197   7.907   6.086   8.289 -0.1726 -0.4121 -0.1163
 1454W        W 5198   1.150   6.487   0.001  0.1696  0.1151 -0.0006
 1455W        W 5199   9.345   6.660  10.915 -0.0238  0.0042 -0.2971
 1456W        W 5200   8.593   7.004   9.826 -0.0946 -0.2790 -0.0511
 1457W        W 5201   9.682   6.113   8.974  0.0678 -0.1408 -0.1729
 1458W        W 5202   9.103   4.614   2.217  0.4993  0.0655 -0.1432
 1459W        W 5203   4.637   3.596   3.146 -0.1761 -0.1816  0.2352
 1460W        W 5204   5.915   3.897   0.942 -0.0862 -0.2184  0.0160
 1461W        W 5205  10.007   2.560  10.108  0.0089  0.1980  0.0545
 1462W        W 5206   6.624   0.630   0.149 -0.2140 -0.0980  0.0576
 1463W        W 5207   4.453   1.339  12.199 -0.2733 -0.1240  0.1777
 1464W        W 5208   0.644   8.258   3.625 -0.0022  0.1244  0.2420
 1465W        W 5209   7.117   9.528   2.324  0.1252  0.0312 -0.0384
 1466W        W 5210   7.958   6.383   1.271 -0.2356 -0.3283 -0.3268
 1467W        W 5211   5.912   9.907   7.965  0.1900  0.3634  0.0614
 1468W        W 5212   8.393   0.352  11.622 -0.0831  0.3177  0.0667
 1469W        W 5213   0.112   1.360  10.258  0.1328 -0.0573 -0.0372
 1470W        W 5214   9.367   0.325   4.319 -0.0252  0.2004  0.0113
 1471W        W 5215   9.329   0.857   4.124 -0.0212 -0.2753 -0.1206
 1472W        W 5216   5.683   8.933   1.961  0.0925 -0.1011  0.0967
 1473W        W 5217   7.232   8.063   9.086  0.2950  0.3138  0.1692
 1474W        W 5218   8.737   3.192   8.933  0.0293 -0.0501  0.0533
 1475W        W 5219   0.940   9.012   3.807 -0.0411 -0.0600 -0.2000
 1476W        W 5220   9.924   9.210   7.337  0.2114  0.1992 -0.2962
 1477W        W 5221   0.048   4.186   2.900 -0.0879  0.3983  0.0728
 1478W        W 5222   5.160   3.343   1.082 -0.2579  0.1922 -0.0500
 1479W        W 5223   4.299   7.627   7.312 -0.1506 -0.2987 -0.1990
 1480W        W 5224   6.798   9.132   3.673  0.0762 -0.0436  0.1364
 1481W        W 5225   6.207   2.714   3.701  0.1142  0.0313  0.1560
 1482W        W 5226   0.782   1.726   1.094  0.0023  0.0188 -0.2971
 1483W        W 5227   3.603   9.117   1.777 -0.1207 -0.2082  0.2616
 1484W        W 5228   9.487   9.432   9.833 -0.2176  0.0058  0.1684
 1485W        W 5229   1.945  10.082   9.575 -0.1568  0.1112 -0.1254
 1486W        W 5230   4.754   9.080   1.950  0.0366 -0.1867 -0.0530
 1487W        W 5231   3.674   1.092   0.687  0.1191 -0.3079  0.1231
 1488W        W 5232   9.674   1.290   2.132  0.1460  0.0169  0.1798
 1489W        W 5233   0.294  10.190  10.584  0.2459  0.1293 -0.1015
 1490W        W 5234   9.700   8.065  11.396  0.4005 -0.3628 -0.0724
 1491W        W 5235   0.575   4.534   0.615 -0.2797  0.0770  0.2917
 1492W        W 5236   4.547   2.775   0.921 -0.1640 -0.2028  0.4741
 1493W        W 5237   8.699   6.347   2.529  0.1901 -0.2185 -0.2118
 1494W        W 5238   0.099   3.847   9.250 -0.2835 -0.1227  0.0279
 1495W        W 5239   0.994   6.923   8.955  0.2196  0.0949 -0.1397
 1496W        W 5240   9.345   5.844  11.729  0.0695 -0.0686 -0.1823
 1497W        W 5241   0.410   2.737   2.787 -0.0428  0.1132 -0.1006
 1498W        W 5242   8.420   4.469   0.083 -0.2244  0.1608  0.1181
 1499W        W 5243   1.154   6.023   9.139  0.0238  0.1240 -0.0882
 1500W        W 5244   3.915   5.297   2.531  0.1850  0.0158 -0.1435
 1501W        W 5245   8.012   8.525   9.507 -0.0019  0.0355  0.1290
 1502W        W 5246   7.832   6.265   3.494 -0.0184  0.2498 -0.0866
 1503W        W 5247   2.221   9.789   9.073 -0.1540 -0.1027 -0.1252
 1504W        W 5248   1.769   2.842   0.270 -0.3000 -0.1546 -0.0843
 1505W        W 5249   3.266   0.867   8.971 -0.3405  0.2747 -0.1727
 1506W        W 5250   7.987   2.246   2.782  0.1828  0.1000 -0.4133
 1507W        W 5251   0.662   5.797   1.982  0.0885 -0.1224  0.3498
 1508W        W 5252   3.827   4.208  10.641 -0.0373  0.1126  0.0227
 1509W        W 5253   9.198   2.690   9.489 -0.0806 -0.0170 -0.1866
 1510W        W 5254   0.510  10.023   0.924 -0.2404 -0.0249 -0.0424
 1511W        W 5255   3.616   5.971  11.309  0.0163 -0.2385 -0.1624
 1512W        W 5256   7.851   1.455  11.517 -0.2950 -0.0920  0.0554
 1513W        W 5257   7.881   2.926  10.892  0.3014  0.4609  0.1329
 1514W        W 5258   4.510   5.722   7.216 -0.0193 -0.1626  0.1209
 1515W        W 5259   8.991   2.226  10.363  0.1520 -0.1315  0.0027
 1516W        W 5260   4.944   4.604   0.291 -0.3346 -0.1065  0.0544
 1517W        W 5261   5.390   7.689   9.229 -0.3657  0.0600  0.0725
 1518W        W 5262   0.100   9.358   9.509  0.3091 -0.0056  0.1662
 1519W        W 5263   2.534   0.114   2.784  0.3850 -0.0182 -0.0664
 1520W        W 5264   0.343   0.528  10.410 -0.1256  0.2173 -0.2845
 1521W        W 5265   4.631   1.683   8.245  0.1385 -0.1926 -0.3818
 1522W        W 5266   3.583   4.296   9.280 -0.0673 -0.2975 -0.0968
 1523W        W 5267   9.548   7.216  10.022  0.0826  0.2300 -0.1603
 1524W        W 5268   6.658   6.250   1.755  0.2950  0.0825  0.1002
 1525W        W 5269   5.508   3.486   3.016 -0.1939 -0.0054  0.0026
 1526W        W 5270   2.138   7.717   9.087  0.2187 -0.0595  0.3268
 1527W        W 5271   2.672   0.716   0.273 -0.2200  0.2094 -0.4457
 1528W        W 5272   2.952   7.369   0.922  0.0678 -0.0863  0.0762
 1529W        W 5273   5.540   4.616  11.427  0.0514 -0.0716 -0.1680
 1530W        W 5274   6.743   6.673   1.988  0.1796 -0.1025  0.0380
 1531W        W 5275   1.357   0.293   8.486  0.0860  0.1597  0.0190
 1532W        W 5276   7.704   8.793   3.203 -0.2674 -0.2111 -0.1557
 1533W        W 5277   3.413   2.464  12.216  0.2247  0.1749 -0.0141
 1534W        W 5278   1.033   1.612   0.722  0.0891  0.0292  0.1005
 1535W        W 5279   9.710   2.679   0.814 -0.1193 -0.2967 -0.3593
 1536W        W 5280   7.464   7.689   2.433 -0.2206 -0.1430 -0.0186
 1537W        W 5281   2.138   8.276   7.905  0.1910  0.1801 -0.0447
 1538W        W 5282   2.393   5.401  11.750 -0.2118 -0.0503 -0.2727
 1539W        W 5283   8.604   3.503   2.311 -0.1495 -0.2462 -0.2942
 1540W        W 5284   2.196   6.526   8.737 -0.1110 -0.2709 -0.1964
 1541W        W 5285   7.490   8.242   1.369 -0.0772  0.3189  0.0348
 1542W        W 5286   0.992   1.893   4.189  0.0700  0.1143 -0.1609
 1543W        W 5287   7.238   5.174   0.723 -0.0485  0.0585  0.0698
 1544W        W 5288   7.424   7.957   7.908  0.1174  0.0104  0.1932
 1545W        W 5289   0.914   9.744   0.723  0.0347  0.0066 -0.2161
 1546W        W 5290   6.476   1.040  10.199  0.0166  0.3009  0.1223
 1547W        W 5291   8.697   1.568   9.350 -0.1618 -0.0218 -0.2633
 1548W        W 5292   5.238   9.803   0.072  0.0566 -0.1402 -0.2047
 1549W        W 5293   3.914  10.017   0.742 -0.1352  0.0381 -0.0682
 1550W        W 5294   6.877   1.790  12.003 -0.0547  0.4900  0.0253
 1551W        W 5295   5.577   1.730   9.863  0.1304 -0.0600  0.1853
 1552W        W 5296   4.700   2.965   8.316  0.1452 -0.0646  0.0845
 1553W        W 5297   0.125   3.782   3.911  0.2132 -0.2370 -0.0017
 1554W        W 5298   1.699   6.308  10.192 -0.0258  0.1064 -0.2222
 1555W        W 5299   8.372   2.666  12.162 -0.3270 -0.2543 -0.2895
 1556W        W 5300   3.486   9.255   8.860 -0.0512  0.1070  0.2695
 1557W        W 5301   2.533   3.601  11.639  0.0052 -0.1694  0.3977
 1558W        W 5302   1.320   2.354   4.102 -0.0651  0.0551 -0.3324
 1559W        W 5303   6.350   0.205   0.305 -0.2109 -0.0660 -0.0980
 1560W        W 5304   9.669   2.755  11.453 -0.1123 -0.1249 -0.0517
 1561W        W 5305   1.766   3.137   3.970  0.1785 -0.0131  0.0273
 1562W        W 5306   4.116   4.321   9.169  0.0778 -0.2521  0.3547
 1563W        W 5307   6.465   6.435   1.035  0.3146  0.0250  0.3741
 1564W        W 5308   5.018   8.867   3.228 -0.2835 -0.0687 -0.1479
 1565W        W 5309   6.746   8.102  10.386 -0.1518  0.0520 -0.2576
 1566W        W 5310   2.370   3.250   9.910  0.1791  0.0660 -0.0144
 1567W        W 5311   3.012   6.197   1.911  0.1782 -0.0568  0.1981
 1568W        W 5312   1.023   8.834   7.744 -0.2303 -0.1202  0.0646
 1569W        W 5313   3.263   3.295   9.199  0.0546  0.2671  0.1699
 1570W        W 5314   7.899   8.251   0.537 -0.1991  0.0253 -0.0775
 1571W        W 5315   2.830   7.752   8.346  0.3991  0.2977  0.0295
 1572W        W 5316   0.238   0.546   1.990  0.3030 -0.4827  0.2161
 1573W        W 5317   2.965   4.612   8.585 -0.0958 -0.0710  0.0959
 1574W        W 5318   5.311   4.979   2.601 -0.0759 -0.0343 -0.0606
 1575W        W 5319   7.676   7.677  11.976  0.3479  0.0552 -0.2494
 1576W        W 5320   1.321   9.215   8.669  0.1378  0.2278 -0.1162
 1577W        W 5321   4.051   5.208   8.699 -0.1674  0.0839  0.0980
 1578W        W 5322   2.414   4.602  11.830  0.0360  0.0875 -0.0747
 1579W        W 5323   6.300   7.188   0.572  0.0891  0.0107 -0.3005
 1580W        W 5324   4.760   1.982   9.501 -0.0337 -0.2817 -0.1130
 1581W        W 5325   9.550   9.812   2.675 -0.2476  0.1456  0.1070
 1582W        W 5326   3.923   3.970   2.650 -0.1274 -0.1007  0.0111
 1583W        W 5327   1.512   9.454   3.393 -0.1708  0.2458 -0.3953
 1584W        W 5328   7.386   9.783   3.938  0.0514  0.2001 -0.1539
 1585W        W 5329   7.247   7.029   8.307 -0.2150  0.0489  0.1736
 1586W        W 5330   3.272   9.097   2.992  0.0146 -0.1125  0.2466
 1587W        W 5331   1.396   6.867   9.269  0.1948  0.0300 -0.3688
 1588W        W 5332   4.129   8.520   0.020  0.1512 -0.2322 -0.1645
 1589W        W 5333   2.544   5.607  10.233 -0.0865  0.1682 -0.3598
 1590W        W 5334   1.683   2.342   0.448 -0.0434 -0.2669 -0.0484
 1591W        W 5335   4.591   9.443   7.777  0.1104  0.1502  0.1368
 1592W        W 5336   3.742   1.573  11.372 -0.2252  0.1216  0.2469
 1593W        W 5337   1.659   8.847   8.494  0.3373  0.0099 -0.0050
 1594W        W 5338   1.193   5.418   9.785  0.1874 -0.1581 -0.0167
 1595W        W 5339   6.747   2.398  10.897  0.0040 -0.0921 -0.0619
 1596W        W 5340   0.655   5.508   1.079 -0.0547  0.0461 -0.1218
 1597W        W 5341   4.644   7.897   2.553  0.3159  0.0792  0.0103
 1598W        W 5342   2.832   3.516   3.067 -0.3005 -0.1556  0.1058
 1599W        W 5343   9.049   3.335  11.187 -0.1784 -0.1746  0.0662
 1600W        W 5344   1.550   8.721   7.891  0.0931 -0.0458  0.2072
 1601W        W 5345   1.836   0.452  10.111 -0.0461  0.2990 -0.0550
 1602W        W 5346   7.663   0.590   1.078 -0.1216  0.0256  0.0735
 1603W        W 5347   3.576   0.792   1.764  0.0080  0.1929 -0.0971
 1604W        W 5348   6.037   4.625   0.455  0.2469 -0.3243  0.0696
 1605W        W 5349   8.994   8.608  10.311  0.1112  0.5322 -0.1253
 1606W        W 5350   4.139   5.937   9.945 -0.0049 -0.0803 -0.4556
 1607W        W 5351   2.473   6.600   1.362 -0.0879  0.0258 -0.0658
 1608W        W 5352   3.102   2.453   7.600 -0.0755 -0.1133  0.0725
 1609W        W 5353   8.317   5.521   8.889  0.1365 -0.4757  0.0694
 1610W        W 5354  10.161   5.648   3.351  0.0950  0.0076 -0.1935
 1611W        W 5355   2.409   1.325  11.486  0.0289  0.2227  0.0679
 1612W        W 5356   7.578   8.062   7.101 -0.1722 -0.1454  0.1139
 1613W        W 5357   6.830   4.201   8.255 -0.2490  0.2751 -0.0225
 1614W        W 5358   1.358   7.557   7.232 -0.0604 -0.2546  0.1615
 1615W        W 5359   6.023   5.795   2.381  0.0013 -0.2163  0.0484
 1616W        W 5360   2.491   0.666   9.395  0.2062 -0.0585  0.0095
 1617W        W 5361   7.084   6.443   1.308  0.0382  0.0853  0.2890
 1618W        W 5362   4.042  10.053   9.242 -0.2787 -0.1723  0.0941
 1619W        W 5363   3.663   7.366   8.989 -0.0605 -0.2301 -0.0415
 1620W        W 5364   4.818   3.503   2.554  0.1740 -0.1239 -0.0725
 1621W        W 5365   4.342   0.478   0.266  0.1974 -0.2983  0.0032
 1622W        W 5366   7.630   7.186  10.656  0.0880  0.1299 -0.1125
 1623W        W 5367   2.420   0.764  11.042 -0.0831 -0.3110 -0.0076
 1624W        W 5368   0.077   7.607   7.774 -0.2263 -0.2060 -0.0847
 1625W        W 5369   5.988   5.754  10.004 -0.0001 -0.0515 -0.5598
 1626W        W 5370   2.444   3.637   0.050  0.1459 -0.1485  0.0491
 1627W        W 5371   8.563   6.065  11.135  0.1390  0.0655  0.1267
 1628W        W 5372   3.491   5.195   8.205  0.1589  0.2585  0.3367
 1629W        W 5373   3.818   0.946   9.527 -0.1569  0.1791 -0.0142
 1630W        W 5374   2.114   5.806  11.546 -0.2850  0.2518  0.0763
 1631W        W 5375   3.179   8.842  12.158  0.1439 -0.0325  0.0069
 1632W        W 5376   2.023   6.776  11.680  0.4442  0.0636 -0.0815
 1633W        W 5377   7.675   2.125   0.678  0.0291  0.1119 -0.0399
 1634W        W 5378   7.207   6.095  12.199 -0.1105 -0.0554 -0.0006
 1635W        W 5379   5.755   1.181  11.568 -0.1004 -0.0018 -0.1279
 1636W        W 5380   3.633   0.141   9.386  0.1067 -0.0537 -0.1135
 1637W        W 5381   9.721   6.434   8.338  0.1771 -0.2907  0.0796
 1638W        W 5382   0.559   7.486   9.507  0.0020  0.1686 -0.1044
 1639W        W 5383   9.709   8.824   2.583  0.2364  0.1117  0.1191
 1640W        W 5384   6.414   2.494   8.642  0.2577 -0.1508 -0.3717
 1641W        W 5385   6.283   4.233  10.910 -0.0626 -0.1146 -0.1627
 1642W        W 5386   8.724   0.590   0.969  0.1415 -0.1896  0.0008
 1643W        W 5387   9.857   8.037  11.891  0.1667 -0.2867  0.0977
 1644W        W 5388   5.079   2.754   2.736  0.0857  0.0331 -0.0620
 1645W        W 5389   2.898   6.490   8.696 -0.3605 -0.2054 -0.0735
 1646W        W 5390   2.262   1.436   8.709  0.0375  0.2421 -0.0523
 1647W        W 5391   6.951   7.755   8.274 -0.0326  0.0454 -0.1887
 1648W        W 5392  10.178   4.650   3.080  0.0686  0.0791 -0.2336
 1649W        W 5393   7.116   5.417   9.104  0.0567 -0.0980 -0.0304
 1650W        W 5394   7.640   2.686   0.608  0.2551 -0.0014 -0.1720
 1651W        W 5395   9.775   8.666   7.951  0.1415  0.2722  0.1978
 1652W        W 5396   4.756   3.221  11.663  0.1410 -0.2035 -0.0243
 1653W        W 5397   5.506   8.483  10.090 -0.0955 -0.1160 -0.2144
 1654W        W 5398   8.751   4.184  11.778  0.1333  0.3481  0.0837
 1655W        W 5399   4.875   6.964   9.773  0.0746 -0.1593 -0.2600
 1656W        W 5400   7.289   7.999   8.603 -0.0222  0.2819 -0.2924
 1657W        W 5401   1.904   5.570   2.237  0.1480 -0.2701 -0.1106
 1658W        W 5402   7.240   6.573   0.221 -0.1397  0.0512  0.0437
 1659W        W 5403   3.028   9.683   1.262  0.0436  0.0756  0.3051
 1660W        W 5404   4.873   3.246   1.658  0.0547  0.0009 -0.1599
 1661W        W 5405   0.695   8.469   1.919 -0.0888  0.1194 -0.1243
 1662W        W 5406   4.899   4.056   1.126  0.0572  0.0281 -0.3338
 1663W        W 5407   0.801   4.504  11.543  0.1094 -0.0749 -0.0488
 1664W        W 5408   9.022   5.002   7.605  0.1532  0.0481 -0.1129
 1665W        W 5409   0.158   5.278  11.215 -0.1586  0.1350  0.1611
 1666W        W 5410   9.731   2.460  11.913  0.1649  0.1405  0.1729
 1667W        W 5411   7.248   7.053   3.593  0.1384 -0.2073 -0.0242
 1668W        W 5412   1.103   4.324  12.149 -0.0714  0.3633  0.2195
 1669W        W 5413   4.791   0.907   1.697 -0.1722 -0.0363  0.0288
 1670W        W 5414   1.831   7.355  11.686 -0.0025 -0.1154 -0.1809
 1671W        W 5415   3.022   8.637   3.060  0.0192  0.0455  0.2421
 1672W        W 5416   9.817   3.375  10.129  0.0410  0.0392 -0.4627
 1673W        W 5417   9.723   6.354   9.703 -0.0450 -0.0600  0.1627
 1674W        W 5418   4.430   0.543   1.662  0.4163  0.1904 -0.1097
 1675W        W 5419   6.589   7.466   1.377  0.0171  0.0907 -0.1614
 1676W        W 5420   4.951   7.708   1.733  0.1081  0.1368  0.0157
 1677W        W 5421   3.532   3.447   0.224 -0.1965 -0.0664 -0.2475
 1678W        W 5422   4.219   9.355   3.080 -0.1534  0.2639 -0.0782
 1679W        W 5423   3.721  10.006   7.891 -0.0716  0.2276 -0.3835
 1680W        W 5424   0.929   5.873   0.510 -0.0858  0.0410 -0.2972
 1681W        W 5425   4.289   7.343  10.418 -0.2753 -0.1471  0.3768
 1682W        W 5426   7.809   3.279   8.089  0.2171 -0.2071 -0.0669
 1683W        W 5427   8.215   0.726   9.860 -0.5029  0.0009  0.3942
 1684W        W 5428   9.535   0.257   0.103  0.0302 -0.0505  0.1626
 1685W        W 5429   9.880   8.959  10.549  0.0601  0.1717  0.3139
 1686W        W 5430   0.127   5.316   8.565 -0.1098 -0.0482  0.0818
 1687W        W 5431   4.657   4.326   1.513  0.0359 -0.0359  0.0182
 1688W        W 5432   4.758   6.596   1.940 -0.4338 -0.1270 -0.0795
 1689W        W 5433   6.532   4.251   2.030 -0.1195  0.1731 -0.0573
 1690W        W 5434   1.075   3.313  10.048 -0.1308 -0.1401 -0.3677
 1691W        W 5435   9.369   7.230  11.551  0.1348 -0.0950  0.2954
 1692W        W 5436   0.390   0.361   2.670 -0.0617 -0.3285  0.2520
 1693W        W 5437   0.617   0.645  10.013 -0.0463  0.0965  0.0658
 1694W        W 5438   8.692   5.216   1.195 -0.0830 -0.0232 -0.1188
 1695W        W 5439   6.486   2.579   1.815 -0.3305 -0.0774  0.2453
 1696W        W 5440   6.794   9.381  10.859 -0.0954  0.3169 -0.1023
 1697W        W 5441   9.766   7.246   0.796  0.0630 -0.1117 -0.2748
 1698W        W 5442   8.252   6.478  11.058 -0.0836 -0.0230  0.0922
 1699W        W 5443   7.861   2.040   0.087  0.1590  0.0495 -0.0355
 1700W        W 5444   0.476   5.658   0.592 -0.0489 -0.0169 -0.3464
 1701W        W 5445   5.050   4.927  11.148 -0.2437 -0.1150  0.0861
 1702W        W 5446   1.784   7.926  10.354  0.0327  0.0455  0.1724
 1703W        W 5447   5.491   9.314  10.804  0.0601  0.0883  0.0083
 1704W        W 5448   7.243   4.925  10.137  0.1931 -0.0001  0.3283
 1705W        W 5449   0.995   0.604   9.719 -0.0042 -0.2904 -0.0773
 1706W        W 5450   5.071   5.149   1.519  0.0999  0.1491 -0.0533
 1707W        W 5451   4.928   2.546   8.741 -0.3912  0.0307  0.1176
 1708W        W 5452   6.396   9.630   9.226 -0.4193 -0.0964  0.1649
 1709W        W 5453   3.878   8.077  11.525 -0.1474 -0.0296 -0.1930
 1710W        W 5454  10.190   9.842   3.130 -0.1116 -0.0516  0.2961
 1711W        W 5455  10.186   3.101   8.845  0.0174  0.0575  0.1029
 1712W        W 5456   8.643   7.120   1.894 -0.1715  0.2042  0.1980
 1713W        W 5457   8.251   2.800  11.601  0.1576  0.3794  0.2947
 1714W        W 5458   6.073   5.433   0.181  0.0210  0.2388  0.2170
 1715W        W 5459   1.440   5.907   8.720 -0.0190  0.1391 -0.2621
 1716W        W 5460   6.756   7.114  11.559 -0.1157 -0.1652 -0.2847
 1717W        W 5461   3.129   5.073   8.522  0.1957  0.1768  0.0785
 1718W        W 5462   7.582   7.802   9.908 -0.0995 -0.1283  0.1532
 1719W        W 5463   1.768   0.861   9.126 -0.1219 -0.4281 -0.0079
 1720W        W 5464   1.087   9.496  10.363 -0.1336  0.0214  0.0422
 1721W        W 5465   9.958   4.776  10.013 -0.2883  0.1737  0.0448
 1722W        W 5466   4.503   5.356  10.479 -0.2064  0.0256  0.2362
 1723W        W 5467   2.709   3.791   9.828  0.0386  0.0868 -0.2137
 1724W        W 5468   3.201   1.616   3.071  0.0125  0.0037  0.0011
 1725W        W 5469  10.028   0.086   9.614  0.0914  0.1931 -0.2091
 1726W        W 5470   6.189   3.102  10.557 -0.2587  0.1333  0.2342
 1727W        W 5471   5.595   0.007   8.233 -0.0740  0.0090  0.3762
 1728W        W 5472   4.392   4.362  11.457  0.0213  0.3375 -0.1208
 1729W        W 5473   7.499   9.357   0.690 -0.1281 -0.2647  0.1687
 1730W        W 5474   9.632   4.539   3.523  0.2516 -0.0548  0.1431
 1731W        W 5475   0.602   3.978   4.060  0.0523  0.0093 -0.3840
 1732W        W 5476   2.149   8.937   8.696 -0.0473 -0.0537 -0.0224
 1733W        W 5477   2.183   4.531   9.643  0.1264  0.1171 -0.0972
 1734W        W 5478   9.783   1.411   3.005 -0.0195  0.1635  0.1725
 1735W        W 5479   9.493   3.198  11.341 -0.4669  0.1271  0.0792
 1736W        W 5480   4.741   8.488   2.454 -0.0094 -0.1149  0.1241
 1737W        W 5481   3.442   4.452   0.874 -0.0164  0.1774 -0.1907
 1738W        W 5482   2.065   4.714   9.131 -0.1617 -0.1879 -0.0006
 1739W        W 5483   3.944   3.267   8.585 -0.2051 -0.1454  0.1904
 1740W        W 5484   1.413   7.292   2.781  0.2179 -0.0446  0.2802
 1741W        W 5485   8.730   4.136   8.972  0.4193  0.2004  0.2777
 1742W        W 5486   5.459   2.245  10.129  0.2442  0.2083 -0.0154
 1743W        W 5487   1.506   7.567  11.997 -0.0779 -0.0592  0.2485
 1744W        W 5488   6.727   8.615   1.282  0.0261 -0.2710 -0.0235
 1745W        W 5489   1.035   6.851   0.302  0.0874  0.0141 -0.2838
 1746W        W 5490   0.443   0.253  11.389  0.0326  0.2673  0.0009
 1747W        W 5491   6.182   9.923   9.878  0.1347 -0.0168 -0.2087
 1748W        W 5492   7.712   6.461  10.064  0.0905 -0.2312  0.0095
 1749W        W 5493   4.082   6.418   0.524 -0.2397  0.3668  0.0680
 1750W        W 5494   4.543   7.083   2.275 -0.1525  0.2069  0.0295
 1751W        W 5495   5.416   8.744   0.707  0.0337 -0.4264  0.2911
 1752W        W 5496   9.739   5.084   1.034  0.0608  0.0769 -0.1335
 1753W        W 5497   6.441   1.459   0.054  0.0702  0.1522  0.0049
 1754W        W 5498   7.376   8.312  10.906  0.0894  0.1532  0.1118
 1755W        W 5499   8.224   9.160   3.804 -0.1656 -0.0473  0.1530
 1756W        W 5500   6.691   7.185   2.228  0.1110  0.1307 -0.0736
 1757W        W 5501   7.275   1.420  12.052  0.1172 -0.0520  0.1273
 1758W        W 5502   6.396   9.406   3.549 -0.3367  0.0846 -0.1862
 1759W        W 5503   5.027   2.491   8.249  0.1497  0.0612  0.0012
 1760W        W 5504   8.905   0.562   9.539  0.3351 -0.0475  0.0282
 1761W        W 5505   0.609   1.781  11.250  0.3006  0.1853  0.3461
 1762W        W 5506   8.958   1.143   1.037  0.1280 -0.1358 -0.0142
 1763W        W 5507   7.646   6.443   0.399 -0.1554  0.0323 -0.1844
 1764W        W 5508   3.541   6.481   3.226  0.0786 -0.1355 -0.0055
 1765W        W 5509   3.912   2.981  11.052  0.3449 -0.2845  0.0052
 1766W        W 5510   0.970   4.869   3.011  0.4870 -0.0051  0.2704
 1767W        W 5511   3.754   4.990   1.895 -0.1966  0.0660  0.3509
 1768W        W 5512   6.255   2.629   2.693 -0.2209 -0.0291 -0.2576
 1769W        W 5513   7.854   0.280   1.442  0.2192 -0.1057 -0.3380
 1770W        W 5514   7.556  10.168   1.693  0.2956 -0.1459 -0.0033
 1771W        W 5515   3.250   3.194   1.767 -0.2111  0.3057  0.3626
 1772W        W 5516   1.098   2.315  10.069 -0.0081  0.0616 -0.1675
 1773W        W 5517   6.983   0.198   1.128 -0.0717 -0.1263 -0.0241
 1774W        W 5518   5.333   9.940  11.796 -0.0565  0.0765  0.0001
 1775W        W 5519   4.333   7.286  11.275 -0.2613  0.3691 -0.0293
 1776W        W 5520   7.136   1.277   1.742  0.0424  0.2498  0.1053
 1777W        W 5521   4.852   6.905   3.273  0.2088 -0.1806  0.4724
 1778W        W 5522   6.254   2.990   0.490  0.2852 -0.2762 -0.0756
 1779W        W 5523   7.575   1.692   1.798  0.0753 -0.0645 -0.2825
 1780W        W 5524   0.725   3.164   3.068  0.3310  0.0278  0.0983
 1781W        W 5525   3.288   7.477   8.652  0.1009 -0.0955  0.1379
 1782W        W 5526   2.672   9.514  11.178 -0.0502 -0.1791  0.2540
 1783W        W 5527   9.343   2.591   8.563  0.0207  0.0148  0.0694
 1784W        W 5528   1.208   4.035   1.265 -0.3159  0.2158  0.2995
 1785W        W 5529   6.607   5.077  11.818 -0.3523 -0.4011 -0.1708
 1786W        W 5530   3.722   2.122   9.509  0.0710  0.2075  0.2605
 1787W        W 5531   1.094   2.902  11.671  0.0814  0.1398  0.0158
 1788W        W 5532   8.226   8.791   6.971 -0.2319  0.3458  0.1676
 1789W        W 5533   2.007   3.350  10.228 -0.1630 -0.2481  0.0986
 1790W        W 5534   5.865   8.895   0.683  0.1187  0.0845  0.2280
 1791W        W 5535   5.717   8.531   8.048  0.1145  0.0301 -0.0384
 1792W        W 5536   8.209   0.375   1.765 -0.1093 -0.3857  0.2002
 1793W        W 5537   1.160   9.870  11.296 -0.3262  0.2548 -0.0098
 1794W        W 5538   4.871   0.326   0.090 -0.2585  0.0224 -0.0469
 1795W        W 5539   5.697   7.184   8.672 -0.1322 -0.0839 -0.1494
 1796W        W 5540   6.092   4.718   8.700 -0.0315  0.2565  0.0961
 1797W        W 5541   9.587   6.356  10.349  0.0850 -0.0377  0.0058
 1798W        W 5542   2.064   2.403   1.303 -0.2924 -0.0228  0.2675
 1799W        W 5543   9.227   1.038   2.293 -0.0129  0.3584  0.2371
 1800W        W 5544   6.295   9.023   1.848 -0.0178 -0.0402  0.1631
 1801W        W 5545   2.846   7.839   0.808  0.4088 -0.2697 -0.1218
 1802W        W 5546   6.264   7.363  12.204  0.3376  0.1769  0.0222
 1803W        W 5547   7.870   7.439   9.686 -0.3365 -0.1525  0.0024
 1804W        W 5548   8.398   7.340   9.510 -0.0730  0.2163 -0.2185
 1805W        W 5549   7.634   4.255   2.521 -0.1618  0.0622 -0.2030
 1806W        W 5550   1.060  10.125   8.326  0.1542 -0.1580  0.3446
 1807W        W 5551   8.463   1.329   0.285  0.0709  0.0813 -0.0055
 1808W        W 5552   9.388   7.322   9.484  0.2474  0.1827 -0.1866
 1809W        W 5553   2.966   0.652   9.404 -0.0649 -0.1845 -0.2278
 1810W        W 5554  10.154   8.271  11.561 -0.0138  0.0536  0.1709
 1811W        W 5555   0.773   4.194   1.516  0.1165 -0.3042 -0.1250
 1812W        W 5556   9.643   4.854   0.112 -0.0684 -0.1368 -0.0012
 1813W        W 5557   8.922   6.599  12.171 -0.4156 -0.3447  0.1734
 1814W        W 5558   3.609  10.170  11.612 -0.0242 -0.1823  0.1938
 1815W        W 5559   9.184   3.155   2.965 -0.1786 -0.2315  0.0101
 1816W        W 5560   5.891   1.374   2.155  0.0383 -0.0155  0.1062
 1817W        W 5561   2.914   6.638   1.626  0.2509  0.1783  0.1883
 1818W        W 5562   2.149   0.490  11.683  0.0304  0.0962 -0.0975
 1819W        W 5563   9.143   0.707  10.771 -0.2640 -0.0686  0.2817
 1820W        W 5564   0.022   3.387   9.340  0.0894 -0.3393 -0.3220
 1821W        W 5565   0.683   0.163   8.509 -0.1058  0.0765 -0.2804
 1822W        W 5566   8.159   8.415  10.430 -0.0247  0.0662 -0.2382
 1823W        W 5567   5.469   2.665  10.515  0.1478  0.0443 -0.0248
 1824W        W 5568   4.313   5.267   3.057 -0.1716  0.2095 -0.5873
 1825W        W 5569   4.921   9.529   9.560 -0.0911  0.2385  0.1074
 1826W        W 5570   6.799  10.048   9.151  0.1867  0.1325 -0.0909
 1827W        W 5571   5.921   3.807   2.944  0.0082  0.1091 -0.0091
 1828W        W 5572   4.584   3.794  11.494  0.2547 -0.2521 -0.0679
 1829W        W 5573   4.743   5.625   2.217 -0.3665 -0.1055  0.0136
 1830W        W 5574   8.681   8.035  11.961  0.0786 -0.0086  0.0473
 1831W        W 5575   1.092   1.952  11.178  0.0992 -0.2005  0.2262
 1832W        W 5576   8.964   8.179   9.237 -0.4031  0.1032 -0.0131
 1833W        W 5577   4.407   8.579   2.827 -0.2404 -0.1038  0.0406
 1834W        W 5578   6.497   4.414   9.461  0.2136 -0.1070 -0.0893
 1835W        W 5579   2.742   9.508   7.996 -0.4615 -0.0694 -0.3282
 1836W        W 5580   2.671   0.837   3.797  0.2901 -0.1374 -0.1204
 1837W        W 5581   3.052   3.850   2.130 -0.1129  0.0084  0.2360
 1838W        W 5582   1.513   1.066   9.487  0.0471  0.0304  0.0296
 1839W        W 5583   9.310   1.694   0.334 -0.2700 -0.1268  0.1379
 1840W        W 5584   5.407   5.966   1.579 -0.0813  0.1804  0.0409
 1841W        W 5585   7.037   9.212   0.377  0.3065  0.2721  0.1156
 1842W        W 5586   1.791   9.946   2.181 -0.0986 -0.1200 -0.1898
 1843W        W 5587   1.859   6.003   9.791 -0.1456 -0.2928 -0.0051
 1844W        W 5588   2.752   6.776   2.762  0.0417  0.0315 -0.0882
 1845W        W 5589   8.097   9.783   8.446 -0.0532  0.2287  0.1146
 1846W        W 5590   0.477   0.109   2.230  0.1098  0.0757  0.1986
 1847W        W 5591   1.590   0.978   2.681  0.1543  0.0299  0.0013
 1848W        W 5592   7.071   5.427  11.683  0.0452 -0.3369  0.2329
 1849W        W 5593   2.475   3.870   3.433 -0.4642 -0.0813 -0.3371
 1850W        W 5594   4.646   3.659   8.733  0.1823  0.0880  0.2383
 1851W        W 5595   9.238   2.685  11.689  0.0188 -0.4763 -0.1137
 1852W        W 5596   2.552   9.308   2.806 -0.0105 -0.1813 -0.1233
 1853W        W 5597   5.550   3.540   9.208 -0.0598  0.0723  0.1887
 1854W        W 5598   0.645   1.905   3.193  0.2806  0.1634 -0.1298
 1855W        W 5599   2.221   6.149  11.126 -0.0071 -0.0418 -0.0838
 1856W        W 5600   7.855   8.362   2.902  0.2777 -0.4346  0.1653
 1857W        W 5601   8.283   0.207   2.238 -0.1489  0.0186  0.1425
 1858W        W 5602   4.212   5.742   1.303  0.0497 -0.0424  0.3846
 1859W        W 5603   3.246   6.219   9.742  0.0900  0.2526  0.3448
 1860W        W 5604   4.285   6.140   0.914 -0.1658  0.1490  0.0834
 1861W        W 5605   5.622   1.092   3.742 -0.0384 -0.0760 -0.4321
 1862W        W 5606   3.834   7.870   3.138  0.0364 -0.2920  0.0604
 1863W        W 5607   3.475   9.095   0.707 -0.1189  0.2066  0.1225
 1864W        W 5608   6.755   5.611  11.208 -0.0224  0.2978  0.2846
 1865W        W 5609   6.792   8.749   8.068  0.0802 -0.1288 -0.1437
 1866W        W 5610   6.045   1.581   2.598  0.2032 -0.1225  0.0164
 1867W        W 5611   1.997   5.016   8.691  0.1702  0.2958 -0.5422
 1868W        W 5612   4.959   9.396  10.072  0.1278  0.1228 -0.0879
 1869W        W 5613   2.457   0.787  10.493 -0.1157  0.1288  0.0125
 1870W        W 5614   4.805   0.187   9.791 -0.0738 -0.2539 -0.0469
 1871W        W 5615   5.644   2.742   3.648 -0.1096  0.2347 -0.0448
 1872W        W 5616   2.752   1.135   0.075 -0.1070  0.1005  0.1059
 1873W        W 5617   0.780   2.584   0.229 -0.0284  0.1502  0.0292
 1874W        W 5618   6.948   1.760   1.018 -0.1552  0.3478 -0.2471
 1875W        W 5619   4.713   4.608   1.911  0.0017  0.0468 -0.2205
 1876W        W 5620   8.323   9.601   3.336 -0.0085  0.0830  0.3856
 1877W        W 5621   6.410   1.633  10.346  0.1250  0.1092  0.0208
 1878W        W 5622   6.347   7.590   2.403  0.0361 -0.1700  0.2885
 1879W        W 5623   2.080   1.989   3.744 -0.0773 -0.0543  0.1486
 1880W        W 5624   6.875   1.159   2.515 -0.3458 -0.2721  0.1145
 1881W        W 5625   5.731   2.813  11.825 -0.1212 -0.2258 -0.2755
 1882W        W 5626   3.418   4.452  10.770  0.0119 -0.0991 -0.1668
 1883W        W 5627   4.992   4.066   2.493  0.1845 -0.2115 -0.0217
 1884W        W 5628   3.407   4.707  10.331 -0.2023 -0.1029  0.1626
 1885W        W 5629   9.206   6.442  10.002  0.0532  0.0114 -0.2008
 1886W        W 5630   7.087   7.553   8.709  0.3672 -0.1672  0.0889
 1887W        W 5631   9.359   0.606   3.164  0.0590  0.2484  0.1857
 1888W        W 5632   0.061   0.327   8.563 -0.2652  0.2298 -0.1683
 1889W        W 5633   7.361   9.209   1.188 -0.0259 -0.0448  0.0142
 1890W        W 5634   4.599   4.782  11.546  0.2914  0.1588 -0.0940
 1891W        W 5635   7.786   2.241   3.713  0.1284 -0.0192  0.0892
 1892W        W 5636   8.576   2.557  10.488 -0.2835  0.0616  0.2024
 1893W        W 5637   0.529   0.572   7.885  0.4002  0.3289  0.3355
 1894W        W 5638   4.055   8.866   3.200  0.0965  0.0089 -0.2527
 1895W        W 5639   1.896   9.105   2.120  0.0533 -0.1109 -0.0327
 1896W        W 5640   5.207   1.812   1.770  0.0266 -0.0165 -0.0293
 1897W        W 5641   4.346   2.842   9.802  0.0341  0.0304 -0.1159
 1898W        W 5642   4.525   3.679  12.099  0.2027 -0.2042 -0.4715
 1899W        W 5643   2.090   0.164   7.765 -0.0153  0.0557 -0.0852
 1900W        W 5644   6.980   3.708  10.283  0.0598 -0.0027  0.4202
 1901W        W 5645   1.665   7.950   8.939  0.1689 -0.1910 -0.1354
 1902W        W 5646   5.502   9.578   3.243 -0.1032  0.0212  0.3313
 1903W        W 5647   4.560   1.147   9.670  0.0538  0.0066 -0.0418
 1904W        W 5648   1.890   2.823   0.775  0.0927  0.3422  0.1568
 1905W        W 5649   3.454   9.624   3.318  0.1745 -0.3578  0.1453
 1906W        W 5650   2.401   7.308   2.143 -0.0292  0.1254  0.2694
 1907W        W 5651   8.206   8.553   1.761 -0.1151 -0.0908 -0.0937
 1908W        W 5652   3.538   2.080   1.095  0.0432  0.1133 -0.1972
 1909W        W 5653   8.357   2.934   9.220  0.0577  0.2218 -0.0427
 1910W        W 5654   4.850   2.775   3.335  0.1838  0.3607  0.1531
 1911W        W 5655   6.337   0.439   9.519  0.2234 -0.0025  0.0326
 1912W        W 5656   6.596   1.938   1.833 -0.1484 -0.1903  0.0143
 1913W        W 5657   5.028   4.032   3.481 -0.2408  0.2445  0.0869
 1914W        W 5658   0.508   1.210   9.330  0.0975 -0.1398 -0.0891
 1915W        W 5659   5.021   8.642   8.767  0.2689 -0.0081  0.2183
 1916W        W 5660   6.283   7.821  12.126  0.2565 -0.3109 -0.3146
 1917W        W 5661   7.498   6.886   0.570  0.1510  0.2868 -0.2165
 1918W        W 5662  10.154   4.215  12.003  0.0109 -0.1603  0.1708
 1919W        W 5663   8.989   9.366   8.514 -0.1289  0.0198 -0.1730
 1920W        W 5664   7.909   8.462   0.995 -0.4376  0.2560  0.1116
 1921W        W 5665   9.542   4.470   9.200 -0.0098 -0.3476  0.1981
 1922W        W 5666   3.677   9.277  10.131  0.3246 -0.2314  0.0394
 1923W        W 5667   8.264  10.172   8.174 -0.1112  0.3051  0.0063
 1924W        W 5668   7.702   5.302   9.721 -0.0349 -0.1595 -0.5300
 1925W        W 5669   2.249   0.619   1.920 -0.0232  0.0528  0.0134
 1926W        W 5670   7.409   0.630   3.663  0.0562  0.0229 -0.0560
 1927W        W 5671   9.228   6.917   7.749  0.0295  0.0270  0.0977
 1928W        W 5672   7.892   3.774  10.569  0.0454  0.1895 -0.0294
 1929W        W 5673   3.625   5.319   3.020  0.2200 -0.1495 -0.2438
 1930W        W 5674   4.678   6.122  12.035  0.1608 -0.1165  0.0364
 1931W        W 5675   3.185   2.062   7.914  0.0523  0.0148 -0.2792
 1932W        W 5676   4.469   5.264  11.583 -0.0805 -0.2585  0.1410
 1933W        W 5677   4.103   7.120   1.456  0.0138  0.0790  0.1695
 1934W        W 5678   9.159   2.994   1.850  0.0257  0.0679 -0.1546
 1935W        W 5679   6.516   1.492   0.958  0.1644 -0.2188 -0.2203
 1936W        W 5680   0.071   9.266  10.663 -0.0419  0.0070 -0.1535
 1937W        W 5681   5.338   6.296  10.096 -0.1152  0.0429 -0.1167
 1938W        W 5682   7.665   8.382   9.222 -0.2707  0.0502  0.0336
 1939W        W 5683   5.919   7.487   2.154 -0.2200  0.1338  0.0305
 1940W        W 5684   6.777   0.220   0.623 -0.0232 -0.3154 -0.0656
 1941W        W 5685   0.027   5.365  11.808 -0.0392  0.0323 -0.1678
 1942W        W 5686   8.140   1.793   2.870 -0.0650  0.0073 -0.1529
 1943W        W 5687   9.123   1.282   9.068  0.0763  0.1225  0.1188
 1944W        W 5688   6.496   5.571   3.121 -0.2873  0.4000  0.3402
 1945W        W 5689   3.763   3.521   3.344 -0.1268  0.0754 -0.1609
 1946W        W 5690   0.772   8.112  10.103  0.0570  0.0988 -0.4097
 1947W        W 5691   4.108   6.819   9.571 -0.5265 -0.2825  0.1531
 1948W        W 5692   7.942   3.234  10.523  0.1045 -0.0402 -0.0571
 1949W        W 5693   0.590   3.318  10.281  0.0332 -0.2971  0.1619
 1950W        W 5694   8.316   7.639  11.009 -0.0888  0.1395 -0.0229
 1951W        W 5695   4.023   0.816   0.445 -0.1582 -0.1083 -0.2078
 1952W        W 5696   7.590   7.030   9.831  0.4219  0.1228  0.3175
 1953W        W 5697   9.697   8.725  10.952  0.3030 -0.1270  0.1240
 1954W        W 5698   8.505   1.723   8.598 -0.0467  0.0121  0.4027
 1955W        W 5699   2.485   4.445   0.623  0.0046  0.2708 -0.0793
 1956W        W 5700   0.791   8.703  11.560 -0.2607  0.2032  0.0975
 1957W        W 5701   9.365  10.167   2.934  0.4516  0.1225 -0.0500
 1958W        W 5702   8.505   3.687   0.306  0.1077  0.2070 -0.4273
 1959W        W 5703   3.852   3.593  11.564  0.0708 -0.3536 -0.0499
 1960W        W 5704   2.100   7.631   0.890  0.2365  0.0055  0.1801
 1961W        W 5705   5.612   6.633   2.030 -0.2303  0.1216  0.2324
 1962W        W 5706   8.129   0.884  10.719 -0.2672 -0.1254  0.0692
 1963W        W 5707   5.356   2.873   3.201 -0.0276  0.1423  0.3020
 1964W        W 5708   5.807   9.581   9.840 -0.0023  0.0079  0.1183
 1965W        W 5709   2.479   4.990  10.932  0.2350 -0.3283  0.1566
 1966W        W 5710   1.836   0.238   8.712 -0.1909 -0.0832 -0.0419
 1967W        W 5711   2.758   7.905   1.522  0.2463 -0.2544  0.0882
 1968W        W 5712   4.706   2.194  10.912 -0.1303  0.0996  0.0127
 1969W        W 5713   3.441   8.085   8.354  0.0695  0.2550 -0.1575
 1970W        W 5714   0.141   2.176   8.714  0.1920 -0.0988  0.1768
 1971W        W 5715   7.567   9.606   8.555  0.2604  0.4082 -0.1592
 1972W        W 5716   5.707   7.196  11.980 -0.1696 -0.0442  0.0332
 1973W        W 5717   2.656   5.799   8.594  0.0856 -0.3203 -0.1293
 1974W        W 5718   4.197   3.511   3.663 -0.2965 -0.3758  0.0205
 1975W        W 5719   9.411   7.930   6.919 -0.2218 -0.0763  0.1044
 1976W        W 5720   2.063   2.540  11.116 -0.2949 -0.0937  0.2612
 1977W        W 5721   9.357   7.061   8.637 -0.0847 -0.5022 -0.5698
 1978W        W 5722   3.205   6.894   8.204 -0.0605 -0.4301 -0.0205
 1979W        W 5723   7.683   1.887   1.122 -0.1984  0.2301  0.2114
 1980W        W 5724   6.087   5.736   2.895  0.0819  0.2215  0.1725
 1981W        W 5725   5.132   1.605   2.897  0.3231 -0.3167 -0.0225
 1982W        W 5726   0.994   2.917   3.390  0.1354 -0.1935 -0.1016
 1983W        W 5727   2.657   9.806   3.324 -0.1952 -0.1280  0.3045
 1984W        W 5728   3.338   4.200  10.354  0.0428  0.0804  0.1687
 1985W        W 5729   9.972   4.675  11.850  0.0178 -0.3764 -0.3127
 1986W        W 5730   5.359   6.696   2.499  0.0256 -0.0140 -0.4701
 1987W        W 5731   1.578   5.186   0.025 -0.1063  0.0230 -0.0546
 1988W        W 5732   4.944   0.121   3.450  0.0566 -0.1222 -0.1115
 1989W        W 5733   3.504   2.542   9.733 -0.2143 -0.1121  0.1288
 1990W        W 5734   4.267   3.088   1.760  0.0726  0.0922  0.3052
 1991W        W 5735   7.093   3.802   9.449  0.3773 -0.2622  0.1443
 1992W        W 5736   9.091   1.852   9.981 -0.0633 -0.2449 -0.2729
 1993W        W 5737   5.594   6.891   8.173  0.0278 -0.0650  0.0735
 1994W        W 5738   3.159   5.694  10.082  0.3961 -0.2195 -0.0290
 1995W        W 5739   1.487   6.850  10.926 -0.0319 -0.2836  0.1005
 1996W        W 5740   7.701   6.639   0.941 -0.1317 -0.0685  0.1658
 1997W        W 5741   5.734   8.254   9.585  0.0371 -0.0983 -0.1156
 1998W        W 5742   9.491   4.213  11.172 -0.1348  0.0183  0.2947
 1999W        W 5743   8.319   7.261  11.845  0.3157 -0.2625 -0.4100
 2000W        W 5744   5.045   7.102  10.808 -0.0419  0.0937  0.1519
 2001W        W 5745   4.842   6.667   2.467 -0.0760 -0.0541 -0.5688
 2002W        W 5746   2.658   2.635  10.454 -0.1403 -0.1733 -0.1276
 2003W        W 5747   7.140   2.558   1.461  0.1194  0.1204 -0.1490
 2004W        W 5748   8.149  10.053   0.653  0.3780  0.0338  0.0064
 2005W        W 5749   5.526   9.044   3.431  0.3010  0.3374 -0.3842
 2006W        W 5750   5.687   6.617   9.949 -0.0964 -0.0542 -0.2240
 2007W        W 5751   8.940   3.920   0.596  0.1620 -0.0529 -0.1491
 2008W        W 5752   6.546   2.649   0.779 -0.1794 -0.1005 -0.1215
 2009W        W 5753   2.908   4.650   0.974 -0.4067 -0.1834  0.1979
 2010W        W 5754   0.532   6.055  11.482  0.0133  0.0092 -0.2476
 2011W        W 5755   1.195   4.367  11.251 -0.0388 -0.0023 -0.0934
 2012W        W 5756   6.532   8.471  11.315  0.2044  0.0493  0.0756
 2013W        W 5757   1.442   4.472   1.239 -0.3007  0.0304  0.3110
 2014W        W 5758   4.438   7.412   2.691 -0.0940 -0.1742 -0.0819
 2015W        W 5759   5.270   5.676  10.892  0.0544 -0.4821 -0.0423
 2016W        W 5760  10.173   6.025   9.685  0.2798  0.1370  0.1748
 2017W        W 5761   6.931   9.550   7.793  0.2277 -0.2096 -0.0959
 2018W        W 5762   1.234   0.237   3.521  0.1169  0.1706  0.0927
 2019W        W 5763   7.753   2.319   7.428  0.0890 -0.1881  0.0626
 2020W        W 5764   7.519   3.791  11.624 -0.1633  0.3716 -0.1966
 2021W        W 5765   7.593   4.730  10.510 -0.2241  0.0279 -0.0808
 2022W        W 5766   9.910   6.308   0.576 -0.1123  0.2569  0.1468
 2023W        W 5767   7.475   6.672   6.787  0.0762  0.0043 -0.0629
 2024W        W 5768   2.222   7.238  10.469 -0.3093  0.2188 -0.2683
 2025W        W 5769   4.668   5.932   1.349  0.1045 -0.1206 -0.1162
 2026W        W 5770   4.692   9.186   9.078 -0.0675 -0.0735 -0.0449
 2027W        W 5771   7.179   8.554  10.482  0.2178  0.0633 -0.0325
 2028W        W 5772   0.351   2.281  11.324 -0.1318  0.1326  0.2937
 2029W        W 5773   0.885   3.609  11.176 -0.0182  0.2389  0.3912
 2030W        W 5774   9.161   0.307   1.622  0.3810 -0.0971  0.1646
 2031W        W 5775   7.653   6.113   2.420 -0.3048  0.0533 -0.1481
 2032W        W 5776   1.162   9.519  12.023  0.2834 -0.0068 -0.0552
 2033W        W 5777   5.919   9.964   9.463 -0.0853 -0.0085 -0.0601
 2034W        W 5778   1.022   3.752   1.632  0.4334  0.1764  0.0139
 2035W        W 5779   4.056   4.803  11.363 -0.2664  0.0905 -0.3668
 2036W        W 5780   3.001   0.314   8.236  0.0184 -0.2524 -0.0146
 2037W        W 5781   0.673   6.021   1.356  0.1682  0.1543 -0.1450
 2038W        W 5782   7.457   4.945   8.679 -0.1080  0.0686  0.0154
 2039W        W 5783   8.281   7.735   2.865  0.0753  0.0209 -0.0416
 2040W        W 5784   7.087   8.641   2.238  0.0132  0.0447  0.2816
 2041W        W 5785   0.093   9.524  11.180  0.0278  0.1360 -0.3860
 2042W        W 5786   4.987   2.546   2.251  0.0909 -0.1764  0.0710
 2043W        W 5787   9.155   3.987   8.636 -0.0322 -0.0118 -0.0220
 2044W        W 5788   7.095   5.932   1.567  0.1765  0.0083 -0.2439
 2045W        W 5789   6.442   3.017  11.418 -0.0519  0.0194  0.2745
 2046W        W 5790   7.417   4.244   8.034 -0.0639 -0.0145  0.2816
 2047W        W 5791   8.353   3.328  10.135 -0.0948  0.2449  0.0482
 2048W        W 5792  10.193   2.165   9.935  0.1154 -0.0043  0.0879
 2049W        W 5793   2.759   2.789   1.427 -0.0148 -0.0047 -0.2489
 2050W        W 5794   5.955   2.006   0.454 -0.1703  0.0964 -0.2524
 2051W        W 5795   3.334   4.726   9.421 -0.2058  0.0671 -0.1259
 2052W        W 5796   0.713   8.120   1.425 -0.0912 -0.0244  0.1222
 2053W        W 5797   2.801   5.020   1.690  0.0965  0.1073 -0.2596
 2054W        W 5798   1.888   7.051  11.234  0.2896  0.1790  0.1825
 2055W        W 5799   7.599   6.702   8.482 -0.4528  0.0388 -0.2897
 2056W        W 5800   1.164   9.650   3.159 -0.2737 -0.0654 -0.0206
 2057W        W 5801   3.112   7.668   1.268 -0.0893  0.1805 -0.1442
 2058W        W 5802   3.725   3.508   2.874  0.2308 -0.2788  0.3922
 2059W        W 5803   8.695   1.678   3.067 -0.1558  0.1560 -0.2272
 2060W        W 5804   5.601   0.594   7.797 -0.2848 -0.0369  0.0196
 2061W        W 5805   5.464   9.490  10.320  0.2536 -0.1656 -0.2383
 2062W        W 5806   8.895   6.607  11.528  0.2149  0.4052  0.2454
 2063W        W 5807   8.765   9.650   9.316  0.1216  0.1422 -0.2471
 2064W        W 5808   9.343   8.323   0.967  0.2127 -0.0659  0.0355
 2065W        W 5809   3.954   5.667  10.442 -0.0777  0.4039  0.2647
 2066W        W 5810   5.122   7.024   0.005  0.2217  0.2604 -0.0885
 2067W        W 5811   7.958   2.753   1.116  0.1437 -0.1165 -0.4198
 2068W        W 5812   0.281   6.863  10.378  0.2283 -0.0057  0.2738
 2069W        W 5813   1.164   2.031   3.370  0.0588  0.0451 -0.0368
 2070W        W 5814   1.094   4.122   3.955  0.0645 -0.1038  0.2866
 2071W        W 5815   0.790   7.235  11.550  0.2569  0.0653 -0.1828
 2072W        W 5816   0.535   9.873   8.295  0.1083  0.2491  0.0602
 2073W        W 5817   5.930   9.717   9.034  0.6824 -0.1728  0.1707
 2074W        W 5818   7.282   9.502   2.902  0.1310  0.1144  0.1457
 2075W        W 5819   0.608   8.883   3.380 -0.1032  0.0319  0.2258
 2076W        W 5820   7.482   5.658   1.411 -0.1666  0.3611 -0.1197
 2077W        W 5821   4.077   1.618   0.093 -0.0954 -0.0868 -0.0203
 2078W        W 5822   0.396   6.447  10.068 -0.0146  0.1947  0.0882
 2079W        W 5823   5.163   0.260   1.027 -0.1640 -0.4434  0.0661
 2080W        W 5824   0.147   9.697   9.133 -0.2174  0.1439  0.4836
 2081W        W 5825   2.916   0.102   2.428 -0.0220  0.1615  0.1265
 2082W        W 5826   1.587   2.196   3.695  0.0078 -0.1767 -0.3349
 2083W        W 5827   9.646   5.307   2.168  0.1197  0.1876  0.0652
 2084W        W 5828   9.865   9.318   3.425  0.2025  0.1095  0.2504
 2085W        W 5829   4.993   9.377   2.435 -0.0869 -0.0877 -0.0871
 2086W        W 5830   7.995   6.418   9.552 -0.0792  0.0275 -0.1693
 2087W        W 5831   8.406   4.133   7.872 -0.1015  0.0364  0.2125
 2088W        W 5832   9.942   7.645   1.063  0.1511 -0.0689 -0.0175
 2089W        W 5833   6.358   3.291  11.047 -0.3428  0.2008  0.1642
 2090W        W 5834   2.643   9.851   9.337 -0.1803 -0.2694 -0.0478
 2091W        W 5835   4.878   3.202   2.915  0.3075 -0.1828  0.0025
 2092W        W 5836   0.281   8.429  10.033 -0.1379  0.2193 -0.0575
 2093W        W 5837   8.451   9.839  11.515 -0.2950 -0.0313  0.1943
 2094W        W 5838   6.491   2.376   4.128  0.0258 -0.2399 -0.0405
 2095W        W 5839   0.488   3.103   0.215 -0.2367 -0.3482  0.0803
 2096W        W 5840   9.208   9.892   3.447 -0.0041 -0.1359  0.6852
 2097W        W 5841   1.529   2.756   3.714 -0.1056 -0.0360  0.0574
 2098W        W 5842   9.077   3.033  12.182  0.0127 -0.2072  0.0041
 2099W        W 5843   8.113   7.793   8.714  0.1095  0.0824 -0.3827
 2100W        W 5844   2.475   9.980   0.258  0.4040  0.0500  0.1453
 2101W        W 5845   0.262   4.158   1.398  0.1013  0.1598 -0.0520
 2102W        W 5846   1.345   6.641  10.207  0.0951  0.1012  0.0118
 2103W        W 5847   0.313   6.912   9.513  0.2417  0.2106 -0.0347
 2104W        W 5848   3.677   4.327   3.646  0.2451  0.1816  0.2514
 2105W        W 5849   4.117   8.337   9.963  0.0880 -0.1405  0.1224
 2106W        W 5850   5.231   1.206  11.456 -0.0012 -0.1889 -0.2205
 2107W        W 5851   2.529   5.302   0.023  0.1610  0.3274  0.1651
 2108W        W 5852   5.727   8.550   0.086 -0.0930  0.0431 -0.4537
 2109W        W 5853   2.579   2.926   8.816 -0.1722 -0.1057 -0.2874
 2110W        W 5854   4.902   2.405   1.274  0.1947  0.1537  0.3599
 2111W        W 5855   4.046   9.488   7.385 -0.2124  0.1048 -0.1095
 2112W        W 5856   6.094   0.632   0.239  0.0141 -0.2706 -0.1553
 2113W        W 5857   7.835   3.994   7.865  0.0953  0.2469  0.0275
 2114W        W 5858   2.638   7.566  11.302  0.1819 -0.2654 -0.2710
 2115W        W 5859   6.726   1.223   9.444  0.0487 -0.0429  0.2393
 2116W        W 5860   6.935   7.730   9.308  0.1895 -0.0407  0.0340
 2117W        W 5861   7.204   6.276   9.285  0.0469  0.0716 -0.0234
 2118W        W 5862   1.849   1.349   1.699  0.0802  0.0673 -0.1259
 2119W        W 5863   3.125   0.798   0.055 -0.3709 -0.1594 -0.1525
 2120W        W 5864   2.122   5.249   0.364  0.0548  0.0912 -0.0366
 2121W        W 5865   8.076   6.840   9.802  0.1211  0.1868  0.2203
 2122W        W 5866   2.462   2.688   0.956  0.0845  0.2458 -0.0021
 2123W        W 5867   6.086  10.013   1.036 -0.2389  0.0797  0.1071
 2124W        W 5868   3.541   3.856  11.055  0.0443  0.1960 -0.1592
 2125W        W 5869   1.275   4.569   3.612  0.0376  0.0950 -0.0726
 2126W        W 5870   9.779   0.160   8.689  0.0076  0.3448  0.0784
 2127W        W 5871   2.952   4.921   9.738 -0.1369  0.1158 -0.0525
 2128W        W 5872   9.448   8.059   0.119  0.0850 -0.0686 -0.2061
 2129W        W 5873   1.274   1.473   3.507  0.0841 -0.1158 -0.1590
 2130W        W 5874   4.847   6.634  10.492  0.0003 -0.1201  0.1972
 2131W        W 5875   0.221   5.263   2.560 -0.0371  0.2306 -0.0618
 2132W        W 5876   4.168   6.916   2.626 -0.2725 -0.2280  0.0327
 2133W        W 5877   9.991   7.120   1.340 -0.4563  0.2251  0.3460
 2134W        W 5878   9.865   0.439  10.096  0.1178  0.3109  0.0948
 2135W        W 5879   7.414   6.289   8.214 -0.2359 -0.1327  0.0575
 2136W        W 5880   5.619   2.231   1.744  0.1066 -0.2401 -0.2492
 2137W        W 5881  10.129   7.650  10.607  0.0453 -0.2922 -0.0957
 2138W        W 5882   0.237   9.360  10.180  0.1377  0.1390 -0.1359
 2139W        W 5883   6.252   9.331  12.093  0.0284 -0.0985 -0.0019
 2140W        W 5884   7.789   7.318   7.539 -0.0440  0.0787  0.1371
 2141W        W 5885   2.373   3.333  11.233  0.2554  0.0398 -0.1872
 2142W        W 5886   8.624   4.902   2.698 -0.0364 -0.1910  0.1258
 2143W        W 5887   3.150   9.193  11.815 -0.0970  0.0354  0.0820
 2144W        W 5888   5.431   3.235  11.303 -0.1151 -0.0895 -0.0942
 2145W        W 5889   7.958   3.878  11.838 -0.1997  0.0093 -0.1152
 2146W        W 5890   1.397   8.839   1.369  0.2271  0.1774  0.1680
 2147W        W 5891   4.315   4.862   8.938  0.2724  0.0881  0.0629
 2148W        W 5892   3.310   5.988   0.992  0.4655 -0.0898 -0.2045
 2149W        W 5893   2.748   9.474   1.880 -0.0825  0.0591 -0.0899
 2150W        W 5894   9.890   1.126   0.900  0.3383  0.2571  0.2534
 2151W        W 5895   5.726   4.924   2.955  0.0493  0.0468 -0.1064
 2152W        W 5896   8.526   1.751  10.662  0.0407 -0.1077  0.0219
 2153W        W 5897   9.261   7.395   0.800  0.3458 -0.1115  0.0072
 2154W        W 5898   0.616   9.729  10.250 -0.0074 -0.1933 -0.1599
 2155W        W 5899   9.834   0.968   0.054 -0.1432  0.1847 -0.0562
 2156W        W 5900   2.309   4.059   0.396 -0.1984  0.1365 -0.0291
 2157W        W 5901   5.739   7.566   3.109  0.2868  0.3490 -0.1101
 2158W        W 5902   7.090   7.715   2.747 -0.0578  0.3593 -0.0821
 2159W        W 5903   9.385   1.904   2.550 -0.0275  0.1002 -0.2043
 2160W        W 5904   0.035   9.139  11.647  0.1380 -0.4923 -0.0082
 2161W        W 5905   6.733   3.669   2.343 -0.2027 -0.0487  0.1547
 2162W        W 5906   0.456   5.666  11.885  0.0441 -0.0758 -0.2460
 2163W        W 5907   3.349   0.963   2.246 -0.0031 -0.2984  0.1724
 2164W        W 5908   7.729   4.887   3.422  0.0333  0.1719 -0.0454
 2165W        W 5909   0.606   4.339  11.942 -0.1002  0.4891 -0.2839
 2166W        W 5910   0.981   2.355  12.058 -0.2564 -0.0466  0.1714
 2167W        W 5911   6.193   2.651  11.798  0.0826 -0.4158 -0.0087
 2168W        W 5912   4.712   1.071  10.894  0.0176 -0.1861  0.0181
 2169W        W 5913   1.217   8.670   9.992 -0.2556 -0.3417  0.0509
 2170W        W 5914   8.173   7.012  10.909  0.2880 -0.1650  0.0906
 2171W        W 5915   3.254   3.388   2.700 -0.1415  0.3505 -0.0825
 2172W        W 5916   9.542   2.970  11.965 -0.2003  0.1414  0.3384
 2173W        W 5917  10.084   4.059  11.462  0.1685 -0.0767  0.0918
 2174W        W 5918   5.251   7.719   3.919  0.1220 -0.1214  0.1243
 2175W        W 5919   4.394   7.176  11.846  0.1995  0.1138 -0.5268
 2176W        W 5920   3.135   5.796   9.530  0.2459  0.3589  0.1234
 2177W        W 5921   9.130   4.009   1.106 -0.3067 -0.1689  0.3806
 2178W        W 5922   6.957   1.435  10.282 -0.0713 -0.0792 -0.1209
 2179W        W 5923   3.208   9.598   7.831 -0.1841 -0.1481  0.2741
 2180W        W 5924   8.713   2.739  11.816  0.3912 -0.2022  0.0727
 2181W        W 5925   4.168   4.183   1.146  0.1988  0.1068 -0.2680
 2182W        W 5926   2.017   6.689   0.043 -0.4462 -0.2222  0.2051
 2183W        W 5927  10.168   0.011  10.132  0.1076 -0.0684  0.0362
 2184W        W 5928   8.434   2.258  11.669  0.2186  0.0212  0.4575
 2185W        W 5929   2.964   4.198   0.723 -0.0032  0.0785 -0.0682
 2186W        W 5930   2.359   7.268   9.230 -0.4104 -0.1616 -0.3899
 2187W        W 5931  10.072   2.431   2.880  0.1692 -0.0163 -0.0616
 2188W        W 5932   0.177   7.499   1.814 -0.1497 -0.2306 -0.3763
 2189W        W 5933   5.427   0.318  11.089  0.1909  0.3425  0.1910
 2190W        W 5934   7.859   7.212   0.650 -0.1243 -0.1274  0.3922
 2191W        W 5935   0.325   2.706   1.514  0.1409  0.2356  0.0541
 2192W        W 5936   7.812   4.699  11.301  0.0228  0.1436  0.2893
 2193W        W 5937   4.065   1.049  12.089 -0.1106 -0.0295 -0.1719
 2194W        W 5938   0.466   7.098   1.740 -0.1111  0.0717  0.0194
 2195W        W 5939   7.515   5.467  11.535  0.0395 -0.1355 -0.4225
 2196W        W 5940   8.171   6.689   0.883  0.1836  0.2099 -0.2441
 2197W        W 5941   7.411  10.145   1.143  0.2561 -0.1249 -0.0884
 2198W        W 5942   8.211  10.018   1.665  0.1277 -0.1261 -0.2830
 2199W        W 5943   6.959   6.857   1.563 -0.0346 -0.1437 -0.1792
 2200W        W 5944   6.636   7.115   3.148 -0.1498 -0.1167  0.0420
 2201W        W 5945   3.401   3.805   9.215  0.1445  0.2354  0.0626
 2202W        W 5946   3.770   8.267  10.354 -0.1153  0.2902 -0.4049
 2203W        W 5947   2.699   0.579   0.796  0.2835 -0.4408 -0.1266
 2204W        W 5948   6.798   1.945  11.090 -0.2161 -0.0149  0.1351
 2205W        W 5949   9.949   4.077   2.479 -0.1502 -0.1945  0.3217
 2206W        W 5950   7.079   5.684   3.254  0.1517  0.3145  0.4084
 2207W        W 5951   6.650   4.126   2.507  0.2219  0.2905 -0.0249
 2208W        W 5952   9.268   4.578   1.713  0.1023 -0.0718 -0.0045
 2209W        W 5953   3.710   6.462   9.623  0.2973 -0.1182 -0.1796
 2210W        W 5954   0.299   2.746  11.616 -0.0527  0.0277  0.1330
 2211W        W 5955   3.406   7.299  10.593  0.1771  0.0849  0.1309
 2212W        W 5956   3.277   2.719   2.389  0.1057  0.2692  0.4268
 2213W        W 5957   3.647   8.178   0.783  0.0469 -0.0955 -0.0043
 2214W        W 5958   5.084   8.815   2.720  0.1376  0.0096 -0.0530
 2215W        W 5959   5.233   2.518  11.894 -0.0763  0.2213  0.0310
 2216W        W 5960   3.125   3.078   0.586 -0.2220 -0.1356 -0.0528
 2217W        W 5961   7.867   6.809   7.037 -0.4227 -0.5394 -0.2063
 2218W        W 5962   4.222   5.417   2.141  0.2900  0.0115  0.0352
 2219W        W 5963   6.480   3.890   0.954  0.0194 -0.3498  0.1400
 2220W        W 5964   9.521   4.797   2.440 -0.2744  0.0858  0.1771
 2221W        W 5965   1.533   3.147  10.150  0.0290  0.5516  0.1996
 2222W        W 5966   6.093   6.957   1.971 -0.2112 -0.3873 -0.2265
 2223W        W 5967   9.931   4.527   2.192  0.2648 -0.2488 -0.3638
 2224W        W 5968   2.220   1.706   8.057  0.0185  0.0282 -0.0092
 2225W        W 5969   0.250   7.837   2.263  0.0118 -0.1029  0.1497
 2226W        W 5970  10.153   5.297  10.102  0.3310  0.0178  0.0411
 2227W        W 5971   1.899   1.228  11.668  0.0079  0.2946  0.3994
 2228W        W 5972   4.008   8.650   9.209  0.1909 -0.1958 -0.1290
 2229W        W 5973   4.236   3.581  10.391  0.1945 -0.0083  0.1162
 2230W        W 5974   0.460   0.144   1.755 -0.1031 -0.0508 -0.1834
 2231W        W 5975   6.511   5.034  10.396 -0.0446  0.1237 -0.0092
 2232W        W 5976   7.266   0.678  11.580 -0.0033  0.0396  0.0783
 2233W        W 5977   7.103   7.628   0.094  0.0751 -0.1131 -0.0515
 2234W        W 5978   8.428   5.642   9.332 -0.1561 -0.1455 -0.0147
 2235W        W 5979   1.726   9.092   8.953  0.1820 -0.0023  0.3231
 2236W        W 5980   5.420   8.143  10.450 -0.0322  0.0191 -0.1152
 2237W        W 5981   8.304   8.104   0.083  0.2154 -0.0262 -0.0657
 2238W        W 5982   8.430   7.132   0.527  0.2523 -0.1078 -0.2080
 2239W        W 5983   6.158   1.296  11.263  0.1067  0.0027 -0.0219
 2240W        W 5984   8.271   4.454   1.302  0.2315  0.3041 -0.3013
 2241W        W 5985   0.595   3.167   9.530 -0.2312  0.0461  0.0545
 2242W        W 5986   3.746   1.175   8.119  0.1746 -0.0596  0.2187
 2243W        W 5987   5.776   8.286   3.160  0.4292  0.1987 -0.2157
 2244W        W 5988   3.517   2.720  10.228  0.2596 -0.2764 -0.1366
 2245W        W 5989   1.245   9.346  10.906 -0.3755 -0.3665  0.1894
 2246W        W 5990   8.949   7.150   2.320 -0.2236 -0.0953 -0.0446
 2247W        W 5991   0.990   2.979   1.261  0.1174 -0.3132 -0.0779
 2248W        W 5992   1.803   2.835  10.605  0.0539  0.0752 -0.0488
 2249W        W 5993   4.167   6.227   1.444 -0.2806  0.0022  0.0465
 2250W        W 5994   2.909   2.274   2.429  0.1361 -0.0779 -0.0417
 2251W        W 5995   5.402   0.207  11.595  0.1205  0.3446 -0.1882
 2252W        W 5996   5.831   8.079  10.205  0.0438 -0.3064  0.1346
 2253W        W 5997   4.379   8.018   7.960  0.1356  0.0775  0.0092
 2254W        W 5998   5.705   3.203  12.141 -0.0774  0.0026 -0.2872
 2255W        W 5999   6.481   6.878   0.222  0.3132 -0.2227 -0.0055
 2256W        W 6000   2.551   1.537   9.100 -0.0647 -0.3577 -0.2117
 2257W        W 6001   0.646   1.495  11.898 -0.1570  0.3430 -0.1255
 2258W        W 6002   2.301   1.281  11.956  0.0219  0.0817  0.0317
 2259W        W 6003   4.916   5.269  10.747  0.1633 -0.0713  0.1152
 2260W        W 6004   3.225   1.360   1.416 -0.0780  0.1193  0.2961
 2261W        W 6005  10.022   0.963   1.381 -0.0387  0.0621  0.3789
 2262W        W 6006   0.880   0.361   9.218  0.2880 -0.0489 -0.0085
 2263W        W 6007   9.598   0.579  10.510  0.1009 -0.1711 -0.1810
 2264W        W 6008   3.022   7.583   9.751 -0.0111 -0.0332 -0.0492
 2265W        W 6009   1.321   9.975   1.848 -0.0262  0.2244  0.2099
 2266W        W 6010  10.092   8.380   9.672 -0.0547  0.0127 -0.0283
 2267W        W 6011   2.840   7.064  11.350  0.4119 -0.1255  0.0953
 2268W        W 6012   0.127   5.671  10.958 -0.2457 -0.0267  0.0270
 2269W        W 6013   2.576   6.759   8.298  0.2044 -0.3312  0.1883
 2270W        W 6014   2.750   7.417   8.948 -0.2586 -0.1755  0.1458
 2271W        W 6015   4.199   0.379   0.726 -0.1579 -0.4923 -0.2395
 2272W        W 6016   4.528   0.244   1.044  0.1335  0.1721  0.0173
 2273W        W 6017   1.717   5.874   9.194  0.1087 -0.1768 -0.0079
 2274W        W 6018   2.374   7.676   8.541 -0.4234 -0.0017 -0.1133
 2275W        W 6019  10.049   4.962  10.917 -0.1693 -0.3320  0.1393
 2276W        W 6020   8.946   7.613   2.185  0.1129  0.1264 -0.2287
 2277W        W 6021   1.376   3.746  12.122  0.0214 -0.4614  0.2639
 2278W        W 6022   5.948   4.885   2.508 -0.1884 -0.2318 -0.0932
 2279W        W 6023   2.648   6.159   2.770 -0.2024 -0.3388  0.2405
 2280W        W 6024   5.663   8.914   2.475  0.0201  0.0220 -0.2361
 2281W        W 6025   6.522   4.860   1.829 -0.0197  0.1992  0.0752
 2282W        W 6026  10.168   0.635   3.942  0.1056  0.2842  0.4660
 2283W        W 6027   7.436   3.753   1.345 -0.0247  0.1208  0.3237
 2284W        W 6028   9.504   7.550   7.293  0.0967  0.1605  0.3101
 2285W        W 6029   6.889   7.180   8.007 -0.0988 -0.1078 -0.0976
 2286W        W 6030   4.738   8.889   1.413  0.1756  0.0441 -0.0415
 2287W        W 6031   7.487   9.265   9.519  0.1715  0.1122 -0.1860
 2288W        W 6032   7.025   9.602   1.739 -0.1738 -0.1464 -0.0261
 2289W        W 6033   3.086   5.532   3.209  0.0668  0.1031  0.0047
 2290W        W 6034   7.725   0.603   1.854 -0.0114  0.0451  0.1854
 2291W        W 6035   5.705   5.971   8.579  0.1244  0.0515  0.0309
 2292W        W 6036   6.553   0.754   2.530 -0.1575  0.0961 -0.2671
 2293W        W 6037   5.371   3.623   0.117  0.1476  0.0479 -0.0231
 2294W        W 6038   7.937   0.803   3.712  0.1097  0.1673 -0.0542
 2295W        W 6039   8.916   2.895   0.397  0.0181  0.1345  0.0884
 2296W        W 6040   2.540   9.363  12.035 -0.2722  0.0554 -0.1356
 2297W        W 6041   2.699   6.409  11.128  0.2183  0.2846  0.0695
 2298W        W 6042   3.833   4.791  10.555 -0.1741  0.2385  0.1901
 2299W        W 6043   5.894   3.776   0.442 -0.0680 -0.1147  0.2959
 2300W        W 6044   5.672   7.983   2.696  0.1475  0.0969  0.2723
 2301W        W 6045   6.223   8.163   8.995  0.3160  0.2601  0.1021
 2302W        W 6046   6.865   6.299  11.222  0.1707 -0.0441 -0.1051
 2303W        W 6047   6.586   7.680   3.111  0.1788  0.2925 -0.2200
 2304W        W 6048   9.214   7.847   0.598 -0.1945  0.3470  0.0794
 2305W        W 6049   5.322   7.536  12.058 -0.1909  0.2566 -0.1470
 2306W        W 6050   3.745   1.928  10.981 -0.3376  0.0514 -0.1276
 2307W        W 6051   1.775   0.430  12.092 -0.1705  0.2236  0.1225
 2308W        W 6052  10.101   1.374  12.080  0.2672  0.5302  0.0335
 2309W        W 6053   0.018   0.766   3.455 -0.4979 -0.0369 -0.0381
 2310W        W 6054   4.997   1.930  11.902 -0.3022 -0.1034  0.1623
 2311W        W 6055   4.297   3.440  11.703  0.0359 -0.0269 -0.2328
 2312W        W 6056   8.235   9.242  11.311  0.0546  0.2771 -0.1002
 2313W        W 6057   9.905   6.402   1.064 -0.2509 -0.0335  0.2339
 2314W        W 6058   5.429   4.801   9.691 -0.1731 -0.2064  0.2296
 2315W        W 6059   7.834   5.740   1.045  0.1777  0.1560 -0.0787
 2316W        W 6060   1.080   2.343   8.787 -0.2549  0.2725 -0.2131
 2317W        W 6061   9.104   7.880   8.863 -0.0852  0.2710 -0.1757
 2318W        W 6062   6.763   4.690   3.160  0.0228  0.3045  0.1782
 2319W        W 6063   1.404   6.396  11.176 -0.0783  0.2086 -0.2015
 2320W        W 6064   9.152   6.111   8.877 -0.1820  0.2878 -0.0146
 2321W        W 6065  10.130   4.464   9.082 -0.1228  0.0372  0.2023
 2322W        W 6066   2.906   3.723   2.636  0.0669 -0.0315  0.1830
 2323W        W 6067   0.384   3.879   2.304  0.1745 -0.2155  0.4280
 2324W        W 6068   5.753   7.757  11.890 -0.0511 -0.2828  0.0703
 2325W        W 6069   9.191   3.587   9.999  0.0795 -0.0212 -0.2098
 2326W        W 6070   5.172   3.125   2.272  0.1509 -0.2878  0.2426
 2327W        W 6071   3.886   4.951  10.072  0.0782 -0.1353  0.2700
 2328W        W 6072   3.528   4.752   3.701  0.1032 -0.0060 -0.2245
 2329W        W 6073   5.541   4.012   2.705  0.2522  0.2442  0.0878
 2330W        W 6074   2.064   9.582  10.542 -0.1503  0.3869  0.3312
 2331W        W 6075   0.549   6.584  11.144 -0.0516  0.1824  0.2236
 2332W        W 6076   0.813   7.297   0.384 -0.0914  0.1075 -0.0335
 2333W        W 6077   1.251   7.321   9.299  0.0308  0.0388  0.0560
 2334W        W 6078   6.352   2.059   2.617  0.0456  0.2410 -0.1356
 2335W        W 6079   4.315   8.035   2.992 -0.1532  0.0564  0.1337
 2336W        W 6080   8.984   5.152   0.192 -0.0993 -0.0548  0.0533
 2337W        W 6081   2.209   5.575   9.045  0.1162 -0.2300 -0.0592
 2338W        W 6082   7.148   6.087   9.882 -0.0338 -0.0988  0.1170
 2339W        W 6083   3.965   2.388   8.713 -0.1526 -0.1727 -0.0565
 2340W        W 6084   0.696   4.372   2.279  0.0042 -0.2496 -0.1835
 2341W        W 6085   9.673   1.828  11.291  0.1889  0.2415  0.1778
 2342W        W 6086   8.477   7.732  11.578 -0.1560 -0.0026  0.2699
 2343W        W 6087  10.193   9.903   3.982  0.1550  0.0530 -0.1790
 2344W        W 6088   9.442   3.314   4.168 -0.2900  0.0166  0.0061
 2345W        W 6089   3.596   7.857   1.414  0.0807 -0.0138 -0.1327
 2346W        W 6090   2.548   1.751  12.204 -0.0658  0.1707 -0.2046
 2347W        W 6091   9.331   0.802   9.587  0.0891  0.1420 -0.2226
 2348W        W 6092   1.558   2.837  12.031 -0.0004  0.0114  0.0826
 2349W        W 6093   3.535   0.626   0.405  0.2296 -0.2944  0.3116
 2350W        W 6094   0.391   8.114   8.714  0.0775  0.1201 -0.0140
 2351W        W 6095   3.488   1.623   0.243  0.0214  0.3371 -0.3403
 2352W        W 6096   7.554   9.806  11.971  0.2973 -0.0376 -0.3154
 2353W        W 6097   9.648   7.715   2.869 -0.0000  0.0238 -0.0185
 2354W        W 6098   7.979   4.321   0.808  0.0049 -0.1973 -0.2025
 2355W        W 6099   6.085   5.568   8.956 -0.1442 -0.2372 -0.2473
 2356W        W 6100   9.090   1.392   9.815 -0.0109  0.0403 -0.2286
 2357W        W 6101   2.675   5.028   2.168 -0.0647  0.1532  0.0161
 2358W        W 6102   7.524   8.455  11.868  0.2174  0.1460  0.0972
 2359W        W 6103   3.018   1.435  10.635  0.0280 -0.0958  0.1220
 2360W        W 6104   9.818   3.590  10.631  0.1155 -0.0552  0.5270
 2361W        W 6105   4.246   2.143   3.618  0.1948 -0.2963 -0.1642
 2362W        W 6106   7.178   9.016   9.974 -0.0829 -0.1331 -0.0118
 2363W        W 6107   0.682   3.374  11.942  0.0311  0.1175 -0.0978
 2364W        W 6108   6.578   9.782  11.787  0.1726 -0.0789  0.2589
 2365W        W 6109   5.304   0.831  11.007  0.1130 -0.0471 -0.1654
 2366W        W 6110   4.159   4.085   1.671  0.0290  0.0744 -0.1904
 2367W        W 6111   4.137   1.732   2.771 -0.1088 -0.2463  0.2434
 2368W        W 6112   5.909   1.816   9.513 -0.1388 -0.2351  0.2151
 2369W        W 6113   2.339   7.811   2.036 -0.2844  0.0136 -0.0873
 2370W        W 6114   3.547   5.867   3.088  0.0746 -0.1009  0.2016
 2371W        W 6115   0.185   0.833   0.025 -0.1286 -0.1341  0.2760
 2372W        W 6116   8.784   4.928   1.938 -0.2344 -0.0867  0.4553
 2373W        W 6117   4.556   6.641   0.879 -0.1130  0.1932 -0.2519
 2374W        W 6118   9.767   3.703   3.385 -0.0329 -0.0827 -0.0370
 2375W        W 6119   6.408   0.771   3.028 -0.0181  0.2328  0.2545
 2376W        W 6120   1.355   7.768   2.541  0.0350 -0.0927 -0.0952
 2377W        W 6121   3.778   3.849   3.789  0.0129  0.3276  0.0365
 2378W        W 6122   5.205   9.292   0.119 -0.1843  0.0169  0.0665
 2379W        W 6123   8.460   4.991   0.163 -0.0816  0.1997 -0.0040
 2380W        W 6124  10.116   9.991   0.870  0.1773 -0.1397  0.1402
 2381W        W 6125   4.459   0.918   2.979  0.1966 -0.4486  0.1149
 2382W        W 6126   0.819   2.175   9.184 -0.1502  0.0699 -0.3786
 2383W        W 6127   8.190   9.161   0.539 -0.1173 -0.0148  0.0584
 2384W        W 6128   0.447   5.519   3.076 -0.0143  0.0982 -0.0486
 2385W        W 6129   1.350   6.015   0.209 -0.2567  0.1593  0.0919
 2386W        W 6130   5.779   3.619   3.873 -0.0928 -0.0059 -0.0162
 2387W        W 6131   2.875   8.456  10.323 -0.1895 -0.0553 -0.2895
 2388W        W 6132   4.623   8.402   7.724  0.1626 -0.2450  0.1131
 2389W        W 6133   1.764   4.118  11.343  0.1603 -0.0298  0.2345
 2390W        W 6134   9.001   5.489  11.546  0.1179 -0.2923  0.4826
 2391W        W 6135   9.324   8.606  11.285 -0.0871 -0.0746  0.1432
 2392W        W 6136   4.576   4.179  10.051 -0.1895 -0.0449 -0.0457
 2393W        W 6137   9.945   8.617   0.678  0.1388  0.0238  0.0913
 2394W        W 6138   4.063   0.876   1.706  0.0018  0.2443 -0.0370
 2395W        W 6139   0.669   6.772   3.782  0.2764  0.0459  0.2308
 2396W        W 6140   4.523   0.851  11.395  0.0510 -0.0846 -0.0707
 2397W        W 6141   4.994   3.664   0.725 -0.1476 -0.2629  0.3130
 2398W        W 6142   4.509   1.153  10.191 -0.0002  0.2961 -0.0377
 2399W        W 6143   3.832   8.279   8.898  0.0967  0.0393  0.0334
 2400W        W 6144   6.927   8.910   8.951  0.0522  0.1451  0.1830
 2401W        W 6145   6.990   8.250   1.447 -0.3109 -0.2597 -0.4072
 2402W        W 6146   3.882   6.530   9.163  0.1012  0.2262  0.0977
 2403W        W 6147   0.985   3.896   9.686 -0.5143 -0.0328 -0.2020
 2404W        W 6148   6.997   9.415   8.688 -0.1334 -0.1851  0.1969
 2405W        W 6149   8.213   1.235   2.847 -0.0300  0.2059  0.2035
 2406W        W 6150   2.063   5.183  12.063 -0.0890  0.0419 -0.1678
 2407W        W 6151   7.553   6.144   1.056  0.2004 -0.2100 -0.3369
 2408W        W 6152   9.345   4.403   3.074 -0.1132 -0.0345  0.1173
 2409W        W 6153   0.890   0.697   0.896  0.1898  0.0509 -0.1358
 2410W        W 6154   8.697   2.135   8.714  0.2183 -0.2936 -0.3032
 2411W        W 6155   1.039   4.660   1.488 -0.0915 -0.1093 -0.2341
 2412W        W 6156   3.962   6.721   8.002 -0.1783  0.0375  0.0534
 2413W        W 6157   8.377   0.540  10.312 -0.2648  0.0839 -0.2512
 2414W        W 6158   5.518   2.731   9.509 -0.0931  0.1823 -0.2369
 2415W        W 6159   9.110   4.772   3.432  0.1997 -0.0501  0.2124
 2416W        W 6160   5.549   4.547   0.223 -0.0256  0.0279  0.1972
 2417W        W 6161   4.324   3.465   2.738 -0.2720  0.1677 -0.3595
 2418W        W 6162   6.077   4.960   2.001 -0.1867  0.2563 -0.2278
 2419W        W 6163   1.457   1.014   7.660 -0.2040 -0.1683  0.0916
 2420W        W 6164   8.397   0.697   3.108 -0.3988 -0.0444  0.1322
 2421W        W 6165   2.995   6.497  12.055 -0.3280 -0.1183 -0.1719
 2422W        W 6166   9.557   0.086   1.906  0.0025  0.1193 -0.2454
 2423W        W 6167   0.217   9.778   9.891  0.3966 -0.0184  0.0804
 2424W        W 6168   2.059   1.789   1.793 -0.2919 -0.1475 -0.2961
 2425W        W 6169   0.682   8.465   7.661  0.1633  0.4408  0.0999
 2426W        W 6170   0.694   3.390   1.548  0.2287  0.0447  0.1197
 2427W        W 6171   7.703   3.743   3.320  0.0806  0.2561  0.4047
 2428W        W 6172   3.213   8.119   2.448  0.4583 -0.2311  0.2040
 2429W        W 6173   2.292   1.130   1.943 -0.0378 -0.2345 -0.1228
 2430W        W 6174   1.609   8.993   2.545  0.0922  0.0452  0.0934
 2431W        W 6175   3.291   2.242  11.763 -0.0124  0.1115  0.3912
 2432W        W 6176   4.600   7.188   0.588  0.0746  0.0254  0.0977
 2433W        W 6177   2.810   2.522   7.983  0.1560  0.0174  0.0701
 2434W        W 6178   3.169   8.374   7.858 -0.0945 -0.0979 -0.0031
 2435W        W 6179   8.536   3.654   0.836 -0.1625 -0.1108 -0.1769
 2436W        W 6180   5.322   7.510   0.949 -0.1530  0.2037 -0.1511
 2437W        W 6181   4.425   1.244   1.920 -0.0923 -0.2444  0.2126
 2438W        W 6182   7.560   2.840   8.260  0.0245  0.0151 -0.0469
 2439W        W 6183   1.253   8.628   8.315  0.1363 -0.0065  0.1396
 2440W        W 6184   6.429   6.600   8.675 -0.3996 -0.0364  0.1844
 2441W        W 6185   4.026   3.615  12.088 -0.0188  0.0550 -0.3873
 2442W        W 6186   8.164   7.149   7.932  0.2054 -0.1623  0.1238
 2443W        W 6187   1.028  10.153   3.212  0.0765 -0.3477  0.2078
 2444W        W 6188   1.503   7.330   9.716 -0.1292 -0.2852  0.3407
 2445W        W 6189   6.189   7.851  10.586  0.1150 -0.0771 -0.2609
 2446W        W 6190   1.025   5.625  11.088 -0.0421 -0.6456 -0.1054
 2447W        W 6191   9.892  10.184   1.507 -0.0054 -0.0604  0.2456
 2448W        W 6192   6.241   9.294  11.064  0.3124 -0.1673  0.3774
 2449W        W 6193   3.543   1.835  11.888 -0.4666 -0.0807 -0.0410
 2450W        W 6194   1.927   5.617   1.731 -0.2271 -0.1700  0.2644
 2451W        W 6195   4.714   7.347   3.154 -0.1111 -0.1370  0.0553
 2452W        W 6196   8.332   8.565   1.271 -0.1031  0.0100  0.0081
 2453W        W 6197   6.822   8.905   1.710  0.2013  0.0073  0.2797
 2454W        W 6198   9.551   8.259   7.775  0.0423  0.1108 -0.1656
 2455W        W 6199   5.940   1.446   1.082 -0.0538 -0.2241  0.1291
 2456W        W 6200   3.126   6.252   2.985 -0.0841 -0.1032 -0.1251
 2457W        W 6201  10.167   8.451   4.184  0.2567 -0.1354  0.1186
 2458W        W 6202   9.137   3.838  10.505 -0.0265 -0.0649  0.1813
 2459W        W 6203   2.519   2.278   3.544 -0.0809  0.3542  0.1597
 2460W        W 6204   1.325   0.191   9.454  0.1489 -0.0940 -0.1127
 2461W        W 6205   7.804   6.171  10.474 -0.1414  0.1715  0.1489
 2462W        W 6206   8.046   8.201   1.411 -0.1249 -0.2434  0.2366
 2463W        W 6207   0.170   8.836   0.523  0.0927  0.2008 -0.2552
 2464W        W 6208   7.525   1.179   8.842 -0.3147  0.0362  0.1676
 2465W        W 6209   8.453   5.803   9.869  0.1286  0.1188  0.0295
 2466W        W 6210   3.663   4.715   2.289  0.2468 -0.1010 -0.0391
 2467W        W 6211   1.451   9.680   1.427 -0.1155  0.1315  0.1191
 2468W        W 6212   8.828   4.868   9.538 -0.1826 -0.0847 -0.1807
 2469W        W 6213   6.011   8.065   7.753 -0.1958  0.2505  0.0069
 2470W        W 6214   4.092   1.344   3.617 -0.1542  0.0470  0.3104
 2471W        W 6215   3.745   7.338   0.854  0.0428 -0.0753  0.0711
 2472W        W 6216   0.992   9.641   1.190  0.2580 -0.1653 -0.1532
 2473W        W 6217   4.317   0.336   2.728  0.3765 -0.0539 -0.1681
 2474W        W 6218   0.395   2.793  10.357  0.0248 -0.2053 -0.4622
 2475W        W 6219   1.573   9.567  11.174 -0.0482  0.0391  0.1149
 2476W        W 6220   4.440   3.165   1.243  0.0034 -0.0451 -0.0753
 2477W        W 6221   9.652   2.723   9.667 -0.0055 -0.0744  0.1777
 2478W        W 6222   3.560   1.744   1.511  0.2128  0.2172 -0.0938
 2479W        W 6223   8.033   3.113   3.954 -0.1249 -0.0822 -0.1860
 2480W        W 6224   1.469   1.700   0.289 -0.3609  0.1644 -0.2463
 2481W        W 6225   1.726   1.242   3.244  0.0604 -0.1488  0.0720
 2482W        W 6226   6.824   1.909   2.868  0.0008  0.1031  0.0916
 2483W        W 6227   3.804   4.097   2.152  0.1458 -0.0909 -0.1369
 2484W        W 6228   6.652   0.097  12.027  0.0640 -0.0224 -0.0280
 2485W        W 6229   2.309   9.820   2.963  0.2582  0.1905  0.1173
 2486W        W 6230   3.606   4.525   0.449 -0.2603 -0.0449  0.1468
 2487W        W 6231   8.821   1.689   1.154  0.1809  0.1818  0.1478
 2488W        W 6232   5.847   6.448   8.276  0.2194 -0.3723 -0.1550
 2489W        W 6233   4.461   2.552   2.224  0.1159  0.2352 -0.1590
 2490W        W 6234   5.491   9.766   1.840  0.0068 -0.3024 -0.0182
 2491W        W 6235   9.095   8.849   0.024  0.2291 -0.1172  0.1778
 2492W        W 6236   5.252   2.967   8.193 -0.0008  0.2221 -0.0196
 2493W        W 6237   6.360   0.912  12.075  0.1167  0.0245  0.0649
 2494W        W 6238   7.159   6.953  10.659  0.0114 -0.0267  0.1008
 2495W        W 6239   8.697   5.997   0.528  0.1628 -0.1733  0.3149
 2496W        W 6240   3.381   3.924   7.999 -0.0669  0.0484  0.1944
 2497W        W 6241   7.866   3.540  10.054 -0.1328 -0.3086 -0.0776
 2498W        W 6242   5.796   2.460   1.314  0.3963 -0.0263 -0.0307
 2499W        W 6243   7.163   8.692   0.368 -0.0622 -0.1030  0.1631
 2500W        W 6244   9.996   1.812   0.159 -0.1125  0.4545 -0.1067
 2501W        W 6245   9.890   9.265  10.084  0.1244 -0.0841  0.1887
 2502W        W 6246   8.674   5.546  11.180  0.0770 -0.0617 -0.2566
 2503W        W 6247   4.767   5.463   8.159 -0.0701  0.4059  0.0530
 2504W        W 6248   1.435   8.753  11.583 -0.0682  0.0441 -0.1317
 2505W        W 6249   9.689   3.224   3.497 -0.1297  0.1494 -0.0762
 2506W        W 6250   5.144   6.259  11.794  0.2396 -0.0365  0.0470
 2507W        W 6251   7.241   8.121  10.134 -0.0261 -0.0227  0.3097
 2508W        W 6252   1.786   3.265   0.579 -0.4098 -0.0841  0.0368
 2509W        W 6253   7.217   6.885  11.539  0.0426 -0.0722 -0.1214
 2510W        W 6254   2.738   8.429   0.689 -0.2664  0.1364  0.1129
 2511W        W 6255   1.679   8.577   0.934 -0.0318 -0.3168 -0.1738
 2512W        W 6256   2.225   6.046   9.278 -0.0551 -0.1364 -0.0751
 2513W        W 6257   3.524   6.141   2.686 -0.0181  0.0224  0.0397
 2514W        W 6258   0.115   0.958   9.948  0.2266  0.1839  0.0943
 2515W        W 6259   5.171   7.972   2.581 -0.0444 -0.1010  0.0906
 2516W        W 6260   6.526   3.092   2.109  0.0826 -0.0440  0.1103
 2517W        W 6261   0.126   0.654  11.314 -0.4156  0.1851 -0.0573
 2518W        W 6262   1.292   5.010   1.793 -0.0893  0.0449 -0.2435
 2519W        W 6263   2.185   8.656  12.027  0.1352 -0.1775  0.2636
 2520W        W 6264   7.277   3.109   1.736  0.2070  0.0793  0.0199
 2521W        W 6265   2.635   6.150   8.973  0.1217 -0.1847 -0.0581
 2522W        W 6266   5.455   3.719  10.490 -0.0900 -0.0847  0.0165
 2523W        W 6267   6.687   8.940   0.952 -0.0382 -0.0881 -0.0471
 2524W        W 6268   8.531   8.704   2.674 -0.2053  0.1444 -0.2802
 2525W        W 6269   9.568   7.898   8.641  0.0859 -0.1478 -0.1890
 2526W        W 6270   9.073   4.465   1.251 -0.1289 -0.2423 -0.0046
 2527W        W 6271   5.493   3.776   1.758  0.3072 -0.1435 -0.1142
 2528W        W 6272   4.579   7.654   9.498  0.0690  0.0668  0.2822
 2529W        W 6273   2.656   7.280   8.393  0.0599  0.2020  0.4549
 2530W        W 6274   4.531   9.642  11.569  0.0964 -0.1563  0.1587
 2531W        W 6275   1.319   5.488   9.238 -0.1297 -0.3502  0.0154
 2532W        W 6276   2.644   1.174   0.641  0.0393 -0.3848  0.5913
 2533W        W 6277   2.569   8.343   3.175  0.1138 -0.0779 -0.0735
 2534W        W 6278   8.038   2.771   2.845  0.1961 -0.1808  0.0335
 2535W        W 6279   3.622   8.905   1.312  0.2660  0.1458 -0.0178
 2536W        W 6280   9.213   0.069  11.978 -0.1138  0.2651  0.0609
 2537W        W 6281   5.686   5.443   8.592  0.1558  0.2994 -0.5012
 2538W        W 6282   1.375   5.665   7.824  0.1154  0.1878 -0.1772
 2539W        W 6283   4.163   2.792   8.336 -0.0097  0.1286 -0.0340
 2540W        W 6284   7.476   5.034   1.658  0.0026 -0.0242 -0.1317
 2541W        W 6285   7.349   3.282   8.279 -0.0437  0.2091 -0.0181
 2542W        W 6286   7.857   9.239  10.676 -0.1919  0.0448 -0.0499
 2543W        W 6287   6.389   7.809   8.626 -0.2316  0.2162 -0.2484
 2544W        W 6288  10.162   8.770   1.711  0.1454 -0.2016 -0.4373
 2545W        W 6289   9.171   5.811   0.920  0.1001 -0.0653  0.2526
 2546W        W 6290   2.952   0.177   0.781  0.0817 -0.0477 -0.1623
 2547W        W 6291   7.135   1.555   2.271 -0.1130  0.1506  0.1271
 2548W        W 6292   3.067   8.230   1.099 -0.1323 -0.3731 -0.2114
 2549W        W 6293   6.222   5.340  10.678 -0.1725  0.1473 -0.0893
 2550W        W 6294   2.519   6.253   8.453 -0.0985  0.0837  0.0959
 2551W        W 6295   7.524   9.128   8.424  0.0089 -0.3233 -0.1066
 2552W        W 6296   6.269   0.754   3.572 -0.1048  0.2168  0.2977
 2553W        W 6297   1.815   9.831   3.104 -0.1882 -0.0244 -0.3183
 2554W        W 6298   9.749   4.262   9.868  0.1007  0.0913 -0.0138
 2555W        W 6299   9.289   2.490  12.175  0.1630  0.1778  0.0836
 2556W        W 6300   7.718   2.766   1.603  0.1579  0.2664  0.0460
 2557W        W 6301   4.985   7.380   7.775  0.0749  0.0472  0.0910
 2558W        W 6302   1.716   0.280   2.662  0.0155  0.0288  0.1015
 2559W        W 6303   0.612   3.713   9.348  0.1098  0.1313  0.0767
 2560W        W 6304   0.625   8.044   8.278 -0.2471 -0.0150  0.4075
 2561W        W 6305   1.879   5.527   9.574  0.2736 -0.3203  0.1292
 2562W        W 6306   5.502   0.416   2.002  0.2198  0.1593  0.1302
 2563W        W 6307   1.984   1.930  10.605  0.3944 -0.2924  0.2291
 2564W        W 6308   5.359   1.681   0.099 -0.3279  0.3125 -0.1914
 2565W        W 6309   2.283   9.776  12.088 -0.0131  0.1862 -0.0585
 2566W        W 6310   7.603   7.322   1.886  0.1140  0.0655  0.0492
 2567W        W 6311   4.048   2.258   2.278  0.3183  0.1277 -0.0325
 2568W        W 6312   3.289   2.349  11.278 -0.0109 -0.2564  0.1625
 2569W        W 6313   1.116   4.129   2.979 -0.0567  0.1721 -0.3303
 2570W        W 6314   7.802   5.269  10.297 -0.0647  0.0836  0.0443
 2571W        W 6315   1.573   7.729   1.199 -0.0325 -0.1707 -0.0229
 2572W        W 6316  10.030   5.560   0.854  0.1074  0.1884  0.1657
 2573W        W 6317   1.123   9.105   8.215 -0.2707  0.2761 -0.0012
 2574W        W 6318   4.633   6.826  11.226 -0.0072  0.1220 -0.2793
 2575W        W 6319   8.478   5.490   3.487  0.0932  0.1643  0.1135
 2576W        W 6320   4.416   1.958  10.497 -0.0736  0.1313  0.1825
 2577W        W 6321   7.664   9.932   0.627  0.4020  0.0244 -0.1031
 2578W        W 6322   3.007   0.497   7.726 -0.1185 -0.2582  0.1041
 2579W        W 6323   9.676   2.136   2.028  0.2967 -0.0528  0.0879
 2580W        W 6324   9.568   4.017  10.623  0.2179  0.1420 -0.2676
 2581W        W 6325   6.525   7.638   0.323  0.1754  0.2254 -0.0877
 2582W        W 6326   2.480   6.484  12.076  0.0390 -0.0053 -0.0180
 2583W        W 6327   0.135   1.138   0.503  0.0387  0.0639  0.2329
 2584W        W 6328   6.900   6.842  12.106 -0.0456 -0.0552 -0.1419
 2585W        W 6329   3.673   0.275   2.897 -0.1200 -0.1259 -0.0635
 2586W        W 6330   5.285   1.142   4.108 -0.3861  0.1163 -0.2078
 2587W        W 6331   3.097  10.176  11.545  0.2727  0.1089  0.2743
 2588W        W 6332   6.352   8.411   2.417  0.2294  0.0519  0.0484
 2589W        W 6333   4.424   8.956   8.171 -0.0535  0.1802  0.3226
 2590W        W 6334   0.720  10.015   0.384 -0.2168 -0.0793 -0.0974
 2591W        W 6335   0.565   0.902  11.803 -0.0436 -0.1133 -0.1218
 2592W        W 6336   3.019   3.920  11.165 -0.1957 -0.0798 -0.1354
 2593W        W 6337   4.674   5.601   9.526 -0.2598 -0.0839 -0.1347
 2594W        W 6338   6.682   0.678   8.627 -0.3147 -0.0763  0.0265
 2595W        W 6339   3.214   5.145  10.117  0.0226 -0.0361 -0.1047
 2596W        W 6340   2.477   2.726   8.341 -0.0735 -0.1285  0.1149
 2597W        W 6341   5.541   1.002   1.899 -0.0187  0.2040 -0.0321
 2598W        W 6342   9.691   9.606   0.269  0.2474  0.0402  0.1713
 2599W        W 6343   4.910   1.136   0.913 -0.1037  0.2979 -0.2057
 2600W        W 6344   9.920   7.949   2.436  0.0032 -0.3810  0.0487
 2601W        W 6345   5.055   9.767  10.794  0.3611  0.0618  0.0683
 2602W        W 6346   3.193   7.374   3.840  0.1573  0.0614 -0.3457
 2603W        W 6347   3.148   2.293  10.009  0.0436  0.0379  0.3326
 2604W        W 6348   2.664   2.805   9.686 -0.0498  0.0149 -0.3217
 2605W        W 6349   2.208   9.331   1.633  0.3822 -0.1537 -0.1301
 2606W        W 6350   6.968   6.331   2.296  0.3578 -0.2658 -0.1078
 2607W        W 6351   1.627   7.588   4.041  0.0865  0.2592  0.1134
 2608W        W 6352   1.571   8.368  10.655 -0.2494  0.2200  0.4230
 2609W        W 6353   5.789   3.653   9.700  0.1912 -0.2885 -0.0452
 2610W        W 6354   3.013   9.204   8.791 -0.1772 -0.1158  0.3614
 2611W        W 6355   7.167   1.277  11.621  0.5283  0.1869  0.2503
 2612W        W 6356   0.638   9.570  11.148  0.2565 -0.0079 -0.2154
 2613W        W 6357   6.463   9.469   0.447 -0.0369 -0.1968 -0.3292
 2614W        W 6358   5.813   0.647  10.937  0.1209  0.4453 -0.3476
 2615W        W 6359   8.067   3.191   8.917  0.2355 -0.3724 -0.2049
 2616W        W 6360   6.183   2.800  10.124  0.0022  0.0128 -0.1491
 2617W        W 6361   3.677   8.311   2.361 -0.0836 -0.1189 -0.0769
 2618W        W 6362   4.498   8.146  10.279 -0.1307 -0.1392  0.0245
 2619W        W 6363   0.388   3.471   3.227  0.1455 -0.2490 -0.1453
 2620W        W 6364   0.121   4.619   8.164 -0.0194  0.3071  0.0808
 2621W        W 6365   5.795   1.929   8.392  0.1789  0.3960  0.0803
 2622W        W 6366   4.197   8.997   2.687  0.1639 -0.1243 -0.2886
 2623W        W 6367   9.282   1.491  10.315 -0.2267 -0.3802 -0.0594
 2624W        W 6368   6.635  10.054   0.903  0.1862  0.2505 -0.0073
 2625W        W 6369   9.525   0.377  11.026 -0.3773  0.0293 -0.0348
 2626W        W 6370   5.278   4.137   8.345 -0.0422 -0.2285  0.0980
 2627W        W 6371   2.893   0.178  11.139 -0.1201  0.1464 -0.1613
 2628W        W 6372   8.385   0.148   7.615 -0.0116  0.1199  0.0727
 2629W        W 6373   2.322   2.081   2.613 -0.0238  0.0552  0.1572
 2630W        W 6374   5.444   2.486   9.023  0.0005 -0.0323 -0.1745
 2631W        W 6375   0.549   2.716   1.086 -0.3025  0.0388 -0.1066
 2632W        W 6376   8.688   6.089  11.850  0.0184 -0.2621 -0.0129
 2633W        W 6377   9.371   8.500   8.325 -0.1660  0.3640 -0.0804
 2634W        W 6378   0.705   5.181  11.164 -0.0241  0.0050 -0.1207
 2635W        W 6379   1.130   1.827   2.412 -0.0570 -0.3385  0.4055
 2636W        W 6380   4.429   4.707   0.039 -0.2714 -0.2439  0.0650
 2637W        W 6381   3.205   6.612   9.113  0.0285  0.4365  0.3163
 2638W        W 6382   9.352   9.364   9.351 -0.1302 -0.1370  0.0461
 2639W        W 6383   1.387   3.994   9.368  0.0714 -0.0292  0.2020
 2640W        W 6384   2.501   8.636   8.393  0.2235  0.2870 -0.1437
 2641W        W 6385   6.029   9.485   1.254  0.0137 -0.0746 -0.1877
 2642W        W 6386   0.191  10.020  11.272  0.0145 -0.2552 -0.1514
 2643W        W 6387   7.551   4.767   8.181 -0.3298 -0.1689 -0.1710
 2644W        W 6388   7.658   6.382  12.130  0.0732  0.1049 -0.2554
 2645W        W 6389   1.648   6.472  11.994  0.1338 -0.2348  0.0141
 2646W        W 6390   7.371   1.666   9.063 -0.0353  0.0659  0.2061
 2647W        W 6391   1.535   2.726   1.186 -0.1302  0.0549 -0.3184
 2648W        W 6392  10.068   4.408   1.171 -0.0946  0.0044  0.0014
 2649W        W 6393   8.921   0.809   2.826 -0.1300  0.1801 -0.2518
 2650W        W 6394   0.761  10.170  12.137 -0.3613 -0.2116 -0.1341
 2651W        W 6395   9.152   0.453   7.952 -0.3087  0.2301 -0.1343
 2652W        W 6396   8.928   7.081   9.459  0.0321  0.1231  0.1134
 2653W        W 6397   1.913   2.290   9.565 -0.2106  0.1641  0.1971
 2654W        W 6398   2.203   2.663   9.764  0.0989 -0.2580 -0.2308
 2655W        W 6399   8.120   3.468   0.581  0.0346 -0.1803 -0.1420
 2656W        W 6400   8.659   8.620  10.749 -0.1123  0.3234  0.4222
 2657W        W 6401   7.438   2.338   0.278  0.1387 -0.1313  0.1779
 2658W        W 6402   6.361   3.831  12.109  0.0959 -0.2728 -0.3408
 2659W        W 6403   8.169   7.743  12.002  0.0763  0.0288 -0.0841
 2660W        W 6404   2.365   9.624   8.353  0.0039  0.1707 -0.2632
 2661W        W 6405   7.688   0.976  11.413 -0.2002 -0.0929  0.0692
 2662W        W 6406   3.657   3.773  10.461  0.0509  0.3412 -0.0223
 2663W        W 6407   4.525   7.727   0.428 -0.0625  0.2277  0.1508
 2664W        W 6408   2.169   0.381   9.692  0.1092  0.1276 -0.0727
 2665W        W 6409   1.765   8.392  11.858  0.1898 -0.0867 -0.2779
 2666W        W 6410   3.452   8.808   8.058 -0.2136  0.4118  0.0440
 2667W        W 6411   7.644   9.129   1.681  0.0754 -0.0559 -0.0725
 2668W        W 6412   5.387   0.057  12.190  0.1370  0.0426 -0.1309
 2669W        W 6413   8.965   6.522   8.047 -0.0963 -0.1776 -0.0775
 2670W        W 6414   4.088   2.282  10.716 -0.0145 -0.4277  0.0485
 2671W        W 6415   1.019   0.726  11.921 -0.2305  0.0479 -0.1825
 2672W        W 6416   3.026   4.123   8.333 -0.1307 -0.0360  0.0920
 2673W        W 6417   0.658  10.118  11.013  0.0478 -0.0627  0.5223
 2674W        W 6418   6.920   3.725   8.984 -0.0654  0.2159 -0.1215
 2675W        W 6419   7.605   9.238   8.924  0.1574 -0.3034 -0.2900
 2676W        W 6420   3.627   1.110   0.171  0.1702  0.0981 -0.0083
 2677W        W 6421   0.010   3.353   3.611 -0.3432 -0.1304 -0.0317
 2678W        W 6422   6.268   6.849   2.923 -0.2999 -0.3702  0.1812
 2679W        W 6423   7.108   4.456  10.763  0.1192  0.0723 -0.1522
 2680W        W 6424   1.953   1.877   2.859 -0.4029  0.0256  0.2564
 2681W        W 6425   7.967   4.741   1.512 -0.0111  0.2488  0.2709
 2682W        W 6426   9.100   9.000   9.906  0.3193  0.2544 -0.3867
 2683W        W 6427   9.598   8.003   3.241  0.2698 -0.2326  0.0015
 2684W        W 6428   9.333   4.597  10.459  0.0097 -0.1181  0.0596
 2685W        W 6429   4.967   8.456   1.045 -0.3562 -0.1608  0.0004
 2686W        W 6430   6.367   6.937   9.030  0.2043  0.4168  0.3701
 2687W        W 6431   4.951   6.793   0.430 -0.0774 -0.1163 -0.0988
 2688W        W 6432   4.021   7.768   9.118  0.1794  0.0329  0.4570
 2689W        W 6433   0.697   8.847   2.203 -0.2575 -0.1319 -0.0328
 2690W        W 6434   6.147   3.589   8.708  0.1416  0.0627  0.0362
 2691W        W 6435   0.812   5.628   9.178  0.0150  0.0102 -0.0339
 2692W        W 6436   1.528   6.482   8.009 -0.1508 -0.0871  0.0329
 2693W        W 6437   4.809   7.395   0.125 -0.2485 -0.3107 -0.3006
 2694W        W 6438   2.985   8.112   3.185 -0.2793  0.0764  0.0094
 2695W        W 6439   8.448   8.954   9.285 -0.0119 -0.0780  0.1742
 2696W        W 6440   8.498   0.349   8.504 -0.2003  0.0872 -0.1750
 2697W        W 6441   0.435   2.348  12.007  0.3364  0.2385 -0.1551
 2698W        W 6442   0.308   3.878  10.201  0.0809  0.3191 -0.0816
 2699W        W 6443   6.104   2.710   0.073  0.0186 -0.2618 -0.1226
 2700W        W 6444   0.432   2.825   4.533 -0.1443  0.0590 -0.1024
 2701W        W 6445   3.925  10.056   2.642  0.0090  0.2366  0.3882
 2702W        W 6446   0.790   7.895   3.303  0.2812 -0.2470 -0.2363
 2703W        W 6447   1.989   3.842   1.970  0.0334  0.1129 -0.1743
 2704W        W 6448   3.916   9.498   9.252 -0.1986 -0.0133 -0.0224
 2705W        W 6449   8.025   7.054   9.319 -0.1580 -0.0952  0.3804
 2706W        W 6450   4.529   9.481   2.635  0.0679 -0.2449  0.0345
 2707W        W 6451  10.138   2.237   1.834  0.4980  0.0986 -0.0692
 2708W        W 6452   6.408   6.334  10.446  0.2776  0.1972 -0.1875
 2709W        W 6453   1.544   7.463  11.110 -0.1592 -0.0660 -0.0385
 2710W        W 6454   9.367   6.155   0.538 -0.0038  0.0481  0.0119
 2711W        W 6455   5.804   8.923   7.313  0.0642  0.0202  0.0345
 2712W        W 6456   4.975   8.291  10.108 -0.2192 -0.0487  0.1298
 2713W        W 6457   7.270   9.944   8.949  0.0040  0.1811 -0.0689
 2714W        W 6458   3.307   3.441   3.234  0.0299 -0.1030 -0.2903
 2715W        W 6459   8.754   3.179  10.357 -0.2321  0.1227  0.2124
 2716W        W 6460   4.288   9.832   9.932  0.2632  0.2330 -0.1110
 2717W        W 6461   9.520   7.217   1.788  0.4067 -0.1671  0.0027
 2718W        W 6462   3.544   7.331   1.341  0.3922 -0.1967  0.0228
 2719W        W 6463   9.565   0.415   9.221  0.0074 -0.0794  0.3288
 2720W        W 6464   1.777   2.507   4.080 -0.1084 -0.1069 -0.2382
 2721W        W 6465   1.062   9.729   8.701 -0.1433 -0.0936  0.0035
 2722W        W 6466   5.621   2.370  10.944 -0.2142  0.1155 -0.0463
 2723W        W 6467   2.504   5.933   0.675  0.1991 -0.2471 -0.1361
 2724W        W 6468   6.167   4.680   3.010 -0.0713  0.3369  0.0406
 2725W        W 6469   7.130   7.251   9.143 -0.0637 -0.0320  0.0699
 2726W        W 6470   8.197   2.056   2.351  0.2226  0.0820  0.0943
 2727W        W 6471   0.706   1.892   1.600  0.4159 -0.3100  0.1693
 2728W        W 6472   6.061   7.833   0.429 -0.0152  0.1250 -0.1377
 2729W        W 6473   0.647   1.945   0.577 -0.1116 -0.1389 -0.0557
 2730W        W 6474   6.102   4.148   8.596 -0.2319  0.0982  0.1303
 2731W        W 6475   2.728  10.073   1.143 -0.1283 -0.2255 -0.0836
 2732W        W 6476   8.688   0.241   1.894  0.2558  0.2134  0.3480
 2733W        W 6477   1.503   8.103   0.850 -0.2154 -0.0570 -0.1437
 2734W        W 6478   8.627   3.243  11.974 -0.0490  0.0498  0.0461
 2735W        W 6479   3.255   6.705   9.603  0.1065 -0.4134 -0.0138
 2736W        W 6480   4.604   5.091   7.840  0.1621  0.3440  0.2566
 2737W        W 6481   2.956   3.582   9.409  0.0543 -0.0771 -0.1135
 2738W        W 6482   4.312   9.094   1.656  0.1865 -0.1293  0.0324
 2739W        W 6483   4.934   7.866   8.841  0.1296 -0.2296  0.1475
 2740W        W 6484   3.375   0.835  11.340  0.2720 -0.0184 -0.0659
 2741W        W 6485   7.686   1.533   2.956 -0.0935 -0.3777 -0.0143
 2742W        W 6486   5.200   5.844   0.741  0.0412  0.3340  0.0234
 2743W        W 6487   2.932   8.455   1.510  0.1389  0.2233 -0.0194
 2744W        W 6488   3.237   5.969   2.329  0.3654 -0.1478 -0.1899
 2745W        W 6489   5.962   3.841   2.387 -0.3678 -0.0652  0.0022
 2746W        W 6490   1.034   8.303   0.578 -0.4133 -0.1580  0.3154
 2747W        W 6491   1.169   4.700   9.332  0.2084 -0.0490 -0.0265
 2748W        W 6492   8.120   7.915  10.188  0.0434 -0.2321 -0.0685
 2749W        W 6493   3.836   1.288   2.611 -0.2741 -0.2363 -0.1325
 2750W        W 6494   9.655   6.851   1.076 -0.0346  0.0471  0.1619
 2751W        W 6495   6.031   5.743  11.030 -0.0553 -0.2735 -0.1725
 2752W        W 6496   7.850   1.160   3.264  0.4432 -0.1698 -0.2104
 2753W        W 6497   1.128   8.133   0.110  0.0581  0.0342 -0.0909
 2754W        W 6498   1.066   4.520   0.567  0.2078 -0.0167  0.3723
 2755W        W 6499   3.473   2.170   3.105 -0.2189  0.0982 -0.0219
 2756W        W 6500   4.459   6.561   2.988 -0.2793  0.0800 -0.0083
 2757W        W 6501   9.046   6.982  11.227 -0.1842 -0.0114 -0.3836
 2758W        W 6502   9.597   5.366   0.255 -0.2867  0.1956 -0.0628
 2759W        W 6503   9.361   6.436   1.987  0.0780  0.0040  0.0433
 2760W        W 6504   1.313   4.117  10.034 -0.0493  0.1430  0.1238
 2761W        W 6505   9.640   1.405   8.973 -0.0669 -0.1304 -0.1757
 2762W        W 6506   7.842   1.270  11.007 -0.2062 -0.1134 -0.3596
 2763W        W 6507   3.003   9.066   2.101  0.1861  0.1185 -0.1692
 2764W        W 6508   7.564   2.808   9.741 -0.0186 -0.0755 -0.2134
 2765W        W 6509   1.827   4.270   0.368  0.2225  0.1743 -0.2781
 2766W        W 6510   7.701   9.337   7.845  0.0636  0.0707 -0.2078
 2767W        W 6511   7.978   3.407  11.709  0.1809 -0.0039  0.2168
 2768W        W 6512   2.185   0.767   7.876 -0.0063 -0.3893 -0.0268
 2769W        W 6513   7.670   8.692   0.018 -0.1546 -0.0916 -0.1987
 2770W        W 6514   7.039   6.592   8.399  0.0690  0.4246 -0.1743
 2771W        W 6515   5.275   8.816   1.598 -0.4568  0.1264 -0.0785
 2772W        W 6516   1.429   9.578   8.341 -0.0312  0.1866  0.2874
 2773W        W 6517   3.134   3.346   0.051  0.1056 -0.1542 -0.2928
 2774W        W 6518   8.768   5.344   9.103 -0.0379  0.3332 -0.0719
 2775W        W 6519   9.225  10.119   0.747 -0.1388  0.0176 -0.1543
 2776W        W 6520   6.500   5.995   2.860  0.1360 -0.1847 -0.1349
 2777W        W 6521   0.402   2.272   0.306 -0.1052  0.0811 -0.1210
 2778W        W 6522   7.579   6.882   2.809  0.1256  0.1049 -0.1854
 2779W        W 6523   2.348   1.794   9.453  0.0468  0.1806 -0.1931
 2780W        W 6524   0.369   0.815   0.894 -0.1682 -0.1543 -0.0449
 2781W        W 6525   5.644   6.231   2.361 -0.3623  0.3278  0.0673
 2782W        W 6526   5.483   7.096   1.145  0.1155 -0.0378 -0.0983
 2783W        W 6527   8.101   5.209   2.788  0.1176 -0.1934  0.0919
 2784W        W 6528   0.684   0.574   0.005 -0.0614 -0.1790  0.0502
 2785W        W 6529   4.185   9.882  12.209 -0.2569 -0.0203  0.2022
 2786W        W 6530   0.432   1.022  10.357 -0.1393  0.2556  0.2075
 2787W        W 6531   9.048   2.500   1.822  0.0621  0.1427  0.1010
 2788W        W 6532   9.195   5.630   9.156 -0.2095  0.2499  0.2923
 2789W        W 6533   4.756   9.868   9.862  0.2461  0.2307 -0.0098
 2790W        W 6534   2.408   5.099   9.037 -0.0783  0.2489  0.1857
 2791W        W 6535   7.859   3.430   8.555  0.0059 -0.0184 -0.0625
 2792W        W 6536   9.108   5.688   0.377  0.1275 -0.0029 -0.1102
 2793W        W 6537   8.614   4.445  10.866 -0.0316 -0.1089 -0.0931
 2794W        W 6538   4.312   4.953  10.235  0.0761  0.1224  0.0599
 2795W        W 6539   8.526   5.965   1.562 -0.6665 -0.0899  0.4221
 2796W        W 6540   1.973   6.153   3.300 -0.0440  0.4383  0.0945
 2797W        W 6541   0.734   8.152  11.982  0.1085  0.0228 -0.2082
 2798W        W 6542   1.263   5.940   2.619  0.0531  0.0382  0.1401
 2799W        W 6543   1.513   1.751   1.567  0.2900  0.1405 -0.0770
 2800W        W 6544   2.150   4.618  10.988  0.3232 -0.1657  0.1662
 2801W        W 6545   7.425   0.747  11.060  0.0661 -0.4411  0.0439
 2802W        W 6546   9.107   5.537   2.750  0.2955 -0.3066 -0.1566
 2803W        W 6547   9.454   8.459   2.356  0.0358  0.1166 -0.2359
 2804W        W 6548   2.755   7.990   9.824  0.3070  0.1470  0.2299
 2805W        W 6549   9.140   6.979   9.924  0.1681 -0.0265 -0.0255
 2806W        W 6550   1.398   4.018   1.942  0.2231 -0.0237  0.0068
 2807W        W 6551   8.136   6.158   9.934 -0.0923 -0.2721 -0.1441
 2808W        W 6552   3.041   4.838  10.734  0.1057 -0.0107 -0.0327
 2809W        W 6553   1.334   5.168   8.054 -0.2114 -0.0779 -0.0245
 2810W        W 6554   0.917   3.630   4.262  0.0364 -0.0641 -0.3205
 2811W        W 6555   2.839   4.556   2.010 -0.2544 -0.1470  0.0237
 2812W        W 6556   1.599   6.990  11.957 -0.2346  0.0039  0.1996
 2813W        W 6557   5.937   7.074   3.205  0.0651 -0.0661 -0.0571
 2814W        W 6558   7.031   2.905   3.074  0.2472 -0.1783 -0.2889
 2815W        W 6559   6.700   5.579   4.105 -0.0640 -0.0289  0.0582
 2816W        W 6560   2.016   1.196   2.353 -0.3222 -0.0180  0.1546
 2817W        W 6561   4.773   9.117   0.372  0.2068 -0.0368  0.1210
 2818W        W 6562   7.110   4.503  12.114  0.0649 -0.0155 -0.1482
 2819W        W 6563   8.351   1.222   9.278  0.0853 -0.0287  0.1554
 2820W        W 6564   3.339   4.719  11.801 -0.1828  0.4158  0.0882
 2821W        W 6565   6.924   4.805   9.425  0.0894  0.2409  0.2613
 2822W        W 6566   8.409   8.290   9.886 -0.0665 -0.0953  0.1740
 2823W        W 6567   6.449   5.337  10.003 -0.3329 -0.0380  0.0946
 2824W        W 6568   7.871   1.381   9.401 -0.1627  0.2083  0.0316
 2825W        W 6569   2.662   2.032   9.153  0.1713 -0.1036  0.2456
 2826W        W 6570   3.193   9.208   9.259 -0.1624 -0.0408 -0.4700
 2827W        W 6571   0.069   2.345   8.190  0.0128  0.2277  0.2989
 2828W        W 6572   5.349   7.179  11.625 -0.0157  0.2147 -0.3283
 2829W        W 6573   6.818   3.692   8.201 -0.2178 -0.0696  0.1628
 2830W        W 6574   2.246   9.067   8.208 -0.0901  0.3220 -0.1206
 2831W        W 6575   2.850   9.131   0.170 -0.1931 -0.2878  0.1384
 2832W        W 6576   0.801   6.599   8.633  0.1569 -0.4142  0.4155
 2833W        W 6577   0.082   4.723  10.479 -0.4956  0.1312 -0.0417
 2834W        W 6578   5.135   3.104  10.406 -0.1913  0.0683 -0.1059
 2835W        W 6579   6.278   4.552  10.503  0.1410 -0.0816  0.0799
 2836W        W 6580   7.890   0.436  11.176  0.1871 -0.0034  0.1801
 2837W        W 6581   5.928   6.988   9.237  0.1823 -0.2418 -0.4254
 2838W        W 6582   1.963   9.862   8.617  0.1800 -0.0211 -0.0434
 2839W        W 6583   1.618   4.986  11.184  0.1571 -0.1811  0.2444
 2840W        W 6584   3.901   3.561   2.379  0.1381  0.1435  0.0247
 2841W        W 6585   6.913   5.709  12.100 -0.1838  0.1639 -0.0330
 2842W        W 6586   8.882   3.572  12.162 -0.0449  0.0025 -0.2023
 2843W        W 6587   1.926   7.249   1.862  0.0973 -0.1203  0.0229
 2844W        W 6588   9.928   9.478  12.072 -0.2009  0.0885 -0.4642
 2845W        W 6589   8.341   2.204  12.193 -0.1404  0.0422  0.0804
 2846W        W 6590   3.529   1.582  10.628 -0.0454 -0.1870  0.2345
 2847W        W 6591   9.706   3.715   1.894 -0.2333  0.0878  0.3749
 2848W        W 6592   0.518   2.655   2.048 -0.2330  0.1542  0.2396
 2849W        W 6593   1.820   7.633   2.847 -0.1292  0.0953  0.1329
 2850W        W 6594   6.140   8.747  11.487  0.0321 -0.0696 -0.1848
 2851W        W 6595   1.726   8.015   3.554  0.1600  0.0620  0.2361
 2852W        W 6596   7.045   2.754  10.541  0.0567 -0.2921 -0.1628
 2853W        W 6597   7.628   5.275   8.289  0.3608  0.1099 -0.2818
 2854W        W 6598   4.824   8.637   8.157 -0.1270 -0.3161 -0.3247
 2855W        W 6599   5.672   6.290   8.972 -0.1108  0.1015 -0.0298
 2856W        W 6600   5.098   0.532  11.882 -0.2351 -0.2687 -0.2213
 2857W        W 6601   6.441   5.957   0.801  0.0730  0.0425  0.1079
 2858W        W 6602   2.572   7.949   8.878  0.1441  0.0164  0.0618
 2859W        W 6603   6.789   9.581  12.208 -0.1626  0.1837 -0.4887
 2860W        W 6604   6.873   1.581   8.924  0.2102  0.0579  0.3506
 2861W        W 6605   6.323   1.733   2.174 -0.2372 -0.0105 -0.4336
 2862W        W 6606   4.297   8.935   9.541  0.3175  0.1092  0.1837
 2863W        W 6607   4.268   6.308  12.138  0.1253  0.0280 -0.2452
 2864W        W 6608   8.871   2.957   3.301 -0.0935  0.2241 -0.2951
 2865W        W 6609   5.895   3.460  11.130  0.0991  0.0423  0.3341
 2866W        W 6610   1.695   6.432   8.573  0.2714 -0.1674  0.0422
 2867W        W 6611   6.642   3.725   1.382  0.0343 -0.2927 -0.4318
 2868W        W 6612   4.310   1.776   9.055  0.3817  0.1673 -0.2057
 2869W        W 6613   1.256   2.524   2.971  0.0242  0.0610  0.2424
 2870W        W 6614   6.397   9.004   0.518  0.1440  0.1319 -0.3809
 2871W        W 6615   3.566   6.487  10.170  0.1834  0.1819  0.1061
 2872W        W 6616   9.921   5.493  11.206 -0.4580  0.2693 -0.1276
 2873W        W 6617   0.494   0.624   8.399 -0.0264 -0.1630 -0.1393
 2874W        W 6618   7.909   3.678   1.536 -0.1479 -0.1271  0.0192
 2875W        W 6619   9.793   2.344   8.780  0.0378 -0.2454  0.0984
 2876W        W 6620   9.268   4.117   7.495 -0.0457  0.2477  0.0840
 2877W        W 6621   3.613   9.669  11.448  0.0688  0.1057  0.0955
 2878W        W 6622   6.876   8.334  11.741  0.1214  0.0612  0.1889
 2879W        W 6623   2.810   0.376   1.224  0.0910  0.1857  0.0166
 2880W        W 6624   2.619   8.368  11.958 -0.0036  0.0131 -0.1998
 2881W        W 6625   2.145   2.801  10.250 -0.0291  0.2080  0.0938
 2882W        W 6626   1.856   7.514  10.065 -0.0065  0.2332 -0.0466
 2883W        W 6627   0.232   1.888   9.171  0.1724 -0.0342  0.2011
 2884W        W 6628   7.553   6.162   9.631  0.1749  0.0525  0.2165
 2885W        W 6629   4.949   1.230   2.584  0.0201 -0.0009  0.1306
 2886W        W 6630   1.662   2.673  10.040 -0.0060  0.0120  0.0689
 2887W        W 6631   9.927   0.701  11.024 -0.0119  0.1758  0.2920
 2888W        W 6632   6.343   7.230  10.361 -0.3107  0.2406  0.2810
 2889W        W 6633   5.743   1.310   0.634 -0.0493 -0.2784 -0.0197
 2890W        W 6634   3.847   0.724  11.243  0.0493 -0.0605 -0.0168
 2891W        W 6635   4.924   3.936   9.300  0.1415 -0.5724 -0.1949
 2892W        W 6636   5.970   0.243   2.250  0.2017 -0.0272  0.0316
 2893W        W 6637   9.377   4.332   0.811 -0.2971 -0.2397  0.0053
 2894W        W 6638   2.216   0.538   8.398 -0.1478  0.1073  0.0332
 2895W        W 6639   5.213   2.335   4.569  0.0648 -0.2568  0.2859
 2896W        W 6640   1.477   7.354   1.582  0.0866  0.1301 -0.0533
 2897W        W 6641   9.034   3.168  11.723  0.3470  0.0718 -0.2379
 2898W        W 6642   4.540   5.390   8.623  0.3710 -0.0719 -0.2453
 2899W        W 6643   1.465   8.506   0.450 -0.1713  0.0328 -0.0348
 2900W        W 6644   1.470   2.138  12.141 -0.1049  0.2440  0.5039
 2901W        W 6645   9.974   5.731   9.297 -0.0966 -0.1392 -0.1629
 2902W        W 6646   2.672  10.155  12.055  0.2140  0.3086  0.0389
 2903W        W 6647   2.077   2.852   2.081 -0.0639  0.1744  0.0686
 2904W        W 6648   8.281   8.073   8.298  0.0367 -0.0483  0.0959
 2905W        W 6649   1.556   0.546   0.321  0.0762 -0.4058 -0.0306
 2906W        W 6650   7.010   6.392   3.620 -0.0831 -0.2150  0.1017
 2907W        W 6651   8.467   6.893   8.278  0.1341  0.0030  0.0290
 2908W        W 6652   7.992   2.968   2.363  0.0632 -0.0714  0.0836
 2909W        W 6653   7.709   4.144   1.176  0.0249 -0.1905  0.0104
 2910W        W 6654   1.710   9.100  11.192  0.4446 -0.1577  0.0649
 2911W        W 6655   8.332   5.433  10.813  0.3216  0.0164  0.4304
 2912W        W 6656   4.096   1.321   9.857 -0.3866  0.0999 -0.0826
 2913W        W 6657   0.157   8.624  10.855 -0.0890  0.1296  0.0698
 2914W        W 6658   0.255   6.791   1.369  0.0279 -0.0967 -0.3203
 2915W        W 6659   0.304   8.503   3.310  0.0240  0.1448  0.2170
 2916W        W 6660   7.470   3.452   9.200 -0.1444 -0.0912 -0.3271
 2917W        W 6661   9.599   1.694   7.578  0.2347 -0.1719  0.1121
 2918W        W 6662   8.030   1.953  11.457 -0.2451  0.0052  0.2658
 2919W        W 6663   0.760   4.647  10.966 -0.1046 -0.3440 -0.0213
 2920W        W 6664   5.072   9.862   3.197 -0.4075 -0.0997 -0.0153
 2921W        W 6665   6.444   6.752   2.386 -0.0852  0.0244  0.1132
 2922W        W 6666   2.832   3.939   0.320  0.1288 -0.3065 -0.0585
 2923W        W 6667   6.773   2.953   1.533 -0.0531 -0.3088 -0.0079
 2924W        W 6668   3.900   8.133   7.873 -0.1894 -0.1416 -0.1078
 2925W        W 6669   3.950   6.333   7.747  0.1954  0.0222 -0.1149
 2926W        W 6670   1.389   3.402   4.230  0.0616 -0.0448 -0.3557
 2927W        W 6671   3.539   1.791   8.208  0.1485  0.0017 -0.2163
 2928W        W 6672   1.929   1.982  11.124  0.1574 -0.0751  0.2512
 2929W        W 6673   2.409   6.100  10.661 -0.2319  0.0612 -0.2005
 2930W        W 6674   7.500   9.106   0.220  0.2982  0.0849 -0.1542
 2931W        W 6675   7.201   5.890  11.285  0.0058 -0.3762  0.1351
 2932W        W 6676   2.007  10.054  10.839  0.0107  0.2182 -0.0812
 2933W        W 6677   1.603   6.196   7.594  0.0283 -0.1748  0.1400
 2934W        W 6678   4.917   7.617   0.695  0.0542  0.4204  0.0051
 2935W        W 6679   9.808   7.747  10.947  0.0897  0.2787  0.1248
 2936W        W 6680   8.580   3.802   1.905 -0.0322 -0.0591  0.5718
 2937W        W 6681   5.585   0.806   8.694 -0.5784  0.0377 -0.0551
 2938W        W 6682   2.424   0.358  11.227  0.2390 -0.0648 -0.3198
 2939W        W 6683   7.494   4.146   2.003  0.0368  0.1710  0.3825
 2940W        W 6684   7.147   0.726   1.118  0.1821 -0.0445  0.2104
 2941W        W 6685   4.840   5.082   0.202  0.1708 -0.0660 -0.2147
 2942W        W 6686   4.323   7.439   9.090  0.1978  0.2364 -0.0444
 2943W        W 6687   9.764   3.009   9.280  0.1661  0.0157  0.1211
 2944W        W 6688   2.273   0.430   1.112 -0.1390  0.2320 -0.1947
 2945W        W 6689   2.538   6.189   1.117  0.2799  0.0558 -0.1159
 2946W        W 6690   1.859   7.872   7.851 -0.0542 -0.1143 -0.0034
 2947W        W 6691   8.702   6.114   1.035  0.0106  0.1319  0.0370
 2948W        W 6692   4.205   0.392   8.996  0.0668 -0.2714 -0.2124
 2949W        W 6693   0.729   0.344   0.520  0.0904  0.3989  0.1796
 2950W        W 6694   4.476   6.819  10.042 -0.1582  0.1028 -0.0555
 2951W        W 6695   0.966   7.381   1.768 -0.2711  0.3103  0.1045
 2952W        W 6696   0.958   4.217   9.181  0.1608  0.1152 -0.2173
 2953W        W 6697   9.588   0.942   1.631  0.0337  0.3193  0.1431
 2954W        W 6698   9.872   2.169   3.363 -0.2908 -0.2902  0.0393
 2955W        W 6699   3.692   0.592   8.951 -0.2717 -0.1099 -0.2658
 2956W        W 6700   7.202   9.110   1.970 -0.2914 -0.2691 -0.1658
 2957W        W 6701   8.799   7.246  10.212 -0.2182 -0.1127 -0.1217
 2958W        W 6702   1.473   6.675   7.555 -0.0257  0.0285  0.0082
 2959W        W 6703   7.882   8.159  12.094 -0.0001  0.0521 -0.2318
 2960W        W 6704   5.586   1.418   8.630 -0.1355  0.0921  0.0264
 2961W        W 6705   7.393   9.016   2.869 -0.4033 -0.0230  0.2462
 2962W        W 6706   6.763   6.873   1.078 -0.0224  0.1304  0.0857
 2963W        W 6707   0.840   0.398   2.414  0.1756  0.0526  0.1154
 2964W        W 6708   5.932   6.646   1.629 -0.0280 -0.1071 -0.0037
 2965W        W 6709   4.440   3.231   8.702  0.0681  0.3386 -0.2654
 2966W        W 6710   3.381   8.723  10.796  0.1212  0.2013 -0.1970
 2967W        W 6711   2.875   4.202   8.865  0.1893 -0.1197  0.1281
 2968W        W 6712   6.586   0.284   8.972  0.2281  0.2079  0.3155
 2969W        W 6713   3.716   9.314   2.959  0.2331 -0.1337 -0.0008
 2970W        W 6714   9.780   7.726   7.746  0.0058  0.2943 -0.0704
 2971W        W 6715   6.646   0.748   9.297  0.2414 -0.0524 -0.1642
 2972W        W 6716   8.571   2.602   2.942  0.2590 -0.2666 -0.2522
 2973W        W 6717   2.238   2.293   9.140 -0.2267 -0.0231  0.0700
 2974W        W 6718   4.792   0.610   8.073  0.2442  0.2864 -0.2552
 2975W        W 6719   0.716   6.978   2.167  0.2409  0.3265 -0.1831
 2976W        W 6720   7.093   1.579   3.571 -0.3196 -0.1085  0.3639
 2977W        W 6721   0.671   0.085   1.302 -0.0406  0.2906 -0.2733
 2978W        W 6722   1.820   3.889  10.151  0.0763  0.0351 -0.2514
 2979W        W 6723   5.669   6.112   9.798  0.0554 -0.0775  0.1165
 2980W        W 6724   8.266   5.203  11.884  0.1542  0.3436 -0.2010
 2981W        W 6725   0.947   3.898   0.669 -0.0216  0.1225  0.1068
 2982W        W 6726   4.516   0.531  10.481  0.1523 -0.0704  0.1043
 2983W        W 6727   5.684   8.000   8.246 -0.3603  0.1061  0.1025
 2984W        W 6728   8.444   8.166  10.942 -0.1773  0.1865  0.0274
 2985W        W 6729   1.117   2.350   9.524 -0.0471 -0.0409  0.0143
 2986W        W 6730   9.130   9.880   8.253  0.4478  0.1013 -0.1718
 2987W        W 6731  10.145   1.779   9.669  0.2035 -0.1076  0.1334
 2988W        W 6732   8.196   9.034   9.733  0.1013  0.0157 -0.1732
 2989W        W 6733   1.984   1.335   9.249  0.0328  0.0249 -0.2675
 2990W        W 6734  10.035   0.631   9.599 -0.1208  0.0956 -0.1334
 2991W        W 6735   1.249   1.044   8.888 -0.3517  0.3384 -0.0083
 2992W        W 6736   7.735   1.859   2.524 -0.0291 -0.0955 -0.0254
 2993W        W 6737   6.475   1.138   8.996  0.0828  0.0879  0.2855
 2994W        W 6738   7.037   5.819   8.862  0.2855  0.0208 -0.2235
 2995W        W 6739   8.263   3.823  11.458  0.1608 -0.0957 -0.0635
 2996W        W 6740   3.387   8.651   0.921 -0.0254 -0.1001 -0.1329
 2997W        W 6741   5.487   3.095   4.003 -0.1954 -0.0005 -0.0113
 2998W        W 6742   5.026   3.620  10.310 -0.2471 -0.1650  0.1950
 2999W        W 6743   2.812   1.919   9.806 -0.0006 -0.0164 -0.0353
 3000W        W 6744   0.604   5.312   8.823  0.0168 -0.2018  0.0219
 3001W        W 6745   2.811   1.754  10.264 -0.2681  0.0164  0.1882
 3002W        W 6746   7.647   2.848  10.480 -0.0512 -0.0794  0.2129
 3003W        W 6747   7.185   0.314  11.032  0.3845 -0.2003  0.1074
 3004W        W 6748   4.659   4.975   8.390  0.2089 -0.0605 -0.1609
 3005W        W 6749   4.784   9.369   1.450  0.1583 -0.1186  0.2118
 3006W        W 6750   0.853   0.615   3.526  0.0576 -0.4163 -0.2934
 3007W        W 6751   2.007   6.492   1.234  0.2833  0.1199  0.0709
 3008W        W 6752   0.391   5.224  12.111  0.1531  0.0872  0.1527
 3009W        W 6753   6.515   9.169   8.928  0.1348  0.4646 -0.1497
 3010W        W 6754   1.315   7.634   8.917  0.0165  0.5282 -0.1208
 3011W        W 6755   9.645   7.360  10.586 -0.0789 -0.0447  0.0172
 3012W        W 6756   5.061   3.599  11.398 -0.0055 -0.2390 -0.0597
 3013W        W 6757   2.818   8.404   8.784 -0.4388 -0.1966  0.0748
 3014W        W 6758   5.884   1.849  11.797  0.0131 -0.0936  0.0551
 3015W        W 6759   3.248   2.948  11.811 -0.1082  0.1132 -0.0565
 3016W        W 6760   8.675   5.976   3.472 -0.0815 -0.3438 -0.0324
 3017W        W 6761   0.002   9.538   2.274 -0.0323  0.2073 -0.0612
 3018W        W 6762   9.747   5.584   2.629 -0.2809 -0.2302 -0.0178
 3019W        W 6763   7.308   3.928   9.978  0.0689 -0.0170  0.3261
 3020W        W 6764   2.447   8.714  11.528 -0.2701 -0.1064  0.1593
 3021W        W 6765   1.821   1.667  10.233 -0.2738 -0.1497 -0.1798
 3022W        W 6766   9.723   5.554   1.311  0.4142  0.0727  0.0478
 3023W        W 6767   8.284   4.184  10.539  0.0040 -0.1853  0.2372
 3024W        W 6768   4.754   2.922   2.082 -0.1426 -0.3824  0.0950
 3025W        W 6769   8.508   8.790  10.217 -0.1265  0.3503 -0.3701
 3026W        W 6770   6.974   3.957   0.191 -0.2597 -0.2789  0.1007
 3027W        W 6771   5.471   4.237  11.077 -0.1472  0.0342 -0.0755
 3028W        W 6772   8.926   5.552   3.299 -0.1983  0.0939  0.2010
 3029W        W 6773   0.375   4.307  11.198  0.0380 -0.2033  0.3366
 3030W        W 6774   8.985   1.489   2.249  0.1209 -0.0267 -0.4067
 3031W        W 6775   1.895   0.806   0.976  0.1931 -0.3893  0.3560
 3032W        W 6776   5.517   1.219   0.084 -0.1059  0.2613 -0.1136
 3033W        W 6777   2.170   1.845   9.020  0.1641  0.0328  0.2977
 3034W        W 6778  10.006   3.238   8.316  0.0311 -0.1337 -0.2489
 3035W        W 6779   3.143   6.026  11.359  0.1682 -0.1508 -0.1767
 3036W        W 6780   2.687   1.858  10.797  0.1750  0.0090  0.0295
 3037W        W 6781   3.010   2.542   4.307 -0.0042 -0.2097  0.1697
 3038W        W 6782   0.670   9.278   3.091 -0.2770  0.1932 -0.1550
 3039W        W 6783   0.892   7.743   2.385  0.1789  0.2743  0.2214
 3040W        W 6784   5.869   5.917   0.085  0.2521 -0.2044  0.4962
 3041W        W 6785   4.537   7.399  10.853  0.0899 -0.3330  0.1129
 3042W        W 6786   8.215   7.688   0.700 -0.3459  0.0068 -0.0431
 3043W        W 6787   7.532   4.299   0.448  0.1625  0.1756 -0.2637
 3044W        W 6788   1.887   8.744   0.486 -0.3156  0.0461  0.1935
 3045W        W 6789   4.714   8.596  10.438  0.2980  0.1919 -0.1423
 3046W        W 6790   2.688   9.135  11.473 -0.0838  0.2593 -0.0525
 3047W        W 6791   9.159   9.244   0.384  0.1371 -0.1825 -0.5495
 3048W        W 6792   1.890   6.466   9.216 -0.3692  0.1051  0.0914
 3049W        W 6793   5.279   5.390   2.944 -0.0426 -0.1564  0.0446
 3050W        W 6794   2.734   1.583   3.046  0.1843 -0.2203  0.2158
 3051W        W 6795   6.762   7.328  12.118  0.1539 -0.0047  0.0523
 3052W        W 6796   8.781   1.451   0.707  0.3192  0.1280 -0.1698
 3053W        W 6797   9.128   9.754   8.785  0.2991 -0.0556 -0.1079
 3054W        W 6798   8.403   3.145   9.622 -0.2075 -0.2856 -0.1332
 3055W        W 6799   0.382   0.792   3.794 -0.3590 -0.2582  0.0139
 3056W        W 6800   4.188   3.598   8.969  0.0700  0.3823  0.1762
 3057W        W 6801   8.871   5.455   9.615  0.4033  0.1507 -0.1333
 3058W        W 6802   1.043   4.519   2.620  0.1491 -0.1758  0.0767
 3059W        W 6803   4.120   5.263   1.637 -0.2662 -0.0503 -0.1064
 3060W        W 6804   2.730   3.747   0.803 -0.0239  0.4304  0.0579
 3061W        W 6805   3.550   6.155   1.839 -0.2463  0.2899 -0.2490
 3062W        W 6806   6.179   2.026  10.614 -0.0508 -0.3419 -0.1321
 3063W        W 6807   5.946   3.970  11.407 -0.2244  0.0083  0.0534
 3064W        W 6808   5.571   1.568   2.708  0.1249  0.0739  0.1624
 3065W        W 6809   8.986   7.747  11.637  0.2262 -0.1108 -0.6932
 3066W        W 6810   2.861   4.119  10.205  0.3400 -0.0848  0.1604
 3067W        W 6811   1.910   0.799  11.347  0.0473 -0.1784  0.1608
 3068W        W 6812   8.685   8.999  11.539 -0.0102  0.0079 -0.1668
 3069W        W 6813   1.086   0.730   2.663  0.2243  0.1191 -0.0904
 3070W        W 6814   5.979   2.556   0.540 -0.0445 -0.1357  0.3548
 3071W        W 6815   8.427   3.746  11.950  0.0366  0.0950 -0.4927
 3072W        W 6816   6.254   6.359   3.125  0.3092 -0.4297  0.1792
 3073W        W 6817   3.346   9.884   9.902 -0.1962 -0.1733  0.0800
 3074W        W 6818   6.960   9.701   0.518  0.3231 -0.0952 -0.0943
 3075W        W 6819   2.951   8.741   3.585  0.0088 -0.0147  0.0642
 3076W        W 6820   1.283   6.790   9.715 -0.0508  0.0489  0.2674
 3077W        W 6821   6.467   9.478   0.976 -0.3491 -0.1076  0.1200
 3078W        W 6822   9.868   9.245   1.913 -0.0807 -0.0552  0.0796
 3079W        W 6823   8.797   8.616  11.266  0.3170  0.0680  0.3720
 3080W        W 6824   6.199   1.433   9.262  0.0787 -0.0778  0.4578
 3081W        W 6825   6.647   9.577  11.280  0.1998  0.2151 -0.0110
 3082W        W 6826   2.579   0.256   0.332  0.2578  0.1125 -0.1412
 3083W        W 6827   9.210   4.828   2.841  0.1174  0.1844  0.2770
 3084W        W 6828   4.447   2.238   1.394 -0.0063 -0.1558  0.2245
 3085W        W 6829   9.301   3.639  11.528  0.2944  0.2052 -0.0904
 3086W        W 6830   9.771   2.641   0.136 -0.1868 -0.1951 -0.0999
 3087W        W 6831   9.489   6.458   2.433  0.0193 -0.0497 -0.0642
 3088W        W 6832   9.232   5.613  10.611  0.0742  0.0804 -0.2252
 3089W        W 6833   5.189   6.835   2.047 -0.0964  0.2412  0.0291
 3090W        W 6834   6.555   6.184  11.739 -0.0192  0.0084  0.2895
 3091W        W 6835   5.086   6.470   9.700 -0.0998  0.0157  0.0656
 3092W        W 6836   8.049   4.805  12.127 -0.0998 -0.2851 -0.1646
 3093W        W 6837   5.410   7.383  11.005 -0.1673  0.0295 -0.0754
 3094W        W 6838   6.317   9.731   2.608  0.2787 -0.1224  0.0405
 3095W        W 6839   5.943   2.065  10.004 -0.3146 -0.2547  0.1459
 3096W        W 6840   6.919   8.513  10.072 -0.4542 -0.1767  0.0557
 3097W        W 6841   4.860   0.915  10.444 -0.0260  0.2610 -0.1699
 3098W        W 6842   2.961   2.311   1.927 -0.0524  0.2616  0.1019
 3099W        W 6843   3.244   8.268  11.147  0.0751  0.1092  0.0226
 3100W        W 6844   8.154   6.311   1.700 -0.0798 -0.0230  0.2181
 3101W        W 6845   5.520   7.582  11.432 -0.1091  0.0957 -0.2471
 3102W        W 6846   6.076   8.945  10.268  0.0156  0.0806  0.1395
 3103W        W 6847   6.982   9.062   2.535 -0.2608 -0.3423  0.0903
 3104W        W 6848   3.836   2.930   9.915  0.3269 -0.0214  0.1032
 3105W        W 6849   7.714   9.977   8.169  0.0508  0.2208  0.4836
 3106W        W 6850   3.383   8.661   3.794  0.0166  0.0651  0.1629
 3107W        W 6851   2.804   8.268   2.734  0.0509 -0.3108  0.2189
 3108W        W 6852   1.034   1.443   1.481 -0.0293  0.1719  0.1991
 3109W        W 6853   0.713   1.359   2.276 -0.0764 -0.0598  0.2766
 3110W        W 6854   6.975   2.785   0.142 -0.1096  0.2360 -0.3282
 3111W        W 6855   4.739   0.670   9.960 -0.1727  0.1149  0.0534
 3112W        W 6856   0.563   8.260   9.157  0.1219  0.0647  0.1930
 3113W        W 6857   8.256   6.861   1.366 -0.1335  0.2028 -0.1597
 3114W        W 6858   8.282   6.033   8.643 -0.1104  0.1301  0.1685
 3115W        W 6859   0.612   1.914  12.170 -0.0859 -0.3001 -0.0582
 3116W        W 6860   7.665   7.072  11.419  0.0656 -0.0967 -0.0370
 3117W        W 6861   3.997   4.948   0.308 -0.0479 -0.0458 -0.0207
 3118W        W 6862   4.627   5.112   1.965  0.1282 -0.0912  0.1174
 3119W        W 6863   5.406   1.363   0.988 -0.1313 -0.2059  0.2581
 3120W        W 6864   0.331   3.210   2.728 -0.1588  0.1867 -0.3697
 3121W        W 6865  10.029   3.091   9.744  0.3692  0.1392  0.2760
 3122W        W 6866   2.233   7.753  10.342 -0.2320 -0.1907  0.0402
 3123W        W 6867   1.571   0.218   3.166  0.0578 -0.0767 -0.1193
 3124W        W 6868   2.993   0.438   3.822 -0.2241 -0.1229 -0.1213
 3125W        W 6869   2.146   5.697  10.700 -0.0431  0.1029  0.0927
 3126W        W 6870   3.416   4.018   0.548  0.1866  0.0412  0.1328
 3127W        W 6871   6.275   8.426   3.238  0.2173  0.2426  0.1521
 3128W        W 6872   1.089   3.495  11.603  0.0008 -0.5687  0.0881
 3129W        W 6873   6.923   2.035   1.453  0.1864 -0.1853 -0.0930
 3130W        W 6874   2.933   5.557  11.475  0.2933 -0.2644 -0.1581
 3131W        W 6875  10.011   5.707  10.457 -0.2104 -0.0877 -0.0745
 3132W        W 6876   6.877   6.120   0.511 -0.2854 -0.3211 -0.3443
 3133W        W 6877   1.514   9.891   0.321  0.5232 -0.1876 -0.1434
 3134W        W 6878   1.276   8.100   3.385  0.2079 -0.3362  0.1404
 3135W        W 6879   3.366   9.984   0.608 -0.2761 -0.3246 -0.1114
 3136W        W 6880   9.152   4.609  11.125 -0.0344  0.0469  0.0336
 3137W        W 6881   3.669   7.203   8.434 -0.2541  0.1355 -0.1700
 3138W        W 6882   3.723   3.999  11.866  0.2638 -0.0323 -0.2199
 3139W        W 6883   6.713   7.283   9.420 -0.1053  0.1215 -0.1556
 3140W        W 6884   0.545   4.384   2.833  0.2513 -0.1631  0.0555
 3141W        W 6885   4.438   0.038   8.202  0.0973 -0.0243  0.3253
 3142W        W 6886  10.047   9.919  11.687  0.2768 -0.1660  0.0728
 3143W        W 6887   9.942   3.253  12.135 -0.0198 -0.0617  0.2086
 3144W        W 6888   8.555   8.832   8.246 -0.0837 -0.2595  0.1363
 3145W        W 6889   4.120   4.026  10.264  0.2383  0.1020  0.1537
 3146W        W 6890   3.768   3.433   9.197  0.2005 -0.1095  0.0938
 3147W        W 6891   9.558   5.989   9.960  0.0595 -0.0620 -0.1079
 3148W        W 6892   2.939   9.492  10.693 -0.0399  0.3622  0.1721
 3149W        W 6893   5.435   7.895   2.163  0.0659 -0.1600  0.0288
 3150W        W 6894   8.015   7.548   1.198  0.0680  0.0066  0.1816
 3151W        W 6895   8.297   2.918  10.594  0.0606  0.3258 -0.1433
 3152W        W 6896   4.160   2.292   0.990  0.2417  0.1093  0.0580
 3153W        W 6897   4.516   3.049   9.401  0.1537 -0.1414  0.5695
 3154W        W 6898   4.215   1.540  10.298  0.0734  0.0588  0.3029
 3155W        W 6899   9.852   0.738   8.691 -0.1642 -0.1450  0.1611
 3156W        W 6900   6.914   4.763   1.398 -0.4565 -0.2818  0.0313
 3157W        W 6901   3.780   6.961  10.789  0.0272 -0.0357  0.2561
 3158W        W 6902   8.869   9.063  10.546 -0.1246 -0.0462  0.0739
 3159W        W 6903   2.241  10.055   3.450 -0.0480  0.1142 -0.0487
 3160W        W 6904   8.426   2.483   2.446 -0.1263 -0.2168  0.2515
 3161W        W 6905   2.735   9.615   7.544 -0.0493 -0.1406 -0.3029
 3162W        W 6906   2.124   1.098  10.819  0.0070 -0.0981  0.2534
 3163W        W 6907   4.414   6.610   8.716  0.1535 -0.1674 -0.0301
 3164W        W 6908   4.736   6.283   8.383  0.0505  0.1110  0.1439
 3165W        W 6909   2.398   8.849  10.949  0.5159  0.1747  0.0242
 3166W        W 6910   3.223   6.930   1.427  0.0760 -0.0792 -0.0403
 3167W        W 6911  10.160   3.945   0.286  0.0995 -0.0536  0.1384
 3168W        W 6912   2.932   7.003  11.890  0.1201 -0.1877 -0.0314
 3169W        W 6913   4.201   4.424  11.931  0.1579  0.1216  0.2430
 3170W        W 6914   5.455   2.549   2.476  0.0391 -0.1972 -0.2603
 3171W        W 6915   1.704   2.603   3.246 -0.1025  0.0749 -0.2550
 3172W        W 6916   2.305   2.837   9.310 -0.0692  0.1200  0.0650
 3173W        W 6917   4.862   0.554  10.813 -0.0349  0.2311 -0.1890
 3174W        W 6918   7.763   8.637  10.650 -0.1405 -0.1756 -0.1514
 3175W        W 6919   1.724   6.818  10.464  0.0858  0.1521 -0.1960
 3176W        W 6920   6.998  10.076  11.062  0.1723  0.0879  0.1957
 3177W        W 6921   4.734   6.889   7.742 -0.3163 -0.0970  0.1049
 3178W        W 6922   1.890   9.085   7.650 -0.0102 -0.3897  0.2835
 3179W        W 6923   4.517   9.426   9.820 -0.3002  0.0678  0.1445
 3180W        W 6924   2.573   3.386   4.333 -0.0305  0.0205 -0.2101
 3181W        W 6925   6.387   9.866   7.121 -0.1124 -0.0096  0.2108
 3182W        W 6926   3.591   8.740   8.933  0.0680 -0.2659 -0.0968
 3183W        W 6927   4.135   4.443   7.457 -0.0561 -0.0213  0.2064
 3184W        W 6928   1.044   2.608   2.148 -0.0336  0.2498  0.3102
 3185W        W 6929   5.028   1.414  11.908 -0.0075 -0.3209  0.0744
 3186W        W 6930   0.942   7.000   0.785  0.1706  0.0896 -0.2379
 3187W        W 6931   7.372   3.989   9.104 -0.0627 -0.3737  0.3244
 3188W        W 6932   2.461   2.305  10.950  0.0710 -0.1367 -0.1020
 3189W        W 6933   1.436   9.328   9.536 -0.0921 -0.3785  0.2664
 3190W        W 6934   7.320   3.737   2.289 -0.0858  0.0871 -0.1043
 3191W        W 6935   4.433   8.283  10.767 -0.1213 -0.0398 -0.1898
 3192W        W 6936   6.385   2.945   9.377 -0.2609 -0.1343  0.0083
 3193W        W 6937   9.729   6.648  11.915  0.0201 -0.1412  0.2391
 3194W        W 6938   2.313   7.112   3.348 -0.0337 -0.0177  0.0380
 3195W        W 6939   4.107   1.104   0.943  0.3139  0.2488  0.1868
 3196W        W 6940   1.325   7.814   9.411  0.0111  0.2781  0.2142
 3197W        W 6941   1.196   0.435   1.150 -0.0244 -0.0612 -0.0232
 3198W        W 6942   3.837   4.346   7.905 -0.2434  0.0290  0.1812
 3199W        W 6943   4.990   5.068  11.608  0.1317 -0.2059 -0.0858
 3200W        W 6944   9.615   2.913   2.888 -0.0244  0.0824 -0.3421
 3201W        W 6945   6.914   5.641   2.160  0.2069  0.1042 -0.0639
 3202W        W 6946   7.285   0.008  10.599 -0.0564 -0.2343 -0.0003
 3203W        W 6947   5.675   4.479   1.075  0.1121  0.3694  0.1079
 3204W        W 6948   5.236   6.457   0.691  0.0294 -0.0667 -0.2213
 3205W        W 6949   3.817   9.845   9.671 -0.2020  0.2431  0.0792
 3206W        W 6950   5.658   9.375   7.916 -0.0377 -0.1366 -0.1325
 3207W        W 6951   5.989   6.233  10.217  0.2117 -0.0840  0.1001
 3208W        W 6952   7.477   2.409  12.042 -0.0767 -0.0223  0.0396
 3209W        W 6953   2.000   2.172   3.271  0.3205  0.2603 -0.0509
 3210W        W 6954   2.540   4.020   1.858  0.3184  0.1113 -0.0379
 3211W        W 6955   2.369   5.392   8.551  0.2647  0.0284 -0.0080
 3212W        W 6956   6.518   6.703   9.690 -0.0831 -0.1713  0.1380
 3213W        W 6957   5.521   2.040   3.798  0.0241  0.0786  0.1244
 3214W        W 6958   4.331   6.646   1.713 -0.1391  0.1972  0.2548
 3215W        W 6959   8.235   5.404   1.046  0.0644  0.3067  0.2244
 3216W        W 6960   5.418   1.021   9.705  0.0788 -0.1508  0.2882
 3217W        W 6961   1.035   3.391   0.611  0.0449  0.1913 -0.1670
 3218W        W 6962   6.241   8.309   9.501 -0.3383 -0.0745  0.0778
 3219W        W 6963   1.618   3.915   8.297 -0.1740 -0.0718 -0.2444
 3220W        W 6964   0.213   4.531  11.629 -0.1011  0.1874  0.1584
 3221W        W 6965   9.784   1.518   8.523 -0.3795 -0.0280  0.3214
 3222W        W 6966   3.896   6.997  11.865 -0.0418 -0.2566 -0.2161
 3223W        W 6967   6.132   6.201   8.822  0.1733 -0.0465 -0.3910
 3224W        W 6968   9.546   7.387   1.263  0.0008 -0.1452  0.1090
 3225W        W 6969   5.856   2.086  11.338  0.0341  0.0533  0.0399
 3226W        W 6970   0.400   9.406   8.103  0.0113 -0.0934 -0.0072
 3227W        W 6971   7.242   4.707   7.765  0.1046  0.1016  0.2066
 3228W        W 6972   1.267   9.305   4.187  0.4432 -0.3278  0.0948
 3229W        W 6973   2.514   0.886   8.556  0.1413  0.3366  0.4255
 3230W        W 6974   6.305   1.125   1.251 -0.1548 -0.0928 -0.1676
 3231W        W 6975   1.379   4.693   0.120 -0.2988 -0.2391  0.1615
 3232W        W 6976   3.956   4.451   8.681  0.3238 -0.0619  0.2051
 3233W        W 6977   5.650   0.132   2.736  0.0445 -0.0183 -0.0345
 3234W        W 6978   6.772   3.474   0.151  0.0696 -0.1154  0.1260
 3235W        W 6979   8.181   5.422   0.550 -0.1651  0.0239 -0.2037
 3236W        W 6980   5.148   2.457  11.112  0.0509  0.0811 -0.1791
 3237W        W 6981   8.719   3.502   9.755 -0.1061  0.3190 -0.0403
 3238W        W 6982   1.014   0.338   1.623 -0.1303 -0.3135  0.0356
 3239W        W 6983   2.288   9.674   0.750 -0.0011 -0.0006  0.0804
 3240W        W 6984   4.953   1.363   8.491 -0.2060 -0.1609 -0.0867
 3241W        W 6985   6.144   0.515   7.825 -0.3539 -0.1194  0.3174
 3242W        W 6986   8.470   9.405   9.617  0.0373 -0.1627  0.1245
 3243W        W 6987   9.028   8.109   1.624 -0.1995 -0.2957 -0.1354
 3244W        W 6988   9.260   9.511  11.313 -0.1843 -0.1810  0.3131
 3245W        W 6989   0.368   8.054   7.871 -0.1553  0.0520  0.0262
 3246W        W 6990   5.101   4.581   2.790  0.0695  0.4079 -0.2090
 3247W        W 6991   9.022   4.265  10.773 -0.4558  0.1287  0.0219
 3248W        W 6992   7.634   3.057   2.739  0.0362  0.1027 -0.0523
 3249W        W 6993   6.304   7.074   1.092 -0.1547 -0.2077 -0.0105
 3250W        W 6994   0.517   2.884   4.010  0.3203  0.0932 -0.1333
 3251W        W 6995   2.164  10.186   8.272  0.2125  0.1692 -0.2502
 3252W        W 6996   4.014   6.894   8.513 -0.1105  0.1425  0.1802
 3253W        W 6997   5.513   9.499   8.830  0.3509 -0.2827 -0.0897
 3254W        W 6998   0.237   3.591   8.822 -0.1954 -0.0866  0.0669
 3255W        W 6999   2.107   6.891   2.165 -0.1273  0.3432  0.1103
 3256W        W 7000   3.785   4.940  12.086 -0.1478  0.1228  0.0512
 3257W        W 7001   0.052   9.018   9.090 -0.0721 -0.1499  0.3431
 3258W        W 7002   7.135   2.869   8.642 -0.0882  0.0258 -0.4125
 3259W        W 7003   8.914   4.004   9.864 -0.2459  0.2006 -0.1432
 3260W        W 7004   5.570   5.884   7.420 -0.0234 -0.2008  0.0858
 3261W        W 7005   5.684   5.504   7.707 -0.1614 -0.1206 -0.0023
 3262W        W 7006   9.434   7.792  11.823  0.2753 -0.0251  0.2539
 3263W        W 7007   2.256   9.670  10.003 -0.0460  0.2100 -0.0501
 3264W        W 7008   9.518   9.214   2.933  0.0797 -0.1933 -0.0358
 3265W        W 7009   3.521   0.985   8.562  0.0465  0.0410  0.1978
 3266W        W 7010   4.587   6.584   3.492 -0.0051 -0.0047 -0.3144
 3267W        W 7011   6.768   9.560   8.278  0.0311 -0.5460  0.2995
 3268W        W 7012   9.568   2.996   8.660 -0.2326  0.1255 -0.0834
 3269W        W 7013  10.096   3.352   3.118 -0.3399 -0.1604  0.1783
 3270W        W 7014   1.544   3.037   2.007  0.0357 -0.2634  0.0422
 3271W        W 7015   9.153  10.058   4.055 -0.0804 -0.2342 -0.2507
 3272W        W 7016   2.457   8.702   2.802 -0.0856  0.0880 -0.0976
 3273W        W 7017   2.067   8.774   3.783 -0.0223  0.0695 -0.1615
 3274W        W 7018   6.334   1.179   2.314 -0.1016 -0.3720 -0.1469
 3275W        W 7019   3.168   2.409   2.849 -0.2681 -0.1693 -0.0886
 3276W        W 7020   1.034   6.684   7.751 -0.2549 -0.0677 -0.0953
 3277W        W 7021   0.115   6.790  11.335  0.0922  0.2348  0.0168
 3278W        W 7022   7.581  10.065   2.354 -0.2250 -0.0489 -0.1525
 3279W        W 7023   7.114   3.860   2.734 -0.2157  0.2456 -0.2989
 3280W        W 7024   4.380   9.486   1.126 -0.0436 -0.3886 -0.1607
 3281W        W 7025   9.212   4.405   8.827  0.1749 -0.2448 -0.0191
 3282W        W 7026   5.927   3.976   1.901 -0.1751 -0.1624  0.0989
 3283W        W 7027   9.648   4.099   8.955 -0.0394  0.1627 -0.0117
 3284W        W 7028   6.754   6.255   9.578  0.1652  0.0903  0.0586
 3285W        W 7029   5.372   2.619   0.495 -0.5594 -0.2373  0.1975
 3286W        W 7030   3.720   0.034   9.919  0.2703  0.0097 -0.0635
 3287W        W 7031   4.763   6.358  11.433  0.0819 -0.0617 -0.1674
 3288W        W 7032   4.387   2.645   0.037  0.1938 -0.0036  0.1131
 3289W        W 7033   6.879   2.749   2.030  0.1610 -0.2271 -0.2026
 3290W        W 7034   5.759   6.817  11.551 -0.0705  0.0323  0.1083
 3291W        W 7035   1.610   1.471   2.206  0.1206  0.4309 -0.0460
 3292W        W 7036   0.302   3.378   2.296 -0.1043 -0.2754 -0.0191
 3293W        W 7037   8.171   9.075   2.510 -0.0913  0.4024  0.1658
 3294W        W 7038   3.592   4.932   1.400  0.1798 -0.0568 -0.1442
 3295W        W 7039   1.776   6.209   0.272  0.1308 -0.0246  0.3034
 3296W        W 7040   4.072   0.466   9.503  0.0299  0.2562  0.0083
 3297W        W 7041   7.564   6.233  10.971 -0.1148 -0.0989  0.0792
 3298W        W 7042   6.792   5.125  11.389 -0.0624 -0.1251  0.1404
 3299W        W 7043   7.853   3.113   0.762  0.0892 -0.1435  0.1263
 3300W        W 7044   8.792   1.971   2.145  0.1505 -0.0142 -0.3362
 3301W        W 7045   0.499   7.592   8.714 -0.0642  0.1169  0.1107
 3302W        W 7046   0.559   1.510  10.423 -0.0566 -0.1180  0.1649
 3303W        W 7047   5.569   4.293   9.729  0.1961 -0.4258  0.1073
 3304W        W 7048   6.808   0.441   1.613 -0.3562  0.0623 -0.1241
 3305W        W 7049   8.405   4.119   2.399  0.0951  0.0480  0.1913
 3306W        W 7050   3.194   8.128   0.613 -0.2035 -0.0671  0.0739
 3307W        W 7051   7.783   1.509   8.551 -0.2284 -0.1328 -0.4158
 3308W        W 7052   2.830   2.167   3.949 -0.0723  0.1467 -0.0970
 3309W        W 7053   3.028   3.179   8.758 -0.0172  0.1152  0.0099
 3310W        W 7054   8.758   5.475   1.938 -0.1666 -0.0392 -0.0062
 3311W        W 7055   7.008   4.488   9.854 -0.0481 -0.2060 -0.0856
 3312W        W 7056   8.047   8.049   9.665  0.0687  0.0745  0.0936
 3313W        W 7057   9.661   4.325  12.146  0.0430  0.0324  0.3421
 3314W        W 7058  10.046   9.095   0.874  0.0416  0.2544 -0.1203
 3315W        W 7059   4.610   0.925   8.591 -0.0112  0.2629 -0.0603
 3316W        W 7060   7.916   6.357  11.406  0.0569  0.0284 -0.3459
 3317W        W 7061   9.888   3.239  11.616 -0.0704 -0.1133 -0.1383
 3318W        W 7062   2.772   1.386  11.821  0.0030 -0.1273  0.0531
 3319W        W 7063   8.614   9.916   8.405  0.4104  0.1395  0.2124
 3320W        W 7064   4.312   8.270   8.997 -0.0005  0.0900  0.1051
 3321W        W 7065   0.431   1.011   3.294 -0.0024  0.1189 -0.3772
 3322W        W 7066   5.276   5.164   0.531  0.0558  0.2259 -0.2113
 3323W        W 7067   3.268   1.614   9.806 -0.1394 -0.1779 -0.1268
 3324W        W 7068   8.623   1.328   8.887  0.0012 -0.2576  0.3292
 3325W        W 7069  10.026   7.193   7.962  0.2025  0.0047 -0.0876
 3326W        W 7070   6.816   4.232   3.434  0.0022  0.1461  0.2037
 3327W        W 7071   6.278   7.385  10.841 -0.1101 -0.0425  0.1367
 3328W        W 7072   0.098   1.824   3.262  0.2246  0.0132 -0.3265
 3329W        W 7073   8.863   2.102   9.385  0.2851  0.1636 -0.2588
 3330W        W 7074  10.004   3.912  10.292 -0.2444  0.1051 -0.0882
 3331W        W 7075   7.009   6.089  10.793  0.1223 -0.0787 -0.1257
 3332W        W 7076   1.154   7.137  11.110  0.1494  0.2287  0.2225
 3333W        W 7077   5.869   1.975   1.277 -0.2164 -0.3697  0.1800
 3334W        W 7078   7.933   9.369   8.286 -0.1809 -0.1622  0.2853
 3335W        W 7079  10.061   8.219   7.804 -0.1596 -0.1930 -0.2158
 3336W        W 7080   6.132   6.854   8.277  0.3065  0.0753 -0.1002
 3337W        W 7081   8.761   4.633  11.450  0.0637  0.0817  0.3520
 3338W        W 7082   2.296   2.847  10.767 -0.0168  0.1589 -0.0314
 3339W        W 7083   6.204   8.649   7.148  0.1600 -0.0988  0.1715
 3340W        W 7084   3.558   5.338   8.686 -0.0234 -0.1121  0.0062
 3341W        W 7085   3.116   6.057   0.533 -0.3386  0.0156 -0.1421
 3342W        W 7086   2.020   0.390   1.573  0.0074  0.2035  0.1475
 3343W        W 7087   6.965   1.524   0.208 -0.0741  0.0178 -0.3827
 3344W        W 7088   0.832   7.600   8.300 -0.0450  0.1766  0.0069
 3345W        W 7089   0.060   0.775   2.360 -0.1045  0.2416  0.3149
 3346W        W 7090   6.441   7.729  10.164  0.0628 -0.2232  0.1419
 3347W        W 7091   2.638   0.239   2.016  0.0315  0.1869 -0.1719
 3348W        W 7092   4.769   2.305   3.440  0.2285 -0.0451 -0.1890
 3349W        W 7093   1.509   8.156   2.113  0.0764 -0.0723 -0.0260
 3350W        W 7094   8.096   2.944   7.860  0.4530 -0.0988 -0.2069
 3351W        W 7095   0.894  10.192   1.969  0.0666  0.0243 -0.3412
 3352W        W 7096   6.880   5.834   7.634  0.0101 -0.0552  0.0043
 3353W        W 7097   6.108   6.041   8.282 -0.1079 -0.0163  0.1964
 3354W        W 7098   5.357   8.355   1.957  0.1386 -0.0278 -0.4339
 3355W        W 7099   0.885   8.626  12.150 -0.0224 -0.0806 -0.0702
 3356W        W 7100  10.013  10.146   9.114  0.1220 -0.0942 -0.2736
 3357W        W 7101   5.786   0.087   1.799  0.0566  0.3572 -0.0043
 3358W        W 7102   1.572   3.040   2.929 -0.0709  0.2385 -0.0745
 3359W        W 7103   7.764   3.741   7.288 -0.4087 -0.1524 -0.1784
 3360W        W 7104  10.044   7.093  10.653  0.3038 -0.1750  0.0545
 3361W        W 7105   4.594   7.421   9.965  0.0929 -0.0467 -0.1528
 3362W        W 7106   5.908   7.581   2.625  0.4584  0.0334  0.1966
 3363W        W 7107   3.981   3.701   1.272 -0.0983 -0.3021 -0.2433
 3364W        W 7108   1.825   8.975   0.038 -0.2013 -0.2219  0.0660
 3365W        W 7109   7.312   2.199   1.152  0.2931 -0.1303  0.1677
 3366W        W 7110   8.815   2.255   4.240  0.1771  0.0040 -0.1035
 3367W        W 7111   6.373   6.846  10.638 -0.0490  0.0068 -0.1345
 3368W        W 7112   6.509   5.915   9.863 -0.1188 -0.0444  0.1943
 3369W        W 7113   9.006   8.407   0.443 -0.0971  0.2022 -0.1598
 3370W        W 7114   8.699   3.691   1.330 -0.1021  0.0005  0.0532
 3371W        W 7115   6.504   7.893   9.405  0.1024  0.1048 -0.0965
 3372W        W 7116   9.183   5.547   2.173  0.0826  0.1722 -0.0795
 3373W        W 7117   4.486   6.897   0.035 -0.0483 -0.2495 -0.0634
 3374W        W 7118   0.128   6.713  11.910  0.0810 -0.1410  0.3085
 3375W        W 7119   8.835   3.661   8.984  0.1313 -0.0082 -0.1214
 3376W        W 7120   5.494   3.797   3.383  0.1580  0.0582  0.1738
 3377W        W 7121   8.973   5.966   9.846 -0.0534 -0.1390  0.0894
 3378W        W 7122   7.136   6.432   1.816  0.2169  0.0262 -0.0029
 3379W        W 7123   2.163  10.109   1.214  0.0066 -0.2176 -0.4564
 3380W        W 7124   0.486   8.458   0.196  0.0063  0.0175 -0.0602
 3381W        W 7125   7.412   2.478   8.661 -0.0812  0.2805  0.0714
 3382W        W 7126   0.486   0.174  10.110  0.2393  0.3229 -0.1885
 3383W        W 7127   8.903   9.759   0.468 -0.1172 -0.1177  0.0002
 3384W        W 7128   5.515   6.292  12.141 -0.0537  0.2309 -0.0051
 3385W        W 7129   9.281   5.020  10.725  0.0057  0.0314 -0.0737
 3386W        W 7130   0.487   0.351   0.921  0.0693  0.0291 -0.1085
 3387W        W 7131   0.759   4.173   0.294  0.1519 -0.2824 -0.0864
 3388W        W 7132   0.782   6.652   9.772 -0.3560  0.1971  0.2696
 3389W        W 7133   6.025   8.800  12.003 -0.1122 -0.0715 -0.0694
 3390W        W 7134   8.680   4.051   0.052 -0.1206  0.0281 -0.2419
 3391W        W 7135   5.239   0.275   2.404 -0.0333 -0.0840 -0.1324
 3392W        W 7136   8.751   7.689   1.663  0.0976 -0.1343  0.3189
 3393W        W 7137   8.862   4.819  10.438 -0.4163 -0.0220  0.0707
 3394W        W 7138   4.533   0.012   9.087 -0.1757  0.1198  0.0188
 3395W        W 7139   3.404   4.278  11.439  0.1503  0.2060 -0.0170
 3396W        W 7140   9.137   9.189   0.955  0.0308  0.1328 -0.1767
 3397W        W 7141   1.988   2.316   1.809  0.0364 -0.1975  0.2632
 3398W        W 7142   2.836   3.285   3.918 -0.0296  0.1543  0.2333
 3399W        W 7143   4.103   4.096   3.521 -0.0195  0.0443 -0.0978
 3400W        W 7144   2.104   6.604   1.730  0.0672 -0.2347 -0.1874
 3401W        W 7145   5.681   6.693   2.893  0.1358 -0.1790  0.1034
 3402W        W 7146   8.881  10.009  10.782 -0.1335 -0.0768 -0.2861
 3403W        W 7147   2.692   5.549   2.799  0.2929 -0.0766 -0.0724
 3404W        W 7148   2.402   2.018  10.389 -0.0780 -0.0424  0.1824
 3405W        W 7149   9.106   8.606   1.349  0.0602  0.0206  0.0152
 3406W        W 7150   7.614   3.833   0.100 -0.0828 -0.1917 -0.0180
 3407W        W 7151   2.805   1.719   0.848 -0.2294 -0.0284  0.0128
 3408W        W 7152   4.343   3.827   2.299 -0.1398 -0.1279  0.0250
 3409W        W 7153   0.687   0.879  10.761 -0.0250  0.1049  0.0299
 3410W        W 7154   3.792   4.421  11.136  0.1205 -0.1228 -0.0223
 3411W        W 7155   6.568   6.408   8.259 -0.2517  0.2116 -0.0482
 3412W        W 7156   4.808   4.954   8.858  0.0968 -0.1030  0.1899
 3413W        W 7157  10.119   8.005   8.724 -0.0714 -0.0180  0.0295
 3414W        W 7158   5.222   7.075   8.757 -0.2044  0.1479  0.1399
 3415W        W 7159   3.666  10.111   8.404  0.1506 -0.0014 -0.1883
 3416W        W 7160   3.023   6.790   3.141 -0.1050  0.0089 -0.4209
 3417W        W 7161   7.109   2.572   0.654 -0.1156  0.1119  0.0454
 3418W        W 7162   7.279   0.684   7.635 -0.2816 -0.2678  0.2221
 3419W        W 7163   4.217   8.237   2.543  0.0529 -0.0683  0.0801
 3420W        W 7164   8.559   9.968   2.036 -0.0472  0.0344 -0.0540
 3421W        W 7165   4.216   3.180   2.267 -0.0319  0.2531 -0.0120
 3422W        W 7166   1.027   7.489   9.815  0.0057 -0.2230  0.0056
 3423W        W 7167   2.039   2.546  11.613  0.0140 -0.0777 -0.0321
 3424W        W 7168   4.307   9.641   1.666 -0.0781 -0.0840  0.1937
 3425W        W 7169   7.992   5.375   9.287 -0.0329 -0.1381 -0.2867
 3426W        W 7170   4.901   4.767  11.998  0.1521  0.2034 -0.1136
 3427W        W 7171   6.294   9.901   0.617  0.2970  0.0970  0.2298
 3428W        W 7172   4.933   7.350   9.092  0.3247 -0.1606  0.1041
 3429W        W 7173   5.182   8.560  10.575  0.7279 -0.0221 -0.1614
 3430W        W 7174   6.819   5.636   0.758 -0.1846 -0.0375 -0.5311
 3431W        W 7175   7.427   4.254   9.598  0.3461  0.2325  0.4032
 3432W        W 7176   0.595   9.406   9.685 -0.2511 -0.0631  0.1566
 3433W        W 7177   5.384   8.693   9.677  0.2019  0.1313 -0.1425
 3434W        W 7178   8.268   9.192   7.947  0.1575  0.0620 -0.0905
 3435W        W 7179   0.312   7.991   3.297 -0.0337 -0.2673  0.1243
 3436W        W 7180   2.925   3.450  11.281 -0.2263 -0.1407 -0.2013
 3437W        W 7181   5.943   1.363   3.035 -0.2296 -0.0198  0.3572
 3438W        W 7182   1.032   6.683  11.359 -0.0062  0.0178 -0.2471
 3439W        W 7183   7.869   3.092  11.356 -0.0964 -0.2963 -0.1259
 3440W        W 7184   9.729   1.256  10.223 -0.2070  0.0878 -0.1873
 3441W        W 7185   1.462   6.388   2.824  0.0324  0.2576 -0.0384
 3442W        W 7186   1.955   7.207   2.590 -0.1268  0.2468  0.0738
 3443W        W 7187   9.676   9.277   2.365 -0.0798 -0.0454  0.0395
 3444W        W 7188   6.463   0.476  11.572 -0.2411  0.0981  0.1232
 3445W        W 7189   9.608   2.405   3.033  0.1264  0.1546  0.1512
 3446W        W 7190   4.221   8.672   8.637  0.2696  0.2393 -0.1465
 3447W        W 7191   5.388   0.606   0.103  0.3127 -0.0324 -0.1037
 3448W        W 7192   9.877   9.555   4.109  0.0583  0.2683 -0.0182
 3449W        W 7193   9.462   9.270   0.012  0.0863  0.1324 -0.0862
 3450W        W 7194   7.352   1.773  10.438 -0.0435  0.0575 -0.0669
 3451W        W 7195   8.737   7.616   2.629  0.0994  0.1659 -0.0337
 3452W        W 7196   6.891   4.290   8.816  0.0751  0.1853 -0.0644
 3453W        W 7197   3.901   2.419  10.187 -0.0787 -0.2424 -0.2096
 3454W        W 7198   8.032   6.855   7.506 -0.1168  0.4423 -0.5037
 3455W        W 7199   9.425   1.701   2.069  0.1057 -0.5981  0.3028
 3456W        W 7200   0.114   3.469   0.184  0.2021 -0.1148  0.0737
 3457W        W 7201   2.276   5.109   2.734  0.0744 -0.1699  0.1053
 3458W        W 7202   8.365   1.841   0.724 -0.1447 -0.2233  0.1359
 3459W        W 7203   9.156   2.271   8.934 -0.1503  0.1278 -0.3892
 3460W        W 7204   1.388   3.661  10.323  0.0130  0.3919  0.0612
 3461W        W 7205   7.521   2.136   4.113 -0.2111 -0.0861 -0.1102
 3462W        W 7206   2.233   8.600   0.936  0.0828  0.1271 -0.2414
 3463W        W 7207   3.251   1.397  11.048 -0.1076 -0.1348 -0.0070
 3464W        W 7208   7.945   6.108   3.038 -0.1028 -0.1286 -0.0767
 3465W        W 7209   3.892   5.721   0.373  0.1395 -0.1224  0.3646
 3466W        W 7210   0.228   3.660   1.201  0.4835  0.2402 -0.0773
 3467W        W 7211   8.650   8.292   7.676  0.3949  0.1596  0.1694
 3468W        W 7212   9.946   9.738   1.364  0.2705  0.2747 -0.0145
 3469W        W 7213   1.585   2.339  11.288  0.0652  0.0254  0.2873
 3470W        W 7214   4.366   0.293  12.054 -0.0770  0.4929  0.1383
 3471W        W 7215   5.543   9.248   2.831  0.1133 -0.0728  0.3410
 3472W        W 7216   3.931   1.490   1.953  0.0098 -0.0803  0.0921
 3473W        W 7217   7.466   3.981   3.879 -0.0917  0.1106  0.0875
 3474W        W 7218   1.334   2.734   1.692  0.5489 -0.0942 -0.2005
 3475W        W 7219   1.529   6.421   3.391 -0.2512 -0.0981 -0.0654
 3476W        W 7220   3.539   0.127   1.667 -0.0143 -0.0631 -0.3265
 3477W        W 7221   0.282   1.659   0.254 -0.4222  0.2180  0.3294
 3478W        W 7222   8.944   0.052   8.612  0.1237  0.1374  0.0938
 3479W        W 7223   7.247   0.732   1.800 -0.1184 -0.1956 -0.0415
 3480W        W 7224   3.334   4.405   3.114 -0.3058  0.1659  0.1926
 3481W        W 7225   1.471   4.600  10.247  0.0382 -0.0218 -0.3293
 3482W        W 7226   3.829   4.473   1.318 -0.1390  0.2294 -0.2948
 3483W        W 7227   0.047   7.631   2.724  0.2515 -0.1871 -0.1156
 3484W        W 7228   7.422   4.797   9.674 -0.2160 -0.4252  0.1037
 3485W        W 7229   6.406   3.917   3.419  0.0323 -0.0519  0.0689
 3486W        W 7230   8.712   3.848   8.239  0.3475 -0.1777  0.0098
 3487W        W 7231   7.914   0.810   0.496  0.2752  0.2009  0.1409
 3488W        W 7232   5.955   2.192   2.915 -0.1291  0.0326  0.1103
 3489W        W 7233   2.728   5.975   1.558  0.2583  0.0523  0.1893
 3490W        W 7234   7.166   0.127   3.101 -0.0941 -0.1421  0.0019
 3491W        W 7235   2.522   5.157   1.207 -0.1200  0.0747  0.0753
 3492W        W 7236   8.214   3.888  10.979 -0.1311  0.0311  0.2757
 3493W        W 7237   5.743   3.071  10.306  0.2844  0.1628 -0.0368
 3494W        W 7238   3.285   6.668   2.740 -0.0608  0.0493 -0.0112
 3495W        W 7239   0.931   9.478  11.558  0.3761  0.1941  0.0848
 3496W        W 7240   6.267   0.624   8.324 -0.0308  0.0392 -0.1152
 3497W        W 7241   1.719  10.040   1.386  0.2686 -0.2748 -0.1899
 3498W        W 7242   7.956   8.526  10.017  0.1762 -0.1708  0.0555
 3499W        W 7243   5.395   0.534  10.626  0.0867 -0.0017  0.0370
 3500W        W 7244   7.557   1.867  11.339 -0.1969 -0.0228  0.0563
 3501W        W 7245   1.937   7.401   1.281 -0.1556  0.0053 -0.1269
 3502W        W 7246   1.014   5.596   8.726 -0.1167 -0.0823 -0.3214
 3503W        W 7247   0.502   6.261   8.377  0.1953  0.2448 -0.2423
 3504W        W 7248   7.464   4.465   1.609 -0.2658  0.1056 -0.0488
 3505W        W 7249   5.123   1.752  11.448  0.0132 -0.0163  0.1117
 3506W        W 7250   9.755  10.108  11.237 -0.0738 -0.2639  0.1909
 3507W        W 7251   8.522   5.111   0.700  0.0316 -0.1512  0.0505
 3508W        W 7252   4.358   8.123   0.062 -0.1499  0.0280 -0.3028
 3509W        W 7253   7.978   2.217   9.081 -0.1353 -0.0966 -0.2659
 3510W        W 7254   5.562   3.042   0.935 -0.2060  0.3422  0.4463
 3511W        W 7255   8.148   3.911   1.104  0.3034  0.1372  0.4773
 3512W        W 7256   2.457   2.622  11.892  0.3475 -0.3968 -0.0847
 3513W        W 7257   1.805   7.781   1.659  0.3335  0.2059 -0.4633
 3514W        W 7258   4.831   7.472   8.577 -0.1086  0.0199  0.0607
 3515W        W 7259   7.446   7.528  11.520  0.3354 -0.1268 -0.3372
 3516W        W 7260   3.923   2.044   1.775 -0.1510  0.3922  0.1513
 3517W        W 7261   4.589   9.907   1.367 -0.5089 -0.1755 -0.3648
 3518W        W 7262   9.818   9.817   9.991 -0.0773  0.1267 -0.0955
 3519W        W 7263   5.275   5.601   0.258 -0.2429  0.0444 -0.1734
 3520W        W 7264   1.450   7.908  10.772  0.2020  0.4216  0.3214
 3521W        W 7265   6.601   5.514   2.622 -0.1253 -0.2626  0.2934
 3522W        W 7266   7.662   4.196   8.484 -0.0216  0.1112 -0.3245
 3523W        W 7267   5.974   1.322   3.538 -0.0014 -0.1157 -0.1218
 3524W        W 7268   8.259   3.799   8.961 -0.2653 -0.0474 -0.1981
 3525W        W 7269   8.506   2.090   2.783  0.1914  0.2035 -0.0192
 3526W        W 7270   7.424   3.301  11.628 -0.0825 -0.0312 -0.0377
 3527W        W 7271   4.697   7.818  12.042  0.0329  0.0690 -0.3618
 3528W        W 7272   6.164   3.159  11.942  0.1079 -0.1284  0.1398
 3529W        W 7273   1.242   0.250   2.810 -0.2741  0.1603 -0.1514
 3530W        W 7274   4.538   2.247   9.063 -0.2114 -0.1972 -0.1274
 3531W        W 7275   5.108   6.159  10.674  0.2340  0.1071 -0.2160
 3532W        W 7276   6.984   3.297   2.153  0.0934  0.0578  0.0657
 3533W        W 7277   4.351   5.701  11.760 -0.1891 -0.1380  0.0348
 3534W        W 7278   1.933   1.367   9.804  0.5442  0.0614  0.3266
 3535W        W 7279   9.216   9.842   9.253  0.0584  0.5348 -0.2350
 3536W        W 7280   2.218   3.975   8.312  0.6282  0.2254 -0.0914
 3537W        W 7281   8.217   8.794  10.764  0.0119  0.2329  0.0099
 3538W        W 7282   3.991   8.373   1.996 -0.1075  0.1155  0.1546
 3539W        W 7283   3.512   2.276   2.270 -0.2407  0.2603 -0.2875
 3540W        W 7284   9.971   7.541  10.156 -0.1910 -0.0381  0.1725
 3541W        W 7285   8.014   5.986  10.973  0.2879  0.2290 -0.0298
 3542W        W 7286   3.074   3.205  10.470  0.5689  0.2334  0.1732
 3543W        W 7287   8.720   6.126   7.927  0.3976  0.0393  0.1915
 3544W        W 7288   7.299   6.720  10.146 -0.0535 -0.2674  0.2788
 3545W        W 7289   1.808   7.861   9.464  0.1187  0.0724  0.0959
 3546W        W 7290   8.066   2.455  10.629  0.1158 -0.1766  0.0809
 3547W        W 7291   5.772   1.861   2.311 -0.0864  0.2813 -0.0172
 3548W        W 7292   5.465   9.384   2.308  0.0360 -0.0006 -0.3144
 3549W        W 7293   0.021   2.126   4.231  0.1320 -0.1810 -0.1055
 3550W        W 7294   0.774   7.880   0.541 -0.2706 -0.2521 -0.2421
 3551W        W 7295   8.533   2.642  10.956  0.5480 -0.5176  0.2791
 3552W        W 7296   8.036  10.114   3.424 -0.0412  0.1246 -0.0473
 3553W        W 7297   6.816   3.299   3.376 -0.1847  0.1140 -0.3645
 3554W        W 7298   5.913   9.349   1.877  0.2351  0.1457  0.0772
 3555W        W 7299   1.522   5.937   3.169 -0.1310 -0.2093  0.0582
 3556W        W 7300   2.222   8.282  11.551  0.2143 -0.0194  0.2984
 3557W        W 7301   5.631   5.752   9.024  0.3248  0.0914  0.1087
 3558W        W 7302   2.336   4.021  11.923 -0.2473  0.0868  0.2394
 3559W        W 7303   2.890  10.006   9.748 -0.1713 -0.3077 -0.3697
 3560W        W 7304   0.417   7.169  11.992  0.2466 -0.0932 -0.1382
 3561W        W 7305   2.084   9.015  10.412 -0.2045  0.0455 -0.0793
 3562W        W 7306   9.832   5.367   7.948 -0.0765  0.1507  0.0622
 3563W        W 7307   5.584   5.867   2.777  0.1713  0.2529  0.0562
 3564W        W 7308   5.537   5.937   1.090  0.0211  0.0979 -0.0954
 3565W        W 7309   9.986   7.016  10.176  0.1324 -0.0131  0.0602
 3566W        W 7310   3.502  10.076  11.058  0.2830  0.1211  0.1389
 3567W        W 7311  10.042   1.770   8.839 -0.1660 -0.3342 -0.2489
 3568W        W 7312   6.895   5.822   9.371 -0.1280  0.2193  0.1506
 3569W        W 7313  10.170   0.204  11.610 -0.2064  0.3150  0.3341
 3570W        W 7314   3.074   4.211   9.354  0.2818  0.2493  0.0591
 3571W        W 7315   3.987   6.798  10.261 -0.2295  0.1001 -0.2230
 3572W        W 7316   3.720   9.553   0.529 -0.0478 -0.3251  0.2865
 3573W        W 7317   8.357   3.640   2.992 -0.1606 -0.2562 -0.1703
 3574W        W 7318   7.976   1.024  10.278 -0.0208  0.0130  0.0442
 3575W        W 7319   3.136   5.191   2.835  0.1654 -0.0006 -0.1661
 3576W        W 7320   4.576   0.549   9.413 -0.0616 -0.1772  0.2654
 3577W        W 7321   5.712   5.541   3.224 -0.3467 -0.3691 -0.0153
 3578W        W 7322   5.470   5.401   9.977  0.0579 -0.0743  0.2573
 3579W        W 7323   0.062   7.372   0.817 -0.0865 -0.2248 -0.1675
 3580W        W 7324   5.907   3.123   1.268 -0.1064  0.2463 -0.3350
 3581W        W 7325   2.950   8.257   8.334 -0.1728  0.0828 -0.0215
 3582W        W 7326   2.561   8.320   2.156  0.0042  0.1508 -0.1014
 3583W        W 7327   0.746   8.813  10.749 -0.0130 -0.1590 -0.3551
 3584W        W 7328   2.660   7.243   2.546  0.1201 -0.2871 -0.0736
 3585W        W 7329   8.397  10.094  10.659 -0.3980  0.0260  0.2572
 3586W        W 7330   7.396   8.864   7.799  0.0625 -0.2446 -0.1886
 3587W        W 7331   2.750   3.529  10.801 -0.0822 -0.1147  0.0271
 3588W        W 7332   1.926   8.995   9.953  0.1045 -0.2009  0.1389
 3589W        W 7333   8.579   5.361   2.913 -0.0792  0.0631  0.1257
 3590W        W 7334   0.435   4.731   2.037  0.5422  0.1506  0.4668
 3591W        W 7335   9.406   4.271   2.558  0.0131  0.3137 -0.0552
 3592W        W 7336   7.731   5.174  11.976  0.2239 -0.0732 -0.2252
 3593W        W 7337   4.737   9.741   9.142  0.3357 -0.0330 -0.0559
 3594W        W 7338   2.569   9.198  10.177  0.2437  0.0767  0.0963
 3595W        W 7339   0.250  10.119   8.798 -0.1832  0.0990  0.1579
 3596W        W 7340   7.509   9.577   1.917  0.1056 -0.0790 -0.2484
 3597W        W 7341   4.367   0.210   2.158  0.0309 -0.1846 -0.3086
 3598W        W 7342   8.839   6.392   1.942  0.2164  0.3753 -0.0631
 3599W        W 7343   4.352   1.288   8.884 -0.0095  0.5416 -0.2658
 3600W        W 7344   7.164   2.933   3.577  0.1878 -0.0045 -0.2190
 3601W        W 7345   8.649   5.574   8.485  0.0826 -0.2538  0.4244
 3602W        W 7346   0.621   9.249   2.577 -0.0152 -0.2830  0.1065
 3603W        W 7347   5.646   6.372   1.346  0.2442 -0.2250 -0.1997
 3604W        W 7348   2.844   9.864   0.739  0.2096  0.1109 -0.3985
 3605W        W 7349   0.513   7.620  10.011  0.0115 -0.2575  0.2909
 3606W        W 7350   6.693   0.817  10.763 -0.0763  0.1328  0.2266
 3607W        W 7351   1.942   1.442  11.181 -0.2005  0.1464 -0.1697
 3608W        W 7352   6.302   3.510   9.564 -0.1213  0.0090 -0.1391
 3609W        W 7353   3.154   0.111   2.920 -0.1326  0.3434 -0.0521
 3610W        W 7354   7.325   2.125   8.271 -0.3039  0.1096  0.1641
 3611W        W 7355   8.417   1.948   9.110  0.2179 -0.1165 -0.0020
 3612W        W 7356   6.731   5.185   0.471 -0.0346 -0.0462  0.0818
 3613W        W 7357   1.412   0.813   0.689  0.0531 -0.2037 -0.1975
 3614W        W 7358   1.905   6.592   2.535  0.2608  0.2756 -0.0038
 3615W        W 7359   0.136   9.382   3.216 -0.0185  0.1181  0.2789
 3616W        W 7360   3.596   5.791   9.000  0.1373 -0.0305 -0.0015
 3617W        W 7361   3.769   9.934  10.678  0.2221 -0.3681 -0.2013
 3618W        W 7362   6.354   3.918   8.203 -0.1046  0.2085  0.0396
 3619W        W 7363   6.358   2.761  10.906 -0.3306  0.0564  0.2259
 3620W        W 7364   6.380   2.230   2.208 -0.0129 -0.6784  0.1027
 3621W        W 7365   8.600   2.686   8.041 -0.2159  0.0413 -0.0390
 3622W        W 7366   0.051   2.670   4.215 -0.4351 -0.1321 -0.3538
 3623W        W 7367   2.273   0.087   8.771  0.0413  0.0727 -0.2629
 3624W        W 7368   0.297   3.175   0.729  0.2269 -0.1306  0.1334
 3625W        W 7369   9.134   6.279   3.313 -0.0604  0.2965 -0.3358
 3626W        W 7370   2.271   1.060   0.236 -0.1570 -0.2064 -0.1411
 3627W        W 7371   4.785   4.719   9.705  0.2699 -0.2329  0.2601
 3628W        W 7372   5.644   7.450   8.230  0.2018  0.1024 -0.3791
 3629W        W 7373   6.601   1.886   7.289 -0.1115  0.0256 -0.0840
 3630W        W 7374   4.913   6.124   1.759 -0.1122  0.4487  0.1050
 3631W        W 7375   5.085   5.181   9.659  0.0645 -0.0512 -0.1084
 3632W        W 7376   3.946   6.292  11.375  0.2344 -0.2374  0.2876
 3633W        W 7377  10.061   9.884   0.335  0.0800 -0.2810 -0.0101
 3634W        W 7378   0.507   7.043   3.370  0.2184  0.2133  0.0351
 3635W        W 7379   9.981   3.127   0.750 -0.0075 -0.0277 -0.4468
 3636W        W 7380   7.242   7.535   9.667 -0.2240 -0.2033 -0.1369
 3637W        W 7381   8.404   6.426  11.542  0.1842  0.0492  0.1741
 3638W        W 7382   1.835   0.420   9.307 -0.0391  0.2062 -0.1450
 3639W        W 7383   3.889   9.332   0.133  0.1155  0.1829  0.0905
 3640W        W 7384   9.930   1.045   2.589 -0.1762  0.2223  0.0646
 3641W        W 7385   5.025   7.578  10.791  0.1560 -0.3630  0.2668
 3642W        W 7386   7.760   9.255  12.073  0.3029 -0.3045  0.1543
 3643W        W 7387   3.474   8.877   2.235 -0.2141  0.0625  0.0144
 3644W        W 7388   3.065   9.868  11.178 -0.0114 -0.0952  0.1615
 3645W        W 7389   6.704   9.276   2.062  0.1811  0.1907 -0.3207
 3646W        W 7390   1.759   0.009   3.546  0.3423 -0.0201 -0.1497
 3647W        W 7391   0.842   2.880   1.707  0.1021  0.2615 -0.1848
 3648W        W 7392   1.198   8.341  11.805  0.0712  0.3108  0.0915
 3649W        W 7393   6.911   0.235  11.448 -0.0199  0.1281  0.0460
 3650W        W 7394   1.718   9.110   8.085 -0.1656 -0.0268  0.0713
 3651W        W 7395   0.145   3.635   0.716 -0.1522  0.2078 -0.2402
 3652W        W 7396   0.471   4.424  10.552 -0.3571  0.1034  0.1047
 3653W        W 7397   3.114   7.026   8.704  0.3002 -0.0061 -0.0826
 3654W        W 7398   2.907   3.338   9.861  0.0798  0.1399 -0.0875
 3655W        W 7399   4.369   2.602   3.425 -0.0960  0.0414 -0.0776
 3656W        W 7400   3.587   8.024   0.286  0.0531  0.1150  0.1909
 3657W        W 7401   2.655   0.720   8.060 -0.1177 -0.2332 -0.0669
 3658W        W 7402   6.211   3.604  11.605 -0.2426  0.0116 -0.0813
 3659W        W 7403   9.342   4.192   9.614 -0.2395 -0.2104 -0.2519
 3660W        W 7404   8.866   3.421   0.509  0.4742 -0.0392 -0.0243
 3661W        W 7405  10.140   8.427  10.481  0.1118  0.4547  0.2430
 3662W        W 7406   8.186   0.410   3.408 -0.0312  0.3119  0.2084
 3663W        W 7407   8.580   0.215   3.157 -0.1659 -0.1379  0.1760
 3664W        W 7408   4.222   8.587  10.400 -0.1773  0.2445 -0.1380
 3665W        W 7409   6.615   3.359  11.869  0.1592 -0.0653 -0.1881
 3666W        W 7410   1.929   4.632   1.892 -0.1683 -0.2441  0.0687
 3667W        W 7411   5.296   8.492   8.355  0.1511  0.1509  0.1527
 3668W        W 7412   5.391   9.740   2.755  0.1729 -0.2137 -0.0772
 3669W        W 7413   9.500   1.905   8.886  0.0018  0.0604  0.0356
 3670W        W 7414   0.202   2.713   0.049  0.2237 -0.2179 -0.0902
 3671W        W 7415   0.257   6.133   1.642  0.1240 -0.0388 -0.0277
 3672W        W 7416   6.838   7.666   2.279 -0.2948 -0.1076 -0.2037
 3673W        W 7417   6.084   1.666   4.497 -0.1577 -0.1500  0.4981
 3674W        W 7418   3.513   3.534   9.670 -0.3817 -0.1577  0.2230
 3675W        W 7419   9.616   5.602   8.900  0.0314  0.0423  0.0782
 3676W        W 7420   9.699   0.050  10.703 -0.0435 -0.4570  0.1422
 3677W        W 7421   8.869   5.681   1.279 -0.2287 -0.1828 -0.3028
 3678W        W 7422   4.989   1.773  10.681 -0.1202 -0.1188  0.0356
 3679W        W 7423   5.865   2.895  10.982 -0.1002  0.2142 -0.0771
 3680W        W 7424   2.274   4.738   2.315 -0.1471 -0.2737 -0.0796
 3681W        W 7425   9.691  10.009  12.177 -0.1861 -0.3092 -0.1557
 3682W        W 7426   5.835   3.332   8.380  0.1431 -0.0602 -0.2244
 3683W        W 7427   6.471   5.889  10.783  0.0871 -0.1569 -0.2515
 3684W        W 7428   5.596   8.792   2.951 -0.1034 -0.0988  0.0383
 3685W        W 7429   6.806   1.840   8.379 -0.3054 -0.1509 -0.3347
 3686W        W 7430   4.371   2.803  11.760 -0.2040  0.2073  0.1929
 3687W        W 7431   2.092   5.297  10.010 -0.0049  0.2301 -0.2875
 3688W        W 7432   9.087   5.126   2.448 -0.2307 -0.2075  0.1994
 3689W        W 7433   8.490   2.826   1.072 -0.2355  0.3269  0.0928
 3690W        W 7434   5.057   5.621   1.262 -0.2535  0.0579 -0.1586
 3691W        W 7435   1.409   9.907   9.622  0.1915  0.1175  0.0531
 3692W        W 7436   5.185   0.035   2.845 -0.1741 -0.1681 -0.0728
 3693W        W 7437   5.731   9.522   8.385 -0.0240  0.0315 -0.0010
 3694W        W 7438   9.261   7.115   2.915 -0.0486  0.0342  0.2169
 3695W        W 7439   1.063   8.494  11.050  0.1348 -0.0780 -0.0039
 3696W        W 7440   7.176   5.661   0.343  0.0803 -0.1243  0.2035
 3697W        W 7441   0.556   9.242   8.966  0.3593  0.0917  0.0712
 3698W        W 7442   4.465   9.112  11.601 -0.0183 -0.1651  0.0590
 3699W        W 7443   1.528   1.349   0.646  0.2884  0.2016  0.2764
 3700W        W 7444   2.274   0.102   9.296  0.1653  0.0347  0.0230
 3701W        W 7445   5.071   2.443   0.135  0.1177 -0.0509  0.2595
 3702W        W 7446   7.345   4.705   2.152  0.1117 -0.1442  0.0410
 3703W        W 7447   2.396   4.375  10.151 -0.0622 -0.0085  0.1436
 3704W        W 7448   0.448   5.678   2.440 -0.0047  0.1038 -0.3459
 3705W        W 7449   9.033   9.980   1.867 -0.2675  0.0642 -0.0554
 3706W        W 7450   2.451   8.393   1.704  0.3251 -0.0031  0.1966
 3707W        W 7451   7.330   2.549  10.154  0.0727  0.0920 -0.0745
 3708W        W 7452   7.347   0.377   0.682 -0.0269  0.3090  0.2156
 3709W        W 7453   6.336   1.129   1.807 -0.0652 -0.0148 -0.3006
 3710W        W 7454   7.172   5.036   8.191 -0.0225 -0.0564  0.3370
 3711W        W 7455   2.108   6.605   8.255  0.3653  0.0750  0.0818
 3712W        W 7456   9.879   9.559   0.718  0.0719  0.0940  0.0603
 3713W        W 7457   2.849   0.550   2.903  0.0997 -0.0917 -0.6450
 3714W        W 7458   1.177   8.684   0.921 -0.0120  0.1991  0.0032
 3715W        W 7459   5.967   9.124   0.217  0.0812 -0.0249 -0.1060
 3716W        W 7460   0.641   1.092   9.849  0.1095  0.0439 -0.2170
 3717W        W 7461   5.371   5.322   8.972 -0.0168  0.1035  0.2002
 3718W        W 7462   6.965   3.605  10.773 -0.2778 -0.0643  0.3192
 3719W        W 7463   2.276   3.231   2.655  0.0571  0.0737 -0.1212
 3720W        W 7464   2.643   9.964   8.733 -0.0580 -0.5187  0.0342
 3721W        W 7465   5.848   8.321  11.846 -0.1912  0.1230 -0.1459
 3722W        W 7466   8.208   3.712   8.184  0.0718 -0.0505 -0.1447
 3723W        W 7467   6.422   6.309   0.438 -0.0961 -0.0122  0.3104
 3724W        W 7468   7.223   8.845  12.079  0.1509  0.1159  0.1977
 3725W        W 7469   4.665   0.432  11.725 -0.0713 -0.2682  0.0203
 3726W        W 7470   4.301   6.127   8.650  0.1173 -0.0604 -0.1303
 3727W        W 7471   0.444   5.255   9.301  0.1529  0.0472 -0.0645
 3728W        W 7472   2.872   4.696   9.101 -0.0333 -0.1101  0.0032
 3729W        W 7473   4.747   3.264  11.180  0.1406  0.2954  0.2822
 3730W        W 7474   8.059   4.289   8.829  0.0370  0.0799  0.0351
 3731W        W 7475   3.554   8.807  11.812 -0.1392 -0.0658  0.0860
 3732W        W 7476   4.792   7.738   8.138  0.3747 -0.1288  0.1385
 3733W        W 7477   9.803   1.756   4.120 -0.0103  0.0793  0.0185
 3734W        W 7478   8.145   8.532   7.533 -0.3244  0.0691 -0.0535
 3735W        W 7479   7.247   0.672   8.512 -0.5694  0.1254 -0.2411
 3736W        W 7480   0.945   0.199  11.312  0.0615  0.2938 -0.0617
 3737W        W 7481   3.010   5.403   2.419 -0.3460 -0.2468 -0.2039
 3738W        W 7482   2.926   0.401  10.570 -0.1459  0.3788 -0.2991
 3739W        W 7483   1.206   2.756   9.871 -0.2208 -0.1674 -0.0161
 3740W        W 7484   1.350   3.063   0.413  0.1387  0.0585 -0.3766
 3741W        W 7485   8.374   9.267   2.932  0.0987  0.1414 -0.0303
 3742W        W 7486   7.851   0.840   2.643 -0.1824 -0.1009  0.0839
 3743W        W 7487   3.117   4.575   2.429 -0.4205  0.0696  0.0512
 3744W        W 7488   8.385   4.964   1.511  0.1619  0.2344  0.2991
 3745W        W 7489   2.042   7.565   3.286 -0.1299  0.1302  0.0644
 3746W        W 7490   9.202   6.629   2.856 -0.1609  0.3550 -0.0125
 3747W        W 7491  10.132   5.581   2.302 -0.1104 -0.0020 -0.0394
 3748W        W 7492   1.815   6.858   8.908 -0.1122 -0.1725 -0.0335
 3749W        W 7493   6.282   8.736   1.460 -0.0520  0.1258  0.0392
 3750W        W 7494   1.383   1.266  10.238 -0.2348  0.1211 -0.1157
 3751W        W 7495   2.197   6.832   9.825 -0.0498  0.1046  0.1258
 3752W        W 7496   6.603   5.478   8.916 -0.1866 -0.1047  0.1494
 3753W        W 7497   6.960   7.583  11.763 -0.0337  0.1662  0.0114
 3754W        W 7498   4.696   5.611  12.179 -0.1379  0.1082 -0.2602
 3755W        W 7499   5.367   8.324   2.897  0.0398  0.4079  0.1233
 3756W        W 7500   6.441   2.148  10.120  0.1943 -0.0425 -0.0401
 3757W        W 7501   7.956   5.584   8.476 -0.0456 -0.0635 -0.2176
 3758W        W 7502   7.082   4.966  10.632 -0.0112  0.0143  0.0265
 3759W        W 7503   0.206   1.824   2.446  0.2907 -0.1665 -0.2729
 3760W        W 7504   5.386   2.120   2.235  0.0413 -0.1086  0.2328
 3761W        W 7505   7.807   8.307   7.872 -0.4957 -0.3083  0.2558
 3762W        W 7506   3.929   9.954   1.671  0.2307  0.5035 -0.0497
 3763W        W 7507   6.388   1.661  10.843  0.2048 -0.3608 -0.0727
 3764W        W 7508   7.997   4.975   0.411 -0.0431  0.2096 -0.1692
 3765W        W 7509   7.936   0.832   9.463  0.0884 -0.1233 -0.0112
 3766W        W 7510   0.471   7.903   0.902 -0.0891 -0.3408  0.1902
 3767W        W 7511   5.776   4.984   8.468  0.0482  0.0316  0.1695
 3768W        W 7512   5.680   4.064   1.386  0.0696  0.0477 -0.2177
 3769W        W 7513   6.041   5.196   9.642  0.1232  0.0083 -0.1116
 3770W        W 7514   0.599   2.346   8.716  0.1050 -0.1266  0.3198
 3771W        W 7515   5.188   8.035   4.327  0.0213  0.2791  0.1580
 3772W        W 7516   4.691   9.586   0.222  0.1893 -0.2210  0.1922
 3773W        W 7517   7.820   7.968   8.273 -0.0569  0.1788  0.0765
 3774W        W 7518   9.067   8.935   9.383 -0.1065 -0.0759 -0.0842
 3775W        W 7519   7.422   2.025   2.148  0.0682 -0.4224  0.0670
 3776W        W 7520   4.637   2.217   3.977 -0.1109 -0.1459 -0.2105
 3777W        W 7521   0.806   8.867   2.847  0.2565 -0.2583 -0.2464
 3778W        W 7522   6.111   7.223   1.539 -0.0649  0.0986 -0.1429
 3779W        W 7523   5.600   8.087  11.453  0.1559 -0.0306 -0.1239
 3780W        W 7524   2.458   3.677   2.301 -0.1598 -0.0352 -0.4597
 3781W        W 7525  10.104   0.295  10.535 -0.3342 -0.3658  0.0422
 3782W        W 7526   8.749   1.466  10.346 -0.1335 -0.3697  0.0790
 3783W        W 7527   9.483   3.116   2.334 -0.1182 -0.1945  0.1217
 3784W        W 7528   7.533   5.212   2.608 -0.0332  0.2091 -0.1405
 3785W        W 7529   5.965   2.532  10.570  0.2666  0.0233  0.0108
 3786W        W 7530   2.882   8.687   7.507 -0.0420 -0.3517 -0.4871
 3787W        W 7531   7.394   4.446   8.904 -0.1596 -0.1989 -0.2240
 3788W        W 7532   5.707  10.042   3.125 -0.3265  0.1941  0.1609
 3789W        W 7533   9.847   7.000  11.601 -0.2302 -0.0388 -0.0090
 3790W        W 7534   3.745   3.882   9.980 -0.1195 -0.2186 -0.1012
 3791W        W 7535   5.071   6.913   9.303 -0.0549  0.0600 -0.2049
 3792W        W 7536   7.842   9.036   0.950 -0.2708  0.0100  0.0698
 3793W        W 7537   9.036   8.715  11.725 -0.0631 -0.1151  0.1904
 3794W        W 7538   5.516   3.605   0.698 -0.0713  0.1359 -0.2077
 3795W        W 7539   2.834   9.929   2.744  0.1729 -0.2682  0.1807
 3796W        W 7540   5.398   1.067   1.431  0.0980  0.0613 -0.3400
 3797W        W 7541   8.713   9.269  10.086  0.0572  0.0225 -0.1975
 3798W        W 7542   7.662   6.691  11.754 -0.1253 -0.4293  0.0444
 3799W        W 7543   5.359   8.546   3.355 -0.1409  0.1711  0.0034
 3800W        W 7544   6.034   0.806   9.295 -0.1665  0.0919  0.0467
 3801W        W 7545   5.795   9.862   2.507  0.1445 -0.0374 -0.0540
 3802W        W 7546   4.737   1.468   9.332 -0.0977  0.0901  0.4009
 3803W        W 7547   5.315   5.541  11.655  0.0797  0.2435  0.0478
 3804W        W 7548   4.009   1.387   0.501  0.1541 -0.2233 -0.0407
 3805W        W 7549   7.444   0.039  11.678  0.2701 -0.0043 -0.0692
 3806W        W 7550   6.123   2.574   3.186 -0.0354  0.2481 -0.0821
 3807W        W 7551   9.110   3.512   1.540  0.0540 -0.0905  0.0437
 3808W        W 7552   4.729   0.299   0.551 -0.1888 -0.3696  0.0300
 3809W        W 7553   4.530   0.831  12.167  0.0033  0.0298 -0.2947
 3810W        W 7554   6.025   4.701   8.160  0.0565 -0.2302  0.0535
 3811W        W 7555   9.964   7.478   2.062  0.0505 -0.3814  0.0155
 3812W        W 7556   1.376   7.866   0.465 -0.0745 -0.2594 -0.1528
 3813W        W 7557   8.162   9.568   2.620  0.1119  0.0632 -0.0267
 3814W        W 7558   7.982   2.434  11.838  0.1220  0.1292  0.0347
 3815W        W 7559   0.602   7.848  11.055  0.1168 -0.1750  0.1117
 3816W        W 7560   9.839   0.697   7.783 -0.1816  0.1792  0.2786
 3817W        W 7561   5.106   5.968  11.263 -0.1788 -0.1918  0.1254
 3818W        W 7562   1.012   9.799   2.255 -0.0337 -0.0546 -0.3249
 3819W        W 7563   6.196   4.916  10.972  0.4003 -0.0403 -0.1545
 3820W        W 7564   7.772   0.300   0.428 -0.0669  0.5248  0.0461
 3821W        W 7565   5.236   7.970  11.075  0.0607 -0.1396  0.0195
 3822W        W 7566   5.701   9.773  11.531 -0.0296  0.0229 -0.2689
 3823W        W 7567   0.440   3.858   0.052 -0.0142  0.0643 -0.2855
 3824W        W 7568   0.195   0.519   0.514 -0.4127 -0.2858  0.1585
 3825W        W 7569   8.517   9.402  11.824  0.0109  0.1271 -0.4498
 3826W        W 7570   1.926   7.578  10.756  0.0296  0.1704 -0.1052
 3827W        W 7571   3.098   7.633  10.502  0.0286  0.2294  0.2267
 3828W        W 7572   9.650   1.584  12.182  0.0231  0.0268 -0.1348
 3829W        W 7573   1.369   0.817  10.550  0.0724 -0.2509 -0.1638
 3830W        W 7574   2.514   2.792  11.222  0.1280 -0.0353  0.0517
 3831W        W 7575   5.855   5.278  11.047 -0.0997 -0.0934  0.0875
 3832W        W 7576   1.466   9.983   8.670 -0.0743 -0.0274 -0.2146
 3833W        W 7577   8.562   6.240   0.103  0.1605 -0.0118 -0.1085
 3834W        W 7578   9.797   8.528   2.001  0.1323 -0.0825  0.1607
 3835W        W 7579   8.865   7.561  11.139 -0.0669  0.2462  0.1177
 3836W        W 7580   6.495   4.439   9.993 -0.0446  0.0205 -0.0532
 3837W        W 7581   6.259   4.732  11.875  0.2074  0.1690  0.2508
 3838W        W 7582   9.391   7.025   0.482  0.2075  0.0396 -0.0955
 3839W        W 7583   3.400   1.869   9.148  0.1749 -0.0368 -0.1717
 3840W        W 7584   6.906   3.358   8.623 -0.0555  0.1942  0.0106
 3841W        W 7585   4.748   8.960   3.768 -0.3210 -0.0784 -0.0064
 3842W        W 7586   2.778   7.391  10.209  0.0058 -0.2373 -0.1779
 3843W        W 7587   3.163   4.281  11.967  0.0102 -0.0871 -0.0516
 3844W        W 7588   9.931   7.771   9.143  0.0589 -0.0437  0.1022
 3845W        W 7589   5.924   1.045  10.154  0.0670 -0.0387  0.2756
 3846W        W 7590   5.688   1.444   9.169 -0.1860  0.4246  0.0404
 3847W        W 7591   8.502   9.087   1.745 -0.0407  0.0215  0.1438
 3848W        W 7592   1.183   7.075  10.120 -0.0214 -0.0713  0.2712
 3849W        W 7593   4.836   7.371  11.203 -0.1051  0.2030 -0.4530
 3850W        W 7594   1.684   1.295   8.810 -0.0581  0.1474  0.1245
 3851W        W 7595   3.792   6.303   0.999 -0.0231  0.1855 -0.3666
 3852W        W 7596   4.073   8.175   8.489 -0.1713  0.1129  0.1219
 3853W        W 7597   5.628   4.467   8.530 -0.1542 -0.1574  0.1239
 3854W        W 7598   8.364   4.321  11.254  0.0015 -0.0037  0.2931
 3855W        W 7599   7.647   3.443  10.861  0.0850 -0.0363  0.0334
 3856W        W 7600   1.491   0.724   1.441 -0.3164 -0.2549  0.0939
 3857W        W 7601   1.571   4.356   8.998 -0.2415  0.2435  0.4361
 3858W        W 7602   0.435   8.764   0.966  0.0684  0.0660  0.1762
 3859W        W 7603   0.753   5.041   1.775 -0.2219 -0.2040 -0.1945
 3860W        W 7604   9.606   9.722  10.438 -0.0626  0.2626  0.0689
 3861W        W 7605   7.828   4.041  10.107  0.0513 -0.3084 -0.0311
 3862W        W 7606   6.921   2.440   8.399  0.3253  0.0511  0.0038
 3863W        W 7607   6.177   7.902   9.760 -0.0165  0.0844 -0.0260
 3864W        W 7608   7.144   5.477   2.807  0.1139  0.3522 -0.2332
 3865W        W 7609   3.300   5.255  12.001  0.1626 -0.0823  0.1836
 3866W        W 7610   3.706   7.828   8.668  0.1483  0.0950 -0.3096
 3867W        W 7611   1.911   4.565   1.295  0.0117  0.1037 -0.0614
 3868W        W 7612   6.321   0.018  10.769  0.0894 -0.0835  0.3688
 3869W        W 7613   9.439   8.882   9.094 -0.1814  0.0455  0.1149
 3870W        W 7614   7.236   2.025  11.694  0.0857  0.0732  0.0481
 3871W        W 7615   4.189   1.364   9.372  0.1078  0.2206 -0.2993
 3872W        W 7616   0.284   5.141   3.418 -0.0557  0.1330  0.1138
 3873W        W 7617   6.790   0.196  10.668 -0.2568 -0.1313 -0.3160
 3874W        W 7618   6.368   3.733  10.744 -0.0468 -0.0762 -0.2687
 3875W        W 7619   6.338   9.295  11.586 -0.0053  0.0709  0.0091
 3876W        W 7620   6.406  10.112   2.272  0.0854 -0.2373  0.0282
 3877W        W 7621   4.929   4.628   4.060 -0.1046  0.1126  0.0334
 3878W        W 7622   0.000   1.561   0.734 -0.1026  0.1085  0.2915
 3879W        W 7623   4.967   8.170   7.995 -0.0433 -0.0824  0.0112
 3880W        W 7624   9.140   8.623  10.773  0.1196  0.0544  0.1920
 3881W        W 7625   5.585   0.722   4.074  0.2515  0.1653 -0.0740
 3882W        W 7626   2.519   3.122  10.385 -0.2621  0.0830 -0.2455
 3883W        W 7627   8.542   6.813  11.811  0.1150 -0.2319  0.0821
 3884W        W 7628   8.273   0.470   8.002  0.4492 -0.1433  0.0858
 3885W        W 7629   9.161   3.920   2.931 -0.1076 -0.0251 -0.2292
 3886W        W 7630   1.276   0.343  12.201  0.2032  0.1166 -0.1320
 3887W        W 7631   0.295   0.915   1.505  0.4118  0.1591  0.2478
 3888W        W 7632   0.538   7.890   2.805  0.0168 -0.2619  0.1657
 3889W        W 7633   5.421   0.872   7.356  0.2944  0.3017 -0.0531
 3890W        W 7634   6.002   6.763   7.082 -0.0958 -0.1921 -0.2295
 3891W        W 7635   1.452   2.153   8.457 -0.0386  0.0106 -0.0755
 3892W        W 7636   1.311   2.715   9.011 -0.2641  0.0599  0.2352
 3893W        W 7637   6.324   4.506   3.456  0.0466 -0.1734  0.0538
 3894W        W 7638   8.442   6.416   0.586  0.0496  0.0038 -0.1578
 3895W        W 7639   1.408   8.290  10.211  0.2993  0.4064  0.2613
 3896W        W 7640   4.866   8.504   3.585  0.3093 -0.1728 -0.0245
 3897W        W 7641   7.462   8.845   9.272 -0.0905  0.2187  0.2264
 3898W        W 7642   5.439   1.578   3.567  0.0030 -0.1679 -0.2305
 3899W        W 7643   1.029   6.121   2.229  0.2224 -0.0991 -0.0348
 3900W        W 7644   8.530   9.713  10.969  0.2479  0.2665 -0.2453
 3901W        W 7645   8.332   0.104   1.239 -0.2754 -0.0776 -0.1220
 3902W        W 7646   4.471   7.058   8.526 -0.2443 -0.0430 -0.2107
 3903W        W 7647   8.000   4.484  10.292  0.0691  0.1041 -0.0180
 3904W        W 7648   8.805   9.260   8.045 -0.1735  0.1047 -0.2435
 3905W        W 7649   2.977   2.276   1.393  0.0464  0.1664  0.0200
 3906W        W 7650   5.114   3.470   9.410  0.0004  0.0933  0.2829
 3907W        W 7651   4.694   6.154   2.399  0.0314  0.1144  0.2426
 3908W        W 7652   0.058   2.738   1.938  0.1574  0.4524 -0.0218
 3909W        W 7653   2.075   6.288   2.075 -0.0098 -0.3722 -0.2472
 3910W        W 7654   8.771   0.818   0.570 -0.1012  0.0253  0.1244
 3911W        W 7655   3.670   7.941   9.967  0.0707 -0.0281 -0.2798
 3912W        W 7656   5.049   7.809  10.153  0.0004  0.2042  0.0743
 3913W        W 7657   3.223   8.747   8.505 -0.1095 -0.0064  0.3009
 3914W        W 7658   6.943   3.039  11.527  0.0927 -0.0803  0.4569
 3915W        W 7659   8.527   2.843   9.988 -0.0853 -0.2453 -0.2985
 3916W        W 7660   1.522   3.300  11.236 -0.1641  0.3969 -0.0654
 3917W        W 7661   2.189   8.670   9.173 -0.0051  0.0598  0.0191
 3918W        W 7662   6.032   9.376   0.706 -0.2287  0.2074  0.0835
 3919W        W 7663   8.745   9.653   2.577 -0.0708 -0.0088  0.2004
 3920W        W 7664   4.718   2.466   7.845  0.0225 -0.1601  0.0161
 3921W        W 7665   7.888   5.061  10.808 -0.0398  0.3062 -0.3998
 3922W        W 7666   6.172   7.160  11.676  0.1476 -0.0551  0.0169
 3923W        W 7667   1.862   7.974  11.134  0.3665  0.5841  0.0833
 3924W        W 7668   6.846   4.693   8.052 -0.1771  0.1529 -0.2497
 3925W        W 7669   1.005   7.204   2.482 -0.0446  0.1874  0.6274
 3926W        W 7670   5.026   2.089   8.005 -0.1804  0.2488  0.0638
 3927W        W 7671   3.573   3.245  10.433 -0.1987 -0.0937 -0.0141
 3928W        W 7672   1.493   1.560   9.807  0.1440 -0.0750  0.0745
 3929W        W 7673   9.595   5.161   1.592 -0.1962  0.2774 -0.0630
 3930W        W 7674   3.262   8.812  10.209 -0.0351 -0.0781  0.0601
 3931W        W 7675   3.718   1.612   9.561  0.1186  0.0830 -0.0484
 3932W        W 7676   5.586   8.633  11.603  0.0305  0.0333  0.0746
 3933W        W 7677   9.134   1.154   1.816 -0.2236 -0.1598 -0.0420
 3934W        W 7678   7.201   9.957   2.055  0.1508 -0.2696  0.0784
 3935W        W 7679   7.546   4.140   3.034  0.2423  0.3909  0.1553
 3936W        W 7680   7.041   0.136   8.752  0.1936  0.0267  0.2574
 3937W        W 7681   1.026   1.586  11.597  0.0389  0.1586  0.3048
 3938W        W 7682   4.402   4.173   7.826 -0.0080  0.3143 -0.1328
 3939W        W 7683   0.458   3.790   1.651  0.0583 -0.0299 -0.1333
 3940W        W 7684   0.284   6.178   2.653  0.0059  0.0016 -0.1646
 3941W        W 7685   4.509   8.956  11.079  0.0512 -0.0953  0.0161
 3942W        W 7686   5.005   2.866  11.404 -0.1276  0.0505  0.1579
 3943W        W 7687   2.337   5.820   9.765  0.0514  0.0685  0.1203
 3944W        W 7688   7.539  10.115  10.124 -0.0984 -0.1191 -0.1868
 3945W        W 7689   2.352   5.335   9.501 -0.2558  0.0995 -0.0969
 3946W        W 7690   4.738   4.511  11.136  0.1009  0.0011  0.2252
 3947W        W 7691   8.340  10.061  12.011 -0.1826  0.0003  0.2619
 3948W        W 7692   5.963   3.539   3.381  0.1406 -0.1112 -0.3678
 3949W        W 7693   6.751   2.380   2.657 -0.0910 -0.0715  0.2913
 3950W        W 7694   4.040   4.040  11.265 -0.0501 -0.0555  0.2616
 3951W        W 7695   3.537   7.356  11.266  0.1022  0.0368  0.0792
 3952W        W 7696   9.703   8.716   3.079 -0.1967  0.3351 -0.1237
 3953W        W 7697   9.413   1.416   2.527 -0.0898 -0.1541 -0.2646
 3954W        W 7698   3.828   0.150   1.105  0.0919  0.2666  0.0354
 3955W        W 7699   5.846   4.495  10.209  0.0787 -0.0483 -0.1309
 3956W        W 7700   7.043   3.890  11.174 -0.2233 -0.0156 -0.1125
 3957W        W 7701   1.701   4.342   2.222 -0.0746  0.1550  0.0331
 3958W        W 7702   6.773   1.254  11.982 -0.1048  0.2741 -0.0480
 3959W        W 7703   7.540   1.033  11.965  0.1385  0.0297 -0.0161
 3960W        W 7704   0.822   3.897  11.919 -0.0128 -0.2006  0.0307
 3961W        W 7705   6.851   0.281   9.489  0.2770 -0.0250 -0.0191
 3962W        W 7706   5.914   9.606   2.928 -0.4154  0.2148 -0.2699
 3963W        W 7707   1.705   1.728   3.410 -0.1500 -0.2153  0.1983
 3964W        W 7708   6.736   8.251   8.348  0.2988  0.2976 -0.1984
 3965W        W 7709   1.744   9.584   0.723 -0.2768 -0.2157 -0.0162
 3966W        W 7710   1.076   5.439   1.927  0.1526 -0.3421 -0.1026
 3967W        W 7711   6.707   1.020   0.965 -0.0702  0.1275 -0.3318
 3968W        W 7712   0.445   6.026   9.848  0.2928 -0.0583 -0.0240
 3969W        W 7713   8.995   9.614   7.509 -0.1116  0.1417 -0.3696
 3970W        W 7714   9.511   5.027   3.624 -0.5314  0.2124  0.3161
 3971W        W 7715   0.257   4.784  11.196 -0.0461 -0.1837  0.2356
 3972W        W 7716   0.437   5.386  10.203 -0.0523 -0.1813  0.1544
 3973W        W 7717   7.533   6.605   1.404 -0.0681  0.1151  0.1530
 3974W        W 7718   5.040   0.589  11.354  0.1205  0.0544  0.1867
 3975W        W 7719  10.088   7.856   0.636 -0.1558 -0.0063  0.3108
 3976W        W 7720   3.971   8.605   1.502 -0.1875 -0.4583 -0.1618
 3977W        W 7721   0.560   5.654   3.514  0.1548 -0.1158 -0.0070
 3978W        W 7722   5.095   1.713   1.146  0.4523  0.1872 -0.0671
 3979W        W 7723   0.575   6.151   0.849 -0.2236  0.3059 -0.2739
 3980W        W 7724   3.623   5.630   9.516 -0.1751 -0.4602  0.2610
 3981W        W 7725   3.328   7.809   3.389 -0.1531  0.2562 -0.0322
 3982W        W 7726   0.168   2.873   2.380  0.0023  0.1346 -0.0311
 3983W        W 7727   4.248   2.731   1.305 -0.1114  0.0273 -0.0480
 3984W        W 7728   1.859   9.339   8.528  0.3016  0.2827 -0.2669
 3985W        W 7729   1.060   0.557   8.809  0.2055 -0.1815  0.3916
 3986W        W 7730   4.976   4.351   7.938 -0.1506 -0.0047 -0.4441
 3987W        W 7731   7.024   2.392   3.083  0.5137  0.4464 -0.0107
 3988W        W 7732   0.028   5.822  11.488 -0.1529 -0.2545 -0.0219
 3989W        W 7733   0.348   9.623   2.818 -0.2008  0.3451 -0.1083
 3990W        W 7734   8.316   1.436  11.620  0.0872 -0.0775  0.0705
 3991W        W 7735   5.776   7.457   0.164 -0.0754 -0.0095  0.0487
 3992W        W 7736   3.344   4.323   2.029 -0.0573  0.1990  0.4324
 3993W        W 7737   9.680   6.759   1.589 -0.1588  0.0987 -0.0890
 3994W        W 7738   4.127   3.861  10.785  0.2088 -0.2136  0.1870
 3995W        W 7739   8.019   2.850   8.378 -0.1374 -0.0340  0.3382
 3996W        W 7740   8.598   1.313   9.788 -0.0236  0.2884  0.0752
 3997W        W 7741   2.621   4.327   0.075  0.0360 -0.3193 -0.0195
 3998W        W 7742   3.610   5.002  10.972 -0.2175 -0.0692 -0.1131
 3999W        W 7743   9.906   0.398   1.959 -0.1671  0.2807 -0.0247
 4000W        W 7744   6.500   3.760   1.844 -0.1675  0.3052 -0.0042
 4001W        W 7745   7.945   8.395   7.095 -0.2500 -0.0115  0.0526
 4002W        W 7746   0.532   9.141  11.580 -0.0334  0.2090  0.2330
 4003W        W 7747   2.024   0.115  11.290  0.3296  0.1481  0.2484
 4004W        W 7748   3.192   8.082   1.612  0.0290 -0.2326 -0.1237
 4005W        W 7749   7.571   7.578   8.460  0.1736  0.3415 -0.0911
 4006W        W 7750   9.483   0.649  12.039  0.0009 -0.0276 -0.3352
 4007W        W 7751   1.193   2.584  11.253  0.0637 -0.1044  0.0562
 4008W        W 7752   4.238   2.176   0.501  0.2712 -0.0093  0.3689
 4009W        W 7753   2.876   3.880  11.989  0.2401  0.0203 -0.3593
 4010W        W 7754   8.186   5.889   3.484  0.0550 -0.1880 -0.2911
 4011W        W 7755   4.936   7.532   2.770 -0.1511  0.1019  0.3268
 4012W        W 7756   3.047   0.457  10.086 -0.0295  0.0198 -0.1264
 4013W        W 7757   7.234   5.394  11.133 -0.0442 -0.0782  0.0484
 4014W        W 7758   9.915   6.075   1.882  0.1401  0.1954 -0.1159
 4015W        W 7759   3.189   7.338   3.258  0.1609 -0.0668  0.1276
 4016W        W 7760   7.580   8.655   8.234  0.2132 -0.1932  0.0409
 4017W        W 7761   8.345  10.116  10.122 -0.1105  0.1244 -0.0418
 4018W        W 7762   1.236   3.704   2.761  0.0293  0.3082 -0.1871
 4019W        W 7763   6.858   4.035  11.629  0.1084 -0.0365  0.0541
 4020W        W 7764   4.429   1.638   9.703  0.0648 -0.0050 -0.1098
 4021W        W 7765   6.755   4.318   1.123 -0.0709 -0.1199 -0.0701
 4022W        W 7766   4.366   1.247  11.703  0.1184  0.3456 -0.0046
 4023W        W 7767   7.085   5.491   1.711 -0.1277  0.1541  0.0726
 4024W        W 7768   7.140   7.993  10.599  0.0451 -0.4585 -0.4264
 4025W        W 7769   7.942   6.372   8.676  0.2402 -0.1810  0.1021
 4026W        W 7770   8.689   1.701  11.904  0.1291  0.0534  0.4720
 4027W        W 7771   6.586   7.481   8.993  0.0977 -0.0161 -0.0638
 4028W        W 7772   8.329   5.696  12.116 -0.0645 -0.1904 -0.2303
 4029W        W 7773   9.901   0.069   8.053  0.0417  0.0641  0.0298
 4030W        W 7774   5.967   0.436   4.084 -0.1532  0.0095 -0.1427
 4031W        W 7775   0.766   7.292  10.417  0.0918  0.1690 -0.0882
 4032W        W 7776   8.571   6.843  11.205  0.0953  0.0048 -0.2579
 4033W        W 7777   2.321   6.521   9.441  0.0341 -0.0927 -0.2886
 4034W        W 7778   2.469   6.424   2.367 -0.1016  0.1983  0.0263
 4035W        W 7779   1.996   9.415   0.021  0.0784 -0.0198  0.2235
 4036W        W 7780   8.052   4.700   7.177 -0.2530  0.3554 -0.1407
 4037W        W 7781   1.883   9.756  11.606  0.2737  0.3684  0.3500
 4038W        W 7782   7.854   5.755   2.732 -0.2383  0.0396 -0.0482
 4039W        W 7783   8.986   4.201   8.035  0.0920  0.0507  0.2136
 4040W        W 7784   7.217   8.687   1.203 -0.2037  0.1390 -0.0088
 4041W        W 7785   4.043   4.880   2.779 -0.1026 -0.0881 -0.3944
 4042W        W 7786   3.627   2.312   0.566  0.3261  0.1942 -0.1552
 4043W        W 7787   3.864   8.482   0.454  0.0396 -0.1279 -0.2749
 4044W        W 7788   9.981   6.194   2.413 -0.1694 -0.6819  0.0350
 4045W        W 7789   1.019   2.081   2.828  0.2686  0.2369 -0.0503
 4046W        W 7790   5.883   6.750  10.435  0.2560 -0.0081 -0.2216
 4047W        W 7791   5.425   1.296   3.141 -0.0310  0.1474 -0.4302
 4048W        W 7792   3.321   1.876  11.367  0.0320  0.2997  0.2766
 4049W        W 7793   2.757   8.661   0.285 -0.0263  0.1118 -0.1780
 4050W        W 7794   9.530   4.806  11.675  0.0708 -0.0217 -0.0271
 4051W        W 7795   2.371   5.554   3.335  0.1714 -0.0003 -0.3483
 4052W        W 7796   3.323   3.815  11.631  0.2897  0.1310 -0.1652
 4053W        W 7797   1.709   0.931   9.995  0.1169  0.0520  0.1388
 4054W        W 7798   9.695   7.913  10.497  0.0613 -0.0311 -0.0777
 4055W        W 7799  10.175   9.969   8.339  0.0260 -0.0854 -0.0268
 4056W        W 7800   7.061   8.764  11.561  0.2496 -0.1460 -0.1364
 4057W        W 7801   4.122   6.434   9.938  0.1313 -0.1824 -0.1346
 4058W        W 7802   8.235   2.050   3.290 -0.2521 -0.2978 -0.0777
 4059W        W 7803   2.401   1.815  11.178  0.1609 -0.3053 -0.1450
 4060W        W 7804   9.127   0.142   9.940  0.1045  0.0702  0.2780
 4061W        W 7805   9.168   8.233  11.562  0.0519 -0.1391  0.0963
 4062W        W 7806   5.280   4.787   8.250 -0.2883 -0.0988 -0.1499
 4063W        W 7807   4.386   5.532  10.936 -0.0027 -0.0960  0.0165
 4064W        W 7808   8.129   0.613   0.920 -0.0432 -0.0067  0.2078
 4065W        W 7809   7.021   8.138   2.204 -0.4451  0.0963 -0.1141
 4066W        W 7810   2.278   5.144  10.444 -0.2266  0.2070 -0.1019
 4067W        W 7811   2.721   7.155   3.096 -0.0765 -0.0907  0.1213
 4068W        W 7812   5.392   6.726  11.902 -0.1987 -0.1807  0.3763
 4069W        W 7813   2.854   1.148   9.359  0.1339  0.5263  0.3743
 4070W        W 7814   4.156   6.006  10.839 -0.0463 -0.2813 -0.0755
 4071W        W 7815   6.845   1.479   3.167  0.1726  0.3171  0.2945
 4072W        W 7816   1.614   8.083   2.970  0.1218 -0.2576  0.1505
 4073W        W 7817   3.450   6.450   2.300  0.1055  0.1675  0.0830
 4074W        W 7818   1.738   9.065   0.842  0.0251 -0.0061  0.0330
 4075W        W 7819   3.209   0.307   3.368 -0.0530  0.0055  0.0101
 4076W        W 7820   5.372   7.386   2.015  0.2041  0.0680  0.1051
 4077W        W 7821   6.345   8.177   1.604 -0.1302  0.1166  0.4205
 4078W        W 7822   0.498   2.057  10.769 -0.3875  0.1178  0.2054
 4079W        W 7823   3.884   2.342  11.920  0.0555  0.4250  0.2963
 4080W        W 7824  10.165   0.493   1.517 -0.0490  0.1096  0.1116
 4081W        W 7825   9.451   6.523   0.172 -0.1052  0.2826  0.1082
 4082W        W 7826   7.021   1.318   0.731 -0.1477  0.3016  0.2129
 4083W        W 7827   7.388   3.927   0.733  0.3937  0.1030  0.2391
 4084W        W 7828   6.077   3.345   0.213  0.0447 -0.0070  0.1940
 4085W        W 7829   0.109   2.325   2.429  0.0629 -0.1267 -0.3186
 4086W        W 7830   0.971   1.060   9.361 -0.0294  0.0421  0.0952
 4087W        W 7831   4.175   7.706   8.274  0.1071  0.0710 -0.2390
 4088W        W 7832   9.502   5.476   0.764  0.1198  0.3070 -0.3622
 4089W        W 7833   9.039   8.581   3.542 -0.2834  0.1500 -0.1666
 4090W        W 7834   8.502   3.165   0.736  0.2619  0.1887  0.2341
 4091W        W 7835   3.070   2.885   2.919 -0.0498 -0.2595 -0.3646
 4092W        W 7836   7.396   9.631   8.028 -0.2102  0.0264 -0.2911
 4093W        W 7837   6.577   9.188   7.956  0.2393  0.2082 -0.1459
 4094W        W 7838   2.593   1.333  10.893  0.0364  0.0201 -0.0730
 4095W        W 7839   3.247   4.274   1.278 -0.1002  0.3243  0.2170
 4096W        W 7840   2.764   4.146   2.385  0.1074  0.0009  0.2616
 4097W        W 7841   7.266   3.072   9.483  0.0616  0.0911  0.1098
 4098W        W 7842   1.090   5.183   1.340 -0.1652  0.1004  0.1841
 4099W        W 7843   9.872   5.606   9.780  0.0719 -0.0530 -0.0735
 4100W        W 7844   8.094   6.824  11.581  0.0295  0.1149 -0.4167
 4101W        W 7845   6.258   5.894   1.909 -0.2200  0.3640  0.0480
 4102W        W 7846   9.348   3.283   7.913  0.1299 -0.0756  0.2967
 4103W        W 7847   2.028   1.729   2.379  0.0039  0.2757  0.2031
 4104W        W 7848   3.230   4.678   1.684 -0.0077  0.0910  0.1983
 4105W        W 7849   3.923   5.287   0.601  0.0975 -0.4768 -0.2538
 4106W        W 7850   7.917   2.567   0.130 -0.0778  0.0757 -0.3284
 4107W        W 7851   0.555   0.850   0.413 -0.0752 -0.1877 -0.3456
 4108W        W 7852   6.270   5.648   9.521  0.2310 -0.1559 -0.0978
 4109W        W 7853   8.988   9.435   9.704  0.0417 -0.0622 -0.0277
 4110W        W 7854   9.511   2.614   1.472  0.0134  0.0731  0.1036
 4111W        W 7855   6.552   5.917   8.059  0.0717 -0.1113  0.1077
 4112W        W 7856  10.126   2.577   9.590 -0.0103 -0.0197 -0.2342
 4113W        W 7857   1.767   4.052   9.654 -0.1554 -0.2067 -0.2481
 4114W        W 7858   8.095   7.133   2.109  0.1121  0.2437  0.0364
 4115W        W 7859   5.474   4.396   7.939  0.1552 -0.1185 -0.0751
 4116W        W 7860   1.425   6.400  10.637 -0.1627  0.0579 -0.3277
 4117W        W 7861   5.280   7.701   8.025  0.0384 -0.2135 -0.0693
 4118W        W 7862   7.556   3.106   8.836 -0.3326  0.1805  0.1300
 4119W        W 7863   1.868   2.917   2.544  0.2267  0.1908 -0.0931
 4120W        W 7864   8.617   7.258   3.676 -0.0523 -0.0528  0.0614
 4121W        W 7865   2.408   2.258  11.479  0.0743 -0.3292  0.1993
 4122W        W 7866  10.135   1.628  11.098 -0.0866  0.1773 -0.0673
 4123W        W 7867   6.009  10.154   7.352  0.1332  0.0242 -0.0327
 4124W        W 7868   2.060   8.470   1.400 -0.0265 -0.0763 -0.2759
 4125W        W 7869   3.204   8.059  10.204 -0.2994  0.1439 -0.1108
 4126W        W 7870   8.514   7.724   1.120  0.1206 -0.0294 -0.3727
 4127W        W 7871   1.518   3.291  11.756 -0.2653 -0.1516  0.0152
 4128W        W 7872   1.765   1.471   2.709  0.0582 -0.3491 -0.2501
 4129W        W 7873   9.004   8.129  11.040  0.0373  0.2126 -0.0763
 4130W        W 7874   3.286   0.723   0.839  0.2987 -0.1821 -0.0385
 4131W        W 7875   3.390   9.726   0.103 -0.1442  0.1202  0.2586
 4132W        W 7876   6.378   3.295   1.658 -0.2973 -0.0863 -0.3233
 4133W        W 7877   4.859   6.165  10.287 -0.0554  0.0422  0.2724
 4134W        W 7878   1.431   9.988   2.771  0.0733 -0.3064  0.0182
 4135W        W 7879   1.133   0.077   0.385  0.0869 -0.0132  0.1330
 4136W        W 7880   7.284   8.603   1.715  0.1248  0.1588 -0.3244
 4137W        W 7881   3.267   0.505   2.610  0.1342  0.2292 -0.1535
 4138W        W 7882   9.485   1.092   8.625 -0.0424 -0.0949 -0.0131
 4139W        W 7883   0.150   1.278   1.146  0.0435 -0.2077  0.0720
 4140W        W 7884   9.671   1.755   9.365  0.0787  0.0845 -0.0556
 4141W        W 7885   2.550   0.813   1.516 -0.0621 -0.0120 -0.1904
 4142W        W 7886   2.428   6.888   0.330  0.1888  0.0646 -0.1752
 4143W        W 7887   2.154   8.202   9.186 -0.2380  0.1476  0.1051
 4144W        W 7888   7.968   9.572   0.795  0.1665  0.2580  0.0240
 4145W        W 7889   3.536   9.423   9.631 -0.0027 -0.3129 -0.1984
 4146W        W 7890   0.680   2.861  11.959 -0.1060 -0.1119  0.0352
 4147W        W 7891   0.199   8.719  11.375 -0.1724 -0.0337  0.2402
 4148W        W 7892   2.125   8.267   3.657  0.4833  0.1028  0.3368
 4149W        W 7893   7.727   6.435   7.795 -0.1204  0.2302  0.3068
 4150W        W 7894   9.705   7.123   7.545 -0.0469 -0.0148 -0.1740
 4151W        W 7895   2.772   6.111  10.054 -0.0000  0.1737  0.0680
 4152W        W 7896   9.632   0.258   1.006  0.1579 -0.2572 -0.0371
 4153W        W 7897   5.578   7.946   1.037  0.3281 -0.0482  0.0255
 4154W        W 7898   7.597   9.311  11.147 -0.0084  0.0861  0.2324
 4155W        W 7899   3.860   1.253  10.508 -0.0073  0.0577  0.1850
 4156W        W 7900   1.413   8.279   8.671  0.0823  0.0385 -0.0971
 4157W        W 7901   0.717   9.240  10.195  0.0840 -0.0742  0.2096
 4158W        W 7902   0.998   6.036  12.095  0.1420 -0.1200  0.7209
 4159W        W 7903   9.567   4.920   7.498  0.3051 -0.3099 -0.2033
 4160W        W 7904   5.522   0.946   9.211  0.0919  0.1915 -0.0183
 4161W        W 7905   0.693   3.312   1.015  0.0469 -0.2749 -0.0208
 4162W        W 7906   6.846   4.208   0.637 -0.0217  0.2596  0.0971
 4163W        W 7907   7.803   1.616  10.166  0.0553  0.0312 -0.0460
 4164W        W 7908   5.256   7.936   8.444  0.0214 -0.0759  0.0182
 4165W        W 7909   3.206   5.310   1.678 -0.0159  0.0608 -0.2899
 4166W        W 7910   6.607   5.657   1.620  0.0391  0.1662  0.1010
 4167W        W 7911   4.717   1.644   2.045  0.1251 -0.1274  0.1169
 4168W        W 7912   6.151   3.076   2.865 -0.1883 -0.1537  0.4304
 4169W        W 7913   8.046   1.416   8.117  0.2230  0.2822 -0.0123
 4170W        W 7914   0.666   2.008  11.664  0.1230  0.1049  0.0382
 4171W        W 7915   2.735   7.243   1.407 -0.1006 -0.1730 -0.0746
 4172W        W 7916   7.350   5.637   0.905  0.2000  0.1995  0.2309
 4173W        W 7917   0.866   4.841   3.602 -0.2704 -0.0031  0.2206
 4174W        W 7918   6.450   7.548  11.740 -0.0511  0.0134 -0.0084
 4175W        W 7919   4.620   8.725   9.158  0.0898  0.3571  0.2838
 4176W        W 7920   0.094   7.021   0.469 -0.0534 -0.1977 -0.2512
 4177W        W 7921   5.924   9.231   3.277 -0.4368  0.1806  0.0522
 4178W        W 7922   6.510   4.502   8.495 -0.2930  0.1506  0.1059
 4179W        W 7923   6.557   3.809  11.272  0.0808  0.1703 -0.1458
 4180W        W 7924   4.014   7.627   7.784 -0.1928  0.2879 -0.2577
 4181W        W 7925   5.535   5.384   7.183 -0.0283 -0.0450 -0.0768
 4182W        W 7926   5.011   1.193   3.653 -0.0020 -0.3827  0.1645
 4183W        W 7927   5.881   8.718   1.147  0.3374  0.1054 -0.0302
 4184W        W 7928   9.707   6.544   9.234  0.0241  0.2903  0.1773
 4185W        W 7929   6.110   9.151   9.800  0.1084  0.0988 -0.2140
 4186W        W 7930   5.663   5.466  10.597 -0.1008 -0.0234 -0.0511
 4187W        W 7931   9.962   4.603  11.339 -0.1781  0.1970  0.2331
 4188W        W 7932   0.117   5.328   1.208  0.0338  0.3862  0.0059
 4189W        W 7933   8.465   6.782   3.453  0.3187 -0.0373  0.2099
 4190W        W 7934   3.047   2.815  10.075 -0.2870  0.0303  0.0948
 4191W        W 7935   2.184   3.903  11.454  0.0310 -0.2623  0.0976
 4192W        W 7936   9.342   4.194  10.137 -0.1291 -0.2661  0.0173
 4193W        W 7937   8.686   9.142   2.328 -0.0318 -0.0206  0.2236
 4194W        W 7938   8.389   8.787   2.159  0.1697  0.2133 -0.4686
 4195W        W 7939   2.530   3.864   9.232  0.0000 -0.2500  0.0739
 4196W        W 7940   8.579   8.528  11.737  0.2424 -0.1258  0.2319
 4197W        W 7941  10.186   2.983  10.228 -0.3223  0.0501  0.0537
 4198W        W 7942   4.001   7.884   2.190  0.0887 -0.0578  0.0335
 4199W        W 7943   4.562   2.104   1.998 -0.2310 -0.0336 -0.0265
 4200W        W 7944   8.327   4.696   3.070 -0.0307 -0.1282  0.0107
 4201W        W 7945   0.099   6.266  11.644  0.0391  0.3193  0.0422
 4202W        W 7946   7.315   1.956  10.901 -0.0488 -0.1436  0.2857
 4203W        W 7947   9.956   8.104  10.076 -0.0927  0.1840 -0.1222
 4204W        W 7948   0.243   5.647   1.743 -0.0608  0.0659 -0.0101
 4205W        W 7949   6.741   8.396   1.895  0.0460  0.0976  0.2604
 4206W        W 7950   8.997   2.601   1.319  0.0218 -0.1301 -0.0245
 4207W        W 7951   0.684   0.644  11.426 -0.1265 -0.0321  0.2127
 4208W        W 7952   4.300   8.300   0.533  0.3317 -0.0669 -0.1439
 4209W        W 7953   7.772   7.997   1.017 -0.3108  0.1609 -0.0688
 4210W        W 7954   0.489   2.386   9.964  0.2381 -0.0460 -0.2853
 4211W        W 7955   6.455   4.258   7.430  0.0012  0.3425 -0.0515
 4212W        W 7956   1.253   3.290   3.221 -0.0954  0.0719  0.2073
 4213W        W 7957   3.150  10.098   9.189  0.0304  0.0679 -0.0272
 4214W        W 7958   3.035   5.578   0.627 -0.1953 -0.0365  0.1601
 4215W        W 7959   7.923   3.936   0.555 -0.0808  0.2004  0.0974
 4216W        W 7960   2.414   1.267   9.573 -0.1182 -0.2119 -0.0389
 4217W        W 7961   4.324   5.346   9.151 -0.1903  0.1597  0.1593
 4218W        W 7962   5.364   1.903  11.003 -0.3132 -0.1454 -0.0197
 4219W        W 7963   6.018   0.860   2.135 -0.0942 -0.1327 -0.0251
 4220W        W 7964   4.573   5.153  12.044  0.2320 -0.1854  0.3780
 4221W        W 7965   3.323   1.905  10.358 -0.0477 -0.2600  0.2462
 4222W        W 7966   4.420   5.169   2.539  0.0988  0.1313  0.1179
 4223W        W 7967   8.558   8.473   9.300  0.0518  0.0977 -0.3494
 4224W        W 7968   8.313   2.693   0.583 -0.3177 -0.0396  0.0959
 4225W        W 7969   3.376   8.309   2.869 -0.1271  0.0771 -0.2328
 4226W        W 7970   1.238   6.919   7.043  0.0821  0.1249 -0.1608
 4227W        W 7971   3.563   7.710  11.609  0.0145 -0.1196 -0.0565
 4228W        W 7972   1.144   8.051   8.270 -0.0218 -0.0299  0.2195
 4229W        W 7973   4.938   9.975   1.001  0.1411 -0.2852 -0.1451
 4230W        W 7974   8.644   9.133  11.050 -0.1545  0.0558  0.0022
 4231W        W 7975   3.882   7.366   7.390 -0.3378  0.2336  0.2134
 4232W        W 7976   7.692   4.718  11.807  0.1007 -0.0242 -0.2035
 4233W        W 7977   5.832   1.363   9.717  0.1200 -0.1512  0.0869
 4234W        W 7978   9.580   5.911   8.405 -0.2688  0.1117 -0.0352
 4235W        W 7979  10.184   1.156  11.169  0.1351 -0.1949  0.2188
 4236W        W 7980   0.039   7.308  11.694  0.1263 -0.0046  0.1811
 4237W        W 7981   5.099   0.792   8.461  0.0776  0.0137  0.0749
 4238W        W 7982   5.299   8.191   9.350  0.2106  0.3106 -0.0729
 4239W        W 7983   1.757   1.785   9.435  0.0194 -0.0844  0.1991
 4240W        W 7984   2.929   4.179   1.697 -0.1869 -0.4177  0.0069
 4241W        W 7985   1.142   8.196   2.862  0.1852  0.3389  0.2654
 4242W        W 7986   3.850   3.355   3.948 -0.0292  0.4008  0.1158
 4243W        W 7987   7.401   9.730  10.433  0.0132 -0.0240 -0.0425
 4244W        W 7988   0.576   7.882   7.455  0.1623  0.1004  0.0320
 4245W        W 7989   5.945   2.921   8.064  0.0634 -0.1559  0.1241
 4246W        W 7990   6.027   9.314   7.067 -0.2661  0.1339 -0.1744
 4247W        W 7991   8.894   8.181   7.191  0.3829 -0.3342 -0.1487
 4248W        W 7992   2.789   5.465   1.443 -0.2375  0.1598 -0.4227
 4249W        W 7993   1.240   0.632  11.397 -0.0150 -0.0083  0.3160
 4250W        W 7994   6.139   1.828   0.920 -0.1336  0.0487 -0.0955
 4251W        W 7995   2.923   7.869  11.002 -0.0395 -0.2590  0.2555
 4252W        W 7996   4.486   1.793   0.252 -0.0161 -0.3504  0.0412
 4253W        W 7997   8.419   6.170   9.520 -0.3035  0.2677  0.2048
 4254W        W 7998   5.470   0.261   0.574  0.0175  0.1378 -0.1665
 4255W        W 7999   0.740   5.005   7.980 -0.1362 -0.3587  0.0388
 4256W        W 8000   6.086   8.217   0.031 -0.0224  0.3138  0.1408
 4257W        W 8001   7.420   4.228   7.478  0.0403 -0.1607  0.1972
 4258W        W 8002   5.674   5.232   3.777  0.2373 -0.1341 -0.0685
 4259W        W 8003   4.035   9.083   8.910  0.2132 -0.1385  0.1172
 4260W        W 8004   3.092   5.813   2.770  0.1102 -0.0536  0.0086
 4261W        W 8005   9.881   9.205   8.751  0.1013 -0.2524 -0.2233
 4262W        W 8006   8.383   7.569   1.998 -0.3521 -0.0188  0.2823
 4263W        W 8007   2.282   7.065   1.266  0.2670  0.1419  0.1387
 4264W        W 8008   1.498   1.601   8.485 -0.0533 -0.0480  0.0932
 4265W        W 8009   0.256   8.495   2.018 -0.2347  0.1519 -0.0565
 4266W        W 8010   6.054   9.191   9.227 -0.5130  0.1221 -0.0962
 4267W        W 8011   9.731   4.866  10.488 -0.0369 -0.1824 -0.4189
 4268W        W 8012   9.141   4.994  11.952 -0.0198 -0.1603  0.0190
 4269W        W 8013   7.554   9.782  11.412 -0.1468  0.2242 -0.1672
 4270W        W 8014   2.686   8.352  11.300 -0.2839  0.2019 -0.0397
 4271W        W 8015  10.116   5.240   3.033 -0.1241  0.1541  0.1627
 4272W        W 8016   5.744   5.390   2.739  0.1189 -0.1219 -0.3455
 4273W        W 8017   4.221   4.804   1.729  0.0602 -0.2968  0.0499
 4274W        W 8018   5.526   7.413   3.515 -0.0332 -0.1799 -0.2791
 4275W        W 8019   4.322   0.451   7.900 -0.0176 -0.0630 -0.1614
 4276W        W 8020   6.852   5.182   3.368  0.0153 -0.2967 -0.1429
 4277W        W 8021   9.532   8.415  10.449 -0.1450  0.2648  0.2176
 4278W        W 8022   1.198   4.105   2.387  0.5205 -0.0773 -0.1060
 4279W        W 8023   4.271   0.037   0.388  0.1929  0.0002 -0.2442
 4280W        W 8024   4.181   3.470  11.184  0.1369 -0.2145 -0.0578
 4281W        W 8025   3.689   1.197  10.979 -0.0867  0.1660  0.0396
 4282W        W 8026   2.412   6.206   7.911  0.0795  0.1492 -0.1273
 4283W        W 8027   1.193   1.826  10.193 -0.1953  0.0181 -0.0859
 4284W        W 8028   6.516   2.564   0.300 -0.1916 -0.0062 -0.2268
 4285W        W 8029   5.221   3.285  11.873 -0.1315  0.6182 -0.1538
 4286W        W 8030   5.509   1.950   8.846 -0.4371  0.2095 -0.2977
 4287W        W 8031   1.832   8.955   9.437 -0.0228 -0.2073  0.1644
 4288W        W 8032   3.703   9.039   9.331 -0.1024 -0.1179  0.1647
 4289W        W 8033   7.435   3.618   8.714  0.0776  0.0045 -0.0234
 4290W        W 8034   6.727   5.161   8.083  0.0312  0.0926 -0.2402
 4291W        W 8035  10.095   0.212  10.983 -0.1088 -0.0405 -0.0230
 4292W        W 8036   6.227   8.496   0.800 -0.0345  0.1294  0.0696
 4293W        W 8037   0.926   1.102  11.456 -0.0283 -0.0277  0.0926
 4294W        W 8038   0.965   3.087  11.228 -0.0334 -0.0233  0.2122
 4295W        W 8039   5.668   9.525  12.123 -0.0601 -0.2667 -0.1958
 4296W        W 8040   9.030   9.117   1.905  0.0845 -0.1797  0.0693
 4297W        W 8041  10.061   1.322  10.657 -0.2221  0.0980  0.1216
 4298W        W 8042   5.120   6.995   1.522 -0.1274  0.0410  0.0712
 4299W        W 8043   3.049   2.920  11.282 -0.0272  0.3978  0.1874
 4300W        W 8044   3.901   5.144   9.620  0.4127  0.1313 -0.0412
 4301W        W 8045   5.359   8.441  11.984 -0.1645 -0.0936  0.0115
 4302W        W 8046   0.755   8.501   9.695  0.2218  0.1413  0.0720
 4303W        W 8047   2.582   8.189  10.818 -0.2701 -0.0264  0.3261
 4304W        W 8048   9.413   2.138  11.776  0.1214  0.1865  0.0933
 4305W        W 8049   6.145   0.513   2.641  0.0173 -0.0748 -0.2898
 4306W        W 8050   0.215   3.185  11.941 -0.3157  0.0671  0.0460
 4307W        W 8051   9.097   2.834   7.918  0.2470 -0.0378  0.1145
 4308W        W 8052   7.782   5.919   8.774  0.3333  0.0630  0.3300
 4309W        W 8053   5.254   9.493  11.184 -0.1114 -0.1058  0.2261
 4310W        W 8054   2.457   0.788  12.029  0.1337  0.1464 -0.2574
 4311W        W 8055  10.038   9.859  10.843 -0.0260 -0.2559  0.0702
 4312W        W 8056   7.034   2.750  11.096 -0.1480 -0.0094 -0.1290
 4313W        W 8057   3.784   2.453  11.074  0.1880 -0.0929  0.1095
 4314W        W 8058   8.507   0.310   9.047 -0.0697 -0.0989 -0.1331
 4315W        W 8059   9.569   1.602   9.887  0.2859 -0.4310  0.0999
 4316W        W 8060   8.841   4.444   8.545 -0.0477 -0.1109 -0.0165
 4317W        W 8061   2.440   2.177   1.666  0.2249 -0.1406 -0.0612
 4318W        W 8062   0.523   4.051   3.220  0.1308 -0.2311 -0.1618
 4319W        W 8063   9.718   0.719   1.143 -0.0438 -0.1620  0.3534
 4320W        W 8064   0.887   4.456   3.262  0.0206 -0.1472 -0.0085
 4321W        W 8065   3.288   1.752   0.681  0.1449 -0.0370  0.2991
 4322W        W 8066   9.381   6.714   9.530  0.1264  0.0441 -0.3199
 4323W        W 8067   9.006   9.334  12.074  0.3782 -0.0507 -0.0450
 4324W        W 8068   4.306   6.986  10.808  0.1530 -0.0527 -0.1113
 4325W        W 8069   2.289   1.427   1.507 -0.0169 -0.2155  0.5113
 4326W        W 8070   1.332   3.628  10.903 -0.0023  0.0414  0.2995
 4327W        W 8071  10.124   3.438  10.963  0.1015 -0.2086  0.4095
 4328W        W 8072   2.017   5.385   1.231  0.1935  0.0568 -0.1586
 4329W        W 8073   6.412   1.840  11.861  0.2098 -0.0854 -0.0768
 4330W        W 8074   9.125   8.367  12.154 -0.2474  0.1351 -0.0347
 4331W        W 8075   8.193   5.455  11.280  0.3071  0.0838 -0.1317
 4332W        W 8076   3.522   0.243   0.782 -0.2066 -0.0713 -0.1975
 4333W        W 8077   7.851   6.896   1.738  0.0631  0.0586  0.0574
 4334W        W 8078   5.222   2.950  10.967  0.4564  0.4439  0.1474
 4335W        W 8079   0.517   5.279   2.157  0.4668  0.1966 -0.1276
 4336W        W 8080   9.738   7.482   3.495 -0.1497  0.0343 -0.1987
 4337W        W 8081   5.776   7.377   0.688 -0.0636  0.1195 -0.2351
 4338W        W 8082   2.483   2.037   2.141 -0.0592 -0.2535 -0.2824
 4339W        W 8083   8.256   4.573   7.646 -0.0692  0.1419 -0.0608
 4340W        W 8084   7.237   1.476   2.736  0.1670 -0.1913 -0.2450
 4341W        W 8085   5.610   6.019  10.799 -0.0018  0.4376  0.2975
 4342W        W 8086   8.474   3.118   0.216 -0.1717 -0.1476  0.2905
 4343W        W 8087   4.594   5.906  11.229  0.0658  0.1612 -0.3102
 4344W        W 8088   2.649   2.351   0.659  0.0993  0.2223  0.0857
 4345W        W 8089   1.480   9.842  10.717 -0.2010  0.0853 -0.0538
 4346W        W 8090  10.151   2.986   0.310 -0.0746 -0.1991  0.1077
 4347W        W 8091   6.216   0.178   6.931  0.3194 -0.1485  0.0533
 4348W        W 8092   8.307   9.687   0.175 -0.2766  0.1683  0.0597
 4349W        W 8093   2.769   0.162   9.021  0.1453  0.0539  0.1507
 4350W        W 8094   6.413   3.763   2.690  0.0660 -0.0554  0.1720
 4351W        W 8095   2.390   1.264   3.766  0.1567  0.0837 -0.1404
 4352W        W 8096   9.574   3.158   0.224  0.0078  0.4756 -0.0301
 4353W        W 8097   6.209   0.729   8.833 -0.2381 -0.0410  0.1910
 4354W        W 8098   8.636   0.102  11.274  0.4036  0.0129 -0.1144
 4355W        W 8099   8.217   1.824  11.939  0.0432  0.0132  0.0269
 4356W        W 8100   1.018   1.307  10.602  0.1008  0.1215 -0.0878
 4357W        W 8101   4.769   7.025   7.269  0.1093  0.1734 -0.3293
 4358W        W 8102   9.852   0.801   0.528  0.0373 -0.1325 -0.2146
 4359W        W 8103   5.084   8.820   0.049  0.0355 -0.1608  0.1745
 4360W        W 8104   6.768   5.157   2.888 -0.1786 -0.1665  0.0604
 4361W        W 8105   9.866   2.671   2.392 -0.0840  0.1049 -0.0078
 4362W        W 8106   7.638   8.653   8.777 -0.2011 -0.2160 -0.0361
 4363W        W 8107   0.723   4.688   0.123 -0.0341 -0.0810  0.3071
 4364W        W 8108   5.599   4.849  10.967  0.2773 -0.0227  0.2776
 4365W        W 8109   5.621   9.413   7.413  0.0225 -0.1589 -0.0579
 4366W        W 8110  10.096   0.077  12.164 -0.1922  0.0328  0.1395
 4367W        W 8111   2.341   9.515  11.621  0.1042 -0.3169  0.0601
 4368W        W 8112   4.294   0.805   3.472  0.0297 -0.0617 -0.0192
 4369W        W 8113   0.708   9.379   2.062  0.0518  0.1113  0.1885
 4370W        W 8114   7.924   3.199   9.709  0.0399 -0.2595 -0.0789
 4371W        W 8115   5.642   0.465   1.120 -0.1028 -0.1940  0.1644
 4372W        W 8116   8.563   4.586   2.275 -0.0640  0.1002  0.3570
 4373W        W 8117   0.918   1.433  10.132  0.0764 -0.0807 -0.1926
 4374W        W 8118   7.795   0.595  11.738 -0.1978 -0.2049  0.6511
 4375W        W 8119   0.114   6.625  10.820 -0.0429 -0.0753 -0.0360
 4376W        W 8120   2.704   3.411   0.417 -0.0701 -0.0061  0.0039
 4377W        W 8121   6.513   4.518   0.353  0.0001  0.4210  0.2435
 4378W        W 8122   4.275   5.255   1.034  0.1164  0.2248  0.1232
 4379W        W 8123   4.920   2.912   9.678  0.0647  0.0257 -0.3707
 4380W        W 8124   1.493   0.848  11.959  0.0597  0.0070  0.0073
 4381W        W 8125   2.936   1.658   9.399  0.1005 -0.0534  0.3118
 4382W        W 8126   3.112   3.852  10.654  0.1029 -0.2421 -0.0380
 4383W        W 8127   4.052   7.756   2.684 -0.7191  0.1530 -0.2962
 4384W        W 8128   8.347   8.256   2.703 -0.0453 -0.5415  0.0321
 4385W        W 8129   7.226   6.551  10.920  0.0904  0.2537 -0.2255
 4386W        W 8130   2.746   0.288   9.656  0.1082 -0.2405  0.0560
 4387W        W 8131   1.298   9.168  10.033  0.4858 -0.0205 -0.1523
 4388W        W 8132   7.732  10.103   9.664 -0.1560  0.0824  0.3409
 4389W        W 8133   3.846   7.463  10.817 -0.2469 -0.0497 -0.1115
 4390W        W 8134   5.989   8.015   2.322 -0.2642 -0.1571  0.1214
 4391W        W 8135   5.733   5.634   8.182  0.5067 -0.0011 -0.3888
 4392W        W 8136   4.817   9.005   8.514 -0.2155  0.0209  0.0757
 4393W        W 8137   0.349   4.030   9.650  0.2253  0.2206  0.2201
 4394W        W 8138   1.207   4.784  11.867 -0.0578  0.0856  0.2230
 4395W        W 8139   6.032   0.171   9.164  0.1082  0.2268  0.3809
 4396W        W 8140   4.350   5.756   8.305  0.0125 -0.2515 -0.2224
 4397W        W 8141   7.571   4.235  10.528 -0.2943  0.1254 -0.0799
 4398W        W 8142   7.641  10.075   2.852 -0.1530 -0.1001 -0.1943
 4399W        W 8143   1.079   6.342   1.387  0.0665  0.0874 -0.1836
 4400W        W 8144   9.657   6.709   9.990 -0.0599 -0.1303  0.3314
 4401W        W 8145   3.064   8.214  10.669  0.0199 -0.0813  0.0142
 4402W        W 8146   0.823   8.325   8.742  0.0847 -0.3981  0.0956
 4403W        W 8147   1.032   9.624   9.747 -0.0338 -0.1552 -0.0331
 4404W        W 8148   2.427   6.696   7.847 -0.2515 -0.2598  0.0518
 4405W        W 8149   2.142   8.741   1.859  0.0405 -0.2085 -0.0306
 4406W        W 8150   2.585   8.767   2.334 -0.2456 -0.1059 -0.0351
 4407W        W 8151   0.540   7.444   2.614 -0.2927  0.1229  0.0143
 4408W        W 8152   1.280   2.657   4.755 -0.3200  0.0478  0.1454
 4409W        W 8153   6.106   8.008   0.929  0.3521  0.2242 -0.1525
 4410W        W 8154   3.054   3.411  11.793  0.0539 -0.2020  0.0919
 4411W        W 8155   8.330   1.266   8.486 -0.0687 -0.0669 -0.0294
 4412W        W 8156   6.324   6.467  12.150 -0.3611  0.0640  0.1367
 4413W        W 8157   5.168   4.549   3.550  0.0547  0.1285  0.6803
 4414W        W 8158   2.699   6.795   2.197  0.0904 -0.1268 -0.2518
 4415W        W 8159   8.631   8.949  12.046  0.1079 -0.1761 -0.3283
 4416W        W 8160   3.568   2.746  11.493  0.2433 -0.3028  0.0375
 4417W        W 8161   1.552   0.715   8.691 -0.2061  0.0257 -0.1473
 4418W        W 8162   3.595   2.723   2.011  0.2144 -0.0857  0.0916
 4419W        W 8163   6.980   2.471   4.222 -0.1789  0.1310  0.0518
 4420W        W 8164   1.949   7.696   0.313 -0.0978 -0.1518  0.1648
 4421W        W 8165   7.981   4.368   3.108  0.0791  0.0101  0.0020
 4422W        W 8166   8.523   2.602   3.440 -0.0898  0.2190  0.0164
 4423W        W 8167   4.106   5.347  12.152  0.4173 -0.2449  0.1233
 4424W        W 8168   6.864   5.592   9.842 -0.0656  0.1086 -0.0760
 4425W        W 8169   8.430   7.912   2.416  0.0417  0.3835  0.3034
 4426W        W 8170   5.111   6.722  11.497  0.0014 -0.2088 -0.0391
 4427W        W 8171   6.630   5.166  10.873  0.0501 -0.1596  0.0082
 4428W        W 8172   4.174   8.184   1.201  0.0539  0.6359  0.0426
 4429W        W 8173   1.135   4.788   8.317 -0.1415  0.2216  0.0588
 4430W        W 8174   2.704   8.877  11.986 -0.0997 -0.3880 -0.2782
 4431W        W 8175   7.628   7.232   2.468  0.1613  0.1383  0.3007
 4432W        W 8176   6.488   3.655  10.010 -0.1290 -0.0391  0.0867
 4433W        W 8177   1.170   6.818  11.806  0.3111 -0.1011 -0.1678
 4434W        W 8178   7.451   6.195   3.910  0.0477 -0.2047 -0.1625
 4435W        W 8179   8.229   0.173   9.657  0.0403  0.3091 -0.1446
 4436W        W 8180   0.063   5.719   2.755 -0.1466  0.2263 -0.2717
 4437W        W 8181   8.667   2.708   9.500 -0.0546  0.3693 -0.2412
 4438W        W 8182   5.324   1.606   4.039  0.1045  0.0317  0.1824
 4439W        W 8183   6.638   1.369  11.140 -0.0898  0.1189  0.0091
 4440W        W 8184   9.443   1.208   0.161  0.1445 -0.0047  0.0204
 4441W        W 8185   3.206   4.518   9.882  0.1816 -0.1127 -0.1126
 4442W        W 8186   0.498   8.350  10.523 -0.3540 -0.0773  0.0164
 4443W        W 8187   9.286   7.510  10.292  0.1635 -0.1591  0.1906
 4444W        W 8188   7.422   7.152   8.749  0.1994 -0.1944  0.1021
 4445W        W 8189   8.278   5.901   1.145 -0.2398 -0.2783 -0.2843
 4446W        W 8190   4.444   4.050   0.786 -0.1780 -0.6507 -0.0263
 4447W        W 8191   9.727   7.575   4.064 -0.2318 -0.1232  0.1514
 4448W        W 8192   6.079   4.788   9.279 -0.1074  0.0667 -0.0288
 4449W        W 8193   0.966   5.743   8.196 -0.1659 -0.2243 -0.4186
 4450W        W 8194   6.724   5.181   0.985 -0.1236  0.1149  0.2946
 4451W        W 8195   0.061   4.350  10.080 -0.0782  0.1755  0.0228
 4452W        W 8196   9.173   2.827  11.158  0.0462  0.2443 -0.1531
 4453W        W 8197   3.327   2.504   8.054  0.2624  0.0518 -0.1291
 4454W        W 8198   7.963   3.334   3.069 -0.0967 -0.0367 -0.2236
 4455W        W 8199   1.716   5.220   1.917 -0.1762  0.4206 -0.0338
 4456W        W 8200   3.942   6.270   2.163 -0.1070  0.0406  0.2044
 4457W        W 8201   7.403   6.312   8.776  0.2082 -0.0026 -0.1204
 4458W        W 8202   7.744   2.006   8.674  0.2896 -0.1137 -0.0509
 4459W        W 8203   7.970   5.609  11.738  0.2440 -0.0077  0.0789
 4460W        W 8204   7.739   6.839   8.951  0.1143  0.0527  0.0982
 4461W        W 8205   4.312   0.676  10.925 -0.1183 -0.2525  0.0863
 4462W        W 8206   0.781   8.504   8.142  0.3294 -0.0115  0.1377
 4463W        W 8207   0.063   6.579   0.182  0.0454 -0.0631 -0.1592
 4464W        W 8208   3.028   7.090   9.891 -0.2345 -0.2922  0.1703
 4465W        W 8209   5.565   8.903  10.509 -0.0103  0.1888  0.0693
 4466W        W 8210   6.491   6.677   1.512  0.0355  0.0247 -0.2246
 4467W        W 8211   3.612   3.035   3.518 -0.0196  0.1847  0.2919
 4468W        W 8212   6.222   4.000   1.529 -0.0968 -0.1094  0.0886
 4469W        W 8213   6.680   0.741   9.814 -0.2616 -0.2279  0.2185
 4470W        W 8214   9.148   2.453  10.793  0.3663  0.0141  0.1927
 4471W        W 8215   1.715   2.047  11.676  0.0937 -0.1537  0.2177
 4472W        W 8216   6.101   9.705  11.800 -0.1544  0.2720  0.3043
 4473W        W 8217   6.477   3.078   9.889 -0.2026 -0.4753  0.2071
 4474W        W 8218   7.473   4.794  10.980  0.3103 -0.1695 -0.3327
 4475W        W 8219   5.771   4.227   0.605  0.0502  0.0485 -0.3872
 4476W        W 8220   8.450   0.745   9.464 -0.2833  0.1003 -0.0199
 4477W        W 8221   0.514   5.860  10.364  0.1550 -0.1118 -0.0800
 4478W        W 8222   6.463   6.895  11.950 -0.0379 -0.2228 -0.2017
 4479W        W 8223   9.815   7.717   1.610 -0.2263  0.3185 -0.3114
 4480W        W 8224   6.216   5.287   1.549 -0.1934 -0.0722 -0.1931
 4481W        W 8225   0.055   2.029   0.536  0.1732  0.2465 -0.1643
 4482W        W 8226   9.076   0.163   2.182  0.0206 -0.0649 -0.1090
 4483W        W 8227   8.144   4.044   0.055  0.0057  0.5340 -0.1272
 4484W        W 8228   7.442   0.653   0.321 -0.2622 -0.1041 -0.0667
 4485W        W 8229   3.700   4.424  12.114  0.2386 -0.3273 -0.0445
 4486W        W 8230   6.581   1.232  10.666  0.0187  0.0706 -0.1085
 4487W        W 8231   2.313   1.549  10.576 -0.2684  0.1535  0.1187
 4488W        W 8232   5.340   4.534  10.148 -0.2022  0.0452  0.0128
 4489W        W 8233   6.772   2.207   0.898  0.0692 -0.0200 -0.1977
 4490W        W 8234   0.324  10.191   3.025 -0.0545 -0.3511  0.0504
 4491W        W 8235   0.683   7.639   0.010  0.0400  0.0324  0.3499
 4492W        W 8236   7.395   5.403  10.101  0.4527 -0.2285 -0.0583
 4493W        W 8237   5.111   5.907  12.118 -0.1384 -0.0861 -0.1679
 4494W        W 8238   5.337  10.179  10.694  0.1110  0.2423 -0.0336
 4495W        W 8239   9.170   6.925   1.082  0.0195 -0.0454 -0.1025
 4496W        W 8240   5.349   5.288   8.240 -0.0803  0.0748 -0.0502
 4497W        W 8241   1.385   3.825  11.354  0.2527 -0.2601 -0.2284
 4498W        W 8242   0.617   9.823   3.196 -0.1548 -0.1076  0.2554
 4499W        W 8243   7.312   6.242  10.468  0.1353 -0.0045  0.0337
 4500W        W 8244   6.110   8.887   2.297 -0.0277  0.3021  0.1751
 4501W        W 8245   6.185   9.320   8.200  0.1380  0.2349  0.0808
 4502W        W 8246   3.681   2.898   9.378 -0.0660 -0.3306 -0.2910
 4503W        W 8247   9.269   0.587   2.606  0.3304  0.0272  0.2926
 4504W        W 8248   5.891   6.824   1.145 -0.0027 -0.0074 -0.1041
 4505W        W 8249   9.852   6.411  11.386  0.0787 -0.2075  0.0572
 4506W        W 8250   2.729   8.095   0.325 -0.0880 -0.0282 -0.0759
 4507W        W 8251   3.894   0.475   2.449 -0.4469 -0.3616  0.1293
 4508W        W 8252   0.163   6.833   3.019  0.1799  0.0691  0.0101
 4509W        W 8253   0.347   8.887  10.441  0.2417  0.2608 -0.1924
 4510W        W 8254   6.200   7.457   9.494 -0.4754 -0.0005 -0.3295
 4511W        W 8255   1.479   7.848   9.910 -0.0255  0.2338  0.1180
 4512W        W 8256   8.357   6.666   2.718  0.0216  0.1097 -0.0258
 4513W        W 8257   3.989   8.909   1.980  0.1264 -0.2325 -0.0983
 4514W        W 8258   1.532   4.879   9.097  0.0030  0.0011  0.1080
 4515W        W 8259   1.569   8.359   2.549  0.2877 -0.2057 -0.2429
 4516W        W 8260   3.079   5.039   1.259  0.3022  0.1474 -0.0322
 4517W        W 8261   8.673   9.329   0.193  0.0155  0.1043  0.1606
 4518W        W 8262   3.123   0.897   1.706 -0.0759  0.0656 -0.2132
 4519W        W 8263   9.793   5.669  11.890  0.0446  0.2043 -0.0027
 4520W        W 8264   1.921   9.462   2.462  0.0247 -0.2628 -0.1142
 4521W        W 8265   1.340   2.576   0.140  0.0782  0.0870 -0.0938
 4522W        W 8266   4.688   1.928  11.335  0.2344  0.0830 -0.0120
 4523W        W 8267   1.028   0.676   0.335 -0.2469 -0.1189 -0.0764
 4524W        W 8268   3.529   5.577   0.682 -0.0529  0.0081  0.0446
 4525W        W 8269   3.459   6.945  10.224  0.1026 -0.2334 -0.0454
 4526W        W 8270   2.521   1.730   3.592  0.3146  0.2137 -0.0268
 4527W        W 8271   5.274   1.807  10.224  0.0499  0.1400 -0.0620
 4528W        W 8272  10.191   4.457  10.851  0.2588 -0.2735  0.2434
 4529W        W 8273   9.943   6.979   2.356  0.2880  0.3289 -0.1882
 4530W        W 8274   5.212   8.010  11.877  0.0283  0.2019  0.2714
 4531W        W 8275   2.914   4.625  10.269  0.1605  0.2317  0.1126
 4532W        W 8276   7.641   8.533   3.650  0.1546 -0.2263 -0.0103
 4533W        W 8277   9.731  10.155   3.375  0.0432 -0.2950 -0.0441
 4534W        W 8278   5.855   4.465  10.756 -0.0802 -0.1044 -0.1567
 4535W        W 8279   5.055   2.232   9.150 -0.0095 -0.2785  0.1043
 4536W        W 8280   0.074   7.366   9.342  0.0118  0.0654 -0.3501
 4537W        W 8281   5.921   3.689  12.071  0.1063  0.1382 -0.2417
 4538W        W 8282   8.461   6.526   8.710  0.2495  0.1375  0.0344
 4539W        W 8283   8.644   9.059   8.759  0.3260 -0.0481  0.0360
 4540W        W 8284   3.810   4.636   9.658 -0.0333  0.0406 -0.1291
 4541W        W 8285   0.425   4.571   9.741  0.0664 -0.4143 -0.0191
 4542W        W 8286   3.590   7.805  10.525 -0.0477  0.0310 -0.1174
 4543W        W 8287   0.040   9.337   0.312  0.0772  0.0663 -0.0394
 4544W        W 8288   6.605   3.413  10.404 -0.3122  0.0488  0.1132
 4545W        W 8289   3.954   9.024   7.932 -0.0601 -0.0987 -0.1948
 4546W        W 8290   7.618   8.055   3.365  0.3169 -0.0436 -0.3419
 4547W        W 8291   6.889   5.558  10.738 -0.0549  0.0553  0.0317
 4548W        W 8292   0.741   3.499   2.499 -0.0782  0.0899  0.0300
 4549W        W 8293   1.662   2.289   0.970 -0.0323  0.2585  0.1035
 4550W        W 8294   5.785   8.933  10.935 -0.2167 -0.0325  0.0307
 4551W        W 8295   9.001   5.282   0.684 -0.3046 -0.2069 -0.0150
 4552W        W 8296   2.932   2.552  11.567  0.1968  0.3029 -0.1260
 4553W        W 8297   5.033   5.922   8.987 -0.0867  0.1479 -0.0208
 4554W        W 8298   7.410   5.925   2.911  0.0968  0.3043  0.1039
 4555W        W 8299   0.156   7.987  10.295  0.1996  0.4088 -0.0714
 4556W        W 8300   4.434   2.912   7.884 -0.1252 -0.0193 -0.0268
 4557W        W 8301   2.314   8.992   0.198  0.2675 -0.1428  0.2388
 4558W        W 8302   9.192   7.801   3.028  0.2086 -0.1702 -0.2312
 4559W        W 8303   7.682   1.419   1.342  0.1582 -0.0003  0.1210
 4560W        W 8304   1.883   3.096   9.824  0.1460 -0.0243  0.1110
 4561W        W 8305   8.598   4.800   7.287  0.3551 -0.1238  0.3018
 4562W        W 8306   0.707   6.220   3.507 -0.0721  0.2350  0.1052
 4563W        W 8307   5.563   6.695   0.199 -0.1097 -0.2248 -0.0223
 4564W        W 8308  10.104   1.287   3.338 -0.1664  0.0468  0.3021
 4565W        W 8309   9.718   8.631   8.737 -0.0331  0.0567  0.0921
 4566W        W 8310   5.986   6.980   0.214 -0.3517  0.2077 -0.5716
 4567W        W 8311   7.333   3.447   0.898 -0.1085 -0.1279 -0.0492
 4568W        W 8312   4.352   3.879   4.006 -0.0255  0.2675 -0.1290
 4569W        W 8313   0.057   3.519   1.753 -0.0238  0.0549  0.1726
 4570W        W 8314   4.686   9.892   8.589  0.0344 -0.3445 -0.1059
 4571W        W 8315   0.510   7.220   9.063 -0.0910 -0.1927 -0.0766
 4572W        W 8316   8.070   1.992  10.386 -0.0192 -0.0073 -0.0642
 4573W        W 8317   2.343   7.950  11.178  0.1583  0.0433 -0.2849
 4574W        W 8318   5.556   4.283   1.887  0.2793 -0.2513  0.0816
 4575W        W 8319   3.936   0.222   7.683 -0.2640 -0.0454  0.2721
 4576W        W 8320   8.509   1.579   8.104  0.2209 -0.1619  0.1652
 4577W        W 8321   9.758   2.010   8.378  0.1116 -0.0697  0.0185
 4578W        W 8322   7.509   5.735   9.168 -0.3596 -0.0818 -0.2197
 4579W        W 8323   2.874   0.735   3.380 -0.0831 -0.0727  0.2244
 4580W        W 8324   6.658   7.899   1.185  0.2949 -0.3802  0.1029
 4581W        W 8325   9.551   0.329   9.711  0.0801  0.5517 -0.2161
 4582W        W 8326   2.361   3.157   1.488 -0.1293 -0.4013  0.0181
 4583W        W 8327   6.580   0.261   9.909 -0.0041  0.0483 -0.0625
 4584W        W 8328   5.792   7.352   7.416  0.2800 -0.2847  0.0737
 4585W        W 8329   4.685   4.847  10.649  0.2342 -0.4997  0.0575
 4586W        W 8330   7.791   3.852   8.951  0.1958  0.0588  0.0007
 4587W        W 8331   7.734   2.018   3.221 -0.0166  0.2241  0.3962
 4588W        W 8332   2.359   8.839   1.410 -0.3967  0.0426  0.2521
 4589W        W 8333   0.277   7.754   9.136 -0.0901 -0.0731 -0.1052
 4590W        W 8334   3.400   9.227   0.173  0.3759 -0.3623  0.0863
 4591W        W 8335   8.648   8.825   7.683 -0.0763  0.0623  0.0946
 4592W        W 8336   3.167   9.091   1.202  0.1933  0.3261  0.2058
 4593W        W 8337   3.371   5.165   0.833 -0.1620  0.2911 -0.2105
 4594W        W 8338   9.778   7.261   3.046  0.0257  0.0441  0.2214
 4595W        W 8339   8.059   9.698  11.171 -0.0502  0.0302 -0.0149
 4596W        W 8340   9.203   1.551   2.956 -0.1611 -0.0803 -0.1844
 4597W        W 8341   6.347   4.919   0.661 -0.0382  0.0987  0.1691
 4598W        W 8342   3.354   7.053   0.932  0.0427  0.0749 -0.0081
 4599W        W 8343   9.840   2.136   7.864 -0.0546 -0.0387 -0.1040
 4600W        W 8344   0.080   5.997   0.781 -0.2515  0.0169 -0.3360
 4601W        W 8345   6.600   1.595   2.575  0.1429  0.1944  0.1528
 4602W        W 8346   0.850   2.368   1.640  0.1443  0.0143 -0.2629
 4603W        W 8347   0.008   4.527   1.777 -0.3793 -0.2487 -0.1026
 4604W        W 8348   3.210   5.668   0.015  0.0920 -0.2828  0.0264
 4605W        W 8349   7.415   5.312   3.436  0.2563  0.0439  0.1770
 4606W        W 8350   4.022   4.460   0.753 -0.0342 -0.2017 -0.0484
 4607W        W 8351   0.008   5.894  11.991  0.2149 -0.1339  0.0604
 4608W        W 8352   6.521   5.038   2.490 -0.1416  0.2357  0.2033
 4609W        W 8353   5.489   1.326  10.119  0.0521  0.0984  0.2935
 4610W        W 8354   7.854   2.118  10.974 -0.0443 -0.0472  0.2350
 4611W        W 8355   4.040   5.721   8.696  0.2204  0.2245 -0.2260
 4612W        W 8356   2.509   4.399   3.220  0.0157  0.1490 -0.1526
 4613W        W 8357   3.974   0.047  10.315 -0.1013  0.4961 -0.1645
 4614W        W 8358   8.459   3.086   3.039 -0.2248 -0.0298 -0.3497
 4615W        W 8359   9.188   3.964  11.861  0.1887  0.1071 -0.4428
 4616W        W 8360   4.614   6.481   0.261 -0.2051 -0.1489  0.0153
 4617W        W 8361   1.066   7.201  12.111  0.0077  0.0962  0.0045
 4618W        W 8362   5.203   8.921  10.954  0.1480 -0.0225 -0.1208
 4619W        W 8363   8.249   5.882   0.390 -0.4943  0.1925  0.0784
 4620W        W 8364   6.567   8.785  11.795  0.0866 -0.2961  0.0214
 4621W        W 8365   2.372   7.886   7.593  0.1873  0.2155 -0.0668
 4622W        W 8366   9.077   9.556  10.805  0.0131  0.1064 -0.0463
 4623W        W 8367   1.545   9.375  10.512 -0.1556 -0.0138 -0.2363
 4624W        W 8368   0.396   3.970  11.650 -0.0332 -0.1188  0.2558
 4625W        W 8369   0.278   4.937   8.916 -0.0370 -0.0522  0.1011
 4626W        W 8370   9.672   8.518   0.104  0.2376 -0.0060 -0.1857
 4627W        W 8371   8.003   4.874   9.487 -0.1175 -0.1608  0.0100
 4628W        W 8372   3.993   3.656   1.845  0.0495  0.1798  0.0144
 4629W        W 8373   3.815   5.639  10.936  0.1100  0.1512 -0.0626
 4630W        W 8374   6.581   1.441   8.173  0.1419 -0.0244  0.1069
 4631W        W 8375  10.136   6.173   9.163 -0.1876  0.0760 -0.0360
 4632W        W 8376   3.756   5.793   2.189  0.1295 -0.0642  0.1086
 4633W        W 8377   9.688   8.282   2.771 -0.0430 -0.0087  0.0609
 4634W        W 8378   7.741   8.148   8.764 -0.0613 -0.2352  0.1886
 4635W        W 8379   6.108   6.372   9.766 -0.1812  0.1629  0.1427
 4636W        W 8380   1.898   6.962   0.942 -0.0242 -0.1488 -0.2990
 4637W        W 8381   5.771   1.708   7.605  0.2507 -0.3032  0.0054
 4638W        W 8382   8.459   2.788   8.765 -0.1286  0.2830  0.1506
 4639W        W 8383   1.345   8.963   0.545  0.0047  0.2332  0.3094
 4640W        W 8384   7.152   6.533   9.710  0.1536 -0.0162 -0.0969
 4641W        W 8385   4.486   7.127   9.555  0.2138  0.0479 -0.1177
 4642W        W 8386   4.621   2.652   1.686  0.1562  0.0414 -0.1641
 4643W        W 8387   1.548   2.169  10.367 -0.0442 -0.1938 -0.1108
 4644W        W 8388   8.313   4.384   1.885 -0.1545  0.2895 -0.0271
 4645W        W 8389   9.562   5.938   2.286 -0.1296  0.3812  0.2879
 4646W        W 8390   8.298   1.457   1.009 -0.1551  0.4324  0.2028
 4647W        W 8391   8.828   0.092   1.197 -0.2995 -0.0219 -0.1482
 4648W        W 8392   9.642   5.375   9.339  0.1469  0.2670  0.2064
 4649W        W 8393   6.064   0.804  10.544 -0.0875  0.0586  0.2091
 4650W        W 8394   6.766   2.110  11.607 -0.2193  0.0077 -0.0173
 4651W        W 8395   7.775   7.842   2.930  0.0002  0.2182 -0.0561
 4652W        W 8396   8.269   4.887   2.096  0.0507 -0.0021  0.0722
 4653W        W 8397   5.825   2.197   9.242 -0.2528  0.1856 -0.0566
 4654W        W 8398   6.207   6.702   0.607 -0.1661  0.2227 -0.1353
 4655W        W 8399   2.869   4.691   3.070 -0.2115  0.1252  0.0721
 4656W        W 8400   1.915   8.106   0.554  0.0613  0.0263  0.3519
 4657W        W 8401   9.493   1.996  10.299 -0.1470 -0.0704  0.0842
 4658W        W 8402   7.012   9.309   0.845 -0.0213  0.2335 -0.3120
 4659W        W 8403   3.403   1.577   8.637  0.0110  0.1968  0.1518
 4660W        W 8404   2.096   9.594   9.533  0.1175 -0.1375 -0.0994
 4661W        W 8405   5.762   6.104   1.878 -0.1143 -0.3002 -0.0899
 4662W        W 8406   2.860   5.845   1.073 -0.1700 -0.2721  0.1073
 4663W        W 8407   0.905   5.304   3.284 -0.1282  0.2463 -0.1107
 4664W        W 8408   5.414   1.445   2.000  0.0735  0.2949  0.1946
 4665W        W 8409   4.864   3.776   0.243  0.1505  0.0048 -0.0562
 4666W        W 8410   5.258   6.263   2.690 -0.0389  0.0822 -0.1571
 4667W        W 8411   3.079   7.918   8.749  0.1075  0.0372 -0.1617
 4668W        W 8412   0.086   6.970   8.974  0.2120 -0.0678 -0.1702
 4669W        W 8413   1.884   5.292   8.274  0.2535  0.2692 -0.0266
 4670W        W 8414   2.227   5.711   0.233  0.1409 -0.1898  0.2955
 4671W        W 8415   6.297   4.556   2.320  0.2376  0.2072 -0.0283
 4672W        W 8416   1.276  10.031  12.128 -0.1916  0.0365  0.0878
 4673W        W 8417   4.116   5.713  11.321 -0.1046 -0.1639  0.1739
 4674W        W 8418   2.332   6.421   3.575  0.1821 -0.1592  0.2430
 4675W        W 8419   4.792   5.959   8.033  0.2133 -0.0298 -0.2276
 4676W        W 8420   8.343   2.213  11.082  0.0880 -0.2407 -0.2798
 4677W        W 8421   9.432   7.934   2.511  0.3070  0.0313  0.1037
 4678W        W 8422   2.293   1.517   2.728 -0.1604 -0.3516  0.0261
 4679W        W 8423   1.546   6.266   2.327  0.0545  0.1737  0.0066
 4680W        W 8424   0.982   1.467   9.609  0.1089  0.2204  0.2695
 4681W        W 8425   7.898   8.853  11.236 -0.1248  0.2560 -0.2315
 4682W        W 8426   4.404   0.030   9.605  0.1884  0.1101  0.1184
 4683W        W 8427   6.611   4.348  12.126 -0.2640  0.3195  0.2664
 4684W        W 8428   3.370   0.561   1.327 -0.0490 -0.2947 -0.0760
 4685W        W 8429   1.900   3.321   1.085 -0.1031  0.0178  0.1137
 4686W        W 8430   8.348   1.055   3.470 -0.2495  0.1509 -0.0913
 4687W        W 8431   3.324   6.492   0.772 -0.0981  0.0773  0.2683
 4688W        W 8432   6.948   7.577  11.221 -0.2026  0.0089 -0.2005
 4689W        W 8433   0.728   8.338   0.998 -0.0892 -0.2537 -0.1135
 4690W        W 8434   3.790   6.595   1.718 -0.1326 -0.1845 -0.5637
 4691W        W 8435   9.102   9.726   1.120  0.0141 -0.1189  0.2384
 4692W        W 8436   1.535   3.724   1.473  0.0789  0.1887 -0.1787
 4693W        W 8437   1.951   1.477   3.782  0.1982 -0.0275 -0.5388
 4694W        W 8438   1.682   6.723   2.023  0.1402  0.1868 -0.1310
 4695W        W 8439   6.116   3.381  10.104  0.1808 -0.0763 -0.0706
 4696W        W 8440   4.979   0.087  11.280 -0.2272  0.1320  0.1596
 4697W        W 8441   1.582   7.786   8.391  0.1840  0.2407  0.3479
 4698W        W 8442   0.603   0.831   2.416  0.4102  0.0012 -0.1604
 4699W        W 8443   1.639   8.365   9.415 -0.0229 -0.4887 -0.0566
 4700W        W 8444   7.924   0.365   9.338  0.1358  0.1955  0.0545
 4701W        W 8445   9.011   7.803   1.204 -0.1553 -0.0276 -0.1429
 4702W        W 8446   2.771   1.290   1.629 -0.1020  0.0055 -0.0682
 4703W        W 8447   0.416   9.836   1.888  0.1612  0.3416  0.0642
 4704W        W 8448   5.329   4.237   3.134 -0.1080 -0.0909 -0.1599
 4705W        W 8449   2.053   6.166   0.695 -0.4235 -0.1261  0.0208
 4706W        W 8450   5.328   7.564   8.727  0.2489 -0.1417 -0.1672
 4707W        W 8451   8.208   2.855   1.522 -0.1869 -0.3155  0.2504
 4708W        W 8452   6.084   1.274  10.648  0.2425  0.2848  0.1889
 4709W        W 8453   9.720   0.535   2.767 -0.0970  0.0717 -0.1386
 4710W        W 8454   5.397   2.317   8.519  0.0204  0.1057  0.1026
 4711W        W 8455   2.381   9.804   1.890  0.1574 -0.4030  0.0498
 4712W        W 8456   9.868   2.229  11.415  0.0063 -0.1912 -0.0105
 4713W        W 8457   4.351   6.572   2.198 -0.0394 -0.1781  0.0132
 4714W        W 8458   2.169   3.030  11.590  0.2712  0.1257 -0.0370
 4715W        W 8459   4.126   3.774   3.075 -0.1109  0.0307  0.0901
 4716W        W 8460   3.102   9.650   9.509 -0.1924  0.0741 -0.1102
 4717W        W 8461   8.973   1.723   1.765  0.0778  0.2867 -0.0780
 4718W        W 8462   5.190   8.353  11.484 -0.1230 -0.1160  0.0759
 4719W        W 8463   2.189   7.152   8.751 -0.0925 -0.1924 -0.1673
 4720W        W 8464   6.986   6.180   3.088  0.2253  0.5249 -0.0463
 4721W        W 8465   3.417   9.585  10.894  0.1896  0.3633 -0.1833
 4722W        W 8466   9.475   2.823  10.744  0.3203 -0.1426  0.0419
 4723W        W 8467   2.198   6.122   1.585  0.0178  0.0124 -0.4130
 4724W        W 8468   8.698   0.315   0.019  0.0030  0.3107 -0.0987
 4725W        W 8469   8.762   4.216  10.315  0.1195  0.0268  0.4590
 4726W        W 8470   0.775   5.300  11.646  0.0801 -0.1916 -0.2206
 4727W        W 8471   1.838   2.767   1.656  0.1426  0.1604  0.1310
 4728W        W 8472   1.520   6.760   0.189  0.1797  0.1637  0.1063
 4729W        W 8473   7.144   0.550   9.950  0.1193 -0.0883 -0.1040
 4730W        W 8474   6.137   1.040   0.735  0.0256 -0.0369 -0.0887
 4731W        W 8475   6.557   5.517   7.745 -0.0835 -0.2114 -0.1268
 4732W        W 8476   1.425   7.630   3.190 -0.1798 -0.1360  0.1670
 4733W        W 8477   7.698   5.335   3.055  0.0851  0.0760  0.1214
 4734W        W 8478   4.917   4.179   0.601 -0.1476  0.2646 -0.0423
 4735W        W 8479   1.500   5.132   9.521  0.1428  0.1363  0.2030
 4736W        W 8480   4.831   9.030   9.644 -0.1860  0.3062  0.0972
 4737W        W 8481   3.713   1.020  10.030 -0.0815 -0.0056 -0.1053
 4738W        W 8482   4.296   6.153   9.516 -0.0163  0.1964  0.2509
 4739W        W 8483   3.102   0.386   0.338  0.0710 -0.0281 -0.2674
 4740W        W 8484   8.062   8.510   2.413  0.3193  0.2465 -0.1158
 4741W        W 8485   0.732   2.874   9.949  0.1465 -0.1706 -0.2608
 4742W        W 8486   4.761   8.130  11.579 -0.1592 -0.1162 -0.3500
 4743W        W 8487   0.411   9.658  11.584  0.3500  0.0801 -0.2980
 4744W        W 8488   8.125   4.580  10.860 -0.1689 -0.1812 -0.0095
 4745W        W 8489  10.015   7.437   0.358  0.0068 -0.1722  0.2620
 4746W        W 8490   3.143   2.872   9.553  0.0547  0.0363  0.1782
 4747W        W 8491   7.009   5.888   2.599  0.2033 -0.3713 -0.2646
 4748W        W 8492   0.699   1.936   9.761 -0.1421 -0.1271  0.4436
 4749W        W 8493   1.855   2.661   9.069 -0.2904  0.1607 -0.0869
 4750W        W 8494   7.433   8.589  10.076  0.0605 -0.1768 -0.0124
 4751W        W 8495   8.642   5.134   9.926  0.0912  0.0520 -0.0362
 4752W        W 8496   4.499   1.496   1.095 -0.2081  0.0178  0.0095
 4753W        W 8497   3.015   1.367   2.055 -0.1286 -0.2136  0.1162
 4754W        W 8498   9.559   1.184  11.906 -0.0390  0.2559  0.1228
 4755W        W 8499   6.293   1.684   9.836  0.0606 -0.0501  0.2865
 4756W        W 8500   0.768   2.359  11.090  0.1858  0.1196  0.0596
 4757W        W 8501   4.267   0.354   9.976  0.4624 -0.0849 -0.2648
 4758W        W 8502   2.904   9.054   2.634  0.0007  0.2191 -0.0538
 4759W        W 8503   9.388  10.039   1.463 -0.0436 -0.0098 -0.1022
 4760W        W 8504   8.739   7.691   0.723  0.0969  0.0573  0.0669
 4761W        W 8505   6.651   6.915   8.312 -0.5216  0.1052  0.1505
 4762W        W 8506   4.871   8.578   1.952 -0.1045 -0.4098 -0.0451
 4763W        W 8507   8.448   6.696   9.457  0.0282 -0.1568  0.3369
 4764W        W 8508   5.421   3.656  11.029 -0.0540 -0.1117  0.1957
 4765W        W 8509   2.207   0.546   8.968  0.1193 -0.0330 -0.1677
 4766W        W 8510   0.375   8.615  11.832  0.2878  0.0766  0.0577
 4767W        W 8511   3.233   3.641  10.118  0.2143  0.0985 -0.2779
 4768W        W 8512   8.970   8.172   2.627  0.0758 -0.1147  0.3166
 4769W        W 8513   2.281   4.252   1.476 -0.2413 -0.2628  0.0778
 4770W        W 8514   4.013   8.697  10.942 -0.1923  0.0469  0.1638
 4771W        W 8515   7.873   2.113   1.945 -0.1375 -0.0607  0.0094
 4772W        W 8516   7.433   9.814   3.312  0.0168  0.1249  0.4211
 4773W        W 8517   6.002   4.051  10.416  0.0716  0.4034  0.3823
 4774W        W 8518   8.519   7.979   9.498 -0.0750 -0.1799  0.1800
 4775W        W 8519   5.018   4.169  10.318  0.2610  0.1349  0.1654
 4776W        W 8520   1.639   8.983   3.118 -0.0386 -0.0007  0.0082
 4777W        W 8521   4.213   4.855   2.263 -0.0193 -0.0003  0.1091
 4778W        W 8522   9.538   3.830   2.394  0.0032  0.2965  0.0659
 4779W        W 8523   2.972   0.939  11.796  0.0385  0.1003  0.0921
 4780W        W 8524   2.418   7.710  10.801 -0.2409  0.2341  0.1472
 4781W        W 8525   4.086   8.465   3.472  0.2358 -0.1404  0.0281
 4782W        W 8526   8.877  10.007   3.028  0.0599  0.0954 -0.0915
 4783W        W 8527   5.129   9.083  10.461  0.0943 -0.2847 -0.0783
 4784W        W 8528   3.608   7.738   9.511 -0.2285 -0.3019 -0.0519
 4785W        W 8529   6.781   8.661   3.943 -0.0980  0.2000  0.2756
 4786W        W 8530   1.585   9.364   0.328  0.2233  0.0122  0.1471
 4787W        W 8531   9.276   3.535   0.301 -0.1543 -0.0602 -0.0286
 4788W        W 8532   3.650   3.080   0.644  0.2041  0.0130 -0.1211
 4789W        W 8533   7.353   6.314  11.401  0.2252  0.0882  0.0973
 4790W        W 8534   6.552   9.237   9.549 -0.0773  0.0840  0.1744
 4791W        W 8535   1.849   4.752   2.778  0.1421 -0.1843 -0.1719
 4792W        W 8536   3.425   8.317  11.640  0.0978 -0.1241  0.0963
 4793W        W 8537   6.542   2.316   3.612 -0.0004  0.1251 -0.1242
 4794W        W 8538   2.719   0.910   2.032  0.0926 -0.2939 -0.2190
 4795W        W 8539   4.568   8.665   9.954 -0.0905 -0.1682 -0.4165
 4796W        W 8540   0.570   9.432   0.365 -0.0951  0.0687  0.1951
 4797W        W 8541   1.239   7.338  11.589 -0.0453  0.1681 -0.2147
 4798W        W 8542   4.052   8.971  11.905  0.4336  0.0914 -0.3044
 4799W        W 8543   3.265   1.352   9.059 -0.2494  0.3903 -0.3494
 4800W        W 8544   4.484   4.033   8.942  0.1262 -0.0213 -0.0420
 4801W        W 8545   3.228   4.804   0.565  0.0044  0.1522  0.0618
 4802W        W 8546   4.859   8.309  12.117 -0.1685 -0.0996 -0.0027
 4803W        W 8547   5.115   2.787   1.756 -0.1699  0.1870  0.2251
 4804W        W 8548   1.470   8.885   3.647 -0.0439  0.3340  0.2312
 4805W        W 8549   6.980   5.152   2.401 -0.3330 -0.2559  0.0050
 4806W        W 8550   5.913   7.176   7.918  0.0011  0.1847 -0.1595
 4807W        W 8551   4.748   2.342   0.521 -0.0956  0.2759 -0.2391
 4808W        W 8552   8.207  10.111   9.231 -0.1201 -0.0036 -0.1639
 4809W        W 8553   2.821   6.828  10.868  0.1583  0.1671 -0.1897
 4810W        W 8554   4.988   0.992   0.001  0.2252 -0.3117  0.2453
 4811W        W 8555   3.942   9.313   1.471 -0.0108  0.1895  0.0795
 4812W        W 8556   4.155   1.640  10.808 -0.1649 -0.1306  0.0635
 4813W        W 8557   5.064   0.315   9.363  0.2090 -0.1628  0.0854
 4814W        W 8558   1.085   8.980  10.442  0.0489  0.0773  0.1137
 4815W        W 8559   2.550   6.708  11.644  0.1475  0.1182 -0.2342
 4816W        W 8560   6.236   2.025   8.486 -0.2053 -0.3946 -0.1602
 4817W        W 8561  10.050   8.012   1.937 -0.1916  0.0086 -0.2703
 4818W        W 8562   8.325   7.297  11.345 -0.0278  0.1879 -0.4846
 4819W        W 8563   5.137   9.390   7.805 -0.1519 -0.0292  0.0962
 4820W        W 8564   3.048   6.546   0.327 -0.0660 -0.0699  0.0233
 4821W        W 8565   5.216   9.402   8.325 -0.5101  0.0485  0.1716
 4822W        W 8566   4.297   9.023   0.139  0.3599  0.0063 -0.4828
 4823W        W 8567   6.719   6.442   2.707 -0.1221  0.1160 -0.0758
 4824W        W 8568   6.002   5.834   1.013  0.1247 -0.1470  0.0640
 4825W        W 8569   1.316   0.102  11.662 -0.1250 -0.2638  0.2297
 4826W        W 8570   3.643   0.232  10.731 -0.1851 -0.0754  0.3808
 4827W        W 8571   9.364   1.981  10.921 -0.3531  0.0297 -0.2491
 4828W        W 8572   2.843   2.117  11.217 -0.3425  0.1550 -0.1094
 4829W        W 8573   1.553   2.227   9.211  0.1141 -0.0161  0.0768
 4830W        W 8574   3.549   8.378  12.135  0.0810 -0.0284  0.0265
 4831W        W 8575   2.550   1.424   8.332 -0.0411 -0.0816 -0.0329
 4832W        W 8576   8.751   2.168   3.272  0.1279  0.2290  0.1254
 4833W        W 8577   8.876   1.550  11.037  0.1486  0.1681  0.2380
 4834W        W 8578   3.872   8.713   9.763 -0.0095 -0.3503  0.0821
 4835W        W 8579   1.795   4.009   1.135 -0.0716 -0.0706  0.1289
 4836W        W 8580   3.865   9.480  10.663  0.0752  0.3288 -0.0609
 4837W        W 8581   9.822   0.914   3.139  0.0692 -0.0563  0.0004
 4838W        W 8582   2.288   0.776   0.631 -0.3435 -0.3368  0.0081
 4839W        W 8583   3.839   3.887   0.246  0.0537 -0.0656  0.2410
 4840W        W 8584   4.259   5.894   2.216 -0.2077 -0.1092  0.0840
 4841W        W 8585   9.171   8.698   4.044  0.1445  0.0128 -0.1352
 4842W        W 8586   0.072   3.471  10.457  0.1304  0.2088  0.0614
 4843W        W 8587   7.244   0.133   9.741 -0.1199  0.2145  0.3231
 4844W        W 8588  10.120   2.284   0.062  0.2227  0.0772 -0.0034
 4845W        W 8589   4.602   3.881  10.418  0.2928 -0.2823 -0.2092
 4846W        W 8590   3.936   9.493   1.909 -0.1291 -0.2969  0.0616
 4847W        W 8591   2.358  10.058  10.357  0.0157  0.0967 -0.2375
 4848W        W 8592   4.070   7.681   1.262  0.0251  0.2822  0.2154
 4849W        W 8593   4.209   1.752   8.540 -0.0275  0.0531  0.2182
 4850W        W 8594   7.267   1.849   3.147 -0.0684  0.1684  0.0269
 4851W        W 8595   7.277   3.132  10.845 -0.2884 -0.0555 -0.2081
 4852W        W 8596   9.107   5.310  11.037  0.1675 -0.2533  0.0004
 4853W        W 8597   2.694   0.737   9.934 -0.3490  0.3689  0.2399
 4854W        W 8598  10.127   5.292   9.025  0.1060 -0.1048  0.0471
 4855W        W 8599   9.765   8.018   9.621 -0.0534  0.0577  0.4724
 4856W        W 8600   5.479   5.470   1.493  0.0741  0.0594  0.0649
 4857W        W 8601   4.504  10.008  11.862 -0.1614  0.0255 -0.2220
 4858W        W 8602   9.102   7.315  10.769 -0.0331 -0.0667  0.0079
 4859W        W 8603   0.266   2.831   9.845 -0.0438 -0.0334  0.0955
 4860W        W 8604   3.167   5.954   3.472 -0.3579 -0.1949 -0.1753
 4861W        W 8605   3.615   3.109   2.421 -0.0405  0.0476  0.2746
 4862W        W 8606   1.647   3.577   9.416  0.1424  0.0596 -0.2449
 4863W        W 8607   4.347   9.075   7.410  0.0840 -0.1546 -0.3571
 4864W        W 8608   4.283   0.185  10.702  0.2121  0.1346  0.0797
 4865W        W 8609   3.468   9.661   9.158  0.0218 -0.1702  0.1988
 4866W        W 8610   8.482   8.691   0.789  0.1604  0.0777  0.1032
 4867W        W 8611   4.035   1.319   1.448  0.0679 -0.0296  0.1596
 4868W        W 8612   5.371  10.000  11.160  0.1941 -0.2353  0.0614
 4869W        W 8613   6.526   5.988   2.309 -0.0914  0.0411  0.0794
 4870W        W 8614   8.754   9.465  11.374  0.1251  0.2128  0.0674
 4871W        W 8615   5.698   5.030   1.262 -0.0048  0.2764  0.0345
 4872W        W 8616   2.254   2.613   2.700 -0.0960  0.0606  0.0302
 4873W        W 8617   9.481   2.906   3.808 -0.0915  0.3274 -0.3084
 4874W        W 8618   5.772   4.997   0.245 -0.0034 -0.0729 -0.2598
 4875W        W 8619   8.001   3.965   2.756  0.1398  0.1499  0.0432
 4876W        W 8620   7.493   0.420   2.834 -0.0600  0.0638 -0.3099
 4877W        W 8621   6.272   1.147   9.674  0.0017 -0.0244 -0.2171
 4878W        W 8622   8.300   5.773   8.125 -0.0155  0.0185 -0.1521
 4879W        W 8623   4.314   1.738   2.305  0.3309  0.0083  0.1888
 4880W        W 8624   2.666   2.354   8.748 -0.3063  0.1271  0.2181
 4881W        W 8625   3.472   9.814   2.865  0.0100  0.3877 -0.0442
 4882W        W 8626   2.639   9.255   1.304 -0.1056  0.1256 -0.1767
 4883W        W 8627   9.275   3.228  10.388 -0.1695 -0.1264 -0.0147
 4884W        W 8628   4.674   2.353  12.012  0.2177  0.0139  0.1013
 4885W        W 8629   9.800   6.414  10.803 -0.0242  0.1096 -0.1830
 4886W        W 8630   8.136   4.549   2.572 -0.2360 -0.2245 -0.0062
 4887W        W 8631   1.573   8.445  11.151 -0.0911  0.4652 -0.1932
 4888W        W 8632   0.002  10.156   2.027 -0.3804 -0.2392 -0.0011
 4889W        W 8633   1.915   8.055   9.919  0.0031 -0.0012  0.2927
 4890W        W 8634   8.663   1.140   3.105 -0.3726 -0.1648 -0.1580
 4891W        W 8635   6.128   7.842   3.303  0.3298  0.0388  0.2958
 4892W        W 8636   6.639   0.261   2.542  0.1954  0.0700  0.2839
 4893W        W 8637   6.908   0.867  10.302 -0.1000 -0.2322 -0.0636
 4894W        W 8638   6.908   2.827   7.764 -0.4020  0.3689  0.0674
 4895W        W 8639   8.499   7.341   1.445  0.1174 -0.0579  0.2366
 4896W        W 8640   0.874   9.688   2.714 -0.0831  0.1164  0.2025
 4897W        W 8641   6.720   2.236   9.270  0.3335 -0.2042 -0.1554
 4898W        W 8642   5.160   4.366   9.323 -0.0656 -0.2019  0.1515
 4899W        W 8643   9.411   0.854  11.180  0.2032 -0.2027 -0.3321
 4900W        W 8644   6.737   7.153  10.766 -0.0294  0.0925 -0.1639
 4901W        W 8645   2.074   5.654   0.763 -0.0495  0.1950 -0.2375
 4902W        W 8646   1.012   3.187   8.867  0.4858 -0.2059  0.2140
 4903W        W 8647   0.290   9.259   0.736  0.1494  0.2245  0.1547
 4904W        W 8648   2.664   1.042   2.994 -0.2464  0.0378  0.1287
 4905W        W 8649   2.955   8.748   8.083  0.0954 -0.0759 -0.1111
 4906W        W 8650   9.995   6.509   8.755 -0.1308 -0.0911 -0.2995
 4907W        W 8651   2.421   4.899   0.686 -0.1193 -0.2187 -0.1490
 4908W        W 8652   9.264   9.847   9.803  0.3001 -0.1064  0.1208
 4909W        W 8653   5.925   2.431   2.381  0.0014 -0.2501 -0.1749
 4910W        W 8654   1.283   6.993   1.896  0.0667 -0.0254  0.0279
 4911W        W 8655   6.427   6.025   9.205 -0.0223  0.1600  0.3305
 4912W        W 8656   7.712   5.436  11.103 -0.1260  0.4990  0.1465
 4913W        W 8657   0.514   1.212   2.748 -0.0517 -0.0000 -0.1757
 4914W        W 8658   7.629   8.961  11.658 -0.2879 -0.0160 -0.0150
 4915W        W 8659   4.926   1.451   0.146 -0.2550  0.0094  0.0215
 4916W        W 8660   3.493   9.803   1.846 -0.1130 -0.1988 -0.1947
 4917W        W 8661   1.386   8.633   2.890  0.1571 -0.2293 -0.1368
 4918W        W 8662   8.291   8.136   0.969 -0.0556  0.1058 -0.0045
 4919W        W 8663   6.494   8.684   2.823 -0.2023 -0.0331  0.0273
 4920W        W 8664   5.490   0.491   9.379  0.2362 -0.2132 -0.2993
 4921W        W 8665   9.233   6.270   8.414 -0.1080 -0.0497 -0.2633
 4922W        W 8666   6.862   4.636  10.313 -0.3430 -0.1083 -0.4015
 4923W        W 8667   9.262   0.915   8.218  0.1382  0.4669  0.2479
 4924W        W 8668   4.319   6.206  11.620  0.0862  0.0475 -0.0042
 4925W        W 8669   5.172   6.195   8.642  0.1177 -0.2727  0.0861
 4926W        W 8670   5.921   6.714  11.114 -0.3966 -0.0409  0.1625
 4927W        W 8671   8.651   1.840   9.786  0.4387 -0.2650  0.0766
 4928W        W 8672   2.680   6.626   9.756 -0.0819 -0.0348  0.0750
 4929W        W 8673   1.178   6.569   0.951 -0.0066  0.2270 -0.0668
 4930W        W 8674   8.871   4.754   9.033  0.1853  0.1939  0.1373
 4931W        W 8675   2.222   9.225   1.025 -0.1881  0.0031  0.1817
 4932W        W 8676   0.831   0.925   3.071  0.0459  0.2507  0.4188
 4933W        W 8677   7.559   1.661   0.300  0.1238 -0.0565 -0.0747
 4934W        W 8678   1.295   2.824   6.216  0.0430  0.0297 -0.2231
 4935W        W 8679   5.705   3.926   8.830  0.1058 -0.0460 -0.1914
 4936W        W 8680   3.125  10.147   8.654  0.1812  0.0581  0.3279
 4937W        W 8681   2.036   3.989   3.112  0.0309  0.1894  0.2306
 4938W        W 8682   9.820   9.215   9.258 -0.2683  0.1103  0.3738
 4939W        W 8683   7.269   1.673   1.377  0.2216  0.0782  0.0365
 4940W        W 8684   2.642   9.089   7.724 -0.3155 -0.2202 -0.1868
 4941W        W 8685   8.406   3.262  11.481  0.1237  0.0801  0.0519
 4942W        W 8686   3.370   0.100  10.314  0.1221  0.3892  0.4163
 4943W        W 8687   9.244   7.329   3.444 -0.2713  0.3896  0.3661
 4944W        W 8688   8.474   7.661   9.037 -0.2776 -0.1710  0.0939
 4945W        W 8689   0.245   4.708  12.087 -0.1077  0.3704  0.0122
 4946W        W 8690   0.322   5.010  11.638 -0.2305 -0.1197 -0.0745
 4947W        W 8691   3.850   2.361   1.364 -0.1714 -0.0751 -0.0711
 4948W        W 8692   1.345   7.588   1.998 -0.2480 -0.1772 -0.2329
 4949W        W 8693   0.042   1.321   1.708  0.1874 -0.2711 -0.3004
 4950W        W 8694   2.930   9.612   8.416 -0.1901 -0.1517 -0.0191
 4951W        W 8695   6.828   6.026   7.142 -0.0876 -0.1603 -0.0915
 4952W        W 8696   3.352   0.625  10.831  0.1107 -0.0636  0.1330
 4953W        W 8697   2.561   3.446   8.918 -0.5204  0.0326  0.1518
 4954W        W 8698   2.860   6.912   0.667  0.3354  0.3226  0.0432
 4955W        W 8699   4.749  10.022   0.122  0.0181 -0.5008 -0.0897
 4956W        W 8700   5.553   0.708  11.564 -0.0536 -0.0391  0.0076
 4957W        W 8701   6.405   8.496  10.280 -0.4250  0.0299 -0.2656
 4958W        W 8702   1.515   5.939  11.988  0.0881  0.0636  0.3440
 4959W        W 8703   9.718   4.658   0.715  0.1939 -0.2750 -0.2860
 4960W        W 8704   4.482   3.328   9.836 -0.0944 -0.1007 -0.1567
 4961W        W 8705   0.633   1.687   9.305 -0.2393  0.2727 -0.1636
 4962W        W 8706   6.669   7.392   8.411 -0.2456  0.0391 -0.1131
 4963W        W 8707   3.490   5.705   7.996  0.1184  0.2189  0.0694
 4964W        W 8708   8.691   9.152   0.755 -0.0533  0.0859 -0.1658
 4965W        W 8709   0.081   7.795  11.746 -0.0027  0.1220 -0.3346
 4966W        W 8710   6.534   8.544   8.730  0.3452  0.3167  0.3293
 4967W        W 8711   5.856   2.819   9.097  0.2218  0.2503  0.1678
 4968W        W 8712   8.759   8.275   0.940 -0.0562  0.2494 -0.2162
 4969W        W 8713   8.504   7.640   9.885 -0.0548 -0.2117 -0.0342
 4970W        W 8714   9.265   7.488   2.603  0.2352  0.0749 -0.1581
 4971W        W 8715   4.703  10.187   3.058 -0.0888  0.1686  0.1609
 4972W        W 8716   4.587   1.200   3.409  0.0085 -0.2153 -0.0620
 4973W        W 8717   9.806   8.029   4.241 -0.0080  0.0385  0.0149
 4974W        W 8718   1.363   1.047   0.188 -0.1793 -0.0191 -0.0416
 4975W        W 8719   8.747   2.914  11.370 -0.1758  0.2053 -0.0802
 4976W        W 8720   8.869   2.418  11.386 -0.2135 -0.1199 -0.2939
 4977W        W 8721   1.436   5.301   8.780  0.1116 -0.0224  0.0274
 4978W        W 8722   0.575   0.726   9.494  0.0396 -0.3855  0.2406
 4979W        W 8723   2.211   6.354   2.854  0.2058  0.1887  0.1425
 4980W        W 8724   5.603   7.027   1.730 -0.0681 -0.0540  0.0282
 4981W        W 8725   9.384   2.293  11.301  0.1699 -0.0752  0.0905
 4982W        W 8726   7.216   9.437   3.617 -0.0980  0.0278 -0.4532
 4983W        W 8727   4.012   6.542  10.742  0.2771  0.0211  0.2883
 4984W        W 8728   8.864   4.383   2.605 -0.2079  0.0278  0.2319
 4985W        W 8729   0.191   8.006  10.790 -0.0002 -0.2238 -0.1803
 4986W        W 8730   4.742   2.810   0.389  0.0052  0.0742  0.4661
 4987W        W 8731   2.520   3.146  12.109 -0.2087  0.2282  0.2403
 4988W        W 8732   8.973   0.340   0.642  0.0533 -0.2838 -0.0195
 4989W        W 8733   9.327   5.804   3.137  0.1421 -0.1112  0.3903
 4990W        W 8734   5.694   6.003   7.901  0.2794 -0.1700 -0.3615
 4991W        W 8735   9.470   1.285   9.527 -0.0388  0.0810 -0.2261
 4992W        W 8736   4.772   5.780  10.769 -0.0128  0.0073 -0.0376
 4993W        W 8737   9.019   7.587   8.141  0.1479  0.0434  0.1231
 4994W        W 8738   9.834   7.530  12.090 -0.0863 -0.0608  0.2563
 4995W        W 8739   5.805   7.721   8.660  0.1881  0.0622  0.0229
 4996W        W 8740   7.506   9.130   2.421 -0.0971 -0.0885 -0.0002
 4997W        W 8741   6.000   7.550   1.171  0.1499 -0.0889  0.0316
 4998W        W 8742   8.078   4.818   8.089 -0.1061  0.0452  0.3561
 4999W        W 8743   5.702   0.877   0.429 -0.0619 -0.0960 -0.0022
 5000W        W 8744   5.228   6.484   1.654  0.0127  0.2342 -0.0006
 5001W        W 8745   9.465   2.895  10.099  0.2132  0.1440  0.3606
 5002W        W 8746   3.783   2.142   2.772 -0.2704  0.0069  0.0313
 5003W        W 8747   8.705   3.697  11.136  0.2160 -0.1720 -0.2974
 5004W        W 8748   7.994   7.526   9.214  0.1641 -0.3377  0.1269
 5005W        W 8749   7.415   5.002  11.452 -0.1826 -0.2345 -0.2142
 5006W        W 8750   5.104   1.620   8.972  0.0450  0.3039 -0.3345
 5007W        W 8751   1.101   6.684   2.238  0.0781  0.2935 -0.0497
 5008W        W 8752   9.656   8.647   4.020  0.1063 -0.1130  0.0063
 5009W        W 8753   5.254   4.616   0.673 -0.0832 -0.0168 -0.1615
 5010W        W 8754   0.203   7.147   2.215  0.0094  0.1159 -0.1116
 5011W        W 8755   0.796   6.715   1.736 -0.0998 -0.0044  0.1989
 5012W        W 8756   7.421   0.983   0.745 -0.0960  0.2954 -0.4945
 5013W        W 8757   9.393   7.788   3.725  0.2332  0.1719  0.0843
 5014W        W 8758   4.913   1.615   3.374  0.1698 -0.1615 -0.0815
 5015W        W 8759   7.092   9.126  11.182 -0.1715  0.1105 -0.0668
 5016W        W 8760   1.353   0.168   7.967  0.0039 -0.1185  0.1584
 5017W        W 8761   9.666   5.365  10.811  0.0667  0.0277 -0.0490
 5018W        W 8762   6.795   7.454  10.331  0.3752 -0.4749  0.2001
 5019W        W 8763   8.490   7.627   3.312  0.0390 -0.1597  0.3518
 5020W        W 8764   7.660   7.545   3.764  0.3407 -0.6888 -0.0484
 5021W        W 8765   8.125   8.917   8.510  0.2479  0.1295  0.2327
 5022W        W 8766   0.098   9.518   1.151  0.1701  0.0879  0.0934
 5023W        W 8767   9.868   9.939   2.320  0.0750 -0.1198 -0.3518
 5024W        W 8768   1.092   4.890  11.431 -0.0970 -0.2399  0.0441
 5025W        W 8769   6.350   3.989   0.390 -0.1588  0.4773  0.1714
 5026W        W 8770   3.982   5.756   0.864 -0.3322  0.1481  0.1611
 5027W        W 8771   8.912   2.709   9.004  0.0783  0.1764  0.0786
 5028W        W 8772   5.694   4.643   1.528  0.5495  0.3039 -0.0965
 5029W        W 8773   2.320   9.784   2.391  0.0801  0.0620  0.2915
 5030W        W 8774   2.714   4.123   1.151 -0.0306  0.2385 -0.0432
 5031W        W 8775   6.528   5.360  12.214  0.4677  0.0952  0.1151
 5032W        W 8776   2.130   2.433  10.618  0.0941  0.1774  0.1372
 5033W        W 8777   0.314   6.075   2.200  0.2542  0.1610  0.0895
 5034W        W 8778   0.232   9.700   0.638  0.2129 -0.2428  0.2649
 5035W        W 8779   9.135   9.453  10.309  0.1137  0.0742 -0.1669
 5036W        W 8780   3.478   0.020   2.509 -0.1327  0.4945  0.0553
 5037W        W 8781   0.399   4.327   9.236  0.3008  0.1385  0.1384
 5038W        W 8782   3.556   8.730   3.207  0.0437  0.2637  0.1121
 5039W        W 8783   4.941   8.704   0.620 -0.0093 -0.1974 -0.0102
 5040W        W 8784   1.214  10.122   1.337  0.0136  0.1164 -0.2677
 5041W        W 8785   3.875   0.303   0.361  0.1860  0.0317 -0.4173
 5042W        W 8786   2.181   2.601   0.515  0.0450 -0.0703  0.3015
 5043W        W 8787   9.146   1.100   3.159  0.0831  0.1853  0.2129
 5044W        W 8788   9.077   4.993  11.465 -0.1902 -0.2689  0.3668
 5045W        W 8789   5.220   1.144   0.499  0.0747 -0.0497 -0.0519
 5046W        W 8790   8.269   9.852   9.696  0.0754  0.0648  0.1514
 5047W        W 8791   0.636   9.836   8.952  0.1295 -0.0400 -0.2646
 5048W        W 8792   9.498   5.910   0.039 -0.0558  0.0345  0.4413
 5049W        W 8793   6.561   4.438   1.584  0.0371  0.0449 -0.1685
 5050W        W 8794   6.312   0.017  11.637  0.0111 -0.1273  0.0036
 5051W        W 8795   4.415   6.476  10.426  0.4555  0.0918 -0.1431
 5052W        W 8796   0.876   4.302   0.986 -0.0983 -0.0717 -0.3083
 5053W        W 8797   9.320   6.330  11.926  0.3134 -0.0453  0.0050
 5054W        W 8798   2.347   3.537   3.023 -0.0978 -0.1118  0.1472
 5055W        W 8799   3.558   8.063   1.944  0.3131 -0.1635  0.0101
 5056W        W 8800   4.099   5.217  10.664  0.3463  0.0675  0.0520
 5057W        W 8801   5.115   7.301  10.038  0.0941  0.0192 -0.0197
 5058W        W 8802   2.867   5.900  10.542 -0.0172 -0.2956 -0.3863
 5059W        W 8803   3.769   4.630   3.227  0.0305  0.0664 -0.0185
 5060W        W 8804   8.771  10.077  11.782  0.3368  0.2692 -0.3413
 5061W        W 8805   0.754   1.174   1.169  0.0389 -0.0913 -0.1504
 5062W        W 8806   4.532   2.523   9.502 -0.2105  0.1211 -0.0544
 5063W        W 8807   3.345   7.182  11.700  0.2280  0.2026 -0.2463
 5064W        W 8808   4.622   7.000   1.299 -0.0080  0.0272 -0.1462
 5065W        W 8809   6.419   4.416   7.974  0.2296 -0.2067  0.1316
 5066W        W 8810   4.472   8.430   1.615 -0.2060  0.3529 -0.0047
 5067W        W 8811   3.014   0.544   2.218  0.2326 -0.1890  0.0481
 5068W        W 8812   2.893   2.571  10.987  0.1428  0.1289 -0.2065
 5069W        W 8813  10.157   8.415   0.261 -0.1607  0.1210  0.1467
 5070W        W 8814   4.944   3.739   4.193  0.0032 -0.0276 -0.1853
 5071W        W 8815   7.808   4.898   9.999  0.2106 -0.2754 -0.1329
 5072W        W 8816   0.921   0.940   8.468  0.1096 -0.0090  0.0278
 5073W        W 8817   7.529   3.483   9.683 -0.2161 -0.0990  0.0863
 5074W        W 8818   1.193   3.599   2.217  0.0850 -0.3623 -0.2301
 5075W        W 8819   5.636   1.661  11.385 -0.1841 -0.0786  0.0291
 5076W        W 8820   5.962   3.083  11.490  0.1979  0.0462 -0.3796
 5077W        W 8821   4.234   4.739   9.414  0.0045  0.3647  0.1226
 5078W        W 8822   5.512   7.909   3.481 -0.3960  0.0534 -0.2016
 5079W        W 8823   9.557   1.497   1.648  0.1852  0.1742  0.1204
 5080W        W 8824   0.311   8.572   9.437 -0.0240  0.3308  0.3887
 5081W        W 8825   1.509   0.267  10.463 -0.0197 -0.0093 -0.0827
 5082W        W 8826   6.543   7.094   1.777  0.2094  0.0804 -0.0038
 5083W        W 8827   6.348   3.446   3.150 -0.1030  0.3256 -0.0535
 5084W        W 8828   3.771   4.875   0.930 -0.3768 -0.4034  0.0348
 5085W        W 8829   3.534   2.096   8.603 -0.1490  0.3396 -0.1101
 5086W        W 8830   4.909   6.680   8.736 -0.1074  0.0043  0.1330
 5087W        W 8831   7.184   8.412   7.056 -0.2646 -0.2419 -0.0627
 5088W        W 8832   1.158   7.605   0.124  0.3017 -0.1090 -0.2362
 5089W        W 8833   5.085   4.159   0.034 -0.1820  0.2051  0.4182
 5090W        W 8834   0.730   9.684  12.041  0.0762 -0.3832 -0.0882
 5091W        W 8835   6.381   7.575   1.823  0.0184  0.0409  0.3118
 5092W        W 8836   2.889   1.625  11.356  0.0677  0.0274  0.1743
 5093W        W 8837   7.837   1.522  12.008  0.0526  0.1893 -0.0581
 5094W        W 8838   7.253   1.047   2.192  0.0856 -0.1161  0.2769
 5095W        W 8839   4.522   8.659   3.310  0.2025 -0.2170 -0.0695
 5096W        W 8840   7.268   4.359   0.959 -0.2239  0.0672 -0.1037
 5097W        W 8841   3.017   8.440   2.019  0.1658 -0.3747  0.3020
 5098W        W 8842   2.392   5.698   1.314  0.0414 -0.3418 -0.0628
 5099W        W 8843   9.680   9.735   3.154  0.2279  0.2332 -0.6567
 5100W        W 8844   8.720   3.214   1.243 -0.0807  0.0451 -0.0682
 5101W        W 8845   3.840   5.379  11.739 -0.1767  0.1899  0.2180
 5102W        W 8846   0.249   5.802   1.259  0.3059  0.3090 -0.0833
 5103W        W 8847   6.586   7.692   7.991 -0.0778  0.3849  0.1378
 5104W        W 8848   3.793   5.352   1.231 -0.1503  0.1676 -0.0813
 5105W        W 8849   5.501   7.629  10.114  0.0506 -0.1668 -0.1419
 5106W        W 8850   2.009   0.886   1.476  0.3911 -0.3599  0.2761
 5107W        W 8851   7.869   9.989   1.304  0.1667 -0.3259 -0.2099
 5108W        W 8852   0.208   6.204  11.126  0.0414  0.0077  0.1083
 5109W        W 8853   4.083   7.207   8.111  0.1902 -0.1505  0.0193
 5110W        W 8854   9.921   1.466   1.255  0.1935  0.3022  0.2438
 5111W        W 8855   7.903   1.604   0.663  0.0910 -0.0795  0.0624
 5112W        W 8856   8.727   7.130   8.616 -0.2700 -0.1273  0.3367
 5113W        W 8857   7.459   2.466   3.379  0.1696 -0.0237 -0.1921
 5114W        W 8858   1.167   1.032   9.839 -0.1281  0.1011  0.0067
 5115W        W 8859   1.682   7.956  11.647  0.3067  0.0270  0.0974
 5116W        W 8860   9.208   8.794   2.707  0.0974  0.0634 -0.0663
 5117W        W 8861   9.671   2.701   1.941  0.2389 -0.0117 -0.2240
 5118W        W 8862   9.251   6.267   1.063  0.3040 -0.0459  0.1373
 5119W        W 8863   8.404   3.066   2.554  0.0053  0.0077 -0.1911
 5120W        W 8864   5.920   5.777   1.504  0.1193 -0.1416 -0.0550
 5121W        W 8865   2.227   8.027   1.505  0.1851 -0.0923 -0.2201
 5122W        W 8866   3.897   5.485   8.281  0.1937 -0.1138  0.0310
 5123W        W 8867   6.018   6.238  11.207  0.0715 -0.4287 -0.1283
 5124W        W 8868   8.830   5.575  10.103  0.2254 -0.0681 -0.1132
 5125W        W 8869   6.360   6.959  11.152  0.3262 -0.1908  0.1096
 5126W        W 8870   5.998   5.292   0.958  0.0586 -0.1090 -0.0365
 5127W        W 8871  10.127   8.621   2.830  0.0299  0.1662 -0.1129
 5128W        W 8872   6.820   2.751   9.349 -0.2169 -0.1036 -0.1452
 5129W        W 8873   8.998   2.650   3.658  0.0296  0.0962  0.0653
 5130W        W 8874   8.205   9.209   0.002  0.0220 -0.1449 -0.1192
 5131W        W 8875   3.483   8.491   9.323 -0.1060  0.0339 -0.0757
 5132W        W 8876   2.384   8.738  10.061 -0.2086  0.1021  0.0722
 5133W        W 8877   6.263   0.929  10.974  0.0496 -0.0524 -0.1450
 5134W        W 8878   0.228   6.836   7.772 -0.1734 -0.0272  0.0543
 5135W        W 8879   6.853   2.471  10.180  0.9149  0.3199  0.1465
 5136W        W 8880   6.716   5.193   1.474 -0.0079 -0.0804  0.1913
 5137W        W 8881   9.561   3.246   1.699  0.0738  0.2621 -0.0067
 5138W        W 8882   6.714   0.245   8.367 -0.1291 -0.0417  0.2133
 5139W        W 8883   7.409   2.693   1.080 -0.0332 -0.0624 -0.0729
 5140W        W 8884   1.107   7.501   1.281 -0.2139 -0.0392  0.0208
 5141W        W 8885   2.199   9.149  11.309  0.2923  0.1157 -0.0433
 5142W        W 8886   9.692   4.877   3.075  0.0661  0.1299 -0.3120
 5143W        W 8887   2.723   6.614   9.216 -0.2687  0.0342 -0.2141
 5144W        W 8888   5.195   0.612   1.623  0.3380  0.0864  0.4303
 5145W        W 8889   0.478   9.004   9.401  0.0777  0.0087 -0.1555
 5146W        W 8890   0.926   5.426   7.828 -0.2214 -0.1457  0.1790
 5147W        W 8891   5.405   0.806   3.264 -0.3382  0.1831 -0.1220
 5148W        W 8892   7.436   3.884  10.843  0.1364  0.3369 -0.2324
 5149W        W 8893   8.066   9.183   3.315  0.1019  0.1879 -0.0156
 5150W        W 8894   5.045   5.508  10.366 -0.0507  0.1487 -0.0852
 5151W        W 8895   0.995   6.589  10.850 -0.0957 -0.1400  0.0713
 5152W        W 8896   5.549   5.796  11.270  0.1904  0.0671 -0.2489
 5153W        W 8897   6.766   4.068  10.788 -0.0197 -0.1046 -0.0987
 5154W        W 8898   8.404   7.273   2.540  0.0650  0.1703  0.1820
 5155W        W 8899   6.856   7.004   8.727  0.2323 -0.0830  0.0334
 5156W        W 8900   3.575   3.465   1.463  0.1843 -0.2548  0.0228
 5157W        W 8901   5.475   3.983  11.636 -0.0700 -0.2804  0.0493
 5158W        W 8902   3.579   2.361  10.608  0.0696  0.3792 -0.1107
 5159W        W 8903   8.732   1.030   2.194  0.1874  0.1022 -0.2027
 5160W        W 8904   7.037   0.174  10.203 -0.0431 -0.1183  0.0740
 5161W        W 8905   8.800   1.333  11.531  0.1455 -0.1135  0.1578
 5162W        W 8906   4.479   2.248  10.006  0.2799  0.3281  0.2445
 5163W        W 8907   3.603   9.540   8.203 -0.0671  0.1668  0.1587
 5164W        W 8908   4.152   0.012   8.655 -0.0378  0.2364  0.1327
 5165W        W 8909   7.165   9.642  11.140 -0.2188  0.2114  0.2676
 5166W        W 8910   1.309   6.223  11.608  0.0111 -0.0370  0.0285
 5167W        W 8911   2.032   3.809  10.623 -0.0467 -0.0947  0.0819
 5168W        W 8912   6.625   4.614  10.847 -0.0696  0.1357 -0.1399
 5169W        W 8913   1.305   1.421  11.001 -0.4145 -0.1930  0.0962
 5170W        W 8914   2.907   3.677   3.579  0.2235  0.1211  0.0937
 5171W        W 8915   9.240   1.548   8.610 -0.1479  0.2380 -0.1538
 5172W        W 8916   4.658   4.869   1.447  0.0795  0.0789  0.1660
 5173W        W 8917   3.044   7.068   9.300  0.0158  0.1077 -0.1066
 5174W        W 8918   8.991   1.795  10.595 -0.1515 -0.4095  0.0050
 5175W        W 8919   8.053   1.037  11.873  0.3722 -0.0096  0.0228
 5176W        W 8920   5.661   9.032   8.232 -0.2691 -0.0329 -0.0970
 5177W        W 8921   7.825   7.166   8.315  0.1717 -0.1409 -0.0677
 5178W        W 8922   9.187   6.042  10.334 -0.1067 -0.1042 -0.0160
 5179W        W 8923   7.472   1.482   0.893 -0.1634 -0.1834 -0.2705
 5180W        W 8924   5.331   2.134   1.334 -0.0405 -0.1972 -0.2676
 5181W        W 8925   7.242   6.747   8.979  0.1188  0.0810  0.1158
 5182W        W 8926   8.629   5.817  10.598  0.2361  0.1030  0.2159
 5183W        W 8927   1.554   2.124   3.042 -0.1744  0.2090  0.0059
 5184W        W 8928   6.626   6.012   3.367  0.0117 -0.0242 -0.2572
 5185W        W 8929   4.559   4.213   0.097 -0.1836  0.2458  0.0799
 5186W        W 8930   9.638   6.289   3.447 -0.0814  0.2026  0.0349
 5187W        W 8931   4.158   4.236   8.264 -0.3454  0.0921  0.0103
 5188W        W 8932   3.850   2.682   0.962 -0.0570  0.2231  0.1302
 5189W        W 8933   6.794   4.949   9.934  0.1860 -0.2469  0.2534
 5190W        W 8934   7.594   6.903   0.091 -0.2468  0.2316  0.0449
 5191W        W 8935   4.716   8.300   8.500 -0.2858 -0.2170 -0.2177
 5192W        W 8936   9.882   6.813   3.406  0.1957  0.0613  0.1284
 5193W        W 8937   7.642   7.125   3.317 -0.1301 -0.2572 -0.2987
 5194W        W 8938   2.319   6.726  11.172 -0.1050  0.0407  0.1722
 5195W        W 8939   8.457   1.073  10.245 -0.0023 -0.3276 -0.2174
 5196W        W 8940   4.072   7.787  11.179 -0.0077 -0.0201 -0.3442
 5197W        W 8941   7.495   8.509  11.383  0.0905  0.0593  0.3712
 5198W        W 8942   0.841   7.082   9.530 -0.1355  0.0356  0.1945
 5199W        W 8943   2.237   3.576   0.582 -0.0559  0.1226 -0.0446
 5200W        W 8944   5.060   1.663   9.785  0.0668 -0.1752  0.2898
 5201W        W 8945   0.735   3.778   1.232  0.0802  0.0274 -0.0749
 5202W        W 8946   5.732   0.619  10.217 -0.1874  0.2040 -0.0383
 5203W        W 8947   1.424   5.943  11.026  0.0610  0.0160 -0.0016
 5204W        W 8948   8.832   4.505   9.934  0.0287 -0.0095 -0.4829
 5205W        W 8949   6.301   0.157   1.802  0.0177  0.0140  0.0375
 5206W        W 8950   9.917   3.593   8.824 -0.2474  0.0646  0.1115
 5207W        W 8951   6.249   8.932  10.721  0.2699 -0.1131 -0.1336
 5208W        W 8952   5.140   1.637   2.339 -0.0226  0.2249 -0.4542
 5209W        W 8953   5.631   9.982   0.335 -0.0392 -0.1855  0.2375
 5210W        W 8954   5.040   4.563  11.509 -0.2909  0.2449  0.4063
 5211W        W 8955   0.502   4.997   1.268  0.0576  0.1810  0.0572
 5212W        W 8956   1.054   8.217   2.312  0.3483 -0.0803  0.1159
 5213W        W 8957   1.110   9.222   2.323  0.0265 -0.4017  0.1539
 5214W        W 8958   2.114   9.123  11.836  0.0857 -0.2325 -0.1067
 5215W        W 8959   0.524   8.904   7.673 -0.3223 -0.1102 -0.0549
 5216W        W 8960   6.001   3.802   9.215 -0.0037 -0.2301 -0.0132
 5217W        W 8961   0.973   3.583   3.747  0.0638 -0.1762 -0.1098
 5218W        W 8962   5.419   6.389   3.222  0.0021 -0.0611  0.0333
 5219W        W 8963   6.258   0.236   0.915 -0.2436  0.1585 -0.0167
 5220W        W 8964   1.964   1.480   0.236 -0.0032 -0.0409  0.1370
 5221W        W 8965   5.868   6.654  12.016  0.0022 -0.0845 -0.3467
 5222W        W 8966   3.685   2.802   1.538  0.1382  0.0070  0.2850
 5223W        W 8967   8.829   9.542   3.269 -0.0915  0.2163 -0.2473
 5224W        W 8968   0.657   0.870   8.929 -0.0904  0.0419 -0.3182
 5225W        W 8969   9.857   8.583  11.373  0.1670  0.0800  0.1459
 5226W        W 8970   9.607   1.000  10.693 -0.2219  0.2740 -0.0587
 5227W        W 8971   5.943   1.774   3.764 -0.1725 -0.1095 -0.1042
 5228W        W 8972   4.706   5.123   9.335  0.0386  0.3334 -0.0121
 5229W        W 8973   3.230   7.277   0.454 -0.0064 -0.1815  0.1061
 5230W        W 8974   4.176   7.937   1.737  0.0698 -0.0096 -0.0368
 5231W        W 8975   3.637   7.027   2.609 -0.0802 -0.0780 -0.0583
 5232W        W 8976   5.896   0.255  11.531  0.0948 -0.1498  0.1072
 5233W        W 8977   6.258   8.623   0.240 -0.2820 -0.0248  0.1804
 5234W        W 8978   1.947   9.592   1.198  0.0458 -0.0815  0.0849
 5235W        W 8979   1.733   9.488  10.025 -0.2744 -0.0342 -0.2547
 5236W        W 8980   1.377   1.174   1.715 -0.1022 -0.0269  0.3286
 5237W        W 8981   2.027   1.206  10.308  0.1094 -0.1978 -0.0241
 5238W        W 8982   3.055   8.263   9.259 -0.2393 -0.1207 -0.1657
 5239W        W 8983   2.729   3.716   1.412 -0.1657 -0.0203 -0.2491
 5240W        W 8984   1.110   7.832  11.808 -0.1472  0.0905 -0.1204
 5241W        W 8985   6.585   3.925   8.643 -0.0611  0.0580 -0.0706
 5242W        W 8986   6.160   2.322   1.038  0.0876 -0.0779 -0.1360
 5243W        W 8987   1.608   2.729   9.532 -0.0214  0.0173  0.0994
 5244W        W 8988   3.785   4.419  10.165 -0.1238 -0.0050 -0.0731
 5245W        W 8989   5.813  10.065  11.935  0.1366  0.0401  0.1027
 5246W        W 8990   8.023   7.576   2.405 -0.0450  0.0078  0.0885
 5247W        W 8991   0.412   2.145   3.528 -0.1129  0.2179 -0.0859
 5248W        W 8992   2.698   4.187   3.767  0.1766 -0.0270  0.0878
 5249W        W 8993   7.288   4.123  11.872 -0.3447  0.0514  0.0610
 5250W        W 8994   2.585   6.868   8.795  0.0138 -0.1320 -0.3282
 5251W        W 8995   9.050   2.135   1.165 -0.0660 -0.0210 -0.0082
 5252W        W 8996   3.085   6.100   8.444  0.1689 -0.0358  0.1094
 5253W        W 8997   1.661   5.006   9.976 -0.0269 -0.1004 -0.0960
 5254W        W 8998   4.214   9.811   2.199 -0.1541 -0.1851  0.3828
 5255W        W 8999   0.844   7.731   9.151 -0.0104  0.1460  0.2827
 5256W        W 9000   2.883   9.744  10.246  0.0566  0.2344  0.1868
 5257W        W 9001   1.157   5.087  10.899 -0.2690 -0.2554  0.0323
 5258W        W 9002   6.958   8.814  10.836  0.0268  0.2438 -0.1589
 5259W        W 9003   2.749   9.781  11.665  0.4405 -0.0858  0.1270
 5260W        W 9004   7.568   2.381  11.518 -0.0417  0.0364  0.2004
 5261W        W 9005   5.094   6.592   3.563  0.0984  0.1083  0.0670
 5262W        W 9006   1.718   0.490   7.690  0.2134 -0.0046  0.3130
 5263W        W 9007   8.208   0.042   8.759 -0.1034 -0.0478 -0.4175
 5264W        W 9008   0.475   3.655  10.688 -0.3543 -0.2176  0.1503
 5265W        W 9009   7.088   0.929   0.035  0.0988 -0.2788 -0.0098
 5266W        W 9010   3.977   9.828  11.126 -0.1973 -0.0101 -0.2038
 5267W        W 9011   0.018   1.052  11.690 -0.0172  0.4764  0.0979
 5268W        W 9012   5.485   0.207  10.247  0.1307 -0.1557  0.0501
 5269W        W 9013   4.502   5.698   0.873 -0.0906 -0.5490  0.4199
 5270W        W 9014   9.953   1.774  10.164 -0.0448 -0.2458  0.1927
 5271W        W 9015   9.117  10.006   2.527 -0.3245 -0.0559  0.1562
 5272W        W 9016   5.423   7.247  10.459 -0.2570  0.2097  0.1810
 5273W        W 9017   2.321   7.488   1.654  0.1204  0.0837 -0.1800
 5274W        W 9018   5.609   9.138   0.996 -0.3290 -0.1608  0.0848
 5275W        W 9019   3.923   3.820   9.402  0.3597 -0.1231 -0.1205
 5276W        W 9020   7.524   3.645   1.830  0.5056 -0.0034  0.2576
 5277W        W 9021  10.035   0.456   9.053  0.2695 -0.3024 -0.3575
 5278W        W 9022   6.564  10.056  10.256 -0.2788  0.0297 -0.0644
 5279W        W 9023  10.047   8.311   1.496 -0.2314 -0.3222  0.0202
 5280W        W 9024   8.120   1.685   0.216  0.2618 -0.0968  0.0785
 5281W        W 9025   6.787   3.116  10.750  0.3358  0.1528  0.1961
 5282W        W 9026   5.625   9.436   0.470  0.0115  0.4693 -0.2012
 5283W        W 9027   1.963   5.984   1.203 -0.3983  0.1903 -0.2398
 5284W        W 9028   2.599   7.956  11.623 -0.2588  0.1586  0.3177
 5285W        W 9029   2.794   6.448  10.536  0.0693  0.0220  0.1386
 5286W        W 9030   3.636   1.673   2.898  0.1630  0.1173  0.0136
 5287W        W 9031   3.177   5.003   2.054  0.0620 -0.0950  0.0875
 5288W        W 9032   5.723   7.151   2.758 -0.1719 -0.1310  0.2541
 5289W        W 9033   5.178   6.438   9.148  0.1124  0.0132 -0.1237
 5290W        W 9034   4.070   1.252   3.070  0.3131  0.0855  0.0868
 5291W        W 9035   1.953   8.134   1.058 -0.2155  0.0331 -0.2463
 5292W        W 9036   9.626   3.895   2.962  0.1040  0.1294  0.0992
 5293W        W 9037   6.592   1.213   0.515  0.0474  0.0289 -0.2373
 5294W        W 9038   3.144   0.418   1.765  0.1353  0.1853  0.2213
 5295W        W 9039   5.903   6.241   2.815  0.1891 -0.0399  0.1876
 5296W        W 9040   3.892   5.918  11.779 -0.2238 -0.0047  0.1902
 5297W        W 9041   8.971   1.072  11.132 -0.2423 -0.1624  0.1612
 5298W        W 9042   0.364   3.129   1.848 -0.0475 -0.1732 -0.1575
 5299W        W 9043   2.243   0.568   2.831 -0.1064  0.2354  0.2553
 5300W        W 9044   7.822   0.695   0.004  0.0115  0.1393 -0.0608
 5301W        W 9045   4.186   4.928  11.819 -0.0840  0.1787  0.3946
 5302W        W 9046   1.465   3.654   0.427 -0.1871  0.0405 -0.1818
 5303W        W 9047   1.620   2.251   1.488 -0.0298  0.0130  0.1824
 5304W        W 9048   1.085   3.102   2.147 -0.0635  0.0027 -0.1457
 5305W        W 9049  10.193   2.596  11.157 -0.0141 -0.2920  0.0423
 5306W        W 9050   8.094   5.307   8.024  0.3051  0.1791  0.3507
 5307W        W 9051   6.660   2.922   8.756  0.0512  0.0151 -0.0014
 5308W        W 9052   4.821   6.124   0.854 -0.2052  0.1772 -0.1688
 5309W        W 9053   2.995   6.418   2.373  0.0806  0.0162 -0.0266
 5310W        W 9054   4.634   8.081   0.850  0.1685 -0.0211 -0.0207
 5311W        W 9055   6.895   0.991   3.037 -0.3260 -0.0033  0.0995
 5312W        W 9056   9.394   2.740   0.486 -0.2582  0.0085  0.3050
 5313W        W 9057   2.923   8.480   9.828 -0.0259  0.2020  0.0598
 5314W        W 9058   3.900   8.481  11.821 -0.0749 -0.1538  0.2131
 5315W        W 9059   5.675   5.528   0.583 -0.0658 -0.0398 -0.0436
 5316W        W 9060   0.257   0.243   9.299 -0.0836 -0.1205  0.1611
 5317W        W 9061   7.616   9.714   9.369  0.1187  0.1148 -0.1843
 5318W        W 9062   3.724   9.642   3.730  0.1698  0.2065  0.2798
 5319W        W 9063   2.186   5.015   1.515  0.0316  0.1710 -0.0458
 5320W        W 9064   2.189   2.659   3.786 -0.1744  0.2611  0.1345
 5321W        W 9065   3.600   3.027   8.877 -0.2225  0.6229 -0.1058
 5322W        W 9066   4.219   2.075  11.137  0.0858  0.2405  0.1856
 5323W        W 9067   0.856   9.593   9.281  0.2111 -0.1074 -0.0683
 5324W        W 9068   3.053   0.770   8.529  0.1368 -0.0596  0.1777
 5325W        W 9069   4.700   7.249   8.131 -0.3082  0.0121  0.2236
 5326W        W 9070   0.158   0.900  10.771 -0.0615  0.1382 -0.0299
 5327W        W 9071   1.307   2.293   2.461  0.0108  0.1334  0.0570
 5328W        W 9072   4.820   7.342  11.747  0.0984 -0.4052  0.1286
 5329W        W 9073   8.013   1.844   1.470 -0.1303 -0.1196  0.2606
 5330W        W 9074   3.156   8.653   2.513  0.0138  0.1364 -0.1843
 5331W        W 9075   3.362   6.947  11.149  0.0732  0.1180  0.0941
 5332W        W 9076   8.097   4.919   0.956 -0.0276 -0.1326  0.4643
 5333W        W 9077   5.256   9.848   1.369  0.3187 -0.1091  0.2205
 5334W        W 9078   6.282   1.808  11.362 -0.2341 -0.1157 -0.0158
 5335W        W 9079   8.275   3.799  10.230 -0.2230  0.2119  0.3437
 5336W        W 9080   1.655   4.584   9.537 -0.4418  0.0251  0.2105
 5337W        W 9081   9.603   5.685   1.844  0.0045 -0.4054 -0.1531
 5338W        W 9082   5.675   5.261   2.284  0.0197 -0.3018  0.3158
 5339W        W 9083   9.211   5.160  10.237 -0.0207 -0.3473  0.1196
 5340W        W 9084   1.530   4.633   0.746  0.3623  0.2517  0.0781
 5341W        W 9085   8.114   1.282   1.574  0.1068 -0.3191  0.0964
 5342W        W 9086   8.349   2.402   1.403  0.1178  0.1086  0.0141
 5343W        W 9087   9.604   3.712   9.778  0.0084 -0.2147 -0.2584
 5344W        W 9088   8.378   5.009   8.977  0.0019  0.1588  0.1542
 5345W        W 9089   4.432   5.040   0.591  0.0487 -0.1443 -0.1646
 5346W        W 9090   1.705   2.040   2.079  0.0219  0.0632 -0.0575
 5347W        W 9091   4.986   6.050   0.366 -0.0240 -0.0146  0.1394
 5348W        W 9092   1.580   4.160   2.757 -0.1392  0.1373 -0.0874
 5349W        W 9093   1.460   9.580   2.380  0.0329 -0.0799 -0.0720
 5350W        W 9094   4.190   9.421  10.260  0.0015 -0.3453  0.3439
 5351W        W 9095   9.556   0.243   2.433 -0.2539 -0.2493 -0.2258
 5352W        W 9096   9.654   4.302  11.635 -0.0413  0.1289 -0.0990
 5353W        W 9097   2.191   0.095  12.186 -0.1728  0.0567 -0.0294
 5354W        W 9098   9.584  10.083   9.492 -0.1103 -0.1989 -0.2494
 5355W        W 9099   0.021   7.478   8.806 -0.0620 -0.0482 -0.1190
 5356W        W 9100   8.093   8.973   1.505 -0.0314  0.1214  0.0334
 5357W        W 9101   3.565   6.957   9.315  0.0988 -0.0462 -0.2418
 5358W        W 9102   9.702   0.215  11.830  0.1397  0.2861  0.0457
 5359W        W 9103   6.964   4.059   2.009 -0.1387 -0.0179  0.0701
 5360W        W 9104   3.758   8.516   8.367  0.2081 -0.0046  0.2857
 5361W        W 9105   8.626   7.388  10.672 -0.0422 -0.1421 -0.3730
 5362W        W 9106   6.446   9.656   7.831 -0.0334  0.0445  0.1977
 5363W        W 9107   2.702   6.163   9.554  0.0099  0.3526  0.2240
 5364W        W 9108   4.559   9.749   3.089 -0.1106  0.1186 -0.1202
 5365W        W 9109   6.762   8.709   3.410 -0.1308  0.3326  0.3114
 5366W        W 9110   6.464   1.908   1.315  0.2511 -0.1721  0.0893
 5367W        W 9111   9.468   8.919  10.226  0.1083 -0.1084 -0.1477
 5368W        W 9112   4.348   5.482   0.388 -0.0629 -0.1838 -0.0839
 5369W        W 9113   0.899   7.030   3.036  0.0368 -0.1574 -0.1498
 5370W        W 9114   8.971   6.663   8.556  0.0892  0.3798 -0.1299
 5371W        W 9115   9.717   1.353  11.096  0.1791  0.1099  0.1284
 5372W        W 9116   9.997   5.991   1.393 -0.0925  0.2628  0.0514
 5373W        W 9117   2.305   3.792  10.166  0.0921  0.1048  0.5378
 5374W        W 9118   5.941   8.242   3.598  0.0420 -0.1222  0.1322
 5375W        W 9119   7.275   3.029   0.686  0.1770 -0.0982  0.1089
 5376W        W 9120   3.729   9.805  12.018 -0.0178  0.2334 -0.0082
 5377W        W 9121   3.308   6.376   7.961  0.1716  0.1889  0.0516
 5378W        W 9122   5.034   9.591   8.716 -0.2822  0.3204  0.0650
 5379W        W 9123   6.654   7.400   7.582 -0.0576  0.2663 -0.2614
 5380W        W 9124   0.133   7.903   1.341  0.3157 -0.2374 -0.1080
 5381W        W 9125   1.848   8.755  10.783  0.1524  0.1165 -0.1366
 5382W        W 9126   5.732   4.025   8.217  0.4932  0.0033  0.0086
 5383W        W 9127   0.609   6.465   2.385 -0.1370  0.6105  0.0331
 5384W        W 9128   9.915   0.082   3.822  0.0532 -0.1215  0.0515
 5385W        W 9129   9.354   3.618   8.920  0.1801  0.5281 -0.0149
 5386W        W 9130   0.500   6.666   9.146  0.3432  0.1781 -0.0137
 5387W        W 9131   5.863   9.246  11.754  0.0675  0.2709 -0.0643
 5388W        W 9132   1.544   7.317   0.272  0.0966 -0.2141  0.2275
 5389W        W 9133   0.009   7.832  11.243 -0.0161  0.0443 -0.1210
 5390W        W 9134   0.354   7.471   0.441  0.4587  0.2525 -0.0082
 5391W        W 9135   1.154   2.071  11.669  0.0564  0.0022  0.1152
 5392W        W 9136   7.229   4.495   8.441 -0.1774  0.0889 -0.0922
 5393W        W 9137   7.724   3.533   3.982  0.0766 -0.1743  0.0444
 5394W        W 9138   1.271   0.658   3.116 -0.0705 -0.0329 -0.1607
 5395W        W 9139   9.548   8.513  11.838  0.0283 -0.1983  0.1385
 5396W        W 9140   6.643   0.604   1.190 -0.0793  0.4440  0.1200
 5397W        W 9141   1.538   5.525   2.703  0.2535  0.2563  0.1522
 5398W        W 9142   9.572   5.482  10.302 -0.2010  0.1339 -0.1972
 5399W        W 9143   1.784   8.586   8.889  0.1194 -0.1000 -0.0172
 5400W        W 9144   8.490   2.434   9.114 -0.1676 -0.1318  0.2524
 5401W        W 9145   7.287   5.157   1.217 -0.0923  0.1123 -0.0643
 5402W        W 9146   2.354   3.374   9.450  0.3346  0.0959  0.1786
 5403W        W 9147   1.707   1.669   8.017 -0.1305  0.2890 -0.2416
 5404W        W 9148   0.449   1.485   1.462 -0.1292  0.0848 -0.3761
 5405W        W 9149   1.411   6.033   8.176 -0.1019 -0.2634  0.1506
 5406W        W 9150   4.248   9.381  11.070 -0.0661 -0.1431 -0.0657
 5407W        W 9151   6.803   6.623   9.209 -0.1121  0.4216  0.0456
 5408W        W 9152  10.023   4.557   0.171  0.3996  0.0315  0.0968
 5409W        W 9153   5.543   9.140  11.386 -0.1248 -0.1475 -0.2484
 5410W        W 9154   0.708   7.505   0.819 -0.1689  0.2587  0.2503
 5411W        W 9155   7.536   0.630   2.318 -0.1711 -0.0976  0.3302
 5412W        W 9156   6.457   8.838   7.599 -0.1855 -0.0735  0.2429
 5413W        W 9157   8.566   6.833   2.258  0.1268 -0.0224 -0.0031
 5414W        W 9158   7.703   8.256   1.784  0.0905 -0.1356 -0.0027
 5415W        W 9159   2.526   9.456   0.396 -0.0045  0.3730 -0.1840
 5416W        W 9160   6.123   4.241   2.718 -0.2683  0.0029 -0.2497
 5417W        W 9161   3.643   2.468   9.042 -0.1828  0.1357 -0.2096
 5418W        W 9162   4.899   9.736   1.743  0.0871 -0.4972 -0.0647
 5419W        W 9163   0.953   9.259   0.682 -0.1783  0.1614 -0.0262
 5420W        W 9164   2.643   0.344  11.672  0.0613  0.0635  0.0285
 5421W        W 9165   5.844   7.129  10.764  0.2669 -0.1286 -0.1835
 5422W        W 9166   2.263   6.753  10.706 -0.1725  0.1008 -0.0247
 5423W        W 9167   6.934   0.838  11.205  0.0754 -0.0811  0.0075
 5424W        W 9168   9.342   4.995   0.504 -0.0697 -0.1610  0.0460
 5425W        W 9169   1.132   1.413   2.630  0.3994  0.0346 -0.0034
 5426W        W 9170   1.867   4.355  10.041 -0.1731  0.1380  0.0842
 5427W        W 9171   1.647   4.144  10.538 -0.1109 -0.3319  0.0254
 5428W        W 9172   8.653   0.479   1.456  0.1207  0.0798  0.0377
 5429W        W 9173   6.458   3.305   8.445 -0.0100 -0.0719  0.0414
 5430W        W 9174  10.078   3.988   0.944 -0.0472 -0.1128  0.1811
 5431W        W 9175   8.445   4.126   8.518  0.0223  0.1127 -0.1182
 5432W        W 9176   5.448   3.268   1.629  0.0389 -0.3697  0.0753
 5433W        W 9177   4.705   4.650  10.172 -0.0300 -0.0377 -0.1952
 5434W        W 9178   1.842   5.345  10.468 -0.2429 -0.2013  0.2305
 5435W        W 9179   3.634   7.044   1.745 -0.2543  0.0552  0.1717
 5436W        W 9180   1.935   1.754  12.074  0.1972  0.1169 -0.0622
 5437W        W 9181   9.444   4.244   2.050  0.2280 -0.1020  0.0184
 5438W        W 9182   2.795   0.680   8.943 -0.1465  0.2272 -0.0506
 5439W        W 9183   0.614   2.312   2.518  0.0820  0.1048 -0.2018
 5440W        W 9184   2.652   7.365  11.785 -0.0456 -0.0885  0.2627
 5441W        W 9185   5.669   3.499   2.100 -0.2315 -0.4352 -0.2511
 5442W        W 9186   8.750   2.353   9.899 -0.1336 -0.3567 -0.1440
 5443W        W 9187   8.244   6.100  10.475 -0.0932  0.0679 -0.0615
 5444W        W 9188   6.375   4.278   9.006  0.0366  0.2620 -0.2303
 5445W        W 9189   2.680   1.328   1.119 -0.1028  0.2834  0.0734
 5446W        W 9190   5.975   7.423   8.992 -0.0256  0.0047 -0.1001
 5447W        W 9191   7.182   3.267   2.623 -0.1861 -0.0790  0.3669
 5448W        W 9192   6.581   9.004  11.272 -0.1111  0.1201  0.0820
 5449W        W 9193   3.751   2.038   0.130  0.0091 -0.1893  0.0062
 5450W        W 9194   8.338   2.202   9.552  0.2571  0.0340 -0.0889
 5451W        W 9195   6.921   9.815  10.607 -0.1131 -0.0538  0.0286
 5452W        W 9196   9.572   2.515  10.398  0.2957 -0.0102 -0.1371
 5453W        W 9197   6.365   5.207   6.988 -0.1385  0.1141  0.1979
 5454W        W 9198   3.939   3.182   1.300  0.1171 -0.3493 -0.0877
 5455W        W 9199   5.209   9.563   7.185 -0.4021  0.2957 -0.0143
 5456W        W 9200   2.699   8.810   9.349  0.0892 -0.0675  0.0147
 5457W        W 9201   7.814   5.882   0.087 -0.0139 -0.0743 -0.0716
 5458W        W 9202   8.455   9.575   0.695  0.0684 -0.2483  0.1636
 5459W        W 9203   6.356   1.952   0.157 -0.0553 -0.2789  0.0598
 5460W        W 9204   8.374   7.677   3.874 -0.0932 -0.1092 -0.3802
 5461W        W 9205   7.876   1.072   0.974 -0.0057 -0.3468  0.0535
 5462W        W 9206   0.449   9.972   9.424 -0.0102  0.2554 -0.0614
 5463W        W 9207   3.853   9.675   8.723  0.2723 -0.1169 -0.3217
 5464W        W 9208   7.577   6.651  10.550 -0.2360  0.0561 -0.0121
 5465W        W 9209   1.511   3.617   0.904 -0.2314  0.0048 -0.1498
 5466W        W 9210   8.946   6.473   0.577 -0.1110  0.1234  0.0209
 5467W        W 9211   2.988   1.850   2.193 -0.1951 -0.0520 -0.0619
 5468W        W 9212   6.034   1.149   0.180 -0.2523 -0.0278 -0.1340
 5469W        W 9213   3.594   8.836   2.695  0.1840 -0.2231 -0.1284
 5470W        W 9214   1.808   4.890   0.382  0.1282 -0.1711  0.1039
 5471W        W 9215   7.655   9.896   7.601  0.1916 -0.1310 -0.1623
 5472W        W 9216   1.228   8.260   1.294 -0.2743 -0.1362  0.2920
 5473W        W 9217   7.059   5.411   3.823  0.0540  0.1401  0.0377
 5474W        W 9218   8.577   6.000   2.929 -0.1001 -0.0194 -0.2145
 5475W        W 9219   6.836   6.301   8.790  0.0014 -0.2342  0.0608
 5476W        W 9220   8.386   9.504   2.071  0.1605 -0.0608  0.0046
 5477W        W 9221   1.188   9.087   0.095 -0.1653 -0.0553  0.1506
 5478W        W 9222   1.530   3.312   2.484  0.0122  0.0533 -0.1030
 5479W        W 9223   1.217   9.937  10.195 -0.1158 -0.0504  0.2099
 5480W        W 9224   1.992   4.162   9.202  0.0332  0.2011  0.3282
 5481W        W 9225   7.303   6.943   1.061  0.0181 -0.0081 -0.0507
 5482W        W 9226   0.685   4.743   9.172  0.3979 -0.2050  0.2736
 5483W        W 9227   5.906   7.487  10.403 -0.2768 -0.0582  0.0176
 5484W        W 9228   2.852   6.415   8.155  0.1680 -0.1395 -0.1189
 5485W        W 9229   3.178   2.808   9.018 -0.1288 -0.0493  0.0377
 5486W        W 9230   8.135   2.981   3.413  0.1942  0.0243  0.3240
 5487W        W 9231   7.272   0.257   1.971  0.2301 -0.3251 -0.2213
 5488W        W 9232   5.277   8.240   8.859  0.0717 -0.1587  0.0255
 5489W        W 9233   2.570   5.748   9.331 -0.1077  0.0509  0.0248
 5490W        W 9234   6.116   1.007   3.987  0.0510 -0.1779  0.2305
 5491W        W 9235   6.265   2.055   9.048 -0.1574  0.1291  0.0155
 5492W        W 9236   2.438   5.834   1.973  0.0806 -0.4429  0.0934
 5493W        W 9237   3.775   3.186   1.941  0.0293 -0.1287 -0.0078
 5494W        W 9238   7.016   3.664   1.749 -0.2096 -0.0164  0.2208
 5495W        W 9239   7.090   9.426   9.192 -0.0395 -0.3370  0.1316
 5496W        W 9240   9.424   9.314   8.831 -0.3627 -0.0197  0.1118
 5497W        W 9241   5.204   9.296   1.693 -0.0005  0.0421  0.2941
 5498W        W 9242   6.148   0.700   1.097 -0.1349 -0.1607 -0.0375
 5499W        W 9243   2.719   3.051  10.864 -0.0640 -0.1290  0.1241
 5500W        W 9244   8.963   3.799   3.713  0.1799  0.1991  0.1522
 5501W        W 9245   4.279   1.766   0.737  0.0809  0.0791 -0.0673
 5502W        W 9246   3.222   0.342   8.992 -0.4046  0.0958 -0.2447
 5503W        W 9247   9.175   0.112   9.432  0.1660  0.0219  0.0514
 5504W        W 9248   7.062   9.875  10.056 -0.0154  0.2541 -0.2521
 5505W        W 9249   3.206   3.749   1.651  0.2804 -0.0490  0.1066
 5506W        W 9250   9.510   7.459   8.976 -0.0717  0.1091 -0.0764
 5507W        W 9251   4.948   2.051   8.554  0.2095 -0.2219  0.4141
 5508W        W 9252   5.089   3.624   2.004  0.0520 -0.1476  0.0175
 5509W        W 9253   0.120   3.783   8.392  0.0207 -0.1780  0.0168
 5510W        W 9254   4.620   6.387   9.871 -0.0983 -0.0284  0.0919
 5511W        W 9255   9.505   2.273   1.036 -0.1027 -0.0250  0.2643
 5512W        W 9256   7.118   5.200   0.135 -0.2992  0.0323 -0.0273
 5513W        W 9257   2.928   1.132  11.282 -0.0327  0.0200  0.2726
 5514W        W 9258   0.604   0.544   1.424 -0.1795  0.1112  0.0324
 5515W        W 9259   7.351   6.027   1.987  0.0257 -0.1200 -0.1660
 5516W        W 9260   9.011   0.990   8.663  0.0044 -0.2059  0.2122
 5517W        W 9261   4.268   6.296   8.157  0.0699  0.0314  0.2408
 5518W        W 9262   9.039   7.256   1.602  0.2200  0.1566 -0.1323
 5519W        W 9263   5.555   5.189   9.420 -0.1893 -0.0551 -0.2287
 5520W        W 9264   0.311   9.961   3.563 -0.0015 -0.1065 -0.1339
 5521W        W 9265   0.634   0.238   9.681 -0.0080  0.1745 -0.0346
 5522W        W 9266   8.685   2.372   0.303 -0.0995  0.1774  0.3751
 5523W        W 9267   0.571   1.865   8.789 -0.0252 -0.0841 -0.0282
 5524W        W 9268   1.482   0.120   9.930 -0.0287 -0.0346  0.0688
 5525W        W 9269   2.028   5.535   2.701 -0.0290 -0.0549  0.2791
 5526W        W 9270   5.249   2.005   3.351 -0.4947 -0.0904  0.0224
 5527W        W 9271   6.951   2.931   1.043  0.2541  0.1485 -0.0267
 5528W        W 9272   3.561   5.191   0.273 -0.1471 -0.2206 -0.1663
 5529W        W 9273   6.385  10.142   9.402  0.0713  0.1432  0.1405
 5530W        W 9274   1.303   9.284  11.401 -0.0661 -0.2851 -0.0279
 5531W        W 9275   6.920   9.248   1.335  0.0597  0.3710 -0.0470
 5532W        W 9276   8.562   1.801  11.316 -0.0343 -0.0027 -0.1559
 5533W        W 9277   0.723   7.077   1.264  0.2243 -0.0436 -0.0228
 5534W        W 9278   2.167   1.264   0.757  0.0342  0.1118 -0.0297
 5535W        W 9279   7.971   0.322   8.406  0.1528  0.0583 -0.1233
 5536W        W 9280   1.753   0.002  11.829  0.0087  0.0888 -0.0301
 5537W        W 9281   5.448   6.588   8.545 -0.0557  0.1581  0.0001
 5538W        W 9282   1.903   2.446  12.174  0.2568 -0.1708  0.0197
 5539W        W 9283   2.610   8.929   8.865 -0.3530  0.2951  0.0709
 5540W        W 9284   1.274   3.588   8.496 -0.1028 -0.0048  0.0782
 5541W        W 9285   8.095   2.312   0.934  0.1907  0.2766 -0.3625
 5542W        W 9286   2.180   2.233   0.809 -0.1501 -0.1446  0.2200
 5543W        W 9287   7.967   3.516   9.297  0.0333 -0.0242  0.0877
 5544W        W 9288   1.798   0.351   8.187 -0.1554 -0.1714 -0.0828
 5545W        W 9289   2.934   0.884  10.825 -0.2448  0.0141 -0.7124
 5546W        W 9290   7.867   3.172   1.828 -0.1870  0.1382 -0.1825
 5547W        W 9291   2.568   8.937   3.214  0.2014 -0.1820  0.0379
 5548W        W 9292   8.940   3.466  10.700  0.1819  0.0117 -0.1348
 5549W        W 9293   8.232   4.726  11.624  0.2642 -0.0997 -0.2509
 5550W        W 9294   4.538   8.021   9.809  0.1475 -0.0396  0.1029
 5551W        W 9295   2.040  10.144   1.817  0.1837  0.1383  0.1046
 5552W        W 9296   1.005   5.105   9.038  0.4492  0.0547 -0.1602
 5553W        W 9297   8.384   4.514   9.097 -0.2494  0.0773 -0.2426
 5554W        W 9298   4.210   7.374   0.043 -0.1178 -0.0937  0.0948
 5555W        W 9299   7.847   8.361  11.080 -0.3894 -0.0184 -0.0217
 5556W        W 9300   6.244   1.575   7.429 -0.0347 -0.2136  0.0224
 5557W        W 9301   5.006   3.736  11.896 -0.1004  0.1394  0.0613
 5558W        W 9302   2.633   3.726   8.537 -0.0216  0.3023  0.0244
 5559W        W 9303   5.417  10.066   0.906  0.1267  0.2598 -0.1481
 5560W        W 9304   4.415   7.604   0.959 -0.7302  0.0779  0.2620
 5561W        W 9305   6.472   4.736   1.141 -0.1791  0.0505 -0.2889
 5562W        W 9306   4.648   1.688   8.728  0.0406  0.1825  0.0612
 5563W        W 9307   5.181   8.991   2.206 -0.1279  0.0901  0.2690
 5564W        W 9308   6.350   2.205   0.635  0.1447 -0.0317  0.2872
 5565W        W 9309   3.393   1.069  10.588  0.2816  0.1171 -0.3270
 5566W        W 9310   5.361   4.513  11.967  0.0030  0.2260 -0.0038
 5567W        W 9311   7.404   5.801  10.813 -0.2891 -0.1018  0.1064
 5568W        W 9312   4.102   7.888  10.610  0.0436  0.3830 -0.2909
 5569W        W 9313   8.271   2.433  10.090  0.0234  0.4480 -0.1600
 5570W        W 9314   4.160   1.138  11.190 -0.7419 -0.2091 -0.2907
 5571W        W 9315   0.769   6.794  12.095  0.1023 -0.1745 -0.2590
 5572W        W 9316   4.862   4.956   2.365 -0.2012 -0.0664  0.0884
 5573W        W 9317   5.946   1.047   8.163  0.1200  0.2237  0.2530
 5574W        W 9318   8.781   0.352  10.839  0.1374 -0.1831 -0.0213
 5575W        W 9319   9.413   4.348   8.370  0.1472 -0.4048 -0.1991
 5576W        W 9320   4.584   4.564   8.181  0.1631  0.2136  0.1818
 5577W        W 9321   0.297   5.650   9.038  0.0483 -0.2018 -0.0977
 5578W        W 9322   3.841   1.939  10.454 -0.1820 -0.1966 -0.3642
 5579W        W 9323   8.872   3.143   9.401 -0.2700 -0.2716  0.0454
 5580W        W 9324   8.947   9.420   1.495  0.0509  0.1649 -0.2868
 5581W        W 9325   6.223   0.402  12.040  0.1091  0.1370  0.1826
 5582W        W 9326   8.365   1.985   1.808  0.2136 -0.1065  0.2373
 5583W        W 9327   0.267   5.138   1.716 -0.0825 -0.1122 -0.2640
 5584W        W 9328   5.832   8.161  10.853 -0.0199  0.3000 -0.0192
 5585W        W 9329   2.337   0.436  10.157  0.0411  0.2819  0.1406
 5586W        W 9330   5.938   0.056   0.604  0.1549  0.1407  0.0632
 5587W        W 9331   6.326   9.598   2.054 -0.3463  0.3556  0.2651
 5588W        W 9332   3.592   6.818   8.831 -0.1596  0.0495  0.0541
 5589W        W 9333   1.960   8.459  10.326  0.2333  0.1217 -0.0304
 5590W        W 9334   6.409   7.579   0.858  0.2803  0.0742  0.3403
 5591W        W 9335   2.392   4.681   1.121 -0.1789  0.0153  0.1661
 5592W        W 9336   9.024   5.232   8.239  0.1479  0.2543 -0.0377
 5593W        W 9337   2.373   4.050   8.819 -0.1381 -0.2128 -0.1390
 5594W        W 9338   4.875   5.660  11.693  0.1999 -0.1917  0.1733
 5595W        W 9339   3.832   2.548   0.221  0.0870 -0.0840 -0.3569
 5596W        W 9340   8.130   8.596   9.038 -0.0907 -0.3295  0.0278
 5597W        W 9341   1.592   5.045  11.743  0.2149 -0.0817 -0.2354
 5598W        W 9342   5.119   6.501   0.086  0.0693  0.1020  0.0005
 5599W        W 9343   0.654   3.236   3.592 -0.0170  0.3013  0.0571
 5600W        W 9344   0.514   9.443   1.538 -0.0373  0.1031 -0.0709
 5601W        W 9345   9.787   7.419   8.564 -0.1349  0.3381  0.1332
 5602W        W 9346   6.934   7.617   0.591 -0.0354  0.0379  0.0625
 5603W        W 9347   6.978   3.546  11.575  0.0007  0.0679 -0.0074
 5604W        W 9348   0.554   5.922   7.969 -0.0477 -0.0673  0.1366
 5605W        W 9349   8.117   3.478   2.556 -0.1471 -0.0628  0.2616
 5606W        W 9350   0.692   5.575   9.644  0.3374  0.1597 -0.1676
 5607W        W 9351   7.737   0.964   7.405 -0.0573 -0.1034  0.0794
 5608W        W 9352   8.493   2.138   8.228  0.0968 -0.0913  0.4942
 5609W        W 9353   3.131   2.658  10.543 -0.1396  0.3374 -0.4472
 5610W        W 9354   1.600   1.922   2.556  0.4165  0.0268 -0.3192
 5611W        W 9355   5.960   5.473   1.956  0.2330 -0.0512 -0.0777
 5612W        W 9356   8.708   6.721   0.928  0.4670 -0.2797  0.0600
 5613W        W 9357   1.646   5.615   1.010 -0.2605  0.0653 -0.0932
 5614W        W 9358   8.933   2.829   2.726  0.2060  0.1157 -0.0774
 5615W        W 9359   4.065   4.205   9.702 -0.1549  0.0231 -0.0576
 5616W        W 9360   1.795   1.510  10.744 -0.0442 -0.0228  0.0157
 5617W        W 9361   5.039   6.773   8.237 -0.0647 -0.0330  0.2955
 5618W        W 9362   9.276   5.043   1.967 -0.0405 -0.1666 -0.0774
 5619W        W 9363   5.682   6.858   0.639  0.0695 -0.0365  0.1540
 5620W        W 9364   7.365   6.010   7.791  0.4361  0.3100  0.0316
 5621W        W 9365   6.618   8.048   2.613 -0.0284 -0.0204  0.0338
 5622W        W 9366   9.182   5.463   1.682  0.0259  0.3985  0.0135
 5623W        W 9367   5.936   7.289  11.278  0.1512  0.4447  0.1073
 5624W        W 9368   8.629   4.779  11.940 -0.3741  0.0230  0.0482
 5625W        W 9369   3.036   3.068   3.489 -0.1838  0.1173  0.3886
 5626W        W 9370  10.124   4.379   9.569  0.1918 -0.0255 -0.2307
 5627W        W 9371   2.740   1.866   2.645  0.3303 -0.1521  0.0664
 5628W        W 9372   9.503   4.951   7.995 -0.4115  0.1209  0.1190
 5629W        W 9373   2.680   3.062  11.600 -0.0828  0.1825  0.0956
 5630W        W 9374   2.340   9.398   3.346  0.1283 -0.3103 -0.2974
 5631W        W 9375   7.410   9.678   0.254 -0.1781 -0.1465 -0.0605
 5632W        W 9376   4.417   8.691   2.136 -0.0608 -0.0151  0.3093
 5633W        W 9377   7.374   2.126   9.889 -0.2237  0.3062 -0.1558
 5634W        W 9378   8.653  10.128   2.543 -0.1000 -0.1870  0.0947
 5635W        W 9379   8.458   3.472   8.598 -0.0416  0.1812  0.0108
 5636W        W 9380   7.103   1.072  10.718 -0.0322  0.0806 -0.3827
 5637W        W 9381   8.759   1.805   0.264 -0.0706 -0.1141  0.0916
 5638W        W 9382   6.455   5.994  11.285  0.1496  0.0098  0.0391
 5639W        W 9383   7.596   8.673   2.588 -0.1071 -0.0448  0.0659
 5640W        W 9384   4.213   0.134   1.421  0.1570 -0.0754  0.3681
 5641W        W 9385   3.519   2.637   8.519 -0.0107  0.4757 -0.0437
 5642W        W 9386   6.142   6.278   1.371 -0.1470 -0.4101  0.1255
 5643W        W 9387   8.906   4.449   0.764 -0.1157 -0.2251  0.1495
 5644W        W 9388   8.412   5.482   1.527 -0.3019 -0.0483  0.0481
 5645W        W 9389  10.047   2.710   9.076 -0.1240  0.0572  0.0239
 5646W        W 9390   9.305   7.793  10.753  0.2286 -0.1670 -0.0865
 5647W        W 9391   4.174   4.795   8.440 -0.0253  0.3033  0.1221
 5648W        W 9392   3.169   2.002   0.149  0.1179 -0.0989  0.0824
 5649W        W 9393   7.884   9.429  11.570 -0.1843 -0.1729 -0.2015
 5650W        W 9394   6.153   9.840   1.562  0.0271 -0.1455  0.1382
 5651W        W 9395   9.431   3.228   9.644 -0.2422 -0.0316 -0.1404
 5652W        W 9396   5.442   1.296   7.618 -0.1371  0.2757  0.0304
 5653W        W 9397   2.505   8.909   0.658 -0.1808 -0.0584 -0.0204
 5654W        W 9398   8.385   7.149   3.121  0.0092 -0.1939 -0.1551
 5655W        W 9399   3.246   1.320  10.167  0.1461 -0.0141 -0.0780
 5656W        W 9400   0.905   2.747  10.813  0.1235  0.0285 -0.1826
 5657W        W 9401   0.678   4.085  10.849 -0.0397 -0.1788  0.0416
 5658W        W 9402   9.780   7.555  11.438  0.1024 -0.1668  0.0493
 5659W        W 9403   4.835   5.519   0.502  0.0678 -0.0510 -0.0255
 5660W        W 9404   8.220   6.129   2.644  0.2447  0.1690 -0.1902
 5661W        W 9405   4.712   1.144   8.120 -0.1772 -0.0011  0.0241
 5662W        W 9406   1.496   3.620   3.776 -0.2378 -0.1115 -0.2934
 5663W        W 9407   8.813   2.701   2.277 -0.0722  0.1500  0.4275
 5664W        W 9408   9.756   1.750   0.628 -0.1151  0.2142 -0.0677
 5665W        W 9409   3.802   0.787  10.731 -0.4281  0.1303  0.0019
 5666W        W 9410   2.031   9.213  10.858 -0.0194  0.0208 -0.0270
 5667W        W 9411   6.549   8.786   9.244  0.2564  0.0622 -0.1546
 5668W        W 9412   1.317   5.046  10.414  0.1178  0.1359 -0.2508
 5669W        W 9413   0.110   9.989   2.583  0.0944 -0.2170 -0.1451
 5670W        W 9414   1.144   3.517   1.241 -0.3314  0.1624  0.0096
 5671W        W 9415   3.242   6.161  10.332 -0.2263 -0.1161 -0.1591
 5672W        W 9416   3.038   8.364  12.191  0.0816  0.1381 -0.0384
 5673W        W 9417   0.292   3.149   1.252  0.2389  0.2742 -0.1940
 5674W        W 9418   4.460   5.118   3.571 -0.2041  0.1634  0.0630
 5675W        W 9419   1.413   4.169   0.808 -0.0372  0.0704  0.0875
 5676W        W 9420   1.920   6.190  10.739 -0.0424 -0.0572  0.0875
 5677W        W 9421   5.662   5.881  11.823  0.0143  0.0050  0.0116
 5678W        W 9422   7.715   5.685   8.040 -0.2258 -0.0729  0.0877
 5679W        W 9423   3.671   9.061  10.986  0.2506  0.3489  0.3895
 5680W        W 9424   5.792   3.932  10.858  0.0204  0.1794  0.0666
 5681W        W 9425   1.585   7.208   2.254 -0.0727  0.1999  0.0663
 5682W        W 9426   5.155   0.650   8.948 -0.4538 -0.0883  0.1271
 5683W        W 9427   7.115   1.152   9.917 -0.3884 -0.0688  0.0528
 5684W        W 9428   6.682   2.028  10.560  0.0389 -0.0612 -0.1793
 5685W        W 9429   5.928   0.215   9.733  0.0818  0.2549  0.0727
 5686W        W 9430   2.183   7.153   8.165 -0.2046  0.0011 -0.1522
 5687W        W 9431   2.732   7.907  10.285  0.0239 -0.0949 -0.2076
 5688W        W 9432   4.036   0.654   3.030  0.3922  0.0650 -0.0297
 5689W        W 9433   4.438   7.635   2.068 -0.0067  0.3510 -0.0322
 5690W        W 9434   1.312   9.238   1.085 -0.1994 -0.2657  0.0717
 5691W        W 9435   6.648   2.939  10.310  0.1073 -0.0056 -0.5236
 5692W        W 9436   7.437   2.185   9.120  0.0953  0.1475 -0.1846
 5693W        W 9437   8.911   0.403  11.781  0.0857  0.1305  0.0951
 5694W        W 9438   4.237   3.702   8.463 -0.0544 -0.1726 -0.0198
 5695W        W 9439   0.946   5.261   8.374 -0.0887  0.0912  0.2516
 5696W        W 9440   0.917   2.679   2.688  0.0137  0.2854  0.0645
 5697W        W 9441   8.812   5.801  12.196  0.1191  0.1294  0.0806
 5698W        W 9442   0.133   6.100   0.267 -0.1702  0.2822  0.2185
 5699W        W 9443   5.935   6.725   8.768 -0.0277 -0.0091 -0.2416
 5700W        W 9444   3.747   7.923  12.010 -0.2808 -0.3194  0.1061
 5701W        W 9445  10.014   3.646   2.744  0.2857 -0.3352 -0.1827
 5702W        W 9446   6.042   2.537   9.612 -0.2160  0.1568  0.1709
 5703W        W 9447   5.011   8.376   1.537 -0.0246  0.2199  0.1471
 5704W        W 9448   8.371   4.649   8.573 -0.1767  0.1384  0.1484
 5705W        W 9449   0.149   6.662   2.500 -0.1086  0.0012 -0.1625
 5706W        W 9450   9.029   4.715   8.112 -0.3276  0.3086  0.1394
 5707W        W 9451   5.708   7.097  10.095  0.2911  0.0447 -0.3889
 5708W        W 9452   8.760   6.140   8.522  0.1939 -0.0565  0.3114
 5709W        W 9453   4.773   5.361  10.007  0.0892  0.0637 -0.1831
 5710W        W 9454   2.085   3.062   3.101  0.1908  0.0466 -0.1071
 5711W        W 9455   7.099   9.775  11.620  0.0591  0.0011 -0.1360
 5712W        W 9456   8.743   9.798  12.172 -0.0771 -0.0074 -0.1945
 5713W        W 9457   4.846   0.770   1.209 -0.0143  0.1947  0.4535
 5714W        W 9458   3.177   9.388  11.323  0.4207  0.3023  0.0107
 5715W        W 9459   7.625   6.525   3.130 -0.2104 -0.1551  0.0747
 5716W        W 9460   5.236   6.797  10.180 -0.0809  0.3591  0.2240
 5717W        W 9461   1.813   7.459   8.652  0.4994 -0.2452  0.0789
 5718W        W 9462   2.842   0.417  12.134  0.4434  0.2940 -0.1185
 5719W        W 9463   2.937  10.174   1.624  0.0372  0.0394 -0.0239
 5720W        W 9464   8.910   1.803   2.647  0.1606  0.0743  0.2176
 5721W        W 9465   0.064   8.954   3.428 -0.2342 -0.1025 -0.0038
 5722W        W 9466   8.750   1.908   7.861  0.0498 -0.4204  0.2039
 5723W        W 9467   7.424   7.111   1.497  0.0151 -0.1421  0.3033
 5724W        W 9468   3.072   3.311   2.254 -0.0613 -0.3632  0.1428
 5725W        W 9469   2.255   7.503   7.244 -0.2046 -0.1019 -0.0136
 5726W        W 9470   6.491   6.482  11.016  0.1109 -0.1598  0.0307
 5727W        W 9471   5.136   4.756   1.200 -0.0389 -0.0942  0.2101
 5728W        W 9472   4.139   3.297   3.218 -0.2438  0.1898  0.0117
 5729W        W 9473   3.822   1.051   2.177 -0.2095 -0.0760  0.1503
 5730W        W 9474   4.021   5.856   1.762 -0.2658  0.1461 -0.0773
 5731W        W 9475   7.102  10.057  12.041 -0.1324 -0.1116  0.0955
 5732W        W 9476   3.942   3.101  11.546  0.3964  0.2371 -0.2768
 5733W        W 9477   9.172   2.020   3.108  0.0114 -0.1801 -0.0976
 5734W        W 9478   1.982   8.567   2.328 -0.0988 -0.1992  0.0222
 5735W        W 9479   3.052   6.244   1.286 -0.2418 -0.3650 -0.1716
 5736W        W 9480   7.602   9.807  10.913 -0.1602  0.0705  0.1862
 5737W        W 9481   9.983   3.916   1.411  0.0213 -0.4458 -0.1345
 5738W        W 9482   1.172   0.020  10.858 -0.0115 -0.1708  0.0303
 5739W        W 9483   8.668   3.944  10.758 -0.2682 -0.0839  0.2732
 5740W        W 9484   9.893   1.603   3.667 -0.1564 -0.1301  0.1781
 5741W        W 9485   5.618   2.307   0.848  0.0115  0.0737  0.2692
 5742W        W 9486   4.655   3.337  10.468 -0.2179  0.2786  0.3009
 5743W        W 9487   8.839   2.559   8.491  0.3104 -0.1116 -0.1822
 5744W        W 9488   8.082   5.362   0.120  0.1407  0.0628  0.3398
 5745W        W 9489   2.510   1.857   8.643  0.0467  0.1699 -0.2560
 5746W        W 9490   3.097   1.902   1.678 -0.1149  0.2215 -0.2802
 5747W        W 9491   6.204   3.530   1.191  0.1415 -0.0523 -0.0137
 5748W        W 9492   1.871   3.631  11.064 -0.2962  0.1880 -0.0105
 5749W        W 9493   8.940   8.539   8.522  0.0101  0.0788 -0.1287
 5750W        W 9494   5.702   0.393  11.970  0.0684 -0.2151 -0.2512
 5751W        W 9495   0.689   9.105  12.119 -0.0570 -0.2815  0.0303
 5752W        W 9496   4.063   9.391  11.606 -0.2151 -0.0067  0.0687
 5753W        W 9497   4.869   3.809   1.585  0.0425  0.0783  0.1731
 5754W        W 9498   8.651   4.783   1.052 -0.0409 -0.0344  0.0428
 5755W        W 9499   6.490   3.798   4.063 -0.0652  0.0863  0.0236
 5756W        W 9500   4.335   6.714  11.663  0.0446 -0.0328  0.1497
 5757W        W 9501   2.095   7.472   9.573  0.0469  0.3189 -0.3265
 5758W        W 9502   6.447   5.436   2.056 -0.0227 -0.0246 -0.1017
 5759W        W 9503   5.157   7.486   9.593  0.2376  0.2285  0.0262
 5760W        W 9504   8.181   8.178   2.075  0.2712  0.1557 -0.2508
 5761W        W 9505   3.445   0.432  12.174 -0.0840  0.3597  0.2834
 5762W        W 9506   4.313   2.206  11.638  0.3923  0.0368  0.2937
 5763W        W 9507   9.143   1.408   1.406  0.4124  0.0023  0.0502
 5764W        W 9508   5.299   7.526   1.452 -0.3958  0.3810 -0.0452
 5765W        W 9509   4.785   1.053   9.051 -0.0425  0.1494 -0.2482
 5766W        W 9510   8.141   3.412  11.025  0.2625  0.2511  0.1265
 5767W        W 9511   0.862   1.182   1.832  0.1478 -0.0456 -0.0648
 5768W        W 9512   2.476  10.040  11.151  0.0977  0.2766  0.0013
 5769W        W 9513   2.028   8.186   1.980  0.2447 -0.1762  0.0221
 5770W        W 9514  10.054   8.595  11.959 -0.0539 -0.1710  0.0661
 5771W        W 9515   9.415   8.415   7.305  0.0301  0.0642  0.1064
 5772W        W 9516   7.068   5.172   7.703  0.1169  0.1301 -0.3146
 5773W        W 9517   1.868  10.102   0.813  0.4369 -0.2177  0.1685
 5774W        W 9518   0.515   4.621   1.535 -0.0183  0.2495 -0.2827
 5775W        W 9519  10.049   8.610   3.696 -0.1261 -0.1632 -0.3256
 5776W        W 9520   0.374   9.091  11.018 -0.0478  0.1018 -0.2239
 5777W        W 9521   9.641   3.490   9.311  0.0690  0.1235 -0.0307
 5778W        W 9522   6.145   5.310   2.455 -0.0385 -0.0888 -0.3777
 5779W        W 9523   6.539   6.726   7.843 -0.2272 -0.0074 -0.0973
 5780W        W 9524   4.962   2.947   7.791  0.1252  0.1224  0.0345
 5781W        W 9525   5.719   2.341  11.716 -0.1025 -0.2319  0.1596
 5782W        W 9526   9.341   9.418   3.387  0.2899 -0.1656  0.1770
 5783W        W 9527   3.943   6.636   0.100 -0.2708  0.1914  0.0492
 5784W        W 9528   4.059   9.908  11.634 -0.0894 -0.0650 -0.2396
 5785W        W 9529   2.334   6.915   2.593 -0.2032  0.0949 -0.0440
 5786W        W 9530   8.019   1.173   8.873 -0.3114 -0.2786  0.0575
 5787W        W 9531   0.969   9.682   8.163  0.2504  0.2474  0.0422
 5788W        W 9532   1.289   5.020   0.535 -0.1868  0.3610  0.2500
 5789W        W 9533   4.568   0.356  11.189  0.0360 -0.0622 -0.2325
 5790W        W 9534   4.735   4.198  11.841  0.0016  0.1700  0.0916
 5791W        W 9535   7.042   0.370   0.206  0.1508  0.0195  0.1810
 5792W        W 9536   0.396   2.743   0.545  0.0984  0.2441  0.0803
 5793W        W 9537   6.927   8.413   2.758 -0.0440  0.0718  0.0927
 5794W        W 9538   1.019   0.009   0.880 -0.2273 -0.1327 -0.0021
 5795W        W 9539   3.238   1.942   2.707 -0.3975 -0.0135 -0.2150
 5796W        W 9540   1.394   8.008   3.936 -0.1077 -0.0713 -0.2617
 5797W        W 9541   5.490   7.712  10.683 -0.1045 -0.2245 -0.1087
 5798W        W 9542   8.148   6.534   9.113 -0.3602 -0.1035  0.4031
 5799W        W 9543   2.992   5.845   9.006  0.4227 -0.0377  0.1972
 5800W        W 9544   4.678   4.397   2.471  0.4471 -0.0379  0.2023
 5801W        W 9545   9.104   0.201   3.331  0.0391  0.0244 -0.1180
 5802W        W 9546   9.011   5.991  11.402 -0.1172 -0.3442  0.1648
 5803W        W 9547   6.607   1.791   7.853  0.2791  0.2659  0.3307
 5804W        W 9548   5.082   4.136   1.998 -0.0907 -0.2131  0.0951
 5805W        W 9549   7.961   3.045   0.272 -0.3252 -0.0179 -0.3381
 5806W        W 9550   4.746   1.422  11.453 -0.1563  0.1977  0.1441
 5807W        W 9551   3.996   0.244   8.219 -0.0830  0.0186 -0.0894
 5808W        W 9552   5.017   3.900   2.986  0.0359 -0.0627 -0.1218
 5809W        W 9553   7.916   5.683  10.555 -0.0554  0.1436 -0.0416
 5810W        W 9554   9.681   3.797  11.754 -0.3326 -0.2514 -0.2069
 5811W        W 9555   1.333   6.493   8.903  0.1895 -0.0936  0.3960
 5812W        W 9556   2.525   8.294   1.192  0.2127  0.2245  0.0739
 5813W        W 9557   0.608   2.626   3.587  0.2378  0.1498  0.2355
 5814W        W 9558   2.428  10.101   9.807  0.0569  0.4308 -0.0863
 5815W        W 9559   9.721   3.746   0.041 -0.0218 -0.1939 -0.0712
 5816W        W 9560   8.645   5.492   0.345 -0.1099  0.0607 -0.1534
 5817W        W 9561   2.756   0.074  10.163  0.2316  0.0078  0.1720
 5818W        W 9562   7.539   6.679   9.418 -0.0208 -0.4066 -0.1819
 5819W        W 9563   9.771   7.005   9.019  0.2123 -0.1493  0.0575
 5820W        W 9564   7.503   2.499  10.844  0.0236 -0.0990  0.0277
 5821W        W 9565   7.823   8.791   0.530 -0.2371 -0.1967 -0.2522
 5822W        W 9566   0.526   6.435   2.995  0.1129 -0.1060  0.0212
 5823W        W 9567   0.230   1.381   9.734 -0.0896 -0.1069  0.2069
 5824W        W 9568   8.973   2.331   2.608  0.0748 -0.3949 -0.1242
 5825W        W 9569   2.904   0.636  11.299 -0.2371  0.0128  0.3298
 5826W        W 9570   0.046   2.112  10.984  0.5094  0.3648  0.0396
 5827W        W 9571   6.837   7.867   1.817 -0.0192  0.0983  0.1883
 5828W        W 9572   1.637   4.422  10.982 -0.2528 -0.0142 -0.1135
 5829W        W 9573   5.979   5.289  10.229 -0.0253  0.0050  0.2889
 5830W        W 9574   6.201   6.518   9.285 -0.1826  0.0265 -0.0972
 5831W        W 9575   6.050   0.297   1.412  0.1003  0.0669  0.2461
 5832W        W 9576   0.368   2.144   2.037 -0.0979 -0.0949 -0.1034
 5833W        W 9577   9.618   6.298   1.538  0.0601 -0.1470  0.2158
 5834W        W 9578   1.078   1.666   1.904 -0.2316  0.2277 -0.1588
 5835W        W 9579   2.411   2.405   0.136  0.2024 -0.2400 -0.0515
 5836W        W 9580   9.031   8.029   8.444  0.2744 -0.3370 -0.0994
 5837W        W 9581   7.830   4.566   1.993 -0.0960 -0.1776 -0.2720
 5838W        W 9582   7.919   7.718   0.210 -0.2006  0.0663  0.2317
 5839W        W 9583   9.700   4.291   1.640  0.0337 -0.1269  0.1132
 5840W        W 9584   4.025   6.030   9.129 -0.0174  0.0844 -0.1461
 5841W        W 9585  10.074   0.858  10.378  0.2922 -0.0042 -0.0559
 5842W        W 9586   4.469   6.772   8.124 -0.0230 -0.2547  0.1613
 5843W        W 9587   6.904   0.562   2.790 -0.2829  0.2630 -0.3381
 5844W        W 9588   7.264   1.385   9.433  0.2601 -0.2483  0.0180
 5845W        W 9589   4.513   7.706  11.558  0.1602 -0.2042  0.1194
 5846W        W 9590   7.706   2.424   2.400 -0.3406  0.0595  0.0122
 5847W        W 9591   1.524   8.709   2.102 -0.0037  0.0190 -0.1688
 5848W        W 9592   6.048   9.105   3.748 -0.1176  0.2320  0.3450
 5849W        W 9593   3.185  10.167  12.095  0.0927  0.1268 -0.1746
 5850W        W 9594   3.948   2.805   3.223  0.1727  0.2318 -0.0143
 5851W        W 9595   9.187   9.277   2.427  0.0914  0.0629  0.0834
 5852W        W 9596   1.794   6.198  11.566  0.1971  0.0543  0.0428
 5853W        W 9597   1.748   0.326   1.183  0.1453  0.1534  0.5278
 5854W        W 9598   7.205   0.568  10.540  0.1022  0.1554 -0.0608
 5855W        W 9599   4.726   0.151   2.563  0.0405 -0.1703  0.0391
 5856W        W 9600   9.876   8.657   9.229 -0.0169 -0.2134 -0.3178
 5857W        W 9601   5.020   2.195   2.610  0.0232 -0.2127  0.0688
 5858W        W 9602   9.872   5.892   3.053  0.0469  0.3314  0.0422
 5859W        W 9603   7.336   2.910   2.277 -0.0510 -0.1783 -0.0725
 5860W        W 9604   0.861   8.616   1.411  0.0356  0.1348  0.1637
 5861W        W 9605   6.239   2.229  11.585  0.2765  0.2998  0.1794
 5862W        W 9606   4.494   4.524   0.497  0.0961  0.0264 -0.0512
 5863W        W 9607   3.640   7.488   0.409 -0.2672 -0.1495  0.1150
 5864W        W 9608   2.964   4.077   3.248  0.2576  0.2723  0.2377
 5865W        W 9609   4.976  10.113   8.255 -0.4381  0.3936 -0.3999
 5866W        W 9610   1.684   6.080   1.817 -0.0390 -0.1068  0.3009
 5867W        W 9611   2.710   1.952   0.384 -0.0530 -0.3629 -0.1714
 5868W        W 9612   2.332   9.359   2.133  0.0009 -0.0760  0.2137
 5869W        W 9613   7.772   7.157  11.872  0.1106 -0.1502 -0.0293
 5870W        W 9614   7.222   7.993  11.365  0.3179 -0.0764  0.1163
 5871W        W 9615   8.836   5.945   9.380 -0.0331  0.1623 -0.0760
 5872W        W 9616   1.516   2.060   9.817 -0.0342  0.1329 -0.0263
 5873W        W 9617   1.050   2.894   9.422  0.0125 -0.0290 -0.0481
 5874W        W 9618   2.753   7.501   1.834 -0.1403 -0.1344  0.1792
 5875W        W 9619   3.835   1.432   8.483 -0.2693  0.2022  0.1406
 5876W        W 9620   7.684   1.084   8.335  0.2501  0.0375 -0.2339
 5877W        W 9621   1.844   3.881   0.668  0.1879  0.2483 -0.0648
 5878W        W 9622   4.098   3.264   8.136  0.2727  0.0237  0.1156
 5879W        W 9623   7.766  10.027   3.823 -0.1724  0.1788 -0.0983
 5880W        W 9624   9.277   8.432   3.022  0.0222  0.1726 -0.0561
 5881W        W 9625   1.477   8.648  12.193  0.3735 -0.0956 -0.0140
 5882W        W 9626   0.142   5.601   0.225 -0.3049 -0.0124 -0.1615
 5883W        W 9627   8.447   9.364   8.405  0.2116 -0.1675 -0.2544
 5884W        W 9628   8.896   0.732   1.848  0.1551 -0.3725 -0.0558
 5885W        W 9629   6.310   6.875   3.470  0.0392  0.4769  0.3017
 5886W        W 9630   2.374   4.366  11.415 -0.1413 -0.2689 -0.4642
 5887W        W 9631   7.292   9.288  11.601  0.1506 -0.0270  0.0359
 5888W        W 9632   8.902   8.651   9.024  0.1313  0.0492 -0.2757
 5889W        W 9633   3.506   6.391   1.400  0.1204  0.1352  0.0942
 5890W        W 9634   2.441   7.911   3.450  0.0451  0.0732 -0.3268
 5891W        W 9635   7.190   2.002   8.713 -0.3485 -0.2404  0.0788
 5892W        W 9636   1.801   9.595   1.780  0.0984 -0.1129  0.0150
 5893W        W 9637   5.428   5.871  10.375  0.1516  0.1598 -0.0726
 5894W        W 9638   3.857   7.487   1.720  0.1057 -0.0562  0.0417
 5895W        W 9639   1.227   8.242   9.658  0.1444  0.3089 -0.0131
 5896W        W 9640   8.370   6.746   1.831  0.1953  0.1087  0.0659
 5897W        W 9641  10.099   8.913   9.619 -0.2354 -0.1952  0.1654
 5898W        W 9642   1.267   3.155   3.742  0.1259  0.1092 -0.1718
 5899W        W 9643   8.755  10.054   9.058 -0.0287 -0.0885 -0.0039
 5900W        W 9644   1.575   8.765  10.351 -0.1218 -0.0223 -0.0032
 5901W        W 9645   4.833   9.871   2.689 -0.1336  0.2913 -0.0200
 5902W        W 9646   7.534   7.649   8.987 -0.2091 -0.1213 -0.2452
 5903W        W 9647   4.856   2.838  11.953 -0.0994 -0.0980 -0.0129
 5904W        W 9648   2.170   8.438   9.651 -0.0126  0.1666  0.2342
 5905W        W 9649   1.236   1.175   3.129  0.5016 -0.0944 -0.0724
 5906W        W 9650   0.908   9.765   1.699 -0.2548  0.1518 -0.2528
 5907W        W 9651   6.772   7.932  12.014  0.0773  0.3661  0.0918
 5908W        W 9652   9.632   9.176   0.561 -0.0966 -0.2994  0.0455
 5909W        W 9653   1.092   1.747  12.024 -0.1676 -0.0180 -0.0121
 5910W        W 9654   7.967   8.031   2.508  0.5634  0.1816 -0.2564
 5911W        W 9655   3.924   6.462  11.836  0.4390  0.3571 -0.0234
 5912W        W 9656   5.518  10.185   9.248 -0.2480 -0.1226 -0.4681
 5913W        W 9657   0.308   4.326   0.217 -0.0490  0.0636  0.3542
 5914W        W 9658   9.782   0.517   8.209 -0.4722  0.0234 -0.1884
 5915W        W 9659   5.991   5.171  11.924 -0.2210 -0.2656  0.1697
 5916W        W 9660   6.604   5.719   0.314 -0.0155  0.1618 -0.2711
 5917W        W 9661   1.174   7.428   0.683  0.0088 -0.0393 -0.2557
 5918W        W 9662   8.009  10.167  11.601 -0.0461  0.4390 -0.0074
 5919W        W 9663   2.575   7.125   9.656  0.2166 -0.2791 -0.1710
 5920W        W 9664   5.862   4.342   8.991 -0.0400  0.0086  0.2911
 5921W        W 9665   7.041   7.677   7.801 -0.0657  0.0586  0.2952
 5922W        W 9666   6.176   9.722  10.355  0.0320  0.0377  0.1828
 5923W        W 9667   4.221   3.769   9.890  0.1297  0.0269 -0.0488
 5924W        W 9668   5.384   9.794   8.051  0.1359  0.1829 -0.2894
 5925W        W 9669   9.071   0.532   3.880  0.1667 -0.0111 -0.1092
 5926W        W 9670   8.421   4.144   0.539 -0.0535 -0.0327  0.1551
 5927W        W 9671   3.006   0.913  10.296  0.0472  0.1160  0.1349
 5928W        W 9672   9.781   7.358   2.557  0.0203  0.1579  0.5870
 5929W        W 9673   3.012   7.950   2.027  0.1743 -0.1676 -0.3423
 5930W        W 9674   5.180   6.718   1.092  0.1085  0.1931  0.1113
 5931W        W 9675   0.617   6.849  10.707  0.2241 -0.0098 -0.3573
 5932W        W 9676   0.116   1.476   2.899  0.1242  0.0481  0.0459
 5933W        W 9677   8.841   3.256   8.022 -0.3067 -0.3589  0.1900
 5934W        W 9678   4.983   5.807   2.707 -0.0247  0.2147  0.0460
 5935W        W 9679   1.986   0.884  12.104 -0.0415  0.3288  0.0054
 5936W        W 9680   5.458   3.118   2.687  0.2243  0.0355  0.0161
 5937W        W 9681   2.201   5.185   2.041  0.1232  0.0798 -0.1099
 5938W        W 9682   2.592   4.976  11.462  0.0338  0.0005 -0.0027
 5939W        W 9683   7.755   5.991   7.499 -0.1732 -0.1453 -0.4239
 5940W        W 9684   0.592   6.761   8.116 -0.2517 -0.2310 -0.0221
 5941W        W 9685   9.808   0.508   3.435 -0.1466 -0.0252  0.1483
 5942W        W 9686   2.508   7.580   9.864  0.0352 -0.0002 -0.0764
 5943W        W 9687   3.501   7.752   2.344  0.2846  0.3714  0.1735
 5944W        W 9688   5.974   9.392  10.638 -0.1600 -0.2050  0.1658
 5945W        W 9689   4.742   5.108   0.997  0.0087  0.1582 -0.1623
 5946W        W 9690   2.511   8.334   7.398 -0.0867  0.0873  0.1338
 5947W        W 9691  10.166   2.906   2.975  0.1499  0.1921  0.1642
 5948W        W 9692  10.116   6.780   0.874 -0.1934  0.1532  0.0118
 5949W        W 9693   4.718   1.547   0.603  0.1662  0.0766 -0.2157
 5950W        W 9694   7.509   0.203   8.398  0.1562  0.3106 -0.0524
 5951W        W 9695   6.098   7.382   9.941  0.2741  0.0408 -0.4769
 5952W        W 9696   4.145   0.835   8.748  0.1850  0.0081  0.0921
 5953W        W 9697   7.198  10.118   0.659  0.3051 -0.0243  0.1203
 5954W        W 9698   5.320   1.020  11.911  0.2989 -0.1038 -0.0079
 5955W        W 9699   2.366   6.880   3.795  0.2217 -0.0285 -0.2573
 5956W        W 9700   7.150   5.317   8.630  0.1664 -0.0259  0.2071
 5957W        W 9701   0.348   1.502   3.565 -0.0946  0.0637  0.0322
 5958W        W 9702   2.509   9.223  10.683  0.0448  0.3138 -0.3393
 5959W        W 9703   6.215   7.420   2.961  0.1611  0.1275  0.0399
 5960W        W 9704   1.389   4.707   2.286 -0.0905  0.1344 -0.0760
 5961W        W 9705   9.193   1.687   9.436  0.1127 -0.3242  0.0992
 5962W        W 9706   7.679   5.395   8.840  0.2227  0.0297  0.1625
 5963W        W 9707   1.501   1.893  10.843 -0.1924 -0.0074  0.1305
 5964W        W 9708   5.081   7.955   1.204 -0.3219  0.0801 -0.2712
 5965W        W 9709   6.829   3.346  11.173  0.1588  0.1424  0.3569
 5966W        W 9710   2.477   3.200   2.187  0.2119  0.1156  0.1849
 5967W        W 9711   2.027   0.501  10.903 -0.0600  0.3167 -0.0340
 5968W        W 9712   1.940   8.076   4.136  0.0784 -0.0180 -0.0498
 5969W        W 9713   0.903   1.756  10.745  0.0405 -0.2234 -0.2354
 5970W        W 9714   7.117   3.644  12.036 -0.0380 -0.0013 -0.1456
 5971W        W 9715   4.160   0.869   2.567 -0.0552 -0.2069  0.1054
 5972W        W 9716   6.593   0.340   7.901 -0.0819 -0.0407  0.0828
 5973W        W 9717   0.699   5.264   2.763  0.1499 -0.1849  0.0333
 5974W        W 9718   1.333   8.884  10.878 -0.1774  0.2294  0.0468
 5975W        W 9719   6.799   1.971   3.374 -0.1478  0.0010 -0.0031
 5976W        W 9720   0.490   9.733   2.343  0.2248  0.4890 -0.0770
 5977W        W 9721   1.785   7.762   7.377 -0.0267  0.1084 -0.2313
 5978W        W 9722   5.476   3.644   8.474  0.2038  0.1795 -0.1044
 5979W        W 9723   2.845   9.302   0.843 -0.0470 -0.2108  0.0912
 5980W        W 9724   7.209   4.000   8.586 -0.0723  0.0150 -0.0508
 5981W        W 9725   8.474   6.706   0.172 -0.1151 -0.0468 -0.2047
 5982W        W 9726   5.065   2.732   0.833 -0.2243  0.1780 -0.2113
 5983W        W 9727   2.713   9.300   9.335 -0.1380 -0.2227  0.1587
 5984W        W 9728   0.412   8.115  11.461  0.1792  0.2342  0.1280
 5985W        W 9729   7.856   4.923   2.392 -0.2546 -0.0799 -0.2453
 5986W        W 9730   7.286   1.478   8.528 -0.1938 -0.2813 -0.2358
 5987W        W 9731   1.137   7.778  10.344  0.1487  0.0827  0.3051
 5988W        W 9732   8.998   3.177   2.294  0.2824 -0.0740 -0.1883
 5989W        W 9733   3.897   3.982   8.836 -0.3404  0.2746  0.0502
 5990W        W 9734  10.088   5.186   9.528  0.0781  0.0191  0.0179
 5991W        W 9735   6.426   4.652  11.368 -0.0386 -0.3169  0.2224
 5992W        W 9736   0.129   4.025  10.662 -0.0230 -0.1977  0.0342
 5993W        W 9737   8.061   0.709   1.391 -0.3355  0.3512 -0.1148
 5994W        W 9738   6.828   6.860  11.159  0.3656  0.0712  0.0336
 5995W        W 9739   2.542   2.181   1.165 -0.1239  0.3314 -0.1793
 5996W        W 9740   0.846   3.350   8.421  0.0019 -0.0745 -0.0878
 5997W        W 9741   3.743   1.794   2.412 -0.0495  0.1478 -0.1611
 5998W        W 9742   6.050   2.989   2.333 -0.0185  0.0989 -0.1470
 5999W        W 9743   5.964   9.887   2.046 -0.1380  0.2392  0.1234
 6000W        W 9744   8.870   1.066   9.470  0.1312 -0.0534 -0.1195
 6001W        W 9745   7.822   0.157   2.045 -0.1161  0.1064  0.2000
 6002W        W 9746   5.160   4.728   1.714 -0.0565 -0.0571 -0.0682
 6003W        W 9747   0.030   8.629   8.793  0.2355 -0.0943  0.1214
 6004W        W 9748   1.177   3.600   9.020 -0.2488 -0.1369 -0.3512
 6005W        W 9749   9.433   8.325   9.988 -0.0981  0.0232 -0.1644
 6006W        W 9750   9.536   2.436   8.112 -0.1317  0.0171 -0.2799
 6007W        W 9751   8.310   8.552  11.261  0.1770 -0.1687  0.2059
 6008W        W 9752   1.080   5.928   1.713 -0.0791  0.3915  0.0514
 6009W        W 9753   8.180   2.642   7.491 -0.1191  0.2510 -0.2128
 6010W        W 9754   3.467   2.909   0.210  0.0495  0.1858  0.0680
 6011W        W 9755   8.312   3.435   1.543 -0.3292  0.0400 -0.1695
 6012W        W 9756   7.931   8.524  11.657  0.1704 -0.4868 -0.4098
 6013W        W 9757   5.314   1.829   9.374 -0.1216 -0.4668 -0.2197
 6014W        W 9758   8.712   6.839   1.496  0.1237 -0.2819 -0.1078
 6015W        W 9759   0.872   0.524  10.478  0.1211  0.1305  0.1813
 6016W        W 9760   6.484   9.155   2.548  0.0996 -0.2963  0.2280
 6017W        W 9761   1.800   4.747  12.050 -0.5977  0.0292 -0.0875
 6018W        W 9762   8.856   4.189  11.250  0.0688  0.0831  0.0118
 6019W        W 9763   5.187   2.407   3.064 -0.0489 -0.5680  0.2291
 6020W        W 9764   2.718   2.752   2.549  0.1418 -0.3647 -0.0957
 6021W        W 9765  10.124   7.097   0.002 -0.2259 -0.2168  0.3522
 6022W        W 9766   0.146   0.813   8.751 -0.1068 -0.0301  0.1407
 6023W        W 9767   7.708   6.450   1.942 -0.2250  0.1966  0.2321
 6024W        W 9768   8.153   0.585   8.915 -0.1174 -0.2301  0.3450
 6025W        W 9769   9.164   6.889  11.842 -0.3150  0.0417  0.0283
 6026W        W 9770   0.133   1.784  10.486  0.4409  0.2011  0.0145
 6027W        W 9771   9.444   8.417   9.363 -0.2593 -0.3415  0.0105
 6028W        W 9772   8.335   6.264   3.774 -0.3944  0.0698 -0.0028
 6029W        W 9773   1.887   5.074   3.179  0.2731  0.5448 -0.2091
 6030W        W 9774   0.741   3.453   2.036  0.1469  0.2072  0.1120
 6031W        W 9775   9.914   9.169   1.383  0.0885  0.0161 -0.1200
 6032W        W 9776   4.720   3.824   9.768  0.0457 -0.2282 -0.2508
 6033W        W 9777   6.691   8.857  10.378 -0.1214  0.1381  0.0550
 6034W        W 9778   5.766   8.510   2.214  0.0822 -0.0941  0.1563
 6035W        W 9779   7.575   0.701   9.158 -0.2765 -0.1571 -0.0913
 6036W        W 9780  10.091   3.068   1.576 -0.2361 -0.2529 -0.1653
 6037W        W 9781   8.587   5.271   2.361  0.0404  0.3035  0.1036
 6038W        W 9782   0.593   6.323  10.661 -0.0591  0.0315  0.0288
 6039W        W 9783   7.649   7.404  10.166  0.0947  0.0838  0.0890
 6040W        W 9784   4.028   7.401   2.377 -0.3554 -0.1815 -0.1829
 6041W        W 9785   2.075   4.777  11.441 -0.2004 -0.2086 -0.2265
 6042W        W 9786   3.508   0.506   2.179  0.0881  0.1314  0.1241
 6043W        W 9787   9.171   8.121   3.379  0.0605 -0.0253 -0.5112
 6044W        W 9788   0.140   7.574  12.197  0.0749 -0.0135  0.0008
 6045W        W 9789   3.374   9.387   2.125 -0.0206 -0.0581 -0.0349
 6046W        W 9790  10.137   9.468   8.279 -0.1469 -0.0673 -0.0411
 6047W        W 9791   9.245   7.535   8.542  0.1939  0.1089 -0.1669
 6048W        W 9792  10.039   5.826   8.791 -0.2254 -0.2737  0.0268
 6049W        W 9793   7.619   5.123   7.779  0.0767 -0.0470  0.2106
 6050W        W 9794   8.197   5.928  11.465  0.1105 -0.1559 -0.1414
 6051W        W 9795   8.040   2.590   2.006  0.1128  0.2752  0.1958
 6052W        W 9796   0.857   6.269  10.095 -0.0717  0.0956 -0.1314
 6053W        W 9797   5.938   1.705  10.991  0.1031  0.1713  0.1490
 6054W        W 9798   5.096   0.933   7.879  0.0126  0.0743  0.1825
 6055W        W 9799   0.419   5.024   8.378  0.0232 -0.1688 -0.1548
 6056W        W 9800   4.041   7.819   0.220  0.0592 -0.2584 -0.1344
 6057W        W 9801   1.897   9.669   3.558  0.2087 -0.3171 -0.0577
 6058W        W 9802   3.572   0.892  11.900  0.1633  0.3527  0.0892
 6059W        W 9803   5.374   8.002   1.629  0.0482 -0.1508 -0.3901
 6060W        W 9804   5.287   9.455  11.685 -0.0855  0.0433  0.2036
 6061W        W 9805   5.516   4.210  10.481  0.1801 -0.1449  0.2422
 6062W        W 9806   7.609   5.999  11.808  0.0067  0.2065  0.0800
 6063W        W 9807   5.817   0.904  12.003 -0.0003  0.3023 -0.3550
 6064W        W 9808   7.061   7.296   1.886  0.1365  0.2096 -0.2800
 6065W        W 9809   2.566   6.404   1.878  0.0802 -0.1059 -0.1053
 6066W        W 9810   1.885   9.632   8.094 -0.0409 -0.1216 -0.1598
 6067W        W 9811   9.827   1.332   0.392  0.2835  0.0079 -0.0511
 6068W        W 9812   8.436   4.927  10.664 -0.1150 -0.1440  0.0816
 6069W        W 9813   0.239   6.136   8.766  0.0702 -0.0960 -0.4293
 6070W        W 9814   9.262   0.012  11.126 -0.0947  0.0372  0.1827
 6071W        W 9815   1.308   5.476  11.979  0.0200  0.1608  0.1124
 6072W        W 9816   8.063   1.277   9.823 -0.0698 -0.1529  0.1000
 6073W        W 9817   8.738   9.787   9.962 -0.2249 -0.1607 -0.1613
 6074W        W 9818   4.316   0.878   9.213 -0.0895 -0.2667  0.0599
 6075W        W 9819   1.362   0.058   2.334 -0.1646  0.1025 -0.1523
 6076W        W 9820   2.882   9.477   2.359  0.0701 -0.3023  0.0283
 6077W        W 9821   8.958   0.507   8.475 -0.0071 -0.0917  0.1784
 6078W        W 9822   7.596   3.149  10.094 -0.2142 -0.1684 -0.0741
 6079W        W 9823   3.566   7.246   2.187  0.0623  0.1453  0.1526
 6080W        W 9824   0.709  10.164   2.700  0.5551  0.1231  0.2606
 6081W        W 9825   7.284   2.078   2.699  0.0329 -0.1439 -0.3030
 6082W        W 9826   1.421   2.781   2.467  0.0879  0.3466 -0.2321
 6083W        W 9827   0.389   2.545  10.826  0.0017  0.0243 -0.0943
 6084W        W 9828   6.477   2.271   3.091  0.3083 -0.0184 -0.1243
 6085W        W 9829   0.928   7.493  10.818  0.0470 -0.1471  0.4316
 6086W        W 9830   0.044   9.428   1.654 -0.0449  0.1500  0.1445
 6087W        W 9831   0.177   2.808   8.096  0.0176  0.1633 -0.0127
 6088W        W 9832   6.527   9.475  10.045 -0.0424 -0.1700 -0.0840
 6089W        W 9833   4.426   7.879   8.694 -0.0308 -0.6275  0.0696
 6090W        W 9834   2.412   3.514   1.082 -0.0332  0.4018 -0.0650
 6091W        W 9835   5.333   7.817   3.035 -0.1271  0.2212 -0.2550
 6092W        W 9836   9.625   6.194   3.974 -0.1984  0.1089 -0.0190
 6093W        W 9837   6.521  10.104  11.214 -0.3177  0.0978  0.1692
 6094W        W 9838   5.922   4.986  11.448 -0.0217 -0.1156 -0.1432
 6095W        W 9839   6.217   5.151   2.916  0.0071 -0.2131  0.3137
 6096W        W 9840   6.201   7.603   7.633 -0.0359  0.2183 -0.0972
 6097W        W 9841   7.191   7.467  10.704  0.3122  0.0029 -0.1115
 6098W        W 9842   9.335   0.179   8.367  0.3374 -0.0223 -0.3240
 6099W        W 9843   1.649   0.956   2.118  0.1365 -0.0397  0.0720
 6100W        W 9844   1.889   0.773  10.478 -0.0376 -0.3099  0.0673
 6101W        W 9845   0.140   9.194   2.606  0.1097 -0.3297 -0.0267
 6102W        W 9846   0.877   7.979   7.850 -0.0780  0.2694 -0.1585
 6103W        W 9847   5.298   4.923   0.070 -0.0878 -0.0942 -0.0954
 6104W        W 9848   4.750   2.318  10.454  0.3025  0.0743 -0.0048
 6105W        W 9849   0.803   2.502  11.576 -0.0550  0.3860 -0.0709
 6106W        W 9850   7.167   7.023   9.552  0.0374 -0.1238 -0.2045
 6107W        W 9851   2.810   7.793   9.313 -0.0396 -0.1386 -0.1787
 6108W        W 9852  10.099   5.116   0.029 -0.0972 -0.0136 -0.3033
 6109W        W 9853   1.621   4.877   8.420  0.2209  0.2412  0.3698
 6110W        W 9854   8.979   7.065   8.188 -0.0935  0.0115 -0.1215
 6111W        W 9855   8.224   4.143   9.469  0.2370 -0.1455 -0.0459
 6112W        W 9856   7.344   0.142   9.221 -0.1746 -0.0272 -0.0744
 6113W        W 9857   9.809   6.963   8.435 -0.0762  0.1033 -0.3234
 6114W        W 9858   6.678   9.943   9.717 -0.1915  0.0944 -0.1422
 6115W        W 9859   3.743   4.792   9.161  0.2167 -0.0677  0.0299
 6116W        W 9860   0.608   7.585   7.861  0.0513 -0.2071 -0.0159
 6117W        W 9861   9.906   1.673   2.572  0.1398 -0.3307 -0.1647
 6118W        W 9862   7.757   9.487   1.437 -0.0357 -0.1313 -0.1191
 6119W        W 9863   3.560   1.008   1.220 -0.2417  0.1392 -0.1407
 6120W        W 9864   5.758   0.487   8.339 -0.0736  0.1617 -0.1024
 6121W        W 9865   3.777   8.838  10.302  0.0880  0.0931 -0.5761
 6122W        W 9866   2.787   3.212   2.631 -0.0703 -0.1276 -0.0917
 6123W        W 9867   5.966   4.483  11.267 -0.1708  0.1869 -0.0715
 6124W        W 9868   5.047   3.472  10.776 -0.1439  0.1697 -0.0242
 6125W        W 9869   7.660   7.058   3.869  0.0524 -0.1651 -0.5065
 6126W        W 9870   5.469   8.426   1.256  0.1086  0.6487 -0.0345
 6127W        W 9871   1.897   5.746  11.084  0.2399 -0.1344  0.0045
 6128W        W 9872   2.272   7.336   2.930 -0.0925 -0.1215 -0.0595
 6129W        W 9873   9.486   6.324   4.493 -0.0291 -0.1354 -0.0827
 6130W        W 9874   8.705   1.073  10.692 -0.0531 -0.0785  0.2089
 6131W        W 9875   5.943   2.807   4.144  0.2425 -0.3807 -0.0229
 6132W        W 9876   6.487   4.242   3.068  0.1803 -0.0571 -0.1074
 6133W        W 9877   0.274   2.507   3.237 -0.0235  0.1215  0.1751
 6134W        W 9878   7.446   8.990  10.468  0.3849  0.3273 -0.0317
 6135W        W 9879   9.242   0.571   1.025  0.1287  0.2037  0.1472
 6136W        W 9880   9.409   0.481   8.728 -0.0356 -0.0601 -0.0614
 6137W        W 9881   4.992   0.088   8.889  0.0644 -0.0365 -0.1095
 6138W        W 9882   7.039   9.386  10.261 -0.1409  0.0032  0.2390
 6139W        W 9883   2.333   0.878   3.393  0.3377 -0.0796  0.1988
 6140W        W 9884   9.727   8.712   1.509 -0.0536  0.2055 -0.0964
 6141W        W 9885   0.925   2.968  10.366 -0.1388  0.3317 -0.1471
 6142W        W 9886   4.032   7.028   8.958 -0.1865  0.1191 -0.1210
 6143W        W 9887   5.623   0.675   2.394  0.0013 -0.0656 -0.0598
 6144W        W 9888   5.044   0.663   2.107  0.0884  0.1020  0.1765
 6145W        W 9889   6.317   2.132   9.573 -0.1010 -0.4216  0.1822
 6146W        W 9890   3.784   4.847   8.155 -0.2578  0.0001 -0.0747
 6147W        W 9891   3.352   9.700   8.650  0.0310 -0.0280  0.0890
 6148W        W 9892   9.045   6.638   2.340  0.0954 -0.0864  0.0152
 6149W        W 9893   4.427   5.667   2.626 -0.0049  0.0334  0.2784
 6150W        W 9894   9.737   5.881  11.449  0.0599 -0.2765  0.2449
 6151W        W 9895   0.126   9.427   3.742  0.1664 -0.1089 -0.0168
 6152W        W 9896   3.319   6.502   8.488 -0.1374  0.0918  0.0160
 6153W        W 9897   9.580   7.079  12.156  0.1349  0.1549 -0.0496
 6154W        W 9898   6.998   4.507   1.873  0.1551  0.0201  0.3546
 6155W        W 9899   7.454   5.314  10.606  0.0460  0.3571  0.0932
 6156W        W 9900   5.193   7.251   8.290 -0.0747  0.0548 -0.1197
 6157W        W 9901   0.233   7.371  10.343 -0.2758 -0.1889 -0.0736
 6158W        W 9902   4.210   3.072  10.190  0.1947  0.2838 -0.1314
 6159W        W 9903   0.024   3.078  11.285 -0.3076  0.1525  0.6278
 6160W        W 9904   0.327   1.398  11.526  0.2190  0.1049 -0.0746
 6161W        W 9905   0.307   2.313   0.846 -0.1948  0.1312  0.0523
 6162W        W 9906   9.285   2.406   9.973 -0.1678  0.0615  0.0650
 6163W        W 9907   3.294   7.088   0.023  0.1246 -0.1328  0.3262
 6164W        W 9908   2.476   0.042   1.537 -0.3216 -0.1547  0.0097
 6165W        W 9909   0.393   4.905   2.930  0.2859 -0.3314 -0.1200
 6166W        W 9910   6.154   5.630   8.467  0.0820  0.3964 -0.0983
 6167W        W 9911   7.048   4.308   2.921  0.0475 -0.3316 -0.0921
 6168W        W 9912   9.598   2.083   0.049  0.2532 -0.0445 -0.0071
 6169W        W 9913   2.031   3.622   3.901 -0.2846  0.2795 -0.0583
 6170W        W 9914   4.235   9.860  10.676 -0.1942  0.0189  0.0706
 6171W        W 9915   0.450   5.982   9.330  0.1764  0.3389 -0.1202
 6172W        W 9916   2.272   1.941   9.890 -0.0872 -0.1380 -0.0998
 6173W        W 9917   7.002   8.597   7.557  0.2555  0.1569  0.2558
 6174W        W 9918   9.983   6.134  10.146 -0.0724  0.1394  0.1932
 6175W        W 9919  10.052   8.909   2.242  0.1760 -0.3379  0.0756
 6176W        W 9920   6.958   1.944  10.156 -0.2060  0.0939 -0.0406
 6177W        W 9921   8.534   2.415   1.933 -0.1906  0.0020  0.1913
 6178W        W 9922   5.021   7.130   0.905 -0.0067 -0.2861 -0.0360
 6179W        W 9923   1.941   1.733   0.676  0.0714 -0.1141  0.0723
 6180W        W 9924   2.422   7.220  10.976  0.0844 -0.0652 -0.0877
 6181W        W 9925   1.051   6.479   9.356 -0.2987 -0.2396 -0.1603
 6182W        W 9926   6.794   9.270  11.749  0.1249  0.0639  0.0104
 6183W        W 9927   3.947   3.499   0.510 -0.0058 -0.0527  0.2591
 6184W        W 9928   3.472   8.411   9.897  0.0836 -0.1043  0.2089
 6185W        W 9929   1.737   2.444   2.724  0.0942  0.0246 -0.0107
 6186W        W 9930   4.251   7.611   3.131  0.2711  0.2228  0.1719
 6187W        W 9931   2.105   0.073   3.039  0.2341  0.0804  0.1852
 6188W        W 9932   1.491   7.208   1.101  0.0211 -0.0734  0.2535
 6189W        W 9933   7.140   2.260  10.541  0.1865  0.0349  0.2081
 6190W        W 9934   5.850  10.096  11.062  0.2062 -0.0726  0.0632
 6191W        W 9935   9.884   6.989   9.625 -0.1985  0.1322 -0.0262
 6192W        W 9936   5.303   9.024   8.701 -0.1612  0.4813 -0.1464
 6193W        W 9937   4.443  10.080   1.801 -0.2243  0.0685  0.2106
 6194W        W 9938   6.465   5.637  10.370  0.1169  0.0883 -0.2538
 6195W        W 9939   5.926   7.688  11.042 -0.0565 -0.3448 -0.1966
 6196W        W 9940   4.322   3.602   7.849 -0.0241 -0.1721 -0.1552
 6197W        W 9941   5.677   4.877   0.739 -0.2601  0.0999 -0.0914
 6198W        W 9942   2.520   5.078   9.939  0.2634  0.0155 -0.0831
 6199W        W 9943   1.004   3.412  10.562  0.3251  0.1014 -0.3017
 6200W        W 9944   8.213   8.770   3.100  0.1197 -0.0061  0.1866
 6201W        W 9945   7.312   8.467   3.197  0.0520 -0.2172 -0.0521
 6202W        W 9946   1.438   7.425  10.543  0.1920  0.1446 -0.1849
 6203W        W 9947   0.998   8.078  10.781  0.0124  0.3165  0.3109
 6204W        W 9948   8.671   5.031   3.299 -0.0454 -0.0224  0.1772
 6205W        W 9949   5.746   9.991  10.068 -0.1453 -0.3169 -0.0677
 6206W        W 9950   1.305   8.753   8.923 -0.1359 -0.1879  0.0346
 6207W        W 9951   4.373   3.034  11.328  0.1441 -0.0588 -0.1949
 6208W        W 9952   2.443   1.546   0.481  0.1121 -0.1692  0.0347
 6209W        W 9953   6.447   1.583   8.639  0.0836  0.0809 -0.0056
 6210W        W 9954   2.975  10.107   0.341 -0.1466  0.1744  0.1944
 6211W        W 9955   7.488   3.577  10.381  0.0918 -0.0946  0.0252
 6212W        W 9956   8.444   3.489  10.607 -0.2249 -0.3638  0.2151
 6213W        W 9957   0.305   2.977   3.350 -0.2614  0.1726  0.1479
 6214W        W 9958   8.312   9.585  10.125 -0.2317  0.2312 -0.1041
 6215W        W 9959   3.682   5.663  12.162 -0.0833  0.1388 -0.0002
 6216W        W 9960   6.325  10.005   8.923  0.1415  0.4048  0.0680
 6217W        W 9961   4.479   6.005   0.410 -0.0666 -0.2576  0.3495
 6218W        W 9962   7.113   9.141   8.122 -0.1509  0.0583 -0.0419
 6219W        W 9963   1.032  10.167   8.908 -0.0955  0.0823 -0.1110
 6220W        W 9964   5.988   2.240  12.136  0.3236 -0.0126 -0.0068
 6221W        W 9965   6.566   4.761   9.041  0.1787 -0.0408  0.0495
 6222W        W 9966   0.993   9.287   1.558  0.0876 -0.0464 -0.0665
 6223W        W 9967   5.021   3.250   8.567 -0.0876 -0.1125  0.3029
 6224W        W 9968   6.213   4.940   0.123  0.2463 -0.0951 -0.0060
 6225W        W 9969   8.764   5.345  11.993  0.0261  0.2355  0.3041
 6226W        W 9970   7.742   1.093   1.993 -0.1105 -0.0765 -0.0597
 6227W        W 9971   8.657   9.861   1.478  0.2154 -0.1147 -0.1166
 6228W        W 9972   9.370   7.714  11.254 -0.0796  0.1234  0.0050
 6229W        W 9973   6.788   0.749   7.669 -0.2835 -0.1864 -0.3196
 6230W        W 9974   1.938   3.787   0.113  0.0767 -0.3640 -0.0724
 6231W        W 9975   7.125   3.220  10.347  0.1277  0.1888  0.1710
 6232W        W 9976   1.181   4.852   9.832 -0.0405 -0.1760  0.2211
 6233W        W 9977   3.572   5.916   8.468 -0.0457  0.0374 -0.0153
 6234W        W 9978   4.478   8.752  11.953 -0.0996  0.1463  0.1305
 6235W        W 9979  10.090   8.385   2.400 -0.1054 -0.0350 -0.3272
 6236W        W 9980   1.034  10.001   7.738 -0.1922  0.0831 -0.0469
 6237W        W 9981   6.587   5.663  11.692  0.1730 -0.1643  0.1725
 6238W        W 9982   3.794   7.438  10.148  0.2397 -0.2755 -0.0224
 6239W        W 9983   5.582   0.999  10.610 -0.0108  0.0273 -0.0883
 6240W        W 9984   2.193   6.403  10.349  0.0870 -0.1303 -0.0056
 6241W        W 9985   3.329   9.539   0.859  0.0409  0.1069  0.1487
 6242W        W 9986   9.528   8.907   1.070 -0.1022 -0.0367  0.2354
 6243W        W 9987   8.558   5.191  11.488 -0.0726 -0.0028  0.0896
 6244W        W 9988   1.709   3.174   3.450 -0.1283 -0.1548 -0.0668
 6245W        W 9989   1.489   1.208   3.927 -0.2159 -0.3370  0.0692
 6246W        W 9990   8.443   7.568   0.254  0.1956 -0.1639  0.0718
 6247W        W 9991   2.330   1.488  10.047  0.2582  0.1296  0.1402
 6248W        W 9992   8.985   6.422   9.558 -0.1869 -0.6330 -0.1467
 6249W        W 9993   2.020   4.439   0.830  0.0326 -0.1820  0.1377
 6250W        W 9994   5.238   2.950   0.045  0.0268  0.0748 -0.1367
 6251W        W 9995   7.203   6.485  11.930 -0.0093 -0.3686 -0.0980
 6252W        W 9996   0.644   2.628   9.465 -0.1699  0.0815 -0.0069
 6253W        W 9997   6.273   0.697   1.576  0.0406 -0.0564 -0.0974
 6254W        W 9998   3.072   5.405  10.618  0.0592 -0.2198  0.2879
 6255W        W 9999   6.548   4.070  10.333  0.1214  0.2879  0.4696
 6256W        W10000   6.811   4.585  11.732  0.3262  0.3488 -0.1164
 6257W        W10001   2.048   2.401   8.302  0.0498  0.1278 -0.1372
 6258W        W10002   0.707   6.254   9.002  0.1159  0.1505  0.0127
 6259W        W10003   9.110   0.839   1.414  0.3076 -0.0699 -0.1386
 6260W        W10004   6.374   3.397   3.671 -0.0674 -0.0855 -0.0190
 6261W        W10005   5.697   7.637   1.698 -0.3074  0.1333  0.4198
 6262W        W10006   7.634   6.116   1.555  0.1526 -0.1300  0.0391
 6263W        W10007   3.758   8.832   0.058  0.2657 -0.1394 -0.0523
 6264W        W10008   3.368   9.690  10.426 -0.3057  0.2410 -0.3581
 6265W        W10009   8.817   7.327   1.062  0.2654 -0.1698 -0.0778
 6266W        W10010   6.389   7.217   8.044  0.2568 -0.3507 -0.1431
 6267W        W10011   6.985   4.298   9.305  0.2451  0.0471 -0.3447
 6268W        W10012   7.287   4.479  11.529  0.1289 -0.1199 -0.0458
 6269W        W10013   6.224   3.457   2.175  0.1573  0.2436  0.0140
 6270W        W10014   1.896   6.529  11.180  0.0219 -0.0679  0.1633
 6271W        W10015   9.795   3.060  10.505 -0.0956  0.1382 -0.3291
 6272W        W10016   8.071   0.666   2.202  0.2659  0.1717 -0.1589
 6273W        W10017   2.949   2.631   0.958  0.1337 -0.0514 -0.1007
 6274W        W10018   2.114   4.366   0.002  0.1586 -0.3053  0.1717
 6275W        W10019   4.953   9.826  11.442 -0.2522  0.0987  0.0569
 6276W        W10020   6.843   9.981   2.430 -0.0518 -0.0575  0.3800
 6277W        W10021   8.637   8.451   0.030 -0.0643 -0.5225 -0.1437
 6278W        W10022   9.365   0.668   1.964 -0.0066 -0.3265  0.1576
 6279W        W10023   6.426   9.402   1.544 -0.3792 -0.2358  0.1963
 6280W        W10024   0.547   6.954   2.711  0.0097  0.2184  0.2898
 6281W        W10025   5.940   6.037   9.396 -0.0670  0.0181 -0.0104
 6282W        W10026   0.197   0.447   9.874  0.0745  0.2515  0.0830
 6283W        W10027   5.043   3.965  10.774  0.0030  0.1596  0.1546
 6284W        W10028   8.944   3.044   0.868  0.0230  0.1508 -0.0267
 6285W        W10029   9.332   6.747   8.252 -0.3806 -0.2832 -0.0262
 6286W        W10030   0.182   8.178  12.057  0.0472 -0.1326 -0.1488
 6287W        W10031   0.010   4.843   0.940 -0.2329 -0.2096 -0.2348
 6288W        W10032   4.942   1.216   7.508  0.2021 -0.2560  0.2014
 6289W        W10033   8.941   2.923  10.743 -0.3873  0.3008  0.2212
 6290W        W10034   5.657   4.090  12.193  0.1869 -0.0814 -0.2708
 6291W        W10035   8.130   6.869   8.623  0.0006 -0.1713  0.0927
 6292W        W10036   6.277   8.065  11.059 -0.1785  0.1283  0.1626
 6293W        W10037   3.656   2.638   2.791  0.2676 -0.1395 -0.3553
 6294W        W10038   6.990   9.451   9.689  0.1202 -0.1770  0.4320
 6295W        W10039   3.956   8.547   0.932  0.3322 -0.1935 -0.1241
 6296W        W10040   8.720   6.238  10.322 -0.1867  0.0994  0.1223
 6297W        W10041   6.894   0.558  11.909  0.0137  0.0851  0.2024
 6298W        W10042   7.015   4.777   2.705 -0.5006  0.0046  0.3195
 6299W        W10043   0.409   4.917  10.756 -0.0943 -0.0259  0.0658
 6300W        W10044   3.470   5.730  10.431 -0.1386  0.2322  0.0539
 6301W        W10045   5.439   7.018   9.672 -0.1426 -0.0198 -0.1276
 6302W        W10046   3.316   6.937   3.567  0.1330  0.0670 -0.0620
 6303W        W10047   3.714   5.864   1.326  0.2937  0.0843 -0.1392
 6304W        W10048   9.541   4.695   1.299 -0.0844 -0.1355 -0.4982
 6305W        W10049   4.745   9.537   0.784 -0.1970 -0.0841 -0.0507
 6306W        W10050   8.921   6.913   3.336  0.0328  0.1070  0.2295
 6307W        W10051   1.748   3.807  11.829 -0.1384 -0.0406  0.2008
 6308W        W10052   0.924   1.144   0.553 -0.3311 -0.2491 -0.3004
 6309W        W10053   4.465   5.619   1.773 -0.1440  0.0433  0.0854
 6310W        W10054   7.217   6.495   0.784 -0.0987  0.1898 -0.0640
 6311W        W10055   6.372   4.920   7.906  0.0298 -0.2872  0.1040
 6312W        W10056   3.958   0.432   1.811  0.0022  0.1489 -0.0738
 6313W        W10057   8.629   0.384   9.915  0.1308  0.0652 -0.0299
 6314W        W10058   5.061   2.431   9.606  0.1494  0.1134  0.0108
 6315W        W10059   6.432   0.988   8.018  0.1747  0.2338  0.1730
 6316W        W10060   0.375   3.809  11.131 -0.0517 -0.1022 -0.0785
 6317W        W10061   5.655   8.671   8.635 -0.0281  0.1162  0.3544
 6318W        W10062   0.837   5.558   0.005  0.1252  0.0713 -0.0670
 6319W        W10063   9.476   0.410   0.558 -0.1824 -0.0357  0.0515
 6320W        W10064   0.979   5.632   2.351 -0.1105  0.1685  0.0571
 6321W        W10065   5.910   7.828   9.315  0.3926  0.0598 -0.1205
 6322W        W10066   9.250   5.473  12.101 -0.1300 -0.0539 -0.1337
 6323W        W10067   4.682   7.630  10.411  0.2137  0.0411  0.1892
 6324W        W10068   6.310   5.461   0.628  0.1260 -0.0671  0.0821
 6325W        W10069   8.022   6.801   3.035  0.2168 -0.0102 -0.1980
 6326W        W10070   6.887   4.707   0.838 -0.0942 -0.0204 -0.0488
 6327W        W10071   1.585   3.552   1.931  0.0581 -0.2431 -0.2064
 6328W        W10072   3.315   3.864   0.029 -0.0692  0.0927  0.0968
 6329W        W10073   4.065   4.398   2.538  0.1650 -0.1061  0.1631
 6330W        W10074   5.702   5.792   3.723 -0.2314  0.3096 -0.2041
 6331W        W10075   8.941   7.388   8.997  0.0770  0.0734  0.1753
 6332W        W10076   0.739   0.663   1.938  0.0491 -0.0919  0.1079
 6333W        W10077   4.920   7.677   7.191  0.0198 -0.3162  0.3451
 6334W        W10078   9.635   5.193  11.985  0.1889 -0.0776  0.0216
 6335W        W10079   9.197   3.683   9.504  0.1929  0.2107 -0.2026
 6336W        W10080   7.737   8.091  11.636  0.2214  0.0445  0.3536
 6337W        W10081   3.851   6.141   0.021  0.2461 -0.1282  0.1280
 6338W        W10082   4.162   8.605   7.730 -0.2680  0.1228  0.0509
 6339W        W10083   7.114   9.288   7.083 -0.0904 -0.1757  0.2508
 6340W        W10084   3.426   7.296   9.635  0.0876  0.1771 -0.3153
 6341W        W10085   8.167   3.550   2.008 -0.0258  0.2056 -0.0198
 6342W        W10086   3.731   6.949   9.853  0.0757 -0.0850 -0.0597
 6343W        W10087   9.403  10.021  11.593 -0.2080  0.1447  0.1866
 6344W        W10088   4.889   0.932  11.696  0.0354 -0.3516 -0.3879
 6345W        W10089   6.773   5.564   8.390  0.0171  0.1090  0.3256
 6346W        W10090   3.477   0.481   8.548  0.0339  0.0457  0.0571
 6347W        W10091   9.539  10.065   0.402  0.3367 -0.0412  0.2817
 6348W        W10092   7.322   1.242   3.240 -0.0513  0.0960  0.1064
 6349W        W10093   1.141   9.572   0.300  0.2022  0.1255 -0.2128
 6350W        W10094   2.715   1.769   1.383 -0.1695  0.1113 -0.0145
 6351W        W10095   2.533  10.089   7.514  0.0305 -0.0652 -0.0778
 6352W        W10096   2.945   4.334  10.715  0.0941  0.1396  0.1294
 6353W        W10097   2.286   2.130  11.992 -0.1244  0.0532 -0.0507
 6354W        W10098   3.477   6.953   3.098 -0.2800 -0.1449  0.2468
 6355W        W10099   0.805   0.399   3.011 -0.1464  0.1611  0.0959
 6356W        W10100   9.349   9.663   2.133  0.0086  0.0840  0.1234
 6357W        W10101   1.883   8.400   0.118 -0.0351  0.1091  0.2472
 6358W        W10102   6.832   3.002   8.237 -0.1726  0.1588  0.0678
 6359W        W10103   1.890   5.348  11.494 -0.2479  0.5043 -0.1693
 6360W        W10104   0.575   8.402   2.872  0.3816 -0.0919  0.2637
 6361W        W10105   8.694   8.361   8.141  0.0278  0.1820 -0.1333
 6362W        W10106   9.797   3.543   0.517 -0.0343  0.0696  0.0082
 6363W        W10107   9.188   3.083   8.356  0.0254  0.2473 -0.2750
 6364W        W10108   9.273   5.297   1.188 -0.3145 -0.1723 -0.3622
 6365W        W10109   2.248   8.068  12.165  0.1660  0.1462  0.0331
 6366W        W10110   3.571   6.704  11.578  0.1625 -0.0784 -0.3926
 6367W        W10111   7.759   0.693   8.677 -0.1657  0.0870  0.1665
 6368W        W10112   7.549   0.060  11.193 -0.3648  0.1372  0.0207
 6369W        W10113   8.477   8.454   3.412  0.1078 -0.0100  0.1824
 6370W        W10114   5.160   2.131   0.837 -0.2278 -0.1081  0.4144
 6371W        W10115   7.432   2.529   2.857 -0.0866  0.3017 -0.2151
 6372W        W10116  10.037   9.733   8.717 -0.0988 -0.0770 -0.0822
 6373W        W10117   2.825   7.616   3.402  0.0548 -0.3263  0.1304
 6374W        W10118   7.199   3.257   0.257  0.1660 -0.0099 -0.1775
 6375W        W10119   8.956   7.703   9.383  0.1635 -0.1021 -0.1467
 6376W        W10120   4.980   1.936   0.194 -0.0495  0.0912 -0.2490
 6377W        W10121   8.862   7.754  10.315 -0.1159 -0.0536  0.0014
 6378W        W10122   0.400   8.523   8.481  0.1702 -0.1910 -0.0574
 6379W        W10123   7.586   7.242   9.275 -0.1118 -0.3660  0.0660
 6380W        W10124   5.845   8.229   8.659  0.0374 -0.1719 -0.0119
 6381W        W10125   6.342   2.168  11.037 -0.0149 -0.6067 -0.4597
 6382W        W10126   7.229   0.168   2.479  0.1859 -0.4221 -0.0770
 6383W        W10127   7.635   2.175  10.522 -0.1165 -0.0984  0.1652
 6384W        W10128   3.518   6.128   9.367 -0.2414 -0.0550  0.2208
 6385W        W10129   5.361   7.208   0.501  0.2273  0.0216 -0.1427
 6386W        W10130   1.195   7.665   3.660  0.1698 -0.0614  0.2826
 6387W        W10131   5.580   2.585   8.149 -0.2241 -0.2901 -0.1409
 6388W        W10132   1.807   7.472   8.138 -0.1649  0.0317  0.0254
 6389W        W10133   5.155   5.601   9.390  0.0721  0.0627  0.0067
 6390W        W10134   2.910   1.361   2.596 -0.0368 -0.0903 -0.0094
 6391W        W10135   5.725   7.662   7.794  0.3633  0.0132  0.0932
 6392W        W10136   5.183   5.226   2.037 -0.0699 -0.0459  0.0967
 6393W        W10137   9.448   6.707  11.404 -0.2619 -0.1212 -0.0580
 6394W        W10138   9.735   0.743   2.246 -0.0571 -0.1787 -0.1923
 6395W        W10139   7.885   4.856   9.006  0.2706  0.0145  0.0117
 6396W        W10140   6.836   6.723   0.546 -0.2582  0.0745 -0.1082
 6397W        W10141   6.682   3.268   2.716  0.0454  0.0487  0.0478
 6398W        W10142   6.462   0.278   3.054  0.2812  0.1741  0.1319
 6399W        W10143   3.513   6.673   0.350 -0.3921  0.0759  0.0465
 6400W        W10144   0.656   5.221   0.360 -0.2469 -0.0424  0.1558
 6401W        W10145   9.082   1.922   0.724 -0.0067 -0.3814  0.0498
 6402W        W10146   1.513   0.162   3.995  0.1288 -0.3054  0.0699
 6403W        W10147   5.870   1.634  10.272 -0.1146 -0.0714 -0.2773
 6404W        W10148   4.974   8.090   2.041 -0.2743 -0.1197 -0.1276
 6405W        W10149   0.074   5.282  10.602 -0.4567  0.0373  0.4459
 6406W        W10150   8.703   7.617   8.563 -0.4028  0.4103  0.1700
 6407W        W10151   3.263   1.985  10.874 -0.2101  0.0900  0.0270
 6408W        W10152   2.707   4.456   9.764  0.1830 -0.3319  0.0931
 6409W        W10153   5.499   6.374  11.097  0.1847  0.4840  0.3308
 6410W        W10154   0.888   5.773  10.064 -0.1175  0.1007 -0.1014
 6411W        W10155   2.114   3.803   2.663 -0.0589  0.1030  0.0930
 6412W        W10156   5.890   6.612   3.384 -0.0698  0.4142  0.0381
 6413W        W10157   5.572   1.504  10.618 -0.1181  0.3852  0.2283
 6414W        W10158   4.418   5.850  10.392  0.0790  0.0336  0.2814
 6415W        W10159   6.489   8.017   2.084 -0.1042 -0.1556 -0.1818
 6416W        W10160   4.408   2.915   3.027 -0.1759 -0.1530  0.1483
 6417W        W10161   6.096   8.736   8.937 -0.0843 -0.1695 -0.1891
 6418W        W10162   1.889   3.158   9.314 -0.0076 -0.0890  0.2156
 6419W        W10163   2.165   3.787   1.411  0.4542  0.0756 -0.1583
 6420W        W10164   1.760   4.831  10.670 -0.3240  0.0258  0.1457
 6421W        W10165   7.711   1.966  11.809 -0.1302 -0.1157 -0.0360
 6422W        W10166   8.407   4.018   1.511 -0.0018 -0.0167 -0.0720
 6423W        W10167   3.441   4.797   2.803  0.1918  0.0428 -0.0667
 6424W        W10168   9.902   4.075   3.730  0.2874 -0.0625  0.0363
 6425W        W10169   4.877   0.096   1.458  0.0965 -0.2206  0.0441
 6426W        W10170   7.197   8.608   9.650 -0.1200 -0.1024 -0.2192
 6427W        W10171   6.530   5.900   8.681 -0.0990  0.1638 -0.1947
 6428W        W10172   9.257   7.024   9.129  0.0295  0.5931 -0.1663
 6429W        W10173   8.792   5.763   2.450 -0.2180 -0.3366 -0.0001
 6430W        W10174   3.575   2.069   9.986 -0.2271 -0.2498  0.0576
 6431W        W10175   3.990  10.067   3.655 -0.0007  0.2441 -0.0859
 6432W        W10176   4.702   4.547   9.133  0.1435  0.5621 -0.1621
 6433W        W10177   5.833   4.351  11.774  0.0971 -0.1064  0.2979
 6434W        W10178   3.796   8.144  11.038 -0.0375  0.1316 -0.2555
 6435W        W10179   8.972   6.000  10.910 -0.0620 -0.0919 -0.3437
 6436W        W10180   9.071   8.100   7.975  0.3842  0.2426  0.1838
 6437W        W10181   1.623   8.500   3.341  0.0278 -0.0124 -0.2789
 6438W        W10182   4.185   0.774  11.723  0.1351 -0.0304  0.0903
 6439W        W10183   9.599   8.036   2.063  0.0954  0.2299 -0.0341
 6440W        W10184   8.199   5.328   9.807 -0.0191 -0.2404 -0.0975
 6441W        W10185   1.695   2.398  10.806  0.1186  0.1162 -0.3691
 6442W        W10186   8.061   4.327   8.241 -0.1594 -0.0529  0.2451
 6443W        W10187   5.621   2.561   0.067 -0.1154  0.1715 -0.2339
 6444W        W10188   4.540   3.592  10.892 -0.1867 -0.2144 -0.0326
 6445W        W10189   7.775   6.706  11.038  0.0009  0.0378  0.2149
 6446W        W10190   1.647   3.504   8.858  0.2344 -0.0514 -0.0896
 6447W        W10191   3.195   3.844   1.082  0.2201  0.0063 -0.1827
 6448W        W10192   8.284   1.566  10.124  0.1082 -0.3100  0.0611
 6449W        W10193   9.656   5.165   8.614 -0.1887  0.0568 -0.0853
 6450W        W10194   7.930   9.035   9.266 -0.1554 -0.0551  0.0176
 6451W        W10195   3.367   5.683  11.769 -0.1339 -0.2391 -0.1842
 6452W        W10196   6.207   2.697   1.432 -0.2125 -0.0389  0.0806
 6453W        W10197   5.917   1.146   8.840 -0.3409 -0.1733  0.1219
 6454W        W10198   7.328   0.908   2.700  0.2991  0.0064  0.1824
 6455W        W10199   3.802   9.192   2.411 -0.1878  0.0025 -0.1617
 6456W        W10200   0.769   4.000   2.619  0.0236  0.1658  0.1187
 6457W        W10201   4.403   8.799   0.604 -0.0043  0.0143 -0.0291
 6458W        W10202   4.551   5.003  11.086 -0.2108  0.1328 -0.0785
 6459W        W10203  10.057   2.615  10.619 -0.1186 -0.2027  0.0039
 6460W        W10204   6.924   5.578   1.245 -0.2173  0.0062 -0.2010
 6461W        W10205  10.086   6.514   1.571  0.2305  0.1811  0.2598
 6462W        W10206   8.017   6.947   2.553 -0.1358  0.1118  0.0461
 6463W        W10207   5.206   2.244  10.611  0.3779 -0.1312  0.0550
 6464W        W10208   9.834   4.536   8.126  0.1480  0.1133 -0.1635
 6465W        W10209   4.639   8.634   0.175 -0.0314  0.0103 -0.3504
 6466W        W10210   1.443   3.622   9.851 -0.1440  0.2061 -0.1037
 6467W        W10211   7.882   4.213   1.634 -0.0897  0.1000 -0.2258
 6468W        W10212   2.403   8.253  10.171  0.1043  0.0424  0.0091
 6469W        W10213   7.869   0.319   2.540 -0.0557  0.2403  0.0832
 6470W        W10214   9.814   6.637   2.749 -0.0432  0.0251  0.4126
 6471W        W10215   4.267   9.229   2.245 -0.1698  0.0412 -0.2412
 6472W        W10216   6.189   7.990   2.820  0.0742  0.2237  0.2770
 6473W        W10217   8.916   7.022   0.638  0.4463 -0.1369  0.4545
 6474W        W10218   4.765   7.856   7.658 -0.4140 -0.1704 -0.0895
 6475W        W10219   4.620   1.569   7.745 -0.0983  0.2719 -0.0614
 6476W        W10220   1.583   5.753  11.495 -0.0099  0.2535  0.1688
 6477W        W10221   2.383   1.045   9.082  0.0134 -0.0717  0.3786
 6478W        W10222   2.534   1.532   2.293 -0.2602 -0.0354  0.0612
 6479W        W10223   2.151   3.210   0.233  0.1160  0.3615 -0.0922
 6480W        W10224   0.213   2.721   8.597 -0.2663 -0.1888 -0.0696
 6481W        W10225   8.699   3.869   2.725  0.1328 -0.0081  0.2445
 6482W        W10226   5.967   1.722   8.875  0.2925 -0.0836 -0.3259
 6483W        W10227   9.911   5.047   2.628 -0.0017 -0.0804 -0.0064
 6484W        W10228   5.705   8.248   0.554  0.3174 -0.2234 -0.2156
 6485W        W10229  10.144   6.694   8.158  0.2493 -0.1329  0.0729
 6486W        W10230   0.030   2.670   1.055  0.1714  0.3204 -0.2330
 6487W        W10231   0.213   0.005   0.566 -0.2415  0.2571 -0.0692
 6488W        W10232   4.202   6.935   0.451 -0.0094  0.0639 -0.2948
 6489W        W10233   2.270   7.907   9.581 -0.2663  0.1657  0.0765
 6490W        W10234   1.766   0.354   2.078 -0.1457 -0.4196 -0.0722
 6491W        W10235   9.654   1.883   3.015  0.0477 -0.0570 -0.0904
 6492W        W10236   3.158   7.390   8.124 -0.0036  0.1493  0.1149
 6493W        W10237   8.735   0.768   9.031 -0.2788 -0.0201 -0.0449
 6494W        W10238   1.998   1.912   1.309 -0.0753 -0.4324  0.2829
 6495W        W10239   5.508   9.209   9.603  0.2080 -0.0088 -0.0691
 6496W        W10240   4.991   5.612   1.734  0.0065 -0.1357  0.0415
 6497W        W10241   9.074   6.178   0.138 -0.2141  0.0079 -0.3312
 6498W        W10242   3.390   1.484   2.454  0.1457  0.0255 -0.2275
 6499W        W10243   1.484   4.392   8.453 -0.1624 -0.0874  0.1326
 6500W        W10244   8.879   2.049  10.986  0.3043  0.1245  0.0019
 6501W        W10245   9.688   5.961   0.984  0.0628 -0.3757  0.0613
 6502W        W10246   2.161   8.459  11.095 -0.2052  0.1546 -0.2286
 6503W        W10247   4.040   0.714  10.312  0.1178  0.0818  0.1143
 6504W        W10248   0.709   9.978   9.829 -0.1647  0.1830  0.1773
 6505W        W10249   9.081   6.116   2.324  0.1264 -0.1381 -0.1006
 6506W        W10250   1.475   6.937   0.618 -0.0736 -0.3574 -0.0267
 6507W        W10251   3.091   2.188   9.518  0.0489 -0.2087  0.1213
 6508W        W10252   6.061   9.242   7.580 -0.2546 -0.0213  0.1979
 6509W        W10253   1.461   5.721   2.083  0.1433 -0.0818 -0.0899
 6510W        W10254   7.001   6.037   8.385 -0.2820 -0.0621  0.0763
 6511W        W10255   2.136   4.119  10.999 -0.4918  0.0198 -0.3432
 6512W        W10256   3.318   7.428  10.114 -0.1384 -0.0834 -0.1539
 6513W        W10257   6.553   7.230   9.908 -0.1495  0.2989 -0.2799
 6514W        W10258   5.994   3.070   1.830  0.1870 -0.0240 -0.1840
 6515W        W10259   7.569   2.894   0.051 -0.0075  0.1206  0.0343
 6516W        W10260   6.535   3.371   8.967  0.0012  0.1408  0.2103
 6517W        W10261   1.860   6.594   0.537 -0.2468  0.1329 -0.0545
 6518W        W10262   8.720   5.508   7.947  0.2346  0.0346  0.0039
 6519W        W10263   8.776   7.784   7.732  0.1413 -0.2235 -0.0313
 6520W        W10264  10.111   3.999   1.902 -0.3751 -0.1968 -0.2876
 6521W        W10265   6.886   6.893   2.745 -0.1209  0.1290  0.2705
 6522W        W10266   7.720   5.910  11.330 -0.0665 -0.0230 -0.2387
 6523W        W10267   2.742   4.993   2.654  0.0991  0.1152  0.0841
 6524W        W10268   2.992   1.848   8.805 -0.0198  0.0038  0.0019
 6525W        W10269   1.446   6.841   2.589 -0.0574 -0.2498 -0.2801
 6526W        W10270  10.050   6.379   3.101 -0.1951 -0.0471  0.0705
 6527W        W10271   0.102   4.681   2.593  0.0848 -0.1275  0.0475
 6528W        W10272   7.950   2.526  11.224  0.2784 -0.0108 -0.0729
 6529W        W10273   4.193   2.736   0.513 -0.2819 -0.0143 -0.1490
 6530W        W10274   8.263   5.559   1.994  0.0178  0.1210 -0.1813
 6531W        W10275   5.363   7.485   2.550 -0.1179 -0.2239  0.1241
 6532W        W10276   5.127   9.830  10.243  0.0834  0.0225 -0.1840
 6533W        W10277   7.708   5.052   3.862  0.0873 -0.1620 -0.1542
 6534W        W10278   4.206   9.709   0.451  0.2094 -0.3599 -0.3564
 6535W        W10279   7.816   7.064   1.170  0.1059  0.2093 -0.1670
 6536W        W10280   5.474   6.885  11.180  0.2329  0.1967 -0.0253
 6537W        W10281   6.388   5.157   8.520 -0.0134  0.3138  0.2153
 6538W        W10282   3.328   8.922   9.676  0.2674 -0.1554 -0.5299
 6539W        W10283   7.091   4.711   0.366 -0.1643  0.0885  0.0845
 6540W        W10284   7.027   2.895   9.916 -0.0558 -0.1327 -0.0286
 6541W        W10285   9.476   5.197   2.747 -0.1450 -0.0437  0.2065
 6542W        W10286   9.112   1.835  12.096  0.2355  0.3092  0.3107
 6543W        W10287   5.511   6.127   0.429 -0.0682  0.0273  0.2180
 6544W        W10288   4.835   7.225   1.914 -0.0208  0.2587 -0.1717
 6545W        W10289   9.605   6.836  10.560 -0.1389 -0.2176  0.2838
 6546W        W10290   8.341   0.859   1.840 -0.0824  0.2802  0.2568
 6547W        W10291   5.435   1.082   8.212 -0.2799 -0.0325  0.1023
 6548W        W10292   9.189   9.172  11.644  0.1428 -0.2709 -0.1047
 6549W        W10293   6.021   5.797  10.482 -0.0455 -0.0382 -0.3128
 6550W        W10294   1.206   3.298   1.715  0.2534  0.0222  0.0885
 6551W        W10295   5.389   6.076   9.407 -0.0180  0.1443 -0.1190
 6552W        W10296   9.286   3.087   9.114  0.0234  0.1702  0.0754
 6553W        W10297   3.850   1.136  11.596 -0.0953  0.0853 -0.0028
 6554W        W10298   8.501   0.697  11.115  0.2289 -0.0591  0.1061
 6555W        W10299   5.614   1.545   8.069  0.0959 -0.2708  0.2906
 6556W        W10300   2.089   8.149   3.184 -0.1431  0.0331 -0.1011
 6557W        W10301   0.279   1.871   1.083  0.0668 -0.1564 -0.1742
 6558W        W10302   1.089   2.443   1.118 -0.1572  0.5345 -0.1912
 6559W        W10303   1.415   5.274   2.247  0.1737  0.2769  0.2858
 6560W        W10304   9.880   3.440   3.950 -0.0255 -0.3661 -0.2864
 6561W        W10305   7.027   7.291   1.292 -0.2799 -0.2313  0.2525
 6562W        W10306   6.628   2.569  11.381 -0.1105 -0.0184  0.0712
 6563W        W10307   0.520   6.882   0.289 -0.1132  0.0264  0.0046
 6564W        W10308   1.566   0.549   9.676  0.0841 -0.5056 -0.0495
 6565W        W10309   4.026   3.040   2.776  0.0556 -0.5031 -0.0122
 6566W        W10310   0.536   3.190   9.004  0.1544  0.0829  0.3968
 6567W        W10311   3.473   7.670   2.873 -0.0551 -0.0656  0.0882
 6568W        W10312   5.657   4.504   2.721  0.3916  0.1688  0.1643
 6569W        W10313   7.435   1.250  10.293 -0.2138 -0.1117 -0.1579
 6570W        W10314   1.022   0.219  10.070  0.1455 -0.0039  0.0350
 6571W        W10315   4.437   9.949   0.816 -0.1747  0.3887  0.1058
 6572W        W10316   6.268   4.735   7.416 -0.3133 -0.0456  0.0284
 6573W        W10317   0.014   7.768   9.803  0.2157  0.1973 -0.0353
 6574W        W10318   5.709   9.824  10.597 -0.2472 -0.1528 -0.0955
 6575W        W10319   4.261   4.758   1.190  0.3310 -0.2276 -0.1741
 6576W        W10320   7.809   8.731   1.987 -0.0752 -0.2161  0.1740
 6577W        W10321   7.322   9.380   7.517  0.1268 -0.0357 -0.0814
 6578W        W10322   2.173   9.276   9.113 -0.3867 -0.1217  0.1557
 6579W        W10323   2.441   0.015   0.748  0.0828  0.3833 -0.2690
 6580W        W10324   4.399  10.016   2.619  0.0684  0.3115 -0.0981
 6581W        W10325   8.296   5.662   2.529  0.1255 -0.1299 -0.3177
 6582W        W10326   1.567   5.901   0.603 -0.1564 -0.0176 -0.2755
 6583W        W10327   5.907   3.548  10.530  0.3613  0.1133  0.0701
 6584W        W10328   6.601   2.419   1.348  0.0324 -0.0612  0.1033
 6585W        W10329   2.779   3.573  10.294  0.1949  0.1482 -0.1650
 6586W        W10330   4.382   8.399   9.522  0.0143  0.0801 -0.2022
 6587W        W10331   1.037   5.544  10.581  0.0999 -0.2616  0.0333
 6588W        W10332   7.004  10.162   1.650 -0.0217  0.1350 -0.0976
 6589W        W10333   9.426   7.545   2.141  0.4290 -0.1478 -0.1902
 6590W        W10334   6.118   5.268   7.597 -0.1561 -0.0136  0.4885
 6591W        W10335   9.031   9.687  11.740 -0.0454 -0.1015  0.0517
 6592W        W10336   2.949   1.516   0.328  0.2339 -0.2042  0.1013
 6593W        W10337   5.532   1.521  11.858  0.0764 -0.1768  0.2335
 6594W        W10338   9.068   1.323  11.983 -0.1575  0.1314 -0.2776
 6595W        W10339   7.116   1.579   8.041 -0.3202  0.0463  0.1280
 6596W        W10340   0.083   0.970   9.208 -0.0878 -0.1222 -0.1159
 6597W        W10341   8.088   8.050   9.160 -0.0199 -0.2477 -0.0624
 6598W        W10342   0.711   6.574   1.194 -0.0705 -0.0323  0.0565
 6599W        W10343   2.544   4.396   9.297 -0.0023  0.0801  0.0287
 6600W        W10344   9.294   8.502   1.845  0.2522  0.2351  0.0761
 6601W        W10345   9.420   7.876   9.232  0.0905 -0.0653  0.2293
 6602W        W10346   1.290   4.026   8.701  0.2115 -0.1616 -0.0282
 6603W        W10347   0.817   3.944   2.048  0.4184  0.1802 -0.2319
 6604W        W10348   6.041   9.713   7.539  0.1492 -0.2348 -0.3941
 6605W        W10349   9.171   4.379  11.599  0.1430 -0.2304 -0.1229
 6606W        W10350   5.493   3.456  10.041  0.0011 -0.4343  0.0835
 6607W        W10351   3.522   4.288   2.628 -0.0378  0.0022  0.1825
 6608W        W10352   9.441   8.753   0.518  0.0123  0.3243  0.1560
 6609W        W10353   3.368   9.385   2.607  0.0906  0.1982  0.0263
 6610W        W10354   4.244   0.844   9.862 -0.0174  0.1107 -0.0595
 6611W        W10355   2.890   5.123   0.710  0.2422 -0.1422 -0.1505
 6612W        W10356   7.301   6.469   2.778  0.1161  0.1827  0.0138
 6613W        W10357   4.801   9.344  11.330  0.2081 -0.1832  0.0866
 6614W        W10358   3.494   4.304   8.374 -0.2523 -0.4596 -0.1364
 6615W        W10359   4.474   5.824   9.056  0.0485  0.0959 -0.0647
 6616W        W10360   0.059   8.141   2.846  0.0419 -0.1226 -0.4028
 6617W        W10361   8.044  10.072   2.536 -0.0949  0.0974 -0.1487
 6618W        W10362   6.562   8.156   9.904 -0.0417  0.2019 -0.2567
 6619W        W10363   9.511   6.566   0.687  0.1964 -0.1299 -0.1925
 6620W        W10364   4.376   0.812   2.078  0.1860  0.2902 -0.2128
 6621W        W10365   9.357   0.839   3.586 -0.2004 -0.1687 -0.3445
 6622W        W10366   9.030   6.099   2.808  0.0329  0.1089  0.0564
 6623W        W10367   8.108   6.300  11.896  0.0604  0.2120 -0.0805
 6624W        W10368   9.336   0.328  11.551  0.1061 -0.0212  0.2841
 6625W        W10369   1.551   0.437  10.935 -0.0393  0.2486  0.0558
 6626W        W10370   6.484   9.326  10.508  0.0855 -0.1353 -0.2990
 6627W        W10371  10.119   4.690   3.660 -0.1501  0.1904  0.0118
 6628W        W10372   9.930   5.523   8.381  0.0460 -0.2024 -0.3668
 6629W        W10373   6.963   1.003   9.009 -0.1063 -0.1101  0.3199
 6630W        W10374   7.665   0.429  10.590 -0.0396 -0.1195 -0.6106
 6631W        W10375   8.497   7.842  10.594 -0.0425 -0.2510  0.1632
 6632W        W10376   0.058   3.812   3.359 -0.3044  0.0081 -0.0007
 6633W        W10377   8.698   0.540   2.321 -0.1946  0.1963 -0.0864
 6634W        W10378   9.676   9.021  11.868 -0.1152  0.4802 -0.1273
 6635W        W10379   9.738   4.782   9.584 -0.1953  0.0062 -0.1328
 6636W        W10380   5.923   8.448   2.714 -0.2831  0.0804  0.1022
 6637W        W10381   2.301   3.201   3.863 -0.2174 -0.1707  0.2157
 6638W        W10382   1.019   0.837   1.496 -0.0630 -0.0313  0.2063
 6639W        W10383   4.900   9.630  11.922  0.1662 -0.3822 -0.0391
 6640W        W10384   7.599   3.478   0.489  0.0988 -0.2236  0.1259
 6641W        W10385   6.016   9.636   0.275 -0.0718  0.1980 -0.3586
 6642W        W10386   5.998   1.017   2.642  0.1747  0.2428  0.0546
 6643W        W10387   5.867   9.082   1.461  0.2471  0.4714 -0.4133
 6644W        W10388   7.847   2.735   8.822  0.0799  0.0839  0.1823
 6645W        W10389   2.426   0.951   1.056  0.1547 -0.0243  0.1244
 6646W        W10390   1.725   7.450   9.157  0.2548 -0.0706 -0.1004
 6647W        W10391   1.584   9.152   1.731  0.0919  0.1433  0.0414
 6648W        W10392  10.031   9.104   2.953  0.0483 -0.1102 -0.2599
 6649W        W10393   9.987   0.642  11.869  0.1694  0.1356  0.2355
 6650W        W10394   0.897   4.430   9.659  0.0695  0.1730 -0.1123
 6651W        W10395   5.783   9.569  11.058 -0.0243 -0.1001 -0.0310
 6652W        W10396   3.358   5.495   2.117  0.1102  0.3389 -0.3330
 6653W        W10397   4.335   9.690   9.452 -0.0429 -0.0264  0.1015
 6654W        W10398   9.975   8.232  10.905  0.3090  0.0560 -0.1205
 6655W        W10399   9.440   8.256  10.943 -0.1590  0.1048 -0.1067
 6656W        W10400   2.108   4.800  10.143 -0.3506 -0.1184 -0.3201
 6657W        W10401   6.711   4.896   0.071 -0.1321  0.0855  0.0219
 6658W        W10402   4.547   7.696   3.508 -0.1190  0.1556  0.0698
 6659W        W10403   3.327   3.440   3.815 -0.1965  0.1341 -0.1151
 6660W        W10404   3.673   7.432  12.026  0.2632  0.5363  0.0747
 6661W        W10405   8.059   9.717  10.567 -0.0328  0.2452 -0.2613
 6662W        W10406   1.694   1.794   8.954  0.1855 -0.4068  0.0538
 6663W        W10407   3.754  10.028   0.288 -0.3736  0.0973  0.0559
 6664W        W10408   1.653   5.550  10.087 -0.0123  0.0394  0.0403
 6665W        W10409   6.729   8.921   9.892 -0.2183  0.1315  0.0161
 6666W        W10410   2.078   9.671  11.094  0.1668  0.0534  0.0173
 6667W        W10411   7.628   3.577   2.744 -0.0678 -0.2217  0.1620
 6668W        W10412   6.075   8.896   7.942 -0.1612 -0.0504 -0.1360
 6669W        W10413   3.385   5.406  11.354 -0.1506  0.0397  0.1147
 6670W        W10414   2.525   4.841   9.521  0.2383  0.1606  0.3552
 6671W        W10415   0.597   7.470   2.080 -0.4748  0.2862  0.0893
 6672W        W10416   1.983   9.854   0.351 -0.0345  0.3354  0.1002
 6673W        W10417   0.560   5.443  10.757 -0.0756  0.0611  0.0779
 6674W        W10418  10.157   6.642   9.337 -0.1994  0.3255 -0.0735
 6675W        W10419   5.671   1.610   4.725 -0.0302 -0.1319  0.1201
 6676W        W10420   2.964   0.872   2.598  0.1722 -0.2201 -0.0023
 6677W        W10421   0.574   8.374  11.021 -0.2048 -0.0710 -0.0533
 6678W        W10422   0.541   2.503   8.161  0.1252  0.1157  0.2770
 6679W        W10423   1.768   0.108   0.292 -0.2021  0.0379  0.3408
 6680W        W10424   8.292   9.801   1.131  0.2163 -0.1810 -0.0602
 6681W        W10425   7.467   4.710   2.612 -0.3093  0.0690 -0.0192
 6682W        W10426   7.603   6.917   7.948 -0.0752  0.0050  0.1781
 6683W        W10427   7.599   1.074   9.778 -0.2320  0.0435 -0.0703
 6684W        W10428   6.703   8.600   0.480 -0.0653 -0.2240  0.1155
 6685W        W10429   8.990   9.193   4.129 -0.0786  0.0562 -0.1741
 6686W        W10430   9.533   9.575  11.777  0.0382 -0.2934  0.1415
 6687W        W10431   2.639   1.691   1.843  0.1451 -0.0220 -0.2975
 6688W        W10432   8.041   2.874  10.168  0.0136 -0.1949  0.0226
 6689W        W10433   7.104   1.584  11.197 -0.2164 -0.0838 -0.2143
 6690W        W10434   2.470   1.022   2.515  0.0392 -0.2038 -0.0308
 6691W        W10435   7.979  10.136  10.956  0.0273 -0.0294  0.0594
 6692W        W10436   3.951   0.569  12.177  0.2091 -0.0278 -0.0713
 6693W        W10437   3.964   6.149  10.355  0.0078  0.0146  0.1165
 6694W        W10438   0.836   0.293  11.797 -0.3464  0.1162  0.0596
 6695W        W10439   3.470   2.802  10.948 -0.0383  0.1086 -0.0502
 6696W        W10440   3.770   0.656   0.918  0.2862  0.0457  0.0724
 6697W        W10441   0.382   9.700  10.719  0.0904 -0.1527 -0.0288
 6698W        W10442   5.185   6.321   2.164 -0.1608 -0.0046 -0.0399
 6699W        W10443   1.824  10.098   9.122 -0.0058  0.0487 -0.1704
 6700W        W10444   5.166   8.069   0.709  0.1170  0.1148 -0.1848
 6701W        W10445   2.810   4.892  12.035 -0.1702  0.1380 -0.2094
 6702W        W10446   4.701   9.044   0.951 -0.0284 -0.0131 -0.0455
 6703W        W10447   1.249   1.852   9.383 -0.0802 -0.1729 -0.5963
 6704W        W10448   7.923   1.206   0.185 -0.0643 -0.3477  0.1626
 6705W        W10449   6.727   9.056   0.022  0.0309  0.0093 -0.4678
 6706W        W10450   9.243   9.803   0.057 -0.1267  0.1003  0.1271
 6707W        W10451   1.667   9.560   8.968 -0.2299  0.1436  0.0535
 6708W        W10452   2.956   5.984  11.909 -0.2600  0.0800  0.1750
 6709W        W10453   1.649   8.253   8.148 -0.1317  0.1500 -0.0821
 6710W        W10454   0.142   3.016  10.721 -0.2051  0.2401  0.2743
 6711W        W10455   4.241   8.968  10.060  0.1273  0.2615  0.2648
 6712W        W10456   1.866   5.587  11.926  0.0920 -0.1651  0.0582
 6713W        W10457   9.675   8.119   0.624 -0.0969  0.2113  0.2978
 6714W        W10458   1.194   6.926   1.397  0.0238 -0.4158  0.0588
 6715W        W10459   3.213   1.097   0.456 -0.1179  0.2209 -0.0121
 6716W        W10460   0.178   4.310   2.305 -0.0724  0.2531 -0.1239
 6717W        W10461   9.046   5.937   1.835  0.0771 -0.0919 -0.1939
 6718W        W10462   2.558   4.005   2.896  0.1236  0.0324 -0.1416
 6719W        W10463   0.190   1.609   8.498  0.0775  0.0033  0.2809
 6720W        W10464   0.783   2.422   0.692 -0.0643 -0.4862  0.0457
 6721W        W10465   7.312   7.748   1.968  0.2903  0.0747  0.0440
 6722W        W10466   0.610   5.906  10.921 -0.1016 -0.0353 -0.3338
 6723W        W10467   3.535   3.069   2.980  0.1250 -0.0973 -0.4289
 6724W        W10468   8.162   2.221   0.463 -0.2415 -0.0355 -0.0226
 6725W        W10469   2.642   2.412  10.024 -0.4488 -0.0968 -0.3136
 6726W        W10470   9.814   6.850  11.090  0.0949  0.3079 -0.1530
 6727W        W10471   9.430   0.976   2.794  0.2673  0.1155  0.0645
 6728W        W10472   6.790   1.533   9.832  0.0297  0.1480 -0.1135
 6729W        W10473   9.026   3.106   9.905  0.1755  0.1733  0.0371
 6730W        W10474   1.795   1.360   1.141 -0.0604 -0.0418  0.2113
 6731W        W10475   3.858   3.448  10.088  0.1346 -0.0244 -0.0718
 6732W        W10476   9.963   5.990  11.012  0.1921  0.2753  0.1380
 6733W        W10477   5.112   4.870   9.256 -0.3796  0.2311 -0.1297
 6734W        W10478   4.753   3.207   0.771  0.0549 -0.0325 -0.2789
 6735W        W10479   1.822   3.975   8.754 -0.2098 -0.3726  0.0289
 6736W        W10480   5.249   8.437   2.420 -0.1853  0.2960  0.1569
 6737W        W10481   6.765   0.038   3.367 -0.2233  0.0241 -0.1207
 6738W        W10482   1.918   5.106   2.409 -0.0703 -0.0981 -0.3206
 6739W        W10483   7.576   7.384   0.204 -0.0884 -0.1056  0.1227
 6740W        W10484   1.215   8.386   7.879 -0.2413  0.2685 -0.0916
 6741W        W10485   8.253   7.359   8.401 -0.4453  0.3243  0.1682
 6742W        W10486   9.121   2.160   0.260  0.1713  0.1441  0.1165
 6743W        W10487   1.714   6.983   8.358 -0.1311 -0.0206 -0.0236
 6744W        W10488   0.738   4.883   8.694  0.0722  0.2031  0.4575
 6745W        W10489   0.581   7.827  10.515 -0.0819  0.0657 -0.1314
 6746W        W10490   2.201   8.021   7.197  0.3050 -0.0375  0.2576
 6747W        W10491   1.306   2.639  10.473 -0.0155 -0.0340 -0.0073
 6748W        W10492   1.700   6.964   9.999 -0.0011 -0.0617 -0.3574
 6749W        W10493   2.107   1.091   2.890  0.0264 -0.1253  0.1548
 6750W        W10494   5.818   0.171  10.605  0.4949 -0.1456 -0.2005
 6751W        W10495   2.449   7.708   0.477  0.1116  0.1161 -0.1426
 6752W        W10496   8.686   3.880   9.443 -0.2226  0.1846 -0.2213
 6753W        W10497   6.807   7.961   8.783  0.2403  0.0962  0.1788
 6754W        W10498   0.962   5.123   2.360 -0.0184  0.0698 -0.0921
 6755W        W10499   0.461   0.429   8.880 -0.1593  0.4234 -0.2014
 6756W        W10500   6.734   3.316   9.433 -0.0157 -0.1466 -0.2021
 6757W        W10501   1.862   8.951   1.361 -0.3857  0.2210 -0.1202
 6758W        W10502   4.595   7.953   1.381  0.0009 -0.0243  0.2654
 6759W        W10503   3.935   2.757   2.348  0.0396 -0.1888  0.0970
 6760W        W10504   6.720   2.749  11.935  0.2187 -0.1734  0.1951
 6761W        W10505   0.966   7.878   8.687  0.1596  0.1964 -0.1250
 6762W        W10506   9.232   0.194  10.603 -0.0513  0.0412  0.1821
 6763W        W10507   2.124   5.917  10.225  0.0621  0.1057 -0.1325
 6764W        W10508   8.564   0.828   8.505  0.3635  0.2408 -0.0483
 6765W        W10509   2.997   6.493  11.558 -0.1702  0.0963 -0.0485
 6766W        W10510   8.169   5.608   3.074  0.1835 -0.4080  0.3973
 6767W        W10511   4.526   4.751   2.750 -0.0309  0.0034  0.1697
 6768W        W10512   8.145   2.683   9.671 -0.3184 -0.2347  0.0210
 6769W        W10513   3.814   5.322   9.117  0.2829  0.0857  0.3851
 6770W        W10514   6.415   1.240   2.868  0.2048  0.0464  0.0843
 6771W        W10515   9.060   9.588   3.762 -0.1592 -0.0753 -0.0499
 6772W        W10516   4.217   3.938  11.777 -0.0975  0.2551  0.1190
 6773W        W10517   2.776   2.282  11.993 -0.1499  0.1341  0.2079
 6774W        W10518   6.195   7.166   2.528 -0.0129  0.1432 -0.1160
 6775W        W10519   6.753   8.483   9.605  0.0100 -0.0531  0.0247
 6776W        W10520   4.085   9.901   1.207  0.2089  0.1350 -0.4250
 6777W        W10521   1.159   1.962   1.312 -0.0670  0.1480  0.1718
 6778W        W10522   5.055   4.280   9.800 -0.0677 -0.2565 -0.1241
 6779W        W10523   6.961   2.481   8.919 -0.1895 -0.0106  0.2350
 6780W        W10524   9.454   7.845   8.128 -0.1212 -0.1804 -0.0049
 6781W        W10525   9.511   1.178   1.161 -0.0078 -0.2390 -0.1787
 6782W        W10526   7.165   4.982  11.869 -0.2847 -0.0255  0.3024
 6783W        W10527   7.004   2.370   3.599 -0.1918 -0.1116  0.0279
 6784W        W10528   0.556   4.827   2.465 -0.4544  0.1719  0.1761
 6785W        W10529   6.314   4.239  11.619 -0.3616 -0.0221 -0.4228
 6786W        W10530   2.622   4.942   8.373 -0.1540 -0.0654  0.0104
 6787W        W10531   8.781   2.093   1.589 -0.0268 -0.3048  0.2233
 6788W        W10532   5.487   7.208   9.163  0.1248 -0.3134 -0.1525
 6789W        W10533   4.716   3.590   1.175 -0.3044 -0.0150 -0.0480
 6790W        W10534   3.946   9.001   0.558  0.0660 -0.1202 -0.1097
 6791W        W10535   1.019   0.496  10.939  0.1231 -0.0851  0.0955
 6792W        W10536   5.645   5.640   9.583  0.0909 -0.1253  0.5797
 6793W        W10537   7.171   9.924   9.494  0.0945  0.1806 -0.2502
 6794W        W10538   0.813   7.988   9.536 -0.0346  0.1240  0.1808
 6795W        W10539   7.752   0.242   8.872  0.1074 -0.2064  0.0695
 6796W        W10540   4.961   0.033  11.885  0.1240 -0.0064  0.1245
 6797W        W10541   1.120   9.087   3.352 -0.1534  0.2632  0.4349
 6798W        W10542   1.623   4.172  12.148 -0.2213 -0.1818  0.2375
 6799W        W10543   2.121   7.748  11.682 -0.1528  0.0906  0.2205
 6800W        W10544   2.841   5.499   1.962  0.1160  0.0481  0.0422
 6801W        W10545   7.166   5.759  10.377 -0.1142 -0.0175 -0.2352
 6802W        W10546   9.135   0.692   0.254  0.1455 -0.0040 -0.2404
 6803W        W10547   0.611   7.613   1.486  0.0418  0.4046  0.0380
 6804W        W10548   5.344  10.002   8.663  0.3954 -0.0497  0.1825
 6805W        W10549   9.489   3.779   0.831  0.0488 -0.4777  0.2193
 6806W        W10550   8.095   0.177   2.998 -0.3378 -0.5753 -0.3693
 6807W        W10551   2.201   6.019   8.786  0.3727  0.0064  0.1623
 6808W        W10552   7.491   9.696   1.053 -0.0499  0.3120  0.1710
 6809W        W10553   1.801   3.547   2.902  0.0207  0.0459 -0.2075
 6810W        W10554   6.212   4.826  10.052 -0.0555 -0.1535 -0.1146
 6811W        W10555   2.013   4.988   9.595  0.4545 -0.1627  0.1356
 6812W        W10556   2.322   7.143  11.490 -0.1760 -0.0101  0.1853
 6813W        W10557   4.126   0.004   3.057 -0.3497  0.1602  0.0277
 6814W        W10558   5.682   9.683   0.864 -0.1810  0.1140 -0.2514
 6815W        W10559   7.713   5.207   0.905  0.1639 -0.2385  0.1482
 6816W        W10560   0.849   7.900   1.861 -0.1997 -0.1550  0.1915
 6817W        W10561   5.701   1.787   3.227  0.1419  0.1429 -0.2784
 6818W        W10562   0.266   9.464  12.055 -0.0268  0.0533 -0.1754
 6819W        W10563   8.670   8.383   2.331  0.1109  0.2020  0.1752
 6820W        W10564   7.413   1.439  10.826  0.0492  0.2449 -0.0263
 6821W        W10565   8.761   6.879  10.761  0.2084  0.2018 -0.0640
 6822W        W10566   3.072   9.500   0.449  0.3560 -0.0648 -0.4964
 6823W        W10567   1.469   6.267   9.371  0.0806  0.2070  0.1209
 6824W        W10568   1.448   5.813   9.615 -0.0551 -0.0117 -0.4473
 6825W        W10569   7.034   9.729   1.033  0.1687  0.0904 -0.1574
 6826W        W10570   7.969   6.798   0.436 -0.3738 -0.1591 -0.3309
 6827W        W10571   6.267   9.991  12.170  0.0328 -0.2248  0.0668
 6828W        W10572   3.709   2.819  11.989 -0.1963  0.0675 -0.3659
 6829W        W10573   8.928   1.758   8.299 -0.1738  0.1994 -0.1846
 6830W        W10574   0.357   0.536   3.178 -0.0554  0.1184 -0.1266
 6831W        W10575   0.296   2.128   2.867  0.3227  0.1067 -0.3110
 6832W        W10576   4.133   3.069   9.073  0.2979 -0.0991  0.0568
 6833W        W10577   9.764   2.206   2.580 -0.1704 -0.0652  0.3042
 6834W        W10578   2.541   4.517   2.686  0.1317 -0.0789  0.0481
 6835W        W10579   1.668   3.335   0.004 -0.0527  0.1843 -0.0615
 6836W        W10580   0.945   7.635  11.307 -0.4872 -0.1747  0.3404
 6837W        W10581   9.577   0.045  10.185  0.1187 -0.3440  0.5244
 6838W        W10582   6.665   7.682  10.819  0.3777 -0.2034  0.2272
 6839W        W10583   1.626   0.492  11.632  0.0132 -0.0573  0.0075
 6840W        W10584   4.980   0.270  10.365  0.0743  0.1081 -0.0481
 6841W        W10585   7.286   7.178  11.060 -0.0204  0.0341 -0.2893
 6842W        W10586   6.056   7.764  11.500  0.2639  0.0260 -0.0424
 6843W        W10587   7.145   9.928   8.365 -0.2867  0.3463  0.1509
 6844W        W10588   8.384   0.399   2.669  0.2220 -0.3434 -0.0976
 6845W        W10589   0.201   8.959  12.216 -0.1202 -0.1213 -0.3031
 6846W        W10590   0.604   7.067  11.138 -0.2739  0.3752  0.2586
 6847W        W10591   0.008   3.707  11.959  0.2803  0.1664 -0.4178
 6848W        W10592   6.229   1.540   0.534 -0.1093  0.0750 -0.0877
 6849W        W10593   8.276   3.706   9.709 -0.0431 -0.2214  0.0902
 6850W        W10594   1.819   4.153   1.609  0.0087  0.0443 -0.0498
 6851W        W10595   0.343   8.087   9.588 -0.3008 -0.0541 -0.2455
 6852W        W10596   9.140   9.948  10.286  0.3100  0.0018 -0.2029
 6853W        W10597   4.694   8.959   2.415 -0.1193 -0.1870 -0.2762
 6854W        W10598   8.731   8.942   1.323 -0.3818 -0.0455 -0.1236
 6855W        W10599   2.761   3.122   9.258  0.0143  0.1776  0.0871
 6856W        W10600   3.218   8.041   9.670  0.1289  0.1562 -0.1104
 6857W        W10601   7.050   6.736   7.857 -0.1481  0.0590 -0.0120
 6858W        W10602   7.750   9.955   8.931 -0.7111 -0.1832  0.0471
 6859W        W10603   9.197   3.315   3.625  0.0812  0.0802 -0.1953
 6860W        W10604   0.970   6.165  11.181 -0.0439 -0.0990  0.1867
 6861W        W10605   7.884   9.787  10.060 -0.0562  0.2020  0.1449
 6862W        W10606   2.324   7.554  12.156 -0.1934  0.0606 -0.1288
 6863W        W10607   2.974   0.927   1.178 -0.2454  0.3300 -0.0040
 6864W        W10608   9.706   9.717   8.056 -0.1300 -0.1960 -0.0244
 6865W        W10609   7.547   4.845   0.546 -0.0367  0.0879  0.1489
 6866W        W10610   5.395   5.301  11.258  0.0214 -0.0095  0.0320
 6867W        W10611   5.461   5.685   1.990  0.0926 -0.3948 -0.4723
 6868W        W10612   7.358   8.135   2.832 -0.0950  0.2757  0.0492
 6869W        W10613   7.537   4.780   0.042  0.1493 -0.3604  0.0215
 6870W        W10614   1.963   5.007   0.893  0.1991 -0.0434  0.4413
 6871W        W10615   1.439   1.096  11.508 -0.0531 -0.2379  0.0685
 6872W        W10616   9.744   3.650   8.081 -0.2063  0.1637  0.1326
 6873W        W10617   3.190   8.903  11.245  0.1253  0.1688 -0.2054
 6874W        W10618   1.294   2.241   1.897 -0.1873 -0.1303 -0.0896
 6875W        W10619   1.077   9.098  11.812 -0.1195  0.2130  0.2238
 6876W        W10620   0.414   4.221   1.898  0.0795 -0.0680  0.0308
 6877W        W10621   5.187   1.279   9.389  0.0750 -0.1864  0.0570
 6878W        W10622   7.701   1.343   2.439 -0.2337  0.3059 -0.2387
 6879W        W10623   0.728   9.988  11.559  0.0770 -0.2637  0.0746
 6880W        W10624   3.981   8.677   2.398  0.3406 -0.3702 -0.1836
 6881W        W10625   4.883   8.448   9.626 -0.0364  0.1207 -0.0124
 6882W        W10626   1.675   2.883  11.556  0.0024 -0.1164 -0.2969
 6883W        W10627   5.361   4.113   0.943 -0.1674 -0.1102  0.0395
 6884W        W10628   6.097   0.101   8.176  0.2338  0.2280  0.1938
 6885W        W10629   7.911   0.631   3.056  0.0912  0.1431  0.2110
 6886W        W10630   0.120   8.932   4.174  0.0502 -0.1356  0.0448
 6887W        W10631   6.152   5.321   8.109 -0.1053  0.2806  0.1993
 6888W        W10632   7.076   4.221  10.302  0.2041 -0.1196  0.0973
 6889W        W10633   4.270   7.106   0.961 -0.0011 -0.0574 -0.2260
 6890W        W10634   2.776   5.478   9.759  0.1350  0.3621 -0.0000
 6891W        W10635   0.306   9.574   8.672  0.3815 -0.0518  0.0280
 6892W        W10636   7.876   9.482   0.304 -0.0489  0.2452 -0.0249
 6893W        W10637   4.317   9.703   8.912  0.2292 -0.0853  0.0073
 6894W        W10638   3.418   6.404  11.196 -0.0419  0.0011  0.0199
 6895W        W10639   6.069   4.459   1.851  0.0925  0.2991  0.1490
 6896W        W10640   9.238   2.144   8.450  0.0012  0.0220 -0.1526
 6897W        W10641   3.914   8.233   9.402 -0.0843 -0.1403  0.0286
 6898W        W10642   5.286   9.688   9.831 -0.1208  0.2592 -0.0880
 6899W        W10643   0.372   4.060   0.602 -0.0761  0.1443  0.1430
 6900W        W10644   5.559   2.274   9.663  0.0903  0.1065 -0.0399
 6901W        W10645   2.055   0.679   2.382 -0.0278 -0.0997  0.0399
 6902W        W10646   0.861   8.866   8.607  0.0700 -0.4869 -0.0504
 6903W        W10647   8.107   6.024   9.142 -0.2021  0.5298  0.0338
 6904W        W10648   7.221   9.364  12.095  0.1573  0.0141  0.0104
 6905W        W10649   4.427   8.613   1.144 -0.0018 -0.1192  0.0354
 6906W        W10650   0.377   6.989   0.848 -0.1440  0.1028 -0.4315
 6907W        W10651   3.401   2.653   0.792 -0.0072  0.3181  0.3398
 6908W        W10652   2.693   2.396   2.881 -0.0375  0.0550  0.2852
 6909W        W10653   9.933   2.150  10.469  0.0999  0.1332 -0.2774
 6910W        W10654   9.304   1.273  11.405 -0.0158 -0.2948  0.2331
 6911W        W10655   9.535   7.547   0.253  0.1659  0.1254  0.0422
 6912W        W10656   0.788   2.487  10.420  0.3005 -0.1663 -0.1068
 6913W        W10657   3.392   3.826   2.448 -0.0753  0.0273 -0.0163
 6914W        W10658   8.157   3.996   3.307  0.0479 -0.0923  0.1183
 6915W        W10659   3.870   0.706   8.375  0.2062 -0.0351 -0.2881
 6916W        W10660   5.167   6.905   2.900 -0.1534  0.1206  0.0203
 6917W        W10661   3.006   3.315   1.339  0.1653  0.1939  0.2065
 6918W        W10662   2.792   6.182   0.152 -0.1684 -0.1971  0.3206
 6919W        W10663   0.365   1.023   1.995  0.0518 -0.1882 -0.1407
 6920W        W10664   5.657   7.473   9.583 -0.4042  0.2303 -0.1125
 6921W        W10665   8.092   3.571   0.066 -0.0681 -0.2085  0.0116
 6922W        W10666   4.614   5.406   1.407 -0.0024 -0.1131 -0.0009
 6923W        W10667   6.869   9.152   3.022 -0.0077 -0.2181 -0.2513
 6924W        W10668   3.162   7.180   2.764  0.0150  0.1072  0.0148
 6925W        W10669   3.193   2.327   8.916 -0.0049 -0.0663 -0.0450
 6926W        W10670   7.289   3.406   3.088  0.2006  0.0612 -0.2965
 6927W        W10671   5.373   0.319   3.210 -0.0859  0.4789  0.1035
 6928W        W10672   6.119  10.189   2.662 -0.0927 -0.1223 -0.1075
 6929W        W10673   8.648   6.416   9.876  0.0887  0.1504 -0.0865
 6930W        W10674   4.939   6.487   3.003  0.1324  0.1315 -0.1596
 6931W        W10675   3.558   0.244   8.049 -0.1605  0.0400  0.1299
 6932W        W10676   4.250   4.456  10.422 -0.0412  0.0249  0.1623
 6933W        W10677   0.165   1.912  11.985  0.1738  0.4161 -0.3983
 6934W        W10678   9.848   6.577   2.064  0.1418 -0.0286 -0.0504
 6935W        W10679   6.277   2.996   3.333 -0.2263 -0.1095 -0.0609
 6936W        W10680   9.305   8.351   8.830  0.0783 -0.1992 -0.1084
 6937W        W10681   0.353   0.183   0.097 -0.2083  0.2303 -0.0374
 6938W        W10682   6.517   3.084   0.082 -0.2251 -0.1403  0.0381
 6939W        W10683   2.474   5.461   2.337  0.1229  0.0364 -0.2442
 6940W        W10684   2.217   5.979   2.406  0.1990  0.0145  0.0371
 6941W        W10685   6.722   8.285   3.163  0.1680  0.3949 -0.0601
 6942W        W10686   0.419   6.267  12.030  0.2362  0.0881  0.1536
 6943W        W10687   3.304   4.472   8.929  0.3893 -0.3039 -0.1152
 6944W        W10688   7.889   7.786   1.956 -0.1102  0.1313  0.1701
 6945W        W10689   4.287   4.604   9.893  0.0333 -0.1241  0.1369
 6946W        W10690   3.598   8.637  11.256  0.0184  0.1806  0.0887
 6947W        W10691   3.053   1.774  11.813 -0.0039 -0.1087 -0.0629
 6948W        W10692   2.737   5.690   0.241  0.0453 -0.0192  0.0773
 6949W        W10693   8.962   1.783   8.984 -0.1689  0.0770  0.0057
 6950W        W10694   7.465   7.429   7.962 -0.0205  0.3481  0.1304
 6951W        W10695   2.017   5.283  10.998 -0.2459  0.1386  0.2499
 6952W        W10696   2.066   1.706  11.582 -0.0537 -0.1268  0.0480
 6953W        W10697   7.901   8.852   7.872  0.1130  0.0774  0.0044
 6954W        W10698   8.378   6.342   8.262  0.0753  0.1029  0.1425
 6955W        W10699   3.141   2.196   0.819 -0.2685 -0.1317 -0.0381
 6956W        W10700   5.246   3.818   9.765  0.0784  0.0541  0.1681
 6957W        W10701   1.331   3.048  10.754 -0.3915  0.2214  0.2720
 6958W        W10702   0.373   4.517   1.063  0.1401  0.3024 -0.1214
 6959W        W10703  10.019   0.516   0.122  0.0182 -0.1957  0.4134
 6960W        W10704   3.401   2.500   1.256 -0.0822 -0.0437 -0.0095
 6961W        W10705   7.780   1.710  10.694  0.1081 -0.2030  0.0591
 6962W        W10706   9.238   2.249   2.186 -0.0485  0.0290 -0.0630
 6963W        W10707   3.713   9.047   8.455  0.1651  0.4820 -0.0904
 6964W        W10708   8.992   0.550  11.259  0.0352  0.0868 -0.0171
 6965W        W10709   0.199   2.280  10.390  0.0319 -0.2040 -0.0576
 6966W        W10710   0.984   3.401   9.444 -0.2114 -0.1613  0.2188
 6967W        W10711   5.056   9.387   2.998 -0.1931  0.0920 -0.2381
 6968W        W10712   5.914   0.549   0.695  0.0365  0.2153 -0.1754
 6969W        W10713   3.787   2.102   7.805 -0.2795 -0.4040  0.1276
 6970W        W10714   4.212   5.847   0.012 -0.1348  0.1807  0.2879
 6971W        W10715   9.860   6.799   0.395 -0.0533 -0.0813 -0.1056
 6972W        W10716   7.112   0.387   8.012 -0.0774  0.2330 -0.1662
 6973W        W10717   5.975   0.264   3.203 -0.1457 -0.1178 -0.2095
 6974W        W10718   7.433   7.501   1.136 -0.2234  0.2270 -0.0661
 6975W        W10719   5.233   4.320   1.409  0.0532 -0.2118  0.0374
 6976W        W10720   0.776   6.053   2.659 -0.3125  0.2909 -0.0569
 6977W        W10721   8.481   1.517   2.045 -0.1192  0.4620  0.1699
 6978W        W10722   9.685   2.966   1.208  0.1369 -0.0968  0.2395
 6979W        W10723   0.833   5.041  10.564  0.1116  0.1660  0.0514
 6980W        W10724   2.995   1.636   3.591  0.1371 -0.0398  0.3907
 6981W        W10725   0.089   8.264   9.128 -0.0501  0.0849  0.0373
 6982W        W10726   0.397   8.871   9.857  0.1197  0.1166 -0.2741
 6983W        W10727   7.844   9.238   2.817 -0.1199  0.3323 -0.1731
 6984W        W10728   8.648   7.553  11.994 -0.4283  0.0169 -0.1191
 6985W        W10729   5.532   8.951   0.243  0.1870 -0.1291  0.0565
 6986W        W10730   4.425   3.610   1.572 -0.0173 -0.4329  0.1016
 6987W        W10731   6.363   9.752  10.835  0.5026  0.1164  0.1662
 6988W        W10732   8.474   4.586  10.275 -0.4030  0.3758  0.3169
 6989W        W10733   9.462   3.213   0.728  0.0542  0.3664  0.3002
 6990W        W10734   3.362   3.159   9.962 -0.2922 -0.2079 -0.0196
 6991W        W10735   9.491   9.824  10.933 -0.3939 -0.3563 -0.1418
 6992W        W10736   8.976   9.329   9.009  0.2810 -0.5877 -0.3362
 6993W        W10737   0.084   7.243   9.854  0.1171 -0.0676  0.1700
 6994W        W10738   1.627   2.540   2.085 -0.0665 -0.0093  0.1983
 6995W        W10739   3.707   5.462   9.969  0.1000  0.1655  0.0085
 6996W        W10740   7.722   2.409   9.522  0.2009  0.0391  0.1348
 6997W        W10741   6.700   7.394   2.724  0.2125 -0.0325  0.1306
 6998W        W10742   0.736   2.400   3.093 -0.0098 -0.1660 -0.2038
 6999W        W10743   1.089   4.061  10.490 -0.0416  0.2277 -0.2107
 7000W        W10744   6.325   2.544   9.119 -0.1940 -0.5372 -0.0209
 7001W        W10745   7.837   4.805   2.924 -0.0334 -0.1101 -0.0958
 7002W        W10746   9.330   5.142   9.010 -0.5132  0.0672 -0.0220
 7003W        W10747   2.232   4.248   2.187  0.0913  0.1980 -0.0093
 7004W        W10748   2.745   5.934   2.355 -0.0771  0.3833 -0.4750
 7005W        W10749   0.558   3.792   3.619  0.2315 -0.0287  0.1090
 7006W        W10750   1.542   5.408  10.862  0.1321 -0.3816 -0.0790
 7007W        W10751   3.789   2.093  11.483  0.1434 -0.0660  0.3213
 7008W        W10752   6.138   4.802   1.472 -0.0651  0.0792  0.4028
 7009W        W10753   4.137   7.439   0.569  0.1006 -0.0806 -0.1247
 7010W        W10754   6.833   4.880   8.578  0.2239  0.1479 -0.0829
 7011W        W10755   1.134   8.728   2.453 -0.1179 -0.0655 -0.0732
 7012W        W10756   4.640   0.752   2.494  0.0428  0.0634 -0.2462
 7013W        W10757   3.781   4.499  11.634 -0.2334  0.1165 -0.1028
 7014W        W10758   4.266   9.040  10.648 -0.1052  0.2937  0.0628
 7015W        W10759   5.510   2.077  12.077  0.0609 -0.1520  0.1686
 7016W        W10760   6.105   5.665  11.883  0.2404 -0.0626  0.2105
 7017W        W10761   8.757   0.077  10.333 -0.3843 -0.1148 -0.3636
 7018W        W10762   1.073   1.448   0.197 -0.3379 -0.2915  0.1871
 7019W        W10763   3.213   9.820   2.441  0.2877  0.1101  0.2473
 7020W        W10764   0.004   7.013   7.355  0.1696  0.0592 -0.0647
 7021W        W10765   6.277   6.669  10.137  0.1220 -0.1212  0.0146
 7022W        W10766   6.039   2.577  11.306 -0.3549 -0.0153 -0.4181
 7023W        W10767   3.806   6.538   2.718  0.1495 -0.0954 -0.3860
 7024W        W10768   6.673   1.772   0.585  0.0962 -0.2504  0.2766
 7025W        W10769   5.851   8.117   1.866  0.1584 -0.0890  0.0846
 7026W        W10770   7.615   7.865   9.410 -0.0869 -0.3594  0.1376
 7027W        W10771   2.550   0.513   2.464 -0.2273 -0.1103 -0.0611
 7028W        W10772   6.785   4.337  11.280  0.0679  0.0324 -0.1006
 7029W        W10773   5.452   6.766  10.681  0.2444  0.3269 -0.0797
 7030W        W10774   0.669   5.537   1.583  0.1964  0.1312 -0.0658
 7031W        W10775   0.205   4.847   0.463  0.0943  0.1165  0.0890
 7032W        W10776   4.576   3.993   1.906  0.2048 -0.0596 -0.1646
 7033W        W10777   7.995   6.104   6.820 -0.1738  0.0616 -0.0292
 7034W        W10778  10.167   2.526   0.540  0.0284 -0.3461 -0.2282
 7035W        W10779   7.193   1.889   9.477 -0.2129  0.0879 -0.0446
 7036W        W10780   3.929   5.827   2.697  0.0710 -0.0507  0.0175
 7037W        W10781   6.598   2.574   9.728 -0.0456  0.2622 -0.4665
 7038W        W10782   5.123   2.176   7.421  0.2617 -0.3578 -0.1368
 7039W        W10783   5.872   2.347   8.767  0.1763  0.0975 -0.1994
 7040W        W10784   8.787   5.014   8.632 -0.0923  0.1063 -0.2054
 7041W        W10785   2.955   2.214  10.479  0.0943  0.3000  0.0672
 7042W        W10786   9.290   7.698   1.582 -0.1815  0.1344 -0.0550
 7043W        W10787   8.442   0.930   1.199 -0.1512 -0.0852 -0.2311
 7044W        W10788   3.059   5.065  11.568 -0.1008 -0.1343  0.2327
 7045W        W10789   4.755   0.057  10.835  0.1354 -0.1765  0.4522
 7046W        W10790   9.994   9.781   9.481 -0.2009 -0.1310 -0.0084
 7047W        W10791   8.137   1.388  10.611 -0.0910  0.2655  0.1792
 7048W        W10792   0.538   1.438   0.638  0.2751 -0.3128 -0.1782
 7049W        W10793  10.112   6.974   1.809  0.1015  0.4007 -0.2110
 7050W        W10794   9.762   2.317  10.940 -0.0363  0.0186  0.2694
 7051W        W10795   6.227   6.424   1.953 -0.2525  0.0102 -0.0162
 7052W        W10796   1.191   6.091   0.937  0.1761 -0.0511  0.2206
 7053W        W10797   7.833   4.657   8.554  0.0442  0.1172  0.0110
 7054W        W10798   5.567   4.712   9.185 -0.0570  0.1885  0.2684
 7055W        W10799   0.175   5.571   9.657  0.3888 -0.0179  0.1412
 7056W        W10800   6.883   8.025  11.027 -0.1336 -0.0652  0.0035
 7057W        W10801   8.314   0.619  12.016  0.2947 -0.1852 -0.0160
 7058W        W10802   2.152   8.671   3.299 -0.2854 -0.0987 -0.0958
 7059W        W10803   0.290   7.981   0.296 -0.4817  0.0593  0.0747
 7060W        W10804   6.766   0.225   2.038  0.3657  0.0140 -0.1604
 7061W        W10805   4.986   4.526   8.598 -0.0270  0.1284 -0.0732
 7062W        W10806   9.928   2.642   3.342  0.0852  0.0739 -0.1137
 7063W        W10807   4.190   2.545   2.727  0.1213  0.2119 -0.1615
 7064W        W10808   4.175   7.169   9.962  0.2226  0.1875 -0.1030
 7065W        W10809   2.038   9.201   0.490  0.1323  0.0958 -0.1181
 7066W        W10810   1.324   0.607  10.090  0.0979 -0.1744  0.1571
 7067W        W10811   1.894   7.590   2.244 -0.0802  0.0878 -0.0585
 7068W        W10812   3.834   4.487   1.822 -0.0113  0.1017 -0.1836
 7069W        W10813   0.158   6.045  10.641  0.1693  0.0681 -0.1499
 7070W        W10814   7.895   7.307   2.926  0.2224 -0.0671 -0.1118
 7071W        W10815   2.984   7.062   1.841  0.0198  0.1202 -0.3861
 7072W        W10816   3.875   9.296   3.433 -0.1601  0.1588  0.1801
 7073W        W10817   9.669   4.608   8.746 -0.3578  0.0256 -0.2121
 7074W        W10818   3.169   9.395   1.656  0.0299 -0.0122 -0.1694
 7075W        W10819   0.602   3.596   0.469 -0.0278 -0.1910 -0.0760
 7076W        W10820   6.579   1.743   9.371 -0.0154  0.1068  0.0019
 7077W        W10821   7.214   8.413   7.975  0.0196 -0.0086  0.0066
 7078W        W10822   3.662   5.577   1.706 -0.1483  0.2683 -0.2239
 7079W        W10823   4.146   2.503   7.922 -0.0507 -0.0523  0.2575
 7080W        W10824   1.771   3.363   8.348 -0.1665 -0.2791 -0.0115
 7081W        W10825   2.803   9.929   2.073 -0.2439  0.1574 -0.2316
 7082W        W10826   2.567   9.463   8.799 -0.0676 -0.0233  0.0147
 7083W        W10827   7.088   4.576   7.344  0.0301 -0.0673 -0.0881
 7084W        W10828   8.974   2.706  10.260  0.1296  0.1009  0.3498
 7085W        W10829  10.160   7.310   3.358  0.3560  0.0004 -0.0662
 7086W        W10830   3.442   1.287   1.853  0.2071 -0.3829  0.0171
 7087W        W10831   5.670   2.049  10.550  0.0086  0.0036 -0.2738
 7088W        W10832   5.776   6.268   0.825 -0.1898 -0.0933  0.4611
 7089W        W10833   6.088   1.930   7.994 -0.0108  0.1215  0.0803
 7090W        W10834   6.768   6.618  11.626 -0.0282 -0.2036  0.0246
 7091W        W10835   9.390   2.649   2.564 -0.1850 -0.1566  0.0772
 7092W        W10836   4.513   4.041   2.740  0.1554  0.1103  0.3186
 7093W        W10837   8.435   8.560   8.657 -0.0236 -0.1100  0.3079
 7094W        W10838   3.015   8.583  11.694 -0.2392  0.0859 -0.1502
 7095W        W10839   6.008   3.298   9.244 -0.0177 -0.1310  0.0566
 7096W        W10840   5.202   1.626   0.599 -0.1593 -0.1103  0.1354
 7097W        W10841  10.015   2.579   1.463 -0.1840  0.2008 -0.0883
 7098W        W10842   7.359   5.686   9.691  0.1125  0.0224 -0.3487
 7099W        W10843   9.474   6.231  11.117  0.0130  0.1094  0.0704
 7100W        W10844   7.797   2.406   8.332  0.2387  0.2824  0.1014
 7101W        W10845   6.224   6.597  11.574  0.0442  0.5547  0.0189
 7102W        W10846   5.659   8.041   0.075  0.0114  0.1050  0.1862
 7103W        W10847   4.727   9.292  10.784 -0.0104  0.0092  0.1774
 7104W        W10848   7.634   7.860  11.175 -0.0165  0.2410  0.2315
 7105W        W10849   4.614   9.736  11.041  0.2546  0.3125  0.0775
 7106W        W10850   6.415   2.641   7.832  0.0324 -0.2145  0.2350
 7107W        W10851   1.500   1.725   0.977  0.1269 -0.0888  0.0817
 7108W        W10852   9.118   3.542   2.576  0.2353 -0.2375 -0.4102
 7109W        W10853   8.777   7.216  11.614  0.1219  0.1202  0.0028
 7110W        W10854   4.708   1.743  10.139 -0.0263 -0.1491 -0.1106
 7111W        W10855   0.717   8.632  10.163 -0.0625 -0.0821 -0.1487
 7112W        W10856   3.688   6.140  10.757 -0.0803  0.0516  0.0784
 7113W        W10857   8.044   1.875   8.291 -0.0882 -0.2224  0.0380
 7114W        W10858   6.055   3.618   8.027  0.0291  0.2774  0.3981
 7115W        W10859   2.063   3.533   3.417 -0.0393 -0.0619 -0.2850
 7116W        W10860   6.740  10.066   8.052  0.3259  0.0529 -0.0219
 7117W        W10861   7.792   5.714   0.579  0.1415 -0.5330  0.0093
 7118W        W10862   3.885   0.056  12.053 -0.0568  0.1863 -0.0589
 7119W        W10863   6.741   6.026  10.355 -0.1324  0.1498  0.2756
 7120W        W10864   0.999   1.472   8.554  0.0350 -0.1270 -0.1151
 7121W        W10865   2.746   4.749   0.293  0.0208  0.0925  0.1651
 7122W        W10866   9.830   9.026   8.296  0.2493 -0.0605 -0.1191
 7123W        W10867   3.266   0.824   9.888 -0.0755  0.1602 -0.1926
 7124W        W10868   5.171   3.155   0.519  0.0519 -0.3018  0.1231
 7125W        W10869   0.244   6.006   3.241 -0.1692  0.2824  0.1919
 7126W        W10870   0.885   9.074  11.216  0.1203  0.1767 -0.0632
 7127W        W10871   6.908   6.267   7.933  0.0582  0.2786  0.0913
 7128W        W10872   9.997   2.248   9.227 -0.0818  0.1970 -0.1552
 7129W        W10873   0.404   7.532   3.137  0.2260  0.0443  0.1585
 7130W        W10874   2.712   7.783   2.437  0.0953  0.0657  0.1968
 7131W        W10875   1.650   7.519   0.720  0.1247  0.0986 -0.1453
 7132W        W10876   8.510   5.118   8.208  0.0395 -0.4784 -0.2175
 7133W        W10877   8.609  10.076   0.814  0.4096  0.0452 -0.0146
 7134W        W10878   9.982   4.890   1.427 -0.3405 -0.0122 -0.0479
 7135W        W10879   1.526   6.809  11.464 -0.2015 -0.2254 -0.1580
 7136W        W10880   8.012   5.785   9.620  0.0821 -0.1900  0.1575
 7137W        W10881   0.130   0.884   2.827 -0.0317 -0.1764 -0.0631
 7138W        W10882   3.907   9.731   3.120 -0.1886 -0.2667 -0.1379
 7139W        W10883   0.052   0.663   8.170 -0.1586 -0.2340  0.0216
 7140W        W10884   8.355   4.227   9.913  0.0459  0.5713 -0.1269
 7141W        W10885   0.818  10.176  10.517 -0.0426 -0.1087 -0.2407
 7142W        W10886   3.768   6.786   0.781  0.1181 -0.1885  0.0258
 7143W        W10887   6.125   4.342   1.213 -0.0168  0.3682 -0.0966
 7144W        W10888  10.074   6.548  10.371 -0.0286 -0.0572 -0.1617
 7145W        W10889   9.893   1.981  11.903 -0.1047 -0.1323  0.2656
 7146W        W10890   3.869   2.754  10.599 -0.1533 -0.1257  0.1490
 7147W        W10891   1.353   7.950  11.278 -0.1285 -0.0868  0.0825
 7148W        W10892  10.178   4.394   0.630  0.0531 -0.2789  0.1524
 7149W        W10893   0.849   6.370  11.752 -0.0906  0.0453  0.2034
 7150W        W10894   7.595   5.299   0.348 -0.1985 -0.3836 -0.0795
 7151W        W10895   4.730   8.194   0.378 -0.0497 -0.3665 -0.0900
 7152W        W10896  10.010   3.599   2.268  0.0023 -0.0002  0.0025
 7153W        W10897   1.630   6.360   0.926  0.0429 -0.3013  0.1318
 7154W        W10898   5.882   8.097   1.361  0.1864  0.3174 -0.0415
 7155W        W10899   2.621   2.801   0.416 -0.0832  0.0394  0.1508
 7156W        W10900   7.848   0.194  12.034  0.1045  0.0156  0.1876
 7157W        W10901   6.423   3.047   1.103 -0.1793 -0.1339  0.0740
 7158W        W10902   0.716   4.871  11.891 -0.0424  0.1561 -0.3062
 7159W        W10903   4.374   2.653   8.801  0.0821 -0.0452 -0.1203
 7160W        W10904   5.680   4.518   3.458  0.2013 -0.0758 -0.1261
 7161W        W10905   5.455   4.753   3.877  0.1097 -0.2954  0.0836
 7162W        W10906   1.971   1.867   8.443 -0.3022  0.0355 -0.2615
 7163W        W10907   4.026   9.347   9.717 -0.0711  0.0833  0.0157
 7164W        W10908   4.511   3.636   9.397  0.2401 -0.1297 -0.2495
 7165W        W10909  10.044   2.819  11.850  0.4137 -0.0150 -0.0354
 7166W        W10910   4.216   7.203   1.930 -0.2354 -0.0823 -0.0324
 7167W        W10911   6.732   6.418  10.060  0.0944 -0.1671 -0.2240
 7168W        W10912   9.498   7.253   8.120 -0.3542 -0.3017 -0.2257
 7169W        W10913   5.490   1.123   2.475  0.2281 -0.5038 -0.1811
 7170W        W10914   7.636   0.616   8.092 -0.0135 -0.1378  0.0488
 7171W        W10915   0.646   7.713  11.701 -0.2473 -0.1401  0.3791
 7172W        W10916   2.081   0.533   0.233 -0.3996 -0.1549  0.2690
 7173W        W10917   4.244   4.482  10.924 -0.0766 -0.3182  0.0447
 7174W        W10918   6.068   6.175  11.806 -0.1240 -0.2404  0.0165
 7175W        W10919   7.002   8.472  11.190 -0.1671  0.2303  0.0782
 7176W        W10920   7.215   6.700   3.957  0.3811 -0.3086  0.2597
 7177W        W10921   6.013   0.450   7.328  0.0699  0.0423  0.0234
 7178W        W10922   4.870   9.262   7.384  0.0221 -0.1073  0.2128
 7179W        W10923   8.662   6.294   9.069 -0.0817  0.1597 -0.1601
 7180W        W10924   2.834   1.245   8.757  0.1650 -0.2055  0.1843
 7181W        W10925   1.884   5.549   8.700 -0.3440  0.6633 -0.0199
 7182W        W10926   4.378   2.159   3.075  0.1129 -0.0317 -0.1574
 7183W        W10927   4.333   9.267   0.687  0.2017 -0.0271  0.1051
 7184W        W10928   4.149   6.629   1.183 -0.5573 -0.1416  0.0807
 7185W        W10929   1.982   2.336   2.322 -0.1838 -0.2733  0.0830
 7186W        W10930   5.303   1.730   8.416  0.3323  0.0192  0.3605
 7187W        W10931   2.090   8.086  10.717 -0.1185  0.2628  0.3949
 7188W        W10932   1.117   1.065   2.269 -0.1269  0.0892 -0.0374
 7189W        W10933   3.421   5.197   9.478 -0.0729 -0.4674 -0.4414
 7190W        W10934   8.846   1.210   8.227 -0.0954  0.1878 -0.0688
 7191W        W10935   6.897   6.557  10.528 -0.0265  0.0032  0.2212
 7192W        W10936   1.358   6.403   0.522  0.1564  0.2303  0.0341
 7193W        W10937   5.001   1.166   9.914 -0.1282 -0.1999 -0.0542
 7194W        W10938   9.035   0.026   0.222 -0.1784 -0.3637  0.2395
 7195W        W10939   4.088   9.341   8.472 -0.0166 -0.0972  0.1052
 7196W        W10940   9.773   3.646  11.239 -0.2025  0.0821 -0.3403
 7197W        W10941   6.123   0.226   8.670  0.4878  0.2185 -0.0558
 7198W        W10942   2.511   5.438   0.637 -0.0934  0.0255  0.5816
 7199W        W10943   4.935   0.745   0.531  0.0423 -0.3544  0.2246
 7200W        W10944   5.188   2.429   3.610  0.0520 -0.2267  0.0565
 7201W        W10945   6.018   5.699   7.178 -0.2588 -0.1784  0.2251
 7202W        W10946   9.707   3.985   8.472 -0.0385 -0.0252  0.1556
 7203W        W10947   2.364   6.636   0.873  0.2307  0.0114  0.0795
 7204W        W10948   3.965   5.166   7.831 -0.0340  0.1752  0.4265
 7205W        W10949   4.842   6.521   7.383 -0.0586  0.1431 -0.1759
 7206W        W10950   5.910   0.164   0.113 -0.3810  0.1433  0.0403
 7207W        W10951   7.192   7.660  10.164  0.1572 -0.2833  0.0635
 7208W        W10952   9.974   1.501  11.571 -0.4958  0.0752 -0.1348
 7209W        W10953   1.571   3.160   1.383 -0.0590 -0.1775  0.1416
 7210W        W10954   4.692   9.710  10.468 -0.2768  0.1964 -0.2020
 7211W        W10955   9.041   1.860  11.510 -0.1955 -0.1958  0.0496
 7212W        W10956   5.330   3.045   9.098  0.3899 -0.0757  0.1796
 7213W        W10957   8.921   0.286   2.785 -0.1118  0.0571  0.1247
 7214W        W10958   8.850   5.314  10.610 -0.1717 -0.0422  0.1367
 7215W        W10959   9.627   0.450   1.542  0.1049  0.0549  0.3438
 7216W        W10960   5.463   2.075   0.365 -0.3079 -0.0378 -0.3772
 7217W        W10961   7.963   7.961  10.702 -0.2756  0.0476  0.0909
 7218W        W10962   8.089   9.267   8.845 -0.0549  0.1013  0.2457
 7219W        W10963   2.787   5.291   8.810  0.1703  0.1807 -0.0432
 7220W        W10964   1.818   6.000   2.701  0.1365 -0.5757  0.0724
 7221W        W10965   0.326   2.468   9.128 -0.2641 -0.2136 -0.0541
 7222W        W10966   1.652   3.842   2.356 -0.0704 -0.3270 -0.1932
 7223W        W10967   3.439   3.258  11.486 -0.1462 -0.1875  0.1607
 7224W        W10968   6.349   8.981   3.351 -0.0281  0.3135  0.0870
 7225W        W10969   9.549   4.900  11.155  0.0797 -0.1128 -0.2135
 7226W        W10970   6.037   6.251  10.746  0.2016  0.0270  0.1481
 7227W        W10971   0.395   8.029   1.832 -0.0334 -0.0422  0.1172
 7228W        W10972   4.185   0.218  11.615  0.1586  0.0939 -0.2703
 7229W        W10973   7.571   3.784   8.220 -0.2060 -0.0373 -0.0361
 7230ION    NA+10974   2.406   1.957   3.094 -0.2676 -0.2640  0.3149
 7231ION    NA+10975   9.527   5.379  11.485 -0.2573  0.1329  0.6484
 7232ION    NA+10976   9.149   9.090  11.152  0.2330  0.0864 -0.1336
 7233ION    NA+10977   7.752   1.876   9.509  0.2358 -0.1775  0.1268
 7234ION    NA+10978   7.972   6.206   0.707  0.0131 -0.0537 -0.1877
 7235ION    NA+10979   5.718   0.607   2.874  0.0040  0.3627 -0.0472
 7236ION    NA+10980   7.170   2.454   2.399 -0.2474 -0.0282 -0.0191
 7237ION    NA+10981   8.065   7.382  10.546  0.0510 -0.2111  0.0530
 7238ION    NA+10982   4.590   3.445   8.246 -0.0351  0.2053 -0.2895
 7239ION    NA+10983   8.734   4.865   3.848 -0.3405  0.2142 -0.3362
 7240ION    NA+10984   3.640   9.293  11.969 -0.0160 -0.0300 -0.0314
 7241ION    NA+10985  10.192   2.352  11.777  0.0104 -0.1582  0.0551
 7242ION    NA+10986   6.972   0.755   0.564 -0.2037 -0.1391  0.0267
 7243ION    NA+10987   8.452   2.009   1.172  0.0788  0.0208 -0.0736
 7244ION    NA+10988   1.015   0.957   7.926  0.2141  0.2991 -0.1681
 7245ION    NA+10989   5.604   1.926   4.339 -0.0869  0.0798  0.1132
 7246ION    NA+10990   4.780   5.614   7.643  0.0595  0.0172 -0.1301
 7247ION    NA+10991   7.565   5.587   1.907  0.1729  0.0113 -0.0037
 7248ION    NA+10992   4.916   8.083  10.591  0.0178  0.0903  0.0450
 7249ION    NA+10993   3.124   7.981  11.777  0.0734 -0.1497 -0.0418
 7250ION    NA+10994   9.761   5.816   3.571 -0.0407  0.0645  0.4329
 7251ION    NA+10995   7.205   5.551   8.009  0.1642  0.1319  0.3462
 7252ION    NA+10996   8.769   6.504   3.011 -0.3177 -0.1817  0.0066
 7253ION    NA+10997   3.338   4.958   3.271 -0.1631  0.2349  0.2052
 7254ION    NA+10998   1.490   6.013   1.390 -0.0460 -0.1374  0.1004
 7255ION    NA+10999   5.781   2.727   2.770  0.4063 -0.1526  0.0541
 7256ION    NA+11000   0.158   2.274   1.331 -0.0484 -0.0402  0.2900
 7257ION    NA+11001   1.993   0.178  10.474  0.2345  0.1669  0.1531
 7258ION    NA+11002   6.419   9.583   8.707  0.0030  0.2810 -0.0546
 7259ION    NA+11003  10.138   8.660   1.154  0.0249 -0.0833 -0.1779
 7260ION    NA+11004   1.391   3.180   9.663 -0.0150 -0.2554 -0.1822
 7261ION    NA+11005   2.866   9.273   3.357  0.0668 -0.2055  0.0316
 7262ION    NA+11006   8.073   6.817  12.077  0.2842  0.1364 -0.2446
 7263ION    NA+11007   6.788   0.874   1.964 -0.4103 -0.2348  0.2318
 7264ION    NA+11008   6.442   3.492   0.590  0.0880 -0.3014  0.0403
 7265ION    NA+11009   8.483   6.072   2.122  0.0123 -0.0770  0.2817
 7266ION    NA+11010   2.111   3.455  11.970  0.1937 -0.2115  0.0934
 7267ION    NA+11011   1.554   6.912   3.616  0.2399  0.0056 -0.0453
 7268ION    NA+11012   1.188   7.080   7.462  0.0979  0.0551 -0.1701
 7269ION    NA+11013   0.860   5.105   9.518 -0.1232 -0.3543  0.0622
 7270ION    NA+11014   5.076   7.804   0.222 -0.1151  0.0756 -0.0343
 7271ION    NA+11015   6.731   7.800   3.592  0.2876  0.2537 -0.3823
 7272ION    NA+11016   8.124   8.720   3.619  0.0193  0.1961  0.0182
 7273ION    NA+11017   6.822   2.168   0.321  0.0364  0.0184 -0.3080
 7274ION    NA+11018   0.647   1.577   8.231 -0.2447 -0.2644  0.0059
 7275ION    NA+11019   9.946   1.268   9.688  0.2211 -0.0876 -0.0867
 7276ION    NA+11020   6.786   6.878   3.580 -0.2969  0.1128 -0.2228
 7277ION    NA+11021   5.888   8.516  10.523  0.0485  0.0678  0.0770
 7278ION    NA+11022   7.259   8.002  11.874 -0.0816  0.1473 -0.2816
 7279ION    NA+11023   5.347   4.879   8.729 -0.1699 -0.0151 -0.0111
 7280ION    NA+11024   2.839   4.581  11.613 -0.0304 -0.3408 -0.1018
 7281ION    NA+11025   4.682   6.300   9.002  0.1271 -0.0907 -0.1873
 7282ION    NA+11026   0.020   5.875   7.939 -0.3347 -0.4712  0.1465
 7283ION    NA+11027   2.004   3.376   2.293 -0.1440 -0.2874  0.2894
 7284ION    NA+11028   4.838   5.470   9.035  0.0380  0.0156 -0.0980
 7285ION    NA+11029   3.870   3.450  10.810  0.0669  0.2467  0.2242
 7286ION    NA+11030   4.744   3.655   3.670  0.0768 -0.1679  0.0928
 7287ION    NA+11031   5.352  10.176   9.791  0.2630  0.1237  0.0721
 7288ION    NA+11032   6.865   3.286   3.854 -0.0743 -0.2104 -0.0593
 7289ION    NA+11033   9.499   7.861   1.058  0.2189 -0.2882  0.1186
 7290ION    NA+11034   0.454   4.880  10.242  0.0607  0.0658  0.2029
 7291ION    NA+11035   6.789   7.679   9.815  0.1224  0.2987 -0.2154
 7292ION    NA+11036   4.412   3.167  12.103  0.1378 -0.2494 -0.0888
 7293ION    NA+11037   8.265   8.594   0.340  0.1801  0.0379 -0.0162
 7294ION    NA+11038   4.298   2.664  10.906 -0.1081 -0.3504  0.0396
 7295ION    NA+11039   6.025   2.806   0.942  0.2532  0.0531  0.2798
 7296ION    NA+11040   7.072   3.361   1.315  0.0880 -0.1171  0.1537
 7297ION    NA+11041   4.986   3.317   9.919  0.0773  0.1746 -0.0453
 7298ION    NA+11042   5.593   4.753   2.151  0.2291  0.0066 -0.0125
 7299ION    NA+11043   1.179   3.108  12.112  0.0672 -0.3160 -0.0078
 7300ION    NA+11044   5.465   3.931   2.237 -0.0003 -0.2505  0.0414
 7301ION    NA+11045   3.658   9.760   7.497  0.0402  0.0197 -0.3429
 7302ION    NA+11046   6.012   4.040   3.711 -0.0848  0.4281 -0.2076
 7303ION    NA+11047  10.083   8.972  11.084 -0.3461  0.0179  0.0184
 7304ION    NA+11048   8.852   0.596   3.318  0.1714  0.3281  0.0134
 7305ION    NA+11049   6.743   1.511   1.408 -0.0092  0.2172 -0.1739
 7306ION    CL-11050   6.013   1.473   8.404  0.0342 -0.0827 -0.0047
 7307ION    CL-11051   6.726   1.026   1.478 -0.0581  0.4602 -0.0988
 7308ION    CL-11052   4.579   2.585  11.321 -0.1441 -0.2022 -0.1566
 7309ION    CL-11053   6.778   2.094   9.754  0.1504  0.1184  0.0980
 7310ION    CL-11054   3.527   6.692  12.083 -0.0894 -0.1253  0.0688
 7311ION    CL-11055   5.806   2.978   3.204  0.0947  0.0750  0.2360
 7312ION    CL-11056   0.949   6.623   2.735 -0.1387 -0.0633  0.1124
 7313ION    CL-11057   2.785   4.110  11.577 -0.1138  0.0518 -0.0385
 7314ION    CL-11058   9.627   9.928   1.032 -0.2391 -0.1753 -0.0931
 7315ION    CL-11059   8.792   6.951   2.757  0.1642 -0.1589 -0.0498
 7316ION    CL-11060   6.895   2.855   2.536 -0.1226  0.1887  0.4052
 7317ION    CL-11061   6.706   3.444   0.980  0.0780 -0.0134  0.0675
 7318ION    CL-11062   5.489   8.459  10.915 -0.0535  0.0639 -0.1997
 7319ION    CL-11063   9.397   9.071  10.679 -0.1706  0.1468 -0.0369
 7320ION    CL-11064   1.424   3.174   9.185  0.5231  0.1224  0.2000
 7321ION    CL-11065   6.464   2.354  12.042 -0.0652 -0.1750  0.1194
 7322ION    CL-11066   7.200   8.365  12.190  0.0884  0.2236 -0.4197
 7323ION    CL-11067   8.068   6.595  10.651  0.3059 -0.0678 -0.0800
 7324ION    CL-11068   3.208   9.188   8.236  0.5397  0.0069 -0.0081
 7325ION    CL-11069   6.218   9.983   3.098  0.1946 -0.3723 -0.0458
 7326ION    CL-11070   1.465   5.507   1.503  0.1934 -0.0555 -0.1758
 7327ION    CL-11071   0.984   8.501   3.239  0.3060 -0.0539 -0.1990
 7328ION    CL-11072   8.980   3.534   8.527 -0.0586  0.0472  0.0752
 7329ION    CL-11073   9.825   9.442  10.853  0.2895 -0.0295 -0.1001
 7330ION    CL-11074   9.533   6.260   2.908 -0.4302  0.0322 -0.1403
 7331ION    CL-11075   7.825   4.206  10.969  0.4323  0.1718 -0.1387
 7332ION    CL-11076   5.991   8.492   9.972  0.1368  0.1702  0.1578
 7333ION    CL-11077   6.050   8.964   2.800  0.1220 -0.2041  0.3013
 7334ION    CL-11078   7.431   5.204   2.137 -0.1443  0.2467 -0.0431
 7335ION    CL-11079   2.787   7.858  12.122 -0.1288 -0.1291 -0.0744
 7336ION    CL-11080   3.216   5.430   9.033  0.0323 -0.0584  0.0424
 7337ION    CL-11081   4.938  10.075   9.452  0.4956  0.1769 -0.1474
 7338ION    CL-11082   4.814   4.487   3.133 -0.0464 -0.0966  0.0030
 7339ION    CL-11083   9.237   5.179   3.192 -0.0747 -0.0144  0.5661
 7340ION    CL-11084   7.175   1.842   0.584 -0.0072 -0.1364  0.2661
 7341ION    CL-11085   9.622   9.009  11.361  0.1338 -0.0484  0.3347
 7342ION    CL-11086   8.476   1.550   2.544  0.1677  0.0589  0.2243
 7343ION    CL-11087   8.830   9.099   2.893 -0.0565  0.1955 -0.0823
 7344ION    CL-11088   8.834   3.495   3.045 -0.1390  0.0122  0.1566
 7345ION    CL-11089   8.087   6.356   0.167 -0.1048 -0.1445  0.3017
 7346ION    CL-11090   9.909  10.158   2.847  0.3989  0.0599  0.1958
 7347ION    CL-11091   0.911   3.575   0.094  0.2747  0.3753 -0.0545
 7348ION    CL-11092   2.967   6.692   1.066 -0.0313 -0.0978  0.4217
 7349ION    CL-11093   8.928   9.902  11.290  0.0012 -0.2073  0.1866
 7350ION    CL-11094   6.648   6.607   3.178 -0.0130 -0.1413 -0.2782
 7351ION    CL-11095   6.295   9.823   8.300 -0.1081 -0.2615  0.1636
 7352ION    CL-11096   7.051   8.074   9.654 -0.0664 -0.0901 -0.1517
 7353ION    CL-11097   0.843   6.496   0.589  0.0789  0.3522  0.0427
 7354ION    CL-11098   7.251   8.955   3.343  0.2238  0.1239  0.1002
 7355ION    CL-11099  10.077   3.851   9.748  0.2929 -0.1118 -0.4191
 7356ION    CL-11100  10.017   2.195   0.954  0.2635 -0.1859 -0.1080
 7357ION    CL-11101   8.053   7.214   0.154  0.1143  0.2108 -0.0800
 7358ION    CL-11102   2.258   1.447   3.225  0.1063 -0.0976 -0.1811
 7359ION    CL-11103  10.139   1.411   9.215 -0.1321  0.1748  0.1815
 7360ION    CL-11104   9.922   5.104  11.497  0.1348  0.0287  0.0496
 7361ION    CL-11105   8.788   8.548   3.078  0.0374  0.0685 -0.2019
 7362ION    CL-11106   3.623   3.338  11.954 -0.1290 -0.1727  0.0804
 7363ION    CL-11107   9.967   8.160   0.996  0.3201 -0.1630  0.1900
 7364ION    CL-11108   2.417   0.212  10.751  0.0998  0.4197 -0.0292
 7365ION    CL-11109   2.260   6.299   9.876  0.2872 -0.1182 -0.0849
 7366ION    CL-11110   4.815   6.071   9.456 -0.3088 -0.2797 -0.0053
 7367ION    CL-11111   5.902   0.868   3.240  0.2920 -0.0647  0.1015
 7368ION    CL-11112   5.838   4.325   2.301  0.1623  0.1497  0.2972
 7369ION    CL-11113   9.746   0.893   9.904 -0.1734  0.2605  0.2172
 7370ION    CL-11114   9.299   1.437   0.774  0.2459  0.0318 -0.0370
 7371ION    CL-11115   8.165   8.588  12.093  0.1167 -0.1229 -0.1593
 7372ION    CL-11116   0.370   8.573   1.441  0.1600  0.3744  0.0520
 7373ION    CL-11117   1.916   3.258   1.706  0.3564  0.0159 -0.0880
 7374ION    CL-11118   5.977   9.215   8.684 -0.0451  0.1565  0.0815
 7375ION    CL-11119   4.271   3.172  10.792 -0.0755 -0.0255 -0.5567
 7376ION    CL-11120   0.318   5.078   9.769  0.0340  0.0783  0.0382
 7377ION    CL-11121   5.035   5.268   8.609 -0.1443 -0.0694  0.2306
 7378ION    CL-11122   6.471   1.619   3.583 -0.1025  0.0964  0.0791
 7379ION    CL-11123   7.984   5.993   2.075  0.0462  0.0433 -0.1715
 7380ION    CL-11124   5.975   3.356   0.785  0.3269 -0.3052 -0.0014
 7381ION    CL-11125   7.403   0.456  12.025  0.0368 -0.2492 -0.1169
  10.19350  10.19350  12.21815
