Protein in INSANE! Membrane UpperLeaflet>POPC=1.0 LowerLeaflet>POPC=1.0
11530
    1AU     AUC    1   5.241   5.293   6.011
    1AU     AUC    2   5.527   5.333   5.856
    1AU     AUC    3   5.514   5.332   6.183
    1AU     AUC    4   4.954   5.282   5.838
    1AU     AUC    5   4.980   5.279   6.194
    1AU     AUC    6   5.054   5.536   6.037
    1AU     AUC    7   5.378   5.568   6.018
    1AU     AUC    8   5.080   5.013   5.987
    1AU     AUC    9   5.444   5.057   6.024
    1AU     AUC   10   5.273   5.118   6.275
    1AU     AUC   11   5.231   5.453   6.296
    1AU     AUC   12   5.271   5.147   5.733
    1AU     AUC   13   5.236   5.474   5.744
    1AU     AUC   14   5.845   5.349   5.686
    1AU     AUC   15   5.874   5.363   6.048
    1AU     AUC   16   5.820   5.348   6.391
    1AU     AUC   17   4.661   5.266   5.668
    1AU     AUC   18   4.630   5.256   6.030
    1AU     AUC   19   4.675   5.243   6.383
    1AU     AUC   20   4.873   5.839   6.043
    1AU     AUC   21   5.214   5.907   6.006
    1AU     AUC   22   5.536   5.893   6.011
    1AU     AUC   23   4.911   4.699   5.939
    1AU     AUC   24   5.262   4.712   5.970
    1AU     AUC   25   5.628   4.762   6.005
    1AU     AUC   26   5.287   4.893   6.556
    1AU     AUC   27   5.236   5.239   6.617
    1AU     AUC   28   5.247   5.611   6.585
    1AU     AUC   29   5.305   4.965   5.432
    1AU     AUC   30   5.263   5.305   5.437
    1AU     AUC   31   5.239   5.661   5.453
    1AU     AUC   32   5.556   5.087   6.500
    1AU     AUC   33   5.538   5.458   6.523
    1AU     AUC   34   5.586   5.113   5.556
    1AU     AUC   35   5.592   5.490   5.528
    1AU     AUC   36   4.955   5.058   6.502
    1AU     AUC   37   4.954   5.424   6.518
    1AU     AUC   38   4.952   5.145   5.517
    1AU     AUC   39   4.921   5.485   5.524
    1AU     AUC   40   5.723   5.630   5.849
    1AU     AUC   41   5.702   5.619   6.225
    1AU     AUC   42   4.751   5.549   5.839
    1AU     AUC   43   4.751   5.556   6.234
    1AU     AUC   44   5.766   5.036   5.866
    1AU     AUC   45   5.749   5.047   6.179
    1AU     AUC   46   4.743   4.979   5.811
    1AU     AUC   47   4.777   4.963   6.155
    1AU     AUC   48   5.049   5.766   6.320
    1AU     AUC   49   5.398   5.780   6.310
    1AU     AUC   50   5.090   4.802   6.249
    1AU     AUC   51   5.464   4.780   6.284
    1AU     AUC   52   5.016   5.741   5.705
    1AU     AUC   53   5.411   5.770   5.700
    1AU     AUC   54   5.045   4.829   5.663
    1AU     AUC   55   5.446   4.834   5.696
    1AU    AUSL   56   5.800   5.202   6.824
    1AU    AUSL   57   5.678   4.735   6.689
    1AU     AUL   58   5.965   4.830   6.876
    1AU       S   59   6.059   4.470   6.593
    1AU     LIG   60   6.119   4.134   6.933
    1AU     LIG   61   6.355   3.813   7.226
    1AU       S   62   5.926   5.167   7.182
    1AU     LIG   63   6.165   5.264   7.492
    1AU     LIG   64   6.044   5.147   7.907
    1AU    AUSL   65   5.391   5.051   6.750
    1AU    AUSL   66   5.092   5.350   6.923
    1AU     AUL   67   5.300   5.246   7.131
    1AU       S   68   5.585   4.893   7.139
    1AU     LIG   69   5.675   4.913   7.599
    1AU     LIG   70   5.755   4.714   8.041
    1AU       S   71   4.575   5.119   7.201
    1AU     LIG   72   4.672   5.352   7.596
    1AU     LIG   73   4.620   5.449   8.052
    1AU    AUSL   74   5.426   5.492   6.711
    1AU    AUSL   75   5.848   5.559   6.590
    1AU     AUL   76   5.681   5.491   6.969
    1AU       S   77   5.293   5.758   7.074
    1AU     LIG   78   5.581   5.938   7.391
    1AU     LIG   79   5.866   5.660   7.635
    1AU       S   80   6.070   5.649   6.760
    1AU     LIG   81   6.546   5.681   6.766
    1AU     LIG   82   6.753   5.962   7.095
    1AU    AUSL   83   5.860   5.354   5.310
    1AU    AUSL   84   5.645   5.850   5.303
    1AU     AUL   85   5.817   5.618   5.049
    1AU       S   86   5.827   5.179   4.853
    1AU     LIG   87   6.102   5.136   4.469
    1AU     LIG   88   6.193   4.983   4.026
    1AU       S   89   5.937   6.047   5.206
    1AU     LIG   90   6.077   6.445   4.983
    1AU     LIG   91   6.299   6.612   4.591
    1AU    AUSL   92   5.531   5.062   5.247
    1AU    AUSL   93   5.816   5.064   5.636
    1AU     AUL   94   5.971   5.061   5.272
    1AU       S   95   6.135   4.402   5.390
    1AU     LIG   96   6.397   4.119   5.092
    1AU     LIG   97   6.535   4.157   4.608
    1AU       S   98   5.578   4.916   4.996
    1AU     LIG   99   5.379   4.722   4.623
    1AU     LIG  100   5.655   4.660   4.224
    1AU    AUSL  101   5.434   5.478   5.329
    1AU    AUSL  102   5.135   5.142   5.106
    1AU     AUL  103   5.404   5.361   4.987
    1AU       S  104   4.962   5.219   4.798
    1AU     LIG  105   5.037   5.051   4.366
    1AU     LIG  106   4.636   4.956   4.112
    1AU       S  107   5.799   4.896   4.818
    1AU     LIG  108   5.597   5.132   4.415
    1AU     LIG  109   5.794   5.320   4.035
    1AU    AUSL  110   4.755   5.207   6.691
    1AU    AUSL  111   4.979   5.699   6.704
    1AU     AUL  112   4.845   5.513   6.986
    1AU       S  113   4.500   5.206   6.919
    1AU     LIG  114   4.260   5.491   7.265
    1AU     LIG  115   4.183   5.407   7.745
    1AU       S  116   4.611   5.901   6.850
    1AU     LIG  117   4.444   6.137   7.149
    1AU     LIG  118   4.227   6.449   7.408
    1AU    AUSL  119   5.020   4.907   6.910
    1AU    AUSL  120   4.552   4.848   6.571
    1AU     AUL  121   4.703   4.786   6.848
    1AU       S  122   4.340   4.532   6.672
    1AU     LIG  123   3.898   4.472   6.812
    1AU     LIG  124   3.680   4.372   7.229
    1AU       S  125   4.826   5.066   7.193
    1AU     LIG  126   4.906   4.895   7.583
    1AU     LIG  127   4.655   4.944   7.955
    1AU    AUSL  128   4.720   5.226   5.232
    1AU    AUSL  129   4.998   4.919   5.450
    1AU     AUL  130   4.889   4.881   5.120
    1AU       S  131   4.563   5.160   4.924
    1AU     LIG  132   4.215   5.294   4.671
    1AU     LIG  133   4.144   5.307   4.205
    1AU       S  134   4.441   4.696   5.095
    1AU     LIG  135   4.423   4.248   4.970
    1AU     LIG  136   4.226   3.875   4.747
    1AU    AUSL  137   5.025   5.546   5.252
    1AU    AUSL  138   4.610   5.570   5.474
    1AU     AUL  139   4.736   5.562   5.072
    1AU       S  140   4.372   5.740   5.308
    1AU     LIG  141   4.081   6.049   5.148
    1AU     LIG  142   3.997   6.221   4.710
    1AU       S  143   4.681   5.051   4.710
    1AU     LIG  144   4.649   5.392   4.421
    1AU     LIG  145   4.593   5.450   3.981
    1AU    AUSL  146   5.931   5.966   6.002
    1AU    AUSL  147   5.961   5.697   5.563
    1AU     AUL  148   6.060   6.069   5.702
    1AU       S  149   6.161   5.737   5.372
    1AU     LIG  150   6.506   5.711   5.043
    1AU     LIG  151   6.474   6.112   4.777
    1AU       S  152   6.451   5.935   5.983
    1AU     LIG  153   6.804   6.210   5.968
    1AU     LIG  154   7.119   6.441   5.707
    1AU    AUSL  155   5.985   5.468   5.918
    1AU    AUSL  156   6.150   5.240   6.286
    1AU     AUL  157   6.392   5.344   6.125
    1AU       S  158   6.328   5.697   5.848
    1AU     LIG  159   6.657   5.744   5.564
    1AU     LIG  160   7.093   5.853   5.683
    1AU       S  161   6.488   4.892   6.173
    1AU     LIG  162   6.802   4.685   6.373
    1AU     LIG  163   7.208   4.471   6.290
    1AU    AUSL  164   6.104   5.675   6.276
    1AU    AUSL  165   5.648   5.813   6.287
    1AU     AUL  166   5.970   5.957   6.398
    1AU       S  167   6.125   5.918   6.861
    1AU     LIG  168   6.507   6.195   6.710
    1AU     LIG  169   6.899   6.434   6.907
    1AU       S  170   6.383   5.811   6.200
    1AU     LIG  171   6.879   5.767   6.247
    1AU     LIG  172   7.362   5.759   6.426
    1AU    AUSL  173   4.609   5.735   6.089
    1AU    AUSL  174   4.608   5.565   6.506
    1AU     AUL  175   4.339   5.859   6.294
    1AU       S  176   4.481   5.652   6.705
    1AU     LIG  177   4.097   5.823   6.883
    1AU     LIG  178   3.934   6.067   7.229
    1AU       S  179   4.545   6.233   6.085
    1AU     LIG  180   4.111   6.390   5.957
    1AU     LIG  181   3.855   6.345   5.580
    1AU    AUSL  182   4.468   5.410   5.836
    1AU    AUSL  183   4.599   5.947   5.723
    1AU     AUL  184   4.338   5.741   5.788
    1AU       S  185   4.189   5.332   5.505
    1AU     LIG  186   3.812   5.689   5.452
    1AU     LIG  187   3.443   6.001   5.588
    1AU       S  188   4.424   6.163   5.559
    1AU     LIG  189   4.333   6.480   5.270
    1AU     LIG  190   3.929   6.581   5.095
    1AU    AUSL  191   4.306   5.405   6.248
    1AU    AUSL  192   4.292   5.027   5.904
    1AU     AUL  193   4.112   5.353   5.968
    1AU       S  194   4.038   4.923   6.150
    1AU     LIG  195   3.595   4.841   6.004
    1AU     LIG  196   3.284   4.623   5.717
    1AU       S  197   4.105   5.458   6.458
    1AU     LIG  198   3.722   5.719   6.468
    1AU     LIG  199   3.355   5.994   6.379
    1AU    AUSL  200   6.005   4.917   6.033
    1AU    AUSL  201   5.780   5.072   6.416
    1AU     AUL  202   6.118   4.955   6.453
    1AU       S  203   6.305   4.789   6.061
    1AU     LIG  204   6.406   4.376   6.002
    1AU     LIG  205   6.550   4.218   5.612
    1AU       S  206   6.274   4.498   6.459
    1AU     LIG  207   6.515   4.445   6.819
    1AU     LIG  208   6.504   4.308   7.253
    1AU    AUSL  209   6.217   5.168   5.729
    1AU    AUSL  210   5.845   4.588   5.805
    1AU     AUL  211   6.111   4.822   5.649
    1AU       S  212   6.502   4.966   5.864
    1AU     LIG  213   6.810   4.654   5.853
    1AU     LIG  214   7.202   4.450   5.749
    1AU       S  215   6.004   4.364   5.677
    1AU     LIG  216   6.061   3.941   5.546
    1AU     LIG  217   6.115   3.680   5.184
    1AU    AUSL  218   4.662   4.756   5.945
    1AU    AUSL  219   4.582   5.034   5.585
    1AU     AUL  220   4.316   4.753   5.766
    1AU       S  221   4.383   4.897   5.319
    1AU     LIG  222   3.984   4.599   5.248
    1AU     LIG  223   3.887   4.202   5.031
    1AU       S  224   3.971   4.749   6.364
    1AU     LIG  225   3.885   4.404   6.061
    1AU     LIG  226   3.733   4.256   5.622
    1AU    AUSL  227   4.581   5.084   6.225
    1AU    AUSL  228   4.714   4.538   6.311
    1AU     AUL  229   4.437   4.678   6.229
    1AU       S  230   4.499   4.312   6.518
    1AU     LIG  231   4.148   4.031   6.734
    1AU     LIG  232   3.831   3.687   6.829
    1AU       S  233   4.127   4.986   6.376
    1AU     LIG  234   3.670   5.149   6.429
    1AU     LIG  235   3.252   4.927   6.424
    1AU    AUSL  236   5.237   5.947   6.462
    1AU    AUSL  237   4.784   5.962   6.411
    1AU     AUL  238   5.051   6.054   6.729
    1AU       S  239   4.602   6.132   6.590
    1AU     LIG  240   4.188   6.331   6.745
    1AU     LIG  241   3.850   6.559   6.987
    1AU       S  242   5.205   6.450   6.506
    1AU     LIG  243   5.419   6.829   6.750
    1AU     LIG  244   5.390   7.307   6.836
    1AU    AUSL  245   5.032   6.193   6.151
    1AU    AUSL  246   5.345   6.215   5.776
    1AU     AUL  247   5.072   6.455   5.924
    1AU       S  248   5.277   6.633   6.321
    1AU     LIG  249   5.192   7.062   6.361
    1AU     LIG  250   4.847   7.144   6.631
    1AU       S  251   5.280   6.462   5.489
    1AU     LIG  252   5.572   6.834   5.661
    1AU     LIG  253   5.848   7.233   5.585
    1AU    AUSL  254   5.488   6.189   6.180
    1AU    AUSL  255   5.575   5.890   6.720
    1AU     AUL  256   5.564   6.154   6.532
    1AU       S  257   5.824   5.943   6.894
    1AU     LIG  258   6.013   6.252   7.200
    1AU     LIG  259   6.463   6.420   7.180
    1AU       S  260   5.478   6.470   6.191
    1AU     LIG  261   5.681   6.882   6.202
    1AU     LIG  262   5.766   7.170   6.515
    1AU    AUSL  263   5.335   4.559   6.487
    1AU    AUSL  264   5.751   4.659   6.265
    1AU     AUL  265   5.602   4.389   6.565
    1AU       S  266   4.881   4.001   6.477
    1AU     LIG  267   4.879   3.668   6.774
    1AU     LIG  268   5.153   3.319   6.930
    1AU       S  269   5.989   4.468   6.284
    1AU     LIG  270   6.222   4.018   6.440
    1AU     LIG  271   6.547   3.887   6.767
    1AU    AUSL  272   5.091   4.543   6.127
    1AU    AUSL  273   5.008   4.832   6.491
    1AU     AUL  274   4.988   4.469   6.549
    1AU       S  275   4.906   4.115   6.210
    1AU     LIG  276   4.987   3.588   6.254
    1AU     LIG  277   4.861   3.227   6.497
    1AU       S  278   4.571   4.310   6.782
    1AU     LIG  279   4.487   3.963   7.090
    1AU     LIG  280   4.045   3.907   7.269
    1AU    AUSL  281   5.493   4.371   6.089
    1AU    AUSL  282   5.061   4.446   5.717
    1AU     AUL  283   5.258   4.223   5.927
    1AU       S  284   4.851   4.174   5.694
    1AU     LIG  285   4.846   3.719   5.802
    1AU     LIG  286   4.932   3.372   5.521
    1AU       S  287   5.177   4.046   6.388
    1AU     LIG  288   5.386   3.657   6.568
    1AU     LIG  289   5.654   3.356   6.829
    1AU    AUSL  290   5.259   5.919   5.465
    1AU    AUSL  291   5.599   5.863   5.762
    1AU     AUL  292   5.617   6.146   5.541
    1AU       S  293   5.255   6.179   5.237
    1AU     LIG  294   5.558   6.573   5.083
    1AU     LIG  295   5.593   7.038   5.178
    1AU       S  296   6.174   6.001   5.223
    1AU     LIG  297   6.491   6.300   5.266
    1AU     LIG  298   6.556   6.692   5.036
    1AU    AUSL  299   5.011   5.922   5.828
    1AU    AUSL  300   4.850   5.920   5.365
    1AU     AUL  301   4.902   6.168   5.583
    1AU       S  302   5.092   6.466   5.245
    1AU     LIG  303   5.110   6.931   5.395
    1AU     LIG  304   5.233   7.395   5.411
    1AU       S  305   4.583   6.010   5.243
    1AU     LIG  306   4.496   6.224   4.861
    1AU     LIG  307   4.311   6.647   4.748
    1AU    AUSL  308   5.282   4.618   5.366
    1AU    AUSL  309   4.704   4.610   5.542
    1AU     AUL  310   4.986   4.485   5.347
    1AU       S  311   4.508   4.587   5.355
    1AU     LIG  312   4.228   4.172   5.432
    1AU     LIG  313   3.975   3.773   5.301
    1AU       S  314   4.758   4.054   5.424
    1AU     LIG  315   4.836   3.675   5.127
    1AU     LIG  316   5.042   3.363   4.806
    1AU    AUSL  317   5.431   4.680   5.797
    1AU    AUSL  318   5.694   4.706   5.415
    1AU     AUL  319   5.541   4.396   5.570
    1AU       S  320   5.072   4.012   5.478
    1AU     LIG  321   5.356   3.648   5.506
    1AU     LIG  322   5.368   3.229   5.270
    1AU       S  323   5.902   4.553   5.299
    1AU     LIG  324   5.907   4.205   4.974
    1AU     LIG  325   6.123   3.863   4.697
    2POPC   NC3  326   3.415   8.785   8.034
    2POPC   PO4  327   3.951   8.346   8.149
    2POPC   GL1  328   3.824   8.660   7.711
    2POPC   GL2  329   3.478   8.686   7.551
    2POPC   C1A  330   3.818   8.728   7.219
    2POPC   D2A  331   3.750   8.454   6.919
    2POPC   C3A  332   3.511   8.443   6.572
    2POPC   C4A  333   3.597   8.556   6.197
    2POPC   C1B  334   3.255   8.630   7.225
    2POPC   C2B  335   3.262   8.793   6.870
    2POPC   C3B  336   3.156   8.776   6.490
    2POPC   C4B  337   3.204   8.872   6.087
    3POPC   NC3  338   1.171   5.029   8.118
    3POPC   PO4  339   0.570   4.592   8.149
    3POPC   GL1  340   0.939   4.723   7.769
    3POPC   GL2  341   1.061   5.058   7.641
    3POPC   C1A  342   1.136   4.665   7.345
    3POPC   D2A  343   0.959   4.822   6.951
    3POPC   C3A  344   1.052   4.615   6.562
    3POPC   C4A  345   1.089   4.799   6.151
    3POPC   C1B  346   1.341   5.152   7.328
    3POPC   C2B  347   1.464   5.034   6.934
    3POPC   C3B  348   1.270   5.064   6.574
    3POPC   C4B  349   1.381   5.211   6.206
    4POPC   NC3  350   9.406   1.937   8.113
    4POPC   PO4  351   8.895   2.196   7.813
    4POPC   GL1  352   9.218   1.949   7.581
    4POPC   GL2  353   9.592   1.861   7.652
    4POPC   C1A  354   9.170   2.043   7.180
    4POPC   D2A  355   9.278   1.882   6.827
    4POPC   C3A  356   9.461   2.092   6.495
    4POPC   C4A  357   9.660   2.267   6.152
    4POPC   C1B  358   9.495   1.658   7.258
    4POPC   C2B  359   9.704   1.624   6.889
    4POPC   C3B  360   9.535   1.586   6.493
    4POPC   C4B  361   9.850   1.548   6.216
    5POPC   NC3  362   0.189   7.811   8.371
    5POPC   PO4  363   0.039   7.364   8.029
    5POPC   GL1  364   0.209   7.611   7.617
    5POPC   GL2  365   0.259   7.974   7.503
    5POPC   C1A  366   0.374   7.602   7.169
    5POPC   D2A  367   0.592   7.779   6.811
    5POPC   C3A  368   0.564   7.674   6.351
    5POPC   C4A  369   0.233   7.735   5.999
    5POPC   C1B  370   0.341   8.327   7.275
    5POPC   C2B  371   0.441   8.271   6.878
    5POPC   C3B  372   0.271   8.062   6.539
    5POPC   C4B  373   0.391   8.160   6.172
    6POPC   NC3  374   2.985   1.471   8.157
    6POPC   PO4  375   3.613   1.727   8.230
    6POPC   GL1  376   3.629   1.469   7.866
    6POPC   GL2  377   3.613   1.103   7.876
    6POPC   C1A  378   3.508   1.501   7.452
    6POPC   D2A  379   3.543   1.683   7.047
    6POPC   C3A  380   3.678   1.521   6.643
    6POPC   C4A  381   3.489   1.461   6.231
    6POPC   C1B  382   3.416   0.999   7.445
    6POPC   C2B  383   3.527   1.179   7.020
    6POPC   C3B  384   3.393   1.076   6.584
    6POPC   C4B  385   3.577   0.984   6.175
    7POPC   NC3  386   8.496   9.295   8.125
    7POPC   PO4  387   9.032   9.666   8.347
    7POPC   GL1  388   8.832   9.562   7.825
    7POPC   GL2  389   8.683   9.224   7.659
    7POPC   C1A  390   8.773   9.634   7.374
    7POPC   D2A  391   8.620   9.671   6.947
    7POPC   C3A  392   8.740   9.409   6.617
    7POPC   C4A  393   8.691   9.568   6.221
    7POPC   C1B  394   8.401   9.215   7.313
    7POPC   C2B  395   8.407   9.090   6.895
    7POPC   C3B  396   8.232   9.170   6.522
    7POPC   C4B  397   8.305   9.294   6.098
    8POPC   NC3  398   6.182   0.432   8.177
    8POPC   PO4  399   6.667   0.034   7.956
    8POPC   GL1  400   6.561   0.395   7.633
    8POPC   GL2  401   6.272   0.546   7.700
    8POPC   C1A  402   6.514   0.507   7.195
    8POPC   D2A  403   6.305   0.724   6.863
    8POPC   C3A  404   6.507   0.699   6.473
    8POPC   C4A  405   6.741   0.547   6.109
    8POPC   C1B  406   6.222   0.112   7.411
    8POPC   C2B  407   6.338  10.464   6.991
    8POPC   C3B  408   6.406   0.202   6.614
    8POPC   C4B  409   6.284   0.291   6.192
    9POPC   NC3  410   8.919   4.711   8.153
    9POPC   PO4  411   8.548   5.230   7.963
    9POPC   GL1  412   8.886   5.102   7.718
    9POPC   GL2  413   8.735   4.785   7.670
    9POPC   C1A  414   8.898   5.149   7.267
    9POPC   D2A  415   8.662   5.026   6.907
    9POPC   C3A  416   8.737   4.876   6.523
    9POPC   C4A  417   8.814   4.975   6.097
    9POPC   C1B  418   8.547   4.739   7.299
    9POPC   C2B  419   8.291   4.697   6.916
    9POPC   C3B  420   8.315   4.576   6.468
    9POPC   C4B  421   8.387   4.706   6.033
   10POPC   NC3  422   4.201   9.474   7.946
   10POPC   PO4  423   3.631   9.205   8.178
   10POPC   GL1  424   3.776   9.575   7.671
   10POPC   GL2  425   4.161   9.602   7.455
   10POPC   C1A  426   3.743   9.548   7.202
   10POPC   D2A  427   4.042   9.457   6.863
   10POPC   C3A  428   3.787   9.482   6.488
   10POPC   C4A  429   3.959   9.498   6.029
   10POPC   C1B  430   4.443   9.290   7.182
   10POPC   C2B  431   4.629   9.011   6.855
   10POPC   C3B  432   4.483   8.845   6.485
   10POPC   C4B  433   4.216   9.227   6.403
   11POPC   NC3  434   9.894   5.558   8.348
   11POPC   PO4  435   9.755   5.257   7.801
   11POPC   GL1  436   9.915   5.402   7.482
   11POPC   GL2  437  10.177   5.553   7.695
   11POPC   C1A  438   9.784   5.209   7.105
   11POPC   D2A  439   9.690   5.481   6.793
   11POPC   C3A  440   9.641   5.380   6.380
   11POPC   C4A  441   9.816   5.641   6.085
   11POPC   C1B  442  10.312   5.738   7.327
   11POPC   C2B  443  10.106   5.902   6.949
   11POPC   C3B  444  10.082   5.750   6.536
   11POPC   C4B  445  10.287   5.832   6.142
   12POPC   NC3  446   6.326   1.569   8.262
   12POPC   PO4  447   5.999   2.127   8.272
   12POPC   GL1  448   6.340   1.889   7.878
   12POPC   GL2  449   6.558   2.122   7.687
   12POPC   C1A  450   6.267   1.697   7.412
   12POPC   D2A  451   6.452   1.686   6.970
   12POPC   C3A  452   6.244   1.602   6.559
   12POPC   C4A  453   6.269   1.677   6.126
   12POPC   C1B  454   6.437   2.163   7.243
   12POPC   C2B  455   6.663   2.184   6.861
   12POPC   C3B  456   6.587   1.961   6.496
   12POPC   C4B  457   6.628   2.014   6.077
   13POPC   NC3  458   1.400   0.906   8.059
   13POPC   PO4  459   2.068   0.848   8.047
   13POPC   GL1  460   1.922   1.074   7.666
   13POPC   GL2  461   2.264   1.177   7.654
   13POPC   C1A  462   1.728   1.084   7.271
   13POPC   D2A  463   1.665   0.870   6.849
   13POPC   C3A  464   1.924   0.860   6.450
   13POPC   C4A  465   1.779   0.780   5.981
   13POPC   C1B  466   2.162   1.408   7.286
   13POPC   C2B  467   2.000   1.275   6.888
   13POPC   C3B  468   1.792   1.337   6.507
   13POPC   C4B  469   2.010   1.210   6.096
   14POPC   NC3  470   7.148   2.049   8.177
   14POPC   PO4  471   6.766   1.492   8.181
   14POPC   GL1  472   6.883   1.698   7.750
   14POPC   GL2  473   7.235   1.730   7.597
   14POPC   C1A  474   6.844   1.837   7.285
   14POPC   D2A  475   6.937   1.749   6.843
   14POPC   C3A  476   7.078   2.055   6.543
   14POPC   C4A  477   7.066   1.823   6.242
   14POPC   C1B  478   7.330   1.634   7.149
   14POPC   C2B  479   7.659   1.531   6.854
   14POPC   C3B  480   7.526   1.761   6.496
   14POPC   C4B  481   7.520   2.074   6.194
   15POPC   NC3  482   6.357   9.215   8.109
   15POPC   PO4  483   6.912   9.639   8.110
   15POPC   GL1  484   6.704   9.631   7.711
   15POPC   GL2  485   6.472   9.357   7.635
   15POPC   C1A  486   6.547   9.717   7.287
   15POPC   D2A  487   6.527   9.553   6.871
   15POPC   C3A  488   6.544   9.813   6.521
   15POPC   C4A  489   6.491   9.780   6.082
   15POPC   C1B  490   6.247   9.241   7.237
   15POPC   C2B  491   6.049   9.364   6.829
   15POPC   C3B  492   6.261   9.341   6.418
   15POPC   C4B  493   6.185   9.384   5.969
   16POPC   NC3  494   9.343   3.161   8.303
   16POPC   PO4  495   9.756   3.711   8.186
   16POPC   GL1  496   9.581   3.467   7.824
   16POPC   GL2  497   9.322   3.334   7.725
   16POPC   C1A  498   9.605   3.336   7.318
   16POPC   D2A  499   9.555   3.556   6.929
   16POPC   C3A  500   9.788   3.545   6.527
   16POPC   C4A  501   9.614   3.546   6.096
   16POPC   C1B  502   9.122   3.221   7.305
   16POPC   C2B  503   9.051   3.445   6.913
   16POPC   C3B  504   9.264   3.476   6.509
   16POPC   C4B  505   9.193   3.232   6.135
   17POPC   NC3  506   0.484   5.730   8.313
   17POPC   PO4  507  10.343   5.548   8.220
   17POPC   GL1  508   0.173   5.510   7.828
   17POPC   GL2  509   0.462   5.771   7.796
   17POPC   C1A  510   0.290   5.481   7.335
   17POPC   D2A  511   0.138   5.727   6.935
   17POPC   C3A  512   0.176   5.829   6.487
   17POPC   C4A  513   0.199   5.502   6.184
   17POPC   C1B  514   0.624   5.891   7.371
   17POPC   C2B  515   0.663   5.662   6.973
   17POPC   C3B  516   0.591   5.548   6.532
   17POPC   C4B  517   0.605   5.792   6.144
   18POPC   NC3  518  10.147   0.531   8.159
   18POPC   PO4  519   9.561   0.209   8.093
   18POPC   GL1  520   9.938   0.180   7.793
   18POPC   GL2  521  10.208   0.418   7.654
   18POPC   C1A  522   9.883   0.216   7.314
   18POPC   D2A  523  10.099   0.483   7.006
   18POPC   C3A  524  10.024   0.392   6.591
   18POPC   C4A  525  10.031   0.272   6.174
   18POPC   C1B  526   0.014   0.478   7.295
   18POPC   C2B  527   0.147   0.619   6.866
   18POPC   C3B  528  10.476   0.571   6.420
   18POPC   C4B  529  10.461   0.728   5.955
   19POPC   NC3  530   1.464  10.414   8.078
   19POPC   PO4  531   2.182  10.291   8.008
   19POPC   GL1  532   1.815  10.276   7.686
   19POPC   GL2  533   1.711   9.934   7.547
   19POPC   C1A  534   1.624  10.356   7.263
   19POPC   D2A  535   1.523  10.229   6.864
   19POPC   C3A  536   1.760  10.462   6.562
   19POPC   C4A  537   1.626  10.457   6.140
   19POPC   C1B  538   2.007  10.020   7.257
   19POPC   C2B  539   1.911   9.928   6.851
   19POPC   C3B  540   1.709  10.000   6.412
   19POPC   C4B  541   2.043   9.895   6.108
   20POPC   NC3  542   0.538   6.724   8.217
   20POPC   PO4  543   0.792   6.042   8.168
   20POPC   GL1  544   0.648   6.260   7.749
   20POPC   GL2  545   0.322   6.417   7.720
   20POPC   C1A  546   0.647   6.444   7.322
   20POPC   D2A  547   0.468   6.599   6.945
   20POPC   C3A  548   0.642   6.515   6.560
   20POPC   C4A  549   0.469   6.270   6.224
   20POPC   C1B  550   0.118   6.644   7.342
   20POPC   C2B  551   0.024   6.849   6.950
   20POPC   C3B  552   0.113   6.694   6.572
   20POPC   C4B  553   0.326   6.764   6.201
   21POPC   NC3  554   2.459   2.041   8.043
   21POPC   PO4  555   2.511   1.385   8.062
   21POPC   GL1  556   2.714   1.654   7.750
   21POPC   GL2  557   2.777   2.026   7.644
   21POPC   C1A  558   2.642   1.627   7.330
   21POPC   D2A  559   2.782   1.837   6.988
   21POPC   C3A  560   2.653   1.724   6.586
   21POPC   C4A  561   2.558   1.520   6.214
   21POPC   C1B  562   2.456   2.102   7.329
   21POPC   C2B  563   2.343   2.084   6.880
   21POPC   C3B  564   2.455   2.170   6.451
   21POPC   C4B  565   2.884   2.123   6.288
   22POPC   NC3  566   9.093   0.122   8.123
   22POPC   PO4  567   9.334  10.002   7.987
   22POPC   GL1  568   9.376  10.363   7.711
   22POPC   GL2  569   9.718  10.292   7.562
   22POPC   C1A  570   9.367  10.500   7.282
   22POPC   D2A  571   9.530  10.424   6.856
   22POPC   C3A  572   9.181  10.395   6.555
   22POPC   C4A  573   9.036   0.073   6.162
   22POPC   C1B  574   9.591  10.003   7.282
   22POPC   C2B  575   9.678   9.847   6.871
   22POPC   C3B  576   9.571  10.024   6.529
   22POPC   C4B  577   9.710  10.395   6.314
   23POPC   NC3  578   9.670   8.554   8.044
   23POPC   PO4  579   9.086   8.312   7.822
   23POPC   GL1  580   9.438   8.551   7.605
   23POPC   GL2  581   9.461   8.900   7.717
   23POPC   C1A  582   9.688   8.511   7.239
   23POPC   D2A  583   9.544   8.514   6.870
   23POPC   C3A  584   9.810   8.462   6.582
   23POPC   C4A  585   9.688   8.358   6.211
   23POPC   C1B  586   9.638   9.006   7.337
   23POPC   C2B  587   9.474   9.012   6.938
   23POPC   C3B  588   9.652   8.941   6.528
   23POPC   C4B  589   9.370   8.796   6.230
   24POPC   NC3  590   5.517   2.099   8.253
   24POPC   PO4  591   6.062   2.297   7.772
   24POPC   GL1  592   5.698   2.376   7.555
   24POPC   GL2  593   5.640   2.731   7.586
   24POPC   C1A  594   5.704   2.484   7.119
   24POPC   D2A  595   5.699   2.339   6.731
   24POPC   C3A  596   5.767   2.575   6.393
   24POPC   C4A  597   5.568   2.730   5.996
   24POPC   C1B  598   5.575   2.973   7.183
   24POPC   C2B  599   5.490   2.862   6.745
   24POPC   C3B  600   5.735   3.081   6.402
   24POPC   C4B  601   5.994   3.076   6.039
   25POPC   NC3  602   7.444   4.160   8.141
   25POPC   PO4  603   7.012   3.802   7.873
   25POPC   GL1  604   7.299   3.890   7.553
   25POPC   GL2  605   7.242   4.224   7.636
   25POPC   C1A  606   7.468   4.209   7.195
   25POPC   D2A  607   7.455   4.304   6.730
   25POPC   C3A  608   7.334   3.978   6.411
   25POPC   C4A  609   7.280   3.954   5.956
   25POPC   C1B  610   6.973   4.094   7.221
   25POPC   C2B  611   6.955   4.213   6.761
   25POPC   C3B  612   6.703   4.200   6.398
   25POPC   C4B  613   6.854   4.175   6.027
   26POPC   NC3  614   2.626   9.947   7.983
   26POPC   PO4  615   3.143  10.490   8.200
   26POPC   GL1  616   3.032  10.355   7.800
   26POPC   GL2  617   2.675  10.421   7.771
   26POPC   C1A  618   2.978  10.254   7.360
   26POPC   D2A  619   3.120  10.234   6.952
   26POPC   C3A  620   2.819  10.231   6.668
   26POPC   C4A  621   2.646  10.389   6.346
   26POPC   C1B  622   2.433  10.290   7.387
   26POPC   C2B  623   2.412  10.116   6.956
   26POPC   C3B  624   2.245  10.129   6.538
   26POPC   C4B  625   2.474   9.846   6.348
   27POPC   NC3  626   0.988   0.207   8.097
   27POPC   PO4  627   0.929   0.907   8.008
   27POPC   GL1  628   1.153   0.587   7.715
   27POPC   GL2  629   1.222   0.273   7.669
   27POPC   C1A  630   0.975   0.446   7.281
   27POPC   D2A  631   1.043   0.493   6.837
   27POPC   C3A  632   0.900   0.283   6.472
   27POPC   C4A  633   0.900   0.498   6.041
   27POPC   C1B  634   1.483   0.356   7.313
   27POPC   C2B  635   1.463   0.221   6.914
   27POPC   C3B  636   1.411   0.344   6.500
   27POPC   C4B  637   1.417   0.415   6.082
   28POPC   NC3  638   4.376  10.304   8.104
   28POPC   PO4  639   3.872   9.877   8.081
   28POPC   GL1  640   4.004  10.041   7.680
   28POPC   GL2  641   4.152  10.344   7.647
   28POPC   C1A  642   3.915  10.128   7.217
   28POPC   D2A  643   3.871   9.934   6.776
   28POPC   C3A  644   4.193   9.823   6.435
   28POPC   C4A  645   4.200   9.938   5.966
   28POPC   C1B  646   4.412  10.141   7.333
   28POPC   C2B  647   4.508  10.264   6.899
   28POPC   C3B  648   4.212  10.345   6.569
   28POPC   C4B  649   4.255  10.403   6.150
   29POPC   NC3  650   8.121   1.731   8.140
   29POPC   PO4  651   8.645   1.978   8.359
   29POPC   GL1  652   8.536   1.856   7.881
   29POPC   GL2  653   8.830   1.688   7.754
   29POPC   C1A  654   8.494   1.946   7.382
   29POPC   D2A  655   8.366   2.165   6.931
   29POPC   C3A  656   8.483   2.026   6.500
   29POPC   C4A  657   8.538   1.977   6.036
   29POPC   C1B  658   8.940   1.606   7.318
   29POPC   C2B  659   8.768   1.808   6.933
   29POPC   C3B  660   8.918   1.769   6.506
   29POPC   C4B  661   9.006   2.128   6.276
   30POPC   NC3  662   3.335   4.155   8.054
   30POPC   PO4  663   3.818   3.712   8.138
   30POPC   GL1  664   3.616   3.883   7.693
   30POPC   GL2  665   3.348   4.152   7.567
   30POPC   C1A  666   3.538   3.865   7.215
   30POPC   D2A  667   3.446   4.141   6.850
   30POPC   C3A  668   3.707   4.110   6.478
   30POPC   C4A  669   3.656   3.966   6.045
   30POPC   C1B  670   3.131   4.484   7.327
   30POPC   C2B  671   3.171   4.659   6.902
   30POPC   C3B  672   3.168   4.421   6.532
   30POPC   C4B  673   3.393   4.388   6.178
   31POPC   NC3  674   3.676   1.275   8.376
   31POPC   PO4  675   4.296   1.424   8.154
   31POPC   GL1  676   4.136   1.313   7.775
   31POPC   GL2  677   4.279   0.964   7.754
   31POPC   C1A  678   3.895   1.141   7.431
   31POPC   D2A  679   3.932   0.845   7.067
   31POPC   C3A  680   3.894   1.017   6.637
   31POPC   C4A  681   3.964   1.294   6.272
   31POPC   C1B  682   4.393   1.145   7.340
   31POPC   C2B  683   4.502   1.017   6.932
   31POPC   C3B  684   4.388   1.115   6.539
   31POPC   C4B  685   4.260   0.886   6.235
   32POPC   NC3  686   1.969   9.218   8.171
   32POPC   PO4  687   2.203   8.589   8.171
   32POPC   GL1  688   1.863   8.676   7.836
   32POPC   GL2  689   1.606   8.934   7.891
   32POPC   C1A  690   1.826   8.530   7.390
   32POPC   D2A  691   2.038   8.341   7.025
   32POPC   C3A  692   2.000   8.572   6.650
   32POPC   C4A  693   2.299   8.823   6.407
   32POPC   C1B  694   1.578   8.982   7.426
   32POPC   C2B  695   1.665   8.887   6.991
   32POPC   C3B  696   1.513   8.776   6.578
   32POPC   C4B  697   1.744   8.678   6.216
   33POPC   NC3  698   0.265   4.965   8.030
   33POPC   PO4  699   0.771   5.373   8.137
   33POPC   GL1  700   0.621   5.285   7.705
   33POPC   GL2  701   0.526   4.955   7.617
   33POPC   C1A  702   0.747   5.200   7.255
   33POPC   D2A  703   0.562   5.161   6.866
   33POPC   C3A  704   0.760   5.048   6.486
   33POPC   C4A  705   0.629   5.006   6.048
   33POPC   C1B  706   0.281   4.921   7.260
   33POPC   C2B  707   0.109   4.951   6.848
   33POPC   C3B  708   0.226   4.981   6.396
   33POPC   C4B  709   0.268   4.636   6.072
   34POPC   NC3  710   9.915   4.909   8.044
   34POPC   PO4  711  10.492   4.583   8.012
   34POPC   GL1  712  10.235   4.671   7.702
   34POPC   GL2  713  10.269   5.035   7.699
   34POPC   C1A  714  10.301   4.690   7.280
   34POPC   D2A  715  10.119   4.876   6.939
   34POPC   C3A  716  10.239   4.773   6.531
   34POPC   C4A  717  10.306   4.864   6.105
   34POPC   C1B  718  10.348   5.205   7.309
   34POPC   C2B  719  10.241   5.392   6.949
   34POPC   C3B  720  10.428   5.367   6.593
   34POPC   C4B  721  10.136   5.281   6.328
   35POPC   NC3  722   7.854   0.989   8.404
   35POPC   PO4  723   8.098   0.452   8.041
   35POPC   GL1  724   8.173   0.488   7.600
   35POPC   GL2  725   7.822   0.601   7.529
   35POPC   C1A  726   8.119   0.464   7.134
   35POPC   D2A  727   8.245   0.717   6.783
   35POPC   C3A  728   8.091   0.654   6.343
   35POPC   C4A  729   8.285   0.516   5.928
   35POPC   C1B  730   7.764   0.180   7.384
   35POPC   C2B  731   7.759  10.452   7.003
   35POPC   C3B  732   7.715  10.483   6.567
   35POPC   C4B  733   7.755   0.264   6.180
   36POPC   NC3  734   8.132   5.810   8.635
   36POPC   PO4  735   7.987   5.418   8.139
   36POPC   GL1  736   8.107   5.442   7.707
   36POPC   GL2  737   8.099   5.809   7.694
   36POPC   C1A  738   7.951   5.503   7.286
   36POPC   D2A  739   7.669   5.315   6.989
   36POPC   C3A  740   7.748   5.381   6.565
   36POPC   C4A  741   8.024   5.494   6.285
   36POPC   C1B  742   8.064   5.992   7.294
   36POPC   C2B  743   7.790   5.879   6.943
   36POPC   C3B  744   7.933   5.928   6.534
   36POPC   C4B  745   7.772   5.965   6.136
   37POPC   NC3  746   8.564   0.499   8.111
   37POPC   PO4  747   8.963   1.002   7.974
   37POPC   GL1  748   8.702   0.709   7.646
   37POPC   GL2  749   8.727   0.327   7.656
   37POPC   C1A  750   8.623   0.517   7.210
   37POPC   D2A  751   8.704   0.283   6.842
   37POPC   C3A  752   8.591   0.476   6.459
   37POPC   C4A  753   8.810   0.580   6.106
   37POPC   C1B  754   8.435   0.074   7.398
   37POPC   C2B  755   8.301  10.492   6.979
   37POPC   C3B  756   8.163   0.223   6.658
   37POPC   C4B  757   8.234   0.163   6.257
   38POPC   NC3  758   3.343   7.150   8.082
   38POPC   PO4  759   2.673   7.072   8.122
   38POPC   GL1  760   2.887   7.033   7.712
   38POPC   GL2  761   2.927   7.386   7.721
   38POPC   C1A  762   2.811   6.904   7.251
   38POPC   D2A  763   2.642   6.831   6.831
   38POPC   C3A  764   2.872   6.883   6.447
   38POPC   C4A  765   2.927   7.184   6.096
   38POPC   C1B  766   2.720   7.402   7.310
   38POPC   C2B  767   2.590   7.470   6.897
   38POPC   C3B  768   2.496   7.247   6.529
   38POPC   C4B  769   2.505   7.502   6.192
   39POPC   NC3  770   4.697   8.606   7.976
   39POPC   PO4  771   5.409   8.688   8.018
   39POPC   GL1  772   5.137   8.823   7.703
   39POPC   GL2  773   5.099   8.492   7.571
   39POPC   C1A  774   4.959   8.940   7.302
   39POPC   D2A  775   5.012   8.691   6.945
   39POPC   C3A  776   5.029   8.923   6.553
   39POPC   C4A  777   5.234   9.086   6.178
   39POPC   C1B  778   4.699   8.501   7.324
   39POPC   C2B  779   4.558   8.463   6.886
   39POPC   C3B  780   4.828   8.407   6.564
   39POPC   C4B  781   4.889   8.414   6.165
   40POPC   NC3  782   5.847   1.920   7.880
   40POPC   PO4  783   5.247   1.731   8.124
   40POPC   GL1  784   5.355   2.034   7.764
   40POPC   GL2  785   5.487   1.786   7.561
   40POPC   C1A  786   5.336   2.131   7.260
   40POPC   D2A  787   5.469   1.891   6.900
   40POPC   C3A  788   5.415   2.018   6.477
   40POPC   C4A  789   5.513   1.747   6.158
   40POPC   C1B  790   5.846   1.986   7.236
   40POPC   C2B  791   6.110   2.052   6.827
   40POPC   C3B  792   5.948   2.005   6.384
   40POPC   C4B  793   5.697   2.199   6.048
   41POPC   NC3  794   0.333   2.027   8.085
   41POPC   PO4  795   0.837   1.548   8.181
   41POPC   GL1  796   0.646   1.759   7.750
   41POPC   GL2  797   0.517   2.108   7.616
   41POPC   C1A  798   0.689   1.774   7.278
   41POPC   D2A  799   0.702   2.001   6.915
   41POPC   C3A  800   0.438   2.003   6.618
   41POPC   C4A  801   0.626   1.836   6.267
   41POPC   C1B  802   0.155   2.287   7.389
   41POPC   C2B  803   0.134   2.428   6.958
   41POPC   C3B  804   0.014   2.317   6.538
   41POPC   C4B  805   0.169   2.069   6.199
   42POPC   NC3  806   6.017   1.025   7.925
   42POPC   PO4  807   6.566   0.721   8.139
   42POPC   GL1  808   6.519   0.988   7.779
   42POPC   GL2  809   6.409   1.351   7.797
   42POPC   C1A  810   6.343   0.964   7.358
   42POPC   D2A  811   6.227   1.231   7.036
   42POPC   C3A  812   6.114   1.123   6.606
   42POPC   C4A  813   6.326   1.127   6.209
   42POPC   C1B  814   6.659   1.368   7.422
   42POPC   C2B  815   6.813   1.263   7.043
   42POPC   C3B  816   6.618   1.247   6.666
   42POPC   C4B  817   6.692   1.487   6.306
   43POPC   NC3  818   1.185   1.921   8.175
   43POPC   PO4  819   1.468   2.561   8.221
   43POPC   GL1  820   1.363   2.340   7.791
   43POPC   GL2  821   1.145   2.033   7.691
   43POPC   C1A  822   1.440   2.217   7.319
   43POPC   D2A  823   1.496   1.976   6.918
   43POPC   C3A  824   1.465   2.222   6.515
   43POPC   C4A  825   1.457   2.156   6.049
   43POPC   C1B  826   1.203   1.758   7.351
   43POPC   C2B  827   1.086   1.659   6.946
   43POPC   C3B  828   1.067   1.871   6.558
   43POPC   C4B  829   1.351   1.703   6.264
   44POPC   NC3  830   2.603   4.027   8.077
   44POPC   PO4  831   3.158   3.736   7.943
   44POPC   GL1  832   2.905   3.901   7.635
   44POPC   GL2  833   2.791   4.221   7.632
   44POPC   C1A  834   3.019   3.972   7.232
   44POPC   D2A  835   2.889   4.239   6.943
   44POPC   C3A  836   2.792   4.070   6.583
   44POPC   C4A  837   2.899   4.146   6.173
   44POPC   C1B  838   2.508   4.057   7.286
   44POPC   C2B  839   2.380   4.274   6.898
   44POPC   C3B  840   2.326   4.256   6.473
   44POPC   C4B  841   2.465   4.381   6.080
   45POPC   NC3  842   8.423   8.027   8.154
   45POPC   PO4  843   8.993   8.229   8.336
   45POPC   GL1  844   8.813   7.908   7.883
   45POPC   GL2  845   8.535   8.007   7.661
   45POPC   C1A  846   8.975   7.764   7.442
   45POPC   D2A  847   9.073   7.849   7.003
   45POPC   C3A  848   8.969   7.778   6.562
   45POPC   C4A  849   9.032   7.554   6.162
   45POPC   C1B  850   8.665   8.150   7.261
   45POPC   C2B  851   8.631   8.051   6.851
   45POPC   C3B  852   8.576   8.195   6.468
   45POPC   C4B  853   8.704   7.961   6.152
   46POPC   NC3  854   9.743  10.244   8.054
   46POPC   PO4  855  10.389   0.132   8.068
   46POPC   GL1  856  10.492  10.456   7.707
   46POPC   GL2  857  10.324  10.133   7.762
   46POPC   C1A  858  10.344  10.495   7.299
   46POPC   D2A  859   0.009   0.131   6.898
   46POPC   C3A  860  10.329   0.020   6.514
   46POPC   C4A  861  10.317  10.338   6.122
   46POPC   C1B  862  10.114  10.031   7.371
   46POPC   C2B  863   9.994  10.236   6.980
   46POPC   C3B  864  10.083  10.077   6.553
   46POPC   C4B  865   9.968   9.973   6.130
   47POPC   NC3  866   0.976   4.341   8.068
   47POPC   PO4  867   1.497   4.408   8.472
   47POPC   GL1  868   1.395   4.144   7.899
   47POPC   GL2  869   1.122   3.906   7.778
   47POPC   C1A  870   1.441   4.239   7.390
   47POPC   D2A  871   1.431   4.499   6.958
   47POPC   C3A  872   1.399   4.231   6.569
   47POPC   C4A  873   1.503   4.229   6.108
   47POPC   C1B  874   0.936   4.120   7.409
   47POPC   C2B  875   0.957   4.296   6.990
   47POPC   C3B  876   0.889   4.139   6.572
   47POPC   C4B  877   1.042   4.025   6.179
   48POPC   NC3  878   2.144   0.362   8.054
   48POPC   PO4  879   1.434   0.377   8.116
   48POPC   GL1  880   1.720   0.293   7.769
   48POPC   GL2  881   1.676   0.637   7.683
   48POPC   C1A  882   2.014   0.162   7.407
   48POPC   D2A  883   2.047  10.469   6.989
   48POPC   C3A  884   2.278   0.122   6.625
   48POPC   C4A  885   2.216   0.059   6.159
   48POPC   C1B  886   2.061   0.671   7.403
   48POPC   C2B  887   2.213   0.481   7.029
   48POPC   C3B  888   1.896   0.426   6.735
   48POPC   C4B  889   1.882   0.390   6.307
   49POPC   NC3  890   6.899   0.430   7.983
   49POPC   PO4  891   7.339   0.825   8.076
   49POPC   GL1  892   7.317   0.750   7.645
   49POPC   GL2  893   7.333   0.386   7.640
   49POPC   C1A  894   7.360   0.654   7.210
   49POPC   D2A  895   7.328   0.316   6.915
   49POPC   C3A  896   7.561   0.481   6.589
   49POPC   C4A  897   7.588   0.774   6.233
   49POPC   C1B  898   6.980   0.335   7.338
   49POPC   C2B  899   6.815   0.185   6.954
   49POPC   C3B  900   6.906   0.359   6.572
   49POPC   C4B  901   7.208   0.373   6.228
   50POPC   NC3  902   6.892   3.013   8.252
   50POPC   PO4  903   7.605   3.101   8.043
   50POPC   GL1  904   7.475   2.833   7.703
   50POPC   GL2  905   7.289   2.528   7.798
   50POPC   C1A  906   7.459   2.631   7.293
   50POPC   D2A  907   7.129   2.609   6.959
   50POPC   C3A  908   7.209   2.833   6.587
   50POPC   C4A  909   6.933   2.955   6.259
   50POPC   C1B  910   7.134   2.248   7.425
   50POPC   C2B  911   7.245   2.133   7.007
   50POPC   C3B  912   7.460   2.379   6.624
   50POPC   C4B  913   7.313   2.540   6.211
   51POPC   NC3  914   7.170   9.741   8.483
   51POPC   PO4  915   7.561  10.112   8.114
   51POPC   GL1  916   7.253  10.090   7.746
   51POPC   GL2  917   7.087  10.418   7.696
   51POPC   C1A  918   7.049   9.947   7.353
   51POPC   D2A  919   7.047   9.711   6.974
   51POPC   C3A  920   7.093   9.930   6.602
   51POPC   C4A  921   6.941  10.052   6.224
   51POPC   C1B  922   7.300  10.441   7.320
   51POPC   C2B  923   7.161  10.314   6.940
   51POPC   C3B  924   7.203  10.441   6.523
   51POPC   C4B  925   7.419  10.225   6.229
   52POPC   NC3  926  10.238   1.385   8.157
   52POPC   PO4  927   9.878   0.897   8.022
   52POPC   GL1  928  10.088   1.127   7.717
   52POPC   GL2  929  10.103   1.533   7.684
   52POPC   C1A  930  10.158   0.867   7.365
   52POPC   D2A  931  10.297   0.982   6.970
   52POPC   C3A  932  10.056   0.888   6.657
   52POPC   C4A  933  10.083   0.868   6.258
   52POPC   C1B  934  10.310   1.366   7.327
   52POPC   C2B  935  10.216   1.493   6.921
   52POPC   C3B  936  10.224   1.341   6.506
   52POPC   C4B  937  10.420   1.239   6.115
   53POPC   NC3  938   8.737   7.045   8.085
   53POPC   PO4  939   9.177   7.491   8.106
   53POPC   GL1  940   8.781   7.418   7.752
   53POPC   GL2  941   8.622   7.093   7.608
   53POPC   C1A  942   8.535   7.516   7.342
   53POPC   D2A  943   8.716   7.494   6.920
   53POPC   C3A  944   8.485   7.629   6.544
   53POPC   C4A  945   8.529   7.445   6.125
   53POPC   C1B  946   8.298   7.030   7.351
   53POPC   C2B  947   8.339   7.137   6.935
   53POPC   C3B  948   8.532   7.111   6.561
   53POPC   C4B  949   8.727   6.992   6.223
   54POPC   NC3  950   8.751   3.946   8.117
   54POPC   PO4  951   8.481   4.552   8.059
   54POPC   GL1  952   8.518   4.306   7.618
   54POPC   GL2  953   8.766   4.094   7.637
   54POPC   C1A  954   8.433   3.928   7.305
   54POPC   D2A  955   8.421   3.731   6.900
   54POPC   C3A  956   8.492   4.069   6.639
   54POPC   C4A  957   8.565   4.023   6.211
   54POPC   C1B  958   8.929   4.380   7.342
   54POPC   C2B  959   8.763   4.464   6.941
   54POPC   C3B  960   8.901   4.394   6.581
   54POPC   C4B  961   8.789   4.470   6.219
   55POPC   NC3  962   9.459   7.133   8.213
   55POPC   PO4  963   9.057   6.683   8.276
   55POPC   GL1  964   9.174   7.062   7.813
   55POPC   GL2  965   9.488   7.231   7.714
   55POPC   C1A  966   9.074   7.207   7.350
   55POPC   D2A  967   8.935   7.016   6.930
   55POPC   C3A  968   9.053   7.233   6.554
   55POPC   C4A  969   9.223   7.080   6.140
   55POPC   C1B  970   9.626   7.043   7.330
   55POPC   C2B  971   9.470   6.928   6.933
   55POPC   C3B  972   9.551   7.099   6.561
   55POPC   C4B  973   9.835   7.020   6.284
   56POPC   NC3  974  10.113   7.606   8.034
   56POPC   PO4  975  10.454   8.173   8.242
   56POPC   GL1  976  10.360   7.984   7.794
   56POPC   GL2  977  10.059   7.891   7.645
   56POPC   C1A  978  10.366   7.776   7.303
   56POPC   D2A  979   0.048   7.930   6.984
   56POPC   C3A  980  10.311   7.783   6.706
   56POPC   C4A  981  10.353   7.797   6.309
   56POPC   C1B  982   9.889   7.996   7.300
   56POPC   C2B  983  10.015   8.142   6.930
   56POPC   C3B  984   9.875   7.971   6.524
   56POPC   C4B  985   9.807   7.868   6.119
   57POPC   NC3  986   1.485   2.942   8.480
   57POPC   PO4  987   0.878   3.079   8.103
   57POPC   GL1  988   0.972   3.352   7.751
   57POPC   GL2  989   1.359   3.363   7.699
   57POPC   C1A  990   1.018   3.239   7.322
   57POPC   D2A  991   1.279   3.207   6.978
   57POPC   C3A  992   1.046   3.276   6.607
   57POPC   C4A  993   1.184   3.364   6.204
   57POPC   C1B  994   1.286   3.683   7.347
   57POPC   C2B  995   1.097   3.791   6.954
   57POPC   C3B  996   1.244   3.743   6.547
   57POPC   C4B  997   1.553   3.731   6.206
   58POPC   NC3  998  10.180   3.603   8.078
   58POPC   PO4  999   9.759   3.072   8.121
   58POPC   GL1 1000   9.840   3.070   7.670
   58POPC   GL2 1001  10.011   3.376   7.603
   58POPC   C1A 1002  10.005   2.989   7.276
   58POPC   D2A 1003   9.877   3.146   6.890
   58POPC   C3A 1004  10.115   3.133   6.554
   58POPC   C4A 1005  10.009   3.226   6.148
   58POPC   C1B 1006  10.053   3.540   7.198
   58POPC   C2B 1007  10.284   3.551   6.836
   58POPC   C3B 1008  10.261   3.740   6.441
   58POPC   C4B 1009  10.096   3.703   6.035
   59POPC   NC3 1010   7.151   7.839   8.382
   59POPC   PO4 1011   7.225   7.840   7.854
   59POPC   GL1 1012   7.135   7.968   7.528
   59POPC   GL2 1013   7.065   8.294   7.556
   59POPC   C1A 1014   7.175   7.767   7.183
   59POPC   D2A 1015   7.347   7.607   6.846
   59POPC   C3A 1016   7.163   7.665   6.433
   59POPC   C4A 1017   7.299   7.692   5.998
   59POPC   C1B 1018   7.280   8.280   7.168
   59POPC   C2B 1019   7.181   8.100   6.809
   59POPC   C3B 1020   7.139   8.171   6.458
   59POPC   C4B 1021   6.964   8.039   6.117
   60POPC   NC3 1022   2.659   6.599   8.119
   60POPC   PO4 1023   3.026   6.036   7.999
   60POPC   GL1 1024   2.761   6.237   7.647
   60POPC   GL2 1025   2.645   6.571   7.612
   60POPC   C1A 1026   2.881   6.370   7.194
   60POPC   D2A 1027   3.142   6.254   6.801
   60POPC   C3A 1028   3.028   6.389   6.382
   60POPC   C4A 1029   3.068   6.134   5.969
   60POPC   C1B 1030   2.327   6.325   7.361
   60POPC   C2B 1031   2.237   6.222   6.928
   60POPC   C3B 1032   2.450   6.399   6.527
   60POPC   C4B 1033   2.598   6.347   6.087
   61POPC   NC3 1034   8.157   4.235   7.945
   61POPC   PO4 1035   7.784   3.776   8.209
   61POPC   GL1 1036   7.765   3.852   7.768
   61POPC   GL2 1037   7.771   4.121   7.601
   61POPC   C1A 1038   7.712   3.685   7.327
   61POPC   D2A 1039   7.628   3.846   6.903
   61POPC   C3A 1040   7.961   3.866   6.619
   61POPC   C4A 1041   8.086   4.129   6.349
   61POPC   C1B 1042   7.987   4.176   7.204
   61POPC   C2B 1043   7.955   4.352   6.782
   61POPC   C3B 1044   7.770   4.510   6.375
   61POPC   C4B 1045   7.621   4.332   5.999
   62POPC   NC3 1046   0.146   0.498   7.940
   62POPC   PO4 1047   0.564   0.019   8.068
   62POPC   GL1 1048   0.478   0.191   7.696
   62POPC   GL2 1049   0.656   0.493   7.770
   62POPC   C1A 1050   0.382   0.088   7.277
   62POPC   D2A 1051   0.533   0.282   6.873
   62POPC   C3A 1052   0.335   0.097   6.494
   62POPC   C4A 1053   0.575   0.107   6.094
   62POPC   C1B 1054   0.503   0.591   7.363
   62POPC   C2B 1055   0.669   0.784   7.031
   62POPC   C3B 1056   0.610   0.828   6.634
   62POPC   C4B 1057   0.484   0.541   6.353
   63POPC   NC3 1058   0.184   4.404   8.399
   63POPC   PO4 1059   0.250   3.793   8.108
   63POPC   GL1 1060   0.516   4.103   7.787
   63POPC   GL2 1061   0.398   4.448   7.702
   63POPC   C1A 1062   0.414   4.092   7.318
   63POPC   D2A 1063   0.563   3.972   6.927
   63POPC   C3A 1064   0.391   4.071   6.523
   63POPC   C4A 1065   0.528   4.007   6.125
   63POPC   C1B 1066   0.640   4.547   7.340
   63POPC   C2B 1067   0.476   4.505   6.935
   63POPC   C3B 1068   0.534   4.577   6.520
   63POPC   C4B 1069   0.739   4.450   6.160
   64POPC   NC3 1070   3.928   0.675   8.062
   64POPC   PO4 1071   3.931   0.024   8.082
   64POPC   GL1 1072   3.891   0.277   7.738
   64POPC   GL2 1073   4.236   0.410   7.710
   64POPC   C1A 1074   3.893   0.172   7.316
   64POPC   D2A 1075   3.730   0.356   6.957
   64POPC   C3A 1076   3.844   0.246   6.540
   64POPC   C4A 1077   3.839   0.598   6.307
   64POPC   C1B 1078   4.382   0.166   7.341
   64POPC   C2B 1079   4.231   0.219   6.931
   64POPC   C3B 1080   4.197   0.585   6.679
   64POPC   C4B 1081   4.326   0.388   6.303
   65POPC   NC3 1082   4.948   9.493   8.228
   65POPC   PO4 1083   4.522   9.024   8.100
   65POPC   GL1 1084   4.864   9.289   7.762
   65POPC   GL2 1085   5.016   9.679   7.754
   65POPC   C1A 1086   5.138   9.412   7.361
   65POPC   D2A 1087   4.933   9.404   6.979
   65POPC   C3A 1088   5.172   9.432   6.618
   65POPC   C4A 1089   5.085   9.584   6.249
   65POPC   C1B 1090   4.680   9.668   7.427
   65POPC   C2B 1091   4.533   9.757   6.991
   65POPC   C3B 1092   4.674   9.639   6.583
   65POPC   C4B 1093   4.719   9.268   6.343
   66POPC   NC3 1094   2.759   5.001   8.130
   66POPC   PO4 1095   2.994   4.461   8.051
   66POPC   GL1 1096   2.834   4.733   7.703
   66POPC   GL2 1097   2.472   4.757   7.754
   66POPC   C1A 1098   2.716   5.040   7.365
   66POPC   D2A 1099   2.772   5.384   7.084
   66POPC   C3A 1100   2.869   5.143   6.716
   66POPC   C4A 1101   2.746   5.112   6.308
   66POPC   C1B 1102   2.538   4.560   7.327
   66POPC   C2B 1103   2.656   4.709   6.926
   66POPC   C3B 1104   2.692   4.628   6.486
   66POPC   C4B 1105   2.962   4.642   6.119
   67POPC   NC3 1106   8.803   8.588   8.090
   67POPC   PO4 1107   9.071   9.155   7.965
   67POPC   GL1 1108   8.970   8.806   7.638
   67POPC   GL2 1109   8.701   8.544   7.597
   67POPC   C1A 1110   9.142   8.691   7.235
   67POPC   D2A 1111   9.065   8.358   6.974
   67POPC   C3A 1112   9.082   8.550   6.591
   67POPC   C4A 1113   8.979   8.413   6.202
   67POPC   C1B 1114   8.623   8.741   7.223
   67POPC   C2B 1115   8.614   8.586   6.819
   67POPC   C3B 1116   8.619   8.711   6.395
   67POPC   C4B 1117   8.512   8.447   6.001
   68POPC   NC3 1118   5.260   0.396   7.793
   68POPC   PO4 1119   4.865   0.012   8.161
   68POPC   GL1 1120   4.714   0.193   7.760
   68POPC   GL2 1121   4.761   0.555   7.738
   68POPC   C1A 1122   4.865   0.222   7.306
   68POPC   D2A 1123   5.119   0.436   7.041
   68POPC   C3A 1124   5.108   0.415   6.629
   68POPC   C4A 1125   5.048   0.376   6.221
   68POPC   C1B 1126   4.571   0.652   7.338
   68POPC   C2B 1127   4.645   0.513   6.914
   68POPC   C3B 1128   4.678   0.684   6.521
   68POPC   C4B 1129   4.705   0.709   6.102
   69POPC   NC3 1130   9.353   5.436   7.969
   69POPC   PO4 1131   9.766   5.982   8.191
   69POPC   GL1 1132   9.730   5.800   7.798
   69POPC   GL2 1133   9.399   5.803   7.611
   69POPC   C1A 1134   9.843   5.933   7.398
   69POPC   D2A 1135   9.547   5.926   7.094
   69POPC   C3A 1136   9.623   5.973   6.668
   69POPC   C4A 1137   9.435   5.923   6.287
   69POPC   C1B 1138   9.391   5.464   7.294
   69POPC   C2B 1139   9.208   5.343   6.909
   69POPC   C3B 1140   9.174   5.511   6.511
   69POPC   C4B 1141   9.178   5.339   6.135
   70POPC   NC3 1142   4.329   2.762   7.885
   70POPC   PO4 1143   3.880   2.326   8.045
   70POPC   GL1 1144   3.935   2.548   7.625
   70POPC   GL2 1145   3.786   2.873   7.522
   70POPC   C1A 1146   4.272   2.483   7.279
   70POPC   D2A 1147   4.476   2.721   6.923
   70POPC   C3A 1148   4.255   2.802   6.512
   70POPC   C4A 1149   4.142   2.611   6.094
   70POPC   C1B 1150   3.813   2.631   7.128
   70POPC   C2B 1151   3.761   2.699   6.649
   70POPC   C3B 1152   3.756   2.906   6.239
   70POPC   C4B 1153   3.831   2.892   5.781
   71POPC   NC3 1154   6.993   6.949   8.400
   71POPC   PO4 1155   7.558   6.876   8.028
   71POPC   GL1 1156   7.549   6.674   7.667
   71POPC   GL2 1157   7.309   6.435   7.702
   71POPC   C1A 1158   7.311   6.727   7.249
   71POPC   D2A 1159   7.199   6.846   6.841
   71POPC   C3A 1160   7.497   6.775   6.543
   71POPC   C4A 1161   7.211   6.606   6.231
   71POPC   C1B 1162   7.198   6.217   7.289
   71POPC   C2B 1163   7.208   6.027   6.860
   71POPC   C3B 1164   7.049   6.184   6.468
   71POPC   C4B 1165   7.291   6.120   6.071
   72POPC   NC3 1166   1.100   5.688   8.102
   72POPC   PO4 1167   1.475   6.181   8.027
   72POPC   GL1 1168   1.545   5.828   7.719
   72POPC   GL2 1169   1.354   5.494   7.708
   72POPC   C1A 1170   1.539   5.697   7.277
   72POPC   D2A 1171   1.320   5.887   6.940
   72POPC   C3A 1172   1.510   5.969   6.549
   72POPC   C4A 1173   1.353   5.789   6.195
   72POPC   C1B 1174   1.054   5.589   7.374
   72POPC   C2B 1175   1.104   5.408   6.949
   72POPC   C3B 1176   1.099   5.547   6.550
   72POPC   C4B 1177   0.930   5.411   6.151
   73POPC   NC3 1178   3.566  10.247   8.144
   73POPC   PO4 1179   3.072   9.845   7.914
   73POPC   GL1 1180   3.441   9.999   7.670
   73POPC   GL2 1181   3.595  10.344   7.655
   73POPC   C1A 1182   3.438   9.945   7.226
   73POPC   D2A 1183   3.404   9.713   6.831
   73POPC   C3A 1184   3.282  10.004   6.524
   73POPC   C4A 1185   2.948   9.987   6.235
   73POPC   C1B 1186   3.461  10.446   7.268
   73POPC   C2B 1187   3.611  10.375   6.853
   73POPC   C3B 1188   3.704  10.277   6.427
   73POPC   C4B 1189   3.737   9.905   6.219
   74POPC   NC3 1190   0.240   8.379   7.936
   74POPC   PO4 1191   0.787   8.731   8.074
   74POPC   GL1 1192   0.689   8.520   7.731
   74POPC   GL2 1193   0.490   8.776   7.587
   74POPC   C1A 1194   0.821   8.474   7.330
   74POPC   D2A 1195   0.650   8.725   7.005
   74POPC   C3A 1196   0.764   8.582   6.621
   74POPC   C4A 1197   0.641   8.577   6.227
   74POPC   C1B 1198   0.184   8.839   7.264
   74POPC   C2B 1199   0.182   8.855   6.841
   74POPC   C3B 1200   0.231   8.589   6.529
   74POPC   C4B 1201   0.070   8.547   6.153
   75POPC   NC3 1202   1.028   6.422   8.033
   75POPC   PO4 1203   0.967   7.026   8.193
   75POPC   GL1 1204   1.249   6.858   7.769
   75POPC   GL2 1205   1.082   6.579   7.566
   75POPC   C1A 1206   1.471   6.725   7.311
   75POPC   D2A 1207   1.228   6.546   6.935
   75POPC   C3A 1208   1.419   6.541   6.490
   75POPC   C4A 1209   1.320   6.504   6.021
   75POPC   C1B 1210   1.097   6.171   7.351
   75POPC   C2B 1211   0.875   6.141   6.956
   75POPC   C3B 1212   1.036   6.165   6.543
   75POPC   C4B 1213   0.991   6.136   6.114
   76POPC   NC3 1214   0.019   4.131   7.867
   76POPC   PO4 1215   9.974   4.362   8.189
   76POPC   GL1 1216  10.005   4.209   7.778
   76POPC   GL2 1217  10.098   3.881   7.658
   76POPC   C1A 1218   9.958   4.290   7.347
   76POPC   D2A 1219  10.135   4.349   6.936
   76POPC   C3A 1220   9.894   4.384   6.582
   76POPC   C4A 1221  10.046   4.434   6.180
   76POPC   C1B 1222  10.343   3.959   7.264
   76POPC   C2B 1223   0.029   4.027   6.874
   76POPC   C3B 1224  10.416   4.242   6.478
   76POPC   C4B 1225  10.476   4.049   6.061
   77POPC   NC3 1226   1.885   5.914   8.124
   77POPC   PO4 1227   1.515   5.360   8.169
   77POPC   GL1 1228   1.857   5.435   7.815
   77POPC   GL2 1229   2.114   5.695   7.733
   77POPC   C1A 1230   1.829   5.305   7.398
   77POPC   D2A 1231   1.900   5.339   6.960
   77POPC   C3A 1232   1.621   5.454   6.628
   77POPC   C4A 1233   1.836   5.407   6.222
   77POPC   C1B 1234   2.036   5.887   7.330
   77POPC   C2B 1235   1.847   5.881   6.919
   77POPC   C3B 1236   2.011   5.789   6.520
   77POPC   C4B 1237   2.256   6.004   6.245
   78POPC   NC3 1238   8.383   3.262   7.892
   78POPC   PO4 1239   9.004   3.073   8.019
   78POPC   GL1 1240   8.819   3.286   7.680
   78POPC   GL2 1241   8.880   3.608   7.749
   78POPC   C1A 1242   8.669   3.458   7.291
   78POPC   D2A 1243   8.554   3.223   6.935
   78POPC   C3A 1244   8.702   3.368   6.536
   78POPC   C4A 1245   8.491   3.285   6.143
   78POPC   C1B 1246   9.096   3.759   7.373
   78POPC   C2B 1247   8.905   3.947   6.996
   78POPC   C3B 1248   8.969   3.892   6.546
   78POPC   C4B 1249   8.918   3.648   6.172
   79POPC   NC3 1250   9.756   4.049   8.508
   79POPC   PO4 1251   9.114   4.275   8.145
   79POPC   GL1 1252   9.256   4.100   7.734
   79POPC   GL2 1253   9.558   3.956   7.760
   79POPC   C1A 1254   9.438   4.302   7.355
   79POPC   D2A 1255   9.262   4.318   6.944
   79POPC   C3A 1256   9.400   4.495   6.552
   79POPC   C4A 1257   9.253   4.241   6.210
   79POPC   C1B 1258   9.665   3.843   7.367
   79POPC   C2B 1259   9.703   4.047   6.971
   79POPC   C3B 1260   9.500   3.981   6.592
   79POPC   C4B 1261   9.744   4.024   6.234
   80POPC   NC3 1262   6.271   6.704   7.742
   80POPC   PO4 1263   6.605   7.122   8.169
   80POPC   GL1 1264   6.680   7.134   7.692
   80POPC   GL2 1265   6.374   7.304   7.607
   80POPC   C1A 1266   6.769   6.871   7.274
   80POPC   D2A 1267   6.667   6.895   6.815
   80POPC   C3A 1268   6.718   6.590   6.451
   80POPC   C4A 1269   6.400   6.459   6.143
   80POPC   C1B 1270   6.589   7.367   7.200
   80POPC   C2B 1271   6.469   7.381   6.752
   80POPC   C3B 1272   6.275   7.169   6.406
   80POPC   C4B 1273   5.994   7.311   6.070
   81POPC   NC3 1274   0.686   1.128   8.343
   81POPC   PO4 1275   0.022   0.858   8.193
   81POPC   GL1 1276   0.084   1.018   7.774
   81POPC   GL2 1277   0.095   1.391   7.768
   81POPC   C1A 1278   0.164   0.969   7.336
   81POPC   D2A 1279   0.300   1.125   6.952
   81POPC   C3A 1280   0.130   1.032   6.562
   81POPC   C4A 1281   0.351   0.979   6.185
   81POPC   C1B 1282   0.306   1.464   7.362
   81POPC   C2B 1283   0.243   1.620   6.908
   81POPC   C3B 1284   0.291   1.490   6.421
   81POPC   C4B 1285   0.607   1.373   6.049
   82POPC   NC3 1286   9.258   6.250   8.155
   82POPC   PO4 1287   8.865   6.695   7.800
   82POPC   GL1 1288   9.033   6.290   7.692
   82POPC   GL2 1289   9.413   6.311   7.672
   82POPC   C1A 1290   9.081   6.159   7.274
   82POPC   D2A 1291   8.832   6.270   6.881
   82POPC   C3A 1292   9.123   6.297   6.505
   82POPC   C4A 1293   9.195   6.723   6.481
   82POPC   C1B 1294   9.339   6.591   7.316
   82POPC   C2B 1295   9.416   6.417   6.902
   82POPC   C3B 1296   9.637   6.456   6.494
   82POPC   C4B 1297   9.957   6.189   6.309
   83POPC   NC3 1298   9.424   0.965   7.880
   83POPC   PO4 1299   8.994   0.558   8.290
   83POPC   GL1 1300   9.168   0.526   7.816
   83POPC   GL2 1301   9.493   0.412   7.633
   83POPC   C1A 1302   9.116   0.578   7.336
   83POPC   D2A 1303   9.219   0.338   6.941
   83POPC   C3A 1304   9.124   0.435   6.532
   83POPC   C4A 1305   9.128   0.829   6.418
   83POPC   C1B 1306   9.631   0.683   7.259
   83POPC   C2B 1307   9.634   0.626   6.810
   83POPC   C3B 1308   9.621   0.602   6.376
   83POPC   C4B 1309   9.492   0.319   6.115
   84POPC   NC3 1310   7.194   7.034   7.800
   84POPC   PO4 1311   7.504   7.474   8.270
   84POPC   GL1 1312   7.462   7.427   7.741
   84POPC   GL2 1313   7.103   7.447   7.555
   84POPC   C1A 1314   7.539   7.390   7.304
   84POPC   D2A 1315   7.589   7.165   6.919
   84POPC   C3A 1316   7.556   7.312   6.498
   84POPC   C4A 1317   7.282   7.134   6.253
   84POPC   C1B 1318   7.083   7.255   7.130
   84POPC   C2B 1319   6.972   7.284   6.691
   84POPC   C3B 1320   6.787   7.077   6.329
   84POPC   C4B 1321   6.809   6.771   5.958
   85POPC   NC3 1322   7.646   1.645   7.900
   85POPC   PO4 1323   8.020   2.193   8.089
   85POPC   GL1 1324   8.016   1.891   7.632
   85POPC   GL2 1325   7.747   1.588   7.433
   85POPC   C1A 1326   8.082   1.791   7.151
   85POPC   D2A 1327   8.233   1.674   6.768
   85POPC   C3A 1328   8.006   1.595   6.396
   85POPC   C4A 1329   8.136   1.610   5.930
   85POPC   C1B 1330   7.646   2.008   7.286
   85POPC   C2B 1331   7.732   2.053   6.889
   85POPC   C3B 1332   7.960   2.090   6.571
   85POPC   C4B 1333   8.051   2.042   6.183
   86POPC   NC3 1334   7.020   9.151   8.016
   86POPC   PO4 1335   7.481   9.428   8.396
   86POPC   GL1 1336   7.498   9.320   7.889
   86POPC   GL2 1337   7.256   9.553   7.708
   86POPC   C1A 1338   7.461   9.148   7.419
   86POPC   D2A 1339   7.353   8.885   7.022
   86POPC   C3A 1340   7.330   9.130   6.634
   86POPC   C4A 1341   7.460   9.073   6.188
   86POPC   C1B 1342   6.979   9.361   7.376
   86POPC   C2B 1343   6.911   9.217   6.958
   86POPC   C3B 1344   6.930   9.430   6.530
   86POPC   C4B 1345   7.322   9.581   6.297
   87POPC   NC3 1346   6.954   1.067   8.222
   87POPC   PO4 1347   7.588   1.298   8.196
   87POPC   GL1 1348   7.340   1.259   7.784
   87POPC   GL2 1349   6.994   1.175   7.741
   87POPC   C1A 1350   7.278   1.175   7.337
   87POPC   D2A 1351   7.297   1.130   6.899
   87POPC   C3A 1352   7.131   1.376   6.565
   87POPC   C4A 1353   7.175   1.351   6.114
   87POPC   C1B 1354   6.866   0.860   7.398
   87POPC   C2B 1355   6.929   0.726   6.948
   87POPC   C3B 1356   7.136   0.810   6.539
   87POPC   C4B 1357   6.859   1.009   6.288
   88POPC   NC3 1358   2.521   0.911   8.107
   88POPC   PO4 1359   3.157   0.989   8.146
   88POPC   GL1 1360   3.109   1.244   7.738
   88POPC   GL2 1361   2.783   1.145   7.692
   88POPC   C1A 1362   3.064   1.353   7.282
   88POPC   D2A 1363   3.016   1.108   6.934
   88POPC   C3A 1364   2.876   1.255   6.551
   88POPC   C4A 1365   3.045   1.131   6.207
   88POPC   C1B 1366   2.604   1.112   7.286
   88POPC   C2B 1367   2.521   1.328   6.909
   88POPC   C3B 1368   2.347   1.178   6.524
   88POPC   C4B 1369   2.462   1.025   6.131
   89POPC   NC3 1370   0.490   9.099   7.994
   89POPC   PO4 1371   0.375   9.763   7.968
   89POPC   GL1 1372   0.574   9.452   7.661
   89POPC   GL2 1373   0.282   9.299   7.560
   89POPC   C1A 1374   0.621   9.183   7.231
   89POPC   D2A 1375   0.428   9.297   6.816
   89POPC   C3A 1376   0.515   9.030   6.467
   89POPC   C4A 1377   0.534   9.020   5.996
   89POPC   C1B 1378   0.425   9.662   7.263
   89POPC   C2B 1379   0.349   9.792   6.900
   89POPC   C3B 1380   0.514   9.777   6.523
   89POPC   C4B 1381   0.351   9.475   6.240
   90POPC   NC3 1382   5.704   9.042   8.010
   90POPC   PO4 1383   5.382   9.683   8.121
   90POPC   GL1 1384   5.566   9.489   7.718
   90POPC   GL2 1385   5.945   9.413   7.708
   90POPC   C1A 1386   5.594   9.164   7.358
   90POPC   D2A 1387   5.346   9.084   6.962
   90POPC   C3A 1388   5.574   9.110   6.567
   90POPC   C4A 1389   5.734   9.354   6.225
   90POPC   C1B 1390   5.884   9.604   7.312
   90POPC   C2B 1391   5.568   9.549   7.008
   90POPC   C3B 1392   5.657   9.641   6.633
   90POPC   C4B 1393   6.022   9.774   6.368
   91POPC   NC3 1394   3.785   2.785   8.156
   91POPC   PO4 1395   3.154   2.984   8.247
   91POPC   GL1 1396   3.400   2.968   7.856
   91POPC   GL2 1397   3.445   2.599   7.812
   91POPC   C1A 1398   3.270   2.974   7.412
   91POPC   D2A 1399   3.042   2.843   7.043
   91POPC   C3A 1400   3.199   2.874   6.618
   91POPC   C4A 1401   3.276   3.065   6.233
   91POPC   C1B 1402   3.384   2.471   7.386
   91POPC   C2B 1403   3.378   2.489   6.934
   91POPC   C3B 1404   3.371   2.405   6.499
   91POPC   C4B 1405   3.360   2.569   6.113
   92POPC   NC3 1406   1.865   8.225   8.105
   92POPC   PO4 1407   1.811   7.561   8.255
   92POPC   GL1 1408   1.642   7.785   7.834
   92POPC   GL2 1409   1.667   8.095   7.628
   92POPC   C1A 1410   1.690   7.651   7.356
   92POPC   D2A 1411   1.700   7.916   6.977
   92POPC   C3A 1412   1.693   7.766   6.537
   92POPC   C4A 1413   1.684   8.178   6.304
   92POPC   C1B 1414   2.063   7.980   7.387
   92POPC   C2B 1415   2.178   7.789   6.968
   92POPC   C3B 1416   2.115   8.041   6.612
   92POPC   C4B 1417   2.115   7.835   6.239
   93POPC   NC3 1418   7.696   7.789   7.966
   93POPC   PO4 1419   8.054   8.298   8.130
   93POPC   GL1 1420   8.001   8.098   7.706
   93POPC   GL2 1421   7.614   8.173   7.634
   93POPC   C1A 1422   8.166   7.923   7.308
   93POPC   D2A 1423   8.149   8.163   6.939
   93POPC   C3A 1424   8.107   7.997   6.542
   93POPC   C4A 1425   8.071   8.213   6.162
   93POPC   C1B 1426   7.656   7.895   7.302
   93POPC   C2B 1427   7.673   7.993   6.902
   93POPC   C3B 1428   7.614   7.878   6.492
   93POPC   C4B 1429   7.545   8.137   6.179
   94POPC   NC3 1430   0.594   7.522   7.913
   94POPC   PO4 1431   0.451   6.906   7.816
   94POPC   GL1 1432   0.777   6.990   7.588
   94POPC   GL2 1433   0.593   7.264   7.472
   94POPC   C1A 1434   0.803   6.923   7.158
   94POPC   D2A 1435   0.483   7.136   6.966
   94POPC   C3A 1436   0.497   7.030   6.593
   94POPC   C4A 1437   0.719   7.149   6.247
   94POPC   C1B 1438   0.137   7.179   7.339
   94POPC   C2B 1439  10.424   7.364   7.010
   94POPC   C3B 1440   0.196   7.468   6.660
   94POPC   C4B 1441   0.225   7.300   6.249
   95POPC   NC3 1442   2.238   7.455   8.105
   95POPC   PO4 1443   1.683   7.016   7.991
   95POPC   GL1 1444   1.739   7.100   7.587
   95POPC   GL2 1445   1.913   7.383   7.709
   95POPC   C1A 1446   1.702   7.181   7.153
   95POPC   D2A 1447   1.673   6.891   6.833
   95POPC   C3A 1448   1.611   7.050   6.465
   95POPC   C4A 1449   1.691   6.832   6.123
   95POPC   C1B 1450   2.203   7.458   7.389
   95POPC   C2B 1451   2.220   7.180   7.054
   95POPC   C3B 1452   1.999   7.297   6.709
   95POPC   C4B 1453   2.021   7.322   6.276
   96POPC   NC3 1454   4.268   3.491   8.044
   96POPC   PO4 1455   4.696   3.917   7.767
   96POPC   GL1 1456   4.377   3.617   7.547
   96POPC   GL2 1457   4.406   3.251   7.616
   96POPC   C1A 1458   4.268   3.471   7.119
   96POPC   D2A 1459   4.435   3.298   6.743
   96POPC   C3A 1460   4.473   3.639   6.432
   96POPC   C4A 1461   4.123   3.887   6.261
   96POPC   C1B 1462   4.240   2.996   7.297
   96POPC   C2B 1463   4.058   3.014   6.934
   96POPC   C3B 1464   3.934   3.221   6.607
   96POPC   C4B 1465   4.098   3.325   6.205
   97POPC   NC3 1466   5.097   2.867   8.187
   97POPC   PO4 1467   4.530   3.080   8.139
   97POPC   GL1 1468   4.796   2.940   7.753
   97POPC   GL2 1469   5.136   2.809   7.678
   97POPC   C1A 1470   4.780   2.913   7.290
   97POPC   D2A 1471   4.989   2.847   6.877
   97POPC   C3A 1472   4.799   2.717   6.531
   97POPC   C4A 1473   4.620   2.765   6.165
   97POPC   C1B 1474   5.226   2.615   7.263
   97POPC   C2B 1475   5.185   2.372   6.828
   97POPC   C3B 1476   5.262   2.525   6.393
   97POPC   C4B 1477   5.241   2.977   6.300
   98POPC   NC3 1478   1.706   6.573   8.044
   98POPC   PO4 1479   2.257   6.183   8.046
   98POPC   GL1 1480   1.918   6.213   7.711
   98POPC   GL2 1481   1.897   6.557   7.589
   98POPC   C1A 1482   1.639   6.207   7.325
   98POPC   D2A 1483   1.717   6.396   6.928
   98POPC   C3A 1484   1.917   6.318   6.537
   98POPC   C4A 1485   1.724   6.236   6.158
   98POPC   C1B 1486   1.990   6.741   7.225
   98POPC   C2B 1487   2.145   6.718   6.826
   98POPC   C3B 1488   2.119   6.831   6.423
   98POPC   C4B 1489   2.121   6.545   6.086
   99POPC   NC3 1490   1.272   2.874   7.937
   99POPC   PO4 1491   0.799   2.223   8.030
   99POPC   GL1 1492   0.887   2.478   7.667
   99POPC   GL2 1493   0.855   2.844   7.634
   99POPC   C1A 1494   0.925   2.255   7.285
   99POPC   D2A 1495   1.128   2.306   6.897
   99POPC   C3A 1496   0.975   2.379   6.472
   99POPC   C4A 1497   1.116   2.504   6.038
   99POPC   C1B 1498   1.080   2.735   7.235
   99POPC   C2B 1499   1.046   2.792   6.782
   99POPC   C3B 1500   1.235   2.845   6.423
   99POPC   C4B 1501   0.881   2.923   6.204
  100POPC   NC3 1502   8.108  10.488   8.008
  100POPC   PO4 1503   8.342   9.829   8.084
  100POPC   GL1 1504   8.029   9.990   7.745
  100POPC   GL2 1505   7.745  10.258   7.675
  100POPC   C1A 1506   8.083  10.192   7.328
  100POPC   D2A 1507   8.080  10.019   6.917
  100POPC   C3A 1508   8.184  10.211   6.532
  100POPC   C4A 1509   7.931  10.276   6.163
  100POPC   C1B 1510   7.588  10.024   7.295
  100POPC   C2B 1511   7.556  10.000   6.840
  100POPC   C3B 1512   7.762   9.907   6.467
  100POPC   C4B 1513   7.691   9.851   6.025
  101POPC   NC3 1514   1.998   1.351   8.057
  101POPC   PO4 1515   1.965   2.026   8.101
  101POPC   GL1 1516   1.717   1.941   7.715
  101POPC   GL2 1517   1.849   2.267   7.644
  101POPC   C1A 1518   1.721   1.686   7.297
  101POPC   D2A 1519   1.957   1.777   6.885
  101POPC   C3A 1520   2.135   1.694   6.465
  101POPC   C4A 1521   1.835   1.665   6.078
  101POPC   C1B 1522   1.946   2.142   7.256
  101POPC   C2B 1523   1.871   2.344   6.902
  101POPC   C3B 1524   1.964   2.369   6.503
  101POPC   C4B 1525   1.897   2.105   6.273
  102POPC   NC3 1526   0.533   3.417   8.122
  102POPC   PO4 1527  10.469   3.451   7.764
  102POPC   GL1 1528   0.183   3.723   7.576
  102POPC   GL2 1529   0.499   3.612   7.661
  102POPC   C1A 1530   0.238   3.620   7.148
  102POPC   D2A 1531   0.203   3.229   6.921
  102POPC   C3A 1532   0.101   3.309   6.486
  102POPC   C4A 1533   0.227   3.633   6.262
  102POPC   C1B 1534   0.729   3.652   7.317
  102POPC   C2B 1535   0.690   3.485   6.915
  102POPC   C3B 1536   0.707   3.654   6.515
  102POPC   C4B 1537   0.672   3.390   6.197
  103POPC   NC3 1538   0.241  10.195   8.096
  103POPC   PO4 1539   1.031  10.223   8.123
  103POPC   GL1 1540   0.812  10.294   7.685
  103POPC   GL2 1541   0.487  10.173   7.662
  103POPC   C1A 1542   0.741  10.093   7.241
  103POPC   D2A 1543   0.512  10.268   6.895
  103POPC   C3A 1544   0.714  10.278   6.504
  103POPC   C4A 1545   0.644  10.107   6.144
  103POPC   C1B 1546   0.170  10.096   7.368
  103POPC   C2B 1547  10.485  10.124   6.977
  103POPC   C3B 1548   0.127  10.130   6.580
  103POPC   C4B 1549   0.139   9.954   6.220
  104POPC   NC3 1550   7.745   0.955   7.891
  104POPC   PO4 1551   8.230   1.233   8.275
  104POPC   GL1 1552   8.258   0.973   7.775
  104POPC   GL2 1553   7.966   1.086   7.471
  104POPC   C1A 1554   8.361   0.937   7.269
  104POPC   D2A 1555   8.134   1.202   6.943
  104POPC   C3A 1556   8.175   1.142   6.513
  104POPC   C4A 1557   7.987   1.134   6.110
  104POPC   C1B 1558   7.728   0.991   7.150
  104POPC   C2B 1559   7.738   0.952   6.706
  104POPC   C3B 1560   7.599   1.251   6.410
  104POPC   C4B 1561   7.646   1.528   6.052
  105POPC   NC3 1562   6.767  10.078   7.964
  105POPC   PO4 1563   6.182   9.668   8.079
  105POPC   GL1 1564   6.250   9.878   7.692
  105POPC   GL2 1565   6.307  10.226   7.729
  105POPC   C1A 1566   6.122  10.061   7.284
  105POPC   D2A 1567   6.084   9.901   6.877
  105POPC   C3A 1568   6.087  10.248   6.595
  105POPC   C4A 1569   6.346  10.228   6.276
  105POPC   C1B 1570   6.611  10.239   7.361
  105POPC   C2B 1571   6.687  10.081   6.955
  105POPC   C3B 1572   6.721  10.305   6.609
  105POPC   C4B 1573   6.736   0.040   6.227
  106POPC   NC3 1574   4.853   1.918   7.991
  106POPC   PO4 1575   5.165   2.423   8.105
  106POPC   GL1 1576   4.941   2.331   7.661
  106POPC   GL2 1577   4.928   1.989   7.503
  106POPC   C1A 1578   4.784   2.383   7.215
  106POPC   D2A 1579   4.636   2.241   6.825
  106POPC   C3A 1580   4.847   2.234   6.429
  106POPC   C4A 1581   4.690   2.302   5.990
  106POPC   C1B 1582   4.800   1.849   7.121
  106POPC   C2B 1583   4.979   1.847   6.746
  106POPC   C3B 1584   5.013   1.736   6.353
  106POPC   C4B 1585   5.098   2.018   6.053
  107POPC   NC3 1586  10.222   8.507   8.051
  107POPC   PO4 1587   9.823   9.005   8.065
  107POPC   GL1 1588   9.966   8.766   7.679
  107POPC   GL2 1589   9.980   8.408   7.620
  107POPC   C1A 1590  10.157   8.750   7.288
  107POPC   D2A 1591   9.974   8.842   6.928
  107POPC   C3A 1592  10.231   8.752   6.619
  107POPC   C4A 1593  10.074   8.742   6.238
  107POPC   C1B 1594  10.330   8.282   7.366
  107POPC   C2B 1595  10.442   8.421   6.950
  107POPC   C3B 1596  10.314   8.270   6.536
  107POPC   C4B 1597  10.169   8.232   6.140
  108POPC   NC3 1598   1.929   9.887   7.995
  108POPC   PO4 1599   1.531   9.364   8.237
  108POPC   GL1 1600   1.755   9.444   7.777
  108POPC   GL2 1601   1.995   9.173   7.677
  108POPC   C1A 1602   1.974   9.518   7.329
  108POPC   D2A 1603   1.788   9.421   6.932
  108POPC   C3A 1604   1.909   9.563   6.509
  108POPC   C4A 1605   1.655   9.565   6.154
  108POPC   C1B 1606   2.097   8.985   7.298
  108POPC   C2B 1607   2.158   9.059   6.877
  108POPC   C3B 1608   1.893   9.078   6.552
  108POPC   C4B 1609   1.930   9.137   6.151
  109POPC   NC3 1610   0.824   9.837   7.917
  109POPC   PO4 1611   1.482   9.965   8.010
  109POPC   GL1 1612   1.233  10.002   7.680
  109POPC   GL2 1613   1.307  10.288   7.628
  109POPC   C1A 1614   1.251   9.964   7.245
  109POPC   D2A 1615   1.339   9.753   6.902
  109POPC   C3A 1616   1.053   9.905   6.629
  109POPC   C4A 1617   1.179   9.774   6.266
  109POPC   C1B 1618   1.113  10.460   7.282
  109POPC   C2B 1619   1.041  10.394   6.869
  109POPC   C3B 1620   1.228  10.354   6.448
  109POPC   C4B 1621   1.074   0.019   6.056
  110POPC   NC3 1622   7.762   9.697   8.132
  110POPC   PO4 1623   8.071   9.152   7.994
  110POPC   GL1 1624   8.005   9.412   7.702
  110POPC   GL2 1625   8.306   9.547   7.689
  110POPC   C1A 1626   7.771   9.554   7.373
  110POPC   D2A 1627   7.516   9.497   7.007
  110POPC   C3A 1628   7.742   9.432   6.628
  110POPC   C4A 1629   7.840   9.411   6.231
  110POPC   C1B 1630   8.252   9.711   7.321
  110POPC   C2B 1631   8.122   9.515   6.957
  110POPC   C3B 1632   8.250   9.671   6.556
  110POPC   C4B 1633   8.193   9.809   6.160
  111POPC   NC3 1634   9.256   7.947   8.077
  111POPC   PO4 1635   9.924   8.153   8.042
  111POPC   GL1 1636   9.594   8.084   7.731
  111POPC   GL2 1637   9.586   7.728   7.747
  111POPC   C1A 1638   9.393   8.104   7.311
  111POPC   D2A 1639   9.541   7.983   6.920
  111POPC   C3A 1640   9.365   8.132   6.573
  111POPC   C4A 1641   9.270   8.000   6.191
  111POPC   C1B 1642   9.460   7.593   7.331
  111POPC   C2B 1643   9.363   7.435   6.935
  111POPC   C3B 1644   9.448   7.617   6.544
  111POPC   C4B 1645   9.557   7.449   6.172
  112POPC   NC3 1646   8.646   1.350   8.072
  112POPC   PO4 1647   8.029   1.413   7.811
  112POPC   GL1 1648   8.381   1.457   7.590
  112POPC   GL2 1649   8.678   1.227   7.585
  112POPC   C1A 1650   8.480   1.464   7.180
  112POPC   D2A 1651   8.636   1.338   6.792
  112POPC   C3A 1652   8.513   1.499   6.374
  112POPC   C4A 1653   8.583   1.413   5.968
  112POPC   C1B 1654   8.842   1.037   7.222
  112POPC   C2B 1655   8.744   0.832   6.828
  112POPC   C3B 1656   8.651   0.982   6.440
  112POPC   C4B 1657   8.452   0.949   6.098
  113POPC   NC3 1658   5.195   0.327   8.292
  113POPC   PO4 1659   5.759   0.711   8.143
  113POPC   GL1 1660   5.693   0.660   7.686
  113POPC   GL2 1661   5.804   0.329   7.661
  113POPC   C1A 1662   5.560   0.474   7.236
  113POPC   D2A 1663   5.546   0.642   6.789
  113POPC   C3A 1664   5.524   0.547   6.316
  113POPC   C4A 1665   5.439   0.766   5.905
  113POPC   C1B 1666   6.026   0.556   7.287
  113POPC   C2B 1667   5.992   0.328   6.943
  113POPC   C3B 1668   5.925   0.359   6.556
  113POPC   C4B 1669   6.014   0.721   6.316
  114POPC   NC3 1670   2.060   3.498   8.155
  114POPC   PO4 1671   2.408   2.907   8.268
  114POPC   GL1 1672   2.247   3.154   7.834
  114POPC   GL2 1673   1.944   3.380   7.692
  114POPC   C1A 1674   2.188   3.098   7.363
  114POPC   D2A 1675   1.985   2.940   6.995
  114POPC   C3A 1676   2.175   3.059   6.623
  114POPC   C4A 1677   2.152   3.423   6.366
  114POPC   C1B 1678   1.724   3.374   7.298
  114POPC   C2B 1679   1.611   3.600   6.916
  114POPC   C3B 1680   1.584   3.345   6.559
  114POPC   C4B 1681   1.687   3.172   6.186
  115POPC   NC3 1682   7.778   2.623   8.062
  115POPC   PO4 1683   7.504   2.073   7.897
  115POPC   GL1 1684   7.793   2.359   7.638
  115POPC   GL2 1685   7.975   2.718   7.627
  115POPC   C1A 1686   8.041   2.351   7.282
  115POPC   D2A 1687   7.850   2.551   6.960
  115POPC   C3A 1688   8.063   2.584   6.606
  115POPC   C4A 1689   7.820   2.514   6.253
  115POPC   C1B 1690   8.190   2.892   7.317
  115POPC   C2B 1691   8.090   2.992   6.922
  115POPC   C3B 1692   7.786   3.031   6.614
  115POPC   C4B 1693   8.036   2.988   6.257
  116POPC   NC3 1694   2.936   9.471   8.184
  116POPC   PO4 1695   2.275   9.579   8.048
  116POPC   GL1 1696   2.469   9.368   7.709
  116POPC   GL2 1697   2.753   9.531   7.669
  116POPC   C1A 1698   2.466   9.370   7.246
  116POPC   D2A 1699   2.334   9.594   6.859
  116POPC   C3A 1700   2.356   9.348   6.480
  116POPC   C4A 1701   2.406   9.237   6.060
  116POPC   C1B 1702   2.692   9.825   7.327
  116POPC   C2B 1703   2.872   9.793   6.944
  116POPC   C3B 1704   2.824   9.567   6.610
  116POPC   C4B 1705   2.810   9.504   6.209
  117POPC   NC3 1706   9.411   2.838   7.890
  117POPC   PO4 1707   9.585   2.321   8.330
  117POPC   GL1 1708   9.411   2.331   7.818
  117POPC   GL2 1709   9.214   2.517   7.543
  117POPC   C1A 1710   9.595   2.276   7.328
  117POPC   D2A 1711   9.392   2.421   6.932
  117POPC   C3A 1712   9.537   2.592   6.562
  117POPC   C4A 1713   9.271   2.617   6.203
  117POPC   C1B 1714   9.504   2.803   7.263
  117POPC   C2B 1715   9.384   3.024   6.923
  117POPC   C3B 1716   9.179   2.975   6.574
  117POPC   C4B 1717   9.589   3.082   6.405
  118POPC   NC3 1718   5.616   8.271   8.026
  118POPC   PO4 1719   6.070   8.802   8.171
  118POPC   GL1 1720   6.005   8.594   7.768
  118POPC   GL2 1721   5.660   8.550   7.607
  118POPC   C1A 1722   6.008   8.786   7.346
  118POPC   D2A 1723   5.837   8.905   6.960
  118POPC   C3A 1724   5.884   8.699   6.551
  118POPC   C4A 1725   6.009   8.926   6.174
  118POPC   C1B 1726   5.459   8.670   7.237
  118POPC   C2B 1727   5.453   8.490   6.811
  118POPC   C3B 1728   5.346   8.573   6.390
  118POPC   C4B 1729   5.632   8.602   6.092
  119POPC   NC3 1730   1.170   9.008   8.152
  119POPC   PO4 1731   1.450   8.455   8.118
  119POPC   GL1 1732   1.375   8.508   7.712
  119POPC   GL2 1733   1.154   8.725   7.716
  119POPC   C1A 1734   1.336   8.403   7.292
  119POPC   D2A 1735   1.537   8.385   6.907
  119POPC   C3A 1736   1.269   8.331   6.578
  119POPC   C4A 1737   1.219   8.521   6.239
  119POPC   C1B 1738   1.064   8.911   7.345
  119POPC   C2B 1739   1.156   8.744   6.960
  119POPC   C3B 1740   1.059   8.978   6.644
  119POPC   C4B 1741   0.964   8.949   6.250
  120POPC   NC3 1742   2.765  10.298   8.359
  120POPC   PO4 1743   2.596   0.444   8.206
  120POPC   GL1 1744   2.772   0.432   7.805
  120POPC   GL2 1745   3.009   0.688   7.732
  120POPC   C1A 1746   2.573   0.314   7.403
  120POPC   D2A 1747   2.650   0.075   7.025
  120POPC   C3A 1748   2.765   0.288   6.669
  120POPC   C4A 1749   2.898   0.304   6.267
  120POPC   C1B 1750   2.925   0.711   7.288
  120POPC   C2B 1751   2.663   0.752   6.914
  120POPC   C3B 1752   2.744   0.768   6.484
  120POPC   C4B 1753   2.423   0.516   6.324
  121POPC   NC3 1754   4.047   7.886   8.220
  121POPC   PO4 1755   4.424   7.310   8.079
  121POPC   GL1 1756   4.322   7.400   7.669
  121POPC   GL2 1757   4.054   7.204   7.659
  121POPC   C1A 1758   4.268   7.343   7.208
  121POPC   D2A 1759   4.467   7.436   6.802
  121POPC   C3A 1760   4.354   7.200   6.423
  121POPC   C4A 1761   4.599   6.855   6.215
  121POPC   C1B 1762   4.037   6.907   7.320
  121POPC   C2B 1763   4.135   6.968   6.863
  121POPC   C3B 1764   3.993   6.776   6.465
  121POPC   C4B 1765   4.104   6.915   6.050
  122POPC   NC3 1766   7.946   3.314   8.272
  122POPC   PO4 1767   8.382   3.722   7.940
  122POPC   GL1 1768   8.156   3.596   7.598
  122POPC   GL2 1769   7.901   3.323   7.690
  122POPC   C1A 1770   8.164   3.411   7.238
  122POPC   D2A 1771   7.953   3.460   6.906
  122POPC   C3A 1772   8.174   3.392   6.548
  122POPC   C4A 1773   8.187   3.660   6.185
  122POPC   C1B 1774   7.720   3.135   7.297
  122POPC   C2B 1775   7.465   3.348   6.967
  122POPC   C3B 1776   7.581   3.509   6.530
  122POPC   C4B 1777   7.722   3.350   6.120
  123POPC   NC3 1778   2.564   8.464   8.450
  123POPC   PO4 1779   2.293   7.995   8.006
  123POPC   GL1 1780   2.601   7.875   7.721
  123POPC   GL2 1781   2.929   7.868   7.897
  123POPC   C1A 1782   2.557   7.891   7.275
  123POPC   D2A 1783   2.578   8.130   6.918
  123POPC   C3A 1784   2.592   7.887   6.571
  123POPC   C4A 1785   2.598   8.028   6.179
  123POPC   C1B 1786   3.011   7.805   7.433
  123POPC   C2B 1787   2.998   7.771   6.961
  123POPC   C3B 1788   2.957   7.542   6.538
  123POPC   C4B 1789   2.986   7.684   6.127
  124POPC   NC3 1790   2.509   8.391   7.881
  124POPC   PO4 1791   2.973   8.270   8.398
  124POPC   GL1 1792   2.991   8.365   7.852
  124POPC   GL2 1793   2.977   8.695   7.664
  124POPC   C1A 1794   2.889   8.299   7.349
  124POPC   D2A 1795   2.742   8.617   7.005
  124POPC   C3A 1796   2.697   8.497   6.536
  124POPC   C4A 1797   2.973   8.422   6.178
  124POPC   C1B 1798   2.895   9.025   7.305
  124POPC   C2B 1799   2.668   9.104   6.862
  124POPC   C3B 1800   2.762   9.059   6.434
  124POPC   C4B 1801   2.690   8.828   6.076
  125POPC   NC3 1802   7.806   6.463   8.080
  125POPC   PO4 1803   8.304   6.882   8.172
  125POPC   GL1 1804   8.108   6.699   7.726
  125POPC   GL2 1805   8.021   6.330   7.666
  125POPC   C1A 1806   8.169   6.537   7.252
  125POPC   D2A 1807   8.041   6.311   6.887
  125POPC   C3A 1808   8.011   6.513   6.494
  125POPC   C4A 1809   8.264   6.722   6.191
  125POPC   C1B 1810   7.700   6.352   7.319
  125POPC   C2B 1811   7.536   6.415   6.911
  125POPC   C3B 1812   7.553   6.270   6.496
  125POPC   C4B 1813   7.688   6.477   6.098
  126POPC   NC3 1814   2.588   5.864   7.946
  126POPC   PO4 1815   2.362   5.236   8.093
  126POPC   GL1 1816   2.407   5.278   7.683
  126POPC   GL2 1817   2.693   5.507   7.599
  126POPC   C1A 1818   2.300   5.455   7.299
  126POPC   D2A 1819   2.309   5.676   6.934
  126POPC   C3A 1820   2.552   5.539   6.633
  126POPC   C4A 1821   2.435   5.523   6.250
  126POPC   C1B 1822   2.622   5.876   7.283
  126POPC   C2B 1823   2.689   6.021   6.838
  126POPC   C3B 1824   2.765   5.949   6.399
  126POPC   C4B 1825   2.961   5.581   6.222
  127POPC   NC3 1826   9.359   9.504   8.067
  127POPC   PO4 1827   9.966   9.816   8.022
  127POPC   GL1 1828   9.695   9.656   7.670
  127POPC   GL2 1829   9.310   9.668   7.593
  127POPC   C1A 1830   9.687   9.504   7.235
  127POPC   D2A 1831   9.831   9.343   6.820
  127POPC   C3A 1832   9.850   9.589   6.451
  127POPC   C4A 1833   9.539   9.693   6.145
  127POPC   C1B 1834   9.204   9.349   7.294
  127POPC   C2B 1835   9.291   9.494   6.878
  127POPC   C3B 1836   9.359   9.361   6.477
  127POPC   C4B 1837   9.119   9.277   6.116
  128POPC   NC3 1838   4.684   1.295   7.934
  128POPC   PO4 1839   5.146   0.775   8.063
  128POPC   GL1 1840   5.178   0.880   7.630
  128POPC   GL2 1841   4.872   1.038   7.526
  128POPC   C1A 1842   5.286   0.913   7.185
  128POPC   D2A 1843   5.030   0.897   6.819
  128POPC   C3A 1844   5.128   0.863   6.356
  128POPC   C4A 1845   5.022   1.045   5.919
  128POPC   C1B 1846   5.088   1.385   7.269
  128POPC   C2B 1847   5.221   1.391   6.819
  128POPC   C3B 1848   4.866   1.281   6.524
  128POPC   C4B 1849   4.646   1.366   6.139
  129POPC   NC3 1850   8.788   9.952   8.109
  129POPC   PO4 1851   8.584   0.043   8.052
  129POPC   GL1 1852   8.796  10.293   7.712
  129POPC   GL2 1853   8.556  10.014   7.646
  129POPC   C1A 1854   9.056  10.075   7.379
  129POPC   D2A 1855   9.208  10.023   6.943
  129POPC   C3A 1856   9.067   9.838   6.553
  129POPC   C4A 1857   8.827  10.043   6.267
  129POPC   C1B 1858   8.574  10.107   7.207
  129POPC   C2B 1859   8.732  10.211   6.800
  129POPC   C3B 1860   8.633  10.454   6.448
  129POPC   C4B 1861   8.426  10.244   6.047
  130POPC   NC3 1862   3.456   3.425   8.099
  130POPC   PO4 1863   4.015   3.102   7.924
  130POPC   GL1 1864   3.823   3.398   7.666
  130POPC   GL2 1865   3.433   3.420   7.589
  130POPC   C1A 1866   3.786   3.321   7.233
  130POPC   D2A 1867   3.544   3.046   6.960
  130POPC   C3A 1868   3.429   3.337   6.636
  130POPC   C4A 1869   3.672   3.579   6.351
  130POPC   C1B 1870   3.294   3.440   7.144
  130POPC   C2B 1871   3.152   3.739   6.806
  130POPC   C3B 1872   3.259   3.885   6.405
  130POPC   C4B 1873   3.260   3.653   6.020
  131POPC   NC3 1874   5.183  10.124   8.022
  131POPC   PO4 1875   4.634   9.813   8.064
  131POPC   GL1 1876   4.767  10.144   7.702
  131POPC   GL2 1877   5.088  10.381   7.619
  131POPC   C1A 1878   4.912  10.073   7.236
  131POPC   D2A 1879   5.159   9.871   6.902
  131POPC   C3A 1880   5.069  10.032   6.498
  131POPC   C4A 1881   4.626  10.097   6.350
  131POPC   C1B 1882   5.264  10.430   7.220
  131POPC   C2B 1883   5.003  10.451   6.849
  131POPC   C3B 1884   4.744   0.067   6.492
  131POPC   C4B 1885   4.989  10.380   6.129
  132POPC   NC3 1886   6.437   7.644   8.034
  132POPC   PO4 1887   6.740   8.099   8.334
  132POPC   GL1 1888   6.668   8.031   7.788
  132POPC   GL2 1889   6.680   7.719   7.599
  132POPC   C1A 1890   6.716   8.083   7.260
  132POPC   D2A 1891   6.773   7.769   6.900
  132POPC   C3A 1892   6.671   7.956   6.527
  132POPC   C4A 1893   6.457   8.035   6.141
  132POPC   C1B 1894   6.305   7.785   7.315
  132POPC   C2B 1895   6.266   7.876   6.857
  132POPC   C3B 1896   6.204   7.688   6.414
  132POPC   C4B 1897   5.944   7.827   6.055
  133POPC   NC3 1898   5.442   1.102   8.234
  133POPC   PO4 1899   5.932   1.474   8.030
  133POPC   GL1 1900   5.857   1.419   7.628
  133POPC   GL2 1901   5.587   1.187   7.681
  133POPC   C1A 1902   5.675   1.484   7.230
  133POPC   D2A 1903   5.900   1.595   6.921
  133POPC   C3A 1904   5.711   1.544   6.574
  133POPC   C4A 1905   5.872   1.384   6.210
  133POPC   C1B 1906   5.784   0.998   7.302
  133POPC   C2B 1907   5.696   1.109   6.887
  133POPC   C3B 1908   5.602   1.040   6.464
  133POPC   C4B 1909   5.314   1.318   6.298
  134POPC   NC3 1910   4.699   7.660   7.945
  134POPC   PO4 1911   5.312   7.907   8.016
  134POPC   GL1 1912   5.084   7.934   7.642
  134POPC   GL2 1913   4.771   8.103   7.631
  134POPC   C1A 1914   5.188   7.689   7.279
  134POPC   D2A 1915   4.938   7.558   6.940
  134POPC   C3A 1916   5.101   7.578   6.522
  134POPC   C4A 1917   5.140   7.714   6.090
  134POPC   C1B 1918   4.795   8.025   7.188
  134POPC   C2B 1919   4.647   7.953   6.771
  134POPC   C3B 1920   4.726   7.870   6.364
  134POPC   C4B 1921   4.699   7.980   5.960
  135POPC   NC3 1922   1.027   8.261   8.064
  135POPC   PO4 1923   0.400   7.940   7.986
  135POPC   GL1 1924   0.722   8.022   7.654
  135POPC   GL2 1925   1.081   8.093   7.605
  135POPC   C1A 1926   0.732   7.977   7.249
  135POPC   D2A 1927   0.951   8.180   6.932
  135POPC   C3A 1928   0.809   8.106   6.489
  135POPC   C4A 1929   0.888   8.160   6.066
  135POPC   C1B 1930   1.250   7.871   7.273
  135POPC   C2B 1931   1.345   7.567   6.958
  135POPC   C3B 1932   1.201   7.825   6.656
  135POPC   C4B 1933   1.272   7.875   6.228
  136POPC   NC3 1934   8.636   6.527   8.152
  136POPC   PO4 1935   8.136   6.100   8.164
  136POPC   GL1 1936   8.492   6.122   7.804
  136POPC   GL2 1937   8.517   6.424   7.604
  136POPC   C1A 1938   8.578   6.035   7.316
  136POPC   D2A 1939   8.405   5.904   6.909
  136POPC   C3A 1940   8.398   6.160   6.550
  136POPC   C4A 1941   8.233   6.184   6.146
  136POPC   C1B 1942   8.647   6.660   7.202
  136POPC   C2B 1943   8.446   6.649   6.801
  136POPC   C3B 1944   8.685   6.561   6.456
  136POPC   C4B 1945   8.736   6.260   6.148
  137POPC   NC3 1946   5.609   7.571   8.009
  137POPC   PO4 1947   6.123   7.989   8.043
  137POPC   GL1 1948   5.905   7.907   7.641
  137POPC   GL2 1949   5.582   8.034   7.591
  137POPC   C1A 1950   5.750   7.796   7.186
  137POPC   D2A 1951   5.828   7.618   6.763
  137POPC   C3A 1952   5.583   7.617   6.363
  137POPC   C4A 1953   5.478   7.316   6.011
  137POPC   C1B 1954   5.339   8.173   7.241
  137POPC   C2B 1955   5.176   8.014   6.849
  137POPC   C3B 1956   5.207   8.080   6.436
  137POPC   C4B 1957   5.593   8.124   6.256
  138POPC   NC3 1958   8.385   5.648   8.084
  138POPC   PO4 1959   9.081   5.824   8.099
  138POPC   GL1 1960   8.887   5.785   7.682
  138POPC   GL2 1961   8.589   5.620   7.624
  138POPC   C1A 1962   8.944   5.677   7.241
  138POPC   D2A 1963   9.108   5.856   6.861
  138POPC   C3A 1964   8.830   5.892   6.519
  138POPC   C4A 1965   8.958   5.803   6.118
  138POPC   C1B 1966   8.478   5.481   7.228
  138POPC   C2B 1967   8.709   5.501   6.819
  138POPC   C3B 1968   8.690   5.401   6.386
  138POPC   C4B 1969   8.464   5.720   6.196
  139POPC   NC3 1970   3.845   8.138   7.741
  139POPC   PO4 1971   4.419   8.037   7.977
  139POPC   GL1 1972   4.278   7.910   7.568
  139POPC   GL2 1973   3.948   7.709   7.489
  139POPC   C1A 1974   4.308   7.830   7.139
  139POPC   D2A 1975   4.013   7.635   6.838
  139POPC   C3A 1976   4.229   7.734   6.472
  139POPC   C4A 1977   4.383   7.590   6.078
  139POPC   C1B 1978   3.817   7.988   7.130
  139POPC   C2B 1979   3.657   7.993   6.713
  139POPC   C3B 1980   3.851   8.091   6.331
  139POPC   C4B 1981   3.892   7.701   6.112
  140POPC   NC3 1982   3.283   7.927   8.312
  140POPC   PO4 1983   3.471   8.338   7.882
  140POPC   GL1 1984   3.369   8.150   7.540
  140POPC   GL2 1985   3.418   7.846   7.722
  140POPC   C1A 1986   3.335   8.148   7.105
  140POPC   D2A 1987   3.077   8.292   6.821
  140POPC   C3A 1988   3.088   8.041   6.499
  140POPC   C4A 1989   3.356   8.076   6.176
  140POPC   C1B 1990   3.457   7.688   7.283
  140POPC   C2B 1991   3.472   7.542   6.849
  140POPC   C3B 1992   3.456   7.628   6.391
  140POPC   C4B 1993   3.443   7.628   5.916
  141POPC   NC3 1994   3.480   9.634   8.050
  141POPC   PO4 1995   3.045   9.067   8.005
  141POPC   GL1 1996   3.221   9.345   7.722
  141POPC   GL2 1997   3.490   9.169   7.693
  141POPC   C1A 1998   3.152   9.524   7.304
  141POPC   D2A 1999   3.124   9.285   6.921
  141POPC   C3A 2000   3.254   9.296   6.511
  141POPC   C4A 2001   3.311   9.608   6.222
  141POPC   C1B 2002   3.447   9.109   7.275
  141POPC   C2B 2003   3.630   9.149   6.888
  141POPC   C3B 2004   3.654   8.967   6.508
  141POPC   C4B 2005   3.590   9.178   6.130
  142POPC   NC3 2006   3.473   6.159   8.069
  142POPC   PO4 2007   3.625   6.778   8.108
  142POPC   GL1 2008   3.250   6.665   7.806
  142POPC   GL2 2009   3.255   6.345   7.631
  142POPC   C1A 2010   3.283   6.734   7.312
  142POPC   D2A 2011   3.181   6.753   6.861
  142POPC   C3A 2012   3.487   6.583   6.553
  142POPC   C4A 2013   3.470   6.423   6.086
  142POPC   C1B 2014   3.458   6.269   7.206
  142POPC   C2B 2015   3.660   6.137   6.793
  142POPC   C3B 2016   3.828   6.232   6.387
  142POPC   C4B 2017   3.759   5.995   5.993
  143POPC   NC3 2018   1.988   2.503   8.087
  143POPC   PO4 2019   1.657   3.110   8.092
  143POPC   GL1 2020   1.759   2.889   7.706
  143POPC   GL2 2021   2.069   2.723   7.642
  143POPC   C1A 2022   1.695   2.657   7.317
  143POPC   D2A 2023   1.507   2.691   6.922
  143POPC   C3A 2024   1.728   2.810   6.561
  143POPC   C4A 2025   1.628   2.617   6.178
  143POPC   C1B 2026   2.235   2.562   7.241
  143POPC   C2B 2027   2.321   2.569   6.779
  143POPC   C3B 2028   2.360   2.662   6.340
  143POPC   C4B 2029   2.147   2.971   6.113
  144POPC   NC3 2030   2.739   3.170   8.093
  144POPC   PO4 2031   2.423   3.697   8.353
  144POPC   GL1 2032   2.547   3.574   7.846
  144POPC   GL2 2033   2.867   3.403   7.670
  144POPC   C1A 2034   2.352   3.572   7.406
  144POPC   D2A 2035   2.374   3.375   6.971
  144POPC   C3A 2036   2.546   3.615   6.639
  144POPC   C4A 2037   2.494   3.826   6.243
  144POPC   C1B 2038   2.810   3.492   7.220
  144POPC   C2B 2039   2.917   3.302   6.819
  144POPC   C3B 2040   2.972   3.449   6.379
  144POPC   C4B 2041   2.944   3.266   5.919
  145POPC   NC3 2042   0.662   2.662   8.107
  145POPC   PO4 2043   0.045   2.818   8.196
  145POPC   GL1 2044   0.299   2.956   7.819
  145POPC   GL2 2045   0.391   2.630   7.690
  145POPC   C1A 2046   0.469   3.136   7.414
  145POPC   D2A 2047   0.671   3.002   7.031
  145POPC   C3A 2048   0.561   3.054   6.593
  145POPC   C4A 2049   0.369   2.969   6.180
  145POPC   C1B 2050   0.544   2.595   7.293
  145POPC   C2B 2051   0.637   2.506   6.877
  145POPC   C3B 2052   0.478   2.539   6.478
  145POPC   C4B 2053   0.631   2.419   6.104
  146POPC   NC3 2054   7.820   8.769   8.121
  146POPC   PO4 2055   8.457   8.849   8.245
  146POPC   GL1 2056   8.258   8.653   7.821
  146POPC   GL2 2057   7.905   8.604   7.678
  146POPC   C1A 2058   8.243   8.441   7.371
  146POPC   D2A 2059   8.136   8.668   6.975
  146POPC   C3A 2060   8.153   8.532   6.556
  146POPC   C4A 2061   8.176   8.791   6.191
  146POPC   C1B 2062   7.956   8.942   7.385
  146POPC   C2B 2063   7.837   9.076   6.975
  146POPC   C3B 2064   7.794   8.914   6.538
  146POPC   C4B 2065   7.711   8.618   6.173
  147POPC   NC3 2066   1.206   9.753   8.306
  147POPC   PO4 2067   0.868   9.354   8.047
  147POPC   GL1 2068   1.243   9.517   7.826
  147POPC   GL2 2069   1.235   9.236   7.689
  147POPC   C1A 2070   1.473   9.514   7.366
  147POPC   D2A 2071   1.293   9.257   7.019
  147POPC   C3A 2072   1.412   9.346   6.575
  147POPC   C4A 2073   1.421   9.114   6.193
  147POPC   C1B 2074   0.982   9.511   7.374
  147POPC   C2B 2075   0.841   9.585   6.963
  147POPC   C3B 2076   0.873   9.425   6.545
  147POPC   C4B 2077   0.842   9.419   6.116
  148POPC   NC3 2078   9.564   4.388   8.013
  148POPC   PO4 2079   9.493   5.021   8.213
  148POPC   GL1 2080   9.472   4.839   7.777
  148POPC   GL2 2081   9.205   4.613   7.725
  148POPC   C1A 2082   9.762   4.753   7.403
  148POPC   D2A 2083   9.673   4.617   6.993
  148POPC   C3A 2084   9.702   4.921   6.658
  148POPC   C4A 2085   9.805   4.891   6.239
  148POPC   C1B 2086   9.256   4.789   7.311
  148POPC   C2B 2087   9.142   4.821   6.893
  148POPC   C3B 2088   9.223   5.000   6.513
  148POPC   C4B 2089   9.310   4.819   6.150
  149POPC   NC3 2090   0.931   1.323   7.794
  149POPC   PO4 2091   1.515   1.354   7.977
  149POPC   GL1 2092   1.307   1.057   7.584
  149POPC   GL2 2093   0.891   0.942   7.480
  149POPC   C1A 2094   1.262   0.858   7.167
  149POPC   D2A 2095   1.097   0.997   6.761
  149POPC   C3A 2096   1.389   0.893   6.409
  149POPC   C4A 2097   1.513   1.217   6.109
  149POPC   C1B 2098   0.764   1.268   7.159
  149POPC   C2B 2099   0.684   1.431   6.752
  149POPC   C3B 2100   0.945   1.383   6.428
  149POPC   C4B 2101   0.904   0.982   6.252
  150POPC   NC3 2102   7.885   7.186   8.196
  150POPC   PO4 2103   8.205   7.675   7.961
  150POPC   GL1 2104   7.972   7.511   7.616
  150POPC   GL2 2105   7.879   7.154   7.668
  150POPC   C1A 2106   8.020   7.430   7.186
  150POPC   D2A 2107   7.907   7.559   6.792
  150POPC   C3A 2108   8.014   7.519   6.365
  150POPC   C4A 2109   7.811   7.717   6.032
  150POPC   C1B 2110   7.800   6.903   7.307
  150POPC   C2B 2111   7.937   6.812   6.904
  150POPC   C3B 2112   8.005   7.034   6.548
  150POPC   C4B 2113   7.796   6.976   6.180
  151POPC   NC3 2114   5.801   9.936   8.145
  151POPC   PO4 2115   5.446   0.013   8.007
  151POPC   GL1 2116   5.627  10.333   7.636
  151POPC   GL2 2117   5.745   9.985   7.650
  151POPC   C1A 2118   5.768  10.461   7.216
  151POPC   D2A 2119   5.511   0.139   6.837
  151POPC   C3A 2120   5.418   0.058   6.413
  151POPC   C4A 2121   5.800   0.058   6.175
  151POPC   C1B 2122   5.500   9.974   7.289
  151POPC   C2B 2123   5.607  10.121   6.876
  151POPC   C3B 2124   5.617  10.112   6.452
  151POPC   C4B 2125   5.510   9.818   6.188
  152POPC   NC3 2126   6.289   2.552   8.084
  152POPC   PO4 2127   6.938   2.474   8.256
  152POPC   GL1 2128   6.758   2.610   7.790
  152POPC   GL2 2129   6.393   2.641   7.607
  152POPC   C1A 2130   6.763   2.566   7.308
  152POPC   D2A 2131   6.447   2.632   6.978
  152POPC   C3A 2132   6.686   2.702   6.628
  152POPC   C4A 2133   6.826   2.444   6.294
  152POPC   C1B 2134   6.085   2.813   7.304
  152POPC   C2B 2135   5.987   2.870   6.851
  152POPC   C3B 2136   6.212   2.819   6.454
  152POPC   C4B 2137   6.323   2.374   6.346
  153POPC   NC3 2138  10.205   5.954   8.034
  153POPC   PO4 2139   0.122   6.499   8.195
  153POPC   GL1 2140  10.310   6.444   7.798
  153POPC   GL2 2141   9.940   6.309   7.754
  153POPC   C1A 2142  10.293   6.250   7.367
  153POPC   D2A 2143   0.060   6.240   7.000
  153POPC   C3A 2144  10.366   6.212   6.613
  153POPC   C4A 2145  10.464   6.369   6.218
  153POPC   C1B 2146   9.848   6.493   7.317
  153POPC   C2B 2147  10.099   6.542   6.929
  153POPC   C3B 2148  10.111   6.649   6.489
  153POPC   C4B 2149   9.983   6.626   6.024
  154POPC   NC3 2150   8.158   4.992   8.045
  154POPC   PO4 2151   7.746   4.460   7.980
  154POPC   GL1 2152   7.872   4.619   7.588
  154POPC   GL2 2153   8.189   4.693   7.635
  154POPC   C1A 2154   7.780   4.664   7.147
  154POPC   D2A 2155   7.841   4.879   6.754
  154POPC   C3A 2156   7.497   4.931   6.454
  154POPC   C4A 2157   7.463   4.848   6.006
  154POPC   C1B 2158   8.128   5.029   7.309
  154POPC   C2B 2159   8.185   5.242   6.901
  154POPC   C3B 2160   8.283   5.107   6.526
  154POPC   C4B 2161   7.991   4.961   6.277
  155POPC   NC3 2162   6.308   8.371   8.247
  155POPC   PO4 2163   6.664   8.849   7.988
  155POPC   GL1 2164   6.480   8.824   7.590
  155POPC   GL2 2165   6.572   8.491   7.583
  155POPC   C1A 2166   6.466   8.752   7.118
  155POPC   D2A 2167   6.316   8.928   6.730
  155POPC   C3A 2168   6.483   8.887   6.301
  155POPC   C4A 2169   6.412   8.967   5.839
  155POPC   C1B 2170   6.222   8.310   7.369
  155POPC   C2B 2171   6.106   8.409   6.933
  155POPC   C3B 2172   6.355   8.423   6.532
  155POPC   C4B 2173   6.756   8.458   6.310
  156POPC   NC3 2174   9.253   0.924   8.374
  156POPC   PO4 2175   9.439   1.432   8.092
  156POPC   GL1 2176   9.282   1.413   7.670
  156POPC   GL2 2177   9.636   1.346   7.621
  156POPC   C1A 2178   9.331   1.142   7.272
  156POPC   D2A 2179   9.229   0.895   6.927
  156POPC   C3A 2180   9.136   1.260   6.683
  156POPC   C4A 2181   9.009   1.310   6.266
  156POPC   C1B 2182   9.829   1.245   7.233
  156POPC   C2B 2183   9.659   1.135   6.841
  156POPC   C3B 2184   9.571   1.094   6.409
  156POPC   C4B 2185   9.731   1.113   5.999
  157POPC   NC3 2186   1.778   4.321   8.131
  157POPC   PO4 2187   2.172   3.904   7.932
  157POPC   GL1 2188   1.863   4.072   7.666
  157POPC   GL2 2189   1.821   4.452   7.656
  157POPC   C1A 2190   1.848   3.897   7.272
  157POPC   D2A 2191   2.143   3.821   6.955
  157POPC   C3A 2192   1.938   3.835   6.575
  157POPC   C4A 2193   2.008   3.960   6.192
  157POPC   C1B 2194   2.031   4.385   7.266
  157POPC   C2B 2195   1.869   4.255   6.862
  157POPC   C3B 2196   1.853   4.406   6.441
  157POPC   C4B 2197   1.958   4.412   5.971
  158POPC   NC3 2198   4.030   1.822   8.047
  158POPC   PO4 2199   4.577   1.687   7.720
  158POPC   GL1 2200   4.409   1.992   7.459
  158POPC   GL2 2201   4.094   2.066   7.592
  158POPC   C1A 2202   4.204   2.016   7.056
  158POPC   D2A 2203   4.125   2.367   6.787
  158POPC   C3A 2204   4.335   2.274   6.417
  158POPC   C4A 2205   4.521   1.861   6.308
  158POPC   C1B 2206   3.982   1.661   7.385
  158POPC   C2B 2207   4.042   1.399   7.007
  158POPC   C3B 2208   4.200   1.587   6.632
  158POPC   C4B 2209   4.001   1.861   6.353
  159POPC   NC3 2210   2.809   2.720   8.389
  159POPC   PO4 2211   2.411   2.468   7.902
  159POPC   GL1 2212   2.603   2.804   7.766
  159POPC   GL2 2213   2.935   2.762   7.818
  159POPC   C1A 2214   2.712   3.010   7.404
  159POPC   D2A 2215   2.542   2.914   7.046
  159POPC   C3A 2216   2.679   2.905   6.660
  159POPC   C4A 2217   2.599   3.128   6.320
  159POPC   C1B 2218   2.871   2.509   7.432
  159POPC   C2B 2219   2.746   2.400   7.034
  159POPC   C3B 2220   2.890   2.449   6.660
  159POPC   C4B 2221   2.879   2.664   6.254
  160POPC   NC3 2222   7.433   3.558   7.992
  160POPC   PO4 2223   6.853   3.468   8.332
  160POPC   GL1 2224   7.014   3.317   7.803
  160POPC   GL2 2225   7.349   3.325   7.579
  160POPC   C1A 2226   6.987   3.514   7.287
  160POPC   D2A 2227   7.108   3.744   6.856
  160POPC   C3A 2228   6.861   3.724   6.404
  160POPC   C4A 2229   6.879   3.671   5.921
  160POPC   C1B 2230   7.108   3.013   7.380
  160POPC   C2B 2231   7.020   3.094   6.967
  160POPC   C3B 2232   7.081   3.315   6.611
  160POPC   C4B 2233   7.196   3.402   6.217
  161POPC   NC3 2234   6.599   3.642   8.005
  161POPC   PO4 2235   6.465   2.988   8.068
  161POPC   GL1 2236   6.584   3.102   7.664
  161POPC   GL2 2237   6.531   3.436   7.539
  161POPC   C1A 2238   6.603   3.049   7.231
  161POPC   D2A 2239   6.626   3.398   6.922
  161POPC   C3A 2240   6.588   3.236   6.505
  161POPC   C4A 2241   6.507   3.383   6.106
  161POPC   C1B 2242   6.184   3.322   7.197
  161POPC   C2B 2243   6.148   3.339   6.726
  161POPC   C3B 2244   6.055   3.533   6.320
  161POPC   C4B 2245   5.920   3.915   6.048
  162POPC   NC3 2246   3.463   2.158   8.126
  162POPC   PO4 2247   2.918   1.960   8.151
  162POPC   GL1 2248   3.229   1.817   7.781
  162POPC   GL2 2249   3.587   1.968   7.672
  162POPC   C1A 2250   3.199   1.967   7.318
  162POPC   D2A 2251   3.215   2.031   6.848
  162POPC   C3A 2252   3.176   1.657   6.634
  162POPC   C4A 2253   3.038   1.643   6.212
  162POPC   C1B 2254   3.724   2.123   7.235
  162POPC   C2B 2255   3.717   2.063   6.765
  162POPC   C3B 2256   3.509   1.950   6.369
  162POPC   C4B 2257   3.724   2.230   6.080
  163POPC   NC3 2258   4.036   6.999   8.130
  163POPC   PO4 2259   3.566   7.553   8.170
  163POPC   GL1 2260   3.586   7.381   7.697
  163POPC   GL2 2261   3.561   7.030   7.628
  163POPC   C1A 2262   3.743   7.296   7.241
  163POPC   D2A 2263   3.628   7.039   6.906
  163POPC   C3A 2264   3.810   7.255   6.545
  163POPC   C4A 2265   3.702   7.233   6.127
  163POPC   C1B 2266   3.228   7.237   7.347
  163POPC   C2B 2267   3.065   7.239   6.932
  163POPC   C3B 2268   3.291   7.159   6.533
  163POPC   C4B 2269   3.336   6.904   6.191
  164POPC   NC3 2270   1.910   5.107   8.187
  164POPC   PO4 2271   1.433   4.635   8.006
  164POPC   GL1 2272   1.607   4.945   7.731
  164POPC   GL2 2273   1.988   4.940   7.716
  164POPC   C1A 2274   1.715   4.796   7.296
  164POPC   D2A 2275   1.961   4.778   6.890
  164POPC   C3A 2276   1.766   4.945   6.515
  164POPC   C4A 2277   1.587   4.735   6.161
  164POPC   C1B 2278   2.208   4.950   7.316
  164POPC   C2B 2279   2.364   5.127   6.920
  164POPC   C3B 2280   2.254   5.119   6.506
  164POPC   C4B 2281   2.189   4.754   6.277
  165POPC   NC3 2282   6.888   8.422   8.013
  165POPC   PO4 2283   7.364   8.816   8.025
  165POPC   GL1 2284   7.136   8.789   7.678
  165POPC   GL2 2285   7.421   8.653   7.505
  165POPC   C1A 2286   6.940   8.757   7.309
  165POPC   D2A 2287   6.899   8.525   6.929
  165POPC   C3A 2288   6.849   8.826   6.651
  165POPC   C4A 2289   6.982   8.950   6.276
  165POPC   C1B 2290   7.728   8.493   7.209
  165POPC   C2B 2291   7.654   8.482   6.772
  165POPC   C3B 2292   7.325   8.634   6.516
  165POPC   C4B 2293   7.213   8.533   6.090
  166POPC   NC3 2294   3.096   0.479   8.228
  166POPC   PO4 2295   3.657   0.823   8.387
  166POPC   GL1 2296   3.472   0.610   7.909
  166POPC   GL2 2297   3.358   0.270   7.831
  166POPC   C1A 2298   3.529   0.515   7.421
  166POPC   D2A 2299   3.365   0.708   7.018
  166POPC   C3A 2300   3.403   0.539   6.600
  166POPC   C4A 2301   3.230   0.650   6.227
  166POPC   C1B 2302   3.094   0.248   7.443
  166POPC   C2B 2303   3.166   0.240   6.975
  166POPC   C3B 2304   3.237   0.043   6.543
  166POPC   C4B 2305   3.451   0.152   6.150
  167POPC   NC3 2306   4.053   8.814   8.148
  167POPC   PO4 2307   4.012   9.152   7.668
  167POPC   GL1 2308   4.324   8.823   7.628
  167POPC   GL2 2309   4.290   8.444   7.674
  167POPC   C1A 2310   4.323   8.797   7.190
  167POPC   D2A 2311   4.093   8.909   6.823
  167POPC   C3A 2312   4.024   8.614   6.488
  167POPC   C4A 2313   4.004   8.879   6.116
  167POPC   C1B 2314   4.193   8.319   7.227
  167POPC   C2B 2315   4.152   8.165   6.781
  167POPC   C3B 2316   4.364   8.225   6.415
  167POPC   C4B 2317   4.392   8.492   6.113
  168POPC   NC3 2318  10.017   2.431   8.192
  168POPC   PO4 2319  10.381   1.835   8.115
  168POPC   GL1 2320  10.482   1.912   7.709
  168POPC   GL2 2321  10.160   2.074   7.644
  168POPC   C1A 2322  10.461   1.840   7.278
  168POPC   D2A 2323  10.318   2.022   6.918
  168POPC   C3A 2324  10.426   1.814   6.570
  168POPC   C4A 2325  10.307   1.734   6.183
  168POPC   C1B 2326   9.952   1.904   7.271
  168POPC   C2B 2327   9.812   2.111   6.878
  168POPC   C3B 2328  10.002   2.081   6.470
  168POPC   C4B 2329  10.197   2.336   6.143
  169POPC   NC3 2330   1.401   7.340   8.166
  169POPC   PO4 2331   0.940   7.799   8.030
  169POPC   GL1 2332   1.008   7.570   7.612
  169POPC   GL2 2333   1.334   7.420   7.659
  169POPC   C1A 2334   0.886   7.495   7.147
  169POPC   D2A 2335   0.867   7.376   6.710
  169POPC   C3A 2336   1.212   7.372   6.456
  169POPC   C4A 2337   1.134   7.408   6.034
  169POPC   C1B 2338   1.218   7.165   7.350
  169POPC   C2B 2339   1.220   7.075   6.925
  169POPC   C3B 2340   1.022   6.887   6.587
  169POPC   C4B 2341   1.192   6.943   6.191
  170POPC   NC3 2342  10.266   3.069   7.931
  170POPC   PO4 2343   9.809   2.600   7.821
  170POPC   GL1 2344  10.130   2.601   7.602
  170POPC   GL2 2345  10.402   2.546   7.771
  170POPC   C1A 2346  10.159   2.425   7.218
  170POPC   D2A 2347   9.887   2.612   6.940
  170POPC   C3A 2348  10.060   2.614   6.554
  170POPC   C4A 2349   9.867   2.730   6.182
  170POPC   C1B 2350   0.028   2.796   7.363
  170POPC   C2B 2351  10.358   2.852   6.943
  170POPC   C3B 2352   0.050   2.818   6.569
  170POPC   C4B 2353  10.363   2.881   6.187
  171POPC   NC3 2354  10.112   9.385   8.023
  171POPC   PO4 2355   0.030   8.828   7.904
  171POPC   GL1 2356  10.304   9.154   7.623
  171POPC   GL2 2357  10.358   9.575   7.639
  171POPC   C1A 2358  10.117   9.248   7.245
  171POPC   D2A 2359  10.340   9.237   6.866
  171POPC   C3A 2360  10.177   9.204   6.449
  171POPC   C4A 2361   0.042   9.051   6.238
  171POPC   C1B 2362  10.425   9.649   7.231
  171POPC   C2B 2363  10.175   9.721   6.913
  171POPC   C3B 2364  10.398   9.658   6.553
  171POPC   C4B 2365  10.315   9.567   6.130
  172POPC   NC3 2366   0.016   6.903   7.982
  172POPC   PO4 2367   9.892   7.200   8.086
  172POPC   GL1 2368  10.100   7.086   7.717
  172POPC   GL2 2369  10.259   7.370   7.606
  172POPC   C1A 2370  10.152   6.952   7.289
  172POPC   D2A 2371   9.989   7.072   6.880
  172POPC   C3A 2372  10.308   7.131   6.566
  172POPC   C4A 2373  10.352   6.978   6.186
  172POPC   C1B 2374   9.955   7.453   7.328
  172POPC   C2B 2375   9.873   7.598   6.931
  172POPC   C3B 2376   9.936   7.470   6.524
  172POPC   C4B 2377  10.095   7.416   6.130
  173POPC   NC3 2378   8.564   2.347   8.093
  173POPC   PO4 2379   8.146   2.916   8.088
  173POPC   GL1 2380   8.500   2.783   7.758
  173POPC   GL2 2381   8.464   2.446   7.580
  173POPC   C1A 2382   8.695   2.864   7.327
  173POPC   D2A 2383   8.491   2.679   6.922
  173POPC   C3A 2384   8.463   2.914   6.522
  173POPC   C4A 2385   8.809   2.912   6.202
  173POPC   C1B 2386   8.766   2.353   7.210
  173POPC   C2B 2387   8.907   2.282   6.785
  173POPC   C3B 2388   8.717   2.485   6.466
  173POPC   C4B 2389   8.357   2.441   6.217
  174POPC   NC3 2390   6.400   0.678   4.037
  174POPC   PO4 2391   6.818   0.184   3.942
  174POPC   GL1 2392   6.622   0.324   4.308
  174POPC   GL2 2393   6.282   0.224   4.273
  174POPC   C1A 2394   6.711   0.589   4.661
  174POPC   D2A 2395   6.643   0.348   5.020
  174POPC   C3A 2396   6.569   0.500   5.403
  174POPC   C4A 2397   6.613   0.213   5.753
  174POPC   C1B 2398   6.230   0.424   4.678
  174POPC   C2B 2399   6.104   0.301   5.104
  174POPC   C3B 2400   6.133   0.307   5.538
  174POPC   C4B 2401   6.318   0.657   5.843
  175POPC   NC3 2402   5.625   2.165   3.925
  175POPC   PO4 2403   6.102   1.577   3.852
  175POPC   GL1 2404   6.121   1.709   4.288
  175POPC   GL2 2405   5.758   1.799   4.285
  175POPC   C1A 2406   5.972   1.712   4.744
  175POPC   D2A 2407   5.660   1.785   5.072
  175POPC   C3A 2408   5.823   1.954   5.459
  175POPC   C4A 2409   5.875   1.696   5.806
  175POPC   C1B 2410   5.644   2.088   4.631
  175POPC   C2B 2411   5.322   2.138   4.939
  175POPC   C3B 2412   5.340   2.210   5.349
  175POPC   C4B 2413   5.324   2.336   5.750
  176POPC   NC3 2414   0.030   9.555   4.031
  176POPC   PO4 2415   0.582   9.886   3.749
  176POPC   GL1 2416   0.615   9.617   4.128
  176POPC   GL2 2417   0.449   9.284   4.142
  176POPC   C1A 2418   0.778   9.620   4.545
  176POPC   D2A 2419   0.890   9.620   4.974
  176POPC   C3A 2420   0.641   9.389   5.225
  176POPC   C4A 2421   0.628   9.381   5.652
  176POPC   C1B 2422   0.244   9.223   4.567
  176POPC   C2B 2423   0.160   9.362   4.983
  176POPC   C3B 2424   0.192   9.221   5.392
  176POPC   C4B 2425   0.127   9.362   5.797
  177POPC   NC3 2426   3.526   0.988   3.744
  177POPC   PO4 2427   3.407   0.348   3.973
  177POPC   GL1 2428   3.441   0.418   4.366
  177POPC   GL2 2429   3.634   0.145   4.398
  177POPC   C1A 2430   3.467   0.494   4.794
  177POPC   D2A 2431   3.707   0.582   5.124
  177POPC   C3A 2432   3.604   0.789   5.476
  177POPC   C4A 2433   3.562   0.558   5.855
  177POPC   C1B 2434   3.275   0.034   4.659
  177POPC   C2B 2435   3.139   0.197   5.048
  177POPC   C3B 2436   3.251   0.429   5.393
  177POPC   C4B 2437   3.111   0.366   5.796
  178POPC   NC3 2438   2.982   4.350   4.015
  178POPC   PO4 2439   2.399   4.483   3.756
  178POPC   GL1 2440   2.456   4.377   4.186
  178POPC   GL2 2441   2.592   4.042   4.204
  178POPC   C1A 2442   2.582   4.346   4.614
  178POPC   D2A 2443   2.451   4.174   4.997
  178POPC   C3A 2444   2.551   4.409   5.360
  178POPC   C4A 2445   2.809   4.369   5.706
  178POPC   C1B 2446   2.942   3.994   4.571
  178POPC   C2B 2447   2.926   3.950   5.001
  178POPC   C3B 2448   3.138   4.069   5.382
  178POPC   C4B 2449   3.235   4.103   5.796
  179POPC   NC3 2450   9.483   8.000   3.627
  179POPC   PO4 2451   8.848   8.034   3.854
  179POPC   GL1 2452   9.120   8.080   4.267
  179POPC   GL2 2453   9.480   7.996   4.370
  179POPC   C1A 2454   9.148   7.933   4.716
  179POPC   D2A 2455   9.461   7.961   5.058
  179POPC   C3A 2456   9.233   7.865   5.411
  179POPC   C4A 2457   9.465   7.920   5.749
  179POPC   C1B 2458   9.611   7.653   4.641
  179POPC   C2B 2459   9.852   7.598   5.005
  179POPC   C3B 2460   9.813   7.721   5.407
  179POPC   C4B 2461   9.809   7.499   5.731
  180POPC   NC3 2462   9.420   6.497   3.865
  180POPC   PO4 2463   9.924   6.962   3.996
  180POPC   GL1 2464   9.777   6.678   4.341
  180POPC   GL2 2465   9.405   6.591   4.375
  180POPC   C1A 2466   9.700   6.613   4.775
  180POPC   D2A 2467   9.672   6.355   5.158
  180POPC   C3A 2468   9.681   6.582   5.579
  180POPC   C4A 2469   9.467   6.612   6.024
  180POPC   C1B 2470   9.314   6.301   4.774
  180POPC   C2B 2471   9.164   6.236   5.175
  180POPC   C3B 2472   9.201   6.395   5.555
  180POPC   C4B 2473   9.192   6.197   5.928
  181POPC   NC3 2474   3.228   7.236   4.057
  181POPC   PO4 2475   3.844   7.418   3.979
  181POPC   GL1 2476   3.629   7.401   4.422
  181POPC   GL2 2477   3.231   7.431   4.523
  181POPC   C1A 2478   3.595   7.425   4.892
  181POPC   D2A 2479   3.356   7.258   5.232
  181POPC   C3A 2480   3.540   7.204   5.625
  181POPC   C4A 2481   3.657   6.808   5.808
  181POPC   C1B 2482   3.107   7.025   4.774
  181POPC   C2B 2483   3.148   6.795   5.183
  181POPC   C3B 2484   3.044   7.015   5.578
  181POPC   C4B 2485   3.062   7.467   5.649
  182POPC   NC3 2486   9.675   9.946   3.982
  182POPC   PO4 2487   9.131   9.830   4.248
  182POPC   GL1 2488   9.169  10.120   4.536
  182POPC   GL2 2489   9.401  10.261   4.274
  182POPC   C1A 2490   9.181   9.933   4.966
  182POPC   D2A 2491   9.498   9.900   5.279
  182POPC   C3A 2492   9.474   9.984   5.721
  182POPC   C4A 2493   9.304  10.137   6.124
  182POPC   C1B 2494   9.649  10.387   4.591
  182POPC   C2B 2495   9.533  10.399   4.993
  182POPC   C3B 2496   9.630  10.390   5.394
  182POPC   C4B 2497   9.408  10.474   5.776
  183POPC   NC3 2498   9.321   2.878   3.856
  183POPC   PO4 2499   9.645   2.499   4.142
  183POPC   GL1 2500   9.322   2.605   4.375
  183POPC   GL2 2501   9.040   2.814   4.278
  183POPC   C1A 2502   9.535   2.721   4.752
  183POPC   D2A 2503   9.578   2.502   5.093
  183POPC   C3A 2504   9.437   2.710   5.418
  183POPC   C4A 2505   9.592   2.591   5.778
  183POPC   C1B 2506   9.106   2.952   4.685
  183POPC   C2B 2507   9.259   3.038   5.057
  183POPC   C3B 2508   9.024   3.025   5.385
  183POPC   C4B 2509   9.117   2.851   5.786
  184POPC   NC3 2510   8.827   7.621   4.064
  184POPC   PO4 2511   8.333   8.077   4.202
  184POPC   GL1 2512   8.648   8.205   4.441
  184POPC   GL2 2513   8.706   7.851   4.484
  184POPC   C1A 2514   8.718   8.161   4.871
  184POPC   D2A 2515   8.510   7.929   5.202
  184POPC   C3A 2516   8.558   8.133   5.583
  184POPC   C4A 2517   8.965   8.148   5.764
  184POPC   C1B 2518   8.735   7.611   4.831
  184POPC   C2B 2519   8.524   7.399   5.124
  184POPC   C3B 2520   8.461   7.443   5.561
  184POPC   C4B 2521   8.782   7.688   5.732
  185POPC   NC3 2522   4.672   0.573   3.812
  185POPC   PO4 2523   5.306   0.191   3.918
  185POPC   GL1 2524   5.099   0.404   4.296
  185POPC   GL2 2525   4.758   0.387   4.273
  185POPC   C1A 2526   5.285   0.681   4.663
  185POPC   D2A 2527   5.171   0.828   5.058
  185POPC   C3A 2528   5.036   0.477   5.294
  185POPC   C4A 2529   4.991   0.506   5.732
  185POPC   C1B 2530   4.788   0.400   4.711
  185POPC   C2B 2531   4.589   0.272   5.081
  185POPC   C3B 2532   4.667   0.150   5.511
  185POPC   C4B 2533   4.642   0.181   5.962
  186POPC   NC3 2534   5.717  10.465   3.895
  186POPC   PO4 2535   5.372  10.050   3.592
  186POPC   GL1 2536   5.413  10.234   4.181
  186POPC   GL2 2537   5.765  10.203   4.346
  186POPC   C1A 2538   5.351  10.201   4.644
  186POPC   D2A 2539   5.388  10.117   5.104
  186POPC   C3A 2540   5.310  10.322   5.515
  186POPC   C4A 2541   5.430  10.246   5.961
  186POPC   C1B 2542   5.818  10.279   4.817
  186POPC   C2B 2543   5.824  10.398   5.249
  186POPC   C3B 2544   5.789  10.407   5.663
  186POPC   C4B 2545   5.908  10.109   6.022
  187POPC   NC3 2546  10.414   7.980   3.991
  187POPC   PO4 2547   9.846   8.093   3.892
  187POPC   GL1 2548   9.984   8.066   4.282
  187POPC   GL2 2549  10.005   7.721   4.307
  187POPC   C1A 2550   9.843   8.115   4.685
  187POPC   D2A 2551  10.054   8.066   5.001
  187POPC   C3A 2552   9.873   8.198   5.306
  187POPC   C4A 2553   9.869   8.226   5.735
  187POPC   C1B 2554  10.326   7.776   4.627
  187POPC   C2B 2555   0.006   7.824   5.030
  187POPC   C3B 2556  10.321   7.921   5.415
  187POPC   C4B 2557  10.202   7.816   5.811
  188POPC   NC3 2558   2.822   1.615   3.982
  188POPC   PO4 2559   2.764   0.949   3.857
  188POPC   GL1 2560   2.607   1.199   4.156
  188POPC   GL2 2561   2.974   1.211   4.283
  188POPC   C1A 2562   2.565   1.222   4.576
  188POPC   D2A 2563   2.726   0.986   4.899
  188POPC   C3A 2564   2.395   0.857   5.194
  188POPC   C4A 2565   2.344   0.994   5.622
  188POPC   C1B 2566   3.073   1.436   4.657
  188POPC   C2B 2567   2.929   1.442   5.075
  188POPC   C3B 2568   2.727   1.211   5.370
  188POPC   C4B 2569   2.788   1.252   5.798
  189POPC   NC3 2570   5.646   8.846   3.880
  189POPC   PO4 2571   6.156   8.319   3.872
  189POPC   GL1 2572   5.900   8.358   4.254
  189POPC   GL2 2573   5.769   8.662   4.329
  189POPC   C1A 2574   5.848   8.357   4.718
  189POPC   D2A 2575   5.989   8.518   5.109
  189POPC   C3A 2576   5.791   8.220   5.349
  189POPC   C4A 2577   5.707   8.212   5.765
  189POPC   C1B 2578   5.655   8.967   4.643
  189POPC   C2B 2579   5.755   9.013   5.060
  189POPC   C3B 2580   5.593   8.882   5.438
  189POPC   C4B 2581   5.636   9.039   5.837
  190POPC   NC3 2582   7.374   1.242   3.894
  190POPC   PO4 2583   6.798   0.862   3.913
  190POPC   GL1 2584   7.064   0.977   4.237
  190POPC   GL2 2585   7.078   1.305   4.293
  190POPC   C1A 2586   7.031   0.988   4.698
  190POPC   D2A 2587   7.084   1.134   5.123
  190POPC   C3A 2588   6.899   0.873   5.451
  190POPC   C4A 2589   7.104   0.830   5.889
  190POPC   C1B 2590   7.269   1.440   4.687
  190POPC   C2B 2591   7.104   1.656   4.979
  190POPC   C3B 2592   7.065   1.631   5.372
  190POPC   C4B 2593   7.103   1.282   5.630
  191POPC   NC3 2594   5.867   7.943   3.946
  191POPC   PO4 2595   5.232   8.083   3.950
  191POPC   GL1 2596   5.469   8.094   4.344
  191POPC   GL2 2597   5.795   7.892   4.444
  191POPC   C1A 2598   5.392   8.048   4.777
  191POPC   D2A 2599   5.138   8.155   5.113
  191POPC   C3A 2600   5.174   7.907   5.470
  191POPC   C4A 2601   5.500   7.748   5.751
  191POPC   C1B 2602   5.841   7.852   4.888
  191POPC   C2B 2603   5.672   7.686   5.258
  191POPC   C3B 2604   5.960   7.759   5.555
  191POPC   C4B 2605   6.207   8.123   5.682
  192POPC   NC3 2606   8.094   4.188   3.616
  192POPC   PO4 2607   7.912   4.788   4.010
  192POPC   GL1 2608   7.956   4.475   4.463
  192POPC   GL2 2609   8.131   4.062   4.506
  192POPC   C1A 2610   8.027   4.339   4.904
  192POPC   D2A 2611   8.103   4.022   5.174
  192POPC   C3A 2612   7.946   4.233   5.510
  192POPC   C4A 2613   8.104   4.236   5.881
  192POPC   C1B 2614   7.781   3.910   4.779
  192POPC   C2B 2615   7.597   3.935   5.179
  192POPC   C3B 2616   7.622   3.866   5.611
  192POPC   C4B 2617   7.744   3.850   6.079
  193POPC   NC3 2618   0.273   0.485   3.661
  193POPC   PO4 2619  10.065   0.407   3.837
  193POPC   GL1 2620   9.967   0.221   4.248
  193POPC   GL2 2621  10.109   0.493   4.384
  193POPC   C1A 2622  10.213  10.485   4.601
  193POPC   D2A 2623  10.305   0.021   5.013
  193POPC   C3A 2624  10.167   0.263   5.316
  193POPC   C4A 2625  10.230   0.334   5.720
  193POPC   C1B 2626   9.889   0.316   4.756
  193POPC   C2B 2627   9.705   0.361   5.146
  193POPC   C3B 2628   9.737   0.327   5.610
  193POPC   C4B 2629   9.837   0.636   5.893
  194POPC   NC3 2630   7.225   8.571   4.019
  194POPC   PO4 2631   6.837   8.981   3.674
  194POPC   GL1 2632   6.860   8.874   4.245
  194POPC   GL2 2633   7.140   8.669   4.482
  194POPC   C1A 2634   6.803   8.859   4.745
  194POPC   D2A 2635   7.166   8.764   5.039
  194POPC   C3A 2636   7.083   8.565   5.467
  194POPC   C4A 2637   6.834   8.709   5.819
  194POPC   C1B 2638   7.501   8.531   4.666
  194POPC   C2B 2639   7.757   8.529   5.035
  194POPC   C3B 2640   7.604   8.498   5.452
  194POPC   C4B 2641   7.455   8.816   5.735
  195POPC   NC3 2642   3.821   9.567   3.889
  195POPC   PO4 2643   4.472   9.711   3.864
  195POPC   GL1 2644   4.416   9.367   4.223
  195POPC   GL2 2645   4.168   9.124   4.226
  195POPC   C1A 2646   4.458   9.114   4.648
  195POPC   D2A 2647   4.208   9.166   5.053
  195POPC   C3A 2648   4.470   9.172   5.446
  195POPC   C4A 2649   4.401   9.266   5.906
  195POPC   C1B 2650   4.062   9.436   4.604
  195POPC   C2B 2651   4.039   9.649   5.055
  195POPC   C3B 2652   4.132   9.545   5.492
  195POPC   C4B 2653   3.964   9.162   5.643
  196POPC   NC3 2654   8.762   0.335   3.879
  196POPC   PO4 2655   9.191   0.899   4.001
  196POPC   GL1 2656   9.080   0.640   4.312
  196POPC   GL2 2657   8.947   0.319   4.337
  196POPC   C1A 2658   9.133   0.792   4.691
  196POPC   D2A 2659   8.906   0.873   5.029
  196POPC   C3A 2660   8.978   0.696   5.387
  196POPC   C4A 2661   8.659   0.594   5.614
  196POPC   C1B 2662   8.704   0.495   4.681
  196POPC   C2B 2663   8.679   0.367   5.109
  196POPC   C3B 2664   8.794   0.127   5.461
  196POPC   C4B 2665   8.631   0.154   5.872
  197POPC   NC3 2666  10.037   2.735   4.015
  197POPC   PO4 2667   9.802   2.193   3.692
  197POPC   GL1 2668  10.065   2.263   4.176
  197POPC   GL2 2669  10.324   2.445   4.417
  197POPC   C1A 2670   9.922   2.343   4.679
  197POPC   D2A 2671  10.029   2.703   4.949
  197POPC   C3A 2672   9.954   2.670   5.394
  197POPC   C4A 2673  10.086   2.872   5.755
  197POPC   C1B 2674  10.428   2.857   4.578
  197POPC   C2B 2675  10.425   3.035   4.989
  197POPC   C3B 2676  10.460   2.808   5.354
  197POPC   C4B 2677   0.098   2.918   5.734
  198POPC   NC3 2678   8.367   3.492   3.788
  198POPC   PO4 2679   8.983   3.210   3.908
  198POPC   GL1 2680   8.689   3.345   4.220
  198POPC   GL2 2681   8.788   3.676   4.210
  198POPC   C1A 2682   8.728   3.276   4.669
  198POPC   D2A 2683   8.488   3.183   5.039
  198POPC   C3A 2684   8.579   3.344   5.436
  198POPC   C4A 2685   8.833   3.272   5.787
  198POPC   C1B 2686   8.545   3.751   4.605
  198POPC   C2B 2687   8.560   3.725   5.048
  198POPC   C3B 2688   8.517   3.881   5.438
  198POPC   C4B 2689   8.571   3.704   5.818
  199POPC   NC3 2690   7.964   7.126   3.801
  199POPC   PO4 2691   8.599   7.205   3.922
  199POPC   GL1 2692   8.250   7.304   4.260
  199POPC   GL2 2693   7.900   7.205   4.306
  199POPC   C1A 2694   8.227   7.232   4.733
  199POPC   D2A 2695   7.981   7.075   5.114
  199POPC   C3A 2696   7.945   7.301   5.503
  199POPC   C4A 2697   8.091   7.302   5.914
  199POPC   C1B 2698   7.691   7.209   4.716
  199POPC   C2B 2699   7.581   7.435   5.117
  199POPC   C3B 2700   7.347   7.413   5.509
  199POPC   C4B 2701   7.575   7.305   5.866
  200POPC   NC3 2702   0.412   7.817   3.790
  200POPC   PO4 2703   0.067   8.416   3.954
  200POPC   GL1 2704   0.340   8.115   4.217
  200POPC   GL2 2705   0.261   7.769   4.278
  200POPC   C1A 2706   0.338   8.116   4.676
  200POPC   D2A 2707   0.497   8.013   5.091
  200POPC   C3A 2708   0.263   8.199   5.400
  200POPC   C4A 2709   0.056   8.180   5.797
  200POPC   C1B 2710   0.339   7.610   4.650
  200POPC   C2B 2711   0.394   7.504   5.070
  200POPC   C3B 2712   0.294   7.688   5.482
  200POPC   C4B 2713   0.570   7.983   5.722
  201POPC   NC3 2714   7.299   7.142   3.805
  201POPC   PO4 2715   7.718   6.734   3.970
  201POPC   GL1 2716   7.443   6.986   4.278
  201POPC   GL2 2717   7.387   7.353   4.268
  201POPC   C1A 2718   7.237   6.874   4.665
  201POPC   D2A 2719   7.371   6.723   5.077
  201POPC   C3A 2720   7.559   6.953   5.415
  201POPC   C4A 2721   7.417   6.840   5.834
  201POPC   C1B 2722   7.213   7.372   4.664
  201POPC   C2B 2723   7.142   7.185   5.077
  201POPC   C3B 2724   7.034   7.003   5.487
  201POPC   C4B 2725   7.002   7.244   5.866
  202POPC   NC3 2726   8.873  10.198   4.072
  202POPC   PO4 2727   8.418   9.700   3.910
  202POPC   GL1 2728   8.526   9.948   4.348
  202POPC   GL2 2729   8.541  10.330   4.432
  202POPC   C1A 2730   8.686  10.029   4.797
  202POPC   D2A 2731   8.512  10.377   5.081
  202POPC   C3A 2732   8.468  10.231   5.512
  202POPC   C4A 2733   8.521   9.823   5.756
  202POPC   C1B 2734   8.848   0.007   4.702
  202POPC   C2B 2735   9.028  10.408   5.051
  202POPC   C3B 2736   9.137  10.257   5.410
  202POPC   C4B 2737   8.912  10.226   5.794
  203POPC   NC3 2738   9.522   5.728   3.640
  203POPC   PO4 2739   9.644   6.199   4.165
  203POPC   GL1 2740   9.652   5.884   4.424
  203POPC   GL2 2741   9.570   5.580   4.259
  203POPC   C1A 2742   9.692   5.931   4.828
  203POPC   D2A 2743   9.530   5.830   5.184
  203POPC   C3A 2744   9.559   6.035   5.524
  203POPC   C4A 2745   9.699   6.165   5.893
  203POPC   C1B 2746   9.294   5.552   4.655
  203POPC   C2B 2747   9.416   5.362   5.049
  203POPC   C3B 2748   9.289   5.447   5.465
  203POPC   C4B 2749   9.376   5.687   5.830
  204POPC   NC3 2750   6.430   1.949   3.927
  204POPC   PO4 2751   6.058   2.454   3.877
  204POPC   GL1 2752   6.106   2.218   4.272
  204POPC   GL2 2753   6.454   2.112   4.385
  204POPC   C1A 2754   6.134   2.260   4.735
  204POPC   D2A 2755   6.176   2.037   5.103
  204POPC   C3A 2756   6.241   2.256   5.470
  204POPC   C4A 2757   6.166   2.104   5.878
  204POPC   C1B 2758   6.447   1.845   4.712
  204POPC   C2B 2759   6.621   1.793   5.132
  204POPC   C3B 2760   6.469   1.796   5.566
  204POPC   C4B 2761   6.780   1.615   5.829
  205POPC   NC3 2762   1.785   3.422   3.816
  205POPC   PO4 2763   1.620   2.844   3.833
  205POPC   GL1 2764   1.755   3.121   4.237
  205POPC   GL2 2765   1.681   3.535   4.295
  205POPC   C1A 2766   1.667   3.219   4.690
  205POPC   D2A 2767   1.848   3.075   5.062
  205POPC   C3A 2768   1.825   3.269   5.434
  205POPC   C4A 2769   2.199   3.119   5.630
  205POPC   C1B 2770   2.005   3.598   4.655
  205POPC   C2B 2771   1.945   3.695   5.109
  205POPC   C3B 2772   2.162   3.630   5.512
  205POPC   C4B 2773   1.966   3.511   5.906
  206POPC   NC3 2774   6.306   3.570   3.932
  206POPC   PO4 2775   6.775   3.864   3.947
  206POPC   GL1 2776   6.678   3.679   4.346
  206POPC   GL2 2777   6.392   3.479   4.414
  206POPC   C1A 2778   6.607   3.692   4.811
  206POPC   D2A 2779   6.565   3.450   5.153
  206POPC   C3A 2780   6.525   3.715   5.544
  206POPC   C4A 2781   6.424   3.874   5.987
  206POPC   C1B 2782   6.197   3.328   4.782
  206POPC   C2B 2783   6.160   3.151   5.205
  206POPC   C3B 2784   6.374   3.241   5.595
  206POPC   C4B 2785   6.112   3.506   5.805
  207POPC   NC3 2786   9.798   7.420   3.937
  207POPC   PO4 2787   0.029   7.548   3.861
  207POPC   GL1 2788  10.424   7.396   4.282
  207POPC   GL2 2789  10.310   7.084   4.300
  207POPC   C1A 2790  10.485   7.273   4.738
  207POPC   D2A 2791  10.253   7.163   5.087
  207POPC   C3A 2792  10.245   7.425   5.422
  207POPC   C4A 2793  10.469   7.379   5.797
  207POPC   C1B 2794   9.980   7.268   4.597
  207POPC   C2B 2795   9.737   7.106   4.955
  207POPC   C3B 2796   9.834   7.081   5.393
  207POPC   C4B 2797  10.097   7.052   5.753
  208POPC   NC3 2798   0.130   9.996   3.692
  208POPC   PO4 2799   0.393   0.106   3.921
  208POPC   GL1 2800   0.266  10.380   4.277
  208POPC   GL2 2801   0.328  10.044   4.178
  208POPC   C1A 2802   0.235  10.491   4.720
  208POPC   D2A 2803   0.459   0.020   5.116
  208POPC   C3A 2804   0.442  10.248   5.481
  208POPC   C4A 2805   0.253  10.293   5.864
  208POPC   C1B 2806   0.490  10.046   4.613
  208POPC   C2B 2807   0.421   9.814   4.995
  208POPC   C3B 2808   0.239   9.726   5.408
  208POPC   C4B 2809   0.381   9.799   5.814
  209POPC   NC3 2810   3.880   0.421   3.998
  209POPC   PO4 2811   4.277   0.783   3.678
  209POPC   GL1 2812   4.310   0.647   4.162
  209POPC   GL2 2813   4.246   0.306   4.334
  209POPC   C1A 2814   4.359   0.710   4.616
  209POPC   D2A 2815   4.181   0.720   5.041
  209POPC   C3A 2816   4.367   0.596   5.403
  209POPC   C4A 2817   4.353   0.538   5.795
  209POPC   C1B 2818   3.993   0.338   4.717
  209POPC   C2B 2819   4.083   0.207   5.141
  209POPC   C3B 2820   3.919   0.358   5.535
  209POPC   C4B 2821   3.962   0.274   5.962
  210POPC   NC3 2822   1.920   8.198   3.811
  210POPC   PO4 2823   2.126   7.493   3.753
  210POPC   GL1 2824   2.124   7.618   4.198
  210POPC   GL2 2825   2.025   7.985   4.282
  210POPC   C1A 2826   2.301   7.636   4.622
  210POPC   D2A 2827   2.450   7.756   5.045
  210POPC   C3A 2828   2.223   7.625   5.417
  210POPC   C4A 2829   2.112   7.526   5.822
  210POPC   C1B 2830   1.941   7.964   4.739
  210POPC   C2B 2831   2.012   8.009   5.167
  210POPC   C3B 2832   1.784   7.895   5.508
  210POPC   C4B 2833   1.699   7.834   5.932
  211POPC   NC3 2834   1.750   9.728   4.003
  211POPC   PO4 2835   2.002  10.370   3.824
  211POPC   GL1 2836   1.943  10.193   4.210
  211POPC   GL2 2837   1.579  10.217   4.204
  211POPC   C1A 2838   2.071  10.154   4.662
  211POPC   D2A 2839   2.183  10.354   5.073
  211POPC   C3A 2840   2.083  10.119   5.450
  211POPC   C4A 2841   1.968  10.284   5.813
  211POPC   C1B 2842   1.515  10.203   4.656
  211POPC   C2B 2843   1.732  10.111   5.047
  211POPC   C3B 2844   1.576  10.182   5.455
  211POPC   C4B 2845   1.701   9.858   5.734
  212POPC   NC3 2846   2.329   5.660   3.817
  212POPC   PO4 2847   1.707   5.372   3.705
  212POPC   GL1 2848   1.838   5.456   4.157
  212POPC   GL2 2849   1.510   5.513   4.318
  212POPC   C1A 2850   1.939   5.533   4.641
  212POPC   D2A 2851   2.216   5.814   4.934
  212POPC   C3A 2852   2.314   5.758   5.397
  212POPC   C4A 2853   2.230   5.644   5.822
  212POPC   C1B 2854   1.513   5.793   4.685
  212POPC   C2B 2855   1.741   5.782   5.083
  212POPC   C3B 2856   1.836   5.584   5.519
  212POPC   C4B 2857   1.780   5.803   5.925
  213POPC   NC3 2858   3.101   9.516   3.929
  213POPC   PO4 2859   3.749   9.111   3.811
  213POPC   GL1 2860   3.691   9.259   4.284
  213POPC   GL2 2861   3.604   9.617   4.348
  213POPC   C1A 2862   3.642   9.192   4.734
  213POPC   D2A 2863   3.704   9.103   5.161
  213POPC   C3A 2864   3.634   9.481   5.367
  213POPC   C4A 2865   3.485   9.518   5.770
  213POPC   C1B 2866   3.303   9.576   4.660
  213POPC   C2B 2867   3.210   9.326   5.029
  213POPC   C3B 2868   3.122   9.461   5.429
  213POPC   C4B 2869   2.990   9.737   5.786
  214POPC   NC3 2870   1.758   7.211   3.822
  214POPC   PO4 2871   2.221   6.793   3.909
  214POPC   GL1 2872   2.093   7.086   4.204
  214POPC   GL2 2873   1.783   7.035   4.337
  214POPC   C1A 2874   2.178   7.141   4.644
  214POPC   D2A 2875   2.305   7.274   5.029
  214POPC   C3A 2876   2.184   7.105   5.424
  214POPC   C4A 2877   2.073   7.013   5.852
  214POPC   C1B 2878   1.781   7.456   4.591
  214POPC   C2B 2879   1.843   7.539   5.055
  214POPC   C3B 2880   1.737   7.376   5.497
  214POPC   C4B 2881   1.626   7.322   5.953
  215POPC   NC3 2882   1.777   6.488   3.989
  215POPC   PO4 2883   2.351   6.096   3.950
  215POPC   GL1 2884   2.058   6.141   4.247
  215POPC   GL2 2885   2.183   6.474   4.312
  215POPC   C1A 2886   1.914   6.123   4.669
  215POPC   D2A 2887   1.823   6.323   5.076
  215POPC   C3A 2888   1.866   6.092   5.462
  215POPC   C4A 2889   2.116   6.144   5.788
  215POPC   C1B 2890   2.030   6.645   4.679
  215POPC   C2B 2891   2.203   6.715   5.089
  215POPC   C3B 2892   2.119   6.595   5.529
  215POPC   C4B 2893   1.738   6.521   5.728
  216POPC   NC3 2894   4.643   2.096   4.099
  216POPC   PO4 2895   5.275   1.848   4.020
  216POPC   GL1 2896   5.213   1.966   4.406
  216POPC   GL2 2897   4.894   2.069   4.532
  216POPC   C1A 2898   5.172   1.691   4.755
  216POPC   D2A 2899   4.973   1.799   5.106
  216POPC   C3A 2900   5.241   1.659   5.379
  216POPC   C4A 2901   5.405   1.839   5.690
  216POPC   C1B 2902   4.814   2.359   4.865
  216POPC   C2B 2903   4.850   2.416   5.307
  216POPC   C3B 2904   4.915   2.051   5.577
  216POPC   C4B 2905   4.647   1.805   5.819
  217POPC   NC3 2906   7.924   9.971   3.854
  217POPC   PO4 2907   7.597   0.199   3.910
  217POPC   GL1 2908   7.804   0.176   4.308
  217POPC   GL2 2909   8.059  10.429   4.245
  217POPC   C1A 2910   7.758   0.072   4.740
  217POPC   D2A 2911   7.997  10.445   5.098
  217POPC   C3A 2912   7.737  10.359   5.424
  217POPC   C4A 2913   7.597  10.455   5.811
  217POPC   C1B 2914   8.099  10.187   4.635
  217POPC   C2B 2915   8.219   9.965   4.985
  217POPC   C3B 2916   8.136   9.841   5.368
  217POPC   C4B 2917   8.038  10.059   5.726
  218POPC   NC3 2918   4.992   7.689   3.982
  218POPC   PO4 2919   4.606   7.996   4.271
  218POPC   GL1 2920   4.975   7.903   4.471
  218POPC   GL2 2921   4.977   8.246   4.537
  218POPC   C1A 2922   4.982   7.715   4.908
  218POPC   D2A 2923   4.716   7.554   5.252
  218POPC   C3A 2924   4.816   7.556   5.709
  218POPC   C4A 2925   4.811   7.344   6.153
  218POPC   C1B 2926   4.678   8.150   4.888
  218POPC   C2B 2927   4.644   8.066   5.328
  218POPC   C3B 2928   4.871   8.305   5.636
  218POPC   C4B 2929   5.226   8.177   5.903
  219POPC   NC3 2930   2.701   8.662   3.974
  219POPC   PO4 2931   3.231   9.137   4.156
  219POPC   GL1 2932   3.044   8.743   4.341
  219POPC   GL2 2933   2.686   8.807   4.440
  219POPC   C1A 2934   2.953   8.461   4.717
  219POPC   D2A 2935   2.835   8.575   5.089
  219POPC   C3A 2936   2.945   8.383   5.421
  219POPC   C4A 2937   2.963   8.723   5.669
  219POPC   C1B 2938   2.446   8.662   4.773
  219POPC   C2B 2939   2.340   8.815   5.155
  219POPC   C3B 2940   2.483   8.638   5.506
  219POPC   C4B 2941   2.568   8.398   5.847
  220POPC   NC3 2942   6.342   7.161   4.094
  220POPC   PO4 2943   6.925   7.428   3.909
  220POPC   GL1 2944   6.798   7.383   4.354
  220POPC   GL2 2945   6.711   7.046   4.483
  220POPC   C1A 2946   6.741   7.443   4.824
  220POPC   D2A 2947   6.638   7.174   5.165
  220POPC   C3A 2948   6.597   7.289   5.555
  220POPC   C4A 2949   6.466   7.145   5.937
  220POPC   C1B 2950   6.333   7.110   4.757
  220POPC   C2B 2951   6.136   6.997   5.145
  220POPC   C3B 2952   6.301   6.851   5.522
  220POPC   C4B 2953   6.074   6.793   5.901
  221POPC   NC3 2954   0.955   4.602   3.898
  221POPC   PO4 2955   1.164   5.267   4.016
  221POPC   GL1 2956   1.190   5.085   4.361
  221POPC   GL2 2957   1.254   4.752   4.297
  221POPC   C1A 2958   1.344   5.061   4.743
  221POPC   D2A 2959   1.553   5.325   4.989
  221POPC   C3A 2960   1.488   5.206   5.400
  221POPC   C4A 2961   1.685   5.076   5.801
  221POPC   C1B 2962   0.939   4.715   4.616
  221POPC   C2B 2963   0.945   4.921   5.023
  221POPC   C3B 2964   1.129   4.818   5.425
  221POPC   C4B 2965   1.069   5.115   5.756
  222POPC   NC3 2966   3.036   0.645   4.054
  222POPC   PO4 2967   2.410   0.313   4.036
  222POPC   GL1 2968   2.570   0.333   4.414
  222POPC   GL2 2969   2.937   0.249   4.337
  222POPC   C1A 2970   2.365   0.257   4.811
  222POPC   D2A 2971   2.348   0.316   5.240
  222POPC   C3A 2972   2.356   0.055   5.570
  222POPC   C4A 2973   2.616   0.205   5.869
  222POPC   C1B 2974   2.945   0.524   4.711
  222POPC   C2B 2975   2.791   0.538   5.133
  222POPC   C3B 2976   2.825   0.734   5.523
  222POPC   C4B 2977   2.788   0.709   5.961
  223POPC   NC3 2978   8.482   5.726   3.958
  223POPC   PO4 2979   9.196   5.655   3.962
  223POPC   GL1 2980   8.876   5.610   4.288
  223POPC   GL2 2981   8.717   5.925   4.373
  223POPC   C1A 2982   8.737   5.500   4.706
  223POPC   D2A 2983   8.900   5.268   5.054
  223POPC   C3A 2984   8.785   5.276   5.460
  223POPC   C4A 2985   8.777   5.441   5.839
  223POPC   C1B 2986   8.876   5.994   4.791
  223POPC   C2B 2987   9.040   5.749   5.119
  223POPC   C3B 2988   8.966   5.860   5.552
  223POPC   C4B 2989   8.574   5.951   5.768
  224POPC   NC3 2990   3.373  10.366   3.953
  224POPC   PO4 2991   2.807   9.912   3.862
  224POPC   GL1 2992   3.167   9.920   4.253
  224POPC   GL2 2993   3.494  10.131   4.416
  224POPC   C1A 2994   3.089  10.038   4.709
  224POPC   D2A 2995   3.237  10.213   5.098
  224POPC   C3A 2996   3.306   9.981   5.474
  224POPC   C4A 2997   3.365  10.047   5.924
  224POPC   C1B 2998   3.718  10.363   4.808
  224POPC   C2B 2999   3.599   0.077   5.195
  224POPC   C3B 3000   3.507   0.006   5.631
  224POPC   C4B 3001   3.795  10.315   5.927
  225POPC   NC3 3002   6.688  10.230   3.903
  225POPC   PO4 3003   6.039  10.049   3.931
  225POPC   GL1 3004   6.289  10.209   4.286
  225POPC   GL2 3005   6.647  10.322   4.386
  225POPC   C1A 3006   6.308  10.165   4.737
  225POPC   D2A 3007   6.169  10.021   5.152
  225POPC   C3A 3008   6.335  10.351   5.425
  225POPC   C4A 3009   6.234  10.433   5.849
  225POPC   C1B 3010   6.827  10.143   4.750
  225POPC   C2B 3011   6.691  10.100   5.136
  225POPC   C3B 3012   6.711   9.902   5.511
  225POPC   C4B 3013   6.669  10.188   5.837
  226POPC   NC3 3014   6.554   8.669   3.904
  226POPC   PO4 3015   6.905   8.130   4.008
  226POPC   GL1 3016   6.704   8.387   4.370
  226POPC   GL2 3017   6.366   8.542   4.352
  226POPC   C1A 3018   6.552   8.444   4.826
  226POPC   D2A 3019   6.670   8.688   5.205
  226POPC   C3A 3020   6.415   8.568   5.520
  226POPC   C4A 3021   6.362   8.497   5.989
  226POPC   C1B 3022   6.162   8.785   4.672
  226POPC   C2B 3023   6.266   8.955   5.066
  226POPC   C3B 3024   6.085   9.018   5.463
  226POPC   C4B 3025   5.962   8.657   5.716
  227POPC   NC3 3026   7.143   1.876   3.871
  227POPC   PO4 3027   6.710   2.372   3.986
  227POPC   GL1 3028   6.956   2.160   4.313
  227POPC   GL2 3029   7.029   1.813   4.370
  227POPC   C1A 3030   6.886   2.060   4.762
  227POPC   D2A 3031   7.084   2.144   5.113
  227POPC   C3A 3032   6.878   2.092   5.522
  227POPC   C4A 3033   7.063   2.206   5.908
  227POPC   C1B 3034   7.373   1.993   4.661
  227POPC   C2B 3035   7.566   1.909   5.054
  227POPC   C3B 3036   7.421   2.014   5.453
  227POPC   C4B 3037   7.278   1.774   5.804
  228POPC   NC3 3038   9.441   1.273   4.036
  228POPC   PO4 3039  10.020   1.460   3.893
  228POPC   GL1 3040   9.819   1.471   4.308
  228POPC   GL2 3041   9.772   1.091   4.361
  228POPC   C1A 3042   9.906   1.380   4.746
  228POPC   D2A 3043   9.810   1.102   5.062
  228POPC   C3A 3044   9.710   1.189   5.475
  228POPC   C4A 3045   9.783   1.530   5.711
  228POPC   C1B 3046   9.433   1.208   4.656
  228POPC   C2B 3047   9.290   1.262   5.029
  228POPC   C3B 3048   9.221   1.145   5.423
  228POPC   C4B 3049   9.307   1.319   5.848
  229POPC   NC3 3050   9.300   5.153   4.015
  229POPC   PO4 3051   9.873   5.266   3.887
  229POPC   GL1 3052   9.755   5.069   4.309
  229POPC   GL2 3053   9.507   4.803   4.317
  229POPC   C1A 3054   9.698   4.958   4.758
  229POPC   D2A 3055   9.687   4.744   5.141
  229POPC   C3A 3056   9.634   5.050   5.449
  229POPC   C4A 3057   9.606   5.210   5.880
  229POPC   C1B 3058   9.196   5.008   4.625
  229POPC   C2B 3059   9.232   4.909   4.998
  229POPC   C3B 3060   9.147   4.907   5.365
  229POPC   C4B 3061   9.154   5.042   5.732
  230POPC   NC3 3062   7.116   0.535   3.812
  230POPC   PO4 3063   7.687   0.843   3.951
  230POPC   GL1 3064   7.458   0.582   4.263
  230POPC   GL2 3065   7.091   0.489   4.321
  230POPC   C1A 3066   7.358   0.587   4.715
  230POPC   D2A 3067   7.131   0.594   5.092
  230POPC   C3A 3068   7.400   0.742   5.446
  230POPC   C4A 3069   7.483   0.495   5.828
  230POPC   C1B 3070   7.034   0.185   4.708
  230POPC   C2B 3071   7.325   0.107   5.045
  230POPC   C3B 3072   7.359   0.214   5.427
  230POPC   C4B 3073   7.037   0.411   5.616
  231POPC   NC3 3074   1.984   4.391   3.963
  231POPC   PO4 3075   2.080   3.717   3.995
  231POPC   GL1 3076   2.050   4.017   4.327
  231POPC   GL2 3077   1.694   4.111   4.315
  231POPC   C1A 3078   2.068   4.351   4.661
  231POPC   D2A 3079   2.090   4.518   5.100
  231POPC   C3A 3080   2.113   4.146   5.388
  231POPC   C4A 3081   2.315   4.016   5.785
  231POPC   C1B 3082   1.692   3.994   4.742
  231POPC   C2B 3083   1.657   4.286   5.069
  231POPC   C3B 3084   1.674   4.361   5.525
  231POPC   C4B 3085   1.789   3.966   5.748
  232POPC   NC3 3086   2.477   7.190   3.862
  232POPC   PO4 3087   3.016   7.615   3.884
  232POPC   GL1 3088   2.751   7.416   4.255
  232POPC   GL2 3089   2.584   7.057   4.331
  232POPC   C1A 3090   2.711   7.343   4.710
  232POPC   D2A 3091   2.905   7.448   5.063
  232POPC   C3A 3092   2.651   7.362   5.391
  232POPC   C4A 3093   2.541   7.237   5.765
  232POPC   C1B 3094   2.565   6.829   4.727
  232POPC   C2B 3095   2.663   6.925   5.156
  232POPC   C3B 3096   2.596   6.759   5.600
  232POPC   C4B 3097   2.518   6.855   6.081
  233POPC   NC3 3098   3.967   1.355   3.970
  233POPC   PO4 3099   3.286   1.339   3.907
  233POPC   GL1 3100   3.529   1.220   4.231
  233POPC   GL2 3101   3.443   0.909   4.258
  233POPC   C1A 3102   3.627   1.321   4.642
  233POPC   D2A 3103   3.437   1.439   5.034
  233POPC   C3A 3104   3.679   1.445   5.409
  233POPC   C4A 3105   3.681   1.260   5.776
  233POPC   C1B 3106   3.258   0.949   4.651
  233POPC   C2B 3107   3.219   0.884   5.081
  233POPC   C3B 3108   3.231   1.141   5.428
  233POPC   C4B 3109   3.230   0.939   5.793
  234POPC   NC3 3110   2.031   8.807   3.721
  234POPC   PO4 3111   2.196   8.945   4.288
  234POPC   GL1 3112   1.922   8.773   4.574
  234POPC   GL2 3113   1.740   8.421   4.573
  234POPC   C1A 3114   1.896   8.982   4.931
  234POPC   D2A 3115   1.781   8.985   5.307
  234POPC   C3A 3116   2.105   9.025   5.579
  234POPC   C4A 3117   2.201   8.774   5.909
  234POPC   C1B 3118   1.991   8.458   4.946
  234POPC   C2B 3119   1.988   8.495   5.389
  234POPC   C3B 3120   1.856   8.393   5.809
  234POPC   C4B 3121   2.159   8.353   6.193
  235POPC   NC3 3122   6.846   2.788   4.155
  235POPC   PO4 3123   7.406   3.091   3.886
  235POPC   GL1 3124   7.383   2.877   4.268
  235POPC   GL2 3125   7.345   2.508   4.232
  235POPC   C1A 3126   7.277   2.975   4.688
  235POPC   D2A 3127   7.475   2.955   5.084
  235POPC   C3A 3128   7.292   2.999   5.509
  235POPC   C4A 3129   7.370   2.990   5.970
  235POPC   C1B 3130   7.159   2.478   4.659
  235POPC   C2B 3131   7.032   2.659   5.048
  235POPC   C3B 3132   7.140   2.517   5.458
  235POPC   C4B 3133   6.988   2.689   5.831
  236POPC   NC3 3134   7.133   3.604   3.836
  236POPC   PO4 3135   7.766   3.788   3.899
  236POPC   GL1 3136   7.418   3.524   4.225
  236POPC   GL2 3137   7.075   3.302   4.235
  236POPC   C1A 3138   7.376   3.481   4.655
  236POPC   D2A 3139   7.643   3.443   5.001
  236POPC   C3A 3140   7.433   3.464   5.341
  236POPC   C4A 3141   7.366   3.461   5.761
  236POPC   C1B 3142   6.856   3.271   4.636
  236POPC   C2B 3143   7.035   3.249   5.057
  236POPC   C3B 3144   6.944   3.394   5.472
  236POPC   C4B 3145   6.883   3.181   5.818
  237POPC   NC3 3146   2.489   3.533   3.876
  237POPC   PO4 3147   3.068   3.870   3.959
  237POPC   GL1 3148   2.788   3.590   4.306
  237POPC   GL2 3149   2.438   3.387   4.348
  237POPC   C1A 3150   2.498   3.784   4.653
  237POPC   D2A 3151   2.454   3.677   5.088
  237POPC   C3A 3152   2.651   3.880   5.426
  237POPC   C4A 3153   2.800   3.793   5.831
  237POPC   C1B 3154   2.606   3.293   4.758
  237POPC   C2B 3155   2.430   3.181   5.164
  237POPC   C3B 3156   2.625   3.361   5.530
  237POPC   C4B 3157   2.460   3.426   5.940
  238POPC   NC3 3158   9.607   0.432   3.803
  238POPC   PO4 3159   9.138   0.041   3.914
  238POPC   GL1 3160   9.444   0.256   4.240
  238POPC   GL2 3161   9.599   0.605   4.282
  238POPC   C1A 3162   9.378   0.314   4.662
  238POPC   D2A 3163   9.155   0.385   4.985
  238POPC   C3A 3164   9.270   0.268   5.373
  238POPC   C4A 3165   9.121   0.385   5.765
  238POPC   C1B 3166   9.648   0.752   4.724
  238POPC   C2B 3167   9.431   0.780   5.124
  238POPC   C3B 3168   9.465   0.735   5.556
  238POPC   C4B 3169   9.339   0.799   5.971
  239POPC   NC3 3170   8.499   8.482   4.016
  239POPC   PO4 3171   9.150   8.621   4.210
  239POPC   GL1 3172   8.976   8.597   4.546
  239POPC   GL2 3173   8.704   8.753   4.454
  239POPC   C1A 3174   8.960   8.661   4.962
  239POPC   D2A 3175   8.996   8.347   5.258
  239POPC   C3A 3176   8.970   8.614   5.592
  239POPC   C4A 3177   8.842   8.856   5.950
  239POPC   C1B 3178   8.458   8.604   4.760
  239POPC   C2B 3179   8.506   8.498   5.173
  239POPC   C3B 3180   8.471   8.641   5.529
  239POPC   C4B 3181   8.378   8.953   5.753
  240POPC   NC3 3182   1.771   0.227   4.004
  240POPC   PO4 3183   1.812   0.852   3.800
  240POPC   GL1 3184   2.072   0.641   4.211
  240POPC   GL2 3185   1.895   0.470   4.451
  240POPC   C1A 3186   2.271   0.739   4.667
  240POPC   D2A 3187   1.965   0.550   5.001
  240POPC   C3A 3188   2.022   0.607   5.466
  240POPC   C4A 3189   2.257   0.574   5.864
  240POPC   C1B 3190   1.860   0.115   4.711
  240POPC   C2B 3191   1.642   0.101   5.084
  240POPC   C3B 3192   1.864   0.117   5.427
  240POPC   C4B 3193   1.867   0.272   5.826
  241POPC   NC3 3194   4.285   3.636   3.945
  241POPC   PO4 3195   4.693   3.259   3.937
  241POPC   GL1 3196   4.511   3.346   4.343
  241POPC   GL2 3197   4.191   3.238   4.366
  241POPC   C1A 3198   4.480   3.384   4.819
  241POPC   D2A 3199   4.475   3.296   5.280
  241POPC   C3A 3200   4.424   3.688   5.540
  241POPC   C4A 3201   4.422   4.047   5.889
  241POPC   C1B 3202   4.079   3.057   4.743
  241POPC   C2B 3203   3.968   3.115   5.175
  241POPC   C3B 3204   4.038   3.323   5.564
  241POPC   C4B 3205   4.002   3.671   5.825
  242POPC   NC3 3206   0.359   8.785   3.991
  242POPC   PO4 3207   0.709   8.187   3.831
  242POPC   GL1 3208   0.782   8.388   4.294
  242POPC   GL2 3209   0.480   8.549   4.415
  242POPC   C1A 3210   0.860   8.767   4.631
  242POPC   D2A 3211   0.579   8.937   4.999
  242POPC   C3A 3212   0.657   8.861   5.478
  242POPC   C4A 3213   0.467   8.498   5.762
  242POPC   C1B 3214   0.144   8.717   4.643
  242POPC   C2B 3215   0.054   8.860   5.025
  242POPC   C3B 3216   0.190   8.712   5.375
  242POPC   C4B 3217   0.129   8.864   5.764
  243POPC   NC3 3218   1.268   2.606   4.010
  243POPC   PO4 3219   1.305   3.371   3.816
  243POPC   GL1 3220   1.243   3.166   4.184
  243POPC   GL2 3221   1.116   3.481   4.295
  243POPC   C1A 3222   1.182   3.061   4.629
  243POPC   D2A 3223   0.877   3.212   4.923
  243POPC   C3A 3224   0.905   3.144   5.356
  243POPC   C4A 3225   0.945   3.232   5.779
  243POPC   C1B 3226   1.312   3.600   4.662
  243POPC   C2B 3227   1.356   3.429   5.067
  243POPC   C3B 3228   1.225   3.508   5.470
  243POPC   C4B 3229   1.476   3.439   5.798
  244POPC   NC3 3230   6.036   2.850   4.107
  244POPC   PO4 3231   5.475   2.820   3.896
  244POPC   GL1 3232   5.526   2.837   4.329
  244POPC   GL2 3233   5.682   2.510   4.308
  244POPC   C1A 3234   5.482   3.007   4.785
  244POPC   D2A 3235   5.730   2.854   5.188
  244POPC   C3A 3236   5.719   3.028   5.598
  244POPC   C4A 3237   5.335   3.178   5.822
  244POPC   C1B 3238   5.745   2.576   4.748
  244POPC   C2B 3239   5.774   2.352   5.133
  244POPC   C3B 3240   5.786   2.472   5.586
  244POPC   C4B 3241   6.048   2.575   5.978
  245POPC   NC3 3242   0.231   4.524   3.971
  245POPC   PO4 3243   0.742   4.976   3.736
  245POPC   GL1 3244   0.722   5.005   4.193
  245POPC   GL2 3245   0.495   4.796   4.392
  245POPC   C1A 3246   0.693   5.188   4.632
  245POPC   D2A 3247   0.465   5.066   5.009
  245POPC   C3A 3248   0.640   4.987   5.436
  245POPC   C4A 3249   0.670   4.643   5.695
  245POPC   C1B 3250   0.118   4.863   4.691
  245POPC   C2B 3251   0.056   4.768   5.135
  245POPC   C3B 3252   0.162   4.806   5.565
  245POPC   C4B 3253   0.159   5.115   5.871
  246POPC   NC3 3254   4.347  10.140   3.949
  246POPC   PO4 3255   3.663  10.010   3.929
  246POPC   GL1 3256   3.961   9.980   4.231
  246POPC   GL2 3257   4.019  10.335   4.293
  246POPC   C1A 3258   3.934   9.928   4.641
  246POPC   D2A 3259   3.598   9.883   4.937
  246POPC   C3A 3260   3.769  10.086   5.286
  246POPC   C4A 3261   3.801   9.890   5.670
  246POPC   C1B 3262   4.224  10.364   4.691
  246POPC   C2B 3263   4.372  10.054   5.001
  246POPC   C3B 3264   4.286  10.040   5.438
  246POPC   C4B 3265   4.207  10.440   5.639
  247POPC   NC3 3266   6.227   9.609   3.986
  247POPC   PO4 3267   6.820   9.831   4.074
  247POPC   GL1 3268   6.531   9.791   4.429
  247POPC   GL2 3269   6.317   9.495   4.457
  247POPC   C1A 3270   6.471   9.711   4.886
  247POPC   D2A 3271   6.155   9.450   5.057
  247POPC   C3A 3272   6.154   9.544   5.465
  247POPC   C4A 3273   6.230   9.929   5.677
  247POPC   C1B 3274   6.522   9.249   4.720
  247POPC   C2B 3275   6.709   9.225   5.142
  247POPC   C3B 3276   6.658   9.365   5.603
  247POPC   C4B 3277   6.673   9.314   6.096
  248POPC   NC3 3278   0.816   7.038   4.108
  248POPC   PO4 3279   1.461   6.870   3.966
  248POPC   GL1 3280   1.269   7.063   4.342
  248POPC   GL2 3281   1.093   7.404   4.356
  248POPC   C1A 3282   1.174   7.017   4.767
  248POPC   D2A 3283   1.297   6.950   5.176
  248POPC   C3A 3284   0.929   6.930   5.388
  248POPC   C4A 3285   0.874   7.014   5.791
  248POPC   C1B 3286   1.271   7.523   4.768
  248POPC   C2B 3287   1.348   7.623   5.206
  248POPC   C3B 3288   1.217   7.347   5.537
  248POPC   C4B 3289   1.378   6.932   5.704
  249POPC   NC3 3290   4.173   7.127   3.869
  249POPC   PO4 3291   4.626   7.502   3.785
  249POPC   GL1 3292   4.478   7.458   4.228
  249POPC   GL2 3293   4.169   7.282   4.366
  249POPC   C1A 3294   4.556   7.403   4.692
  249POPC   D2A 3295   4.488   7.074   5.006
  249POPC   C3A 3296   4.356   7.217   5.386
  249POPC   C4A 3297   4.485   7.167   5.806
  249POPC   C1B 3298   4.021   7.139   4.784
  249POPC   C2B 3299   3.879   7.085   5.231
  249POPC   C3B 3300   4.086   6.824   5.552
  249POPC   C4B 3301   4.478   6.659   5.735
  250POPC   NC3 3302   4.810   8.310   3.998
  250POPC   PO4 3303   4.729   8.947   3.973
  250POPC   GL1 3304   4.904   8.719   4.317
  250POPC   GL2 3305   5.233   8.557   4.194
  250POPC   C1A 3306   4.919   8.772   4.773
  250POPC   D2A 3307   4.876   8.575   5.186
  250POPC   C3A 3308   4.803   8.808   5.576
  250POPC   C4A 3309   4.748   8.874   6.030
  250POPC   C1B 3310   5.367   8.540   4.623
  250POPC   C2B 3311   5.467   8.551   5.052
  250POPC   C3B 3312   5.328   8.459   5.478
  250POPC   C4B 3313   5.208   8.695   5.847
  251POPC   NC3 3314   7.757   5.132   4.306
  251POPC   PO4 3315   8.267   5.285   3.980
  251POPC   GL1 3316   8.282   5.200   4.363
  251POPC   GL2 3317   8.270   4.869   4.384
  251POPC   C1A 3318   8.196   5.340   4.745
  251POPC   D2A 3319   7.862   5.176   5.030
  251POPC   C3A 3320   7.902   5.259   5.463
  251POPC   C4A 3321   7.858   5.232   5.877
  251POPC   C1B 3322   8.128   4.829   4.778
  251POPC   C2B 3323   8.151   4.749   5.180
  251POPC   C3B 3324   7.868   4.747   5.470
  251POPC   C4B 3325   7.925   4.708   5.858
  252POPC   NC3 3326   7.571   9.040   3.767
  252POPC   PO4 3327   8.113   8.599   3.753
  252POPC   GL1 3328   7.900   8.793   4.125
  252POPC   GL2 3329   8.215   8.812   4.296
  252POPC   C1A 3330   7.831   8.909   4.602
  252POPC   D2A 3331   8.050   9.023   4.983
  252POPC   C3A 3332   7.977   8.889   5.408
  252POPC   C4A 3333   7.885   9.048   5.861
  252POPC   C1B 3334   8.013   8.453   4.575
  252POPC   C2B 3335   8.146   8.191   4.936
  252POPC   C3B 3336   8.089   8.302   5.380
  252POPC   C4B 3337   8.036   8.552   5.772
  253POPC   NC3 3338   8.835   1.232   4.038
  253POPC   PO4 3339   8.395   0.708   3.870
  253POPC   GL1 3340   8.400   1.059   4.218
  253POPC   GL2 3341   8.665   0.943   4.440
  253POPC   C1A 3342   8.410   1.385   4.602
  253POPC   D2A 3343   8.444   1.685   4.976
  253POPC   C3A 3344   8.401   1.490   5.426
  253POPC   C4A 3345   8.445   1.058   5.596
  253POPC   C1B 3346   8.894   1.266   4.698
  253POPC   C2B 3347   8.808   1.367   5.134
  253POPC   C3B 3348   8.872   1.436   5.573
  253POPC   C4B 3349   8.898   1.021   5.837
  254POPC   NC3 3350   1.346   5.651   3.827
  254POPC   PO4 3351   0.727   5.955   3.785
  254POPC   GL1 3352   0.988   6.010   4.135
  254POPC   GL2 3353   0.974   5.673   4.237
  254POPC   C1A 3354   1.068   6.026   4.600
  254POPC   D2A 3355   0.823   6.019   4.994
  254POPC   C3A 3356   0.980   6.012   5.401
  254POPC   C4A 3357   0.979   5.743   5.771
  254POPC   C1B 3358   1.091   5.508   4.648
  254POPC   C2B 3359   1.145   5.629   5.062
  254POPC   C3B 3360   1.370   5.712   5.419
  254POPC   C4B 3361   1.410   5.498   5.800
  255POPC   NC3 3362   7.227   9.570   3.970
  255POPC   PO4 3363   7.351   8.987   4.156
  255POPC   GL1 3364   7.194   9.281   4.394
  255POPC   GL2 3365   6.858   9.382   4.325
  255POPC   C1A 3366   7.148   9.219   4.788
  255POPC   D2A 3367   7.324   9.295   5.115
  255POPC   C3A 3368   7.122   9.092   5.437
  255POPC   C4A 3369   7.079   9.162   5.839
  255POPC   C1B 3370   6.931   9.645   4.682
  255POPC   C2B 3371   6.963   9.668   5.103
  255POPC   C3B 3372   7.143   9.610   5.492
  255POPC   C4B 3373   6.981   9.662   5.906
  256POPC   NC3 3374   0.467   3.763   4.140
  256POPC   PO4 3375   0.650   3.204   3.908
  256POPC   GL1 3376   0.393   3.233   4.250
  256POPC   GL2 3377   0.645   3.376   4.437
  256POPC   C1A 3378   0.196   3.297   4.630
  256POPC   D2A 3379   0.359   3.501   5.003
  256POPC   C3A 3380   0.213   3.342   5.403
  256POPC   C4A 3381   0.445   3.271   5.768
  256POPC   C1B 3382   0.790   3.671   4.719
  256POPC   C2B 3383   0.888   3.668   5.124
  256POPC   C3B 3384   0.689   3.604   5.462
  256POPC   C4B 3385   0.826   3.716   5.842
  257POPC   NC3 3386   7.225   0.058   4.125
  257POPC   PO4 3387   7.467   9.962   3.966
  257POPC   GL1 3388   7.314   9.821   4.388
  257POPC   GL2 3389   7.124  10.111   4.352
  257POPC   C1A 3390   7.404   9.753   4.839
  257POPC   D2A 3391   7.711   9.982   5.072
  257POPC   C3A 3392   7.621   9.848   5.495
  257POPC   C4A 3393   7.293  10.031   5.759
  257POPC   C1B 3394   7.342  10.229   4.724
  257POPC   C2B 3395   7.224  10.118   5.176
  257POPC   C3B 3396   6.997  10.356   5.481
  257POPC   C4B 3397   7.101  10.489   5.899
  258POPC   NC3 3398   0.198   3.798   3.664
  258POPC   PO4 3399   0.722   4.135   3.958
  258POPC   GL1 3400   0.507   4.243   4.351
  258POPC   GL2 3401   0.194   4.401   4.461
  258POPC   C1A 3402   0.368   4.000   4.717
  258POPC   D2A 3403   0.525   4.008   5.095
  258POPC   C3A 3404   0.258   3.869   5.367
  258POPC   C4A 3405   0.289   3.742   5.772
  258POPC   C1B 3406   0.484   4.519   4.827
  258POPC   C2B 3407   0.743   4.465   5.199
  258POPC   C3B 3408   0.717   4.150   5.551
  258POPC   C4B 3409   0.323   4.251   5.727
  259POPC   NC3 3410   9.088   7.297   3.660
  259POPC   PO4 3411   9.432   7.704   3.988
  259POPC   GL1 3412   9.259   7.353   4.176
  259POPC   GL2 3413   9.492   7.113   4.316
  259POPC   C1A 3414   9.168   7.402   4.606
  259POPC   D2A 3415   9.214   7.525   5.008
  259POPC   C3A 3416   9.437   7.376   5.323
  259POPC   C4A 3417   9.305   7.446   5.739
  259POPC   C1B 3418   9.308   6.939   4.732
  259POPC   C2B 3419   9.345   6.746   5.156
  259POPC   C3B 3420   9.300   6.932   5.570
  259POPC   C4B 3421   9.610   7.050   5.838
  260POPC   NC3 3422   2.806   2.452   3.866
  260POPC   PO4 3423   2.381   3.073   3.853
  260POPC   GL1 3424   2.407   2.865   4.253
  260POPC   GL2 3425   2.531   2.524   4.300
  260POPC   C1A 3426   2.467   2.812   4.709
  260POPC   D2A 3427   2.797   2.862   5.025
  260POPC   C3A 3428   2.653   2.816   5.460
  260POPC   C4A 3429   2.587   2.873   5.879
  260POPC   C1B 3430   2.908   2.557   4.592
  260POPC   C2B 3431   3.217   2.530   4.924
  260POPC   C3B 3432   3.116   2.589   5.340
  260POPC   C4B 3433   2.976   2.531   5.768
  261POPC   NC3 3434   8.922   4.314   3.916
  261POPC   PO4 3435   9.598   3.933   3.932
  261POPC   GL1 3436   9.270   3.987   4.240
  261POPC   GL2 3437   9.267   4.336   4.304
  261POPC   C1A 3438   9.397   3.989   4.673
  261POPC   D2A 3439   9.468   3.746   5.036
  261POPC   C3A 3440   9.382   3.986   5.390
  261POPC   C4A 3441   9.503   4.008   5.793
  261POPC   C1B 3442   9.359   4.504   4.708
  261POPC   C2B 3443   9.234   4.442   5.150
  261POPC   C3B 3444   9.450   4.523   5.529
  261POPC   C4B 3445   9.610   4.473   5.941
  262POPC   NC3 3446   5.061   2.990   3.938
  262POPC   PO4 3447   4.527   2.501   3.896
  262POPC   GL1 3448   4.759   2.591   4.289
  262POPC   GL2 3449   5.094   2.455   4.185
  262POPC   C1A 3450   4.909   2.851   4.687
  262POPC   D2A 3451   4.919   3.001   5.142
  262POPC   C3A 3452   4.749   2.905   5.561
  262POPC   C4A 3453   4.829   3.178   5.972
  262POPC   C1B 3454   5.254   2.488   4.594
  262POPC   C2B 3455   5.270   2.630   5.047
  262POPC   C3B 3456   5.265   2.764   5.490
  262POPC   C4B 3457   5.053   2.709   5.917
  263POPC   NC3 3458   0.264   6.131   3.882
  263POPC   PO4 3459   0.612   6.735   3.849
  263POPC   GL1 3460   0.597   6.394   4.172
  263POPC   GL2 3461   0.245   6.341   4.324
  263POPC   C1A 3462   0.607   6.227   4.601
  263POPC   D2A 3463   0.515   6.473   4.967
  263POPC   C3A 3464   0.547   6.275   5.350
  263POPC   C4A 3465   0.646   6.116   5.755
  263POPC   C1B 3466   0.087   6.280   4.730
  263POPC   C2B 3467  10.484   6.490   5.068
  263POPC   C3B 3468   0.211   6.651   5.379
  263POPC   C4B 3469   0.456   6.575   5.750
  264POPC   NC3 3470   0.575   1.432   3.766
  264POPC   PO4 3471   0.929   0.829   3.731
  264POPC   GL1 3472   0.736   1.042   4.126
  264POPC   GL2 3473   0.430   1.222   4.200
  264POPC   C1A 3474   0.689   1.147   4.610
  264POPC   D2A 3475   0.568   0.956   4.996
  264POPC   C3A 3476   0.634   1.095   5.396
  264POPC   C4A 3477   0.778   0.970   5.764
  264POPC   C1B 3478   0.182   1.085   4.575
  264POPC   C2B 3479   0.089   0.864   4.946
  264POPC   C3B 3480   0.025   0.878   5.389
  264POPC   C4B 3481   0.223   1.124   5.714
  265POPC   NC3 3482   6.579   7.833   3.871
  265POPC   PO4 3483   6.056   7.522   4.034
  265POPC   GL1 3484   6.338   7.645   4.328
  265POPC   GL2 3485   6.626   7.874   4.380
  265POPC   C1A 3486   6.279   7.624   4.750
  265POPC   D2A 3487   6.229   7.512   5.158
  265POPC   C3A 3488   6.449   7.752   5.433
  265POPC   C4A 3489   6.362   7.637   5.852
  265POPC   C1B 3490   6.265   8.094   4.579
  265POPC   C2B 3491   6.271   8.081   5.053
  265POPC   C3B 3492   6.674   8.175   5.274
  265POPC   C4B 3493   6.744   8.218   5.708
  266POPC   NC3 3494   8.074   1.057   3.815
  266POPC   PO4 3495   7.671   1.515   3.650
  266POPC   GL1 3496   7.810   1.312   4.152
  266POPC   GL2 3497   7.544   1.111   4.366
  266POPC   C1A 3498   8.006   1.084   4.527
  266POPC   D2A 3499   8.138   0.922   4.922
  266POPC   C3A 3500   7.855   0.958   5.282
  266POPC   C4A 3501   7.979   1.242   5.614
  266POPC   C1B 3502   7.578   1.053   4.830
  266POPC   C2B 3503   7.526   1.393   5.133
  266POPC   C3B 3504   7.546   1.458   5.534
  266POPC   C4B 3505   7.531   1.094   5.830
  267POPC   NC3 3506   0.640   5.431   3.866
  267POPC   PO4 3507   0.205   4.986   4.045
  267POPC   GL1 3508   0.337   5.339   4.279
  267POPC   GL2 3509   0.378   5.722   4.200
  267POPC   C1A 3510   0.186   5.436   4.671
  267POPC   D2A 3511   0.023   5.304   5.040
  267POPC   C3A 3512   0.255   5.311   5.412
  267POPC   C4A 3513   0.549   5.440   5.759
  267POPC   C1B 3514   0.611   5.709   4.607
  267POPC   C2B 3515   0.510   5.606   5.060
  267POPC   C3B 3516   0.341   5.821   5.457
  267POPC   C4B 3517   0.176   6.030   5.869
  268POPC   NC3 3518   9.205   6.058   4.199
  268POPC   PO4 3519   8.613   6.206   3.881
  268POPC   GL1 3520   8.680   6.410   4.235
  268POPC   GL2 3521   8.965   6.499   4.141
  268POPC   C1A 3522   8.520   6.341   4.638
  268POPC   D2A 3523   8.410   6.278   5.039
  268POPC   C3A 3524   8.648   6.275   5.387
  268POPC   C4A 3525   8.455   6.460   5.759
  268POPC   C1B 3526   8.950   6.607   4.608
  268POPC   C2B 3527   8.837   6.609   5.041
  268POPC   C3B 3528   8.841   6.742   5.491
  268POPC   C4B 3529   8.961   6.670   5.923
  269POPC   NC3 3530   5.598   9.844   3.924
  269POPC   PO4 3531   5.913   9.237   3.960
  269POPC   GL1 3532   5.827   9.588   4.300
  269POPC   GL2 3533   5.505   9.764   4.414
  269POPC   C1A 3534   5.956   9.786   4.687
  269POPC   D2A 3535   5.714   9.735   5.057
  269POPC   C3A 3536   5.745   9.920   5.465
  269POPC   C4A 3537   5.820   9.675   5.824
  269POPC   C1B 3538   5.398   9.457   4.689
  269POPC   C2B 3539   5.371   9.347   5.103
  269POPC   C3B 3540   5.611   9.398   5.458
  269POPC   C4B 3541   5.380   9.468   5.856
  270POPC   NC3 3542   4.359   2.943   3.947
  270POPC   PO4 3543   3.931   2.424   4.014
  270POPC   GL1 3544   4.226   2.393   4.285
  270POPC   GL2 3545   4.196   2.717   4.363
  270POPC   C1A 3546   4.207   2.228   4.666
  270POPC   D2A 3547   4.316   2.294   5.069
  270POPC   C3A 3548   3.962   2.280   5.306
  270POPC   C4A 3549   3.954   2.418   5.672
  270POPC   C1B 3550   4.433   2.677   4.702
  270POPC   C2B 3551   4.450   2.791   5.110
  270POPC   C3B 3552   4.247   2.798   5.489
  270POPC   C4B 3553   4.336   3.045   5.856
  271POPC   NC3 3554   3.453   2.177   4.020
  271POPC   PO4 3555   3.915   1.732   3.710
  271POPC   GL1 3556   3.643   1.715   4.177
  271POPC   GL2 3557   3.264   1.697   4.270
  271POPC   C1A 3558   3.527   1.817   4.667
  271POPC   D2A 3559   3.682   1.910   5.098
  271POPC   C3A 3560   3.485   1.897   5.491
  271POPC   C4A 3561   3.236   1.570   5.735
  271POPC   C1B 3562   3.059   1.990   4.643
  271POPC   C2B 3563   3.145   2.016   5.082
  271POPC   C3B 3564   3.039   2.101   5.508
  271POPC   C4B 3565   3.241   2.058   5.934
  272POPC   NC3 3566   7.808   3.330   3.988
  272POPC   PO4 3567   8.273   3.914   3.946
  272POPC   GL1 3568   8.202   3.581   4.248
  272POPC   GL2 3569   7.882   3.593   4.411
  272POPC   C1A 3570   8.251   3.292   4.574
  272POPC   D2A 3571   8.121   3.546   4.885
  272POPC   C3A 3572   8.119   3.526   5.312
  272POPC   C4A 3573   8.094   3.762   5.690
  272POPC   C1B 3574   7.775   3.147   4.603
  272POPC   C2B 3575   7.971   3.040   5.001
  272POPC   C3B 3576   7.820   3.141   5.430
  272POPC   C4B 3577   8.117   3.263   5.783
  273POPC   NC3 3578   2.294   0.910   3.843
  273POPC   PO4 3579   2.328   1.623   3.884
  273POPC   GL1 3580   2.124   1.413   4.230
  273POPC   GL2 3581   1.983   1.121   4.235
  273POPC   C1A 3582   2.097   1.397   4.686
  273POPC   D2A 3583   2.373   1.372   5.032
  273POPC   C3A 3584   2.177   1.441   5.393
  273POPC   C4A 3585   2.309   1.467   5.791
  273POPC   C1B 3586   1.815   0.955   4.653
  273POPC   C2B 3587   1.932   1.056   5.086
  273POPC   C3B 3588   1.842   1.059   5.519
  273POPC   C4B 3589   1.732   1.388   5.680
  274POPC   NC3 3590   7.225   7.775   3.986
  274POPC   PO4 3591   7.594   8.317   4.013
  274POPC   GL1 3592   7.300   8.165   4.339
  274POPC   GL2 3593   7.339   7.830   4.483
  274POPC   C1A 3594   7.067   8.222   4.715
  274POPC   D2A 3595   7.293   8.278   5.077
  274POPC   C3A 3596   7.176   8.050   5.396
  274POPC   C4A 3597   7.278   8.165   5.753
  274POPC   C1B 3598   7.232   7.782   4.952
  274POPC   C2B 3599   6.930   7.620   5.282
  274POPC   C3B 3600   6.865   7.715   5.730
  274POPC   C4B 3601   6.734   7.568   6.180
  275POPC   NC3 3602   4.196   2.111   3.796
  275POPC   PO4 3603   4.546   1.640   4.090
  275POPC   GL1 3604   4.422   1.786   4.439
  275POPC   GL2 3605   4.113   1.889   4.281
  275POPC   C1A 3606   4.521   1.870   4.863
  275POPC   D2A 3607   4.514   1.856   5.310
  275POPC   C3A 3608   4.409   2.199   5.567
  275POPC   C4A 3609   4.214   2.099   5.955
  275POPC   C1B 3610   4.017   1.755   4.731
  275POPC   C2B 3611   4.095   1.613   5.136
  275POPC   C3B 3612   4.005   1.836   5.545
  275POPC   C4B 3613   3.737   1.757   5.908
  276POPC   NC3 3614   2.454   9.308   4.217
  276POPC   PO4 3615   1.952   9.385   3.758
  276POPC   GL1 3616   1.919   9.348   4.257
  276POPC   GL2 3617   1.675   9.098   4.281
  276POPC   C1A 3618   2.092   9.420   4.728
  276POPC   D2A 3619   2.357   9.336   5.087
  276POPC   C3A 3620   2.135   9.540   5.412
  276POPC   C4A 3621   2.027   9.483   5.809
  276POPC   C1B 3622   1.602   9.296   4.655
  276POPC   C2B 3623   1.690   9.543   5.022
  276POPC   C3B 3624   1.625   9.464   5.428
  276POPC   C4B 3625   1.629   9.183   5.742
  277POPC   NC3 3626   4.985   1.478   4.157
  277POPC   PO4 3627   4.935   0.953   3.731
  277POPC   GL1 3628   4.743   0.913   4.187
  277POPC   GL2 3629   4.546   1.181   4.324
  277POPC   C1A 3630   4.825   0.916   4.660
  277POPC   D2A 3631   4.675   0.785   5.042
  277POPC   C3A 3632   4.782   0.903   5.459
  277POPC   C4A 3633   4.489   1.033   5.781
  277POPC   C1B 3634   4.711   1.406   4.736
  277POPC   C2B 3635   4.929   1.288   5.117
  277POPC   C3B 3636   4.838   1.399   5.549
  277POPC   C4B 3637   5.066   1.540   5.894
  278POPC   NC3 3638   0.819   0.526   4.070
  278POPC   PO4 3639   0.206   0.842   3.931
  278POPC   GL1 3640   0.380   0.683   4.316
  278POPC   GL2 3641   0.168   0.400   4.335
  278POPC   C1A 3642   0.496   0.474   4.730
  278POPC   D2A 3643   0.743   0.446   5.105
  278POPC   C3A 3644   0.513   0.618   5.429
  278POPC   C4A 3645   0.438   0.591   5.848
  278POPC   C1B 3646  10.464   0.427   4.734
  278POPC   C2B 3647   0.132   0.407   5.157
  278POPC   C3B 3648   0.207   0.218   5.573
  278POPC   C4B 3649   0.101   0.248   6.050
  279POPC   NC3 3650   0.440   2.313   3.930
  279POPC   PO4 3651   0.663   1.712   4.116
  279POPC   GL1 3652   0.418   1.761   4.405
  279POPC   GL2 3653   0.520   2.141   4.411
  279POPC   C1A 3654   0.392   1.520   4.794
  279POPC   D2A 3655   0.268   1.365   5.195
  279POPC   C3A 3656   0.474   1.543   5.566
  279POPC   C4A 3657   0.222   1.640   5.925
  279POPC   C1B 3658   0.649   1.963   4.800
  279POPC   C2B 3659   0.461   1.880   5.155
  279POPC   C3B 3660   0.256   1.990   5.489
  279POPC   C4B 3661   0.492   2.039   5.821
  280POPC   NC3 3662   9.892   4.336   3.943
  280POPC   PO4 3663   0.088   4.021   4.041
  280POPC   GL1 3664  10.286   4.167   4.256
  280POPC   GL2 3665  10.036   3.965   4.293
  280POPC   C1A 3666  10.318   4.178   4.695
  280POPC   D2A 3667   0.078   4.255   5.051
  280POPC   C3A 3668  10.375   4.205   5.438
  280POPC   C4A 3669  10.368   4.467   5.801
  280POPC   C1B 3670   9.826   4.239   4.605
  280POPC   C2B 3671   9.664   4.245   5.025
  280POPC   C3B 3672   9.842   4.245   5.427
  280POPC   C4B 3673  10.005   4.116   5.786
  281POPC   NC3 3674   2.573   6.491   3.919
  281POPC   PO4 3675   2.914   6.922   3.982
  281POPC   GL1 3676   2.833   6.604   4.349
  281POPC   GL2 3677   2.652   6.255   4.366
  281POPC   C1A 3678   2.927   6.476   4.782
  281POPC   D2A 3679   2.768   6.435   5.189
  281POPC   C3A 3680   3.030   6.449   5.559
  281POPC   C4A 3681   2.979   6.658   5.950
  281POPC   C1B 3682   2.412   6.296   4.774
  281POPC   C2B 3683   2.307   6.235   5.222
  281POPC   C3B 3684   2.562   6.211   5.596
  281POPC   C4B 3685   2.659   5.865   5.894
  282POPC   NC3 3686   2.431  10.351   3.995
  282POPC   PO4 3687   2.269   9.741   4.186
  282POPC   GL1 3688   2.640   9.920   4.372
  282POPC   GL2 3689   2.792  10.258   4.342
  282POPC   C1A 3690   2.566  10.056   4.786
  282POPC   D2A 3691   2.395   9.887   5.129
  282POPC   C3A 3692   2.594  10.080   5.509
  282POPC   C4A 3693   2.485  10.189   5.923
  282POPC   C1B 3694   2.784  10.493   4.738
  282POPC   C2B 3695   2.703  10.440   5.159
  282POPC   C3B 3696   2.978  10.444   5.516
  282POPC   C4B 3697   3.013  10.401   5.966
  283POPC   NC3 3698   5.360   0.683   3.987
  283POPC   PO4 3699   6.009   0.902   3.924
  283POPC   GL1 3700   5.859   0.542   4.292
  283POPC   GL2 3701   5.596   0.235   4.332
  283POPC   C1A 3702   5.734   0.447   4.766
  283POPC   D2A 3703   5.649   0.708   5.132
  283POPC   C3A 3704   5.849   0.709   5.501
  283POPC   C4A 3705   5.850   0.475   5.907
  283POPC   C1B 3706   5.285   0.184   4.703
  283POPC   C2B 3707   5.424   0.175   5.106
  283POPC   C3B 3708   5.522   0.321   5.498
  283POPC   C4B 3709   5.400   0.236   5.901
  284POPC   NC3 3710   4.511   1.162   3.767
  284POPC   PO4 3711   3.884   0.895   4.007
  284POPC   GL1 3712   4.006   1.015   4.369
  284POPC   GL2 3713   4.089   1.365   4.441
  284POPC   C1A 3714   3.830   0.861   4.708
  284POPC   D2A 3715   3.821   1.094   5.084
  284POPC   C3A 3716   4.057   1.016   5.461
  284POPC   C4A 3717   3.966   0.845   5.847
  284POPC   C1B 3718   4.256   1.182   4.802
  284POPC   C2B 3719   4.438   1.222   5.202
  284POPC   C3B 3720   4.329   1.452   5.568
  284POPC   C4B 3721   4.216   1.586   5.964
  285POPC   NC3 3722   3.240   5.236   4.056
  285POPC   PO4 3723   2.679   5.365   3.826
  285POPC   GL1 3724   2.384   5.329   4.204
  285POPC   GL2 3725   2.304   5.682   4.322
  285POPC   C1A 3726   2.379   5.291   4.670
  285POPC   D2A 3727   2.558   5.451   5.035
  285POPC   C3A 3728   2.723   5.428   5.428
  285POPC   C4A 3729   2.669   5.342   5.843
  285POPC   C1B 3730   2.620   5.793   4.631
  285POPC   C2B 3731   2.703   5.942   5.074
  285POPC   C3B 3732   2.941   5.909   5.461
  285POPC   C4B 3733   3.123   5.598   5.740
  286POPC   NC3 3734   4.805   9.385   3.890
  286POPC   PO4 3735   5.135   9.856   4.063
  286POPC   GL1 3736   4.837   9.646   4.329
  286POPC   GL2 3737   4.906   9.268   4.372
  286POPC   C1A 3738   4.518   9.665   4.673
  286POPC   D2A 3739   4.537   9.558   5.128
  286POPC   C3A 3740   4.653   9.682   5.572
  286POPC   C4A 3741   4.627   9.694   6.049
  286POPC   C1B 3742   4.901   9.341   4.800
  286POPC   C2B 3743   4.916   9.114   5.169
  286POPC   C3B 3744   5.159   9.147   5.537
  286POPC   C4B 3745   4.904   9.318   5.843
  287POPC   NC3 3746   7.887   5.199   3.741
  287POPC   PO4 3747   7.853   5.818   3.881
  287POPC   GL1 3748   7.939   5.612   4.269
  287POPC   GL2 3749   8.242   5.718   4.399
  287POPC   C1A 3750   7.846   5.690   4.727
  287POPC   D2A 3751   8.033   5.631   5.158
  287POPC   C3A 3752   7.726   5.747   5.519
  287POPC   C4A 3753   7.498   5.601   5.925
  287POPC   C1B 3754   8.365   5.837   4.804
  287POPC   C2B 3755   8.542   5.720   5.207
  287POPC   C3B 3756   8.346   5.539   5.564
  287POPC   C4B 3757   8.102   5.723   5.846
  288POPC   NC3 3758   9.797   9.318   3.765
  288POPC   PO4 3759  10.482   9.108   3.894
  288POPC   GL1 3760  10.244   9.180   4.255
  288POPC   GL2 3761  10.052   9.517   4.233
  288POPC   C1A 3762  10.222   9.042   4.674
  288POPC   D2A 3763  10.164   9.198   5.078
  288POPC   C3A 3764  10.245   8.993   5.455
  288POPC   C4A 3765  10.174   9.114   5.890
  288POPC   C1B 3766  10.285   9.559   4.644
  288POPC   C2B 3767  10.282   9.701   5.079
  288POPC   C3B 3768  10.237   9.526   5.493
  288POPC   C4B 3769   9.923   9.589   5.806
  289POPC   NC3 3770   9.290   9.027   4.070
  289POPC   PO4 3771   9.407   9.614   3.788
  289POPC   GL1 3772   9.542   9.498   4.258
  289POPC   GL2 3773   9.568   9.770   4.489
  289POPC   C1A 3774   9.797   9.377   4.718
  289POPC   D2A 3775   9.781   9.491   5.212
  289POPC   C3A 3776   9.777   9.170   5.568
  289POPC   C4A 3777   9.693   9.199   6.069
  289POPC   C1B 3778   9.291   9.401   4.695
  289POPC   C2B 3779   9.089   9.186   5.042
  289POPC   C3B 3780   9.185   9.342   5.427
  289POPC   C4B 3781   9.423   9.482   5.711
  290POPC   NC3 3782   8.870   9.657   3.925
  290POPC   PO4 3783   8.658   9.002   4.018
  290POPC   GL1 3784   8.838   9.285   4.333
  290POPC   GL2 3785   8.526   9.438   4.335
  290POPC   C1A 3786   8.785   9.514   4.767
  290POPC   D2A 3787   8.746   9.543   5.240
  290POPC   C3A 3788   8.981   9.794   5.500
  290POPC   C4A 3789   9.056   9.747   5.925
  290POPC   C1B 3790   8.425   9.133   4.646
  290POPC   C2B 3791   8.568   9.010   5.065
  290POPC   C3B 3792   8.770   9.055   5.439
  290POPC   C4B 3793   8.743   9.354   5.756
  291POPC   NC3 3794   2.482   4.932   3.850
  291POPC   PO4 3795   3.148   4.791   4.029
  291POPC   GL1 3796   2.819   5.036   4.236
  291POPC   GL2 3797   2.569   4.855   4.370
  291POPC   C1A 3798   2.871   5.218   4.656
  291POPC   D2A 3799   2.870   5.036   5.084
  291POPC   C3A 3800   3.120   5.103   5.487
  291POPC   C4A 3801   3.116   5.099   5.944
  291POPC   C1B 3802   2.376   4.784   4.757
  291POPC   C2B 3803   2.382   4.933   5.161
  291POPC   C3B 3804   2.645   4.907   5.526
  291POPC   C4B 3805   2.565   4.848   5.926
  292POPC   NC3 3806  10.212   8.712   3.843
  292POPC   PO4 3807   9.627   8.642   3.700
  292POPC   GL1 3808   9.908   8.568   4.202
  292POPC   GL2 3809  10.249   8.641   4.328
  292POPC   C1A 3810   9.924   8.622   4.707
  292POPC   D2A 3811  10.074   8.683   5.074
  292POPC   C3A 3812   9.842   8.680   5.448
  292POPC   C4A 3813   9.743   8.740   5.857
  292POPC   C1B 3814  10.333   8.302   4.608
  292POPC   C2B 3815  10.475   8.347   5.019
  292POPC   C3B 3816  10.298   8.421   5.431
  292POPC   C4B 3817  10.218   8.593   5.786
  293POPC   NC3 3818   8.279   9.238   3.922
  293POPC   PO4 3819   7.697   9.487   3.738
  293POPC   GL1 3820   7.680   9.384   4.193
  293POPC   GL2 3821   8.001   9.296   4.324
  293POPC   C1A 3822   7.644   9.361   4.672
  293POPC   D2A 3823   7.818   9.487   5.089
  293POPC   C3A 3824   7.674   9.303   5.466
  293POPC   C4A 3825   7.496   9.437   5.829
  293POPC   C1B 3826   8.129   9.580   4.642
  293POPC   C2B 3827   8.316   9.467   5.017
  293POPC   C3B 3828   8.269   9.342   5.439
  293POPC   C4B 3829   8.016   9.541   5.761
  294POPC   NC3 3830   0.987   8.556   3.861
  294POPC   PO4 3831   1.469   8.206   3.981
  294POPC   GL1 3832   1.296   8.442   4.292
  294POPC   GL2 3833   1.260   8.798   4.213
  294POPC   C1A 3834   1.165   8.375   4.716
  294POPC   D2A 3835   1.011   8.559   5.098
  294POPC   C3A 3836   0.873   8.338   5.464
  294POPC   C4A 3837   0.954   8.591   5.819
  294POPC   C1B 3838   1.401   8.826   4.636
  294POPC   C2B 3839   1.520   8.640   5.006
  294POPC   C3B 3840   1.466   8.580   5.431
  294POPC   C4B 3841   1.435   8.737   5.828
  295POPC   NC3 3842   1.454   0.974   4.098
  295POPC   PO4 3843   1.142   1.440   3.719
  295POPC   GL1 3844   1.072   1.430   4.229
  295POPC   GL2 3845   1.147   1.144   4.433
  295POPC   C1A 3846   1.020   1.531   4.724
  295POPC   D2A 3847   0.796   1.498   5.115
  295POPC   C3A 3848   1.009   1.410   5.503
  295POPC   C4A 3849   1.086   1.385   5.927
  295POPC   C1B 3850   1.352   1.115   4.825
  295POPC   C2B 3851   1.445   1.264   5.230
  295POPC   C3B 3852   1.340   1.051   5.599
  295POPC   C4B 3853   1.246   0.843   5.912
  296POPC   NC3 3854   7.994   1.723   3.895
  296POPC   PO4 3855   7.431   1.638   4.123
  296POPC   GL1 3856   7.733   1.784   4.349
  296POPC   GL2 3857   7.719   2.120   4.220
  296POPC   C1A 3858   7.960   1.631   4.699
  296POPC   D2A 3859   8.024   1.416   5.086
  296POPC   C3A 3860   7.953   1.718   5.422
  296POPC   C4A 3861   7.774   1.924   5.782
  296POPC   C1B 3862   7.865   2.163   4.662
  296POPC   C2B 3863   8.060   2.033   5.031
  296POPC   C3B 3864   7.957   2.218   5.425
  296POPC   C4B 3865   8.021   2.379   5.821
  297POPC   NC3 3866   2.492   1.946   3.605
  297POPC   PO4 3867   3.008   2.038   4.016
  297POPC   GL1 3868   2.662   2.024   4.285
  297POPC   GL2 3869   2.505   1.710   4.362
  297POPC   C1A 3870   2.565   2.200   4.699
  297POPC   D2A 3871   2.743   2.357   5.076
  297POPC   C3A 3872   2.584   2.308   5.492
  297POPC   C4A 3873   2.548   2.350   5.955
  297POPC   C1B 3874   2.638   1.705   4.746
  297POPC   C2B 3875   2.610   1.861   5.147
  297POPC   C3B 3876   2.738   1.690   5.508
  297POPC   C4B 3877   2.752   1.869   5.869
  298POPC   NC3 3878  10.404   0.130   4.002
  298POPC   PO4 3879  10.221   9.919   3.903
  298POPC   GL1 3880  10.317  10.091   4.277
  298POPC   GL2 3881   9.986  10.205   4.269
  298POPC   C1A 3882  10.477  10.047   4.718
  298POPC   D2A 3883   0.074  10.137   5.151
  298POPC   C3A 3884  10.370  10.306   5.510
  298POPC   C4A 3885  10.370   9.943   5.788
  298POPC   C1B 3886   9.979   9.991   4.669
  298POPC   C2B 3887   9.981  10.119   5.089
  298POPC   C3B 3888   9.950  10.016   5.517
  298POPC   C4B 3889   9.916  10.376   5.819
  299POPC   NC3 3890   1.005   9.528   3.814
  299POPC   PO4 3891   0.802   8.951   3.971
  299POPC   GL1 3892   0.949   9.207   4.297
  299POPC   GL2 3893   1.238   9.416   4.291
  299POPC   C1A 3894   1.081   9.219   4.730
  299POPC   D2A 3895   1.343   9.146   5.073
  299POPC   C3A 3896   1.121   9.297   5.407
  299POPC   C4A 3897   1.041   9.086   5.776
  299POPC   C1B 3898   1.307   9.701   4.664
  299POPC   C2B 3899   1.294   9.884   5.090
  299POPC   C3B 3900   1.249   9.794   5.489
  299POPC   C4B 3901   1.280   9.528   5.836
  300POPC   NC3 3902   7.995   0.459   3.924
  300POPC   PO4 3903   8.501  10.458   3.946
  300POPC   GL1 3904   8.416   0.300   4.267
  300POPC   GL2 3905   8.226   0.599   4.366
  300POPC   C1A 3906   8.269   0.199   4.693
  300POPC   D2A 3907   8.183   0.429   5.062
  300POPC   C3A 3908   8.302   0.232   5.442
  300POPC   C4A 3909   8.099   0.062   5.775
  300POPC   C1B 3910   7.864   0.576   4.647
  300POPC   C2B 3911   7.683   0.473   5.077
  300POPC   C3B 3912   7.835   0.421   5.478
  300POPC   C4B 3913   7.900   0.762   5.770
  301POPC   NC3 3914   4.072   8.773   3.827
  301POPC   PO4 3915   4.421   8.259   3.739
  301POPC   GL1 3916   4.361   8.470   4.169
  301POPC   GL2 3917   4.066   8.626   4.300
  301POPC   C1A 3918   4.475   8.555   4.614
  301POPC   D2A 3919   4.399   8.708   5.028
  301POPC   C3A 3920   4.422   8.516   5.437
  301POPC   C4A 3921   4.324   8.798   5.739
  301POPC   C1B 3922   3.992   8.815   4.679
  301POPC   C2B 3923   3.794   8.612   5.014
  301POPC   C3B 3924   3.946   8.684   5.414
  301POPC   C4B 3925   3.948   8.477   5.829
  302POPC   NC3 3926   9.998   3.608   3.947
  302POPC   PO4 3927   0.089   3.379   3.806
  302POPC   GL1 3928  10.444   3.573   4.247
  302POPC   GL2 3929  10.127   3.409   4.399
  302POPC   C1A 3930  10.411   3.692   4.731
  302POPC   D2A 3931  10.285   3.498   5.146
  302POPC   C3A 3932  10.332   3.674   5.570
  302POPC   C4A 3933  10.453   3.365   5.922
  302POPC   C1B 3934   9.889   3.698   4.695
  302POPC   C2B 3935  10.009   3.904   5.076
  302POPC   C3B 3936   9.829   3.732   5.463
  302POPC   C4B 3937   9.951   3.357   5.662
  303POPC   NC3 3938   0.898   6.389   3.740
  303POPC   PO4 3939   1.474   6.128   3.889
  303POPC   GL1 3940   1.435   6.242   4.289
  303POPC   GL2 3941   1.172   6.503   4.246
  303POPC   C1A 3942   1.459   6.358   4.702
  303POPC   D2A 3943   1.342   6.116   5.043
  303POPC   C3A 3944   1.402   6.303   5.415
  303POPC   C4A 3945   1.384   6.079   5.774
  303POPC   C1B 3946   0.983   6.548   4.680
  303POPC   C2B 3947   0.998   6.487   5.151
  303POPC   C3B 3948   0.970   6.491   5.644
  303POPC   C4B 3949   0.822   6.617   6.093
  304POPC   NC3 3950   9.997   5.894   4.052
  304POPC   PO4 3951   0.048   5.654   3.767
  304POPC   GL1 3952  10.367   5.524   4.262
  304POPC   GL2 3953  10.058   5.477   4.308
  304POPC   C1A 3954  10.243   5.714   4.715
  304POPC   D2A 3955   0.028   5.844   5.018
  304POPC   C3A 3956  10.360   5.645   5.358
  304POPC   C4A 3957  10.481   5.584   5.742
  304POPC   C1B 3958   9.797   5.455   4.682
  304POPC   C2B 3959   9.923   5.482   5.091
  304POPC   C3B 3960   9.810   5.531   5.496
  304POPC   C4B 3961  10.016   5.823   5.674
  305POPC   NC3 3962   8.398   4.797   3.916
  305POPC   PO4 3963   9.094   4.724   4.020
  305POPC   GL1 3964   8.828   4.667   4.354
  305POPC   GL2 3965   8.765   5.032   4.323
  305POPC   C1A 3966   8.874   4.604   4.821
  305POPC   D2A 3967   8.673   4.782   5.192
  305POPC   C3A 3968   8.743   4.746   5.624
  305POPC   C4A 3969   9.057   4.532   5.816
  305POPC   C1B 3970   8.591   5.016   4.749
  305POPC   C2B 3971   8.382   5.194   5.172
  305POPC   C3B 3972   8.321   5.023   5.607
  305POPC   C4B 3973   8.358   5.223   6.014
  306POPC   NC3 3974   0.990   2.967   3.719
  306POPC   PO4 3975   0.899   2.341   4.080
  306POPC   GL1 3976   0.962   2.464   4.427
  306POPC   GL2 3977   1.282   2.400   4.493
  306POPC   C1A 3978   0.804   2.445   4.787
  306POPC   D2A 3979   0.860   2.730   5.077
  306POPC   C3A 3980   1.069   2.625   5.440
  306POPC   C4A 3981   0.840   2.358   5.642
  306POPC   C1B 3982   1.295   2.505   4.946
  306POPC   C2B 3983   1.356   2.905   5.103
  306POPC   C3B 3984   1.383   3.030   5.499
  306POPC   C4B 3985   1.316   2.942   5.922
  307POPC   NC3 3986   8.000   8.146   3.896
  307POPC   PO4 3987   7.630   7.477   3.835
  307POPC   GL1 3988   7.825   7.700   4.234
  307POPC   GL2 3989   7.816   8.029   4.358
  307POPC   C1A 3990   8.048   7.714   4.675
  307POPC   D2A 3991   8.066   7.601   5.107
  307POPC   C3A 3992   8.116   7.809   5.502
  307POPC   C4A 3993   8.285   7.826   5.905
  307POPC   C1B 3994   7.672   8.069   4.767
  307POPC   C2B 3995   7.698   7.964   5.171
  307POPC   C3B 3996   7.616   7.824   5.550
  307POPC   C4B 3997   7.790   8.126   5.752
  308POPC   NC3 3998   4.336   7.852   3.918
  308POPC   PO4 3999   3.826   8.380   3.887
  308POPC   GL1 4000   3.947   8.133   4.253
  308POPC   GL2 4001   4.041   7.779   4.311
  308POPC   C1A 4002   4.027   8.278   4.675
  308POPC   D2A 4003   4.211   8.239   5.064
  308POPC   C3A 4004   4.076   8.142   5.475
  308POPC   C4A 4005   4.202   8.054   5.928
  308POPC   C1B 4006   4.228   7.796   4.746
  308POPC   C2B 4007   4.227   7.731   5.175
  308POPC   C3B 4008   4.293   7.678   5.589
  308POPC   C4B 4009   4.017   7.358   5.754
  309POPC   NC3 4010   0.822  10.245   3.911
  309POPC   PO4 4011   1.290   9.824   3.999
  309POPC   GL1 4012   1.051  10.005   4.311
  309POPC   GL2 4013   1.099  10.393   4.348
  309POPC   C1A 4014   0.985  10.085   4.738
  309POPC   D2A 4015   0.811  10.153   5.117
  309POPC   C3A 4016   0.749   9.845   5.421
  309POPC   C4A 4017   0.883   9.825   5.827
  309POPC   C1B 4018   0.986   0.105   4.777
  309POPC   C2B 4019   1.102   0.076   5.230
  309POPC   C3B 4020   1.044  10.263   5.579
  309POPC   C4B 4021   1.315  10.106   5.918
  310POPC   NC3 4022   3.405   8.803   3.906
  310POPC   PO4 4023   3.167   8.290   3.629
  310POPC   GL1 4024   3.409   8.390   4.180
  310POPC   GL2 4025   3.564   8.736   4.372
  310POPC   C1A 4026   3.496   8.319   4.639
  310POPC   D2A 4027   3.321   8.298   5.058
  310POPC   C3A 4028   3.531   8.403   5.423
  310POPC   C4A 4029   3.336   8.421   5.801
  310POPC   C1B 4030   3.320   8.807   4.775
  310POPC   C2B 4031   3.256   8.823   5.207
  310POPC   C3B 4032   3.356   9.036   5.557
  310POPC   C4B 4033   3.612   8.837   5.773
  311POPC   NC3 4034   8.639   2.891   3.981
  311POPC   PO4 4035   9.017   2.447   3.794
  311POPC   GL1 4036   8.897   2.326   4.204
  311POPC   GL2 4037   8.584   2.504   4.318
  311POPC   C1A 4038   8.923   2.334   4.660
  311POPC   D2A 4039   9.072   2.546   5.046
  311POPC   C3A 4040   8.923   2.477   5.480
  311POPC   C4A 4041   8.810   2.473   5.949
  311POPC   C1B 4042   8.637   2.762   4.709
  311POPC   C2B 4043   8.565   2.687   5.162
  311POPC   C3B 4044   8.600   2.846   5.587
  311POPC   C4B 4045   8.370   2.832   5.919
  312POPC   NC3 4046   8.907   2.002   3.608
  312POPC   PO4 4047   8.415   1.523   3.911
  312POPC   GL1 4048   8.378   1.787   4.279
  312POPC   GL2 4049   8.742   1.849   4.357
  312POPC   C1A 4050   8.388   2.091   4.630
  312POPC   D2A 4051   8.581   2.188   5.015
  312POPC   C3A 4052   8.427   2.007   5.389
  312POPC   C4A 4053   8.461   2.336   5.631
  312POPC   C1B 4054   8.937   1.813   4.777
  312POPC   C2B 4055   8.899   1.851   5.232
  312POPC   C3B 4056   8.875   1.966   5.639
  312POPC   C4B 4057   8.982   1.724   5.983
  313POPC   NC3 4058   7.916   4.180   4.084
  313POPC   PO4 4059   8.499   4.381   3.720
  313POPC   GL1 4060   8.398   4.373   4.171
  313POPC   GL2 4061   8.606   4.143   4.273
  313POPC   C1A 4062   8.442   4.453   4.626
  313POPC   D2A 4063   8.545   4.244   5.010
  313POPC   C3A 4064   8.420   4.388   5.410
  313POPC   C4A 4065   8.579   4.296   5.790
  313POPC   C1B 4066   8.901   4.131   4.607
  313POPC   C2B 4067   9.000   4.005   5.023
  313POPC   C3B 4068   8.915   4.188   5.431
  313POPC   C4B 4069   8.988   4.020   5.839
  314POPC   NC3 4070   3.481   8.030   3.841
  314POPC   PO4 4071   2.926   8.282   4.122
  314POPC   GL1 4072   3.148   7.929   4.301
  314POPC   GL2 4073   3.497   7.878   4.313
  314POPC   C1A 4074   3.253   7.871   4.763
  314POPC   D2A 4075   3.306   7.752   5.184
  314POPC   C3A 4076   3.282   7.976   5.540
  314POPC   C4A 4077   2.969   8.076   5.821
  314POPC   C1B 4078   3.736   7.866   4.682
  314POPC   C2B 4079   3.758   7.976   5.092
  314POPC   C3B 4080   3.750   7.747   5.489
  314POPC   C4B 4081   3.699   8.052   5.815
  315POPC   NC3 4082   2.795   8.023   3.768
  315POPC   PO4 4083   2.281   8.459   3.943
  315POPC   GL1 4084   2.453   8.289   4.306
  315POPC   GL2 4085   2.556   7.925   4.233
  315POPC   C1A 4086   2.403   8.160   4.722
  315POPC   D2A 4087   2.432   8.298   5.126
  315POPC   C3A 4088   2.419   8.112   5.458
  315POPC   C4A 4089   2.195   8.029   5.787
  315POPC   C1B 4090   2.774   7.841   4.624
  315POPC   C2B 4091   2.865   8.043   5.023
  315POPC   C3B 4092   2.828   7.843   5.389
  315POPC   C4B 4093   2.607   7.733   5.755
  316POPC   NC3 4094   0.243   2.944   3.866
  316POPC   PO4 4095   0.694   2.597   3.651
  316POPC   GL1 4096   0.645   2.759   4.126
  316POPC   GL2 4097   0.345   2.649   4.315
  316POPC   C1A 4098   0.695   2.891   4.568
  316POPC   D2A 4099   0.420   2.953   4.931
  316POPC   C3A 4100   0.471   2.898   5.370
  316POPC   C4A 4101   0.665   2.812   5.764
  316POPC   C1B 4102   0.293   2.481   4.739
  316POPC   C2B 4103   0.457   2.406   5.181
  316POPC   C3B 4104   0.323   2.473   5.613
  316POPC   C4B 4105   0.158   2.524   6.029
  317POPC   NC3 4106   2.053   2.650   3.884
  317POPC   PO4 4107   1.530   2.205   4.035
  317POPC   GL1 4108   1.707   2.562   4.273
  317POPC   GL2 4109   2.020   2.559   4.378
  317POPC   C1A 4110   1.678   2.712   4.712
  317POPC   D2A 4111   1.787   2.567   5.150
  317POPC   C3A 4112   1.600   2.551   5.553
  317POPC   C4A 4113   1.786   2.879   5.777
  317POPC   C1B 4114   2.124   2.439   4.783
  317POPC   C2B 4115   2.298   2.631   5.153
  317POPC   C3B 4116   2.177   2.604   5.577
  317POPC   C4B 4117   2.059   2.468   5.968
  318POPC   NC3 4118  10.181   1.908   3.814
  318POPC   PO4 4119   0.005   2.520   3.962
  318POPC   GL1 4120   0.036   2.049   4.191
  318POPC   GL2 4121  10.202   1.830   4.339
  318POPC   C1A 4122   0.068   2.003   4.679
  318POPC   D2A 4123  10.464   1.774   5.090
  318POPC   C3A 4124  10.255   1.981   5.438
  318POPC   C4A 4125  10.307   2.390   5.653
  318POPC   C1B 4126  10.044   1.861   4.772
  318POPC   C2B 4127   9.851   2.076   5.126
  318POPC   C3B 4128   9.809   2.180   5.567
  318POPC   C4B 4129   9.971   1.958   5.897
  319POPC   NC3 4130   7.811   6.286   3.864
  319POPC   PO4 4131   8.169   6.769   3.588
  319POPC   GL1 4132   8.162   6.798   4.143
  319POPC   GL2 4133   8.174   6.453   4.220
  319POPC   C1A 4134   7.992   6.786   4.584
  319POPC   D2A 4135   7.867   6.592   4.965
  319POPC   C3A 4136   8.097   6.581   5.357
  319POPC   C4A 4137   7.965   6.792   5.740
  319POPC   C1B 4138   8.031   6.191   4.583
  319POPC   C2B 4139   7.944   6.098   5.026
  319POPC   C3B 4140   8.164   6.047   5.426
  319POPC   C4B 4141   7.957   6.246   5.737
  320POPC   NC3 4142   5.039  10.248   3.835
  320POPC   PO4 4143   4.469   0.089   3.922
  320POPC   GL1 4144   4.595  10.396   4.326
  320POPC   GL2 4145   4.917  10.218   4.343
  320POPC   C1A 4146   4.730  10.389   4.768
  320POPC   D2A 4147   4.977  10.427   5.118
  320POPC   C3A 4148   4.829  10.145   5.430
  320POPC   C4A 4149   4.622  10.178   5.826
  320POPC   C1B 4150   4.952   9.923   4.734
  320POPC   C2B 4151   5.020   9.735   5.119
  320POPC   C3B 4152   5.228   9.779   5.486
  320POPC   C4B 4153   5.062   9.914   5.872
  321POPC   NC3 4154   7.679   2.751   3.739
  321POPC   PO4 4155   8.216   3.063   3.899
  321POPC   GL1 4156   8.155   2.867   4.291
  321POPC   GL2 4157   7.860   2.652   4.240
  321POPC   C1A 4158   8.173   2.591   4.656
  321POPC   D2A 4159   8.030   2.537   5.053
  321POPC   C3A 4160   8.121   2.734   5.457
  321POPC   C4A 4161   7.830   2.836   5.829
  321POPC   C1B 4162   7.658   2.635   4.654
  321POPC   C2B 4163   7.525   2.432   5.029
  321POPC   C3B 4164   7.629   2.596   5.419
  321POPC   C4B 4165   7.525   2.399   5.787
  322POPC   NC3 4166   3.762   2.855   3.972
  322POPC   PO4 4167   3.242   2.599   4.037
  322POPC   GL1 4168   3.396   2.444   4.439
  322POPC   GL2 4169   3.687   2.680   4.440
  322POPC   C1A 4170   3.691   2.302   4.761
  322POPC   D2A 4171   3.911   2.635   4.961
  322POPC   C3A 4172   3.640   2.722   5.333
  322POPC   C4A 4173   3.465   2.406   5.638
  322POPC   C1B 4174   3.348   2.935   4.617
  322POPC   C2B 4175   3.264   3.069   5.034
  322POPC   C3B 4176   3.078   3.080   5.436
  322POPC   C4B 4177   3.312   2.910   5.751
  323POPC   NC3 4178   1.170   3.815   3.898
  323POPC   PO4 4179   1.412   4.452   3.902
  323POPC   GL1 4180   1.186   4.243   4.211
  323POPC   GL2 4181   0.970   3.981   4.358
  323POPC   C1A 4182   1.323   4.325   4.606
  323POPC   D2A 4183   1.214   4.507   4.988
  323POPC   C3A 4184   1.189   4.301   5.385
  323POPC   C4A 4185   1.122   4.414   5.810
  323POPC   C1B 4186   0.879   4.167   4.758
  323POPC   C2B 4187   1.237   3.991   4.987
  323POPC   C3B 4188   1.501   3.890   5.332
  323POPC   C4B 4189   1.290   3.927   5.746
  324POPC   NC3 4190   9.492   8.367   4.036
  324POPC   PO4 4191   9.759   9.061   4.128
  324POPC   GL1 4192   9.552   8.833   4.443
  324POPC   GL2 4193   9.511   8.479   4.506
  324POPC   C1A 4194   9.425   8.899   4.789
  324POPC   D2A 4195   9.650   9.005   5.093
  324POPC   C3A 4196   9.372   8.877   5.385
  324POPC   C4A 4197   9.303   8.973   5.765
  324POPC   C1B 4198   9.357   8.380   4.802
  324POPC   C2B 4199   9.518   8.488   5.104
  324POPC   C3B 4200   9.436   8.366   5.493
  324POPC   C4B 4201   9.349   8.438   5.870
  325POPC   NC3 4202   5.702   1.301   3.861
  325POPC   PO4 4203   5.211   1.076   4.176
  325POPC   GL1 4204   5.635   0.998   4.307
  325POPC   GL2 4205   5.930   1.242   4.315
  325POPC   C1A 4206   5.820   0.952   4.719
  325POPC   D2A 4207   5.984   1.258   5.027
  325POPC   C3A 4208   5.830   1.226   5.461
  325POPC   C4A 4209   5.918   1.000   5.894
  325POPC   C1B 4210   5.594   1.406   4.620
  325POPC   C2B 4211   5.445   1.280   5.042
  325POPC   C3B 4212   5.308   1.141   5.470
  325POPC   C4B 4213   5.508   1.307   5.842
  326POPC   NC3 4214  10.336   1.116   3.849
  326POPC   PO4 4215   0.186   1.728   3.738
  326POPC   GL1 4216   0.020   1.502   4.160
  326POPC   GL2 4217  10.265   1.231   4.310
  326POPC   C1A 4218  10.416   1.515   4.657
  326POPC   D2A 4219  10.306   1.264   5.015
  326POPC   C3A 4220  10.111   1.471   5.317
  326POPC   C4A 4221  10.289   1.543   5.707
  326POPC   C1B 4222  10.169   0.929   4.641
  326POPC   C2B 4223  10.112   0.690   5.016
  326POPC   C3B 4224   9.992   0.751   5.421
  326POPC   C4B 4225  10.145   1.052   5.719
  327POPC   NC3 4226   1.084   1.897   3.992
  327POPC   PO4 4227   1.591   1.425   4.184
  327POPC   GL1 4228   1.401   1.792   4.410
  327POPC   GL2 4229   1.026   1.945   4.460
  327POPC   C1A 4230   1.510   1.674   4.840
  327POPC   D2A 4231   1.257   1.749   5.210
  327POPC   C3A 4232   1.329   2.092   5.516
  327POPC   C4A 4233   1.404   1.748   5.760
  327POPC   C1B 4234   1.155   2.046   4.819
  327POPC   C2B 4235   0.939   2.157   5.181
  327POPC   C3B 4236   0.856   1.883   5.513
  327POPC   C4B 4237   0.991   1.969   5.955
  328POPC   NC3 4238   9.325   3.551   3.949
  328POPC   PO4 4239   9.826   3.165   3.959
  328POPC   GL1 4240   9.498   3.111   4.296
  328POPC   GL2 4241   9.189   3.313   4.357
  328POPC   C1A 4242   9.539   3.296   4.720
  328POPC   D2A 4243   9.761   3.329   5.121
  328POPC   C3A 4244   9.489   3.244   5.477
  328POPC   C4A 4245   9.589   3.072   5.882
  328POPC   C1B 4246   9.092   3.605   4.660
  328POPC   C2B 4247   8.999   3.478   5.070
  328POPC   C3B 4248   8.981   3.660   5.447
  328POPC   C4B 4249   9.240   3.581   5.767
  329POPC   NC3 4250   9.397   2.195   3.908
  329POPC   PO4 4251   9.123   1.592   4.114
  329POPC   GL1 4252   9.272   1.977   4.342
  329POPC   GL2 4253   9.655   1.977   4.319
  329POPC   C1A 4254   9.407   2.210   4.706
  329POPC   D2A 4255   9.340   2.025   5.073
  329POPC   C3A 4256   9.330   2.208   5.433
  329POPC   C4A 4257   9.247   2.234   5.847
  329POPC   C1B 4258   9.536   1.715   4.704
  329POPC   C2B 4259   9.626   1.610   5.162
  329POPC   C3B 4260   9.347   1.714   5.538
  329POPC   C4B 4261   9.470   1.808   6.006
  330POPC   NC3 4262   0.253   7.134   3.891
  330POPC   PO4 4263   0.041   6.548   3.896
  330POPC   GL1 4264   0.254   6.823   4.270
  330POPC   GL2 4265   0.378   7.167   4.386
  330POPC   C1A 4266   0.210   6.805   4.711
  330POPC   D2A 4267   0.445   6.992   5.057
  330POPC   C3A 4268   0.206   7.156   5.401
  330POPC   C4A 4269   0.366   7.075   5.808
  330POPC   C1B 4270   0.717   7.264   4.702
  330POPC   C2B 4271   0.898   7.360   5.093
  330POPC   C3B 4272   0.684   7.362   5.475
  330POPC   C4B 4273   0.658   7.498   5.876
  331POPC   NC3 4274   1.511   4.990   3.897
  331POPC   PO4 4275   2.135   4.799   4.120
  331POPC   GL1 4276   2.019   5.029   4.428
  331POPC   GL2 4277   1.697   5.016   4.375
  331POPC   C1A 4278   1.962   5.056   4.861
  331POPC   D2A 4279   2.064   5.360   5.134
  331POPC   C3A 4280   2.249   5.245   5.529
  331POPC   C4A 4281   2.173   5.150   5.955
  331POPC   C1B 4282   1.671   4.679   4.681
  331POPC   C2B 4283   1.605   4.790   5.116
  331POPC   C3B 4284   1.906   4.905   5.379
  331POPC   C4B 4285   2.193   4.683   5.619
  332POPC   NC3 4286   1.088   7.948   3.916
  332POPC   PO4 4287   0.605   7.444   4.006
  332POPC   GL1 4288   0.759   7.799   4.292
  332POPC   GL2 4289   1.092   7.962   4.402
  332POPC   C1A 4290   0.805   7.773   4.746
  332POPC   D2A 4291   1.022   7.991   5.022
  332POPC   C3A 4292   0.893   7.812   5.373
  332POPC   C4A 4293   1.066   7.806   5.753
  332POPC   C1B 4294   1.454   7.972   4.640
  332POPC   C2B 4295   1.533   8.124   5.047
  332POPC   C3B 4296   1.328   8.098   5.430
  332POPC   C4B 4297   1.362   8.227   5.851
  333POPC   NC3 4298  10.075   6.494   3.969
  333POPC   PO4 4299  10.429   5.996   4.180
  333POPC   GL1 4300  10.153   6.249   4.404
  333POPC   GL2 4301  10.305   6.577   4.402
  333POPC   C1A 4302  10.074   6.273   4.818
  333POPC   D2A 4303  10.062   6.014   5.173
  333POPC   C3A 4304  10.388   6.145   5.445
  333POPC   C4A 4305  10.214   6.242   5.821
  333POPC   C1B 4306  10.175   6.800   4.728
  333POPC   C2B 4307  10.033   6.705   5.130
  333POPC   C3B 4308  10.187   6.628   5.492
  333POPC   C4B 4309  10.471   6.689   5.814
  334POPC   NC3 4310   3.472   3.715   3.852
  334POPC   PO4 4311   3.940   3.309   3.943
  334POPC   GL1 4312   3.656   3.241   4.299
  334POPC   GL2 4313   3.322   3.431   4.298
  334POPC   C1A 4314   3.636   3.342   4.745
  334POPC   D2A 4315   3.477   3.530   5.122
  334POPC   C3A 4316   3.551   3.254   5.466
  334POPC   C4A 4317   3.620   3.319   5.916
  334POPC   C1B 4318   3.103   3.478   4.713
  334POPC   C2B 4319   2.931   3.462   5.133
  334POPC   C3B 4320   3.133   3.575   5.520
  334POPC   C4B 4321   3.548   3.751   5.595
  335POPC   NC3 4322  10.353   5.220   3.868
  335POPC   PO4 4323  10.295   4.487   3.820
  335POPC   GL1 4324  10.304   4.679   4.235
  335POPC   GL2 4325  10.279   5.009   4.310
  335POPC   C1A 4326  10.120   4.665   4.652
  335POPC   D2A 4327  10.115   4.468   5.045
  335POPC   C3A 4328  10.128   4.664   5.414
  335POPC   C4A 4329   9.943   4.794   5.758
  335POPC   C1B 4330  10.205   5.173   4.676
  335POPC   C2B 4331  10.112   5.015   5.058
  335POPC   C3B 4332  10.250   5.152   5.461
  335POPC   C4B 4333  10.104   5.278   5.837
  336POPC   NC3 4334   6.376   1.208   3.838
  336POPC   PO4 4335   6.744   1.766   3.639
  336POPC   GL1 4336   6.648   1.544   4.142
  336POPC   GL2 4337   6.573   1.160   4.290
  336POPC   C1A 4338   6.753   1.461   4.639
  336POPC   D2A 4339   6.588   1.208   4.988
  336POPC   C3A 4340   6.650   1.331   5.409
  336POPC   C4A 4341   6.665   1.105   5.833
  336POPC   C1B 4342   6.323   0.953   4.624
  336POPC   C2B 4343   6.237   0.797   5.055
  336POPC   C3B 4344   6.290   0.981   5.460
  336POPC   C4B 4345   6.246   1.358   5.735
  337POPC   NC3 4346   2.368   9.663   3.751
  337POPC   PO4 4347   2.755   9.163   3.891
  337POPC   GL1 4348   2.891   9.446   4.363
  337POPC   GL2 4349   2.991   9.195   4.579
  337POPC   C1A 4350   2.788   9.602   4.782
  337POPC   D2A 4351   2.897   9.816   5.151
  337POPC   C3A 4352   2.642   9.581   5.454
  337POPC   C4A 4353   2.480   9.690   5.850
  337POPC   C1B 4354   2.771   9.049   4.881
  337POPC   C2B 4355   2.789   9.056   5.282
  337POPC   C3B 4356   2.614   9.110   5.625
  337POPC   C4B 4357   2.950   9.222   5.841
  338POPC   NC3 4358   6.454   2.567   3.653
  338POPC   PO4 4359   6.417   3.125   4.033
  338POPC   GL1 4360   6.460   2.966   4.442
  338POPC   GL2 4361   6.405   2.623   4.360
  338POPC   C1A 4362   6.515   2.924   4.894
  338POPC   D2A 4363   6.212   2.645   5.121
  338POPC   C3A 4364   6.195   2.779   5.561
  338POPC   C4A 4365   6.468   2.896   5.977
  338POPC   C1B 4366   6.619   2.472   4.700
  338POPC   C2B 4367   6.612   2.331   5.101
  338POPC   C3B 4368   6.645   2.583   5.442
  338POPC   C4B 4369   6.553   2.434   5.838
  339POPC   NC3 4370   1.332   1.026   3.594
  339POPC   PO4 4371   1.297   0.503   4.082
  339POPC   GL1 4372   1.269   0.610   4.461
  339POPC   GL2 4373   1.410   0.279   4.555
  339POPC   C1A 4374   0.969   0.751   4.753
  339POPC   D2A 4375   1.046   0.885   5.196
  339POPC   C3A 4376   1.025   0.555   5.525
  339POPC   C4A 4377   0.745   0.187   5.613
  339POPC   C1B 4378   1.344   0.490   4.952
  339POPC   C2B 4379   1.539   0.745   5.225
  339POPC   C3B 4380   1.530   0.556   5.588
  339POPC   C4B 4381   1.397   0.123   5.667
  340POPC   NC3 4382   1.836   1.783   4.011
  340POPC   PO4 4383   2.332   2.253   3.919
  340POPC   GL1 4384   2.151   2.073   4.373
  340POPC   GL2 4385   1.907   1.819   4.483
  340POPC   C1A 4386   2.170   1.931   4.868
  340POPC   D2A 4387   2.132   2.155   5.247
  340POPC   C3A 4388   2.286   1.919   5.576
  340POPC   C4A 4389   2.281   1.922   6.023
  340POPC   C1B 4390   1.698   2.162   4.675
  340POPC   C2B 4391   1.612   2.106   5.082
  340POPC   C3B 4392   1.762   1.817   5.382
  340POPC   C4B 4393   1.839   2.062   5.742
  341POPC   NC3 4394   8.535   6.720   3.861
  341POPC   PO4 4395   9.138   6.879   3.854
  341POPC   GL1 4396   8.898   6.982   4.271
  341POPC   GL2 4397   8.729   7.281   4.415
  341POPC   C1A 4398   8.500   6.836   4.504
  341POPC   D2A 4399   8.362   6.770   4.936
  341POPC   C3A 4400   8.430   6.967   5.338
  341POPC   C4A 4401   8.444   6.966   5.782
  341POPC   C1B 4402   8.800   7.087   4.799
  341POPC   C2B 4403   8.985   7.093   5.131
  341POPC   C3B 4404   8.937   7.315   5.419
  341POPC   C4B 4405   8.879   7.193   5.797
  342W        W 4406   1.293   4.692  10.455
  343W        W 4407   6.561   2.888   1.428
  344W        W 4408   6.513   8.506   9.190
  345W        W 4409   2.641   8.750  11.369
  346W        W 4410   6.224   6.127   1.303
  347W        W 4411   8.632   1.951   1.214
  348W        W 4412   3.757   7.515  11.551
  349W        W 4413   3.850   1.822   1.718
  350W        W 4414   6.948   3.256   0.071
  351W        W 4415   3.766   7.478   2.329
  352W        W 4416   7.636   7.453   3.076
  353W        W 4417   7.254   2.912  10.940
  354W        W 4418   6.630   6.071   2.538
  355W        W 4419  10.426   4.077   2.347
  356W        W 4420   0.729   2.884  11.587
  357W        W 4421   2.108   0.946  11.408
  358W        W 4422   0.712   2.576   8.793
  359W        W 4423   3.839   2.362  10.512
  360W        W 4424   7.600   0.738  11.925
  361W        W 4425   7.980   6.278  10.359
  362W        W 4426   9.611   5.032   1.974
  363W        W 4427   2.668   7.890   2.249
  364W        W 4428   3.754   6.448  10.493
  365W        W 4429   3.656   8.965   2.271
  366W        W 4430   5.593   9.693   1.306
  367W        W 4431   2.563   8.888   9.196
  368W        W 4432   4.953   4.818   1.662
  369W        W 4433   6.097   8.001   0.891
  370W        W 4434   9.187   3.301   9.377
  371W        W 4435  10.267   4.679   1.622
  372W        W 4436   8.594   9.386   3.181
  373W        W 4437   9.813   1.690  10.531
  374W        W 4438   4.624   4.392  10.878
  375W        W 4439   2.839   9.546   0.904
  376W        W 4440   3.922   8.609  11.470
  377W        W 4441  10.435   0.169   9.896
  378W        W 4442   8.549   8.305  10.378
  379W        W 4443   2.232   4.357   3.287
  380W        W 4444   3.344   9.674   0.984
  381W        W 4445   1.127   4.461   1.797
  382W        W 4446   6.146   8.557  10.892
  383W        W 4447   1.668   6.055   3.407
  384W        W 4448   1.544   9.251   0.401
  385W        W 4449   0.445   1.191   3.110
  386W        W 4450   2.186   7.811  10.973
  387W        W 4451   6.797   9.038  10.337
  388W        W 4452   3.060   7.697  11.929
  389W        W 4453   6.086   7.781  10.630
  390W        W 4454   2.585   5.241   2.843
  391W        W 4455   6.622   8.442  11.111
  392W        W 4456   9.070   9.524   3.061
  393W        W 4457   4.638  10.258   0.038
  394W        W 4458   7.338   6.155   3.934
  395W        W 4459   3.545   4.119   2.684
  396W        W 4460   1.502   9.633   3.556
  397W        W 4461  10.208   9.588   0.147
  398W        W 4462   3.747   7.713   9.955
  399W        W 4463   7.510  10.482   1.386
  400W        W 4464   5.172   4.579   8.241
  401W        W 4465   0.317   9.552  10.111
  402W        W 4466   9.682   9.440   2.422
  403W        W 4467   6.039   3.966   1.265
  404W        W 4468   7.196   1.316  10.339
  405W        W 4469   8.391   7.650   0.765
  406W        W 4470   3.784   0.263  10.068
  407W        W 4471   9.318   4.415   3.087
  408W        W 4472   2.348   3.241   9.315
  409W        W 4473   7.895   4.489  10.888
  410W        W 4474   7.957   7.611   3.454
  411W        W 4475   5.621   6.975   0.437
  412W        W 4476   9.074   9.155   2.157
  413W        W 4477   5.597   7.330   1.851
  414W        W 4478   8.409   6.259   8.616
  415W        W 4479   1.094   9.220   9.643
  416W        W 4480   8.064  10.177  10.198
  417W        W 4481   1.913  10.415   3.284
  418W        W 4482   7.885   0.958   2.270
  419W        W 4483   6.859   4.666   0.046
  420W        W 4484   8.894   3.477   2.320
  421W        W 4485   1.692   2.031   2.303
  422W        W 4486   9.677   8.345   0.794
  423W        W 4487   5.460   7.458  10.011
  424W        W 4488   1.325   7.445  10.926
  425W        W 4489   6.055   4.763  11.445
  426W        W 4490   0.929   9.551   0.421
  427W        W 4491   1.371   9.900   2.393
  428W        W 4492   4.128   4.499   0.203
  429W        W 4493   4.078   9.464   9.881
  430W        W 4494   4.808   3.209  10.301
  431W        W 4495   5.156   7.937   8.976
  432W        W 4496   6.066   9.986   2.748
  433W        W 4497   8.868   4.809  11.827
  434W        W 4498   0.856   7.568   3.099
  435W        W 4499   0.845   4.955   2.642
  436W        W 4500   4.360  10.401  10.001
  437W        W 4501   3.847   0.441  11.451
  438W        W 4502   0.024   7.002  11.323
  439W        W 4503   8.445   3.137   8.859
  440W        W 4504   3.600   6.411   3.660
  441W        W 4505   4.260   8.473   0.745
  442W        W 4506   4.263   8.832  11.106
  443W        W 4507   1.943   5.633   3.336
  444W        W 4508   7.600   8.582   1.278
  445W        W 4509   5.179   7.222   3.917
  446W        W 4510   6.446   9.793  11.493
  447W        W 4511   7.217   0.877   9.183
  448W        W 4512   4.788  10.454  10.586
  449W        W 4513   9.026   5.620   3.469
  450W        W 4514   1.669   6.644   9.339
  451W        W 4515   8.436   4.018   2.201
  452W        W 4516   8.992   6.577   1.455
  453W        W 4517   7.454   7.694   2.669
  454W        W 4518   7.069   5.936   3.138
  455W        W 4519   1.840   6.598  10.874
  456W        W 4520   8.711   3.406   0.067
  457W        W 4521   7.174   0.800   1.011
  458W        W 4522   1.902   5.277   9.108
  459W        W 4523   9.046   5.471  10.122
  460W        W 4524  10.247   5.011   0.729
  461W        W 4525   2.853   4.697   3.585
  462W        W 4526   0.965   7.008   1.331
  463W        W 4527   0.887   4.435  10.290
  464W        W 4528   6.993   4.899   1.001
  465W        W 4529   6.397   2.057   9.530
  466W        W 4530   7.506   0.507  11.285
  467W        W 4531   5.633   8.499  10.844
  468W        W 4532   3.742   7.083   9.135
  469W        W 4533  10.130   7.585  10.402
  470W        W 4534   9.348   1.828  10.355
  471W        W 4535   1.607   1.942   1.773
  472W        W 4536   7.063   3.125   3.062
  473W        W 4537   4.012   0.360   8.691
  474W        W 4538   4.788   4.891   8.442
  475W        W 4539   5.039   2.586   0.349
  476W        W 4540   6.695   6.682  11.918
  477W        W 4541   7.735   0.477   2.306
  478W        W 4542   4.531   9.676   8.543
  479W        W 4543   8.403   0.836   2.306
  480W        W 4544   5.264   9.148  11.974
  481W        W 4545   4.704   6.594  10.717
  482W        W 4546   6.725   3.096   0.982
  483W        W 4547   0.853   2.118   0.694
  484W        W 4548   8.386   7.361   3.319
  485W        W 4549   1.278  10.283   3.245
  486W        W 4550   6.373   6.981   3.313
  487W        W 4551   3.762   8.492   0.890
  488W        W 4552   5.679   8.431   2.692
  489W        W 4553   2.677   6.136   8.355
  490W        W 4554   3.701   8.694   3.503
  491W        W 4555   2.150   8.537   1.636
  492W        W 4556   7.267   6.494  10.711
  493W        W 4557   1.184   5.627   9.024
  494W        W 4558   7.730   6.830   9.257
  495W        W 4559   4.557   7.114  10.733
  496W        W 4560   5.441   3.659   8.174
  497W        W 4561   3.162   4.111   9.756
  498W        W 4562   8.969   1.327   9.740
  499W        W 4563   0.054   3.163   2.698
  500W        W 4564   6.009   4.761   2.474
  501W        W 4565   7.756   8.962  11.496
  502W        W 4566   4.122   2.590   9.438
  503W        W 4567  10.019   0.186  10.202
  504W        W 4568   7.560   0.086   3.395
  505W        W 4569   0.738   2.517  10.740
  506W        W 4570   3.212   6.747   2.492
  507W        W 4571   1.153   2.368   9.709
  508W        W 4572   4.101   6.248   1.967
  509W        W 4573   3.830   5.014  10.624
  510W        W 4574   9.247   2.769  11.367
  511W        W 4575   5.542   4.880   3.743
  512W        W 4576   8.570   9.872   1.667
  513W        W 4577   2.437   9.189   1.222
  514W        W 4578   4.506   4.552   9.993
  515W        W 4579   6.762   7.528   1.318
  516W        W 4580   4.660   9.302  11.557
  517W        W 4581   5.181   3.616   3.258
  518W        W 4582   8.925   6.002   0.845
  519W        W 4583   2.789   3.706   3.177
  520W        W 4584   6.930   4.357   3.914
  521W        W 4585   4.832   9.836  10.309
  522W        W 4586  10.373   6.084   8.873
  523W        W 4587   5.276   4.069   0.195
  524W        W 4588   9.480   4.247   0.737
  525W        W 4589   5.305   4.128  10.325
  526W        W 4590  10.247   4.275  10.104
  527W        W 4591   4.290  10.110   2.714
  528W        W 4592   2.550   1.346   3.096
  529W        W 4593   6.177   3.469   3.101
  530W        W 4594   6.939   0.371   2.010
  531W        W 4595   2.774   1.418   1.010
  532W        W 4596   5.961   3.144   8.873
  533W        W 4597   3.149   2.249   9.529
  534W        W 4598   9.128   4.162   9.593
  535W        W 4599   8.460   2.449   0.390
  536W        W 4600   5.693   5.466   9.467
  537W        W 4601   2.687   1.527   9.096
  538W        W 4602   8.902   4.291  10.529
  539W        W 4603   2.217   9.952   9.009
  540W        W 4604   5.756   7.171  11.882
  541W        W 4605   8.494   3.867   2.740
  542W        W 4606  10.176   9.579   2.344
  543W        W 4607   9.325   5.094  11.019
  544W        W 4608   7.940   6.433   2.258
  545W        W 4609   6.935   4.766   9.785
  546W        W 4610   1.265   5.133   2.362
  547W        W 4611   9.645   0.432  10.447
  548W        W 4612   9.804   0.372   1.239
  549W        W 4613   4.792   1.772   1.945
  550W        W 4614   5.318   7.368   0.296
  551W        W 4615   0.531   4.006  11.394
  552W        W 4616   8.038   5.600   3.432
  553W        W 4617   4.243   8.271  11.173
  554W        W 4618   4.739   9.856   2.693
  555W        W 4619   1.332   9.769   1.398
  556W        W 4620  10.332   1.181   1.356
  557W        W 4621   7.909   5.423   9.382
  558W        W 4622   3.869   0.679   9.770
  559W        W 4623   0.501   0.850   2.739
  560W        W 4624   3.764   9.525   0.648
  561W        W 4625   1.588   1.973  10.987
  562W        W 4626   5.473   2.616   9.235
  563W        W 4627   3.495   3.377   0.363
  564W        W 4628   4.058   8.241  10.282
  565W        W 4629   9.153   1.432   8.715
  566W        W 4630   8.036   6.243  11.719
  567W        W 4631   8.086   4.623  10.444
  568W        W 4632   3.255   0.893   8.724
  569W        W 4633   2.321   8.180   1.335
  570W        W 4634   0.668   6.071   3.285
  571W        W 4635   3.521   6.706   3.207
  572W        W 4636   8.241   3.409   0.257
  573W        W 4637   3.028   0.106   0.951
  574W        W 4638   2.643  10.237   8.850
  575W        W 4639   3.751   1.411   1.397
  576W        W 4640   2.075   5.088   9.745
  577W        W 4641   4.237   0.222  11.757
  578W        W 4642   9.920   4.879  10.066
  579W        W 4643   5.445   1.311  10.020
  580W        W 4644   9.967   8.554   9.491
  581W        W 4645   0.739   4.038   9.983
  582W        W 4646   9.333   0.481   9.538
  583W        W 4647   3.925   5.923   3.212
  584W        W 4648  10.237   7.403   8.483
  585W        W 4649   5.184   8.221   1.429
  586W        W 4650   7.064   1.543  10.823
  587W        W 4651  10.289   1.649   2.890
  588W        W 4652   2.283   2.688   0.660
  589W        W 4653  10.354   9.398   8.999
  590W        W 4654   1.742   3.326  11.489
  591W        W 4655   7.869   9.365   2.107
  592W        W 4656   9.948   3.763   1.148
  593W        W 4657   1.257   0.043  10.322
  594W        W 4658   1.487   8.968   9.395
  595W        W 4659   7.938   8.492  10.720
  596W        W 4660  10.123   4.324   3.327
  597W        W 4661   5.560   5.001  11.356
  598W        W 4662   1.734   2.721   2.917
  599W        W 4663   0.119   4.287   3.511
  600W        W 4664   8.373   0.485  11.248
  601W        W 4665  10.355  10.379   1.250
  602W        W 4666   0.981   4.806   3.126
  603W        W 4667   4.521   6.220   8.535
  604W        W 4668  10.185   3.417   3.483
  605W        W 4669  10.384   5.175  10.085
  606W        W 4670   8.932   5.259   2.290
  607W        W 4671   9.409   6.132   3.261
  608W        W 4672  10.294   0.626  10.083
  609W        W 4673   4.278   3.753   2.719
  610W        W 4674  10.357  10.077  10.757
  611W        W 4675   7.110   3.284  10.589
  612W        W 4676   4.953   2.140   9.690
  613W        W 4677   6.357   3.448   8.480
  614W        W 4678  10.386   3.782   1.451
  615W        W 4679   9.551   5.848   2.377
  616W        W 4680   5.077   2.611   9.562
  617W        W 4681   1.766  10.283  11.652
  618W        W 4682   3.634   1.296  10.397
  619W        W 4683   8.354  10.054  10.916
  620W        W 4684   2.892   1.269   0.229
  621W        W 4685   2.415   8.383   9.101
  622W        W 4686  10.256  10.202   1.745
  623W        W 4687   9.728   2.674   0.463
  624W        W 4688   0.388   1.178   1.742
  625W        W 4689   2.111   5.546   9.526
  626W        W 4690   8.038   6.983   1.409
  627W        W 4691   0.324   9.532   9.590
  628W        W 4692   5.324   5.028   1.387
  629W        W 4693   5.343   0.206   1.176
  630W        W 4694   9.486   7.978   9.940
  631W        W 4695   9.757   7.833  11.854
  632W        W 4696   3.745   2.289   3.578
  633W        W 4697   9.900   3.863   9.319
  634W        W 4698   6.520   7.448  10.165
  635W        W 4699   7.674   3.196   9.266
  636W        W 4700   3.189   0.605   3.566
  637W        W 4701   0.866   3.975   8.984
  638W        W 4702   8.454   0.351  11.720
  639W        W 4703   0.828   0.472   8.968
  640W        W 4704   7.089   4.128   2.584
  641W        W 4705   9.504  10.433   8.513
  642W        W 4706   5.145   7.221   1.653
  643W        W 4707   6.042   2.062   2.151
  644W        W 4708   9.578   7.041  11.518
  645W        W 4709   5.188   7.614   2.581
  646W        W 4710   7.499   7.639   8.953
  647W        W 4711   3.586   5.158   1.220
  648W        W 4712   7.869   3.981  11.002
  649W        W 4713   6.161   5.999   2.764
  650W        W 4714   6.162   1.866   9.093
  651W        W 4715   7.910   4.343   0.467
  652W        W 4716   5.803   8.381  10.014
  653W        W 4717   7.137   5.950  11.802
  654W        W 4718   0.920   1.410   9.793
  655W        W 4719   9.957   6.232   0.905
  656W        W 4720   8.165   5.636   0.581
  657W        W 4721   2.823   5.040   9.553
  658W        W 4722   0.396   1.245  11.853
  659W        W 4723   8.056   5.474   1.303
  660W        W 4724   4.548   9.860   2.206
  661W        W 4725   2.597   1.985  11.799
  662W        W 4726   1.881   4.706   8.502
  663W        W 4727   6.029   3.238   0.738
  664W        W 4728   0.123   9.305   2.488
  665W        W 4729   6.534   1.389   1.334
  666W        W 4730   7.203   0.385   9.413
  667W        W 4731   2.115   6.585   9.009
  668W        W 4732   7.006   3.193   0.567
  669W        W 4733   2.465   9.667   0.201
  670W        W 4734   4.015   3.266  10.029
  671W        W 4735   5.061   3.526   2.786
  672W        W 4736   8.809   8.408  11.867
  673W        W 4737   4.579   0.597  10.494
  674W        W 4738   4.244   0.930   9.978
  675W        W 4739   5.155   0.888   8.915
  676W        W 4740   9.958   0.313   0.214
  677W        W 4741   6.053   9.642   0.020
  678W        W 4742   6.522   4.747  11.672
  679W        W 4743   2.296   1.317   8.502
  680W        W 4744   1.765   4.673  10.608
  681W        W 4745   4.211   7.992   1.645
  682W        W 4746   4.619   0.528   1.008
  683W        W 4747   7.474   0.153  10.863
  684W        W 4748   0.106   4.942  11.273
  685W        W 4749   4.039   2.880  10.381
  686W        W 4750   7.955   6.807   0.922
  687W        W 4751   7.872   9.026   1.350
  688W        W 4752   5.672   4.514  10.298
  689W        W 4753   2.109   8.575  11.432
  690W        W 4754   5.656   7.567   2.319
  691W        W 4755   7.728   1.864  11.388
  692W        W 4756   0.518   6.970  11.135
  693W        W 4757   2.819   4.510   1.510
  694W        W 4758   9.856   1.200  10.672
  695W        W 4759   6.006   0.644   1.465
  696W        W 4760   0.711   0.673  10.351
  697W        W 4761   9.571   2.588  10.019
  698W        W 4762   3.577   9.185   1.798
  699W        W 4763   1.492   5.597   2.388
  700W        W 4764   4.968   6.590   9.028
  701W        W 4765   6.402   0.718   9.527
  702W        W 4766   2.367   3.059  10.968
  703W        W 4767   4.601   6.047   2.840
  704W        W 4768   5.196   2.229   0.020
  705W        W 4769   3.777   9.850   2.735
  706W        W 4770   3.025   7.961  10.047
  707W        W 4771   3.814   8.220   1.865
  708W        W 4772   2.474   0.960   2.174
  709W        W 4773   3.005   1.115  11.362
  710W        W 4774   0.360   2.398   9.164
  711W        W 4775   8.497   7.189   1.588
  712W        W 4776   2.296   1.216   1.712
  713W        W 4777   4.153   1.775   0.204
  714W        W 4778   5.646   7.942   2.892
  715W        W 4779   2.767   7.018  11.327
  716W        W 4780   7.177   1.711   2.330
  717W        W 4781   7.317   8.562  11.516
  718W        W 4782   1.240   3.310   8.763
  719W        W 4783   0.939   3.698  11.257
  720W        W 4784   1.876   4.144   1.259
  721W        W 4785   7.978   8.345   9.749
  722W        W 4786   2.059   7.627  10.055
  723W        W 4787   6.181   3.042   2.233
  724W        W 4788   1.204  10.005  11.687
  725W        W 4789   6.435   6.995  10.526
  726W        W 4790   5.770   6.582   8.499
  727W        W 4791   0.882   2.623   0.602
  728W        W 4792   9.959   6.118  11.981
  729W        W 4793   9.400   8.714  11.315
  730W        W 4794   9.226   5.227  10.531
  731W        W 4795   8.794   2.776   3.023
  732W        W 4796   0.562   9.517   3.401
  733W        W 4797   1.401   6.708   1.396
  734W        W 4798   6.529   8.016  11.388
  735W        W 4799   6.147   8.482   8.840
  736W        W 4800   0.997  10.187   2.247
  737W        W 4801   2.810   2.180   1.250
  738W        W 4802   5.142   3.603   0.038
  739W        W 4803   7.594   4.547   3.695
  740W        W 4804   6.000   0.565  10.628
  741W        W 4805   0.775   0.132   2.297
  742W        W 4806  10.185  10.233   9.993
  743W        W 4807   3.519   8.845  11.682
  744W        W 4808   2.798   5.073   1.854
  745W        W 4809   1.471   0.971   2.555
  746W        W 4810   6.607   6.521   2.179
  747W        W 4811   2.585   7.003   9.725
  748W        W 4812   4.751   7.529   2.302
  749W        W 4813   0.004   3.452  11.956
  750W        W 4814   3.241   8.959   1.472
  751W        W 4815   4.630  10.233   3.505
  752W        W 4816   9.116   8.792   1.812
  753W        W 4817   6.135  10.476   2.677
  754W        W 4818   6.449   3.394   2.661
  755W        W 4819   4.522   3.097   8.928
  756W        W 4820   4.654   0.781   3.349
  757W        W 4821   2.176   8.041   2.426
  758W        W 4822   8.675   1.785   1.989
  759W        W 4823   9.475   6.994   8.844
  760W        W 4824   7.392   2.320   8.811
  761W        W 4825   2.754   1.659   0.556
  762W        W 4826   7.731   8.598   8.881
  763W        W 4827   3.261   4.515   1.769
  764W        W 4828   9.862   8.760   1.022
  765W        W 4829   0.238   9.858  10.537
  766W        W 4830   9.406   5.122  10.037
  767W        W 4831   7.912   4.567   1.528
  768W        W 4832   3.366   9.469   1.439
  769W        W 4833   0.692   5.629   9.578
  770W        W 4834   4.032   6.618   9.221
  771W        W 4835   5.848   1.652   1.925
  772W        W 4836   7.326  10.021   9.201
  773W        W 4837   6.740   4.681   9.073
  774W        W 4838   2.318   8.212  10.683
  775W        W 4839   4.432   8.298   8.427
  776W        W 4840   5.618   8.794   9.684
  777W        W 4841   8.338   9.459  11.793
  778W        W 4842   7.316   7.844  11.035
  779W        W 4843   6.836   9.805   1.668
  780W        W 4844   7.667   2.630  10.969
  781W        W 4845   7.079   6.892   0.835
  782W        W 4846   0.470  10.298  10.480
  783W        W 4847   1.289   7.949   9.107
  784W        W 4848   1.855   8.397   0.264
  785W        W 4849   1.693   3.827   0.422
  786W        W 4850   8.438   9.015   9.291
  787W        W 4851   2.365   5.727  11.892
  788W        W 4852   6.396   4.010   9.709
  789W        W 4853   9.788   2.825   1.466
  790W        W 4854   3.182   7.485   0.390
  791W        W 4855   1.819   5.716   0.521
  792W        W 4856   6.242   5.558   3.031
  793W        W 4857   9.973   9.982   0.362
  794W        W 4858   4.578  10.408   9.185
  795W        W 4859  10.477   7.937   1.837
  796W        W 4860   3.721   7.058  11.852
  797W        W 4861   8.402   1.317   9.056
  798W        W 4862   9.140   8.043   0.618
  799W        W 4863   1.259   5.526   0.602
  800W        W 4864   2.279  10.012   2.539
  801W        W 4865   3.752   8.435  11.939
  802W        W 4866   0.789   0.179  10.475
  803W        W 4867   9.565   8.939   0.185
  804W        W 4868   4.895   1.638   3.682
  805W        W 4869   3.413  10.369  10.379
  806W        W 4870   3.091   8.529  10.368
  807W        W 4871   4.905   4.172  11.270
  808W        W 4872   6.202   1.406   0.243
  809W        W 4873   9.089   5.536  10.940
  810W        W 4874   0.385   6.035   8.859
  811W        W 4875   7.018   2.728   1.716
  812W        W 4876   2.654   3.217   1.976
  813W        W 4877   1.874   7.938   1.452
  814W        W 4878   1.928  10.389   2.664
  815W        W 4879   8.583   4.682  10.574
  816W        W 4880   9.856   8.306   3.359
  817W        W 4881   3.900   3.402   0.697
  818W        W 4882   5.085   4.632   3.662
  819W        W 4883   3.563   7.867   9.447
  820W        W 4884   5.100   8.460   8.888
  821W        W 4885   4.587   6.829   3.480
  822W        W 4886   6.937   8.040   2.538
  823W        W 4887   0.007   3.713   8.856
  824W        W 4888   8.510   9.978   2.168
  825W        W 4889   0.354   9.905   1.703
  826W        W 4890   6.951  10.494   9.689
  827W        W 4891   6.519   6.641   9.780
  828W        W 4892  10.243   6.123   3.665
  829W        W 4893   7.671   8.882   1.977
  830W        W 4894   9.119   7.563  11.960
  831W        W 4895  10.013   3.286  10.979
  832W        W 4896   6.117   0.054   0.713
  833W        W 4897   1.243   3.622  10.101
  834W        W 4898   9.894   1.979   8.546
  835W        W 4899   0.279   2.687   1.509
  836W        W 4900   9.371   8.350   2.007
  837W        W 4901   2.791   7.430   3.450
  838W        W 4902   0.094   6.580   0.709
  839W        W 4903   8.183   9.297   8.547
  840W        W 4904   2.912   1.630  10.510
  841W        W 4905   2.357   7.014   8.791
  842W        W 4906   3.272   8.445  10.928
  843W        W 4907   4.012   6.197   8.337
  844W        W 4908   5.517   3.848   3.576
  845W        W 4909   1.699   8.041   9.385
  846W        W 4910   7.547   8.386   1.841
  847W        W 4911  10.432   4.207   1.168
  848W        W 4912   7.768   6.425  10.787
  849W        W 4913   7.121   7.434   3.202
  850W        W 4914   9.680   6.474  10.735
  851W        W 4915   3.162   2.648   0.987
  852W        W 4916   2.988   1.773   0.059
  853W        W 4917   3.284   4.897  11.552
  854W        W 4918   5.173   5.748  11.863
  855W        W 4919   1.346   3.311   1.184
  856W        W 4920   9.025   3.564  10.835
  857W        W 4921   8.190   8.800   0.407
  858W        W 4922   2.742   6.968   1.449
  859W        W 4923   9.816   7.342   1.778
  860W        W 4924   5.162  10.479  11.366
  861W        W 4925   5.748   8.039   3.436
  862W        W 4926   3.343   9.386   3.480
  863W        W 4927  10.389   0.867   1.805
  864W        W 4928   7.350   6.637   3.657
  865W        W 4929   7.494   4.901  11.801
  866W        W 4930   6.463   8.851   2.527
  867W        W 4931   6.973   7.478   1.799
  868W        W 4932   1.921   4.779   2.550
  869W        W 4933   7.618   9.129   9.997
  870W        W 4934   0.262   4.265   0.471
  871W        W 4935   7.076   2.728   8.813
  872W        W 4936   8.143   3.227   1.505
  873W        W 4937   1.285   6.223   1.516
  874W        W 4938   4.246   4.683  11.726
  875W        W 4939  10.439   7.521  10.011
  876W        W 4940   9.592   0.677   9.937
  877W        W 4941   9.932   0.712  10.788
  878W        W 4942   4.160   4.589   3.685
  879W        W 4943   3.574   9.073   9.091
  880W        W 4944   3.309   9.268   2.469
  881W        W 4945   5.006   7.683   0.058
  882W        W 4946   8.615   5.057  11.373
  883W        W 4947   0.409   0.529   9.262
  884W        W 4948   0.940   8.572  10.239
  885W        W 4949   4.221   2.337   2.975
  886W        W 4950   0.468   8.325   1.227
  887W        W 4951   1.842   8.869   1.887
  888W        W 4952   5.530   3.157   8.055
  889W        W 4953   3.813   0.381   0.445
  890W        W 4954   1.192   5.161   9.702
  891W        W 4955   8.997   9.343   3.537
  892W        W 4956   1.624   0.944   1.093
  893W        W 4957   7.619   1.053   1.144
  894W        W 4958   9.991  10.037   1.224
  895W        W 4959   1.242   5.016   0.385
  896W        W 4960   1.743   0.719   9.479
  897W        W 4961   1.816   6.680   2.270
  898W        W 4962   7.839   8.951  10.440
  899W        W 4963  10.407   3.206   8.738
  900W        W 4964  10.332   7.953   8.729
  901W        W 4965   9.142   9.594  10.952
  902W        W 4966  10.115   9.949   8.976
  903W        W 4967   2.390   7.261   0.945
  904W        W 4968  10.062   9.081   0.346
  905W        W 4969   0.285   0.693  10.675
  906W        W 4970   4.789   0.825   2.175
  907W        W 4971   4.525   8.713   3.566
  908W        W 4972  10.384   8.577   0.233
  909W        W 4973   3.272   2.096  10.804
  910W        W 4974   6.513   0.735  11.285
  911W        W 4975   0.051   3.275   2.180
  912W        W 4976   5.114   7.197   2.175
  913W        W 4977   1.126   3.790   2.383
  914W        W 4978   7.630   9.272  11.910
  915W        W 4979   9.845   1.244   0.505
  916W        W 4980   5.626   7.702  10.431
  917W        W 4981   2.813   7.434   0.725
  918W        W 4982   8.472   3.612   3.293
  919W        W 4983   0.651   5.603  11.864
  920W        W 4984   2.179   9.560   1.473
  921W        W 4985   5.487   7.655   3.754
  922W        W 4986   0.473   8.469   0.388
  923W        W 4987   5.940   7.559  11.576
  924W        W 4988   6.629   7.192   0.823
  925W        W 4989   8.763   7.324   0.906
  926W        W 4990   4.969   0.773   2.674
  927W        W 4991   4.430   6.930  11.208
  928W        W 4992   7.454   5.033   3.546
  929W        W 4993   3.065   3.007   1.757
  930W        W 4994   8.617   3.292   1.736
  931W        W 4995   1.352   2.819   3.323
  932W        W 4996   7.547   8.561  10.275
  933W        W 4997   4.852   3.103   2.247
  934W        W 4998   5.822   2.238   9.214
  935W        W 4999   6.499   9.343  10.732
  936W        W 5000   7.113   7.393   0.932
  937W        W 5001   4.999   5.504   2.132
  938W        W 5002   4.651   7.617   9.040
  939W        W 5003   0.532   9.910   0.272
  940W        W 5004   3.092   2.830  10.304
  941W        W 5005   0.294   5.543   1.878
  942W        W 5006  10.325   9.930   2.765
  943W        W 5007   9.945   9.569   9.288
  944W        W 5008   7.121   9.882   2.132
  945W        W 5009   5.635   5.962   2.928
  946W        W 5010  10.042   2.531   2.849
  947W        W 5011   8.386   2.943   0.300
  948W        W 5012   3.805   7.054  11.333
  949W        W 5013   6.103   6.546  10.090
  950W        W 5014   8.016   5.582   2.385
  951W        W 5015   5.207   7.675   2.057
  952W        W 5016   6.012   9.571   0.518
  953W        W 5017   9.747  10.445   3.867
  954W        W 5018   6.069   0.018  11.267
  955W        W 5019   6.534   4.015   0.023
  956W        W 5020   7.730   2.472   0.647
  957W        W 5021   1.937   4.834   3.638
  958W        W 5022   6.592   9.143   9.883
  959W        W 5023   1.380   0.531   2.940
  960W        W 5024   9.519   6.972  10.747
  961W        W 5025   9.148   3.030   2.298
  962W        W 5026   9.831   0.905   3.880
  963W        W 5027   0.602   4.694   8.659
  964W        W 5028   3.314   6.158  10.503
  965W        W 5029   6.037   7.031   3.699
  966W        W 5030   2.790   3.699   2.127
  967W        W 5031   3.568   6.487   2.209
  968W        W 5032   5.239   2.104   1.231
  969W        W 5033   3.390   5.000   0.788
  970W        W 5034   2.662   0.180   9.280
  971W        W 5035   4.594   4.589   1.944
  972W        W 5036  10.037   7.289   2.253
  973W        W 5037   7.113   8.335   8.573
  974W        W 5038   5.226   2.216   2.109
  975W        W 5039   1.196   5.247   2.960
  976W        W 5040   8.135   1.801   8.983
  977W        W 5041   6.676   5.414   9.496
  978W        W 5042   6.506   4.133   0.944
  979W        W 5043   4.982   1.412  10.198
  980W        W 5044   2.184   6.062   8.554
  981W        W 5045   0.944   6.839   2.813
  982W        W 5046   7.170   3.117   2.050
  983W        W 5047   7.472   6.594   1.000
  984W        W 5048   2.921   9.556  11.780
  985W        W 5049   0.733   2.340   2.148
  986W        W 5050   4.593   8.198   9.920
  987W        W 5051   2.437   9.382   3.200
  988W        W 5052   4.551   1.239   9.414
  989W        W 5053   3.901   3.651   3.557
  990W        W 5054   6.267   1.548   9.459
  991W        W 5055   4.738   6.518   4.144
  992W        W 5056   6.230   1.405   3.256
  993W        W 5057   9.509   4.131  11.350
  994W        W 5058   2.295   7.964   3.573
  995W        W 5059   1.636   5.530   1.885
  996W        W 5060   8.707   1.556   1.525
  997W        W 5061   1.290   9.487   9.246
  998W        W 5062   0.808   6.838   8.677
  999W        W 5063   2.911   1.452   2.764
 1000W        W 5064   5.615   9.506   9.926
 1001W        W 5065   0.552   1.798   1.370
 1002W        W 5066   5.538   6.967   0.954
 1003W        W 5067   5.507   4.864  10.853
 1004W        W 5068   1.753   9.978  10.832
 1005W        W 5069   3.792   4.942  11.616
 1006W        W 5070   0.024   6.223  10.900
 1007W        W 5071   8.374   2.786  11.415
 1008W        W 5072   6.798   8.508  11.573
 1009W        W 5073   1.325   0.537   1.155
 1010W        W 5074   0.942   7.323   2.653
 1011W        W 5075   1.216   0.603   1.673
 1012W        W 5076   5.196   5.613   9.434
 1013W        W 5077   7.665   4.712   8.729
 1014W        W 5078   3.736   4.557   2.450
 1015W        W 5079   9.576   9.753   9.627
 1016W        W 5080   5.834   3.270   3.916
 1017W        W 5081   9.077   3.110  11.028
 1018W        W 5082   8.172   1.740   1.281
 1019W        W 5083   0.709   9.905  11.781
 1020W        W 5084   8.696   8.964   0.501
 1021W        W 5085   6.953   7.951   9.349
 1022W        W 5086   9.089   2.610  10.902
 1023W        W 5087   7.587   0.993   8.844
 1024W        W 5088   4.087   4.704  10.270
 1025W        W 5089   4.508   8.943   1.653
 1026W        W 5090   3.549   0.009   0.191
 1027W        W 5091   6.753   6.124   1.287
 1028W        W 5092   7.680   1.781   2.319
 1029W        W 5093   7.921   1.947   9.981
 1030W        W 5094   5.995   4.541   3.834
 1031W        W 5095   2.823   6.026   0.560
 1032W        W 5096   4.915  10.496   0.409
 1033W        W 5097   1.886   6.120   8.969
 1034W        W 5098   8.938   9.405   0.789
 1035W        W 5099   6.487   8.895  11.531
 1036W        W 5100   8.658   0.212  10.386
 1037W        W 5101  10.059   2.620  10.092
 1038W        W 5102   1.324   2.398   2.964
 1039W        W 5103   1.988   7.600   2.638
 1040W        W 5104   4.231   9.952   0.160
 1041W        W 5105   0.246   8.613   9.941
 1042W        W 5106   9.428   6.574  11.674
 1043W        W 5107   2.087   7.597   8.704
 1044W        W 5108   7.492   3.147  11.819
 1045W        W 5109   4.073   6.617   0.440
 1046W        W 5110   4.101   6.617   0.953
 1047W        W 5111   8.430  10.038   0.740
 1048W        W 5112   5.085   6.711   3.836
 1049W        W 5113   6.507   3.506   0.063
 1050W        W 5114   0.274   3.728   2.233
 1051W        W 5115   0.693   6.437   9.012
 1052W        W 5116   9.070   5.012   0.366
 1053W        W 5117   9.624   3.188   2.301
 1054W        W 5118   3.450   4.657   9.116
 1055W        W 5119   9.726   7.280  10.381
 1056W        W 5120   6.502   3.936   8.435
 1057W        W 5121   1.254   4.137   9.966
 1058W        W 5122   4.238   4.689  10.760
 1059W        W 5123   8.155   9.562  10.936
 1060W        W 5124   4.494   6.882   9.354
 1061W        W 5125   9.776   9.853   2.125
 1062W        W 5126   7.410   4.673   0.280
 1063W        W 5127   8.563   3.777   0.917
 1064W        W 5128   0.074   1.944  10.703
 1065W        W 5129   4.374   5.242   1.011
 1066W        W 5130   9.287   8.861   9.877
 1067W        W 5131   5.867   0.406   9.128
 1068W        W 5132   9.937   2.215   9.309
 1069W        W 5133   4.080   7.873   9.311
 1070W        W 5134   6.559   2.799   1.937
 1071W        W 5135   3.572   1.424   3.492
 1072W        W 5136   1.742   1.671   9.081
 1073W        W 5137   5.993  10.411   1.171
 1074W        W 5138   9.997   6.132   9.621
 1075W        W 5139   2.769   4.728   3.058
 1076W        W 5140   9.003   0.954   1.691
 1077W        W 5141   2.736   5.507   0.264
 1078W        W 5142   5.891   4.853   1.978
 1079W        W 5143   2.655  10.210   0.206
 1080W        W 5144   5.600   9.768   3.217
 1081W        W 5145   0.012   2.318   0.438
 1082W        W 5146   5.696   1.907   2.536
 1083W        W 5147   5.998  10.086   0.458
 1084W        W 5148   2.640   2.691  11.271
 1085W        W 5149   4.838   8.595   1.472
 1086W        W 5150   8.089   8.110   3.405
 1087W        W 5151   0.771  10.304   3.349
 1088W        W 5152   5.604   5.947   9.472
 1089W        W 5153   2.869   7.890   0.974
 1090W        W 5154   0.263   2.659   3.320
 1091W        W 5155   6.579   1.188  11.518
 1092W        W 5156   5.976   0.845   0.942
 1093W        W 5157   7.909   7.800   0.688
 1094W        W 5158   1.826   5.511   1.393
 1095W        W 5159   2.701   3.394  11.744
 1096W        W 5160   1.384   6.478   3.530
 1097W        W 5161   3.319   8.392   2.112
 1098W        W 5162   6.616   6.688   0.877
 1099W        W 5163   3.303   8.673   1.047
 1100W        W 5164   7.417   0.263   2.897
 1101W        W 5165   0.505   3.379  11.832
 1102W        W 5166   3.795   8.809   2.764
 1103W        W 5167   2.762   4.315   1.034
 1104W        W 5168   6.016   3.676   0.470
 1105W        W 5169   2.324   8.123   0.386
 1106W        W 5170   9.955   6.330  10.317
 1107W        W 5171   9.813   8.967   9.957
 1108W        W 5172   1.608   3.897   2.278
 1109W        W 5173   2.802   9.514   3.527
 1110W        W 5174   9.912   5.458   1.924
 1111W        W 5175   2.168   7.357   9.156
 1112W        W 5176  10.485   1.137   9.875
 1113W        W 5177   3.133  10.273   1.948
 1114W        W 5178   7.010  10.348   1.248
 1115W        W 5179   0.423   9.339   1.004
 1116W        W 5180   4.523   0.468   2.983
 1117W        W 5181   3.405   3.550   0.848
 1118W        W 5182   7.176  10.349  10.524
 1119W        W 5183   5.077  10.483  11.908
 1120W        W 5184   4.799   9.968   9.363
 1121W        W 5185   7.230   8.846   0.807
 1122W        W 5186   5.403   5.775   9.899
 1123W        W 5187   9.317   9.078   3.009
 1124W        W 5188   3.522   3.100  10.080
 1125W        W 5189   1.281   8.175  10.153
 1126W        W 5190   4.101   4.183  10.876
 1127W        W 5191   9.408   3.245   2.776
 1128W        W 5192   5.723  10.029   9.847
 1129W        W 5193   4.608   9.444   1.507
 1130W        W 5194   9.221   8.624   8.885
 1131W        W 5195   3.422   1.808  11.758
 1132W        W 5196   3.497   6.207   3.198
 1133W        W 5197   0.032   4.063  11.328
 1134W        W 5198   6.496   6.122  10.994
 1135W        W 5199   5.591   8.774   1.504
 1136W        W 5200   1.309   6.952  10.515
 1137W        W 5201   4.744   1.694   9.568
 1138W        W 5202   4.552   9.577   9.553
 1139W        W 5203   6.026   1.052   9.456
 1140W        W 5204   9.627   6.684   2.661
 1141W        W 5205   6.685   7.926  10.386
 1142W        W 5206   9.883   2.611   9.612
 1143W        W 5207  10.388   4.718   1.140
 1144W        W 5208   4.304   2.238   2.483
 1145W        W 5209   3.839   9.827  10.880
 1146W        W 5210   7.773   7.025   2.813
 1147W        W 5211   9.015   7.950  10.131
 1148W        W 5212   3.242   7.277  11.685
 1149W        W 5213   7.514   7.381  10.953
 1150W        W 5214  10.453   3.250   9.257
 1151W        W 5215   4.024   6.537   2.444
 1152W        W 5216   3.277   6.226   1.376
 1153W        W 5217   5.542   5.337  11.752
 1154W        W 5218   3.700   4.585   9.897
 1155W        W 5219  10.257   9.368   1.568
 1156W        W 5220   1.274   7.611   1.195
 1157W        W 5221   0.670   1.966  10.880
 1158W        W 5222   9.118   0.383   3.529
 1159W        W 5223  10.352   6.160   9.967
 1160W        W 5224   0.806  10.275   9.574
 1161W        W 5225   9.882   8.590   0.410
 1162W        W 5226   6.072   9.445   1.450
 1163W        W 5227   0.862   1.652   0.991
 1164W        W 5228   0.352   3.692  11.033
 1165W        W 5229   8.130   8.692  11.212
 1166W        W 5230   0.365   7.861   1.446
 1167W        W 5231   4.747   8.608   0.968
 1168W        W 5232   4.694   5.147   0.272
 1169W        W 5233   5.651   2.132   1.844
 1170W        W 5234   5.438   6.478   0.381
 1171W        W 5235   9.297   9.635   0.528
 1172W        W 5236   2.796   8.086   8.975
 1173W        W 5237   3.559   9.389  10.815
 1174W        W 5238   7.611   2.721   9.054
 1175W        W 5239   0.392   6.673  10.404
 1176W        W 5240   9.393   3.920  10.884
 1177W        W 5241   9.747   0.881   2.236
 1178W        W 5242   9.083   4.467   1.267
 1179W        W 5243   8.445  10.005   9.920
 1180W        W 5244   3.750   4.567  10.874
 1181W        W 5245   7.235   0.314   2.416
 1182W        W 5246   2.108   0.281   0.131
 1183W        W 5247   7.593   5.175   0.243
 1184W        W 5248   8.077   0.842   0.936
 1185W        W 5249   6.400  10.286  11.578
 1186W        W 5250   4.988   5.710   8.963
 1187W        W 5251   8.163   0.733  10.854
 1188W        W 5252   0.672   2.386   1.641
 1189W        W 5253   6.512   5.080   9.950
 1190W        W 5254   5.629   3.129  11.411
 1191W        W 5255   9.783   2.586  10.536
 1192W        W 5256   8.324   2.611   3.061
 1193W        W 5257   3.147   8.829  11.262
 1194W        W 5258   4.143   7.979   9.810
 1195W        W 5259   6.029   2.789  11.456
 1196W        W 5260   9.836   5.298   2.396
 1197W        W 5261   2.621   2.387   9.746
 1198W        W 5262   3.638   0.361   2.493
 1199W        W 5263   4.611   3.273   3.140
 1200W        W 5264   0.227   7.918   2.332
 1201W        W 5265   4.240   5.462   3.227
 1202W        W 5266   3.372   5.471   2.719
 1203W        W 5267   3.831   7.450   9.499
 1204W        W 5268   3.895   5.818   7.986
 1205W        W 5269   0.795   3.567   9.771
 1206W        W 5270   9.806   6.290   2.343
 1207W        W 5271   1.673   0.309  11.377
 1208W        W 5272   9.566   3.661  11.944
 1209W        W 5273   2.655   8.838   3.199
 1210W        W 5274   5.154   8.563   2.398
 1211W        W 5275   8.822   4.576   8.646
 1212W        W 5276   2.176   4.177   9.556
 1213W        W 5277   9.853   3.072  10.364
 1214W        W 5278   9.684   2.648   9.142
 1215W        W 5279   8.481   8.582   0.777
 1216W        W 5280   2.147   3.909   3.526
 1217W        W 5281   2.427   7.503   9.579
 1218W        W 5282   3.625   9.006  11.197
 1219W        W 5283   4.346   4.008   2.276
 1220W        W 5284   5.217   7.170  11.824
 1221W        W 5285   0.768   3.268   1.076
 1222W        W 5286   1.435   2.590  11.103
 1223W        W 5287   2.261   7.000  11.489
 1224W        W 5288   5.684   6.409   9.349
 1225W        W 5289   4.315   3.136  10.958
 1226W        W 5290   7.641   5.833  11.795
 1227W        W 5291   1.651   5.359   9.600
 1228W        W 5292   4.230   3.136   9.431
 1229W        W 5293   0.407   2.290   2.947
 1230W        W 5294   0.389   6.381   1.637
 1231W        W 5295   1.399  10.239   8.986
 1232W        W 5296   7.100   4.714  11.009
 1233W        W 5297   9.715   3.655  11.447
 1234W        W 5298   4.455   5.735   8.793
 1235W        W 5299   8.906   8.983   9.106
 1236W        W 5300   4.998   1.349   8.683
 1237W        W 5301   5.508  10.353  11.700
 1238W        W 5302   8.047   2.787   1.208
 1239W        W 5303   9.391  10.494   0.018
 1240W        W 5304   4.176   8.890   9.047
 1241W        W 5305   2.142   1.817   2.510
 1242W        W 5306  10.003   0.458   2.055
 1243W        W 5307   3.470   8.117   9.876
 1244W        W 5308   6.428   6.793   1.784
 1245W        W 5309   6.180   3.254  10.200
 1246W        W 5310   3.291   8.571   0.129
 1247W        W 5311   0.628   9.977   8.373
 1248W        W 5312   8.932   2.748   8.530
 1249W        W 5313   5.563   6.656   4.050
 1250W        W 5314   9.530   1.669   9.001
 1251W        W 5315   9.617   4.261   9.519
 1252W        W 5316   4.541   4.204   2.757
 1253W        W 5317   5.611   5.167   0.223
 1254W        W 5318   1.602   9.105  11.277
 1255W        W 5319   9.277   7.685  11.455
 1256W        W 5320   9.919   0.793   0.726
 1257W        W 5321   3.737   6.003   1.687
 1258W        W 5322   0.325   2.138   3.435
 1259W        W 5323   5.605  10.285  11.196
 1260W        W 5324   5.993  10.422   8.827
 1261W        W 5325   7.837   2.297   9.575
 1262W        W 5326   4.627   1.219   2.476
 1263W        W 5327   6.450   4.412   9.403
 1264W        W 5328   9.610   4.751  10.794
 1265W        W 5329   3.366   5.215  10.759
 1266W        W 5330   4.525   6.435   3.168
 1267W        W 5331   2.186  10.412   0.461
 1268W        W 5332   9.809   5.666   9.434
 1269W        W 5333   4.282   2.158   1.981
 1270W        W 5334  10.387   6.817   3.334
 1271W        W 5335   7.048   1.264  11.253
 1272W        W 5336   7.413   8.281  10.757
 1273W        W 5337   9.709  10.098   9.268
 1274W        W 5338   6.577   2.784   8.970
 1275W        W 5339   0.012  10.367   2.585
 1276W        W 5340   4.503   2.308   9.846
 1277W        W 5341   6.604   2.198   3.325
 1278W        W 5342   9.926   1.286   2.573
 1279W        W 5343   2.404   5.952   9.487
 1280W        W 5344   5.748   3.788   3.127
 1281W        W 5345   8.164   1.805   3.390
 1282W        W 5346   2.719   1.497   2.299
 1283W        W 5347   1.857   2.582  10.046
 1284W        W 5348   8.977   3.642   2.814
 1285W        W 5349   1.211   5.593  11.881
 1286W        W 5350   0.919   1.293  11.225
 1287W        W 5351   0.343   4.483   0.960
 1288W        W 5352   1.234   3.125  10.323
 1289W        W 5353  10.492   4.589   3.095
 1290W        W 5354   7.026   3.563   3.311
 1291W        W 5355   3.716   0.943   9.370
 1292W        W 5356   4.854   1.855  10.574
 1293W        W 5357   5.594  10.390   0.795
 1294W        W 5358   3.630   6.196  10.929
 1295W        W 5359  10.317   8.243   2.227
 1296W        W 5360   4.073   4.701  11.248
 1297W        W 5361  10.290   3.490   2.977
 1298W        W 5362   1.566  10.147  10.380
 1299W        W 5363   8.032  10.374   1.308
 1300W        W 5364   4.715   2.062   2.753
 1301W        W 5365   7.455   4.531   1.825
 1302W        W 5366   3.136   3.799  10.598
 1303W        W 5367   5.173   5.147   0.487
 1304W        W 5368   4.744   4.515  11.622
 1305W        W 5369   8.275   1.334   2.256
 1306W        W 5370   4.680   8.502   0.455
 1307W        W 5371   5.179   1.584   1.283
 1308W        W 5372   0.054   4.810   3.554
 1309W        W 5373   1.353   9.388  10.088
 1310W        W 5374   5.490   3.812  10.728
 1311W        W 5375   3.810  10.307   9.833
 1312W        W 5376   9.217   4.474   0.110
 1313W        W 5377   5.035   4.071   1.151
 1314W        W 5378   4.913   5.589   1.211
 1315W        W 5379   7.538   1.766  10.844
 1316W        W 5380   2.307   9.433   9.143
 1317W        W 5381   2.659   7.945   3.227
 1318W        W 5382   7.498   7.124   8.904
 1319W        W 5383   3.796   6.263   0.721
 1320W        W 5384   0.571   0.340   0.266
 1321W        W 5385   3.138   3.303   2.194
 1322W        W 5386   4.910   2.073   0.407
 1323W        W 5387   6.880   2.247   8.877
 1324W        W 5388   6.489  10.196   2.411
 1325W        W 5389  10.340   6.583   9.570
 1326W        W 5390   4.593   5.032  10.092
 1327W        W 5391   9.493   0.556   0.897
 1328W        W 5392   7.509   3.280   3.242
 1329W        W 5393   3.357   5.894   4.057
 1330W        W 5394   0.032   1.834   0.599
 1331W        W 5395   8.107   1.714  11.043
 1332W        W 5396   7.882   3.460  11.134
 1333W        W 5397   4.790   2.009  11.076
 1334W        W 5398   4.483   5.704   0.215
 1335W        W 5399   8.810   6.082   2.752
 1336W        W 5400   4.020   3.627   0.265
 1337W        W 5401   4.170   2.724   0.699
 1338W        W 5402   7.446   9.883  10.598
 1339W        W 5403   9.804   6.668   3.594
 1340W        W 5404   8.584   1.879   9.202
 1341W        W 5405   3.149   7.840   3.386
 1342W        W 5406   7.486   6.090  10.467
 1343W        W 5407   0.253   2.223   1.877
 1344W        W 5408   3.124   8.502   9.828
 1345W        W 5409   9.816   9.840  10.107
 1346W        W 5410   5.902   1.071   3.434
 1347W        W 5411   3.853   2.685   1.206
 1348W        W 5412   7.300   9.009  10.361
 1349W        W 5413   9.789  10.343   1.917
 1350W        W 5414   9.796   0.354   9.236
 1351W        W 5415   5.953   2.190   9.691
 1352W        W 5416   5.642   0.888   8.671
 1353W        W 5417   0.432   6.787   9.917
 1354W        W 5418   2.553   5.606   0.734
 1355W        W 5419   1.236   3.229   9.784
 1356W        W 5420   0.773   5.701  10.911
 1357W        W 5421   0.351   3.410   0.782
 1358W        W 5422   7.973   4.800   2.920
 1359W        W 5423   7.011   6.983   8.962
 1360W        W 5424   5.577   9.325   0.405
 1361W        W 5425   2.709   3.884   0.727
 1362W        W 5426   8.316   8.528  11.704
 1363W        W 5427   2.461   6.878   0.083
 1364W        W 5428   7.727   8.632   0.780
 1365W        W 5429   1.779   9.892   2.696
 1366W        W 5430   5.065   4.179  10.764
 1367W        W 5431   0.433   5.616   3.270
 1368W        W 5432   7.283   0.289   1.053
 1369W        W 5433   7.533   2.193   2.734
 1370W        W 5434   5.682   2.478  10.019
 1371W        W 5435   0.329   4.180  10.924
 1372W        W 5436   6.959   3.735   1.716
 1373W        W 5437   3.841   9.631   0.170
 1374W        W 5438   3.254   9.313   9.484
 1375W        W 5439   8.154  10.477  11.875
 1376W        W 5440   3.873   5.766   0.666
 1377W        W 5441   8.374   0.203   1.519
 1378W        W 5442   8.900   2.298   9.310
 1379W        W 5443   1.904   2.808  10.896
 1380W        W 5444   7.082   6.630   9.838
 1381W        W 5445   2.467   3.769   1.148
 1382W        W 5446   6.076   7.030   1.493
 1383W        W 5447   1.807   7.441   1.286
 1384W        W 5448   5.963   6.120  10.382
 1385W        W 5449   9.335   1.454   9.401
 1386W        W 5450   9.470   4.213   1.743
 1387W        W 5451   8.919   8.585  11.083
 1388W        W 5452   8.916   4.325   3.412
 1389W        W 5453   3.667   7.177   3.333
 1390W        W 5454   3.138   4.022   1.846
 1391W        W 5455   2.811   7.897  11.510
 1392W        W 5456   3.390   8.023   0.197
 1393W        W 5457   3.818   5.056   8.572
 1394W        W 5458   0.472   7.349   0.565
 1395W        W 5459   2.849   7.605  10.396
 1396W        W 5460   5.961   3.567  10.805
 1397W        W 5461   2.187   6.910   9.390
 1398W        W 5462   5.054   5.500   2.647
 1399W        W 5463   9.354   1.025   0.431
 1400W        W 5464   4.980   8.106  10.813
 1401W        W 5465   0.395   8.114   3.335
 1402W        W 5466   4.638   0.827   0.150
 1403W        W 5467   6.611   4.222   2.807
 1404W        W 5468   0.023   7.067   9.769
 1405W        W 5469   1.287   3.548  10.608
 1406W        W 5470   2.626   5.539   1.732
 1407W        W 5471   0.685   9.849  10.310
 1408W        W 5472   3.110   9.696   2.278
 1409W        W 5473   1.759   8.008   8.824
 1410W        W 5474   8.554   9.458  11.326
 1411W        W 5475   5.932   3.083  10.615
 1412W        W 5476   7.002  10.445   9.175
 1413W        W 5477   0.677   2.249  10.030
 1414W        W 5478   6.034   7.328   3.061
 1415W        W 5479   5.474   6.078  10.293
 1416W        W 5480   5.510   9.420  11.423
 1417W        W 5481   4.255   4.486   3.198
 1418W        W 5482   7.211   5.168   2.403
 1419W        W 5483   3.438   7.039   2.837
 1420W        W 5484   1.877   5.851   3.829
 1421W        W 5485   8.805   6.870  10.245
 1422W        W 5486   1.270   7.643  10.038
 1423W        W 5487   3.974   8.751  10.277
 1424W        W 5488   5.075  10.068   1.373
 1425W        W 5489   6.944   5.646   8.692
 1426W        W 5490   2.887  10.383   9.663
 1427W        W 5491   6.775   2.936  10.788
 1428W        W 5492   3.023  10.300   9.182
 1429W        W 5493   8.107   2.913   9.957
 1430W        W 5494   0.945   5.648   3.446
 1431W        W 5495   3.413   9.774   9.340
 1432W        W 5496   1.521   1.791   8.574
 1433W        W 5497   9.891   4.682   9.593
 1434W        W 5498   1.183   3.448   0.735
 1435W        W 5499   9.748   5.294   3.398
 1436W        W 5500   7.863   2.441  11.409
 1437W        W 5501   7.096   5.770   9.563
 1438W        W 5502   4.195   5.276   1.958
 1439W        W 5503   5.970   4.757  10.683
 1440W        W 5504   8.487   2.869   0.921
 1441W        W 5505   0.912   6.566   3.260
 1442W        W 5506   9.524   1.336  10.280
 1443W        W 5507   3.394   4.353   0.311
 1444W        W 5508   9.364   4.982   2.423
 1445W        W 5509   9.337   3.271  11.457
 1446W        W 5510   9.500   4.702  10.294
 1447W        W 5511   2.819   8.379   2.251
 1448W        W 5512   0.432   5.881   1.524
 1449W        W 5513   8.531   8.347   3.521
 1450W        W 5514   5.323   1.855   3.513
 1451W        W 5515   7.639   5.826   9.580
 1452W        W 5516   3.535   8.004  10.914
 1453W        W 5517   3.169   6.249   2.402
 1454W        W 5518   1.395   0.945  10.386
 1455W        W 5519   5.167   5.190  11.064
 1456W        W 5520   5.723   4.394  11.966
 1457W        W 5521   6.966   6.470   8.973
 1458W        W 5522   7.022   2.835  10.276
 1459W        W 5523   7.959   8.603   1.642
 1460W        W 5524   9.779   9.791  11.916
 1461W        W 5525   1.732   1.138  11.689
 1462W        W 5526  10.366   4.500   0.698
 1463W        W 5527   5.650   4.227   0.479
 1464W        W 5528   9.816   3.033   3.483
 1465W        W 5529   6.026   1.283   1.194
 1466W        W 5530   0.259   0.955   2.276
 1467W        W 5531   3.620   0.754  10.219
 1468W        W 5532   4.429  10.486   1.532
 1469W        W 5533   8.869   3.303   3.201
 1470W        W 5534   4.246   0.830   9.457
 1471W        W 5535   6.470   2.474   0.404
 1472W        W 5536   6.566   0.306  10.930
 1473W        W 5537   2.733  10.329  11.156
 1474W        W 5538   5.298   9.750   1.718
 1475W        W 5539   3.268   1.374   1.181
 1476W        W 5540   2.286   0.040  11.023
 1477W        W 5541   1.363   5.725   1.479
 1478W        W 5542   7.943   0.297  11.539
 1479W        W 5543   9.083   3.736   0.167
 1480W        W 5544   1.727   1.189   9.260
 1481W        W 5545   7.139   1.281   1.219
 1482W        W 5546   9.802   3.307   1.290
 1483W        W 5547   3.619   5.063   3.122
 1484W        W 5548   8.518   5.210   1.256
 1485W        W 5549   8.364   3.650   9.417
 1486W        W 5550   2.692   8.149  10.363
 1487W        W 5551   3.620   7.477   0.726
 1488W        W 5552   6.003   5.119   9.288
 1489W        W 5553   8.365   9.257   0.256
 1490W        W 5554   7.067   9.408   1.454
 1491W        W 5555   6.193   7.540   9.317
 1492W        W 5556   8.110   4.015   0.824
 1493W        W 5557   8.206   9.918   9.466
 1494W        W 5558   0.826   0.586   1.017
 1495W        W 5559   7.319   5.081   0.654
 1496W        W 5560  10.465   1.350  11.369
 1497W        W 5561   3.816   9.292  10.362
 1498W        W 5562   2.763   7.399   2.309
 1499W        W 5563   8.977   3.165   0.922
 1500W        W 5564   4.022   7.459  11.988
 1501W        W 5565   6.768   7.758  11.036
 1502W        W 5566   9.484   4.059   3.432
 1503W        W 5567   1.651   5.125   3.255
 1504W        W 5568   4.658   9.979   9.857
 1505W        W 5569   0.943   8.197   0.401
 1506W        W 5570   9.938   3.642   1.683
 1507W        W 5571   8.822   6.115  11.359
 1508W        W 5572   5.191   7.982   3.254
 1509W        W 5573   1.273   2.106  11.396
 1510W        W 5574   6.479   6.526   2.682
 1511W        W 5575   0.657   5.649   9.065
 1512W        W 5576   1.802   4.386   9.265
 1513W        W 5577   8.528   4.714   0.988
 1514W        W 5578   0.887   8.961  10.858
 1515W        W 5579   6.240   7.941   8.561
 1516W        W 5580   6.006   9.010   1.711
 1517W        W 5581   8.154   4.997   9.539
 1518W        W 5582   2.747   4.230   8.863
 1519W        W 5583   9.497   9.397  10.611
 1520W        W 5584   3.718   7.667   3.201
 1521W        W 5585   0.854   6.021  11.335
 1522W        W 5586   9.932   2.410   1.169
 1523W        W 5587   8.591   1.460   1.060
 1524W        W 5588   3.262   2.911   0.498
 1525W        W 5589   4.091   4.965   3.290
 1526W        W 5590   0.323   7.803   8.860
 1527W        W 5591   3.783   0.890   2.233
 1528W        W 5592  10.265   0.820  11.430
 1529W        W 5593  10.248   0.972   2.290
 1530W        W 5594   3.365   4.258   2.230
 1531W        W 5595   0.809   7.389   9.426
 1532W        W 5596   5.754   6.322  11.643
 1533W        W 5597   1.942   1.541   0.220
 1534W        W 5598   2.838   0.958   2.935
 1535W        W 5599   1.947   2.208   1.433
 1536W        W 5600   2.577   8.005   9.447
 1537W        W 5601   4.196   2.758   9.916
 1538W        W 5602   6.972   7.906   1.038
 1539W        W 5603   6.716  10.029   8.963
 1540W        W 5604   3.193   6.665   1.057
 1541W        W 5605   4.268   7.523   2.056
 1542W        W 5606   6.019   5.745   2.195
 1543W        W 5607   8.831   7.420  11.500
 1544W        W 5608   3.334   0.413   0.665
 1545W        W 5609  10.217   0.461  11.803
 1546W        W 5610   2.453  10.432  10.010
 1547W        W 5611   7.705   6.517   3.289
 1548W        W 5612   9.033   9.858   1.458
 1549W        W 5613   5.143   9.580  10.733
 1550W        W 5614   7.882   5.711  11.207
 1551W        W 5615  10.359   1.649   1.575
 1552W        W 5616   1.747   3.562   0.843
 1553W        W 5617   4.966   5.092   3.395
 1554W        W 5618   3.744   3.651   2.629
 1555W        W 5619   4.186   4.207   0.919
 1556W        W 5620   3.671   0.314  10.555
 1557W        W 5621   6.688   0.626   3.222
 1558W        W 5622   0.760   4.770   0.316
 1559W        W 5623   6.826   2.688   3.272
 1560W        W 5624   0.935   1.753   9.402
 1561W        W 5625   7.746   9.013   8.564
 1562W        W 5626   8.175   3.200   9.283
 1563W        W 5627   5.474   8.016  10.827
 1564W        W 5628   3.580   3.656  10.889
 1565W        W 5629   5.051   7.839   9.924
 1566W        W 5630   3.272   6.200   0.822
 1567W        W 5631   1.128   9.453   2.270
 1568W        W 5632   2.597   8.075   2.726
 1569W        W 5633   5.093  10.399   9.291
 1570W        W 5634   8.357   4.379   2.843
 1571W        W 5635   9.980   4.155   1.477
 1572W        W 5636   2.151   2.723   2.587
 1573W        W 5637   9.241   0.300  11.496
 1574W        W 5638   9.864   7.966  10.618
 1575W        W 5639   5.108   7.488   8.244
 1576W        W 5640   1.620   9.876   9.943
 1577W        W 5641   1.234   5.667   9.549
 1578W        W 5642   6.549   6.000  11.501
 1579W        W 5643   4.503   4.487   0.578
 1580W        W 5644   1.214   4.740   9.362
 1581W        W 5645   8.635   6.267   1.251
 1582W        W 5646   3.571   9.992   1.405
 1583W        W 5647  10.486   2.814  11.144
 1584W        W 5648   6.148   4.689   2.942
 1585W        W 5649  10.402   9.475   1.082
 1586W        W 5650   9.841   9.283  11.931
 1587W        W 5651   5.027   3.720   8.503
 1588W        W 5652   2.725   0.658   9.455
 1589W        W 5653   7.943   5.415  10.753
 1590W        W 5654   5.136   2.352   0.789
 1591W        W 5655   8.282   7.844   2.287
 1592W        W 5656   1.895   2.357  11.169
 1593W        W 5657   3.212   3.783   2.443
 1594W        W 5658   7.054   8.515   2.742
 1595W        W 5659   7.499   3.313   2.724
 1596W        W 5660   1.363   4.727   3.472
 1597W        W 5661   3.236   1.952   2.956
 1598W        W 5662   8.301  10.316   1.841
 1599W        W 5663   2.412   2.445   1.376
 1600W        W 5664   3.466   6.910   1.960
 1601W        W 5665   7.661   0.011   2.518
 1602W        W 5666   1.333   6.957   8.977
 1603W        W 5667   7.195  10.333   2.672
 1604W        W 5668   6.528   2.232   2.321
 1605W        W 5669   1.821   9.149   2.326
 1606W        W 5670   3.675   7.227  10.060
 1607W        W 5671   2.816   2.584   1.903
 1608W        W 5672   4.903   0.249   2.595
 1609W        W 5673   7.684   1.863   3.196
 1610W        W 5674   2.950   3.608   1.094
 1611W        W 5675   3.569   2.625   0.194
 1612W        W 5676   6.731   0.150   1.561
 1613W        W 5677   8.433   4.600   1.997
 1614W        W 5678   7.952   6.042   3.150
 1615W        W 5679   1.032   9.975   9.238
 1616W        W 5680   8.520   9.251  10.431
 1617W        W 5681   8.089   0.543   9.686
 1618W        W 5682   0.219  10.404   1.601
 1619W        W 5683   8.503   0.697   9.109
 1620W        W 5684   4.732   6.417   9.449
 1621W        W 5685   3.204   9.108  11.979
 1622W        W 5686  10.065   9.952   9.585
 1623W        W 5687  10.086   4.741  10.951
 1624W        W 5688   2.163   1.673  11.721
 1625W        W 5689   1.068   0.784  11.169
 1626W        W 5690   8.880   8.001   0.153
 1627W        W 5691   3.900   5.138   0.808
 1628W        W 5692   5.563   5.879   1.016
 1629W        W 5693  10.289   8.864   9.759
 1630W        W 5694   0.210   7.921   9.350
 1631W        W 5695   6.220   6.505   3.142
 1632W        W 5696   3.174   6.054   3.583
 1633W        W 5697   9.435   2.953   9.652
 1634W        W 5698   6.448   1.861   0.474
 1635W        W 5699   0.875   1.261   2.850
 1636W        W 5700   1.718   1.509   2.373
 1637W        W 5701   5.295   7.502   9.261
 1638W        W 5702   8.838   9.987  10.752
 1639W        W 5703   8.238   7.866   0.299
 1640W        W 5704   1.402   1.978   9.528
 1641W        W 5705   4.153   9.946  10.001
 1642W        W 5706   4.945   6.488   1.458
 1643W        W 5707   2.018   8.009   0.946
 1644W        W 5708   1.278   0.773   9.051
 1645W        W 5709   6.978   0.421   9.996
 1646W        W 5710   7.185   1.847   3.349
 1647W        W 5711   3.646   1.747   0.210
 1648W        W 5712   3.234   3.600   2.932
 1649W        W 5713   2.120   3.850   0.160
 1650W        W 5714   9.450   3.336  10.009
 1651W        W 5715   8.280   6.285  10.806
 1652W        W 5716   6.644   4.997   0.437
 1653W        W 5717   1.080   5.160  11.417
 1654W        W 5718   0.458   1.312  10.005
 1655W        W 5719   9.814   7.668   2.646
 1656W        W 5720  10.413   6.946   2.334
 1657W        W 5721   4.237   5.135  11.021
 1658W        W 5722   3.094   8.204  11.821
 1659W        W 5723   1.033   9.994   0.174
 1660W        W 5724   9.617   6.215   9.954
 1661W        W 5725   8.709   6.032   2.244
 1662W        W 5726   7.510   2.375   3.244
 1663W        W 5727   4.107   0.324   2.272
 1664W        W 5728   1.942   1.714  10.642
 1665W        W 5729   1.740   4.059  11.821
 1666W        W 5730   0.519   2.697  10.219
 1667W        W 5731   6.924   2.563   9.285
 1668W        W 5732   6.973   5.862   0.873
 1669W        W 5733   6.213   0.919  11.931
 1670W        W 5734   2.935   5.579   2.959
 1671W        W 5735  10.338   3.722   1.974
 1672W        W 5736   9.193   3.750  11.348
 1673W        W 5737   6.236   4.016   3.139
 1674W        W 5738   6.281  10.096   0.870
 1675W        W 5739   0.676   0.880   1.403
 1676W        W 5740   8.763   4.621   0.312
 1677W        W 5741   4.578   4.773  11.227
 1678W        W 5742   1.433   1.871  10.496
 1679W        W 5743   5.802   9.853   1.751
 1680W        W 5744   5.140   8.558  11.585
 1681W        W 5745   4.069   7.514   0.973
 1682W        W 5746   4.687   5.562   2.984
 1683W        W 5747   4.566   0.334   2.038
 1684W        W 5748   9.492   1.152   8.995
 1685W        W 5749  10.221   1.870  11.064
 1686W        W 5750   6.666   7.620   8.531
 1687W        W 5751   7.931   6.044   2.637
 1688W        W 5752   5.021   3.347   8.956
 1689W        W 5753   3.680   6.346  11.768
 1690W        W 5754   7.889   5.933  10.731
 1691W        W 5755   3.794   5.935   2.699
 1692W        W 5756   4.226   5.181  11.553
 1693W        W 5757   6.629   5.737   3.356
 1694W        W 5758   2.993   4.699   8.924
 1695W        W 5759   2.712   3.759   2.654
 1696W        W 5760   0.837   2.760   3.214
 1697W        W 5761   6.009   9.152   0.194
 1698W        W 5762   5.532   8.936   1.985
 1699W        W 5763   7.015   6.078  11.307
 1700W        W 5764   1.354   9.125  11.746
 1701W        W 5765   3.428   8.011   2.932
 1702W        W 5766   2.638   4.077   9.352
 1703W        W 5767   5.044   3.642   3.755
 1704W        W 5768   7.086   2.831  11.849
 1705W        W 5769   8.167   4.144   1.330
 1706W        W 5770   5.171   3.289  11.240
 1707W        W 5771   5.652   1.872   1.396
 1708W        W 5772   4.039   3.237   1.885
 1709W        W 5773   7.380   0.794   2.121
 1710W        W 5774   7.030   1.428  11.723
 1711W        W 5775   8.007   3.996   2.866
 1712W        W 5776   5.248   1.689   0.509
 1713W        W 5777   9.389   0.822   3.572
 1714W        W 5778   8.369   8.856   1.393
 1715W        W 5779  10.119   7.114  10.082
 1716W        W 5780   0.395   2.262  10.471
 1717W        W 5781   4.058   1.981   3.307
 1718W        W 5782   3.052   1.695   1.974
 1719W        W 5783   8.414   5.978  10.421
 1720W        W 5784   2.235   0.912   9.453
 1721W        W 5785   0.422   3.884  11.889
 1722W        W 5786  10.010   1.751   2.363
 1723W        W 5787   4.206   9.615  10.394
 1724W        W 5788   5.228   6.633   9.473
 1725W        W 5789   9.125   1.293   3.607
 1726W        W 5790   5.405   5.570   1.386
 1727W        W 5791   7.473   6.250   9.328
 1728W        W 5792   5.202   4.795   0.858
 1729W        W 5793   1.713   9.416  11.936
 1730W        W 5794   2.831   8.834   0.204
 1731W        W 5795   0.290   5.021   3.144
 1732W        W 5796   8.905   4.607   1.709
 1733W        W 5797   4.759  10.333   2.956
 1734W        W 5798   5.702   4.520  11.185
 1735W        W 5799   7.687  10.406  10.454
 1736W        W 5800   8.147   6.758  11.556
 1737W        W 5801   0.465   7.242   0.047
 1738W        W 5802   7.442   4.825   9.476
 1739W        W 5803   5.992   7.874  10.118
 1740W        W 5804   0.119   7.500  10.505
 1741W        W 5805   7.942   9.248   9.614
 1742W        W 5806   6.265   7.017  10.042
 1743W        W 5807   8.593   5.124   0.362
 1744W        W 5808   9.402   4.687   0.525
 1745W        W 5809   5.526   4.789   2.331
 1746W        W 5810   5.585   3.631  11.255
 1747W        W 5811   8.000   8.812   9.925
 1748W        W 5812   9.460   0.349   0.430
 1749W        W 5813   8.989   7.235   9.396
 1750W        W 5814   8.876   8.085   9.660
 1751W        W 5815   7.650   5.600  10.386
 1752W        W 5816   5.068   1.280   2.849
 1753W        W 5817   2.198   0.769   0.304
 1754W        W 5818   3.608   3.533   9.840
 1755W        W 5819  10.343   6.052   1.985
 1756W        W 5820   4.254   3.691   0.968
 1757W        W 5821   9.347   7.469   9.095
 1758W        W 5822   2.154   3.790   1.537
 1759W        W 5823   9.047   6.226  11.825
 1760W        W 5824   4.702   1.320   3.313
 1761W        W 5825  10.467   1.860   2.142
 1762W        W 5826   9.729   5.131  10.476
 1763W        W 5827   1.494   1.709   9.997
 1764W        W 5828   1.207   3.353   3.317
 1765W        W 5829   4.695   9.830   0.307
 1766W        W 5830  10.014   8.509   1.430
 1767W        W 5831   2.176   5.038  10.715
 1768W        W 5832   9.600   2.176   8.937
 1769W        W 5833   4.781   7.636  10.737
 1770W        W 5834   8.208   5.374  11.414
 1771W        W 5835   6.922   0.353   2.857
 1772W        W 5836   7.071   9.835   1.185
 1773W        W 5837   2.951   8.360  11.342
 1774W        W 5838   3.222   1.042   3.323
 1775W        W 5839   6.558   5.711   9.071
 1776W        W 5840   7.881   4.532   9.563
 1777W        W 5841   4.272   4.056   0.416
 1778W        W 5842   9.613   0.327   1.724
 1779W        W 5843   9.606   7.913   3.138
 1780W        W 5844   2.222   6.423   2.065
 1781W        W 5845   9.991   6.854  10.515
 1782W        W 5846   2.639   0.792   1.695
 1783W        W 5847   8.363   2.334   9.273
 1784W        W 5848  10.117   7.460  11.785
 1785W        W 5849   7.545   4.394   9.199
 1786W        W 5850   0.417   3.657   3.232
 1787W        W 5851   7.945   7.373   8.760
 1788W        W 5852   1.054   8.352   0.930
 1789W        W 5853   0.865   1.610   2.448
 1790W        W 5854   0.330   1.401   0.735
 1791W        W 5855   9.421   0.794   1.413
 1792W        W 5856   0.484   4.797  11.878
 1793W        W 5857   6.138   2.739   9.964
 1794W        W 5858   6.685   0.889   9.118
 1795W        W 5859   7.246   8.316   9.521
 1796W        W 5860   4.567   9.484  10.055
 1797W        W 5861   7.055   3.740   8.729
 1798W        W 5862   0.843   7.064   0.346
 1799W        W 5863   6.435   8.721   3.428
 1800W        W 5864   8.050  10.406   3.271
 1801W        W 5865   8.317   3.739  11.029
 1802W        W 5866  10.147   6.591   2.770
 1803W        W 5867   7.387   5.712  11.366
 1804W        W 5868   6.011   5.641  10.832
 1805W        W 5869   1.652   7.357   9.896
 1806W        W 5870   3.831   2.727   1.762
 1807W        W 5871   2.105   0.084   1.365
 1808W        W 5872   8.370   7.443   2.004
 1809W        W 5873   4.244   4.978   2.343
 1810W        W 5874   8.829   2.122  10.355
 1811W        W 5875   4.697   5.497   0.713
 1812W        W 5876   4.653   7.880   0.434
 1813W        W 5877   7.444   2.726  11.472
 1814W        W 5878   9.131   7.073  11.746
 1815W        W 5879  10.494   7.053   2.851
 1816W        W 5880   6.498   4.914   9.479
 1817W        W 5881   6.022   5.230  10.487
 1818W        W 5882   1.610   9.631  10.469
 1819W        W 5883   0.226   9.007  10.349
 1820W        W 5884   9.966   9.462   9.790
 1821W        W 5885   2.837   4.711  11.167
 1822W        W 5886   5.408   4.093  11.165
 1823W        W 5887  10.371   0.200   3.460
 1824W        W 5888   3.715   2.867   2.794
 1825W        W 5889   2.375   3.641  11.146
 1826W        W 5890   4.200   7.062   1.225
 1827W        W 5891   6.997   5.442   1.862
 1828W        W 5892   5.978   9.470   9.126
 1829W        W 5893   1.177   6.512   9.173
 1830W        W 5894   4.659   4.052   0.789
 1831W        W 5895  10.229   8.816  11.260
 1832W        W 5896   1.221   1.847   2.152
 1833W        W 5897  10.008   0.952   9.828
 1834W        W 5898   7.093   0.842   2.965
 1835W        W 5899   0.183   0.800   1.390
 1836W        W 5900   2.903   5.786   9.856
 1837W        W 5901   8.094   7.734   1.721
 1838W        W 5902   2.184   9.833   3.004
 1839W        W 5903   0.277   2.593  11.543
 1840W        W 5904   2.973   5.218  11.320
 1841W        W 5905   0.269   5.233  11.693
 1842W        W 5906   2.794   3.194   1.361
 1843W        W 5907   6.701   6.577   3.279
 1844W        W 5908   7.864   5.796   0.950
 1845W        W 5909   7.552   4.665  11.278
 1846W        W 5910   0.256   0.931  11.462
 1847W        W 5911   1.490   1.832   3.632
 1848W        W 5912   8.542   6.376   9.422
 1849W        W 5913   5.144   4.266   0.673
 1850W        W 5914   5.723  10.297   2.951
 1851W        W 5915   5.683   2.884   1.431
 1852W        W 5916   0.211  10.065  11.876
 1853W        W 5917   2.700   2.363   0.802
 1854W        W 5918   4.497   0.269  10.906
 1855W        W 5919   3.391   9.474   2.945
 1856W        W 5920   9.977   9.376  10.298
 1857W        W 5921   9.040   9.406   9.976
 1858W        W 5922   3.623   4.529  11.402
 1859W        W 5923   1.808   1.242   1.919
 1860W        W 5924   6.736   5.018   8.268
 1861W        W 5925   8.542   9.515   9.994
 1862W        W 5926   9.415   1.474   0.196
 1863W        W 5927   6.091   5.433   0.813
 1864W        W 5928   9.197   0.433   2.675
 1865W        W 5929   2.916   5.481  10.825
 1866W        W 5930   4.127   3.606  10.862
 1867W        W 5931   1.461  10.401   2.348
 1868W        W 5932   4.991   2.717  10.555
 1869W        W 5933   4.061   1.273   9.633
 1870W        W 5934   1.778   4.781  11.102
 1871W        W 5935   9.385  10.170   2.259
 1872W        W 5936   3.224   7.523   1.024
 1873W        W 5937   5.628   0.760  10.237
 1874W        W 5938   3.288   2.725   9.793
 1875W        W 5939   3.151   9.114   8.534
 1876W        W 5940   9.930   0.200  10.815
 1877W        W 5941   5.599   5.509   0.653
 1878W        W 5942   2.279   6.918  10.469
 1879W        W 5943   5.789   3.997  10.348
 1880W        W 5944   8.590  10.272  11.688
 1881W        W 5945   3.742   5.052  10.104
 1882W        W 5946   1.933   3.367   0.364
 1883W        W 5947   6.485   3.856   0.503
 1884W        W 5948   8.909   0.189  11.900
 1885W        W 5949   6.434   6.322   9.160
 1886W        W 5950   8.293   4.704   0.502
 1887W        W 5951   6.133   2.306   3.124
 1888W        W 5952   4.532   6.652  11.660
 1889W        W 5953   9.167   1.924  11.988
 1890W        W 5954   1.469   0.754  10.838
 1891W        W 5955   1.648   8.860   8.396
 1892W        W 5956   3.784   5.191   1.677
 1893W        W 5957   2.507   6.242   2.826
 1894W        W 5958  10.216   0.297   8.945
 1895W        W 5959  10.016   2.767  10.965
 1896W        W 5960   6.215   7.467   8.798
 1897W        W 5961   5.502   4.289   9.881
 1898W        W 5962   8.805   8.965  10.099
 1899W        W 5963   8.334   2.671  10.517
 1900W        W 5964   5.430   9.196   1.257
 1901W        W 5965   3.295   2.619  10.861
 1902W        W 5966   9.218   0.962   9.415
 1903W        W 5967   7.317   3.298   8.408
 1904W        W 5968   6.142   6.983   0.986
 1905W        W 5969   5.676   0.236  10.424
 1906W        W 5970   9.731   8.449   9.936
 1907W        W 5971   0.430   7.018   9.463
 1908W        W 5972   2.590   3.361   0.815
 1909W        W 5973   0.734   6.504   9.524
 1910W        W 5974   1.697   8.189   2.304
 1911W        W 5975   7.883   2.889  10.411
 1912W        W 5976   4.694   0.836   9.710
 1913W        W 5977   9.845   1.449   8.652
 1914W        W 5978   5.731   2.965  10.165
 1915W        W 5979   4.279   8.994   9.954
 1916W        W 5980   5.512   8.356   0.216
 1917W        W 5981   1.446   0.449   0.656
 1918W        W 5982   4.163   9.743   1.280
 1919W        W 5983   2.032   5.545  10.508
 1920W        W 5984   7.804   7.480   9.761
 1921W        W 5985   2.315   8.779  11.865
 1922W        W 5986   3.024   1.727   8.708
 1923W        W 5987   5.214   8.929   3.322
 1924W        W 5988   6.066   0.912  10.003
 1925W        W 5989   6.166   7.599   2.170
 1926W        W 5990   2.157   7.759   0.080
 1927W        W 5991   7.547   9.934   2.473
 1928W        W 5992   8.527   2.603   3.551
 1929W        W 5993  10.492   5.147   1.715
 1930W        W 5994   9.824   4.575   1.828
 1931W        W 5995   7.902   7.173  10.662
 1932W        W 5996   8.143   8.160   1.476
 1933W        W 5997   4.683   3.432  11.164
 1934W        W 5998   9.237   0.279   2.191
 1935W        W 5999   7.450   0.827  10.451
 1936W        W 6000   0.066   0.347   1.142
 1937W        W 6001   1.376   3.681  11.594
 1938W        W 6002   9.993   5.448   0.524
 1939W        W 6003  10.065   9.372   3.301
 1940W        W 6004   3.629   4.060  11.228
 1941W        W 6005   4.968   9.073   1.424
 1942W        W 6006   4.636   8.419  11.957
 1943W        W 6007   1.565   5.266  11.301
 1944W        W 6008   1.666   0.774   2.103
 1945W        W 6009   3.818   9.600   1.641
 1946W        W 6010   2.751   1.819   3.147
 1947W        W 6011   1.838   4.056   3.133
 1948W        W 6012   9.828   2.098   2.681
 1949W        W 6013   6.425   8.007   2.364
 1950W        W 6014   2.856   6.438  10.585
 1951W        W 6015   3.084   5.058   2.800
 1952W        W 6016   1.244   9.070  10.486
 1953W        W 6017   2.198   7.058   3.436
 1954W        W 6018   5.135   4.718   9.238
 1955W        W 6019   8.757   6.219   9.888
 1956W        W 6020   2.254   7.352   0.430
 1957W        W 6021   6.869   4.251   9.857
 1958W        W 6022   4.643   6.082  10.960
 1959W        W 6023   7.490   4.518   4.199
 1960W        W 6024   2.757   0.993  11.810
 1961W        W 6025   8.992   8.027  11.102
 1962W        W 6026   8.879   6.351   9.023
 1963W        W 6027   7.626   4.135  11.436
 1964W        W 6028   9.750   6.230   2.857
 1965W        W 6029   9.301   2.371  10.478
 1966W        W 6030   8.169   4.652   2.457
 1967W        W 6031   0.432   7.008   2.449
 1968W        W 6032  10.460   2.251  11.355
 1969W        W 6033   2.683   6.881   3.525
 1970W        W 6034   8.007   9.073   3.512
 1971W        W 6035   5.495   8.849   0.308
 1972W        W 6036   2.503   9.870  11.745
 1973W        W 6037   4.501   3.179   9.883
 1974W        W 6038   2.227  10.285   0.964
 1975W        W 6039   0.859   9.008  11.784
 1976W        W 6040   3.583  10.491   1.207
 1977W        W 6041   8.306   5.139   0.791
 1978W        W 6042   7.549   0.589   8.484
 1979W        W 6043   0.765   1.111   2.365
 1980W        W 6044   9.538   0.180   9.987
 1981W        W 6045   8.951   2.887   3.503
 1982W        W 6046   6.602   7.108  11.005
 1983W        W 6047   5.619   7.893   9.231
 1984W        W 6048   1.986   6.974   0.229
 1985W        W 6049   5.983   4.091   3.584
 1986W        W 6050   2.771  10.046   0.984
 1987W        W 6051   9.694   3.423   9.538
 1988W        W 6052   0.721   8.545   2.495
 1989W        W 6053   0.661   8.659   0.831
 1990W        W 6054   5.768   9.951   8.976
 1991W        W 6055   7.633   3.195  10.755
 1992W        W 6056   3.554   0.290   9.071
 1993W        W 6057   2.898   2.139  10.468
 1994W        W 6058   3.909   1.324   0.317
 1995W        W 6059   0.353   5.854  10.648
 1996W        W 6060   8.334   4.741  11.030
 1997W        W 6061   3.322   9.460  10.359
 1998W        W 6062   5.070   6.192   3.752
 1999W        W 6063   7.160   4.288  11.331
 2000W        W 6064   5.475   0.927   2.652
 2001W        W 6065   7.881   2.759   3.271
 2002W        W 6066   0.343   2.526   9.671
 2003W        W 6067  10.340   7.398   3.273
 2004W        W 6068   5.765   2.708   0.942
 2005W        W 6069   7.436   2.684  10.516
 2006W        W 6070   2.238   2.885   8.933
 2007W        W 6071   6.873   8.082   1.503
 2008W        W 6072   6.521   0.622   1.679
 2009W        W 6073  10.006   8.319   9.034
 2010W        W 6074   7.394   8.700   9.228
 2011W        W 6075   3.392   3.198   3.838
 2012W        W 6076   8.333   1.305   2.761
 2013W        W 6077   9.372   1.586   3.250
 2014W        W 6078   7.242   7.629   1.392
 2015W        W 6079   0.712   1.877   2.851
 2016W        W 6080   1.293   8.066   2.017
 2017W        W 6081   5.764   3.896   2.270
 2018W        W 6082   4.999   0.422   9.699
 2019W        W 6083  10.336   7.468   9.509
 2020W        W 6084   9.615  10.320   3.160
 2021W        W 6085   5.186   8.044   9.478
 2022W        W 6086   0.469   4.560  10.012
 2023W        W 6087   5.178   9.058  11.482
 2024W        W 6088   9.136   8.333  11.479
 2025W        W 6089   2.832   9.241   2.260
 2026W        W 6090   7.774   9.453   3.209
 2027W        W 6091  10.253   8.410   9.995
 2028W        W 6092   2.723   0.730   0.249
 2029W        W 6093   1.484   7.606   0.733
 2030W        W 6094   8.058   1.423  10.336
 2031W        W 6095   3.814   7.589  11.030
 2032W        W 6096   4.202   4.489   2.259
 2033W        W 6097   7.412   7.956   0.736
 2034W        W 6098   9.050   1.606  11.582
 2035W        W 6099   1.205   8.558   3.255
 2036W        W 6100   0.467   1.395  11.367
 2037W        W 6101   9.863   8.382  10.974
 2038W        W 6102   3.788   0.389   0.947
 2039W        W 6103   8.543   1.369   0.566
 2040W        W 6104   5.720   2.887   2.347
 2041W        W 6105   3.394   5.714   3.210
 2042W        W 6106   8.389   2.805   9.526
 2043W        W 6107   8.892   6.202   1.777
 2044W        W 6108   2.334   0.324   3.210
 2045W        W 6109   8.666   9.035   1.791
 2046W        W 6110   6.686   1.795   9.201
 2047W        W 6111   1.488   9.957   9.445
 2048W        W 6112   1.869   8.074  11.469
 2049W        W 6113   1.667   6.177   8.504
 2050W        W 6114   1.317   1.072   1.829
 2051W        W 6115  10.083   6.968  11.589
 2052W        W 6116   3.593   2.302   9.080
 2053W        W 6117   2.317   5.692   2.733
 2054W        W 6118   7.407   2.583   9.508
 2055W        W 6119   2.395   9.647  11.290
 2056W        W 6120   1.250   9.386  11.019
 2057W        W 6121  10.423   5.711  10.881
 2058W        W 6122   9.975   1.365  11.531
 2059W        W 6123   0.291   1.480   9.503
 2060W        W 6124  10.362   2.407   9.550
 2061W        W 6125   6.183   6.498   0.733
 2062W        W 6126   2.359   9.636  10.117
 2063W        W 6127   1.072   7.407  10.442
 2064W        W 6128   4.581   5.169   8.810
 2065W        W 6129   5.146   9.542   2.652
 2066W        W 6130   2.364   2.112   0.511
 2067W        W 6131   3.910   4.191   4.030
 2068W        W 6132   4.703   2.417   3.157
 2069W        W 6133   2.759   4.593   8.483
 2070W        W 6134   5.554   4.385   3.555
 2071W        W 6135   5.243   0.888  11.433
 2072W        W 6136   4.516   4.669   1.433
 2073W        W 6137   5.632   0.742   3.120
 2074W        W 6138   1.487   8.925   1.535
 2075W        W 6139   1.106   8.989  11.322
 2076W        W 6140   2.345   6.024   2.346
 2077W        W 6141   0.802   2.630   9.286
 2078W        W 6142   3.900   1.909  10.243
 2079W        W 6143   0.837   7.691   1.877
 2080W        W 6144   5.288   4.448  11.507
 2081W        W 6145   5.251   0.001  10.854
 2082W        W 6146   2.858   3.993   1.419
 2083W        W 6147   7.446   6.107  11.010
 2084W        W 6148   5.927   3.189   9.753
 2085W        W 6149   8.517   9.495   9.486
 2086W        W 6150   9.612  10.180  11.611
 2087W        W 6151   8.297   5.100  10.473
 2088W        W 6152   2.647   7.118   9.199
 2089W        W 6153   6.156   9.396   8.615
 2090W        W 6154   0.820   5.255   0.530
 2091W        W 6155  10.095   1.423   9.697
 2092W        W 6156   6.501   1.135   1.885
 2093W        W 6157   0.057   9.518   2.972
 2094W        W 6158   9.490   2.890  11.795
 2095W        W 6159   3.668   9.337  11.787
 2096W        W 6160   9.853   5.224   2.906
 2097W        W 6161   6.572   4.342   0.434
 2098W        W 6162   8.289  10.462  11.279
 2099W        W 6163   9.213   6.142   2.162
 2100W        W 6164   0.449   2.052   0.390
 2101W        W 6165   3.017   8.702  11.729
 2102W        W 6166   5.474   2.148   0.448
 2103W        W 6167   8.982   7.526  11.015
 2104W        W 6168   8.738   3.566  11.259
 2105W        W 6169   5.029   5.204   9.084
 2106W        W 6170   8.988   8.369  10.618
 2107W        W 6171   2.342   4.882   8.434
 2108W        W 6172   3.691   0.865   0.185
 2109W        W 6173   4.258   9.243   3.729
 2110W        W 6174   9.157   2.414   8.857
 2111W        W 6175   2.667   0.562   2.493
 2112W        W 6176   8.492   7.934  10.971
 2113W        W 6177   7.027   3.573   2.253
 2114W        W 6178   3.640  10.382   8.760
 2115W        W 6179   6.242   6.742  11.050
 2116W        W 6180   3.547   1.721   2.154
 2117W        W 6181   9.832   1.523  11.052
 2118W        W 6182   3.755   0.401   1.464
 2119W        W 6183  10.086  10.247   3.499
 2120W        W 6184   8.371   8.109   1.020
 2121W        W 6185   8.826   9.242  11.834
 2122W        W 6186   2.958   7.712   2.882
 2123W        W 6187   9.953   9.282  10.782
 2124W        W 6188   5.657   6.691   9.759
 2125W        W 6189   7.948   6.222  11.210
 2126W        W 6190   7.468   0.322   1.905
 2127W        W 6191   6.827   9.408  11.585
 2128W        W 6192   8.143   1.335   0.868
 2129W        W 6193   1.177   2.628  11.562
 2130W        W 6194   8.929   9.973   2.482
 2131W        W 6195   4.966   5.985  10.073
 2132W        W 6196   1.006   4.709   2.217
 2133W        W 6197   2.796   8.899  10.879
 2134W        W 6198   4.257   0.310   0.712
 2135W        W 6199  10.377   0.391  10.522
 2136W        W 6200   4.046   9.847   2.293
 2137W        W 6201   9.110   3.847  10.429
 2138W        W 6202   5.733   0.203   1.486
 2139W        W 6203   3.205   3.395   8.589
 2140W        W 6204   3.634   9.040   0.804
 2141W        W 6205   0.842   0.785   9.379
 2142W        W 6206   2.393   1.242   0.342
 2143W        W 6207   0.859   6.956   9.737
 2144W        W 6208   1.833   2.161   8.757
 2145W        W 6209   3.422   1.414  11.370
 2146W        W 6210   5.778   7.374   1.236
 2147W        W 6211   0.801   5.845   0.780
 2148W        W 6212   6.090   8.014   9.069
 2149W        W 6213   1.949  10.412  10.148
 2150W        W 6214   6.155   1.683   2.461
 2151W        W 6215   1.809   6.765   3.586
 2152W        W 6216   1.392   5.930  10.970
 2153W        W 6217   1.485   2.648   1.761
 2154W        W 6218   7.885   1.694   0.575
 2155W        W 6219   9.748   1.819   0.369
 2156W        W 6220   2.077   5.424   0.923
 2157W        W 6221   3.982   6.483   3.309
 2158W        W 6222   4.260   9.551   1.870
 2159W        W 6223   2.848   5.541  11.730
 2160W        W 6224   9.357   9.877   3.312
 2161W        W 6225   7.986   2.235   3.012
 2162W        W 6226   2.211   2.215   3.286
 2163W        W 6227   8.007  10.160   2.324
 2164W        W 6228   6.912  10.342  11.461
 2165W        W 6229   2.742   3.601   8.758
 2166W        W 6230   7.826   8.483  11.617
 2167W        W 6231   9.108  10.297  11.579
 2168W        W 6232   6.962   2.711   0.342
 2169W        W 6233   3.119   0.889   1.459
 2170W        W 6234   1.053   4.976   8.879
 2171W        W 6235   0.689  10.346   1.420
 2172W        W 6236   7.091   2.300   0.060
 2173W        W 6237   6.523   4.678   2.585
 2174W        W 6238   8.583   2.758  10.027
 2175W        W 6239   3.630   7.964  10.386
 2176W        W 6240   9.062   6.993   1.175
 2177W        W 6241   7.976   4.375   3.179
 2178W        W 6242   1.408   4.668  11.469
 2179W        W 6243   4.700   8.920  10.734
 2180W        W 6244   6.699   7.204  11.895
 2181W        W 6245   8.074   9.847   8.528
 2182W        W 6246   9.477   4.105   2.257
 2183W        W 6247   9.380   8.021  10.483
 2184W        W 6248   5.033   3.297  10.753
 2185W        W 6249   5.657   5.825  11.677
 2186W        W 6250   3.687   9.551   8.959
 2187W        W 6251   4.086  10.456   9.031
 2188W        W 6252   5.637   8.478   2.187
 2189W        W 6253   3.317   6.643  10.853
 2190W        W 6254   1.655   6.626   0.069
 2191W        W 6255   8.070   1.236  10.857
 2192W        W 6256   3.269   6.648  10.329
 2193W        W 6257   9.471   1.803   2.413
 2194W        W 6258   8.913   0.873   3.366
 2195W        W 6259   7.341   4.373  11.834
 2196W        W 6260   1.187   2.738  10.677
 2197W        W 6261   1.169   4.513   0.524
 2198W        W 6262   3.383   2.043   1.809
 2199W        W 6263   2.184   7.011  10.969
 2200W        W 6264   4.513   3.185   0.810
 2201W        W 6265   5.650   6.039   0.562
 2202W        W 6266   5.343   6.818   1.910
 2203W        W 6267   1.728   3.631   1.336
 2204W        W 6268   7.639   4.062   9.584
 2205W        W 6269   9.328   7.580   1.766
 2206W        W 6270   6.977   1.937  11.710
 2207W        W 6271   1.702   5.219  10.806
 2208W        W 6272   2.839   0.568   0.806
 2209W        W 6273   9.516   7.004   9.360
 2210W        W 6274   2.616   4.125   1.872
 2211W        W 6275   2.442   6.261  11.943
 2212W        W 6276   6.188   4.714   1.583
 2213W        W 6277   0.602   8.149   0.781
 2214W        W 6278   9.005   8.313   9.236
 2215W        W 6279   9.862   1.723   8.100
 2216W        W 6280   6.453   5.220   9.078
 2217W        W 6281   3.689   5.719  11.197
 2218W        W 6282   2.555   5.580  10.439
 2219W        W 6283   5.351   1.740  10.389
 2220W        W 6284   5.274   1.286   0.159
 2221W        W 6285   8.831   7.842   1.006
 2222W        W 6286   8.782   5.082  10.338
 2223W        W 6287   6.714   5.689   2.862
 2224W        W 6288   3.186   5.301   0.424
 2225W        W 6289   8.665   2.255   0.805
 2226W        W 6290   0.684   7.933  10.972
 2227W        W 6291   8.594   8.977   8.703
 2228W        W 6292   3.349   3.040   3.159
 2229W        W 6293   2.302   0.251   2.705
 2230W        W 6294   5.226   2.135   2.635
 2231W        W 6295   6.978   8.015   9.864
 2232W        W 6296   1.898   0.141   2.216
 2233W        W 6297   2.874   9.893  10.876
 2234W        W 6298   4.023   9.108  11.482
 2235W        W 6299   1.891   2.183   3.691
 2236W        W 6300   7.035   4.010   3.548
 2237W        W 6301   0.317   0.510   9.770
 2238W        W 6302   8.959   2.271   2.803
 2239W        W 6303   2.872   2.681   1.405
 2240W        W 6304   7.118   7.934   3.011
 2241W        W 6305   3.198   1.817   9.196
 2242W        W 6306   4.629   1.287   1.993
 2243W        W 6307   9.406   9.271   9.560
 2244W        W 6308   0.399   0.740   8.754
 2245W        W 6309  10.299   8.315  11.240
 2246W        W 6310   5.414   0.433   8.860
 2247W        W 6311   0.816  10.324  11.482
 2248W        W 6312   8.454   9.514   0.701
 2249W        W 6313   8.011   2.316   3.518
 2250W        W 6314   3.488   8.897  10.321
 2251W        W 6315   4.221   6.052   0.951
 2252W        W 6316   5.274   0.005   9.776
 2253W        W 6317   7.339   8.390   3.162
 2254W        W 6318   6.655   0.213   2.460
 2255W        W 6319   1.605   9.577   2.088
 2256W        W 6320   4.363   1.961  10.464
 2257W        W 6321   1.522   4.696   2.272
 2258W        W 6322   3.168   9.456   8.995
 2259W        W 6323   8.956   1.119  11.360
 2260W        W 6324   3.075   2.202  11.741
 2261W        W 6325   3.361   8.353   9.348
 2262W        W 6326   1.397   7.550   9.497
 2263W        W 6327   0.928   7.391  11.908
 2264W        W 6328   5.151   9.060   2.826
 2265W        W 6329   6.910   6.951   1.841
 2266W        W 6330   1.870   2.154  10.361
 2267W        W 6331   8.987   0.518   0.301
 2268W        W 6332   7.650   6.897   9.753
 2269W        W 6333   6.667   1.162   0.009
 2270W        W 6334   1.420   5.135  11.792
 2271W        W 6335   4.578   9.300  11.058
 2272W        W 6336   4.641   9.371   3.420
 2273W        W 6337   3.367   7.875  11.545
 2274W        W 6338   1.054  10.474  11.924
 2275W        W 6339   8.914   1.535   0.271
 2276W        W 6340   3.655   5.573   1.974
 2277W        W 6341   6.199   1.865  10.461
 2278W        W 6342   3.035   6.904   3.128
 2279W        W 6343   1.080   1.896   1.391
 2280W        W 6344   7.335   9.679  11.059
 2281W        W 6345   8.186   9.465   2.872
 2282W        W 6346   3.288   4.269   8.785
 2283W        W 6347   2.284   9.081  11.439
 2284W        W 6348   1.537   6.182   2.910
 2285W        W 6349   8.181   2.562  11.000
 2286W        W 6350   5.662   2.047  11.989
 2287W        W 6351   1.566   1.776   1.267
 2288W        W 6352   0.422   7.118  10.653
 2289W        W 6353   0.448   2.117  11.454
 2290W        W 6354   1.306   4.079   8.774
 2291W        W 6355   1.951   7.010   0.961
 2292W        W 6356   0.960   0.270   0.634
 2293W        W 6357   3.707   2.210   3.039
 2294W        W 6358   8.988   4.160   0.441
 2295W        W 6359   2.379   8.622   0.353
 2296W        W 6360   1.768   4.242  10.978
 2297W        W 6361   1.941   8.427   8.572
 2298W        W 6362   4.253   7.053   0.188
 2299W        W 6363   9.193   7.477   2.327
 2300W        W 6364   0.680   3.934   2.899
 2301W        W 6365   2.138   8.006   9.696
 2302W        W 6366   7.140   6.601   4.123
 2303W        W 6367   9.438   6.166   0.709
 2304W        W 6368   7.688   9.707   0.845
 2305W        W 6369   1.064   9.434   2.793
 2306W        W 6370   6.889   1.297   2.195
 2307W        W 6371   2.294   4.848   3.251
 2308W        W 6372   3.823   8.463   1.399
 2309W        W 6373   8.909   8.381   0.959
 2310W        W 6374   3.959   6.725   1.982
 2311W        W 6375   9.185   3.581   8.925
 2312W        W 6376   5.530   9.880   2.172
 2313W        W 6377   0.472   6.146  11.661
 2314W        W 6378   8.805   6.675   0.560
 2315W        W 6379   6.127   1.853  11.546
 2316W        W 6380  10.448   1.344   1.962
 2317W        W 6381   9.836   1.723  10.013
 2318W        W 6382   9.987   1.173   0.012
 2319W        W 6383   8.987   1.989   1.596
 2320W        W 6384   7.985   2.724   1.718
 2321W        W 6385   1.572   5.364   0.224
 2322W        W 6386   0.859   8.051  10.522
 2323W        W 6387   6.679   7.988   0.257
 2324W        W 6388   5.482   5.216   2.672
 2325W        W 6389  10.466   8.506   2.666
 2326W        W 6390   9.949   2.576   3.353
 2327W        W 6391   3.125   3.527   1.737
 2328W        W 6392   9.856   3.243  11.837
 2329W        W 6393   7.203   3.016   9.309
 2330W        W 6394   1.399   0.531   8.605
 2331W        W 6395   3.465   4.163  10.752
 2332W        W 6396   7.636   6.021   8.330
 2333W        W 6397   4.833   2.788   0.923
 2334W        W 6398   1.730   5.853   9.715
 2335W        W 6399   7.393   6.054   1.795
 2336W        W 6400   4.147   8.846   2.393
 2337W        W 6401   4.533   3.634  10.128
 2338W        W 6402   0.731   1.647   0.496
 2339W        W 6403   1.584   6.467   1.859
 2340W        W 6404   4.334   0.994  11.400
 2341W        W 6405   6.995   7.586  10.137
 2342W        W 6406   1.692   0.059   0.367
 2343W        W 6407   4.395   2.641  11.058
 2344W        W 6408   4.232   3.400  11.416
 2345W        W 6409   3.547   1.719   0.866
 2346W        W 6410   6.458   0.209   1.988
 2347W        W 6411   5.103   4.067   8.118
 2348W        W 6412   3.197   4.652  10.040
 2349W        W 6413   1.445   0.763  11.880
 2350W        W 6414   8.967   8.469  10.099
 2351W        W 6415   8.969   7.937   1.550
 2352W        W 6416   2.917   0.277   0.400
 2353W        W 6417   9.974   8.778  11.937
 2354W        W 6418   2.225   6.038  10.992
 2355W        W 6419   3.627   2.595   0.740
 2356W        W 6420  10.162   8.719  10.744
 2357W        W 6421   1.858   7.418  11.143
 2358W        W 6422   0.221   0.261   8.869
 2359W        W 6423   7.458   7.541  11.436
 2360W        W 6424   8.542   6.561  11.787
 2361W        W 6425   9.637   6.619   0.893
 2362W        W 6426   7.242   3.192   1.018
 2363W        W 6427   7.692   9.095   9.077
 2364W        W 6428   8.907   7.857  10.621
 2365W        W 6429   3.357   6.915   8.542
 2366W        W 6430   6.678   1.683  10.265
 2367W        W 6431   3.294   7.884   0.677
 2368W        W 6432   4.573   9.839   3.170
 2369W        W 6433   9.707  10.230   9.804
 2370W        W 6434   9.868   5.442  11.522
 2371W        W 6435   7.939  10.169   0.856
 2372W        W 6436   6.629   8.752   2.980
 2373W        W 6437   0.419   1.448   2.690
 2374W        W 6438   0.144   6.740  10.884
 2375W        W 6439   7.474   5.520   1.709
 2376W        W 6440   6.679   1.685   9.736
 2377W        W 6441   6.423   5.764   1.614
 2378W        W 6442   3.381   9.764  11.631
 2379W        W 6443   4.767   1.244  11.876
 2380W        W 6444   1.172   6.085   3.262
 2381W        W 6445   6.284   3.657   0.937
 2382W        W 6446   8.137   3.071  10.819
 2383W        W 6447   7.163   5.473   2.809
 2384W        W 6448   5.682  10.273   2.450
 2385W        W 6449   1.376   6.568  10.198
 2386W        W 6450   8.119   7.528  10.341
 2387W        W 6451   8.020   2.238   2.485
 2388W        W 6452   7.057   3.358  11.588
 2389W        W 6453   2.738   8.817  10.049
 2390W        W 6454  10.078   0.155   1.612
 2391W        W 6455   1.849   6.472   3.184
 2392W        W 6456   1.672   9.210  10.764
 2393W        W 6457   2.703   4.459   0.038
 2394W        W 6458   4.479   6.604   2.694
 2395W        W 6459   1.400   7.222   1.511
 2396W        W 6460   2.239   6.017  10.452
 2397W        W 6461   7.431   4.543   1.316
 2398W        W 6462   4.700   9.359   0.068
 2399W        W 6463   8.760   5.224   3.215
 2400W        W 6464   9.780   6.953   0.532
 2401W        W 6465   4.845   5.037   1.209
 2402W        W 6466   3.124   6.450   8.318
 2403W        W 6467   2.586   3.869  11.928
 2404W        W 6468   7.484   7.506   1.855
 2405W        W 6469   6.937   0.870   1.899
 2406W        W 6470   9.471   1.509   0.715
 2407W        W 6471   7.519   5.477   1.188
 2408W        W 6472   5.035   9.657   2.166
 2409W        W 6473   1.983   2.864   9.376
 2410W        W 6474   6.908   5.599  11.512
 2411W        W 6475   9.816   5.609   0.046
 2412W        W 6476   4.227   8.365   9.168
 2413W        W 6477   2.357   2.265   2.795
 2414W        W 6478   6.995   4.191   0.187
 2415W        W 6479   0.379   7.509   3.376
 2416W        W 6480   7.018   9.857  11.779
 2417W        W 6481   5.107   5.394  11.509
 2418W        W 6482   3.797   6.465   9.635
 2419W        W 6483   2.938   9.875   9.470
 2420W        W 6484   7.938   3.331  11.622
 2421W        W 6485   3.542   4.317   9.499
 2422W        W 6486   0.794   1.153   0.963
 2423W        W 6487   6.937   5.932   4.149
 2424W        W 6488   3.786   9.910   8.597
 2425W        W 6489   4.200   7.950   0.676
 2426W        W 6490   9.090   2.375   0.564
 2427W        W 6491   8.463   2.836   1.548
 2428W        W 6492   9.387   4.588   2.095
 2429W        W 6493   8.215   1.030   1.846
 2430W        W 6494   2.965   9.244   3.142
 2431W        W 6495   5.011   0.357   3.077
 2432W        W 6496   8.524   7.993   1.848
 2433W        W 6497   8.119   6.638   9.514
 2434W        W 6498   5.200   4.637  10.518
 2435W        W 6499   6.068  10.209   9.310
 2436W        W 6500   8.332   1.711   0.262
 2437W        W 6501   1.930   7.380   1.793
 2438W        W 6502   3.247   9.403   0.574
 2439W        W 6503   3.983   1.140   3.515
 2440W        W 6504   9.923   1.322   9.201
 2441W        W 6505   5.904   4.101  11.420
 2442W        W 6506   7.976   5.637   1.849
 2443W        W 6507   7.509   8.199   2.728
 2444W        W 6508  10.313   8.015   2.667
 2445W        W 6509  10.142   6.754   0.879
 2446W        W 6510   5.714  10.291  10.683
 2447W        W 6511   5.663   0.728  11.697
 2448W        W 6512   4.229  10.317  10.846
 2449W        W 6513   3.711   6.950   2.416
 2450W        W 6514   6.990   9.883   3.610
 2451W        W 6515   3.270   3.811  11.501
 2452W        W 6516   1.198   5.657  11.374
 2453W        W 6517   2.115   3.170   0.785
 2454W        W 6518  10.488   7.005  10.411
 2455W        W 6519   4.007   2.263   9.863
 2456W        W 6520   5.920   2.655   9.514
 2457W        W 6521   3.574   6.563  11.321
 2458W        W 6522   4.737   3.197   9.391
 2459W        W 6523   3.839   2.407   2.589
 2460W        W 6524   6.477   6.701   3.735
 2461W        W 6525   0.163   6.608   2.635
 2462W        W 6526   8.653   6.483   3.444
 2463W        W 6527   4.555   7.975   9.447
 2464W        W 6528   3.662   1.363  11.841
 2465W        W 6529   5.717   7.869   8.732
 2466W        W 6530   0.843   5.026   1.267
 2467W        W 6531   0.975   3.295  10.931
 2468W        W 6532   6.557   4.368   1.401
 2469W        W 6533   6.987   2.017  10.973
 2470W        W 6534   7.618   6.689  10.352
 2471W        W 6535   4.117   9.626   9.247
 2472W        W 6536   5.028   7.735   1.595
 2473W        W 6537   1.129   8.963   3.561
 2474W        W 6538   4.086   3.110   1.047
 2475W        W 6539   1.381   1.458   3.273
 2476W        W 6540   3.832   9.852   9.611
 2477W        W 6541   3.294   1.360   1.682
 2478W        W 6542   8.462  10.258   0.228
 2479W        W 6543   3.265   8.939   2.868
 2480W        W 6544   8.022   8.193   1.992
 2481W        W 6545   0.745   9.036  10.362
 2482W        W 6546   7.291   2.832   3.428
 2483W        W 6547   9.237  10.339   0.542
 2484W        W 6548   5.963   0.337   1.916
 2485W        W 6549   7.162   4.191   1.583
 2486W        W 6550   6.155   9.087   3.222
 2487W        W 6551   8.673   3.597   9.006
 2488W        W 6552  10.479   5.308   0.385
 2489W        W 6553   8.937   2.514   1.489
 2490W        W 6554   6.487   1.929   8.695
 2491W        W 6555   6.146   7.805   3.175
 2492W        W 6556  10.010   9.222   0.843
 2493W        W 6557  10.453   8.002  10.252
 2494W        W 6558   7.966   7.310   0.801
 2495W        W 6559   3.288   9.973   8.871
 2496W        W 6560   5.999   9.115   9.522
 2497W        W 6561   8.834   0.439   3.069
 2498W        W 6562   4.416   7.043   8.505
 2499W        W 6563   1.179   8.530   2.275
 2500W        W 6564   8.629   7.060  11.796
 2501W        W 6565   5.237   8.687   1.148
 2502W        W 6566   3.655   3.838   3.120
 2503W        W 6567   6.042   1.222   1.697
 2504W        W 6568  10.367   5.672   3.176
 2505W        W 6569   3.280   0.255   2.135
 2506W        W 6570  10.409   5.748   0.691
 2507W        W 6571   9.444   2.638   3.433
 2508W        W 6572  10.075   3.039   0.367
 2509W        W 6573   1.711   7.062   3.203
 2510W        W 6574   3.619   6.729   0.690
 2511W        W 6575   8.157   7.100   9.715
 2512W        W 6576   4.205   7.038   2.334
 2513W        W 6577   5.640   8.906   9.157
 2514W        W 6578   9.315   3.317   1.398
 2515W        W 6579   8.830   7.146   2.186
 2516W        W 6580   3.525   7.509   0.025
 2517W        W 6581   2.785   6.449   1.362
 2518W        W 6582   3.065   3.148   0.902
 2519W        W 6583   8.593   3.310   0.621
 2520W        W 6584   7.471   1.411   9.158
 2521W        W 6585   0.490   9.427  10.570
 2522W        W 6586   7.383   6.728   1.514
 2523W        W 6587   5.228   3.994   4.278
 2524W        W 6588   1.260   9.428   1.755
 2525W        W 6589   8.033   3.807   9.810
 2526W        W 6590   8.177   7.069   9.155
 2527W        W 6591   1.260   0.488   9.485
 2528W        W 6592   5.591   3.179   1.010
 2529W        W 6593   1.685   2.196   0.944
 2530W        W 6594   8.466   0.172   3.469
 2531W        W 6595   2.857   8.354   1.226
 2532W        W 6596   5.429   9.905   8.584
 2533W        W 6597   0.770   6.124  10.372
 2534W        W 6598   6.694   0.143   3.389
 2535W        W 6599   2.308   6.254   1.260
 2536W        W 6600   8.527   2.168   3.272
 2537W        W 6601   2.241   0.445  10.719
 2538W        W 6602   3.151   2.764   2.789
 2539W        W 6603   0.344   0.190   2.019
 2540W        W 6604   7.483   7.693  10.086
 2541W        W 6605   7.002   8.409   9.078
 2542W        W 6606   7.289   9.517   3.398
 2543W        W 6607   2.388   0.798  10.381
 2544W        W 6608   4.696   8.370   1.920
 2545W        W 6609   5.562   8.116  11.767
 2546W        W 6610   0.191   3.612  11.508
 2547W        W 6611   8.897   9.122  11.087
 2548W        W 6612  10.382   6.507  10.520
 2549W        W 6613   0.268   2.834   8.820
 2550W        W 6614   0.030   1.662   9.899
 2551W        W 6615   1.429  10.040  11.230
 2552W        W 6616   4.482   5.180   1.539
 2553W        W 6617   6.121   2.552   2.162
 2554W        W 6618   3.250   0.904  11.931
 2555W        W 6619   2.140   6.643   9.848
 2556W        W 6620   8.073   4.114   1.826
 2557W        W 6621   8.008   8.183   2.536
 2558W        W 6622   7.070   8.577  10.507
 2559W        W 6623   7.604   2.302   1.696
 2560W        W 6624   9.319   4.043   2.747
 2561W        W 6625   9.973   4.230   0.954
 2562W        W 6626   7.466   9.441   0.435
 2563W        W 6627   9.052   0.774   0.770
 2564W        W 6628   3.076   5.627  10.344
 2565W        W 6629   6.486   5.420   8.610
 2566W        W 6630   5.680   3.025  11.946
 2567W        W 6631   4.262   0.789   1.390
 2568W        W 6632   2.767   9.268  11.263
 2569W        W 6633   3.611   2.731  11.257
 2570W        W 6634   7.187   9.363   0.929
 2571W        W 6635   5.685   1.863   9.974
 2572W        W 6636   3.678   2.129   0.545
 2573W        W 6637   0.006   5.188   9.062
 2574W        W 6638   4.652   9.831  11.269
 2575W        W 6639  10.110   4.993   1.984
 2576W        W 6640   7.468   9.303   1.767
 2577W        W 6641   4.282   7.589  10.789
 2578W        W 6642   3.180   4.583  11.919
 2579W        W 6643  10.210   4.974  10.506
 2580W        W 6644   5.593   5.530  11.236
 2581W        W 6645   0.496   4.614   2.899
 2582W        W 6646   8.119   3.884   0.322
 2583W        W 6647   2.414   8.515   2.513
 2584W        W 6648   1.288   4.207   9.288
 2585W        W 6649   7.967   0.793  11.363
 2586W        W 6650   3.371   0.893   1.919
 2587W        W 6651   5.654   5.002   0.702
 2588W        W 6652   1.970   1.622   1.565
 2589W        W 6653   4.070   5.756   9.178
 2590W        W 6654   6.536   8.439   1.253
 2591W        W 6655   3.671   6.667   8.864
 2592W        W 6656   1.797   1.053   0.171
 2593W        W 6657   5.145   7.351   3.054
 2594W        W 6658   6.133   8.642   2.930
 2595W        W 6659   1.380   5.886   0.259
 2596W        W 6660   3.058   6.516  11.359
 2597W        W 6661   0.873   9.306   8.974
 2598W        W 6662   3.115   9.954  10.260
 2599W        W 6663   2.515   7.204   1.910
 2600W        W 6664   0.390   7.750  10.146
 2601W        W 6665   7.267   3.651   0.774
 2602W        W 6666   2.936   1.713   1.443
 2603W        W 6667   1.956   3.080   3.225
 2604W        W 6668   3.731   1.878  10.750
 2605W        W 6669   9.374   2.886  10.380
 2606W        W 6670   0.850   1.383   1.445
 2607W        W 6671   1.313   3.483   2.009
 2608W        W 6672   3.052   8.812   2.419
 2609W        W 6673  10.285   9.849  10.304
 2610W        W 6674   3.775  10.435  11.710
 2611W        W 6675   1.406   5.195   9.191
 2612W        W 6676   1.322   8.301   0.063
 2613W        W 6677   6.092   4.778  10.176
 2614W        W 6678   1.303   2.324   3.548
 2615W        W 6679   3.459   5.023   3.642
 2616W        W 6680   3.981   5.724   0.169
 2617W        W 6681   6.693   3.666  10.507
 2618W        W 6682   8.461   1.875   9.905
 2619W        W 6683   2.718   6.731   2.749
 2620W        W 6684   4.246   9.866   0.719
 2621W        W 6685   8.189   6.514   1.287
 2622W        W 6686   8.954   0.090   9.519
 2623W        W 6687   5.063   9.393  10.238
 2624W        W 6688   6.510  10.299  11.100
 2625W        W 6689   7.214   7.269  11.792
 2626W        W 6690   6.599   1.245  11.018
 2627W        W 6691   2.024   1.843  11.221
 2628W        W 6692   9.566   5.515  10.775
 2629W        W 6693   0.509   4.645   2.351
 2630W        W 6694   9.414   4.734   1.562
 2631W        W 6695   8.500   4.274   8.987
 2632W        W 6696   8.325   8.783  10.448
 2633W        W 6697   6.747   8.404   9.639
 2634W        W 6698   6.461   8.051   9.424
 2635W        W 6699   2.255   3.401  11.969
 2636W        W 6700   6.466   7.917   9.918
 2637W        W 6701   0.710   5.410   2.825
 2638W        W 6702   2.782   0.744   8.563
 2639W        W 6703   8.606   0.491  10.799
 2640W        W 6704   7.496   6.215  11.501
 2641W        W 6705   1.962   0.831  10.932
 2642W        W 6706   6.099   9.954   3.276
 2643W        W 6707   8.909  10.400   2.180
 2644W        W 6708   6.422   5.515  11.656
 2645W        W 6709   7.055   4.441   9.404
 2646W        W 6710   8.610   5.908   0.459
 2647W        W 6711   5.806   9.921   0.887
 2648W        W 6712   1.947   3.891   2.644
 2649W        W 6713   7.388   2.249  11.237
 2650W        W 6714   5.667   7.848   1.895
 2651W        W 6715  10.292   0.687   8.621
 2652W        W 6716   1.444   8.464   8.673
 2653W        W 6717   9.832   3.852   0.654
 2654W        W 6718   0.874   2.211  11.733
 2655W        W 6719   9.725   0.262  11.726
 2656W        W 6720   2.152   0.809   3.336
 2657W        W 6721   4.827   6.874   1.905
 2658W        W 6722   0.268  10.381   0.313
 2659W        W 6723   1.627   0.746   9.975
 2660W        W 6724   9.241   2.726   0.203
 2661W        W 6725   8.846   0.667   2.101
 2662W        W 6726   4.420   6.617   8.187
 2663W        W 6727   4.020   2.890   9.024
 2664W        W 6728   8.561   3.362  10.769
 2665W        W 6729   9.968   3.532  10.537
 2666W        W 6730   8.903   4.564   9.158
 2667W        W 6731   0.504   9.056   1.645
 2668W        W 6732   5.145   0.412   0.200
 2669W        W 6733   8.201   8.074   8.622
 2670W        W 6734   4.400   1.661   3.616
 2671W        W 6735   7.722   0.314   9.415
 2672W        W 6736   8.940   4.748   3.127
 2673W        W 6737   3.815   5.367  11.864
 2674W        W 6738   2.829   2.105   1.742
 2675W        W 6739   7.564  10.439   8.996
 2676W        W 6740   2.531  10.170   9.353
 2677W        W 6741   7.821   5.305   0.798
 2678W        W 6742   6.550   7.722  11.828
 2679W        W 6743   3.094   4.287   9.261
 2680W        W 6744   4.792   7.341   0.373
 2681W        W 6745   7.915   8.026  11.803
 2682W        W 6746   3.796   3.319  10.539
 2683W        W 6747   2.189   5.707   9.048
 2684W        W 6748   0.016   6.102  11.887
 2685W        W 6749  10.203   0.303   2.580
 2686W        W 6750   3.220   9.110   9.948
 2687W        W 6751   9.440   4.729   1.034
 2688W        W 6752   6.004   1.250   2.225
 2689W        W 6753   8.726   6.688   8.654
 2690W        W 6754   2.848   2.872  10.806
 2691W        W 6755   5.087   8.151  11.895
 2692W        W 6756   9.309   2.862   0.676
 2693W        W 6757   1.382   4.170   1.450
 2694W        W 6758   7.409   9.505  10.265
 2695W        W 6759   4.079   0.588  10.365
 2696W        W 6760   4.230   1.890   8.880
 2697W        W 6761   8.969   5.618   2.953
 2698W        W 6762   4.500   2.837  10.582
 2699W        W 6763   2.827   4.586   2.031
 2700W        W 6764   7.658   8.492  11.147
 2701W        W 6765  10.271   2.380   1.994
 2702W        W 6766  10.261  10.417   0.339
 2703W        W 6767  10.167   2.673  11.511
 2704W        W 6768   7.869   2.261   9.069
 2705W        W 6769   8.095   0.913  11.888
 2706W        W 6770   4.100   5.140   2.804
 2707W        W 6771   3.272   4.668   8.455
 2708W        W 6772   8.508  10.227  10.430
 2709W        W 6773   8.125   5.689   9.786
 2710W        W 6774   3.193   3.958   3.440
 2711W        W 6775   9.515   6.225   1.234
 2712W        W 6776   5.005   1.260   9.709
 2713W        W 6777   3.045   8.282   3.142
 2714W        W 6778   0.412  10.006  11.385
 2715W        W 6779   0.712   4.797   9.255
 2716W        W 6780   1.791   4.661   3.069
 2717W        W 6781   8.363  10.118   3.577
 2718W        W 6782   2.448   8.204  11.246
 2719W        W 6783   7.142  10.462   1.754
 2720W        W 6784   2.870   1.856  10.996
 2721W        W 6785   1.169   5.097   0.887
 2722W        W 6786   6.395   5.280  10.826
 2723W        W 6787   5.650   6.530   2.241
 2724W        W 6788   4.538   1.473  10.430
 2725W        W 6789   2.436   1.218   2.620
 2726W        W 6790   4.135   7.404   9.913
 2727W        W 6791   5.452   1.313   8.944
 2728W        W 6792   3.717   6.014   2.212
 2729W        W 6793   6.121   0.804   1.981
 2730W        W 6794   0.279   6.347   9.751
 2731W        W 6795   6.174   8.512  11.407
 2732W        W 6796  10.317   8.972   1.180
 2733W        W 6797   4.212   2.493   3.460
 2734W        W 6798   7.655   1.176  10.092
 2735W        W 6799  10.188   2.629   0.690
 2736W        W 6800   3.662   6.517   1.182
 2737W        W 6801   6.239   6.933   2.826
 2738W        W 6802   9.015   1.296   0.746
 2739W        W 6803   9.101   7.920   2.062
 2740W        W 6804   2.794   9.003   1.682
 2741W        W 6805   2.642   1.481  11.811
 2742W        W 6806   0.304   9.459   1.989
 2743W        W 6807   1.303   6.847   0.438
 2744W        W 6808   4.771   2.139   3.599
 2745W        W 6809  10.234   3.063   1.214
 2746W        W 6810   5.509   3.793   9.968
 2747W        W 6811   7.823   4.231  10.038
 2748W        W 6812   4.872   1.677  11.471
 2749W        W 6813   6.468  10.335   0.405
 2750W        W 6814   2.531   1.881   0.968
 2751W        W 6815   7.015   7.898   8.854
 2752W        W 6816   0.305  10.206  10.942
 2753W        W 6817  10.455   6.108   9.385
 2754W        W 6818   3.786   7.931  11.870
 2755W        W 6819   1.203   0.893   0.825
 2756W        W 6820   5.211   1.363   3.382
 2757W        W 6821   2.289   5.239   1.407
 2758W        W 6822   2.738   4.993   1.348
 2759W        W 6823   0.790   9.569   9.403
 2760W        W 6824   3.427   4.422   4.284
 2761W        W 6825   4.053   9.299  10.962
 2762W        W 6826   3.034   7.129  10.876
 2763W        W 6827   0.791   2.080   3.642
 2764W        W 6828   9.615   5.108   9.570
 2765W        W 6829   8.609   3.795   0.391
 2766W        W 6830   0.414  10.481   9.263
 2767W        W 6831   4.543   5.686  10.051
 2768W        W 6832   3.133  10.463   8.712
 2769W        W 6833   7.091   8.824   3.198
 2770W        W 6834   7.876   2.803   9.514
 2771W        W 6835   9.311   9.070  11.692
 2772W        W 6836   5.605   0.927   9.731
 2773W        W 6837   8.266   4.193  11.771
 2774W        W 6838   8.828   5.525   9.144
 2775W        W 6839   5.004   3.517   4.259
 2776W        W 6840   4.389   4.301  11.334
 2777W        W 6841   9.501   5.934  11.802
 2778W        W 6842   2.753   4.389   9.770
 2779W        W 6843   2.187   6.067   3.208
 2780W        W 6844   5.147   1.077   1.409
 2781W        W 6845   7.771  10.399   9.852
 2782W        W 6846   4.659   2.205   8.843
 2783W        W 6847   0.410   0.012   9.787
 2784W        W 6848   8.488   0.808   2.830
 2785W        W 6849   6.547   7.408  11.418
 2786W        W 6850   4.374   8.772  11.647
 2787W        W 6851   3.782   9.948   0.950
 2788W        W 6852   8.411   2.645   2.019
 2789W        W 6853   9.569   8.657   1.614
 2790W        W 6854   2.084   9.399  10.506
 2791W        W 6855   0.052   4.533   2.584
 2792W        W 6856   8.442   4.669   3.262
 2793W        W 6857   8.555   9.655   8.521
 2794W        W 6858   2.680   7.850  10.825
 2795W        W 6859   4.424   1.993   1.000
 2796W        W 6860   6.035   7.680   2.681
 2797W        W 6861   1.697   6.350   9.865
 2798W        W 6862   7.979   0.341   1.101
 2799W        W 6863   1.830   0.487   1.217
 2800W        W 6864   8.062   1.465   9.817
 2801W        W 6865   7.434   2.651  10.011
 2802W        W 6866   8.914   3.975   2.435
 2803W        W 6867   3.163   0.232   3.220
 2804W        W 6868   9.962   5.660  11.057
 2805W        W 6869   2.873   5.656   3.458
 2806W        W 6870   8.792   4.220   9.996
 2807W        W 6871   9.892   7.075  11.125
 2808W        W 6872   8.392   5.829   2.654
 2809W        W 6873   8.374   3.522   2.338
 2810W        W 6874   4.593   2.753   9.594
 2811W        W 6875   4.499   6.142   9.846
 2812W        W 6876   0.410   9.790   0.765
 2813W        W 6877   0.504   4.632  11.052
 2814W        W 6878   1.747   4.609   1.483
 2815W        W 6879   5.275   8.402   9.868
 2816W        W 6880   5.489   4.631   1.735
 2817W        W 6881   0.968   4.470   8.963
 2818W        W 6882   2.826   8.593   8.859
 2819W        W 6883   0.982   0.986  10.714
 2820W        W 6884   0.342   7.505   9.685
 2821W        W 6885   4.775   4.588   2.984
 2822W        W 6886   5.109   5.918   1.829
 2823W        W 6887   8.421   4.249  10.333
 2824W        W 6888   6.983   9.402   1.957
 2825W        W 6889   2.261   6.489   3.505
 2826W        W 6890   5.251   1.399  11.177
 2827W        W 6891   7.412   4.196   0.491
 2828W        W 6892   0.325   8.861   2.642
 2829W        W 6893   2.461   0.252   1.020
 2830W        W 6894   7.858   1.369   2.570
 2831W        W 6895   8.212   6.003   2.204
 2832W        W 6896  10.218   8.882  10.272
 2833W        W 6897   1.371   8.812  10.910
 2834W        W 6898   4.254   1.250  10.967
 2835W        W 6899   1.879   8.439   1.212
 2836W        W 6900   3.930   8.801   9.510
 2837W        W 6901   5.229   2.355   3.694
 2838W        W 6902   0.827   9.025   1.147
 2839W        W 6903   7.404   1.818   1.856
 2840W        W 6904   7.768   9.516   8.792
 2841W        W 6905   5.961   0.480   8.638
 2842W        W 6906   8.030   3.829  11.470
 2843W        W 6907   1.318   4.464  10.954
 2844W        W 6908   0.416   4.975   0.683
 2845W        W 6909   8.903   5.799   0.064
 2846W        W 6910   6.990   1.305   8.977
 2847W        W 6911   7.801   9.860  11.157
 2848W        W 6912   6.855   8.529   0.409
 2849W        W 6913   5.159   0.845   9.971
 2850W        W 6914   5.591   5.015  10.341
 2851W        W 6915   3.645   8.576   9.932
 2852W        W 6916   8.787  10.368   1.676
 2853W        W 6917   2.570   3.570   0.328
 2854W        W 6918   8.502   1.492   9.542
 2855W        W 6919   5.030   5.692  10.911
 2856W        W 6920   8.584   9.116   1.011
 2857W        W 6921   3.355   2.649  11.693
 2858W        W 6922   0.118   7.413   2.396
 2859W        W 6923   5.685   2.152  10.420
 2860W        W 6924   5.917   6.070   9.026
 2861W        W 6925   9.477   6.633   9.710
 2862W        W 6926   1.165   4.701   9.947
 2863W        W 6927   9.381   2.301   2.511
 2864W        W 6928   4.697   4.656   8.913
 2865W        W 6929   4.209   2.752   2.677
 2866W        W 6930   3.123   5.318   1.391
 2867W        W 6931   0.897   7.017   2.243
 2868W        W 6932   8.420   0.270   0.241
 2869W        W 6933   1.742   1.242  10.737
 2870W        W 6934  10.416   8.102   0.529
 2871W        W 6935   7.207  10.008   9.720
 2872W        W 6936   3.561   2.863  10.525
 2873W        W 6937   4.133   4.755   4.170
 2874W        W 6938   3.936  10.316  10.342
 2875W        W 6939   0.456   9.972   9.324
 2876W        W 6940   6.089  10.425   2.180
 2877W        W 6941   6.567   8.586  10.593
 2878W        W 6942   2.459   0.571   8.964
 2879W        W 6943   5.622   6.005   1.977
 2880W        W 6944   7.590   4.026   1.942
 2881W        W 6945   9.483   8.565  11.813
 2882W        W 6946   1.902   0.330   9.816
 2883W        W 6947   8.829   7.538   1.843
 2884W        W 6948   7.534   4.176   3.348
 2885W        W 6949   3.239   7.866   9.042
 2886W        W 6950   3.702   8.704   0.400
 2887W        W 6951   1.329   2.329   8.688
 2888W        W 6952   1.214   2.421   0.945
 2889W        W 6953   3.752   9.066   9.905
 2890W        W 6954   0.352   3.245   0.305
 2891W        W 6955   4.367   2.631  11.730
 2892W        W 6956   0.256   7.415   9.188
 2893W        W 6957   8.546   7.505  10.627
 2894W        W 6958   5.264   6.171   2.290
 2895W        W 6959  10.392   0.428   0.660
 2896W        W 6960   1.355   1.210   9.964
 2897W        W 6961   6.947   5.621   8.185
 2898W        W 6962   4.209   8.271  11.712
 2899W        W 6963  10.365   5.436   2.167
 2900W        W 6964   4.462   6.547   8.970
 2901W        W 6965   4.235   4.908   9.095
 2902W        W 6966   1.383   8.501   1.277
 2903W        W 6967   3.461   5.368  11.502
 2904W        W 6968   3.244   3.327  10.446
 2905W        W 6969   3.648   4.036   9.918
 2906W        W 6970   1.788   9.871   1.705
 2907W        W 6971   4.019   2.097   9.352
 2908W        W 6972   9.360   7.523  10.105
 2909W        W 6973   7.571   0.566   3.571
 2910W        W 6974   2.042   9.612   2.358
 2911W        W 6975   0.618   5.374   0.981
 2912W        W 6976   0.377   3.329   8.977
 2913W        W 6977   6.657   6.033   8.284
 2914W        W 6978   2.439   1.678  10.794
 2915W        W 6979   9.224   7.528   0.815
 2916W        W 6980   8.964   1.201  11.881
 2917W        W 6981   6.046   4.670   9.545
 2918W        W 6982   3.114   5.672   9.403
 2919W        W 6983   6.737   6.419   0.418
 2920W        W 6984  10.484   0.739   9.087
 2921W        W 6985   5.512   1.805   3.012
 2922W        W 6986   3.773   5.474   9.804
 2923W        W 6987   6.957   9.335   9.509
 2924W        W 6988   5.796   7.419   8.488
 2925W        W 6989   8.458   9.372   1.451
 2926W        W 6990   2.125   8.874  10.539
 2927W        W 6991   1.702   9.386   1.485
 2928W        W 6992   9.886   5.919   3.254
 2929W        W 6993   1.057   9.425   3.315
 2930W        W 6994   6.469   4.202   3.727
 2931W        W 6995   6.511   8.913  10.993
 2932W        W 6996   6.778   3.619   0.855
 2933W        W 6997   1.752   3.567  11.935
 2934W        W 6998   1.507   8.052   1.017
 2935W        W 6999   0.769   5.690   1.962
 2936W        W 7000   1.696   1.792   2.832
 2937W        W 7001   7.242   6.728   9.353
 2938W        W 7002   2.173   5.687  11.382
 2939W        W 7003   4.771   9.950  10.784
 2940W        W 7004   7.806   5.094  10.360
 2941W        W 7005   9.752   5.024   0.424
 2942W        W 7006   3.421   8.832   9.535
 2943W        W 7007  10.413   8.862  11.732
 2944W        W 7008   6.451   5.598   9.911
 2945W        W 7009   1.164   4.051   2.812
 2946W        W 7010   9.486   9.130   1.828
 2947W        W 7011   1.857  10.249   9.234
 2948W        W 7012   8.369   4.662  11.951
 2949W        W 7013   4.057  10.461   0.157
 2950W        W 7014   2.576   1.614   1.811
 2951W        W 7015   0.304   9.096   9.829
 2952W        W 7016   8.493   1.220   0.066
 2953W        W 7017   5.065  10.387   0.905
 2954W        W 7018   7.459   0.315   9.848
 2955W        W 7019   6.044   9.532   2.998
 2956W        W 7020   8.785   4.523  11.009
 2957W        W 7021   8.505   4.712  10.050
 2958W        W 7022   0.976   2.612   0.057
 2959W        W 7023   6.682   2.412   1.316
 2960W        W 7024   3.840   2.211   0.057
 2961W        W 7025   7.056   4.658   2.428
 2962W        W 7026   5.998   6.163  10.893
 2963W        W 7027   2.487   3.065   3.337
 2964W        W 7028   6.612   7.272   9.108
 2965W        W 7029  10.265   8.780   0.702
 2966W        W 7030   4.120   0.010  11.316
 2967W        W 7031   2.648  10.426   0.671
 2968W        W 7032   7.914   6.369   8.573
 2969W        W 7033   2.708   9.042   2.724
 2970W        W 7034   0.705   2.190   9.530
 2971W        W 7035   5.999   3.751   1.820
 2972W        W 7036   2.143   2.870  10.405
 2973W        W 7037   7.635   6.032   7.817
 2974W        W 7038  10.439   3.875   3.252
 2975W        W 7039   1.361   1.200  11.048
 2976W        W 7040   2.619   8.384  11.733
 2977W        W 7041   2.873   4.170   2.344
 2978W        W 7042   1.368   7.189   2.293
 2979W        W 7043   9.518   4.237   9.016
 2980W        W 7044   9.035   7.102   8.577
 2981W        W 7045   9.929   5.729   0.944
 2982W        W 7046   7.552   6.794   2.401
 2983W        W 7047   7.119   5.199   7.932
 2984W        W 7048   4.099   3.643   9.356
 2985W        W 7049   2.180   7.949   2.981
 2986W        W 7050   8.573   0.208   8.894
 2987W        W 7051   0.303   8.432   2.240
 2988W        W 7052   9.596   8.094  11.415
 2989W        W 7053   2.816   9.543  10.329
 2990W        W 7054   3.855   2.671  11.767
 2991W        W 7055   8.871   7.299   2.698
 2992W        W 7056   2.348   2.547   0.188
 2993W        W 7057   8.281   8.752   3.242
 2994W        W 7058   1.784   3.312  10.535
 2995W        W 7059  10.378   0.583  10.984
 2996W        W 7060   1.136   0.692  10.001
 2997W        W 7061   9.433   1.301  11.316
 2998W        W 7062   9.509   6.088   9.472
 2999W        W 7063   6.123   4.232   1.713
 3000W        W 7064   5.443   7.095   8.232
 3001W        W 7065   5.586   9.339   2.829
 3002W        W 7066   0.901   8.161   1.695
 3003W        W 7067   4.626   7.511   0.821
 3004W        W 7068   4.122   3.801  10.382
 3005W        W 7069   0.262   0.725   0.457
 3006W        W 7070   3.669   7.465   1.360
 3007W        W 7071   3.837   5.192   8.076
 3008W        W 7072   1.242   8.540   1.773
 3009W        W 7073   4.769   2.243   1.725
 3010W        W 7074   6.525   2.230  10.977
 3011W        W 7075   8.957   8.207   2.475
 3012W        W 7076   8.995   3.832   3.283
 3013W        W 7077  10.423   3.787   9.356
 3014W        W 7078   6.607   8.181   0.771
 3015W        W 7079   8.868   9.476   0.278
 3016W        W 7080   5.660   8.360   9.007
 3017W        W 7081   2.220   3.742   9.282
 3018W        W 7082   9.132   6.513  10.061
 3019W        W 7083   3.355   3.166   9.576
 3020W        W 7084   5.257   1.807   9.350
 3021W        W 7085   3.993   8.025  10.756
 3022W        W 7086   6.909   4.250  10.869
 3023W        W 7087   0.888   8.024   3.363
 3024W        W 7088   8.336   9.736  10.420
 3025W        W 7089   5.003   7.117  10.468
 3026W        W 7090   0.958   0.928   0.021
 3027W        W 7091   0.893  10.438   9.069
 3028W        W 7092   7.814   4.019   8.972
 3029W        W 7093   3.712   5.474   3.958
 3030W        W 7094   6.530   2.639  11.396
 3031W        W 7095   8.697   7.628   3.591
 3032W        W 7096   6.928   1.780   0.220
 3033W        W 7097   1.243   3.964  10.922
 3034W        W 7098   4.075   3.060   8.490
 3035W        W 7099  10.387   9.737   1.913
 3036W        W 7100   3.058   2.624   0.094
 3037W        W 7101   0.489   0.939   3.536
 3038W        W 7102   0.033   2.644   2.815
 3039W        W 7103   7.594   2.270   2.210
 3040W        W 7104   1.269   8.092   3.027
 3041W        W 7105   9.444   7.333  11.100
 3042W        W 7106   1.754   4.376   3.512
 3043W        W 7107   3.148   1.791   2.471
 3044W        W 7108   4.402   2.003  11.400
 3045W        W 7109   4.508   1.314   8.910
 3046W        W 7110   2.205   0.670   0.898
 3047W        W 7111   9.965   5.849  10.081
 3048W        W 7112   9.386   3.798   9.342
 3049W        W 7113   3.446   4.302   3.151
 3050W        W 7114   6.650   1.128   3.138
 3051W        W 7115   9.352   2.005   9.369
 3052W        W 7116   5.653   0.326   0.478
 3053W        W 7117   8.384   7.353   0.342
 3054W        W 7118   3.687   4.639   3.911
 3055W        W 7119   0.831   6.162   1.779
 3056W        W 7120   0.213   5.567   8.751
 3057W        W 7121   9.027   6.229   0.378
 3058W        W 7122   8.731   3.534  10.241
 3059W        W 7123   8.573   6.927  11.275
 3060W        W 7124   9.874   6.609  11.939
 3061W        W 7125   3.830   4.638   2.929
 3062W        W 7126   4.949   9.024   0.362
 3063W        W 7127   6.727  10.048   9.881
 3064W        W 7128   6.237   5.888   8.651
 3065W        W 7129   8.991   7.469   1.348
 3066W        W 7130   5.563   7.956   0.803
 3067W        W 7131   5.308   3.103  10.385
 3068W        W 7132   5.956   1.388   0.698
 3069W        W 7133   5.786   3.640   0.942
 3070W        W 7134   1.386   6.354   0.440
 3071W        W 7135   3.643   3.109  11.573
 3072W        W 7136   0.561   6.397   2.914
 3073W        W 7137   4.639   6.975   0.936
 3074W        W 7138   0.832   6.902  11.848
 3075W        W 7139   9.436   3.783   0.957
 3076W        W 7140   7.524   1.169   2.933
 3077W        W 7141   7.024   2.148   1.029
 3078W        W 7142   8.906   4.030  10.993
 3079W        W 7143   3.588   7.602   8.757
 3080W        W 7144   3.259   0.753   9.272
 3081W        W 7145   3.684   4.162   1.081
 3082W        W 7146  10.339   7.457   1.731
 3083W        W 7147   6.054   9.938   1.317
 3084W        W 7148  10.436  10.338   9.082
 3085W        W 7149   8.619   8.081   0.589
 3086W        W 7150   7.585   7.577   1.017
 3087W        W 7151   5.344   7.500   8.744
 3088W        W 7152   2.225   1.435   2.174
 3089W        W 7153   6.449   4.058  10.759
 3090W        W 7154   9.933   8.428  10.407
 3091W        W 7155   1.612   4.286   2.723
 3092W        W 7156   2.386   8.144   1.900
 3093W        W 7157   8.369   3.131  11.807
 3094W        W 7158   6.729  10.233  11.948
 3095W        W 7159   9.934   3.526  10.029
 3096W        W 7160   5.253   4.529   1.276
 3097W        W 7161   3.024   1.813   3.566
 3098W        W 7162   0.844   4.215   8.533
 3099W        W 7163   7.181   8.073   3.546
 3100W        W 7164   6.834   8.336   3.193
 3101W        W 7165   5.540   6.376  10.734
 3102W        W 7166   2.118   8.950   3.221
 3103W        W 7167   6.052   8.543   1.387
 3104W        W 7168   1.861   4.538  11.989
 3105W        W 7169   9.969   0.396   9.723
 3106W        W 7170   6.104   8.156   2.800
 3107W        W 7171   3.893   5.932   4.103
 3108W        W 7172   5.063   5.143   9.595
 3109W        W 7173   7.003   9.006  10.794
 3110W        W 7174   8.914   1.713  10.075
 3111W        W 7175   7.320   0.957   1.566
 3112W        W 7176   9.855   4.814   9.088
 3113W        W 7177   2.853   2.723   3.242
 3114W        W 7178   7.898   2.468  10.063
 3115W        W 7179   4.691   1.073  10.709
 3116W        W 7180   7.128   5.690  10.502
 3117W        W 7181   2.736   3.147   2.477
 3118W        W 7182   6.008   5.242   9.957
 3119W        W 7183   1.343   6.686   2.511
 3120W        W 7184   7.793   5.200   3.208
 3121W        W 7185   9.759   1.727   9.473
 3122W        W 7186   6.530   3.148  11.214
 3123W        W 7187   7.030   0.936   3.469
 3124W        W 7188   5.982   0.028   0.237
 3125W        W 7189   7.422   8.522   0.385
 3126W        W 7190   8.460   4.815   8.944
 3127W        W 7191   8.604   5.749   1.278
 3128W        W 7192   8.922   6.457   2.447
 3129W        W 7193   7.460   2.687   2.479
 3130W        W 7194   3.730   5.098  11.133
 3131W        W 7195   3.005   9.388  10.796
 3132W        W 7196   4.038   0.433   9.224
 3133W        W 7197   4.013   1.836   2.302
 3134W        W 7198   8.142   0.538   1.954
 3135W        W 7199   8.146   5.561  10.289
 3136W        W 7200   3.788  10.376   3.231
 3137W        W 7201   5.118   9.003   9.449
 3138W        W 7202   0.180   3.095  11.539
 3139W        W 7203   8.828   5.070  10.892
 3140W        W 7204   0.892   9.984   0.672
 3141W        W 7205   5.449   5.128   3.189
 3142W        W 7206   7.864   0.781   9.237
 3143W        W 7207   9.556   1.202   9.785
 3144W        W 7208   2.284   4.342   9.077
 3145W        W 7209   9.303   8.047  11.858
 3146W        W 7210   5.131   9.960   3.041
 3147W        W 7211   5.578   5.360  10.750
 3148W        W 7212   2.258   6.595   2.537
 3149W        W 7213   5.686   2.145  11.485
 3150W        W 7214   5.928   1.398   9.094
 3151W        W 7215   7.676   5.157   8.449
 3152W        W 7216   9.854   0.207   3.406
 3153W        W 7217   0.432   4.233   8.820
 3154W        W 7218  10.370   2.311  10.373
 3155W        W 7219   4.818   6.930   3.000
 3156W        W 7220   9.441   1.007  10.889
 3157W        W 7221   9.904   9.376   1.948
 3158W        W 7222   3.688   2.647   8.680
 3159W        W 7223   7.904   6.832   8.773
 3160W        W 7224   4.668   5.264  11.297
 3161W        W 7225   1.879   7.554  11.654
 3162W        W 7226   4.595   7.294   3.307
 3163W        W 7227   6.230   6.420  11.880
 3164W        W 7228   8.500   5.552   2.202
 3165W        W 7229   0.796   0.321  11.315
 3166W        W 7230   5.176   2.313  11.504
 3167W        W 7231   5.008   8.453   3.497
 3168W        W 7232   2.645   0.835   9.940
 3169W        W 7233   8.743   7.685   2.363
 3170W        W 7234   1.043   1.914   9.902
 3171W        W 7235   8.420  10.332   9.210
 3172W        W 7236   6.053   3.772   2.702
 3173W        W 7237   9.820   9.969   2.602
 3174W        W 7238   7.441   9.780   2.962
 3175W        W 7239   6.899   5.191  10.729
 3176W        W 7240   9.442   3.678   3.078
 3177W        W 7241   4.174   7.251  10.407
 3178W        W 7242   8.539   7.819  10.240
 3179W        W 7243   9.343   1.088   3.164
 3180W        W 7244   1.377   2.759   9.965
 3181W        W 7245   2.171   3.974  10.812
 3182W        W 7246   2.216   5.440   0.361
 3183W        W 7247   4.772   2.750   1.457
 3184W        W 7248   6.199   5.580   9.474
 3185W        W 7249   6.922   0.237  11.772
 3186W        W 7250   0.614   6.341   8.522
 3187W        W 7251   1.813   3.407   9.327
 3188W        W 7252   5.130   6.115   9.605
 3189W        W 7253   6.413   5.108  11.317
 3190W        W 7254   2.335   5.548  10.900
 3191W        W 7255   8.688   5.527  10.576
 3192W        W 7256   0.755   7.444  11.054
 3193W        W 7257   4.535   1.750   0.549
 3194W        W 7258   1.946   2.739   1.561
 3195W        W 7259   0.736   5.211   3.292
 3196W        W 7260   8.613   7.579  11.949
 3197W        W 7261   9.653   1.258   3.549
 3198W        W 7262   2.423   9.123   0.280
 3199W        W 7263   6.005   6.573   8.977
 3200W        W 7264   4.695   2.438  11.396
 3201W        W 7265   2.300   9.146  10.945
 3202W        W 7266   9.068   0.253  10.969
 3203W        W 7267   1.038   1.247   0.499
 3204W        W 7268   7.179   6.089   8.081
 3205W        W 7269   0.514   0.324   3.228
 3206W        W 7270   9.136   8.403   1.502
 3207W        W 7271   7.050   5.846   3.648
 3208W        W 7272   8.338   7.078  10.238
 3209W        W 7273   1.421   3.534  11.116
 3210W        W 7274   3.724   3.586  11.428
 3211W        W 7275   8.160   1.895   9.499
 3212W        W 7276   1.229   2.370   2.297
 3213W        W 7277   5.246   2.409   1.638
 3214W        W 7278   1.220   1.973   2.655
 3215W        W 7279   8.896   9.839   9.742
 3216W        W 7280   9.874  10.455   2.396
 3217W        W 7281   3.413   9.894   0.515
 3218W        W 7282   4.529   5.550  10.879
 3219W        W 7283   3.826   4.380   0.603
 3220W        W 7284   5.312   2.851   0.712
 3221W        W 7285   7.915   7.933   9.031
 3222W        W 7286   0.187   6.445   0.223
 3223W        W 7287   5.228   6.709  10.987
 3224W        W 7288   3.494   5.518   4.416
 3225W        W 7289   7.836   4.413   1.011
 3226W        W 7290   4.743   5.570   3.482
 3227W        W 7291   9.839   3.663   2.222
 3228W        W 7292   8.000   1.314  11.359
 3229W        W 7293   2.174   5.226   2.511
 3230W        W 7294   5.791   0.351   0.968
 3231W        W 7295   0.249   9.078   3.130
 3232W        W 7296   0.932   8.268   9.335
 3233W        W 7297   3.851   8.296   2.793
 3234W        W 7298   2.748  10.474   2.713
 3235W        W 7299   8.637   5.039   1.775
 3236W        W 7300   3.574   3.062   0.952
 3237W        W 7301  10.012   0.776   2.694
 3238W        W 7302   6.136   4.336  10.483
 3239W        W 7303   8.465   4.117   3.264
 3240W        W 7304  10.494  10.402   8.553
 3241W        W 7305   7.363   3.527   9.500
 3242W        W 7306   9.277   8.079   1.135
 3243W        W 7307   5.553   5.236   8.970
 3244W        W 7308   4.184   8.521  10.705
 3245W        W 7309   1.944   0.227   0.792
 3246W        W 7310   1.008   0.784   2.683
 3247W        W 7311   2.689   0.218   8.664
 3248W        W 7312   8.417   9.067   9.782
 3249W        W 7313   9.945   7.557   0.254
 3250W        W 7314  10.302   9.342  11.727
 3251W        W 7315   0.259   4.711   9.036
 3252W        W 7316   3.769   9.433   1.141
 3253W        W 7317   4.727  10.342  11.098
 3254W        W 7318   2.696   6.005   1.056
 3255W        W 7319   2.428   0.372   0.523
 3256W        W 7320   9.346   0.855  10.388
 3257W        W 7321   5.994   9.537  11.509
 3258W        W 7322   0.739   1.463  10.778
 3259W        W 7323   6.886   7.213  10.470
 3260W        W 7324   6.161   7.492   9.824
 3261W        W 7325  10.062   1.787   0.780
 3262W        W 7326   6.234   3.938   9.233
 3263W        W 7327   8.526   6.677   9.850
 3264W        W 7328   2.150   0.579   2.348
 3265W        W 7329   4.076   8.409   3.270
 3266W        W 7330   4.152   5.629   3.711
 3267W        W 7331   1.302   3.251   9.269
 3268W        W 7332   8.897   3.149   2.712
 3269W        W 7333   9.189   2.268  11.299
 3270W        W 7334   8.963   5.444   1.503
 3271W        W 7335   6.220   4.461  11.040
 3272W        W 7336   0.425   3.230  10.814
 3273W        W 7337   5.607   6.205   3.789
 3274W        W 7338   1.705   8.946   2.810
 3275W        W 7339   8.006   5.582   2.898
 3276W        W 7340   5.662   1.207  11.445
 3277W        W 7341   2.915   5.437   2.466
 3278W        W 7342   0.506  10.240   2.447
 3279W        W 7343   1.917   8.415   9.083
 3280W        W 7344   3.112   6.152  10.979
 3281W        W 7345   3.249   5.322   9.769
 3282W        W 7346   7.825   3.654   1.615
 3283W        W 7347   6.778  10.075   0.801
 3284W        W 7348   1.175   0.507  10.513
 3285W        W 7349   0.246  10.097  10.062
 3286W        W 7350   0.962  10.357   2.759
 3287W        W 7351   3.310   8.939  10.795
 3288W        W 7352   8.133   8.922   8.916
 3289W        W 7353  10.360   8.362  11.753
 3290W        W 7354   2.153   2.764  11.376
 3291W        W 7355   6.378   0.896   1.250
 3292W        W 7356   0.774   9.464   1.407
 3293W        W 7357   6.605   8.231   8.789
 3294W        W 7358   7.538   8.665   9.751
 3295W        W 7359   6.243  10.109   0.012
 3296W        W 7360   9.544   1.936   0.973
 3297W        W 7361   0.850   6.510   1.390
 3298W        W 7362  10.377   2.411  10.864
 3299W        W 7363   6.949  10.370   2.223
 3300W        W 7364   1.867   2.362   1.917
 3301W        W 7365   1.974   4.595   9.905
 3302W        W 7366   5.174   9.453   3.177
 3303W        W 7367   5.432   0.945   3.565
 3304W        W 7368   8.957   3.216   9.845
 3305W        W 7369  10.189   4.908   0.217
 3306W        W 7370   3.880   7.793   2.731
 3307W        W 7371   3.828   8.229   0.443
 3308W        W 7372   8.715   9.933   9.290
 3309W        W 7373   4.622   6.882   1.437
 3310W        W 7374   3.801   5.942  10.508
 3311W        W 7375   9.283   4.432  11.023
 3312W        W 7376   8.323   7.570   9.862
 3313W        W 7377   9.883   4.619   1.277
 3314W        W 7378   9.481   7.629   1.255
 3315W        W 7379   3.181   4.017   0.870
 3316W        W 7380   2.895   4.389   0.545
 3317W        W 7381   0.483   2.815  11.126
 3318W        W 7382   8.815   2.594  11.587
 3319W        W 7383   8.170   6.015   0.189
 3320W        W 7384   3.401   0.279  11.688
 3321W        W 7385   6.464   7.941   1.245
 3322W        W 7386   0.783   3.502   1.535
 3323W        W 7387   9.509   6.669  11.173
 3324W        W 7388   6.490   5.674   0.630
 3325W        W 7389   7.457   9.812   0.054
 3326W        W 7390   4.293   0.844   2.052
 3327W        W 7391   3.681   2.297  11.031
 3328W        W 7392   7.808   4.827   0.644
 3329W        W 7393  10.312   1.330   0.793
 3330W        W 7394   4.621   3.215   1.312
 3331W        W 7395   8.130   0.932   8.833
 3332W        W 7396   2.006   1.736   3.465
 3333W        W 7397   5.938   4.055  10.908
 3334W        W 7398   4.018   8.464   8.685
 3335W        W 7399   8.780   4.293  11.892
 3336W        W 7400   6.019   5.128   8.754
 3337W        W 7401   1.525   9.458   2.578
 3338W        W 7402   2.207   8.934   2.715
 3339W        W 7403   8.058   8.401  10.235
 3340W        W 7404   1.025   0.225   3.150
 3341W        W 7405   7.307   4.000   9.970
 3342W        W 7406   1.701   2.130   3.224
 3343W        W 7407   0.920   5.267   9.289
 3344W        W 7408   8.147   5.061   1.606
 3345W        W 7409   2.553   9.923   3.341
 3346W        W 7410   5.457   4.823  11.831
 3347W        W 7411  10.331   9.826   3.315
 3348W        W 7412  10.470   6.123   1.488
 3349W        W 7413   4.264   7.496   2.554
 3350W        W 7414   6.621   9.760   2.123
 3351W        W 7415  10.414   1.421  11.884
 3352W        W 7416   8.968   7.056   1.676
 3353W        W 7417   0.251   9.461   1.472
 3354W        W 7418   7.871   3.592   2.130
 3355W        W 7419   2.968   5.112   0.001
 3356W        W 7420   5.470   6.563   8.928
 3357W        W 7421   6.036   2.231   8.757
 3358W        W 7422   3.839   7.118   8.605
 3359W        W 7423   3.823   8.901  10.738
 3360W        W 7424   8.120   8.969   0.879
 3361W        W 7425   5.202   2.658  10.095
 3362W        W 7426   0.984   9.490  10.564
 3363W        W 7427   3.146   1.368  11.796
 3364W        W 7428   7.468   5.580   8.102
 3365W        W 7429   6.764  10.472  10.158
 3366W        W 7430   6.719   5.046   2.276
 3367W        W 7431   0.301   0.279   2.509
 3368W        W 7432   6.898   9.425  11.053
 3369W        W 7433   5.990   8.963   2.225
 3370W        W 7434  10.023   4.350   9.218
 3371W        W 7435   9.155   6.455   2.908
 3372W        W 7436   7.115   1.912  10.469
 3373W        W 7437   5.948   5.127  11.028
 3374W        W 7438   2.687   5.521   1.229
 3375W        W 7439   6.949   2.516  11.061
 3376W        W 7440   9.515   1.156   1.808
 3377W        W 7441   1.761   0.343  10.881
 3378W        W 7442   4.949  10.069  11.600
 3379W        W 7443   6.477   3.095   9.811
 3380W        W 7444   1.192   3.959   0.574
 3381W        W 7445   0.442   6.246   1.157
 3382W        W 7446   5.143   5.736   0.757
 3383W        W 7447   2.572   8.633  10.483
 3384W        W 7448   9.565   9.551   2.898
 3385W        W 7449   1.328   7.041  11.955
 3386W        W 7450   2.319   8.071   8.701
 3387W        W 7451   6.438   8.856   1.962
 3388W        W 7452   9.348   8.655   0.570
 3389W        W 7453  10.337   5.033   2.910
 3390W        W 7454   4.697   7.766   3.198
 3391W        W 7455   7.552   8.066  11.435
 3392W        W 7456   4.715   7.047  11.955
 3393W        W 7457   3.349   2.172   0.137
 3394W        W 7458   4.661   9.407   2.452
 3395W        W 7459   4.978   9.067   0.902
 3396W        W 7460   1.116  10.484   1.848
 3397W        W 7461   6.331   9.283  11.799
 3398W        W 7462   4.605   0.820   8.143
 3399W        W 7463   8.105   6.719  11.045
 3400W        W 7464  10.344   2.310   3.519
 3401W        W 7465   8.728   8.067   8.841
 3402W        W 7466   4.676   3.626  10.624
 3403W        W 7467   7.234   4.737   9.006
 3404W        W 7468   4.144   8.145   1.150
 3405W        W 7469   3.532   5.604   1.465
 3406W        W 7470   8.453   2.166   2.766
 3407W        W 7471  10.349   1.807   3.359
 3408W        W 7472   6.540   6.116  10.415
 3409W        W 7473   9.009   2.407   3.289
 3410W        W 7474   4.244   4.910   0.478
 3411W        W 7475   5.061   7.610  11.544
 3412W        W 7476   8.869   0.625  11.251
 3413W        W 7477   5.119   0.502   3.547
 3414W        W 7478   2.049   8.892   9.305
 3415W        W 7479   5.570   1.416   2.534
 3416W        W 7480   5.045   4.308   1.682
 3417W        W 7481   7.128  10.390   3.657
 3418W        W 7482   9.400   4.537  11.647
 3419W        W 7483   4.604   1.502   1.011
 3420W        W 7484   6.597  10.372  10.617
 3421W        W 7485   6.502   3.536   9.469
 3422W        W 7486   6.099   5.105   0.410
 3423W        W 7487   2.833   1.338   3.535
 3424W        W 7488   4.463   8.578  10.279
 3425W        W 7489   3.488   1.908   3.408
 3426W        W 7490   5.749   5.559   3.209
 3427W        W 7491   7.040   7.360  11.146
 3428W        W 7492   7.398   3.389   0.281
 3429W        W 7493   3.683   5.982   1.141
 3430W        W 7494   6.302   6.404   8.588
 3431W        W 7495   5.378   1.726   2.154
 3432W        W 7496   4.750   2.175   2.250
 3433W        W 7497   1.059   7.873   0.770
 3434W        W 7498   7.189   8.393   2.257
 3435W        W 7499   5.930   5.632   1.722
 3436W        W 7500   7.992   0.926   3.322
 3437W        W 7501   5.452   4.315   8.966
 3438W        W 7502   7.726   6.384   1.393
 3439W        W 7503   6.044   6.019   3.274
 3440W        W 7504  10.183   3.181  11.455
 3441W        W 7505   9.902   7.044   1.353
 3442W        W 7506   8.047   6.687  10.034
 3443W        W 7507   9.846   1.870  11.418
 3444W        W 7508   6.420   5.156   0.008
 3445W        W 7509   9.418   5.428  11.769
 3446W        W 7510   4.062   0.431   2.785
 3447W        W 7511  10.300   4.421   0.210
 3448W        W 7512   1.807   2.142   9.273
 3449W        W 7513   0.263   0.422  11.698
 3450W        W 7514   1.304   1.383   1.004
 3451W        W 7515  10.348   5.201  10.918
 3452W        W 7516   4.374   2.602   1.141
 3453W        W 7517   1.737   8.438  10.031
 3454W        W 7518   4.788   4.519   1.011
 3455W        W 7519   1.267   6.765  11.541
 3456W        W 7520   3.238   7.391   3.159
 3457W        W 7521   1.253   1.399  10.551
 3458W        W 7522   1.406  10.380  10.819
 3459W        W 7523   0.419   3.763   0.395
 3460W        W 7524   3.699   8.094   8.529
 3461W        W 7525   2.519   1.228  11.395
 3462W        W 7526   5.109   4.605   2.107
 3463W        W 7527   2.864   9.358   0.256
 3464W        W 7528   3.917   1.875  11.236
 3465W        W 7529   9.347   4.714   8.781
 3466W        W 7530   2.848   8.456   9.375
 3467W        W 7531  10.278   5.196   1.254
 3468W        W 7532   6.082   0.936  11.443
 3469W        W 7533  10.370   7.733  10.866
 3470W        W 7534   3.230   0.349  10.271
 3471W        W 7535   4.720   0.461   0.502
 3472W        W 7536   6.918   5.778  10.048
 3473W        W 7537   7.207   9.024  11.700
 3474W        W 7538   6.527   7.780   1.727
 3475W        W 7539   1.596   9.437   9.638
 3476W        W 7540   4.289   6.113   2.437
 3477W        W 7541   8.561   6.802   2.477
 3478W        W 7542   5.188   0.347   0.705
 3479W        W 7543   8.516   0.403   9.934
 3480W        W 7544   1.429   7.244  11.450
 3481W        W 7545   9.962   6.994   9.064
 3482W        W 7546   7.125   7.398   8.656
 3483W        W 7547   4.176   9.364   8.800
 3484W        W 7548   2.609   6.662   1.832
 3485W        W 7549   6.199   2.319  11.774
 3486W        W 7550   5.003   3.339   1.796
 3487W        W 7551   9.329   6.634   0.491
 3488W        W 7552   8.863   2.848   1.902
 3489W        W 7553  10.267   7.426   8.997
 3490W        W 7554   4.912   6.388   8.185
 3491W        W 7555   9.815   5.727   2.792
 3492W        W 7556   7.953   1.409   3.108
 3493W        W 7557   5.547   6.123   8.668
 3494W        W 7558   0.304   8.120   9.806
 3495W        W 7559   1.010   2.703   1.917
 3496W        W 7560   8.431   8.559   1.808
 3497W        W 7561   6.825   6.482   8.476
 3498W        W 7562   1.058   2.604   1.408
 3499W        W 7563   7.420   0.018  11.402
 3500W        W 7564   9.521   2.030  10.802
 3501W        W 7565   8.372   5.219   9.961
 3502W        W 7566   2.060   7.403  10.617
 3503W        W 7567   0.259   2.739  10.666
 3504W        W 7568   5.743   3.882   0.093
 3505W        W 7569   2.833   7.871   0.446
 3506W        W 7570   7.496   0.479   8.988
 3507W        W 7571   3.189   1.512   3.178
 3508W        W 7572   2.398   0.624  11.836
 3509W        W 7573   4.700   6.383  10.252
 3510W        W 7574   2.124  10.379   1.841
 3511W        W 7575   3.331   5.065   8.777
 3512W        W 7576   9.116   8.662   2.798
 3513W        W 7577   8.475   7.422   9.408
 3514W        W 7578   4.260   0.794   8.942
 3515W        W 7579  10.470   9.791   9.313
 3516W        W 7580   1.301   8.891   9.988
 3517W        W 7581   7.402   3.553   1.905
 3518W        W 7582   1.663   5.723   9.214
 3519W        W 7583   5.630   2.199   0.926
 3520W        W 7584   6.837   9.117   0.605
 3521W        W 7585   6.052   7.477   0.789
 3522W        W 7586   4.189   2.230   0.448
 3523W        W 7587   5.156   5.154  10.569
 3524W        W 7588   9.658  10.398   1.425
 3525W        W 7589   4.060   1.222   9.125
 3526W        W 7590   0.467   1.822   9.141
 3527W        W 7591   3.031   7.399   8.847
 3528W        W 7592   1.449   7.603   1.848
 3529W        W 7593   6.638   4.168   7.993
 3530W        W 7594   7.678   5.884   1.423
 3531W        W 7595   6.894   2.186   0.530
 3532W        W 7596   8.431   4.647   1.481
 3533W        W 7597   9.008   3.647   0.677
 3534W        W 7598   3.282   6.970  11.288
 3535W        W 7599   7.395   7.050  11.328
 3536W        W 7600   5.543   1.250   2.039
 3537W        W 7601  10.409   8.750   2.221
 3538W        W 7602  10.260   1.511  10.715
 3539W        W 7603   0.338   8.859   1.192
 3540W        W 7604   2.906   1.162   1.955
 3541W        W 7605   2.615   3.598   1.634
 3542W        W 7606   3.155   5.777   1.135
 3543W        W 7607   8.436   8.395   0.235
 3544W        W 7608   0.346   0.521  11.180
 3545W        W 7609   9.851   3.730   2.741
 3546W        W 7610   2.359   8.634  10.961
 3547W        W 7611   0.351   6.755  11.701
 3548W        W 7612  10.419   7.060   1.393
 3549W        W 7613   4.105   6.147   3.676
 3550W        W 7614   3.874  10.428   2.711
 3551W        W 7615  10.034  10.450  11.494
 3552W        W 7616   6.034   9.091   2.714
 3553W        W 7617   0.020   9.923   0.389
 3554W        W 7618   8.578   1.894  11.206
 3555W        W 7619   9.112   6.499   0.959
 3556W        W 7620  10.462   5.675  10.122
 3557W        W 7621   4.527   6.433   0.696
 3558W        W 7622   8.138   4.873  11.499
 3559W        W 7623   9.546   5.025  11.476
 3560W        W 7624   9.465   3.573   0.460
 3561W        W 7625   7.524   6.053   3.463
 3562W        W 7626  10.383   1.167   9.362
 3563W        W 7627  10.472   4.777  11.792
 3564W        W 7628   5.328   9.497   3.669
 3565W        W 7629   8.372   9.864   3.131
 3566W        W 7630   5.082   9.515   9.751
 3567W        W 7631   4.696   8.390   2.592
 3568W        W 7632   5.841   4.029   9.581
 3569W        W 7633   6.457   6.203   3.531
 3570W        W 7634   8.635   8.567   2.686
 3571W        W 7635   1.693   6.515  11.561
 3572W        W 7636   5.512   7.828   1.377
 3573W        W 7637   8.857  10.324   3.509
 3574W        W 7638   0.873   3.190   1.948
 3575W        W 7639   2.845  10.324   3.192
 3576W        W 7640  10.334   9.039   2.816
 3577W        W 7641   4.243   3.179   0.373
 3578W        W 7642   5.433   9.896  11.525
 3579W        W 7643   9.757   0.406   8.703
 3580W        W 7644   6.883   0.095   0.264
 3581W        W 7645   3.727   4.637   3.415
 3582W        W 7646   8.592   6.897   9.392
 3583W        W 7647   7.603   6.067   8.847
 3584W        W 7648   8.810   0.052   0.437
 3585W        W 7649   4.412   5.944   3.321
 3586W        W 7650   2.063   5.214  11.196
 3587W        W 7651   7.670   4.112   1.440
 3588W        W 7652   1.592   1.298   1.447
 3589W        W 7653   7.671   8.524   2.357
 3590W        W 7654   6.890   5.119   8.837
 3591W        W 7655   1.797   6.029   1.254
 3592W        W 7656   0.974   2.830  11.113
 3593W        W 7657   5.916   5.148   2.948
 3594W        W 7658   5.472  10.404   8.919
 3595W        W 7659   2.176   3.345  10.196
 3596W        W 7660   9.757   0.338   2.923
 3597W        W 7661   6.140   8.488   2.405
 3598W        W 7662   2.253   1.776   3.008
 3599W        W 7663   6.011   7.936   9.605
 3600W        W 7664   7.649   3.136   2.276
 3601W        W 7665   7.427  10.053   3.417
 3602W        W 7666   4.495   3.612   0.527
 3603W        W 7667   3.844   6.689  10.930
 3604W        W 7668   6.937   1.254   2.702
 3605W        W 7669   1.486   8.315  10.835
 3606W        W 7670   8.267   9.886  11.392
 3607W        W 7671  10.407   0.269  11.374
 3608W        W 7672   9.376   9.161   9.050
 3609W        W 7673   6.462   2.603   9.541
 3610W        W 7674   3.607   1.260   8.892
 3611W        W 7675   5.963   9.024   0.676
 3612W        W 7676   9.332   9.891  11.311
 3613W        W 7677   4.182   6.643   3.747
 3614W        W 7678   4.672   9.193   8.689
 3615W        W 7679   0.167   1.891   2.649
 3616W        W 7680   7.082   9.641   8.980
 3617W        W 7681   6.687   4.486  11.267
 3618W        W 7682   0.914   6.590  10.554
 3619W        W 7683   9.001   4.274  11.427
 3620W        W 7684   6.526   7.678   0.826
 3621W        W 7685   9.705   2.710   2.501
 3622W        W 7686   8.094  10.419   2.765
 3623W        W 7687   9.998   0.069   8.395
 3624W        W 7688   6.403   9.277   2.285
 3625W        W 7689   4.129   4.273   8.548
 3626W        W 7690   1.133   6.445   2.096
 3627W        W 7691   1.985   8.953   1.368
 3628W        W 7692   4.207   7.007   8.959
 3629W        W 7693   2.116   0.781   1.863
 3630W        W 7694   9.955   0.810   8.995
 3631W        W 7695   6.965   4.985   3.429
 3632W        W 7696   5.238   5.290   0.964
 3633W        W 7697   8.792   9.929  11.281
 3634W        W 7698   8.597   5.701  10.035
 3635W        W 7699   4.712   0.820   9.172
 3636W        W 7700   4.294   9.482   0.373
 3637W        W 7701   0.367   9.480   9.090
 3638W        W 7702   5.663   8.301   1.682
 3639W        W 7703   7.079   4.537   2.937
 3640W        W 7704   4.652   8.141   8.946
 3641W        W 7705   2.130   5.567   1.817
 3642W        W 7706  10.286   3.594   2.476
 3643W        W 7707   5.560   2.262  10.976
 3644W        W 7708   7.461   5.629   8.616
 3645W        W 7709   5.139   3.537   2.281
 3646W        W 7710   0.697   9.439  11.987
 3647W        W 7711   0.901   5.993   8.763
 3648W        W 7712   7.331   8.918   2.377
 3649W        W 7713   3.743   7.951   0.899
 3650W        W 7714   1.819   3.428   2.135
 3651W        W 7715   0.813   0.748   0.504
 3652W        W 7716   6.927   3.453   1.299
 3653W        W 7717   3.847   3.197   0.023
 3654W        W 7718   8.068   7.890   9.522
 3655W        W 7719   4.313   0.145  10.447
 3656W        W 7720   0.961   4.694  11.233
 3657W        W 7721   5.378   6.625   8.003
 3658W        W 7722   3.715   4.833   0.423
 3659W        W 7723   2.869   5.951   1.550
 3660W        W 7724   7.178   8.083   0.297
 3661W        W 7725   3.170   1.370   0.689
 3662W        W 7726   5.023   6.652  11.831
 3663W        W 7727   8.024   1.247   1.398
 3664W        W 7728   7.079   3.606   2.768
 3665W        W 7729   1.183   9.841  10.243
 3666W        W 7730   5.086   0.873   0.467
 3667W        W 7731  10.461   6.649  10.054
 3668W        W 7732   6.077   5.983   0.829
 3669W        W 7733   7.128   0.473   1.536
 3670W        W 7734   4.291  10.442   3.131
 3671W        W 7735   4.033   1.774   0.704
 3672W        W 7736   0.475   9.515  11.494
 3673W        W 7737   6.053   3.643   8.841
 3674W        W 7738   0.512   2.792   1.957
 3675W        W 7739   8.912   7.112  10.700
 3676W        W 7740   9.087   2.165   1.100
 3677W        W 7741   6.834   8.047   2.032
 3678W        W 7742   5.711   7.563  10.926
 3679W        W 7743   0.761   0.526  10.847
 3680W        W 7744   5.498   6.909  11.463
 3681W        W 7745   1.945   9.508   3.292
 3682W        W 7746   5.045   8.775   1.901
 3683W        W 7747   2.299   3.310   1.283
 3684W        W 7748   0.725   0.361   2.764
 3685W        W 7749   1.283   6.976   3.500
 3686W        W 7750   5.156   4.144   3.794
 3687W        W 7751   6.278   3.283   1.789
 3688W        W 7752   8.837   7.610   0.474
 3689W        W 7753   5.882   3.036   3.175
 3690W        W 7754   3.082   9.906   1.390
 3691W        W 7755  10.472   8.403   9.530
 3692W        W 7756   7.445   8.166   8.942
 3693W        W 7757   5.951   4.935  11.913
 3694W        W 7758   1.930   3.420   2.823
 3695W        W 7759   0.833   8.363   2.957
 3696W        W 7760   0.076   7.653  11.689
 3697W        W 7761   4.091   3.386   8.907
 3698W        W 7762   8.394   4.569   9.412
 3699W        W 7763   4.538   2.150   9.354
 3700W        W 7764   2.612   4.274  11.016
 3701W        W 7765   2.851   6.668  10.020
 3702W        W 7766   4.988   2.825   9.096
 3703W        W 7767   8.805   4.818   3.609
 3704W        W 7768   3.276  10.162   0.967
 3705W        W 7769   1.882   2.844   0.365
 3706W        W 7770   7.395  10.177  11.006
 3707W        W 7771  10.107   7.814   0.892
 3708W        W 7772   1.479   4.130  11.369
 3709W        W 7773   6.856   5.543   2.395
 3710W        W 7774   9.470   6.330   0.116
 3711W        W 7775   2.296   1.285   3.510
 3712W        W 7776   2.245   2.209  10.027
 3713W        W 7777   8.562   4.555  11.481
 3714W        W 7778   8.495   8.079   9.300
 3715W        W 7779   5.026   6.216   8.670
 3716W        W 7780   5.172  10.043   2.494
 3717W        W 7781   1.082   4.216   3.586
 3718W        W 7782   7.472   1.656   2.777
 3719W        W 7783   7.491   4.749   2.689
 3720W        W 7784   0.684   0.866   9.864
 3721W        W 7785   5.057   2.452  11.025
 3722W        W 7786   7.575   2.182   0.237
 3723W        W 7787   1.389   2.427   0.438
 3724W        W 7788   1.286   8.466   9.723
 3725W        W 7789   8.156   0.983  10.012
 3726W        W 7790   5.961   8.660  10.425
 3727W        W 7791   8.901   8.477   0.423
 3728W        W 7792   3.223   2.287   3.610
 3729W        W 7793   0.942   6.045  11.882
 3730W        W 7794  10.157   7.933  11.555
 3731W        W 7795   5.583   3.878   8.615
 3732W        W 7796   6.941   7.540   2.691
 3733W        W 7797   6.844   5.140  11.735
 3734W        W 7798   9.830   6.450   0.447
 3735W        W 7799   1.005   2.584  10.246
 3736W        W 7800   3.625   0.312   3.003
 3737W        W 7801   8.632   9.737   1.133
 3738W        W 7802   6.088   6.017   3.819
 3739W        W 7803   6.681   7.579   2.202
 3740W        W 7804   5.315   4.067   9.436
 3741W        W 7805   9.496   2.276   0.270
 3742W        W 7806   0.504   7.684   0.969
 3743W        W 7807   6.972   1.759   2.811
 3744W        W 7808   8.202   0.108  10.645
 3745W        W 7809   3.746   1.372  10.925
 3746W        W 7810   7.814   3.597   0.032
 3747W        W 7811   4.140   0.854   3.099
 3748W        W 7812   3.610   5.539   9.322
 3749W        W 7813   2.706   6.607   9.030
 3750W        W 7814   8.911   3.019   1.405
 3751W        W 7815   5.498   2.637  10.526
 3752W        W 7816   5.191   3.058   0.223
 3753W        W 7817   4.264   1.649   9.328
 3754W        W 7818   4.309   5.133  10.512
 3755W        W 7819   1.314   7.661   3.326
 3756W        W 7820  10.205   2.978   3.089
 3757W        W 7821   5.764   7.396   9.045
 3758W        W 7822   4.806   7.916   2.749
 3759W        W 7823   3.733   4.182   9.048
 3760W        W 7824   4.793   2.870  11.908
 3761W        W 7825   4.686   5.096   2.034
 3762W        W 7826   1.442   5.288   8.684
 3763W        W 7827   3.818   3.221  11.069
 3764W        W 7828   5.622   4.125   8.035
 3765W        W 7829   1.470   3.096  10.872
 3766W        W 7830   0.011   4.220   9.098
 3767W        W 7831   2.408   8.919   9.673
 3768W        W 7832   9.860   1.414   1.036
 3769W        W 7833   3.159   1.169  10.589
 3770W        W 7834   6.797   0.428   1.136
 3771W        W 7835   7.881   7.445   0.304
 3772W        W 7836   7.959   1.892  10.538
 3773W        W 7837   1.503   7.729  11.365
 3774W        W 7838  10.467  10.274   3.123
 3775W        W 7839   4.164   1.342   2.737
 3776W        W 7840   0.966   4.942   1.740
 3777W        W 7841   5.559   5.673   0.170
 3778W        W 7842   2.764   7.441   1.260
 3779W        W 7843  10.267   1.813  10.307
 3780W        W 7844   1.527   4.464   9.680
 3781W        W 7845   8.634   8.328   1.404
 3782W        W 7846   7.813   0.454  10.562
 3783W        W 7847   5.164   3.623  10.357
 3784W        W 7848   4.994   5.473   9.969
 3785W        W 7849   1.593   5.639   0.971
 3786W        W 7850   1.922   2.900   2.043
 3787W        W 7851  10.208  10.085   2.268
 3788W        W 7852   1.815   4.095   9.910
 3789W        W 7853   6.166   5.568   3.539
 3790W        W 7854   5.561   6.949   1.468
 3791W        W 7855   7.630   5.003   1.664
 3792W        W 7856   5.699   5.597  10.309
 3793W        W 7857   1.909   4.312   2.316
 3794W        W 7858   7.682   3.767   0.510
 3795W        W 7859   3.011   9.045  10.407
 3796W        W 7860   0.047   4.628  10.823
 3797W        W 7861   3.533   9.977   2.301
 3798W        W 7862   3.279   0.444   1.667
 3799W        W 7863   9.784   7.421   8.783
 3800W        W 7864   2.488   4.783   8.903
 3801W        W 7865   0.224   1.354  10.883
 3802W        W 7866   6.942   5.436   0.519
 3803W        W 7867   0.852   9.931   1.180
 3804W        W 7868   6.410   8.853   0.457
 3805W        W 7869   7.178   7.589   9.664
 3806W        W 7870   7.460   3.220  11.299
 3807W        W 7871  10.014   1.889   1.861
 3808W        W 7872   3.089   7.951  11.092
 3809W        W 7873   0.440   7.388   2.830
 3810W        W 7874   4.500   6.435   1.208
 3811W        W 7875   4.994   3.030   9.827
 3812W        W 7876   0.882   3.931   1.242
 3813W        W 7877   1.991   9.554  10.975
 3814W        W 7878   1.165   2.232   1.802
 3815W        W 7879   7.895   2.402  10.562
 3816W        W 7880   5.712   1.608  11.757
 3817W        W 7881   5.577   1.263   3.046
 3818W        W 7882  10.236   7.738   2.241
 3819W        W 7883   9.381   5.439   2.162
 3820W        W 7884   0.893   4.151   0.200
 3821W        W 7885   0.358   7.235  10.138
 3822W        W 7886   4.721   5.048  10.824
 3823W        W 7887  10.368   3.452   9.733
 3824W        W 7888   9.348   2.605   2.117
 3825W        W 7889   4.956   6.464   2.860
 3826W        W 7890   7.462   6.569   8.887
 3827W        W 7891   8.926   5.586   9.643
 3828W        W 7892   7.325   5.212  10.460
 3829W        W 7893   8.368   4.243  10.861
 3830W        W 7894   8.202   1.809  11.570
 3831W        W 7895  10.485   7.104  11.897
 3832W        W 7896   3.274   7.220   2.315
 3833W        W 7897   6.062   0.426   3.313
 3834W        W 7898   9.403   3.392  10.520
 3835W        W 7899   0.801   0.270   9.463
 3836W        W 7900   8.336   9.866   8.962
 3837W        W 7901   5.892   0.409   2.822
 3838W        W 7902   0.361   0.199  10.776
 3839W        W 7903   9.409   9.209  11.169
 3840W        W 7904   2.024   9.383   1.906
 3841W        W 7905   0.862   6.526  10.046
 3842W        W 7906   7.016   5.615  11.015
 3843W        W 7907   2.092   5.259   3.014
 3844W        W 7908   8.678   7.217   8.984
 3845W        W 7909   4.743  10.294   2.429
 3846W        W 7910   7.602   9.966  10.101
 3847W        W 7911   2.374   8.441   3.017
 3848W        W 7912   8.744   2.008   0.349
 3849W        W 7913   0.175   5.612   0.032
 3850W        W 7914   6.419   8.941   1.417
 3851W        W 7915   9.159   5.770  10.505
 3852W        W 7916   7.801   4.121  11.996
 3853W        W 7917   2.380   6.030   1.778
 3854W        W 7918   4.162   1.851   2.805
 3855W        W 7919   6.087   6.684   4.083
 3856W        W 7920   2.105   7.161   9.828
 3857W        W 7921   3.998   7.943   2.246
 3858W        W 7922   4.676   0.920   8.647
 3859W        W 7923   7.301  10.007   1.620
 3860W        W 7924   7.031   2.228   3.043
 3861W        W 7925   1.928   3.333  11.024
 3862W        W 7926   1.200   9.729   8.818
 3863W        W 7927   7.441   3.726  11.129
 3864W        W 7928   5.947   3.471   1.405
 3865W        W 7929   2.353   3.142   2.844
 3866W        W 7930   7.377  10.494   0.322
 3867W        W 7931   7.851   6.523   2.746
 3868W        W 7932   2.887   6.951  11.841
 3869W        W 7933   4.965   4.674   0.431
 3870W        W 7934   2.386   4.793   2.739
 3871W        W 7935   0.650   0.618   2.299
 3872W        W 7936   9.963   4.533  10.475
 3873W        W 7937   7.157   0.444   3.310
 3874W        W 7938   1.661   1.627  11.796
 3875W        W 7939  10.209   0.624   1.387
 3876W        W 7940   9.385   4.651   9.795
 3877W        W 7941   2.825   7.030   0.409
 3878W        W 7942   8.411   6.503   0.826
 3879W        W 7943   1.381   4.323   3.173
 3880W        W 7944   3.614   6.482   1.699
 3881W        W 7945   1.301   0.251   9.029
 3882W        W 7946  10.247   6.715   0.327
 3883W        W 7947   6.945   3.680   0.354
 3884W        W 7948   4.403   0.092   2.649
 3885W        W 7949   7.490   8.786  10.769
 3886W        W 7950   3.392   1.029  11.027
 3887W        W 7951   4.647   2.347  10.716
 3888W        W 7952   4.937   8.473  10.442
 3889W        W 7953   9.308   8.408   3.364
 3890W        W 7954   4.723   9.389   2.934
 3891W        W 7955   6.050   4.113   8.665
 3892W        W 7956   9.238   7.975   8.931
 3893W        W 7957   8.158   8.386   9.035
 3894W        W 7958   7.138   2.267   1.505
 3895W        W 7959   3.375   0.577   9.793
 3896W        W 7960   2.311   7.813  11.575
 3897W        W 7961   0.445   5.203   0.189
 3898W        W 7962   1.964   4.568   0.889
 3899W        W 7963   2.826   5.955   0.051
 3900W        W 7964   6.207   1.895   3.452
 3901W        W 7965   2.598   2.535  10.269
 3902W        W 7966   6.697   0.320   9.396
 3903W        W 7967   2.899  10.355  10.661
 3904W        W 7968   8.640   4.242   1.225
 3905W        W 7969  10.319   4.579   8.788
 3906W        W 7970   6.723   1.244  10.527
 3907W        W 7971   7.544   5.660   3.109
 3908W        W 7972   5.250   6.151   9.125
 3909W        W 7973   2.358   6.761   1.161
 3910W        W 7974   4.733   3.290   0.208
 3911W        W 7975   6.037   7.554   1.673
 3912W        W 7976   7.030   6.451   1.766
 3913W        W 7977   9.706   3.331   8.592
 3914W        W 7978   4.159   1.245  11.825
 3915W        W 7979   7.963   7.480   2.645
 3916W        W 7980   7.839   9.931   9.085
 3917W        W 7981  10.220   3.661  11.311
 3918W        W 7982   2.629   5.040   2.346
 3919W        W 7983   1.279   1.869   9.029
 3920W        W 7984   5.076   4.630  11.038
 3921W        W 7985   9.388   6.419   1.749
 3922W        W 7986   5.161   8.557  11.062
 3923W        W 7987   3.705  10.446   2.215
 3924W        W 7988   9.424   7.183   1.491
 3925W        W 7989   7.422   2.079   0.706
 3926W        W 7990   5.172   7.689  11.057
 3927W        W 7991  10.377   0.701   9.584
 3928W        W 7992   4.065  10.373   0.887
 3929W        W 7993   7.564   3.573   9.957
 3930W        W 7994   4.715   1.749   9.070
 3931W        W 7995   0.224   8.640  11.403
 3932W        W 7996   0.890   5.697   0.290
 3933W        W 7997   7.057   6.694   2.370
 3934W        W 7998  10.086   3.729  11.804
 3935W        W 7999   5.658   0.777   2.192
 3936W        W 8000   4.271   9.090  10.521
 3937W        W 8001   1.263  10.445   9.445
 3938W        W 8002   6.965   9.955  10.775
 3939W        W 8003   7.933   4.095   2.350
 3940W        W 8004   2.667   0.805   3.381
 3941W        W 8005   1.708   8.327   1.788
 3942W        W 8006   8.999   0.881   2.847
 3943W        W 8007   6.964   9.029   2.731
 3944W        W 8008   2.640   2.737   2.772
 3945W        W 8009   4.612   3.669   1.561
 3946W        W 8010   0.468   0.771  11.998
 3947W        W 8011   0.352   5.354   9.873
 3948W        W 8012   2.307   9.001   1.748
 3949W        W 8013   3.717   8.957   1.334
 3950W        W 8014   8.481   0.294   9.417
 3951W        W 8015   7.013   0.327  11.267
 3952W        W 8016  10.343   4.973   2.417
 3953W        W 8017   4.603   6.891  10.269
 3954W        W 8018   7.215   8.996   0.277
 3955W        W 8019   6.222   4.332  11.755
 3956W        W 8020   4.182   0.866   8.454
 3957W        W 8021   1.920  10.426  10.650
 3958W        W 8022   7.975  10.500   0.365
 3959W        W 8023   4.309   5.772   8.308
 3960W        W 8024   9.912  10.339  11.979
 3961W        W 8025   6.109   2.329  11.266
 3962W        W 8026   8.921   4.764   2.187
 3963W        W 8027   5.252   6.652   8.490
 3964W        W 8028   6.963   2.414  10.566
 3965W        W 8029   1.074   9.107   0.238
 3966W        W 8030   5.466   4.679   0.343
 3967W        W 8031   6.960   7.711   0.574
 3968W        W 8032  10.008   3.172   2.641
 3969W        W 8033   2.403   2.930  11.828
 3970W        W 8034   2.613   6.094   3.522
 3971W        W 8035   9.414   9.005   2.522
 3972W        W 8036   6.851   9.057   1.151
 3973W        W 8037   2.356   7.664   1.727
 3974W        W 8038   9.526   8.321   9.241
 3975W        W 8039   3.700  10.335  10.814
 3976W        W 8040   9.770   4.286  10.913
 3977W        W 8041   6.485   1.468   2.787
 3978W        W 8042   5.665   2.377   2.353
 3979W        W 8043   1.218   9.558  11.988
 3980W        W 8044   6.282   7.444   1.239
 3981W        W 8045   5.600   7.384   2.789
 3982W        W 8046   8.291   0.150   8.468
 3983W        W 8047   1.672   0.475   2.527
 3984W        W 8048   7.405   5.201   8.918
 3985W        W 8049   2.724   3.584   9.268
 3986W        W 8050   2.714   0.302  10.884
 3987W        W 8051   5.066   2.261   9.178
 3988W        W 8052   2.338  10.318   2.986
 3989W        W 8053   4.296   1.664   1.906
 3990W        W 8054   4.313   6.586   9.700
 3991W        W 8055   0.759   8.875   9.862
 3992W        W 8056   6.916   9.876  11.281
 3993W        W 8057   7.240   1.732  11.317
 3994W        W 8058   9.314   5.641   9.276
 3995W        W 8059   6.196   3.125   3.575
 3996W        W 8060   0.757   8.558   1.974
 3997W        W 8061   9.361   1.900   8.592
 3998W        W 8062   4.760   8.860  11.279
 3999W        W 8063   5.294   9.844  10.120
 4000W        W 8064   1.358   8.025   1.509
 4001W        W 8065   1.234   2.935   0.395
 4002W        W 8066   1.760   5.961  10.211
 4003W        W 8067   9.363   0.696   1.938
 4004W        W 8068   2.259   2.245  11.518
 4005W        W 8069   4.540   3.910  11.013
 4006W        W 8070   0.902   7.052  10.788
 4007W        W 8071   1.505   0.224   3.370
 4008W        W 8072   0.553   1.787   9.823
 4009W        W 8073   9.528   7.114   0.993
 4010W        W 8074   0.333   7.346   1.474
 4011W        W 8075   3.213   4.817   1.275
 4012W        W 8076   2.813   5.926   2.077
 4013W        W 8077   4.167   7.972   8.781
 4014W        W 8078   6.088   4.305   8.183
 4015W        W 8079   6.486   3.346   0.559
 4016W        W 8080   2.840   7.793   8.553
 4017W        W 8081   7.116   0.927  11.885
 4018W        W 8082   3.169   0.256   9.417
 4019W        W 8083   2.694   9.957   2.828
 4020W        W 8084   8.545   7.914   3.209
 4021W        W 8085   6.968   9.511   2.953
 4022W        W 8086   6.050   7.125   1.991
 4023W        W 8087   6.609   7.386   3.102
 4024W        W 8088   1.162   0.728   2.202
 4025W        W 8089   4.543   9.776  11.781
 4026W        W 8090   0.023   4.639  10.301
 4027W        W 8091  10.474   7.585   1.227
 4028W        W 8092   2.636   4.335  11.531
 4029W        W 8093   5.196   1.720   9.850
 4030W        W 8094   4.540   0.396   9.449
 4031W        W 8095   5.129   1.185   2.331
 4032W        W 8096   6.117   7.266  10.824
 4033W        W 8097   0.380   0.680   1.853
 4034W        W 8098   5.723   5.186   1.636
 4035W        W 8099   4.914   0.486   8.676
 4036W        W 8100   7.981   9.377   0.582
 4037W        W 8101   4.230   5.647  10.471
 4038W        W 8102   9.738   8.923  10.484
 4039W        W 8103   4.295   6.206  10.534
 4040W        W 8104   8.548   9.050   3.540
 4041W        W 8105   0.749   3.576  10.296
 4042W        W 8106   2.290   7.678   1.222
 4043W        W 8107   1.005   8.763   9.426
 4044W        W 8108   4.627   4.038   8.800
 4045W        W 8109   3.352   3.820   1.339
 4046W        W 8110   7.547   2.771   1.461
 4047W        W 8111   9.566   5.574  10.260
 4048W        W 8112   3.131   6.457   2.909
 4049W        W 8113   9.530   9.380  10.069
 4050W        W 8114   2.555   7.616   8.951
 4051W        W 8115   7.501   3.648  11.628
 4052W        W 8116  10.363   5.705   1.196
 4053W        W 8117   4.623   4.710   3.455
 4054W        W 8118   2.775   1.303  10.922
 4055W        W 8119   7.879   0.265   1.608
 4056W        W 8120   1.542   5.652  10.552
 4057W        W 8121   7.533   7.064   0.165
 4058W        W 8122   0.392   9.048  10.876
 4059W        W 8123   2.857   7.505  11.165
 4060W        W 8124   6.575   9.462   1.320
 4061W        W 8125   5.635  10.419   1.932
 4062W        W 8126   7.404   5.332   9.513
 4063W        W 8127   8.018   2.275   1.393
 4064W        W 8128   6.019   3.680   9.918
 4065W        W 8129   5.817   7.459   0.325
 4066W        W 8130   3.405   7.943   1.888
 4067W        W 8131   5.687   6.907   9.226
 4068W        W 8132   6.054   9.073  10.832
 4069W        W 8133   8.452   6.442   2.106
 4070W        W 8134   0.366   8.555   1.668
 4071W        W 8135   6.893   5.012   2.764
 4072W        W 8136   4.143   3.899   8.922
 4073W        W 8137   9.042   4.023   1.516
 4074W        W 8138   4.916   6.915   8.139
 4075W        W 8139   6.139   1.395  11.237
 4076W        W 8140   7.931   9.029   2.974
 4077W        W 8141   3.267   7.109   0.735
 4078W        W 8142   4.967   0.421  10.775
 4079W        W 8143   4.065   3.952   1.382
 4080W        W 8144   6.535   2.968   0.246
 4081W        W 8145   2.295   3.508   3.210
 4082W        W 8146   1.675   7.165   0.574
 4083W        W 8147   6.036   3.160  11.105
 4084W        W 8148   4.692   3.784   3.024
 4085W        W 8149  10.290   4.128   2.845
 4086W        W 8150   7.969   3.751   3.340
 4087W        W 8151   8.442   0.667   3.344
 4088W        W 8152   8.523   1.708   3.011
 4089W        W 8153   1.359   6.491  10.790
 4090W        W 8154   4.062   5.623   1.623
 4091W        W 8155   3.273   2.436   3.146
 4092W        W 8156   2.671   9.306   9.868
 4093W        W 8157   6.206   1.770   9.940
 4094W        W 8158   0.755   4.105   1.705
 4095W        W 8159   5.560   7.021   8.722
 4096W        W 8160   6.171   8.538   0.828
 4097W        W 8161   9.174   5.954   9.995
 4098W        W 8162   3.784   3.592   1.154
 4099W        W 8163   9.062   4.613   2.655
 4100W        W 8164   9.870   0.950   1.221
 4101W        W 8165   5.045   9.493   9.251
 4102W        W 8166   2.390   2.587  10.768
 4103W        W 8167   1.368   6.567   0.905
 4104W        W 8168   2.912   8.922   9.587
 4105W        W 8169   0.951   3.798   3.287
 4106W        W 8170   4.218   1.215   1.687
 4107W        W 8171   0.682   7.336   8.900
 4108W        W 8172   5.562   3.821   1.415
 4109W        W 8173   9.042   0.346   9.966
 4110W        W 8174   0.978   3.062   2.861
 4111W        W 8175   2.961   7.205   2.725
 4112W        W 8176   3.146   3.818   9.058
 4113W        W 8177   8.356   0.320   2.951
 4114W        W 8178   9.779   8.991  11.520
 4115W        W 8179   5.079   6.707   0.760
 4116W        W 8180  10.483   2.851   1.914
 4117W        W 8181   8.665   6.631  10.804
 4118W        W 8182   4.264   9.113   2.818
 4119W        W 8183   9.975   3.038   9.338
 4120W        W 8184   7.432   9.310  10.739
 4121W        W 8185   5.980   5.300  11.501
 4122W        W 8186   9.426   4.286  10.548
 4123W        W 8187   6.692   4.294   2.315
 4124W        W 8188   3.725   9.832  10.311
 4125W        W 8189   7.281   2.158   9.264
 4126W        W 8190   9.736   0.774   0.224
 4127W        W 8191   5.060   3.738  11.007
 4128W        W 8192   0.497   8.271  10.243
 4129W        W 8193   0.819   7.882   2.711
 4130W        W 8194   5.123   3.088   3.055
 4131W        W 8195   9.912   0.281   0.734
 4132W        W 8196   7.487   6.291   0.012
 4133W        W 8197   3.568   1.110   9.844
 4134W        W 8198   8.291   4.284   9.834
 4135W        W 8199   2.253   3.265  11.464
 4136W        W 8200   4.131   6.158   8.852
 4137W        W 8201   4.596   4.652   0.102
 4138W        W 8202   7.899   1.401   8.741
 4139W        W 8203   9.524   0.861   2.739
 4140W        W 8204   6.654   2.284   1.814
 4141W        W 8205   4.765   1.869   1.389
 4142W        W 8206   5.783  10.309   3.437
 4143W        W 8207   4.358   7.426   9.430
 4144W        W 8208   5.795   3.175   1.881
 4145W        W 8209  10.414   3.276  10.614
 4146W        W 8210   5.140   9.084  10.964
 4147W        W 8211   8.613   2.875  10.940
 4148W        W 8212   5.536   0.679   1.247
 4149W        W 8213   4.202   7.755  10.300
 4150W        W 8214   2.457   5.646   8.419
 4151W        W 8215   1.348   6.103   2.438
 4152W        W 8216   4.700   4.964   0.738
 4153W        W 8217   0.298   7.988  10.622
 4154W        W 8218   7.450   6.080   0.896
 4155W        W 8219   4.615   5.231   2.585
 4156W        W 8220   5.233  10.072  10.575
 4157W        W 8221   5.749   6.215   9.888
 4158W        W 8222  10.389   1.133   2.932
 4159W        W 8223   7.519   1.072   3.439
 4160W        W 8224   5.685   9.027  10.146
 4161W        W 8225   2.707   5.710   9.060
 4162W        W 8226   3.625   1.617   9.913
 4163W        W 8227   5.712   2.387   1.398
 4164W        W 8228   3.403   5.775   9.967
 4165W        W 8229   8.024   2.932   0.675
 4166W        W 8230   3.407   6.100  11.394
 4167W        W 8231   2.450   6.520   8.600
 4168W        W 8232   2.390   1.943   1.477
 4169W        W 8233   4.577   5.599   1.813
 4170W        W 8234   6.899   2.148   9.600
 4171W        W 8235   0.359   0.028  11.345
 4172W        W 8236   8.387   6.937   2.015
 4173W        W 8237   6.444   3.370   1.317
 4174W        W 8238   9.404   6.205  10.408
 4175W        W 8239   9.019   6.844   9.066
 4176W        W 8240   2.455   2.879   1.633
 4177W        W 8241   0.792   8.351   9.815
 4178W        W 8242   1.940   8.456   2.705
 4179W        W 8243   2.720   9.233   8.839
 4180W        W 8244   8.894   9.124   9.591
 4181W        W 8245   5.958   6.769  11.613
 4182W        W 8246   8.672   4.994   9.372
 4183W        W 8247   5.056   2.717   3.395
 4184W        W 8248   1.671   3.230   1.687
 4185W        W 8249   4.286   6.446  11.002
 4186W        W 8250   2.699   9.104  11.775
 4187W        W 8251   0.785   9.405   1.906
 4188W        W 8252   7.458  10.291   2.112
 4189W        W 8253   9.764   4.348  10.011
 4190W        W 8254   4.087   0.388   3.319
 4191W        W 8255   4.519   8.954   0.661
 4192W        W 8256   7.247   5.752   2.173
 4193W        W 8257   0.780   3.743  10.778
 4194W        W 8258   3.079   2.207   2.169
 4195W        W 8259  10.416   9.853   1.419
 4196W        W 8260   5.906   9.603   3.592
 4197W        W 8261   6.926   8.164  10.782
 4198W        W 8262   0.778   5.180   2.160
 4199W        W 8263   0.491   1.908   2.253
 4200W        W 8264   1.138   6.436   8.626
 4201W        W 8265   4.495   1.722   2.386
 4202W        W 8266   0.821   3.067   8.994
 4203W        W 8267   2.724   6.477   0.845
 4204W        W 8268   0.479   7.736  11.387
 4205W        W 8269   3.712   0.440   1.973
 4206W        W 8270   0.838   1.792  11.395
 4207W        W 8271   4.957   4.261   9.112
 4208W        W 8272   7.747   0.815   1.789
 4209W        W 8273   5.497   6.649   3.544
 4210W        W 8274   1.261   6.064   9.926
 4211W        W 8275   9.997   4.025   0.218
 4212W        W 8276   8.442   1.176   3.245
 4213W        W 8277  10.237   5.476   2.672
 4214W        W 8278   5.759   7.057  10.078
 4215W        W 8279   7.481   2.721   1.967
 4216W        W 8280   9.201  10.310   9.874
 4217W        W 8281   0.314   5.443  11.057
 4218W        W 8282   4.765   7.947  10.325
 4219W        W 8283   8.896   1.474   9.169
 4220W        W 8284   1.212   3.980   1.923
 4221W        W 8285   3.745   5.834  11.710
 4222W        W 8286   6.560   8.347   2.720
 4223W        W 8287   3.210   6.961   9.050
 4224W        W 8288   1.366   2.273  11.881
 4225W        W 8289   7.864   9.471  10.522
 4226W        W 8290   6.740   4.019   9.299
 4227W        W 8291   8.392   2.614  11.901
 4228W        W 8292   8.050   9.990   0.389
 4229W        W 8293   7.591   6.600   0.489
 4230W        W 8294   8.769   9.541   2.250
 4231W        W 8295   4.666   4.189   3.363
 4232W        W 8296   6.021   8.601   9.349
 4233W        W 8297   3.747   1.317   1.919
 4234W        W 8298   0.853   6.916   9.196
 4235W        W 8299   7.869   1.808   0.052
 4236W        W 8300   6.679   6.492  11.333
 4237W        W 8301  10.440   8.264   3.120
 4238W        W 8302   9.661   3.743   8.894
 4239W        W 8303   4.225   7.409  11.273
 4240W        W 8304  10.411   9.425   0.581
 4241W        W 8305   4.655   8.924   3.134
 4242W        W 8306   3.184   3.727  10.082
 4243W        W 8307   6.056   9.563  10.993
 4244W        W 8308  10.489   9.700  11.427
 4245W        W 8309   1.520   3.721   2.936
 4246W        W 8310   7.617   1.301  10.620
 4247W        W 8311   8.389   7.058  10.784
 4248W        W 8312   4.275   5.244   8.386
 4249W        W 8313   2.314   3.913   8.807
 4250W        W 8314   4.759   6.038   1.021
 4251W        W 8315   1.896   3.060  11.901
 4252W        W 8316   3.311   7.150  10.459
 4253W        W 8317   9.322   2.852   1.683
 4254W        W 8318   3.577   2.719   2.290
 4255W        W 8319   4.713   7.015   2.460
 4256W        W 8320   6.115   2.240  10.146
 4257W        W 8321   1.821   5.994   1.759
 4258W        W 8322   7.798   9.749  11.668
 4259W        W 8323   6.674   6.158  11.961
 4260W        W 8324   9.376   9.055   1.310
 4261W        W 8325   9.449  10.487   2.677
 4262W        W 8326   1.937   9.753   0.710
 4263W        W 8327   2.056   9.947  10.407
 4264W        W 8328   0.387   2.894   0.706
 4265W        W 8329   2.168   4.502  10.851
 4266W        W 8330   3.302   4.440   3.638
 4267W        W 8331   0.036   2.820   0.341
 4268W        W 8332  10.307   8.214  10.734
 4269W        W 8333   5.244   9.480   0.773
 4270W        W 8334   4.794   2.327   1.181
 4271W        W 8335   1.716   8.475  11.780
 4272W        W 8336   3.216   7.199   1.407
 4273W        W 8337   0.282   5.245   3.585
 4274W        W 8338   8.901   6.209   8.510
 4275W        W 8339   6.951   4.074   0.685
 4276W        W 8340   1.344   7.853   0.307
 4277W        W 8341   2.861   9.839   1.875
 4278W        W 8342   2.113   6.632  11.805
 4279W        W 8343   1.937   9.436  11.470
 4280W        W 8344   5.968   4.341   9.116
 4281W        W 8345   8.016   9.711   9.918
 4282W        W 8346   8.124   8.653   2.685
 4283W        W 8347   9.365   1.702   9.838
 4284W        W 8348   3.586   3.593   2.143
 4285W        W 8349   3.563   9.540   9.912
 4286W        W 8350   1.386   3.194  11.850
 4287W        W 8351   2.195   3.720   9.810
 4288W        W 8352   3.203   8.845   3.405
 4289W        W 8353   8.366   5.245  10.953
 4290W        W 8354   3.260   0.671   2.978
 4291W        W 8355   3.770   4.595   8.328
 4292W        W 8356  10.235   6.056   2.849
 4293W        W 8357   6.552   4.872   1.275
 4294W        W 8358   3.732   4.522   1.962
 4295W        W 8359   2.605   1.986   8.892
 4296W        W 8360   4.415  10.102  10.424
 4297W        W 8361   7.054   2.312  10.070
 4298W        W 8362   9.569   2.985  10.833
 4299W        W 8363   1.692   7.558   9.067
 4300W        W 8364   6.516   6.270   4.042
 4301W        W 8365   1.800   7.051  11.763
 4302W        W 8366   0.029  10.231   9.586
 4303W        W 8367   0.274   3.103   1.199
 4304W        W 8368   9.483   5.640   0.717
 4305W        W 8369   8.966   5.044   8.934
 4306W        W 8370   8.525   6.617   1.644
 4307W        W 8371   0.875   4.774  10.726
 4308W        W 8372   2.318   4.755  11.256
 4309W        W 8373   3.841   8.293   9.519
 4310W        W 8374   2.085   1.002   1.302
 4311W        W 8375   6.359   9.802   9.264
 4312W        W 8376   5.096   4.220   8.613
 4313W        W 8377   6.148   2.243   1.666
 4314W        W 8378   4.678   5.877  10.497
 4315W        W 8379  10.319   2.984  11.907
 4316W        W 8380   8.417   4.262   0.250
 4317W        W 8381   7.830   9.009   2.469
 4318W        W 8382   2.842   8.543   2.780
 4319W        W 8383   3.366  10.367   2.931
 4320W        W 8384   0.028  10.459   0.775
 4321W        W 8385   2.746  10.309  11.687
 4322W        W 8386   8.167   6.631   3.112
 4323W        W 8387   0.256   6.544   9.271
 4324W        W 8388   4.139   9.237   1.431
 4325W        W 8389   3.466   0.368   8.571
 4326W        W 8390   6.549   3.664   1.995
 4327W        W 8391   8.962  10.196   0.066
 4328W        W 8392   0.375   8.957   2.134
 4329W        W 8393   1.337   1.294   0.035
 4330W        W 8394   8.875   9.998   2.998
 4331W        W 8395   0.563   0.978  11.031
 4332W        W 8396   6.000   6.498   3.600
 4333W        W 8397   6.180   0.959  10.936
 4334W        W 8398   7.879   0.837   0.363
 4335W        W 8399   9.587   7.369  11.896
 4336W        W 8400   2.363   1.121   8.974
 4337W        W 8401   1.999   9.825  11.821
 4338W        W 8402   3.356   7.480  11.230
 4339W        W 8403   0.047   2.663   1.051
 4340W        W 8404   2.752   2.193  11.368
 4341W        W 8405   5.231   9.996   0.011
 4342W        W 8406   6.518   8.376   1.756
 4343W        W 8407   4.725   5.504  11.825
 4344W        W 8408   1.669   7.928   9.896
 4345W        W 8409   1.311   2.785   2.605
 4346W        W 8410  10.159   7.271   0.979
 4347W        W 8411   6.578  10.259   9.427
 4348W        W 8412   4.168   8.500   9.856
 4349W        W 8413   5.978   0.006  11.754
 4350W        W 8414   0.113   5.330   0.890
 4351W        W 8415  10.265   6.549   9.062
 4352W        W 8416   8.127   4.110   9.373
 4353W        W 8417   3.354   2.396  10.407
 4354W        W 8418   7.673   5.271  11.421
 4355W        W 8419   6.619   6.909   0.381
 4356W        W 8420   6.129   1.866   0.057
 4357W        W 8421   9.302   0.298   1.306
 4358W        W 8422   5.917   5.736   9.867
 4359W        W 8423   9.039   5.718   2.456
 4360W        W 8424   9.528  10.499   0.935
 4361W        W 8425   0.479   6.076   9.356
 4362W        W 8426   7.499   6.153   2.939
 4363W        W 8427   6.095   6.105   9.502
 4364W        W 8428   6.718   3.064   9.366
 4365W        W 8429   0.814   8.997   2.707
 4366W        W 8430   4.924   2.678   1.959
 4367W        W 8431   3.066   0.218  11.303
 4368W        W 8432   4.227   1.066  10.473
 4369W        W 8433  10.392   6.957   8.745
 4370W        W 8434   3.720   3.337   3.023
 4371W        W 8435   7.531   4.003   4.359
 4372W        W 8436   9.351   6.166  11.378
 4373W        W 8437   2.691   7.414  11.658
 4374W        W 8438   0.524   7.744  11.925
 4375W        W 8439   7.165   4.973   1.924
 4376W        W 8440   0.313   5.010   2.646
 4377W        W 8441   4.127   6.269   2.885
 4378W        W 8442   3.604   3.765  10.368
 4379W        W 8443   5.566   1.665   0.923
 4380W        W 8444   3.737   0.750   8.896
 4381W        W 8445   7.541   1.341  11.120
 4382W        W 8446   2.734   9.756   9.010
 4383W        W 8447   4.718  10.037   0.804
 4384W        W 8448   6.671   8.479   2.241
 4385W        W 8449   5.053   4.010   9.873
 4386W        W 8450   6.917   0.788   9.589
 4387W        W 8451   2.124   6.896   1.897
 4388W        W 8452   8.815   2.915   0.001
 4389W        W 8453   5.106   6.672   2.350
 4390W        W 8454   0.772   2.227   1.169
 4391W        W 8455   9.031   8.899   0.882
 4392W        W 8456   9.845   8.203   2.811
 4393W        W 8457   3.324   7.591  10.221
 4394W        W 8458   4.900   6.202  11.565
 4395W        W 8459   7.047   5.386   1.006
 4396W        W 8460   7.917   6.300   0.900
 4397W        W 8461   8.338   5.921  11.359
 4398W        W 8462   6.321   2.718  10.923
 4399W        W 8463   8.349   6.346   2.597
 4400W        W 8464  10.014   6.168  10.981
 4401W        W 8465   2.085   8.490   2.139
 4402W        W 8466   8.945   2.647   0.997
 4403W        W 8467   9.474   5.445   1.674
 4404W        W 8468   4.086   8.890   0.986
 4405W        W 8469   2.587   9.998  10.438
 4406W        W 8470   5.073   9.564   1.277
 4407W        W 8471   7.064   7.483   9.167
 4408W        W 8472  10.139   6.664  10.967
 4409W        W 8473   4.127   3.761  11.792
 4410W        W 8474   9.964   2.948   8.824
 4411W        W 8475   2.901   9.907  11.404
 4412W        W 8476   5.521   0.745   0.732
 4413W        W 8477   0.349   6.984   3.433
 4414W        W 8478   5.580  10.301   9.412
 4415W        W 8479   7.926   3.311   9.704
 4416W        W 8480   7.377   1.434   8.645
 4417W        W 8481   5.445   5.544   1.881
 4418W        W 8482   9.542   4.484   2.609
 4419W        W 8483   9.944   4.091   1.975
 4420W        W 8484   9.298   8.839  10.813
 4421W        W 8485   5.997   3.505   9.340
 4422W        W 8486   2.826   8.335   0.253
 4423W        W 8487   1.480   4.702   0.914
 4424W        W 8488   9.774   8.883  11.021
 4425W        W 8489   9.828   5.192   0.976
 4426W        W 8490   1.456   6.167   9.436
 4427W        W 8491   8.061   6.128   9.509
 4428W        W 8492   5.190   0.306  10.305
 4429W        W 8493   4.987   3.761   0.517
 4430W        W 8494   2.714   1.191  10.323
 4431W        W 8495   8.537   1.718   2.487
 4432W        W 8496   4.574   3.844  11.525
 4433W        W 8497   5.186  10.028   9.667
 4434W        W 8498   1.381   6.679   3.048
 4435W        W 8499   0.381   8.195   2.739
 4436W        W 8500   6.121   4.279   2.630
 4437W        W 8501   8.046   0.213  10.149
 4438W        W 8502   3.536   9.914   3.184
 4439W        W 8503   5.452   8.574  10.333
 4440W        W 8504   9.404   7.292   0.366
 4441W        W 8505   2.367   7.104   2.492
 4442W        W 8506   2.787   1.839   9.514
 4443W        W 8507   2.358   7.759  10.451
 4444W        W 8508   6.118   4.177   0.259
 4445W        W 8509   4.310   8.057   2.864
 4446W        W 8510   2.691   4.601   9.322
 4447W        W 8511  10.381   8.441   1.780
 4448W        W 8512   1.808   0.309   8.899
 4449W        W 8513   2.224   4.137  11.295
 4450W        W 8514   4.787   6.053   0.022
 4451W        W 8515   6.034   0.843   2.541
 4452W        W 8516   4.671   9.110   9.207
 4453W        W 8517   8.515   1.086   1.417
 4454W        W 8518   8.380   2.635   2.538
 4455W        W 8519   4.684  10.333   1.932
 4456W        W 8520   9.056   0.711  10.785
 4457W        W 8521   0.717   8.536   3.438
 4458W        W 8522   6.117   1.687   1.484
 4459W        W 8523   5.218   8.190   2.773
 4460W        W 8524   0.312   1.700   1.793
 4461W        W 8525   7.401   7.174  10.494
 4462W        W 8526   8.284   5.183   3.055
 4463W        W 8527   7.085   5.336   3.818
 4464W        W 8528  10.294   4.203  11.762
 4465W        W 8529   0.322   7.566   1.930
 4466W        W 8530   9.916   5.520   1.410
 4467W        W 8531   5.651   3.512  11.759
 4468W        W 8532   4.070   2.390  11.372
 4469W        W 8533   6.030   4.093   0.771
 4470W        W 8534   8.007   3.572  10.663
 4471W        W 8535   3.136   0.311   2.645
 4472W        W 8536   5.741   9.151  11.769
 4473W        W 8537   2.834   0.758  10.597
 4474W        W 8538   6.688   1.400   0.461
 4475W        W 8539   7.390   5.583   9.964
 4476W        W 8540   4.182   3.447   1.433
 4477W        W 8541   3.590  10.044   0.008
 4478W        W 8542   4.266   9.616   2.751
 4479W        W 8543   5.630   6.579  10.269
 4480W        W 8544   9.387   1.509  10.781
 4481W        W 8545   8.260   3.750  10.263
 4482W        W 8546   0.696   5.510  11.381
 4483W        W 8547   0.435   1.893   0.888
 4484W        W 8548   4.173   7.055   0.706
 4485W        W 8549   4.229   0.732  11.831
 4486W        W 8550   5.300   8.552   9.345
 4487W        W 8551   1.787   2.121   9.830
 4488W        W 8552   3.325   6.122   9.576
 4489W        W 8553   7.044  10.089   0.316
 4490W        W 8554   1.672   7.756   3.697
 4491W        W 8555   8.438   3.289   9.812
 4492W        W 8556   6.568   2.131  11.483
 4493W        W 8557   1.801   6.989  10.271
 4494W        W 8558   0.368   6.033   2.014
 4495W        W 8559   5.949   7.090   9.613
 4496W        W 8560   2.689   5.157   3.353
 4497W        W 8561   1.885   0.350   1.750
 4498W        W 8562   1.702   7.970  11.947
 4499W        W 8563   6.283   8.264  10.293
 4500W        W 8564   7.018   2.198   2.520
 4501W        W 8565   6.175   8.987   9.042
 4502W        W 8566   8.889   6.196  10.397
 4503W        W 8567   6.322   2.780   3.210
 4504W        W 8568   7.093   2.726   1.207
 4505W        W 8569   9.923   6.490  11.433
 4506W        W 8570   9.512   3.780   1.452
 4507W        W 8571   0.853   6.065   2.298
 4508W        W 8572   7.783   8.149   1.040
 4509W        W 8573   4.284   3.260   3.567
 4510W        W 8574   0.548   8.962   0.213
 4511W        W 8575   5.681   0.278   2.344
 4512W        W 8576   2.183   0.353  10.232
 4513W        W 8577   9.858   6.574   9.379
 4514W        W 8578   3.787   2.976   0.473
 4515W        W 8579   8.860   4.600   9.662
 4516W        W 8580   0.974   9.440  11.536
 4517W        W 8581   1.334   1.449   2.747
 4518W        W 8582   1.820   5.733  11.997
 4519W        W 8583   7.894   7.155  11.197
 4520W        W 8584   9.172   0.062   3.123
 4521W        W 8585   1.499   9.509   0.879
 4522W        W 8586   8.564   0.247   2.006
 4523W        W 8587  10.418   4.202   1.748
 4524W        W 8588   7.180   5.166   1.445
 4525W        W 8589   8.456  10.442   2.398
 4526W        W 8590   3.184   3.321  11.547
 4527W        W 8591   4.643   6.857   0.444
 4528W        W 8592   3.398   5.730  10.765
 4529W        W 8593   9.708   5.662   8.917
 4530W        W 8594   7.867   9.094  10.967
 4531W        W 8595   2.933   0.497  11.780
 4532W        W 8596   9.093   3.742   9.927
 4533W        W 8597   5.718   5.278   2.214
 4534W        W 8598   4.250  10.314   2.238
 4535W        W 8599   0.450   8.088   1.894
 4536W        W 8600   0.906   6.622  11.080
 4537W        W 8601   0.779   3.861   8.162
 4538W        W 8602   5.716   6.888   2.754
 4539W        W 8603   8.372   2.124  10.780
 4540W        W 8604   6.737   0.785  10.846
 4541W        W 8605   5.824   1.522  10.324
 4542W        W 8606   8.259   7.265  11.518
 4543W        W 8607   5.066   9.099   2.314
 4544W        W 8608   6.987   5.285   9.865
 4545W        W 8609   9.838   5.940   0.468
 4546W        W 8610   6.971   3.279   9.767
 4547W        W 8611   4.756   3.804   2.497
 4548W        W 8612   8.657   7.174   9.833
 4549W        W 8613   5.545   7.596   3.248
 4550W        W 8614   3.553   7.148  10.899
 4551W        W 8615   3.020   0.677  11.058
 4552W        W 8616   8.059   8.971  11.927
 4553W        W 8617   9.824   5.109  11.914
 4554W        W 8618   8.920   1.829   9.578
 4555W        W 8619   6.140   3.784  11.784
 4556W        W 8620   7.369   0.321  10.352
 4557W        W 8621   1.125   2.216  10.912
 4558W        W 8622   3.308   3.308   1.324
 4559W        W 8623   8.929   7.819   2.844
 4560W        W 8624   4.746   9.420   0.602
 4561W        W 8625   7.056   1.761   1.417
 4562W        W 8626   2.224   8.638  10.071
 4563W        W 8627   4.335   9.722  10.872
 4564W        W 8628   3.139   5.564   1.845
 4565W        W 8629   5.713   3.078   9.302
 4566W        W 8630   7.188   8.079  10.328
 4567W        W 8631   6.690   5.337   1.463
 4568W        W 8632   9.824   0.772  11.696
 4569W        W 8633   3.929   9.796  11.696
 4570W        W 8634   3.685   6.959   1.504
 4571W        W 8635   1.481   0.199   1.495
 4572W        W 8636   6.061   5.806  11.322
 4573W        W 8637   3.842   4.055   2.208
 4574W        W 8638   4.042   4.216   2.676
 4575W        W 8639   3.237   4.757   3.240
 4576W        W 8640   9.148   6.901   2.561
 4577W        W 8641   2.640   8.413   3.491
 4578W        W 8642   3.844   0.861   1.703
 4579W        W 8643   4.835   6.702   9.853
 4580W        W 8644   2.568   0.225  11.460
 4581W        W 8645   3.340   3.133  10.909
 4582W        W 8646   9.509   9.377   3.358
 4583W        W 8647   6.966   2.919  11.362
 4584W        W 8648   1.261   1.566   1.728
 4585W        W 8649   5.084   6.939   1.225
 4586W        W 8650   7.047   7.204   2.282
 4587W        W 8651   8.032   6.946   2.376
 4588W        W 8652   5.482   3.792   2.681
 4589W        W 8653   8.759   9.798   3.455
 4590W        W 8654   3.653   4.718   1.507
 4591W        W 8655   5.973   8.336  11.953
 4592W        W 8656   1.251   8.088   2.527
 4593W        W 8657   7.881   0.404   2.808
 4594W        W 8658   1.883   8.795  10.980
 4595W        W 8659   1.876   9.468  10.053
 4596W        W 8660   4.674   2.855   2.865
 4597W        W 8661   9.907   1.416   1.561
 4598W        W 8662   6.182   0.393   2.387
 4599W        W 8663   6.595   7.041   1.317
 4600W        W 8664   3.823   4.090   0.155
 4601W        W 8665   3.669   0.731   3.314
 4602W        W 8666   7.827   5.291   9.880
 4603W        W 8667   7.104   8.505   9.999
 4604W        W 8668   4.710   9.020  10.227
 4605W        W 8669   0.826   0.919   1.882
 4606W        W 8670   4.250   7.491   0.468
 4607W        W 8671   2.754   1.046   0.667
 4608W        W 8672   2.766   0.443   2.985
 4609W        W 8673   7.652   3.298   0.720
 4610W        W 8674   4.180   5.335  10.054
 4611W        W 8675   0.521   2.792   2.804
 4612W        W 8676   4.266   4.386   9.031
 4613W        W 8677   7.374   3.865   0.091
 4614W        W 8678   1.920   6.470  10.333
 4615W        W 8679   3.703   4.581  11.954
 4616W        W 8680   8.449   9.026   2.832
 4617W        W 8681   6.420   8.097  10.811
 4618W        W 8682  10.439   6.485  11.342
 4619W        W 8683   6.040   5.565   9.008
 4620W        W 8684   0.747   5.915   2.784
 4621W        W 8685   0.046   6.594   1.236
 4622W        W 8686   8.657  10.470  10.869
 4623W        W 8687   0.051   2.675  10.065
 4624W        W 8688   9.831   5.168  11.050
 4625W        W 8689   5.059   2.818  11.416
 4626W        W 8690   0.601   9.000  11.330
 4627W        W 8691   2.668   2.255   8.475
 4628W        W 8692   8.726   1.061   9.376
 4629W        W 8693   3.497   4.167  11.767
 4630W        W 8694   8.811   8.864  10.625
 4631W        W 8695   8.493   5.024   2.276
 4632W        W 8696   1.132   2.932   0.923
 4633W        W 8697   9.373   6.510   9.215
 4634W        W 8698   7.112   8.350   0.812
 4635W        W 8699   9.856   2.340   1.683
 4636W        W 8700   5.626   4.744   2.838
 4637W        W 8701   2.936  10.424  10.165
 4638W        W 8702   4.522   0.557   2.490
 4639W        W 8703   6.755   6.226   9.915
 4640W        W 8704   5.924   8.590   3.418
 4641W        W 8705   3.070   8.098   2.576
 4642W        W 8706   5.118   9.045   8.934
 4643W        W 8707   6.543   3.608   9.991
 4644W        W 8708   2.544   3.301   9.839
 4645W        W 8709   0.966   6.164  10.850
 4646W        W 8710   8.916   7.431   3.185
 4647W        W 8711   6.914   6.355   3.708
 4648W        W 8712  10.350   4.723   9.830
 4649W        W 8713   5.476   0.444   1.846
 4650W        W 8714   5.498   3.606   1.916
 4651W        W 8715   8.520   7.713   1.409
 4652W        W 8716   6.476   4.536   4.122
 4653W        W 8717   1.802   9.798   1.188
 4654W        W 8718   8.637   4.134   9.471
 4655W        W 8719   0.369   2.880  11.954
 4656W        W 8720   5.006   8.594   2.967
 4657W        W 8721   8.373   5.126   3.529
 4658W        W 8722   8.070  10.316   8.826
 4659W        W 8723  10.436   2.489  11.946
 4660W        W 8724   4.293   8.597   2.837
 4661W        W 8725   9.551  10.073  10.892
 4662W        W 8726   3.902   4.641   9.365
 4663W        W 8727   1.169   7.435   9.053
 4664W        W 8728   4.781   2.092  11.765
 4665W        W 8729   8.768   0.130  11.364
 4666W        W 8730   3.855   5.564   8.438
 4667W        W 8731   3.741   2.284   1.509
 4668W        W 8732   2.229   2.378   9.046
 4669W        W 8733   7.393   4.587   0.815
 4670W        W 8734   5.163   0.842   9.439
 4671W        W 8735   7.034   8.480   1.780
 4672W        W 8736   9.357   3.166   3.296
 4673W        W 8737   0.824   1.009   8.892
 4674W        W 8738   1.175   7.986  11.069
 4675W        W 8739  10.494   0.531   2.185
 4676W        W 8740   5.665   7.033  10.966
 4677W        W 8741   6.585  10.139   3.408
 4678W        W 8742   8.520   1.483  10.851
 4679W        W 8743   7.537   4.805  10.731
 4680W        W 8744   4.681   4.691  10.462
 4681W        W 8745   3.764   0.897  11.680
 4682W        W 8746   9.604   3.838  10.324
 4683W        W 8747   8.686   3.200   9.348
 4684W        W 8748   3.321   5.521  11.982
 4685W        W 8749   5.691   4.801   9.876
 4686W        W 8750   0.254   0.828  10.172
 4687W        W 8751   3.200   5.924   8.498
 4688W        W 8752   1.837   7.903  10.435
 4689W        W 8753   6.594  10.229   1.865
 4690W        W 8754   8.088   9.861   1.899
 4691W        W 8755   4.632   7.874  11.188
 4692W        W 8756   2.607   0.895   1.155
 4693W        W 8757   6.208   7.406   0.007
 4694W        W 8758   9.319   2.470   9.571
 4695W        W 8759   1.819   6.763   2.771
 4696W        W 8760   1.657   6.853   9.804
 4697W        W 8761   0.216   2.029   9.519
 4698W        W 8762   8.535   6.057  11.816
 4699W        W 8763   3.165   2.862   8.791
 4700W        W 8764   9.872   0.818   1.721
 4701W        W 8765   5.473   8.993   0.798
 4702W        W 8766   6.116   3.263  11.655
 4703W        W 8767   9.990   1.722  11.917
 4704W        W 8768   3.007   4.102  11.819
 4705W        W 8769   1.764   1.295  10.241
 4706W        W 8770   3.572   0.065  11.247
 4707W        W 8771   0.376   6.930   8.957
 4708W        W 8772   7.090   5.709   1.384
 4709W        W 8773   5.499   2.846   9.713
 4710W        W 8774   8.452   2.121   1.674
 4711W        W 8775   8.465   9.753   0.244
 4712W        W 8776   6.444   9.347   0.357
 4713W        W 8777   6.968   4.644   4.339
 4714W        W 8778   8.555   3.804   9.854
 4715W        W 8779   3.237   2.330   1.435
 4716W        W 8780   1.379   5.205   1.387
 4717W        W 8781   0.193   0.729   3.169
 4718W        W 8782   7.896   5.001  11.047
 4719W        W 8783   0.711   4.980   9.759
 4720W        W 8784  10.280   5.666   9.634
 4721W        W 8785  10.106   3.617   8.568
 4722W        W 8786   9.117   4.738  10.648
 4723W        W 8787   7.624   0.413   0.361
 4724W        W 8788   5.265   4.063   2.284
 4725W        W 8789   9.893   9.909   3.084
 4726W        W 8790   1.960   8.289  11.025
 4727W        W 8791   9.253   4.051  11.802
 4728W        W 8792   1.403   5.549  10.045
 4729W        W 8793   2.244   8.468   9.562
 4730W        W 8794   8.440   6.426  11.289
 4731W        W 8795   8.330   8.324   3.019
 4732W        W 8796   7.688   9.972   1.299
 4733W        W 8797   7.079   3.588  10.170
 4734W        W 8798   9.395   6.005  10.898
 4735W        W 8799   7.788  10.231   1.734
 4736W        W 8800   4.727   5.823   9.509
 4737W        W 8801   6.178   6.256   2.298
 4738W        W 8802   7.522   2.186  10.257
 4739W        W 8803   6.608   0.221   0.694
 4740W        W 8804   6.144   0.931   8.423
 4741W        W 8805   7.380   0.876   0.399
 4742W        W 8806   9.588   3.851   9.815
 4743W        W 8807  10.379   9.217   2.042
 4744W        W 8808   6.143   8.051   1.897
 4745W        W 8809  10.210   1.561   0.334
 4746W        W 8810   7.101   5.089   0.175
 4747W        W 8811   8.603   3.050   2.297
 4748W        W 8812   2.807   5.188   9.035
 4749W        W 8813   8.262   6.188   9.955
 4750W        W 8814   4.217   6.721  10.557
 4751W        W 8815   3.634   3.663   8.917
 4752W        W 8816   0.770   3.548   8.706
 4753W        W 8817   4.313   3.306  10.457
 4754W        W 8818   3.687   6.723  10.053
 4755W        W 8819   0.809   0.736   3.158
 4756W        W 8820   2.785   8.351  10.853
 4757W        W 8821   4.665   4.928   9.359
 4758W        W 8822   5.519   5.865  10.765
 4759W        W 8823   5.317   5.062   1.936
 4760W        W 8824   7.518   0.762   9.602
 4761W        W 8825   5.137   6.206  11.041
 4762W        W 8826   6.575   6.142   3.040
 4763W        W 8827   5.486   1.345   9.466
 4764W        W 8828  10.430   3.515   0.466
 4765W        W 8829   2.477   5.231  11.498
 4766W        W 8830  10.206   3.989   3.700
 4767W        W 8831   9.406   6.630   2.209
 4768W        W 8832   2.668   1.191   9.477
 4769W        W 8833  10.405   9.125  10.896
 4770W        W 8834   0.867   3.107   0.067
 4771W        W 8835   4.602   6.371   3.664
 4772W        W 8836   2.450   5.160  12.000
 4773W        W 8837   7.756   0.654  10.075
 4774W        W 8838   0.808   0.246   3.637
 4775W        W 8839   3.113  10.437   1.433
 4776W        W 8840   8.406   7.279   2.465
 4777W        W 8841   8.460   7.564   2.862
 4778W        W 8842   0.845   7.658   0.346
 4779W        W 8843   0.938   9.513   0.921
 4780W        W 8844   0.927   9.868  11.263
 4781W        W 8845   8.734   9.781  11.789
 4782W        W 8846   1.056   6.329   2.795
 4783W        W 8847  10.437   9.967   0.905
 4784W        W 8848   4.576   2.985  11.426
 4785W        W 8849   1.841   0.854   2.882
 4786W        W 8850   1.701   2.559   2.357
 4787W        W 8851   5.989   0.526   0.131
 4788W        W 8852   8.046   4.883   1.137
 4789W        W 8853   2.683   2.406   2.404
 4790W        W 8854   0.283   3.638  10.520
 4791W        W 8855   3.627   6.214  10.054
 4792W        W 8856   6.568   5.221   0.896
 4793W        W 8857   6.588   5.936   9.532
 4794W        W 8858   6.694   8.687   0.853
 4795W        W 8859   2.348   0.754   2.853
 4796W        W 8860   6.768   9.117   0.030
 4797W        W 8861   1.715   3.109   8.932
 4798W        W 8862   4.973   7.324   9.954
 4799W        W 8863   1.914  10.020   0.285
 4800W        W 8864   9.011   1.655   8.268
 4801W        W 8865   6.562   0.679   2.205
 4802W        W 8866   9.575   6.604   3.155
 4803W        W 8867   2.215   3.395   8.823
 4804W        W 8868   1.770   7.453   0.173
 4805W        W 8869   1.314   6.115  10.448
 4806W        W 8870   3.860   4.628   8.836
 4807W        W 8871   3.734   8.591   9.091
 4808W        W 8872   4.089   2.386   8.926
 4809W        W 8873   1.196   7.979   9.654
 4810W        W 8874   4.196   4.799   8.114
 4811W        W 8875   3.939   2.742  10.867
 4812W        W 8876   4.027   0.005   1.828
 4813W        W 8877   6.571   9.976   1.274
 4814W        W 8878   7.011   6.204   2.207
 4815W        W 8879   4.297  10.050   9.470
 4816W        W 8880   3.656   0.813   0.686
 4817W        W 8881  10.407   3.571   0.987
 4818W        W 8882   1.235   1.076  11.557
 4819W        W 8883   9.590   7.867   0.796
 4820W        W 8884   5.547   3.452   8.968
 4821W        W 8885   7.007   2.422  11.556
 4822W        W 8886   0.989   4.204  11.327
 4823W        W 8887   9.453   0.027  10.709
 4824W        W 8888   1.243  10.223   9.904
 4825W        W 8889   4.336   0.493  11.336
 4826W        W 8890   2.709   9.981   9.935
 4827W        W 8891   4.153   2.948   3.159
 4828W        W 8892  10.463   9.429  10.513
 4829W        W 8893   3.284   8.427   1.580
 4830W        W 8894   3.360   3.206   2.640
 4831W        W 8895   3.245   5.132  10.252
 4832W        W 8896   5.242   0.010   2.291
 4833W        W 8897   9.486   1.871   1.483
 4834W        W 8898   4.139   8.914   3.288
 4835W        W 8899   2.331   5.275   8.789
 4836W        W 8900   7.934   8.450   0.122
 4837W        W 8901   0.475   4.321   9.319
 4838W        W 8902   4.675   7.012   3.948
 4839W        W 8903   9.868   4.672   0.757
 4840W        W 8904   8.151   9.039   1.820
 4841W        W 8905   0.682   9.877  10.817
 4842W        W 8906   5.181   0.424  11.666
 4843W        W 8907   4.932   7.069   9.496
 4844W        W 8908   9.750   4.161  11.805
 4845W        W 8909   1.337   5.779   8.536
 4846W        W 8910   5.736   9.892  10.359
 4847W        W 8911   2.365   4.579   2.271
 4848W        W 8912   4.141   6.905  10.059
 4849W        W 8913   6.943   4.415   1.056
 4850W        W 8914   5.742  10.060   0.023
 4851W        W 8915   9.436   2.845   8.710
 4852W        W 8916   8.113   4.340  11.310
 4853W        W 8917   6.633   9.938  10.376
 4854W        W 8918   5.468   3.609   4.024
 4855W        W 8919   2.951   6.425  11.870
 4856W        W 8920   6.827   7.078   3.546
 4857W        W 8921   2.354  10.438   2.299
 4858W        W 8922   9.739   2.159  10.256
 4859W        W 8923   6.977   4.619   0.549
 4860W        W 8924   3.681   9.501   2.177
 4861W        W 8925   0.280   4.180   3.043
 4862W        W 8926   3.053   0.441   8.931
 4863W        W 8927   0.705   6.670   1.898
 4864W        W 8928   6.644   2.586  11.906
 4865W        W 8929   6.348   9.140   3.716
 4866W        W 8930   4.700   1.832  10.064
 4867W        W 8931   0.671   3.656   2.506
 4868W        W 8932   4.492   0.341   8.933
 4869W        W 8933   0.875   6.352   0.888
 4870W        W 8934   0.342   2.329  11.008
 4871W        W 8935  10.381   0.847   0.955
 4872W        W 8936   3.609   3.669  11.932
 4873W        W 8937   7.570   8.768  11.949
 4874W        W 8938   8.517   1.371  10.055
 4875W        W 8939   7.118   7.637  10.629
 4876W        W 8940   0.337  10.047   1.210
 4877W        W 8941   5.129   6.905   0.274
 4878W        W 8942   4.919   0.041   1.407
 4879W        W 8943   4.335   7.010   1.825
 4880W        W 8944   6.476   0.311   9.869
 4881W        W 8945   0.775  10.384   0.353
 4882W        W 8946   8.386   3.150  10.333
 4883W        W 8947   2.985   5.312   0.885
 4884W        W 8948   5.975   3.214   2.688
 4885W        W 8949   2.423   6.471   9.439
 4886W        W 8950   4.950   3.220   3.503
 4887W        W 8951   6.943   0.789  10.393
 4888W        W 8952   6.338   4.587   2.081
 4889W        W 8953   1.890   8.427  10.524
 4890W        W 8954   2.636   0.722  11.394
 4891W        W 8955   7.681   1.772   8.387
 4892W        W 8956   9.467   6.715   1.342
 4893W        W 8957   0.987   0.243   1.381
 4894W        W 8958   7.183   7.694   2.235
 4895W        W 8959   5.136   7.594  10.385
 4896W        W 8960   9.431   9.526   1.533
 4897W        W 8961  10.500   8.498   1.293
 4898W        W 8962   7.389   6.673   2.871
 4899W        W 8963   8.663   2.247   8.826
 4900W        W 8964   8.200   9.974  11.881
 4901W        W 8965   2.225   2.514   8.551
 4902W        W 8966   6.642   4.918   1.789
 4903W        W 8967   0.172   8.487   0.806
 4904W        W 8968   9.240   2.748   2.746
 4905W        W 8969   4.411   6.187  11.439
 4906W        W 8970   3.125  10.316   0.478
 4907W        W 8971   8.951   1.188  10.768
 4908W        W 8972   2.803   1.256   8.633
 4909W        W 8973   8.830   2.608  10.474
 4910W        W 8974   7.809   4.965   9.155
 4911W        W 8975   0.836   4.472   9.651
 4912W        W 8976   6.414   2.858  10.432
 4913W        W 8977   0.231   8.985   0.659
 4914W        W 8978   6.458   1.142   2.409
 4915W        W 8979   5.918   3.661   4.260
 4916W        W 8980   6.451   7.403   2.618
 4917W        W 8981   7.555   3.756   2.982
 4918W        W 8982   9.635   3.244   1.791
 4919W        W 8983   9.386   1.803  11.236
 4920W        W 8984   9.467   7.780   0.292
 4921W        W 8985   1.471   8.788   0.128
 4922W        W 8986   7.038   5.481   9.154
 4923W        W 8987   0.035   4.161  10.519
 4924W        W 8988   7.697   8.092  10.402
 4925W        W 8989   0.817   7.090   3.293
 4926W        W 8990   0.616   9.839   2.140
 4927W        W 8991   2.197   1.295  11.011
 4928W        W 8992   3.297   6.013  11.874
 4929W        W 8993   0.025   3.317  11.105
 4930W        W 8994   8.548   3.313   1.181
 4931W        W 8995   4.498   6.470   1.716
 4932W        W 8996   5.985   2.614  10.443
 4933W        W 8997   1.705   8.000   2.780
 4934W        W 8998   6.955   9.511   9.995
 4935W        W 8999   7.202   6.568  11.209
 4936W        W 9000   2.488   7.551   2.745
 4937W        W 9001   7.273   1.686   0.962
 4938W        W 9002   6.236   4.488   3.381
 4939W        W 9003   6.017   0.417  10.101
 4940W        W 9004   0.137   4.707   1.984
 4941W        W 9005   0.575   4.092   3.470
 4942W        W 9006   9.949   3.520   0.268
 4943W        W 9007   7.922   7.185   1.910
 4944W        W 9008   4.682   3.965   3.910
 4945W        W 9009  10.022   9.065   2.374
 4946W        W 9010   8.537   4.968   8.422
 4947W        W 9011   7.477   4.140  10.429
 4948W        W 9012   2.232   1.143  11.867
 4949W        W 9013   0.770   3.687   2.011
 4950W        W 9014   9.096   1.665   1.197
 4951W        W 9015   4.430   4.203  11.889
 4952W        W 9016   5.577   1.397   1.547
 4953W        W 9017   7.474   0.752   2.625
 4954W        W 9018   6.626   4.690   3.645
 4955W        W 9019   0.999   8.992   1.664
 4956W        W 9020   1.976   6.235   9.450
 4957W        W 9021   3.709   2.682   3.272
 4958W        W 9022   2.340   4.258  10.028
 4959W        W 9023   7.609   7.957   3.221
 4960W        W 9024   8.841   8.911   3.146
 4961W        W 9025   0.174   4.764   0.296
 4962W        W 9026   2.773   4.817  11.652
 4963W        W 9027   6.246   8.365   9.762
 4964W        W 9028   1.046   3.554   2.848
 4965W        W 9029   6.858   8.972   2.213
 4966W        W 9030   2.666   8.513   1.672
 4967W        W 9031   6.958   3.822  11.320
 4968W        W 9032  10.324   8.929   3.381
 4969W        W 9033   1.971   2.551  11.835
 4970W        W 9034   5.616   0.867   9.198
 4971W        W 9035   7.525   8.730   2.807
 4972W        W 9036   0.866   4.325   3.140
 4973W        W 9037   5.429   3.301   9.918
 4974W        W 9038   3.064   4.093   2.866
 4975W        W 9039   7.835   4.524  11.695
 4976W        W 9040   1.398   2.996   2.135
 4977W        W 9041   7.597   9.779   1.964
 4978W        W 9042   0.794   3.163   0.573
 4979W        W 9043   3.601   6.422   2.722
 4980W        W 9044   2.759   9.075   0.693
 4981W        W 9045   9.148   6.566   3.429
 4982W        W 9046   5.473   0.617  10.698
 4983W        W 9047   0.856   9.841   2.584
 4984W        W 9048   7.598   9.990   8.636
 4985W        W 9049   4.210   7.769  11.623
 4986W        W 9050   1.977   1.050   2.407
 4987W        W 9051   2.161  10.084   1.432
 4988W        W 9052   3.625   1.957   2.605
 4989W        W 9053   7.434   4.273  10.914
 4990W        W 9054   7.126   1.798   8.932
 4991W        W 9055   8.575   6.845   1.186
 4992W        W 9056   7.934   2.698   2.232
 4993W        W 9057   9.435   5.567   9.767
 4994W        W 9058   4.636   7.865   1.904
 4995W        W 9059   4.820   0.331  11.299
 4996W        W 9060   6.402   0.846  10.458
 4997W        W 9061   1.632   2.818  10.446
 4998W        W 9062   0.785   1.681   3.330
 4999W        W 9063   4.532   7.121   9.811
 5000W        W 9064   1.985   3.014   8.500
 5001W        W 9065   9.803   5.920  10.583
 5002W        W 9066   4.870   7.578   9.510
 5003W        W 9067   3.400   6.554   9.291
 5004W        W 9068   0.482   2.556   0.316
 5005W        W 9069   1.864   4.226   8.781
 5006W        W 9070   2.217   1.632   8.899
 5007W        W 9071   2.713   3.796   9.782
 5008W        W 9072   4.824   1.172  11.381
 5009W        W 9073   1.648   5.185   0.707
 5010W        W 9074   9.909   6.108   9.118
 5011W        W 9075   9.015   4.233   2.021
 5012W        W 9076   9.209  10.070   9.400
 5013W        W 9077   6.510   9.478  10.249
 5014W        W 9078   8.288   4.520   8.549
 5015W        W 9079   8.825   2.087  11.627
 5016W        W 9080   8.108   9.263  10.133
 5017W        W 9081   9.934   2.109   3.176
 5018W        W 9082  10.210   5.651   9.098
 5019W        W 9083   7.109   6.782  10.326
 5020W        W 9084   9.973  10.278  10.506
 5021W        W 9085   2.254   0.804   8.546
 5022W        W 9086   4.742   5.995   0.528
 5023W        W 9087   8.097   6.730  10.541
 5024W        W 9088   1.231   1.923   3.171
 5025W        W 9089   8.446   5.497   1.690
 5026W        W 9090   5.547   3.350   2.935
 5027W        W 9091  10.275   7.506   2.761
 5028W        W 9092   8.852   4.211   2.911
 5029W        W 9093   0.187   5.646   9.281
 5030W        W 9094   7.596   4.626  10.264
 5031W        W 9095   6.246   0.204   1.516
 5032W        W 9096   4.299  10.042   1.762
 5033W        W 9097   7.964   9.575   0.122
 5034W        W 9098   6.466   4.558   9.908
 5035W        W 9099   9.290   8.372   9.694
 5036W        W 9100   4.163   2.229  10.879
 5037W        W 9101   0.341   4.958   1.192
 5038W        W 9102   3.874   7.208   1.915
 5039W        W 9103   1.625  10.370   1.842
 5040W        W 9104   4.715   7.419   2.803
 5041W        W 9105   8.921   9.829   8.841
 5042W        W 9106   2.107   7.192   2.919
 5043W        W 9107   1.818   1.200   3.283
 5044W        W 9108   8.067   2.136   0.412
 5045W        W 9109   7.032   6.257  10.323
 5046W        W 9110   0.712   4.338  11.751
 5047W        W 9111   5.931   7.841   0.004
 5048W        W 9112  10.342   0.927  10.506
 5049W        W 9113   9.967   6.023   1.407
 5050W        W 9114   7.515   3.623  10.478
 5051W        W 9115   1.442   0.061   0.988
 5052W        W 9116   5.942   6.594   0.287
 5053W        W 9117   2.678   7.455   0.174
 5054W        W 9118   0.222   4.103  10.060
 5055W        W 9119   5.939  10.042  11.553
 5056W        W 9120   9.321   7.901   9.447
 5057W        W 9121   4.474   0.377   8.399
 5058W        W 9122   7.931   7.674  11.353
 5059W        W 9123   6.143   5.929  11.810
 5060W        W 9124   1.850   8.964  11.700
 5061W        W 9125   6.430   6.910  11.519
 5062W        W 9126   4.740   3.381  11.696
 5063W        W 9127   8.490   2.199   2.255
 5064W        W 9128   6.903   5.146  11.234
 5065W        W 9129   5.583   7.879  11.323
 5066W        W 9130   9.397   3.716   1.938
 5067W        W 9131   2.941   0.640   2.072
 5068W        W 9132   5.288   0.457  11.157
 5069W        W 9133   2.869   8.572   0.731
 5070W        W 9134   4.063   1.545  10.582
 5071W        W 9135   1.836   4.921  11.596
 5072W        W 9136   2.811   0.133   2.239
 5073W        W 9137   4.149   0.789   0.891
 5074W        W 9138   6.138   6.757   2.329
 5075W        W 9139   3.692   6.122   0.235
 5076W        W 9140   8.803   5.978  10.858
 5077W        W 9141   7.904   9.925   3.339
 5078W        W 9142   4.106   7.496   3.535
 5079W        W 9143   2.586   7.134   3.070
 5080W        W 9144   2.760   1.249   1.485
 5081W        W 9145   1.968   7.518   0.814
 5082W        W 9146   1.242   5.762   2.833
 5083W        W 9147   8.500   7.419  11.114
 5084W        W 9148   3.932   6.781   2.886
 5085W        W 9149   6.990   7.623   0.072
 5086W        W 9150   7.936   0.085   2.078
 5087W        W 9151   0.306   2.338   2.446
 5088W        W 9152   7.971   0.915   2.796
 5089W        W 9153   5.766   3.398   8.484
 5090W        W 9154   5.260   4.643   3.178
 5091W        W 9155   6.501   1.977   2.795
 5092W        W 9156   6.637   0.673  11.777
 5093W        W 9157   1.920   9.915  11.321
 5094W        W 9158   4.711   0.904   1.672
 5095W        W 9159   9.884   8.361   1.910
 5096W        W 9160   7.556   5.718   2.600
 5097W        W 9161   0.300  10.433   3.466
 5098W        W 9162   8.155   1.822   2.168
 5099W        W 9163   8.997   1.166   1.232
 5100W        W 9164   3.852   6.462   4.105
 5101W        W 9165   6.885   3.209   8.774
 5102W        W 9166   8.707   0.414   2.536
 5103W        W 9167   1.146   6.882   1.807
 5104W        W 9168   7.940   0.944  10.462
 5105W        W 9169   9.057   9.483  11.455
 5106W        W 9170   5.061   1.266   0.906
 5107W        W 9171   9.926   0.450  11.280
 5108W        W 9172   5.947   1.061  10.496
 5109W        W 9173   9.981   6.536   1.344
 5110W        W 9174   5.577  10.205   1.415
 5111W        W 9175   7.457   2.896   0.447
 5112W        W 9176   8.657   1.642   8.740
 5113W        W 9177   6.091   9.922   2.195
 5114W        W 9178   2.290   4.660   0.256
 5115W        W 9179   1.702   8.776   0.597
 5116W        W 9180   0.311   1.179   9.045
 5117W        W 9181  10.300   5.274  11.877
 5118W        W 9182   4.048   6.661  11.932
 5119W        W 9183   8.241   1.019   9.501
 5120W        W 9184   4.323   1.764  10.951
 5121W        W 9185   5.721   5.275   1.122
 5122W        W 9186   1.689   3.147  10.065
 5123W        W 9187  10.114   7.865   3.100
 5124W        W 9188   5.572   8.891  11.187
 5125W        W 9189   4.721   0.257  10.119
 5126W        W 9190   3.643   2.455   9.563
 5127W        W 9191   3.635   2.232  11.575
 5128W        W 9192   0.500   6.346  10.773
 5129W        W 9193   8.994   0.370   1.708
 5130W        W 9194   7.139   6.682   0.221
 5131W        W 9195   7.553   9.481   1.286
 5132W        W 9196   1.637   2.530   9.567
 5133W        W 9197   1.379   6.092   8.940
 5134W        W 9198   2.474   4.149   0.370
 5135W        W 9199   0.889   8.988   2.195
 5136W        W 9200   2.300   0.544   1.427
 5137W        W 9201   6.434   9.341  11.260
 5138W        W 9202   1.542   8.614   3.653
 5139W        W 9203  10.179   6.985   1.855
 5140W        W 9204  10.366   9.314   9.505
 5141W        W 9205   0.740   9.417  11.051
 5142W        W 9206   2.495   5.122   0.924
 5143W        W 9207   0.808   2.389  11.258
 5144W        W 9208   4.174   1.231   1.179
 5145W        W 9209   6.010   5.717   0.401
 5146W        W 9210   2.246   4.242  11.855
 5147W        W 9211   9.077   8.799   0.061
 5148W        W 9212   9.459  10.014   0.229
 5149W        W 9213   4.773   6.539  11.215
 5150W        W 9214   9.367   2.130   1.934
 5151W        W 9215   1.745   7.154   9.396
 5152W        W 9216   3.892   5.481  10.806
 5153W        W 9217   4.627   3.759   0.041
 5154W        W 9218   4.356   4.279  10.426
 5155W        W 9219   2.827   0.923   9.039
 5156W        W 9220   5.315   6.236  11.894
 5157W        W 9221   4.198   0.304   1.225
 5158W        W 9222   3.177   2.374   0.565
 5159W        W 9223   8.926   1.653  10.578
 5160W        W 9224  10.364   3.736  10.230
 5161W        W 9225   6.296   9.025  10.368
 5162W        W 9226   9.568   3.208   9.067
 5163W        W 9227   1.717   9.031  10.285
 5164W        W 9228   6.111   3.640  11.288
 5165W        W 9229   0.900   1.192   3.358
 5166W        W 9230   3.536  10.487   1.721
 5167W        W 9231   5.018   9.585   8.741
 5168W        W 9232   0.356   9.105  11.770
 5169W        W 9233   2.249   8.764   8.800
 5170W        W 9234   0.356   1.303   1.243
 5171W        W 9235   6.461   3.832   1.501
 5172W        W 9236   2.812   5.920   2.591
 5173W        W 9237   0.206   5.463   2.835
 5174W        W 9238   0.892   4.438   2.644
 5175W        W 9239   3.526   2.165   9.987
 5176W        W 9240   4.688   6.106   9.055
 5177W        W 9241   7.019   6.373   0.877
 5178W        W 9242   8.111   8.682   2.177
 5179W        W 9243   5.187   7.209  10.934
 5180W        W 9244   8.961   1.573  11.090
 5181W        W 9245   9.825   4.513   8.682
 5182W        W 9246   0.386   1.427   2.201
 5183W        W 9247   1.319   7.644   2.795
 5184W        W 9248   0.478   5.999   0.163
 5185W        W 9249   6.248   6.498  10.597
 5186W        W 9250   8.288   3.654   1.842
 5187W        W 9251   9.000   6.066   9.438
 5188W        W 9252   0.644   5.365  10.522
 5189W        W 9253   2.197   0.287   8.564
 5190W        W 9254   1.653   8.685   2.339
 5191W        W 9255   5.632   8.507   0.707
 5192W        W 9256   5.212   6.012   0.326
 5193W        W 9257   4.539   1.919   3.204
 5194W        W 9258   4.091   3.760   9.859
 5195W        W 9259   2.913   6.038  11.520
 5196W        W 9260   0.877   1.387  11.741
 5197W        W 9261   6.279   1.682   0.960
 5198W        W 9262   8.212   0.374   2.435
 5199W        W 9263   9.491   7.075   2.948
 5200W        W 9264   3.148   8.052  10.569
 5201W        W 9265  10.158   2.134   9.926
 5202W        W 9266   7.716   8.981   0.390
 5203W        W 9267   5.844   6.518   1.342
 5204W        W 9268   4.567  10.056   1.304
 5205W        W 9269   7.116   8.576  11.047
 5206W        W 9270   1.455   6.110  11.787
 5207W        W 9271   8.675   5.569  11.195
 5208W        W 9272   2.153   7.891   9.167
 5209W        W 9273   4.239   4.070   3.640
 5210W        W 9274   1.679   9.958   3.188
 5211W        W 9275   6.977   4.148   8.391
 5212W        W 9276   8.091   9.447   9.173
 5213W        W 9277   1.949   5.029   0.114
 5214W        W 9278   4.297   8.381   2.264
 5215W        W 9279   0.413   4.167   2.542
 5216W        W 9280   5.408   6.375   1.695
 5217W        W 9281   7.341   9.010   1.312
 5218W        W 9282   7.711   3.747   1.024
 5219W        W 9283   1.336   4.736   2.750
 5220W        W 9284   4.264   6.180   9.377
 5221W        W 9285   6.093   3.041   1.199
 5222W        W 9286   6.180   9.999  10.587
 5223W        W 9287   7.673   1.850   9.375
 5224W        W 9288   8.108   7.577  11.876
 5225W        W 9289  10.248   1.858   9.499
 5226W        W 9290   5.084   5.059   2.381
 5227W        W 9291   5.803   8.183  10.484
 5228W        W 9292   9.201   5.540   8.777
 5229W        W 9293   1.703  10.270   1.316
 5230W        W 9294   2.693   2.287   9.274
 5231W        W 9295   7.735   6.043   0.467
 5232W        W 9296   4.348   8.585   1.300
 5233W        W 9297   6.892   3.948   1.232
 5234W        W 9298   9.449   5.622   3.149
 5235W        W 9299   5.093   8.607   0.112
 5236W        W 9300   4.823   2.287  10.247
 5237W        W 9301   9.384   1.946   2.888
 5238W        W 9302   2.421   2.781   2.157
 5239W        W 9303   8.755   1.184   2.492
 5240W        W 9304   1.498   9.475   3.071
 5241W        W 9305   7.209   0.571  10.846
 5242W        W 9306   0.803   4.182   2.205
 5243W        W 9307  10.217   4.500   2.160
 5244W        W 9308   5.382   6.101   3.343
 5245W        W 9309   8.628   0.485   0.672
 5246W        W 9310   4.529   4.045   9.325
 5247W        W 9311   6.590   7.425   0.355
 5248W        W 9312   1.484  10.203   0.071
 5249W        W 9313   0.867   2.138   8.532
 5250W        W 9314   2.938   8.108   1.850
 5251W        W 9315   8.476   6.484  10.324
 5252W        W 9316   2.109   4.210   1.852
 5253W        W 9317   4.940   9.997   8.428
 5254W        W 9318   2.037   1.842   1.088
 5255W        W 9319   0.375   3.426   9.487
 5256W        W 9320   9.474   3.288   0.888
 5257W        W 9321   4.956   7.802   1.109
 5258W        W 9322   6.536   3.744   3.495
 5259W        W 9323   9.897   3.055   9.853
 5260W        W 9324   0.485   5.064   1.690
 5261W        W 9325   2.248   1.974   8.521
 5262W        W 9326   9.081   8.670   2.301
 5263W        W 9327   9.480   0.011   9.464
 5264W        W 9328   6.445   8.213  11.842
 5265W        W 9329  10.441   9.758   9.831
 5266W        W 9330   9.681   2.148   9.748
 5267W        W 9331   8.932   0.664   1.262
 5268W        W 9332   9.424   7.436   9.614
 5269W        W 9333   4.864   1.354   0.452
 5270W        W 9334   2.011   6.169   2.729
 5271W        W 9335   6.097   2.228   2.620
 5272W        W 9336   9.763   9.491   0.409
 5273W        W 9337   9.832   1.143   3.046
 5274W        W 9338   3.400   2.808   1.418
 5275W        W 9339   1.772   5.153   2.196
 5276W        W 9340   4.586   3.660   3.505
 5277W        W 9341   4.614   0.944   0.664
 5278W        W 9342   7.595   8.837   3.301
 5279W        W 9343   1.682   5.730  11.503
 5280W        W 9344   4.852   4.391   9.589
 5281W        W 9345   5.542   7.445   0.756
 5282W        W 9346   7.802   8.008  10.939
 5283W        W 9347   3.200   5.550   8.913
 5284W        W 9348   3.920   6.151  11.349
 5285W        W 9349   9.275  10.448   1.796
 5286W        W 9350   6.994   0.809   2.439
 5287W        W 9351   5.209   7.059   2.655
 5288W        W 9352   0.451   6.856   1.472
 5289W        W 9353   2.960   3.229   3.481
 5290W        W 9354   0.853   2.372   2.672
 5291W        W 9355  10.004   4.114  11.359
 5292W        W 9356   0.086   6.036   8.413
 5293W        W 9357   5.039   7.045   3.457
 5294W        W 9358   9.694   2.882   2.998
 5295W        W 9359   7.400  10.011  11.486
 5296W        W 9360  10.426   3.097   0.756
 5297W        W 9361   9.427   9.495   1.010
 5298W        W 9362   4.622   8.121   0.900
 5299W        W 9363   8.879   9.948   0.498
 5300W        W 9364   4.280   0.410   9.907
 5301W        W 9365   8.429   5.424   9.463
 5302W        W 9366  10.414   2.146   9.097
 5303W        W 9367   2.569   9.672   2.270
 5304W        W 9368   5.275   7.412   1.197
 5305W        W 9369   1.735   6.167   0.761
 5306W        W 9370   9.508   0.496  10.974
 5307W        W 9371  10.046   8.852   1.874
 5308W        W 9372   9.713   0.835   9.439
 5309W        W 9373   9.311   5.973   2.797
 5310W        W 9374   5.220   8.277   1.934
 5311W        W 9375   2.150   0.423   9.338
 5312W        W 9376   4.010  10.244   1.377
 5313W        W 9377   0.326   0.295  10.253
 5314W        W 9378   4.060   4.991   1.316
 5315W        W 9379   3.187   0.866   0.445
 5316W        W 9380  10.045   2.418   8.827
 5317W        W 9381  10.271   5.212   3.373
 5318W        W 9382   9.069   3.224   0.407
 5319W        W 9383   6.970  10.449  10.960
 5320W        W 9384   4.057   4.460   1.349
 5321W        W 9385   6.032   9.037  11.352
 5322W        W 9386   1.971   4.241  10.400
 5323W        W 9387   7.573   1.445  11.635
 5324W        W 9388   2.899   9.832   0.476
 5325W        W 9389   7.644   5.236   2.702
 5326W        W 9390   0.960   8.417   8.853
 5327W        W 9391  10.300   4.530  11.361
 5328W        W 9392   0.755   4.507   1.348
 5329W        W 9393   3.075   0.981   9.694
 5330W        W 9394   1.186   8.885   8.955
 5331W        W 9395   7.484   3.810   2.437
 5332W        W 9396   5.217   5.856  11.379
 5333W        W 9397   4.346   7.078   2.855
 5334W        W 9398   7.480   3.709   3.495
 5335W        W 9399   0.161   3.190   3.254
 5336W        W 9400   7.416   7.010   1.945
 5337W        W 9401   2.703   6.496   3.213
 5338W        W 9402   5.120   2.603   2.865
 5339W        W 9403   2.372   6.869   0.615
 5340W        W 9404   9.020   6.934   3.070
 5341W        W 9405   8.361   0.883   0.484
 5342W        W 9406   5.365   6.519   1.195
 5343W        W 9407   2.272   7.555   2.220
 5344W        W 9408   5.042   9.510  11.235
 5345W        W 9409   9.820   0.728   3.351
 5346W        W 9410   9.361   2.866   1.182
 5347W        W 9411   0.802   7.421   9.954
 5348W        W 9412   5.193   4.716   8.742
 5349W        W 9413   6.442   1.370   8.999
 5350W        W 9414   1.506   2.769   1.255
 5351W        W 9415   9.416   8.530  10.360
 5352W        W 9416   0.650   6.464   0.027
 5353W        W 9417   1.389   8.464   9.188
 5354W        W 9418   7.566   7.077   1.167
 5355W        W 9419   4.287   6.773   4.238
 5356W        W 9420   0.488   0.361   1.440
 5357W        W 9421   8.173   8.003  10.564
 5358W        W 9422   4.141   6.149  11.898
 5359W        W 9423   7.995   5.846   9.113
 5360W        W 9424   9.962   7.856   1.798
 5361W        W 9425   5.605   8.954  10.647
 5362W        W 9426   7.830   1.396   1.985
 5363W        W 9427   0.085   0.241   2.963
 5364W        W 9428   1.260   3.666   1.535
 5365W        W 9429   8.401   7.008   0.721
 5366W        W 9430   1.271   7.046   9.480
 5367W        W 9431   4.102   5.362   8.868
 5368W        W 9432   6.139   3.535   2.263
 5369W        W 9433   9.841   2.768   1.990
 5370W        W 9434   6.554   6.153   0.818
 5371W        W 9435   9.393   4.702   9.294
 5372W        W 9436   1.557   1.304   0.554
 5373W        W 9437   9.468   5.630  11.276
 5374W        W 9438   0.776   2.998  10.546
 5375W        W 9439   2.441   5.604   3.222
 5376W        W 9440   0.627   9.390   2.403
 5377W        W 9441   2.420   0.388   9.772
 5378W        W 9442   9.969   1.876   1.286
 5379W        W 9443   2.245   7.300  11.902
 5380W        W 9444   6.941   3.776  11.842
 5381W        W 9445   4.612   8.318   3.188
 5382W        W 9446   5.600   9.845  10.887
 5383W        W 9447   8.367   6.617   9.004
 5384W        W 9448   8.831   9.868  10.250
 5385W        W 9449   4.537   9.070   1.153
 5386W        W 9450   3.193   9.184   1.023
 5387W        W 9451   3.720   8.091   9.027
 5388W        W 9452   5.976   3.593   3.546
 5389W        W 9453   8.371   0.058   0.862
 5390W        W 9454   2.019   9.441   0.332
 5391W        W 9455   4.728   1.494  11.010
 5392W        W 9456   2.328   9.193   2.279
 5393W        W 9457   6.593   4.812  10.905
 5394W        W 9458   0.239   7.414  11.045
 5395W        W 9459   9.248   1.896   0.493
 5396W        W 9460   4.174   0.462   1.749
 5397W        W 9461   2.300   4.376   8.555
 5398W        W 9462   4.115   3.551   2.291
 5399W        W 9463   7.375   6.517   8.369
 5400W        W 9464   2.916   0.372   9.857
 5401W        W 9465   4.716   7.070   8.952
 5402W        W 9466   0.796   3.116   9.511
 5403W        W 9467   0.032   1.166   0.344
 5404W        W 9468   7.511   5.659   9.127
 5405W        W 9469   1.279   1.903   0.862
 5406W        W 9470   5.142   8.954  10.473
 5407W        W 9471  10.402   0.051  10.919
 5408W        W 9472   3.160   7.709   2.257
 5409W        W 9473   2.854   6.146   9.335
 5410W        W 9474   7.076   6.945  10.863
 5411W        W 9475   0.353   5.022  10.771
 5412W        W 9476   3.759   1.270   0.866
 5413W        W 9477   9.085   0.263   0.819
 5414W        W 9478   7.935   3.353  10.212
 5415W        W 9479   8.140   2.740   9.057
 5416W        W 9480   9.879   9.782  10.619
 5417W        W 9481   4.368   8.807   8.547
 5418W        W 9482   6.283  10.321   9.836
 5419W        W 9483  10.328   4.749   9.308
 5420W        W 9484   3.197   6.264   0.289
 5421W        W 9485   5.040   3.839   1.880
 5422W        W 9486  10.212   5.742  11.728
 5423W        W 9487   3.340   5.265   2.240
 5424W        W 9488   1.236   6.566   9.690
 5425W        W 9489   1.685   7.850  10.917
 5426W        W 9490   7.285   7.180   9.980
 5427W        W 9491   5.755   1.778  10.756
 5428W        W 9492   3.040   3.260   9.971
 5429W        W 9493   7.289   6.119   9.888
 5430W        W 9494   6.425   1.208   0.851
 5431W        W 9495   7.565   0.210  11.878
 5432W        W 9496   1.957   9.381   2.814
 5433W        W 9497   8.707   6.993   3.460
 5434W        W 9498   0.463   6.885   2.957
 5435W        W 9499   6.213   0.175   9.442
 5436W        W 9500   1.917   7.596   9.539
 5437W        W 9501   7.154   4.541  10.516
 5438W        W 9502   5.231   2.654   2.367
 5439W        W 9503   5.711   3.904   9.116
 5440W        W 9504   4.254   9.971   8.888
 5441W        W 9505   3.397   7.424   1.844
 5442W        W 9506   5.663   0.281  11.449
 5443W        W 9507   1.247   7.093  10.031
 5444W        W 9508   7.465   8.265  11.911
 5445W        W 9509   2.899   1.032   2.446
 5446W        W 9510   0.061   7.526   0.198
 5447W        W 9511   5.061   7.546   3.502
 5448W        W 9512   1.257   3.728   9.596
 5449W        W 9513   4.699   4.736   2.438
 5450W        W 9514   4.207   9.368   0.872
 5451W        W 9515   3.196   1.458   9.589
 5452W        W 9516   3.188   7.089   3.571
 5453W        W 9517   1.163   5.385   1.871
 5454W        W 9518  10.030   7.031   9.578
 5455W        W 9519   9.655   7.629   8.275
 5456W        W 9520   7.524   8.170   9.916
 5457W        W 9521  10.063   6.401   3.248
 5458W        W 9522   6.531   0.244  11.434
 5459W        W 9523   1.987   4.777   8.988
 5460W        W 9524   5.644   0.907   1.681
 5461W        W 9525   2.409  10.472  10.525
 5462W        W 9526   0.143   9.794   2.355
 5463W        W 9527   2.611   4.311   2.778
 5464W        W 9528   6.097   8.803  11.835
 5465W        W 9529   4.706   6.029   1.526
 5466W        W 9530   7.546   4.256   2.831
 5467W        W 9531   5.276   3.595   0.946
 5468W        W 9532   4.572   5.911   3.829
 5469W        W 9533   9.860   9.770   3.554
 5470W        W 9534   3.431   1.826   1.363
 5471W        W 9535   4.424   5.682   1.271
 5472W        W 9536   7.697   9.956   9.579
 5473W        W 9537   6.044   9.483  10.483
 5474W        W 9538   8.348   7.043   8.650
 5475W        W 9539   8.515   8.036   2.679
 5476W        W 9540   2.876   7.584   1.829
 5477W        W 9541   1.861   1.345   3.767
 5478W        W 9542   3.606   9.184   0.281
 5479W        W 9543   1.407   7.099   1.009
 5480W        W 9544   1.686   0.212   9.377
 5481W        W 9545   6.726   6.567  10.797
 5482W        W 9546   5.556   9.787   9.413
 5483W        W 9547   0.333   0.968   9.517
 5484W        W 9548  10.459   6.164   0.977
 5485W        W 9549   5.069   6.157  10.562
 5486W        W 9550   0.108   9.185  11.340
 5487W        W 9551   7.098   7.133   1.388
 5488W        W 9552   4.967  10.491   8.786
 5489W        W 9553   3.748   6.194   9.174
 5490W        W 9554   3.333   0.472   1.168
 5491W        W 9555   4.808   2.921  10.986
 5492W        W 9556   2.743   3.233  11.260
 5493W        W 9557   6.524   9.838   3.007
 5494W        W 9558   4.248   9.541  11.382
 5495W        W 9559   0.722   9.129   0.647
 5496W        W 9560   9.064   2.264   8.339
 5497W        W 9561   9.959   6.628   9.903
 5498W        W 9562   5.155  10.018  11.108
 5499W        W 9563   7.037   2.662   2.779
 5500W        W 9564   3.799   2.942   9.657
 5501W        W 9565   3.219   2.368  11.282
 5502W        W 9566   6.574   3.758   8.899
 5503W        W 9567   1.032   7.899  11.906
 5504W        W 9568  10.328   3.142  10.129
 5505W        W 9569   3.066   2.783   2.291
 5506W        W 9570   0.474   5.627   2.390
 5507W        W 9571   7.741   1.551   1.060
 5508W        W 9572   1.144   9.731   9.737
 5509W        W 9573   2.162   6.129   9.933
 5510W        W 9574   9.261   6.528   8.713
 5511W        W 9575   0.162   6.023   3.406
 5512W        W 9576   8.089   6.461   0.434
 5513W        W 9577   7.540   1.923   1.347
 5514W        W 9578   9.824   3.354   3.095
 5515W        W 9579   5.448   2.964   8.866
 5516W        W 9580   5.946   6.626   1.836
 5517W        W 9581   6.173   0.857   3.038
 5518W        W 9582   7.557   1.575   9.776
 5519W        W 9583   0.440   6.476  11.262
 5520W        W 9584   6.288   6.148   0.341
 5521W        W 9585   3.796   3.165   2.356
 5522W        W 9586   2.838   0.457   1.309
 5523W        W 9587   3.729   9.520  11.305
 5524W        W 9588   0.711   3.658   3.703
 5525W        W 9589   7.983   6.673   1.804
 5526W        W 9590   9.210   2.810   9.190
 5527W        W 9591   1.294   0.990   9.521
 5528W        W 9592   1.377   1.485   9.532
 5529W        W 9593   1.845   3.790  11.266
 5530W        W 9594   9.066   5.285  11.423
 5531W        W 9595   4.221   8.009   0.153
 5532W        W 9596   5.063   4.100   2.776
 5533W        W 9597   3.737   3.298   9.277
 5534W        W 9598   6.078   3.260   0.186
 5535W        W 9599   3.538   8.018   2.413
 5536W        W 9600   3.325   0.691  10.630
 5537W        W 9601   0.116   7.069   0.883
 5538W        W 9602   4.500   7.590   0.045
 5539W        W 9603   1.887   0.815  10.426
 5540W        W 9604   7.409   5.651   4.095
 5541W        W 9605   1.787   6.660   0.597
 5542W        W 9606   3.945   5.532   1.131
 5543W        W 9607   8.605   8.834   2.253
 5544W        W 9608   5.058   4.897  11.483
 5545W        W 9609   9.077   5.759  11.585
 5546W        W 9610   5.245   6.419   9.983
 5547W        W 9611   5.693   6.479   0.822
 5548W        W 9612   2.402  10.397   3.488
 5549W        W 9613   2.474   0.862  10.936
 5550W        W 9614   1.036   5.684  10.454
 5551W        W 9615   7.132   2.242   2.011
 5552W        W 9616   3.989   0.313  10.940
 5553W        W 9617   7.456   6.296   2.457
 5554W        W 9618   2.289   1.940   9.306
 5555W        W 9619   5.945   7.520   3.546
 5556W        W 9620   4.419  10.337   0.505
 5557W        W 9621   4.108   6.633   8.602
 5558W        W 9622   5.745   2.529  11.827
 5559W        W 9623   6.969   7.131   9.530
 5560W        W 9624   7.409   2.239  10.743
 5561W        W 9625   6.437   5.683   0.134
 5562W        W 9626   3.364   9.585   8.534
 5563W        W 9627   2.170   5.919   0.876
 5564W        W 9628   5.991   2.817   0.430
 5565W        W 9629   6.493   2.446   8.569
 5566W        W 9630   0.828   2.804   2.385
 5567W        W 9631   2.071   8.458   0.730
 5568W        W 9632   4.214   6.107   0.427
 5569W        W 9633   5.728   1.273  10.927
 5570W        W 9634   6.402   9.124   0.915
 5571W        W 9635   0.060   6.410   3.085
 5572W        W 9636   5.160   1.835   8.833
 5573W        W 9637   5.902   0.958   0.435
 5574W        W 9638   2.052   9.968   3.518
 5575W        W 9639   4.667   9.428  10.573
 5576W        W 9640   7.039   8.582   1.268
 5577W        W 9641   1.747   8.536   9.538
 5578W        W 9642   8.050   7.882   2.953
 5579W        W 9643   6.109   0.490  11.124
 5580W        W 9644   1.162   0.424   0.181
 5581W        W 9645   1.510   4.261   0.254
 5582W        W 9646   9.301   4.657   3.545
 5583W        W 9647   3.148   3.625   9.561
 5584W        W 9648   8.889   8.807  11.548
 5585W        W 9649   9.779   7.430   0.700
 5586W        W 9650   3.282   1.571  10.874
 5587W        W 9651   7.400   1.633   0.467
 5588W        W 9652   5.914   8.037   2.340
 5589W        W 9653   6.995   2.774   9.746
 5590W        W 9654   2.661   2.858   0.974
 5591W        W 9655   3.036   9.793   3.178
 5592W        W 9656   9.578   7.182   2.457
 5593W        W 9657   8.204   6.250   3.547
 5594W        W 9658   4.707   0.330  11.953
 5595W        W 9659   0.257   5.425   1.377
 5596W        W 9660   5.990   8.006   1.408
 5597W        W 9661   6.569   3.644  11.029
 5598W        W 9662   7.113   1.369   3.176
 5599W        W 9663   9.992   7.078   2.720
 5600W        W 9664   9.827   0.980  11.216
 5601W        W 9665   5.236   3.168   9.397
 5602W        W 9666   9.337   6.057   8.963
 5603W        W 9667   1.321   9.971   1.891
 5604W        W 9668   6.968   8.097  11.829
 5605W        W 9669   3.128   6.663   0.560
 5606W        W 9670   7.295  10.387  10.046
 5607W        W 9671   7.518   2.376   1.140
 5608W        W 9672   6.586   2.112  10.013
 5609W        W 9673   9.456   1.055   0.936
 5610W        W 9674   2.242   9.133  10.097
 5611W        W 9675   8.079   1.410  11.847
 5612W        W 9676   5.637   3.402   2.367
 5613W        W 9677   3.805   5.949   9.614
 5614W        W 9678  10.451   1.956   0.049
 5615W        W 9679   4.149   1.307   2.235
 5616W        W 9680   4.684   9.291   1.978
 5617W        W 9681   7.844   5.610   0.198
 5618W        W 9682   5.546   8.913   2.504
 5619W        W 9683   0.792   5.189  10.992
 5620W        W 9684   8.983   4.581   0.779
 5621W        W 9685   5.230   9.957   9.062
 5622W        W 9686   0.210   6.948   0.367
 5623W        W 9687   8.035   4.508   9.044
 5624W        W 9688   0.228   2.820   2.369
 5625W        W 9689   7.455   3.141  10.244
 5626W        W 9690   1.446   9.230   3.859
 5627W        W 9691   2.269  10.038  10.919
 5628W        W 9692   8.882   8.831   1.358
 5629W        W 9693   6.554   7.858   2.858
 5630W        W 9694   0.934   8.633   0.130
 5631W        W 9695   4.188   6.111   1.469
 5632W        W 9696   6.559   8.667   0.003
 5633W        W 9697   2.422   1.725   0.188
 5634W        W 9698   0.176   9.934   8.859
 5635W        W 9699   7.567   8.035   2.239
 5636W        W 9700   2.275   5.109   1.994
 5637W        W 9701   2.721   3.567  10.271
 5638W        W 9702   5.283   2.642   1.184
 5639W        W 9703   5.935   9.017   1.188
 5640W        W 9704   7.942   3.242   3.505
 5641W        W 9705   4.677   7.935  11.708
 5642W        W 9706   1.958   8.943   0.198
 5643W        W 9707  10.492   0.247   9.389
 5644W        W 9708   4.987   4.459  10.099
 5645W        W 9709   0.459  10.386   2.938
 5646W        W 9710   4.576   2.852   3.473
 5647W        W 9711   7.260   3.178   1.546
 5648W        W 9712   8.415   8.113   9.846
 5649W        W 9713   1.574   8.547  11.302
 5650W        W 9714   0.860   7.984   1.226
 5651W        W 9715   8.154   3.644   1.222
 5652W        W 9716   1.923   7.870   1.973
 5653W        W 9717   2.867   9.415   1.394
 5654W        W 9718   8.492   2.441   1.247
 5655W        W 9719   1.836   1.183   9.748
 5656W        W 9720   3.313   5.029   1.775
 5657W        W 9721   7.105   5.977   9.077
 5658W        W 9722   0.120   5.398  10.515
 5659W        W 9723   6.077  10.277   1.696
 5660W        W 9724   4.082   2.907  11.375
 5661W        W 9725   6.450   9.303   9.364
 5662W        W 9726   6.910   8.966  11.300
 5663W        W 9727   3.478   2.204   1.016
 5664W        W 9728   3.342   6.734  11.748
 5665W        W 9729   0.597   4.983  11.418
 5666W        W 9730  10.366   5.430  11.358
 5667W        W 9731   5.536   4.117   1.840
 5668W        W 9732   0.858   2.260   3.182
 5669W        W 9733   5.217   7.030   9.084
 5670W        W 9734   3.255   5.153   9.278
 5671W        W 9735   0.503   8.255   9.069
 5672W        W 9736   0.993   7.373   0.785
 5673W        W 9737   1.009   2.131   0.226
 5674W        W 9738   7.852   6.647   0.008
 5675W        W 9739   9.351   0.575   3.131
 5676W        W 9740   4.617   4.471   3.903
 5677W        W 9741   6.424   0.157  11.960
 5678W        W 9742  10.489   3.930   0.156
 5679W        W 9743   6.099   9.327   9.988
 5680W        W 9744   4.574   5.318   9.688
 5681W        W 9745   8.527   5.901   9.565
 5682W        W 9746   9.905   8.289  11.981
 5683W        W 9747   5.645   1.811   8.985
 5684W        W 9748   1.240   0.317  11.032
 5685W        W 9749   3.284   8.332   8.827
 5686W        W 9750   9.468   7.832  10.975
 5687W        W 9751   9.937   9.803   1.662
 5688W        W 9752   5.702   3.475  10.346
 5689W        W 9753   7.386   3.132   8.860
 5690W        W 9754   1.838   7.908   0.470
 5691W        W 9755   1.350   3.829   1.048
 5692W        W 9756   5.142   8.642   0.628
 5693W        W 9757   0.747   0.890  11.550
 5694W        W 9758   1.409   0.236   9.888
 5695W        W 9759   8.155   6.006   1.341
 5696W        W 9760   9.489   5.714   1.229
 5697W        W 9761   0.882   5.427  10.023
 5698W        W 9762   3.664   5.897   3.638
 5699W        W 9763   3.488  10.319   9.389
 5700W        W 9764   7.626   1.844   8.879
 5701W        W 9765   1.296   4.961  10.960
 5702W        W 9766   7.713   6.390   9.775
 5703W        W 9767   5.084   3.639   1.405
 5704W        W 9768   1.203  10.257   1.408
 5705W        W 9769   6.605   3.259   3.283
 5706W        W 9770   0.846   3.995   9.482
 5707W        W 9771   1.324   7.857  10.558
 5708W        W 9772   3.414   7.549   2.697
 5709W        W 9773   2.813   4.072  10.200
 5710W        W 9774   1.665   2.799  11.510
 5711W        W 9775   0.858   6.473  11.567
 5712W        W 9776   5.466   8.414   3.184
 5713W        W 9777   2.173   3.273   1.781
 5714W        W 9778   5.993   5.452  11.979
 5715W        W 9779   7.666   0.102   0.766
 5716W        W 9780   2.123   9.331   9.618
 5717W        W 9781   7.666   1.216   0.658
 5718W        W 9782   3.712   3.621   1.657
 5719W        W 9783   7.115  10.462   3.160
 5720W        W 9784   5.685   0.784  11.139
 5721W        W 9785   7.991   2.623   0.248
 5722W        W 9786   3.327   0.727  11.463
 5723W        W 9787   8.789   2.291   9.823
 5724W        W 9788   2.768   1.478   9.893
 5725W        W 9789   6.941   4.933  10.262
 5726W        W 9790   4.443   5.162   3.604
 5727W        W 9791   1.244   9.282   1.263
 5728W        W 9792   2.404   5.680   9.959
 5729W        W 9793   3.214   3.299   9.105
 5730W        W 9794   9.109   3.304   1.865
 5731W        W 9795   5.500   3.720   0.510
 5732W        W 9796   0.198   9.570  11.952
 5733W        W 9797   5.105   3.149   1.169
 5734W        W 9798   5.712   6.422   3.143
 5735W        W 9799  10.311   7.186  10.845
 5736W        W 9800   9.869   9.052   1.448
 5737W        W 9801   6.885   9.928   2.607
 5738W        W 9802   4.608   2.383   0.697
 5739W        W 9803   1.345   0.873   0.355
 5740W        W 9804   6.145   0.055  10.762
 5741W        W 9805   3.772   5.000   2.143
 5742W        W 9806   1.295   1.011   3.060
 5743W        W 9807   3.880   0.892  11.186
 5744W        W 9808   7.429   9.553   9.765
 5745W        W 9809   7.031   8.145  11.312
 5746W        W 9810  10.041  10.388   2.876
 5747W        W 9811   1.846   1.686   9.589
 5748W        W 9812   4.751  10.455   9.671
 5749W        W 9813   6.243   9.912   8.755
 5750W        W 9814   2.889   7.577   9.337
 5751W        W 9815   2.419   6.112  11.465
 5752W        W 9816   7.604   5.392   2.178
 5753W        W 9817   4.557   3.110   1.820
 5754W        W 9818   8.971   0.435   9.131
 5755W        W 9819   8.306   2.219  10.270
 5756W        W 9820   9.159  10.314   1.290
 5757W        W 9821   6.968   6.088  10.797
 5758W        W 9822   4.443   7.739   1.235
 5759W        W 9823   9.412   2.096   3.385
 5760W        W 9824   4.141   7.008   3.326
 5761W        W 9825   4.589   8.814   2.145
 5762W        W 9826   2.148   2.402   9.558
 5763W        W 9827   4.671   8.377  11.448
 5764W        W 9828   4.517   5.458   9.214
 5765W        W 9829   5.176   0.956  10.936
 5766W        W 9830   9.471   4.883   2.930
 5767W        W 9831  10.317   2.887   3.587
 5768W        W 9832   4.624   0.441   1.515
 5769W        W 9833   3.429   5.631   8.124
 5770W        W 9834   8.609   0.974   0.916
 5771W        W 9835   1.461   9.289   8.763
 5772W        W 9836   2.212   6.413   0.785
 5773W        W 9837   2.908   4.799   0.869
 5774W        W 9838   8.098   8.531   1.129
 5775W        W 9839   8.876   7.411  10.251
 5776W        W 9840   0.978  10.200  10.552
 5777W        W 9841   7.354   4.110   1.025
 5778W        W 9842   1.162   6.517  12.000
 5779W        W 9843   2.487   9.591  10.763
 5780W        W 9844   7.107   9.936  10.225
 5781W        W 9845   3.073   7.997   9.548
 5782W        W 9846   0.429   5.211   9.378
 5783W        W 9847   9.047   7.946   3.343
 5784W        W 9848   0.310   8.611  11.920
 5785W        W 9849   7.522   5.546   3.602
 5786W        W 9850   0.538   8.626  10.610
 5787W        W 9851   8.386   9.467   1.944
 5788W        W 9852   8.950   6.616  11.495
 5789W        W 9853   0.854   2.152   9.047
 5790W        W 9854   7.511   6.504   1.976
 5791W        W 9855   4.540   4.150   1.314
 5792W        W 9856   0.459   4.556  10.538
 5793W        W 9857   3.707   0.795   2.756
 5794W        W 9858   5.535   3.309  10.852
 5795W        W 9859   2.502   1.733  11.337
 5796W        W 9860   2.374   0.335   1.952
 5797W        W 9861   3.177   5.261   3.274
 5798W        W 9862   4.231  10.204  11.725
 5799W        W 9863   0.526   4.618   3.423
 5800W        W 9864   9.153   6.636  10.570
 5801W        W 9865  10.264   7.201   0.485
 5802W        W 9866   0.727   6.071   9.837
 5803W        W 9867   0.186   8.142   0.091
 5804W        W 9868   2.126   2.102   0.024
 5805W        W 9869   3.675   5.031   4.230
 5806W        W 9870   4.638   5.730   2.417
 5807W        W 9871   7.530   2.635   0.000
 5808W        W 9872   8.992   9.437  10.482
 5809W        W 9873   9.990  10.230  11.049
 5810W        W 9874   3.340   8.383   0.610
 5811W        W 9875   0.960  10.398   0.978
 5812W        W 9876   8.454   1.746  10.409
 5813W        W 9877   3.153   4.797   0.386
 5814W        W 9878   5.652   2.305   2.891
 5815W        W 9879   0.501   1.123  10.504
 5816W        W 9880   3.640   8.151   3.383
 5817W        W 9881   9.360   9.424   0.060
 5818W        W 9882   1.727   3.762  10.281
 5819W        W 9883   6.217   7.678  11.126
 5820W        W 9884   2.601  10.383   1.345
 5821W        W 9885   9.098   9.875   0.950
 5822W        W 9886   0.670   8.233  11.969
 5823W        W 9887   9.975   4.623  11.793
 5824W        W 9888   1.486   3.458   2.515
 5825W        W 9889   3.802   9.321   2.674
 5826W        W 9890   3.068   9.604   9.879
 5827W        W 9891   0.364   3.914   9.627
 5828W        W 9892   1.337   3.714   9.099
 5829W        W 9893   0.872   8.574   1.391
 5830W        W 9894   4.051   7.489   8.983
 5831W        W 9895   3.336   0.465   0.159
 5832W        W 9896   9.457   9.987   1.747
 5833W        W 9897   2.316   5.976   0.372
 5834W        W 9898   3.815   0.421  11.952
 5835W        W 9899   1.073   9.935   3.537
 5836W        W 9900   9.510   3.446  11.021
 5837W        W 9901   2.109   4.368   2.784
 5838W        W 9902   5.057   7.108   8.589
 5839W        W 9903   4.233   1.802   9.817
 5840W        W 9904   0.502  10.299   0.785
 5841W        W 9905   2.684   5.943  10.788
 5842W        W 9906   0.787   0.321   9.973
 5843W        W 9907   6.566   1.643  11.837
 5844W        W 9908   4.545   5.055   3.073
 5845W        W 9909   3.962   5.064   3.777
 5846W        W 9910   1.942   4.703   1.984
 5847W        W 9911   1.848   7.027   8.913
 5848W        W 9912   8.297   2.363   9.777
 5849W        W 9913   4.653   5.012  11.760
 5850W        W 9914   5.102   4.977  10.108
 5851W        W 9915   0.205   7.042   1.900
 5852W        W 9916  10.314   0.064   2.107
 5853W        W 9917   6.781   7.033   9.998
 5854W        W 9918   1.053   3.975  10.421
 5855W        W 9919   6.954   4.522   1.953
 5856W        W 9920   5.964   6.462   2.707
 5857W        W 9921   1.963   9.778   9.439
 5858W        W 9922   3.068  10.010  11.989
 5859W        W 9923   2.581   6.601  11.570
 5860W        W 9924   4.721   0.728  11.626
 5861W        W 9925   7.118   1.741   9.988
 5862W        W 9926   2.617  10.281   1.855
 5863W        W 9927  10.063   9.499   2.815
 5864W        W 9928   2.170   2.292   2.319
 5865W        W 9929   1.297   3.108  11.355
 5866W        W 9930   3.756   9.349   9.474
 5867W        W 9931   0.510  10.486  11.867
 5868W        W 9932   0.964   3.360  11.632
 5869W        W 9933  10.325   7.941   9.738
 5870W        W 9934   6.123   6.631   9.477
 5871W        W 9935   0.497   5.730  10.182
 5872W        W 9936   6.719   5.008   4.049
 5873W        W 9937   7.847   3.106   0.194
 5874W        W 9938   3.770   7.142   0.369
 5875W        W 9939   6.486   4.091  10.198
 5876W        W 9940   7.679   8.388   3.536
 5877W        W 9941   6.621   2.614  10.044
 5878W        W 9942   5.985   5.693   1.233
 5879W        W 9943   4.138   4.265   1.806
 5880W        W 9944  10.476  10.409  10.384
 5881W        W 9945   5.547   9.589  11.943
 5882W        W 9946   5.527   0.227   3.205
 5883W        W 9947   6.443   4.040  11.366
 5884W        W 9948   9.491   1.304   2.291
 5885W        W 9949   8.327   5.753  10.877
 5886W        W 9950   5.727   2.136   3.394
 5887W        W 9951   3.100   9.371   1.861
 5888W        W 9952   5.029   5.037   2.887
 5889W        W 9953   2.508   2.757   9.384
 5890W        W 9954   0.347   3.034   9.822
 5891W        W 9955   4.107   3.884  11.292
 5892W        W 9956   1.287   9.004   2.526
 5893W        W 9957   1.978   0.373   3.564
 5894W        W 9958   7.846   8.429   3.060
 5895W        W 9959   6.487   7.290   1.751
 5896W        W 9960   7.231   0.883   9.995
 5897W        W 9961   1.350   8.149   3.513
 5898W        W 9962   6.552   5.772   3.852
 5899W        W 9963   2.311   5.193  10.206
 5900W        W 9964   4.998   3.373   8.054
 5901W        W 9965   1.142   4.313   1.006
 5902W        W 9966   1.601   4.952   9.915
 5903W        W 9967   8.685   1.565   3.481
 5904W        W 9968   3.532   3.127   1.904
 5905W        W 9969   2.209   5.254   3.546
 5906W        W 9970   5.555   2.627   3.312
 5907W        W 9971   7.240   6.214   0.445
 5908W        W 9972   5.229   1.349  11.675
 5909W        W 9973   9.119   7.042   0.684
 5910W        W 9974   2.297   2.794   9.890
 5911W        W 9975  10.031   4.035  10.518
 5912W        W 9976  10.082   1.322  10.216
 5913W        W 9977   7.724   9.466   2.665
 5914W        W 9978   0.852   1.625  10.282
 5915W        W 9979   3.777   8.458  11.018
 5916W        W 9980   3.080   0.027  11.996
 5917W        W 9981   1.988   9.346   1.021
 5918W        W 9982   5.344   6.840   3.097
 5919W        W 9983   9.719  10.415   0.435
 5920W        W 9984   4.304   2.437  10.309
 5921W        W 9985   7.704   8.013   0.287
 5922W        W 9986   4.708   1.387   1.505
 5923W        W 9987   6.583   9.694  11.982
 5924W        W 9988   3.277   5.766   2.305
 5925W        W 9989   6.026   4.292   9.975
 5926W        W 9990   5.012   1.343   9.206
 5927W        W 9991   6.968   9.496  10.532
 5928W        W 9992   0.602   6.619   0.507
 5929W        W 9993   8.924  10.357   9.053
 5930W        W 9994   9.139   7.014   9.829
 5931W        W 9995   9.356   5.154   0.755
 5932W        W 9996   9.907   7.542   9.845
 5933W        W 9997   9.662   0.428   2.439
 5934W        W 9998   2.323   9.775   1.048
 5935W        W 9999   8.179   3.139   2.006
 5936W        W10000   3.314   1.284   2.271
 5937W        W10001   6.032   1.803   2.961
 5938W        W10002   6.038   7.382  10.332
 5939W        W10003   2.426   9.484   2.705
 5940W        W10004   7.245   1.207   9.591
 5941W        W10005   2.699   1.982  10.034
 5942W        W10006   8.643   9.535  10.836
 5943W        W10007   9.345   7.110   2.011
 5944W        W10008   5.739   6.077   2.463
 5945W        W10009   3.922   1.358  11.394
 5946W        W10010   3.246   4.315   1.294
 5947W        W10011   4.540   4.064   9.849
 5948W        W10012   5.207   5.612   3.132
 5949W        W10013   7.943   3.561   2.634
 5950W        W10014   2.789   3.361  10.738
 5951W        W10015   4.755  10.034   8.877
 5952W        W10016   1.868  10.310   8.724
 5953W        W10017   7.405   5.005   9.971
 5954W        W10018   1.908   2.331   0.470
 5955W        W10019   1.090   5.551   1.091
 5956W        W10020  10.271   8.038   1.388
 5957W        W10021   0.827   8.098  11.469
 5958W        W10022   1.013   0.163   8.602
 5959W        W10023   5.426   7.584   4.251
 5960W        W10024   0.022   5.854   2.455
 5961W        W10025   5.439   0.327   9.393
 5962W        W10026  10.447   6.998   9.262
 5963W        W10027   4.606   7.401  11.608
 5964W        W10028   1.297   2.366   9.206
 5965W        W10029   6.976   7.678  11.539
 5966W        W10030   5.285   2.159  10.088
 5967W        W10031   5.478   4.002  11.682
 5968W        W10032   3.300   5.548   3.678
 5969W        W10033   1.788   7.579   3.119
 5970W        W10034   9.042   1.526   2.232
 5971W        W10035   4.374   4.522   9.505
 5972W        W10036   6.591   2.111   0.041
 5973W        W10037   4.637  10.469  11.579
 5974W        W10038   3.188   7.057   9.989
 5975W        W10039   4.637   4.404   8.435
 5976W        W10040   3.234   9.922   2.724
 5977W        W10041   3.405   3.488   3.404
 5978W        W10042   5.769   5.604   8.584
 5979W        W10043   6.051  10.064  11.060
 5980W        W10044   2.553   9.437   1.818
 5981W        W10045   2.929   6.050   3.126
 5982W        W10046  10.005   9.729   0.801
 5983W        W10047   9.793   1.651   2.950
 5984W        W10048   5.595   4.381   8.479
 5985W        W10049   2.542   9.156  10.500
 5986W        W10050   1.263  10.329   0.538
 5987W        W10051   9.193   0.901   2.371
 5988W        W10052   5.075   8.171   0.410
 5989W        W10053  10.215   8.856   9.103
 5990W        W10054   9.391   1.390   2.769
 5991W        W10055  10.018   1.807   9.014
 5992W        W10056   2.507   8.234   0.857
 5993W        W10057   8.464   1.085  10.503
 5994W        W10058   3.734   7.081   1.017
 5995W        W10059   6.634   6.601  10.269
 5996W        W10060   3.027   2.698   9.286
 5997W        W10061   8.909   6.076   3.241
 5998W        W10062   8.713   3.891   3.703
 5999W        W10063   9.115  10.274  11.062
 6000W        W10064   9.789   8.941   3.334
 6001W        W10065   5.712   4.761   8.998
 6002W        W10066   0.270   2.224   1.279
 6003W        W10067   2.657   3.847  10.734
 6004W        W10068  10.261   2.647   1.507
 6005W        W10069   3.388   8.488   2.611
 6006W        W10070   5.485   2.272   8.812
 6007W        W10071   3.711   4.129   3.558
 6008W        W10072   5.606   4.912   8.510
 6009W        W10073   3.335   7.505   9.723
 6010W        W10074   4.670   8.130   1.440
 6011W        W10075   8.982   1.690   2.715
 6012W        W10076   9.508   9.939   1.245
 6013W        W10077   8.691   2.722   9.084
 6014W        W10078   2.622   3.062  10.326
 6015W        W10079   2.277   3.835  10.311
 6016W        W10080   0.622   7.584  10.574
 6017W        W10081   6.700   1.667  11.303
 6018W        W10082   8.562   8.847   0.012
 6019W        W10083   2.270   9.876   1.909
 6020W        W10084   6.368   0.491   9.033
 6021W        W10085   7.339   5.738   0.220
 6022W        W10086   9.870   9.225   8.923
 6023W        W10087   6.715   7.850   3.355
 6024W        W10088   1.840   6.533   1.124
 6025W        W10089   8.080   9.437   1.090
 6026W        W10090   7.419   5.606   0.697
 6027W        W10091   0.289   4.742   9.561
 6028W        W10092   1.644   1.980   0.180
 6029W        W10093   2.219  10.291  11.948
 6030W        W10094   5.703   1.589   0.273
 6031W        W10095   0.742   1.283   9.330
 6032W        W10096   2.634   5.501   9.523
 6033W        W10097   2.763   4.249   3.283
 6034W        W10098   8.905  10.453   2.699
 6035W        W10099   1.827   3.732   8.929
 6036W        W10100   7.933  10.360   9.350
 6037W        W10101   5.216   1.892   1.693
 6038W        W10102   6.603   3.068  11.728
 6039W        W10103   6.395   3.289  10.706
 6040W        W10104   8.126   5.716  11.773
 6041W        W10105   8.949   5.303  11.966
 6042W        W10106   1.866   1.257   8.771
 6043W        W10107   8.795   0.173   1.240
 6044W        W10108   3.322   8.156   1.120
 6045W        W10109   0.692   9.830   8.882
 6046W        W10110   4.242   7.564   3.049
 6047W        W10111   5.525   4.994   9.429
 6048W        W10112   2.401   9.971   0.592
 6049W        W10113   1.784   5.693   2.834
 6050W        W10114   6.519  10.465   1.124
 6051W        W10115   5.070   0.808  10.462
 6052W        W10116   6.039   2.252  10.772
 6053W        W10117   8.132   9.686   2.400
 6054W        W10118   7.273   7.963   1.801
 6055W        W10119   4.190   1.486   3.206
 6056W        W10120   4.095   2.633   2.196
 6057W        W10121   0.263   9.610  11.003
 6058W        W10122   6.917   1.336   1.670
 6059W        W10123   5.163   9.277   1.838
 6060W        W10124   8.191   2.440   0.835
 6061W        W10125   3.792   0.885  10.691
 6062W        W10126   6.004   7.222   2.490
 6063W        W10127   3.323   5.795   0.443
 6064W        W10128   6.958   8.819   9.450
 6065W        W10129   7.666   7.622  10.551
 6066W        W10130   3.482   5.503   0.852
 6067W        W10131   2.025   5.359  11.731
 6068W        W10132   8.559   0.716   0.050
 6069W        W10133   0.400   2.386   0.795
 6070W        W10134   9.720   7.866   9.078
 6071W        W10135   1.801   2.677   0.850
 6072W        W10136   7.885  10.337  10.975
 6073W        W10137   9.148   0.342  10.456
 6074W        W10138   5.850   8.297   8.475
 6075W        W10139   5.110   5.169  11.974
 6076W        W10140   4.693   7.370   1.810
 6077W        W10141   4.307   4.676   2.743
 6078W        W10142   0.988   5.578   2.418
 6079W        W10143   6.131   0.476  11.642
 6080W        W10144   7.932   5.219  11.851
 6081W        W10145   7.139   1.696   9.458
 6082W        W10146   5.712   7.533   9.569
 6083W        W10147   9.287   8.775   9.379
 6084W        W10148   7.541   4.984   1.109
 6085W        W10149   8.814   0.717  10.314
 6086W        W10150   1.733   1.782   0.650
 6087W        W10151   1.682   0.806   1.586
 6088W        W10152   1.201   5.206   3.515
 6089W        W10153  10.215   2.765   2.377
 6090W        W10154   0.010   8.921   1.647
 6091W        W10155   5.685   1.692  11.251
 6092W        W10156   8.078   1.289   0.349
 6093W        W10157   2.183  10.469   9.569
 6094W        W10158   2.649   6.360  11.092
 6095W        W10159   4.155   9.427   3.224
 6096W        W10160   8.844   5.089   0.829
 6097W        W10161   9.533   9.063   0.788
 6098W        W10162   9.307   9.845  10.039
 6099W        W10163   2.861   3.145   9.474
 6100W        W10164   3.118   6.215  10.044
 6101W        W10165   6.659   3.214   2.230
 6102W        W10166   7.010   6.920   3.105
 6103W        W10167   8.680   2.397  11.125
 6104W        W10168   3.140   4.403  11.434
 6105W        W10169   4.181   0.042   9.540
 6106W        W10170   6.662   7.582   9.565
 6107W        W10171   2.448   1.640  10.286
 6108W        W10172   0.236   5.716  11.547
 6109W        W10173   8.412   7.758  11.470
 6110W        W10174   0.212   1.789  11.169
 6111W        W10175   4.585   9.584   9.044
 6112W        W10176   3.527   2.824   9.200
 6113W        W10177   0.074   1.356  10.344
 6114W        W10178   7.622   0.638   0.814
 6115W        W10179   2.192   8.155  10.174
 6116W        W10180   8.977   1.225  10.257
 6117W        W10181   3.830   8.028  11.353
 6118W        W10182   8.990   5.517   0.491
 6119W        W10183   6.516   4.447   8.426
 6120W        W10184   7.941   2.822  11.760
 6121W        W10185   6.393   0.975   0.395
 6122W        W10186   7.102   5.462   3.318
 6123W        W10187   3.465   5.029   0.025
 6124W        W10188   4.638   0.240   3.424
 6125W        W10189   1.566  10.140   3.672
 6126W        W10190   3.624   3.150   8.787
 6127W        W10191   2.877   4.656   2.537
 6128W        W10192   7.105   4.052   2.088
 6129W        W10193   9.815   7.446   3.107
 6130W        W10194   2.673   5.010   0.445
 6131W        W10195   8.875   7.727   9.244
 6132W        W10196   6.869   1.259   9.962
 6133W        W10197   5.894   8.141   0.445
 6134W        W10198   7.165   4.807   3.886
 6135W        W10199   4.566   0.000   1.009
 6136W        W10200   8.539   4.053  11.357
 6137W        W10201   3.170   5.686  11.227
 6138W        W10202   5.626   2.653   1.897
 6139W        W10203   6.435   8.823   9.551
 6140W        W10204   2.573   1.974   2.167
 6141W        W10205   3.371   9.801   1.839
 6142W        W10206   0.662   7.621   8.441
 6143W        W10207   5.627   8.317   1.174
 6144W        W10208   2.480   4.815   9.876
 6145W        W10209   0.244   4.354  11.971
 6146W        W10210   3.712   0.868   1.203
 6147W        W10211   0.414   3.820   9.140
 6148W        W10212   5.928   9.533   2.486
 6149W        W10213   1.709   3.817   1.797
 6150W        W10214   4.786   6.265   2.426
 6151W        W10215   1.799   8.075   3.297
 6152W        W10216   1.725   3.913   9.417
 6153W        W10217   4.721   0.766  11.098
 6154W        W10218   9.898   8.494  11.498
 6155W        W10219   0.398   6.182   2.487
 6156W        W10220   2.342   1.742   9.763
 6157W        W10221   8.023   5.110   2.091
 6158W        W10222   5.492  10.326  10.201
 6159W        W10223   3.286   2.326   2.609
 6160W        W10224   1.803   3.554   3.323
 6161W        W10225   5.134   9.553   0.272
 6162W        W10226   6.012   1.293   2.779
 6163W        W10227   8.981   2.032   2.338
 6164W        W10228   9.135   5.083   1.834
 6165W        W10229   0.710   7.187   1.790
 6166W        W10230   2.271   4.161   0.887
 6167W        W10231   7.137   1.246   0.713
 6168W        W10232   7.599   2.847   0.960
 6169W        W10233   6.755   6.994   2.681
 6170W        W10234   9.484   8.428   2.504
 6171W        W10235   1.226   2.810   9.475
 6172W        W10236   2.235   9.346  11.869
 6173W        W10237   7.495   5.630  10.862
 6174W        W10238   0.393   0.853   0.927
 6175W        W10239   5.597   4.292   2.606
 6176W        W10240   1.426   3.399   0.306
 6177W        W10241   8.917   9.474   1.771
 6178W        W10242   4.702   5.761  11.366
 6179W        W10243   7.238   2.546   0.740
 6180W        W10244   3.699   7.971   1.422
 6181W        W10245   7.735  10.222   0.001
 6182W        W10246   0.387   5.969  11.144
 6183W        W10247   0.791   0.426  11.812
 6184W        W10248   3.112   3.568   0.005
 6185W        W10249   0.358   8.582   3.077
 6186W        W10250   4.244   9.191   9.474
 6187W        W10251   2.374   3.075   0.342
 6188W        W10252   3.247   2.784   3.569
 6189W        W10253   5.208   3.843   8.968
 6190W        W10254   2.828   8.865   1.178
 6191W        W10255  10.331   5.642   1.689
 6192W        W10256   0.958   2.109  10.440
 6193W        W10257   5.542   2.640   0.293
 6194W        W10258   6.470   4.277   8.905
 6195W        W10259   3.255   9.280  11.481
 6196W        W10260   3.757   4.693   1.005
 6197W        W10261   0.826   1.423   1.956
 6198W        W10262   9.538   1.595  11.721
 6199W        W10263   8.083   8.285   0.608
 6200W        W10264   1.820   5.102  10.333
 6201W        W10265   9.973   6.418   1.862
 6202W        W10266   4.936   6.437   0.340
 6203W        W10267   3.372   9.900  10.686
 6204W        W10268   6.566   2.464   2.868
 6205W        W10269   5.269   3.271   8.497
 6206W        W10270   8.965   3.130   8.891
 6207W        W10271   3.204   1.372  10.119
 6208W        W10272   9.771   6.550   8.862
 6209W        W10273   9.909   6.967   8.546
 6210W        W10274   4.608   1.551   2.861
 6211W        W10275   4.619   2.654   2.376
 6212W        W10276   3.980   4.246  11.646
 6213W        W10277   4.446   8.727   9.489
 6214W        W10278   6.245   6.911   0.010
 6215W        W10279   6.112   4.933   0.920
 6216W        W10280   2.784  10.120   2.330
 6217W        W10281   2.138  10.026   9.860
 6218W        W10282   4.690   0.999  10.199
 6219W        W10283   6.563   1.917   1.370
 6220W        W10284   6.035  10.391  10.275
 6221W        W10285   9.339   9.587   2.062
 6222W        W10286   8.666   5.746   8.524
 6223W        W10287   5.482   1.231   0.599
 6224W        W10288   0.640   9.864   9.809
 6225W        W10289   6.849   0.896   1.393
 6226W        W10290   5.223   3.201  11.734
 6227W        W10291   6.057   2.672   9.019
 6228W        W10292   0.447   9.080   3.607
 6229W        W10293   8.146   3.591   8.936
 6230W        W10294   0.696   1.798  -0.000
 6231W        W10295   0.975   6.039   9.292
 6232W        W10296   8.088   7.588  10.870
 6233W        W10297   7.954   9.468   1.607
 6234W        W10298   6.939   3.775   9.687
 6235W        W10299   6.065   2.079   1.167
 6236W        W10300   9.304   7.492  10.616
 6237W        W10301   6.630   2.974   2.860
 6238W        W10302   5.633   9.357   1.698
 6239W        W10303   7.084   8.601  11.975
 6240W        W10304   2.846   2.376  10.908
 6241W        W10305   8.562   9.408   8.974
 6242W        W10306   1.289   6.050   1.001
 6243W        W10307   5.258   1.845  10.931
 6244W        W10308   9.084   6.991  11.179
 6245W        W10309   0.009   1.704   1.101
 6246W        W10310   6.612   0.794  10.001
 6247W        W10311   6.001   3.797   8.265
 6248W        W10312   9.241   2.175  10.002
 6249W        W10313   4.080   6.628   1.483
 6250W        W10314   5.201   8.976   9.957
 6251W        W10315   6.107   2.788   1.695
 6252W        W10316   5.232   4.686   9.726
 6253W        W10317   1.677   3.978   3.833
 6254W        W10318   7.361   5.175  11.023
 6255W        W10319   4.531   3.609   9.611
 6256W        W10320   1.980   1.366   2.817
 6257W        W10321   3.084   2.272   8.944
 6258W        W10322   9.473   8.286   0.270
 6259W        W10323   0.847   1.580   8.898
 6260W        W10324   3.834   7.697   1.833
 6261W        W10325   5.595   9.349  10.939
 6262W        W10326   0.708   2.979   1.515
 6263W        W10327   6.898   5.945   1.776
 6264W        W10328   3.076   4.052  11.075
 6265W        W10329   3.081   8.953   9.113
 6266W        W10330   9.860   2.231   0.687
 6267W        W10331   7.948   6.166   1.791
 6268W        W10332  10.234   0.752   0.304
 6269W        W10333   7.484   3.608   8.992
 6270W        W10334   5.919   0.553   9.615
 6271W        W10335   7.917   4.543   2.038
 6272W        W10336   6.903   0.294  10.544
 6273W        W10337   2.173   0.482  11.236
 6274W        W10338   3.313   0.747   2.420
 6275W        W10339   5.811   0.045   9.808
 6276W        W10340  10.146   1.325   3.392
 6277W        W10341   1.232   4.271  11.795
 6278W        W10342   6.689   6.095   8.783
 6279W        W10343   7.991   0.408   3.330
 6280W        W10344   1.443   0.321   2.045
 6281W        W10345   0.323   3.799   1.735
 6282W        W10346   7.936   9.962  10.644
 6283W        W10347   4.139   2.694   0.190
 6284W        W10348   9.511   5.193   9.054
 6285W        W10349   4.179   3.759   1.843
 6286W        W10350   6.638   3.821   2.480
 6287W        W10351   7.713   3.162   1.776
 6288W        W10352   5.384   0.432   2.743
 6289W        W10353   4.918   9.799   3.563
 6290W        W10354   3.794   2.124   8.557
 6291W        W10355   5.481   5.272   9.899
 6292W        W10356   3.109   4.773  10.596
 6293W        W10357   6.968   4.081  10.360
 6294W        W10358   0.295   1.706   3.132
 6295W        W10359   5.580   0.278  11.964
 6296W        W10360   3.304  10.291   3.448
 6297W        W10361   3.466   7.536   3.646
 6298W        W10362   1.255   1.700   0.380
 6299W        W10363   1.772   8.615   4.110
 6300W        W10364   3.737   1.177   3.074
 6301W        W10365   6.033   8.047  11.529
 6302W        W10366   2.862   3.140   0.172
 6303W        W10367   4.249   5.705   9.641
 6304W        W10368   3.673   8.696   1.829
 6305W        W10369   5.558   9.826   0.441
 6306W        W10370   2.282   4.742  11.756
 6307W        W10371   4.172   0.886   2.560
 6308W        W10372   6.782   3.242   1.736
 6309W        W10373   2.456   7.319  10.188
 6310W        W10374   7.926   0.334  11.041
 6311W        W10375   7.358   3.699   1.390
 6312W        W10376   9.849   5.977  11.443
 6313W        W10377   6.174   7.039   9.160
 6314W        W10378   9.138   0.872   9.916
 6315W        W10379   2.757   5.119  10.480
 6316W        W10380   7.485   2.851   2.957
 6317W        W10381   2.264   5.759   1.355
 6318W        W10382   1.221   0.478  11.545
 6319W        W10383   9.459   1.080  11.853
 6320W        W10384   6.097   8.813   9.936
 6321W        W10385   1.422   3.862   3.423
 6322W        W10386   4.829   8.907  11.820
 6323W        W10387   3.297   5.968   2.788
 6324W        W10388   9.082   2.679  10.027
 6325W        W10389   5.255   3.113   2.571
 6326W        W10390   8.950   4.951   1.327
 6327W        W10391   3.768   3.151   1.445
 6328W        W10392   3.206   7.758   1.464
 6329W        W10393  10.116   3.929   9.769
 6330W        W10394   0.020   0.370   1.682
 6331W        W10395   7.103   3.787  10.769
 6332W        W10396   7.904   3.138   8.799
 6333W        W10397   0.148   7.789   2.993
 6334W        W10398   8.441   5.141  11.856
 6335W        W10399   9.068   5.524   1.015
 6336W        W10400   5.768   1.592   3.420
 6337W        W10401   4.055   1.403  10.112
 6338W        W10402   3.200   8.864   1.957
 6339W        W10403   3.343   0.046   9.869
 6340W        W10404   2.439   6.465  10.238
 6341W        W10405   9.361   5.859   0.280
 6342W        W10406   3.119   6.560   3.498
 6343W        W10407   3.806  10.056   1.874
 6344W        W10408   3.342  10.033   9.797
 6345W        W10409   5.026   0.227   1.875
 6346W        W10410   5.288   8.088  10.327
 6347W        W10411   1.374   9.009   2.031
 6348W        W10412   1.397   2.251  10.138
 6349W        W10413   1.833   2.604   3.411
 6350W        W10414   0.196   3.742   2.761
 6351W        W10415   5.758   6.573  11.165
 6352W        W10416   8.027   9.381  11.395
 6353W        W10417   6.174   1.857  11.046
 6354W        W10418   5.106   8.101  11.355
 6355W        W10419   4.523   1.370   9.903
 6356W        W10420   6.143   7.076   0.479
 6357W        W10421   3.064   1.849   0.967
 6358W        W10422   6.984   4.692   1.485
 6359W        W10423   1.019  10.162   8.640
 6360W        W10424   6.333   8.266   3.244
 6361W        W10425   2.466   4.264  10.519
 6362W        W10426   2.125   0.780   9.937
 6363W        W10427   7.204   9.806   0.702
 6364W        W10428   9.573   1.657   1.936
 6365W        W10429   1.796   9.328   9.177
 6366W        W10430   5.584   8.666  11.816
 6367W        W10431   9.770   4.594  11.313
 6368W        W10432   7.112   5.948   2.634
 6369W        W10433   1.835   5.671  10.995
 6370W        W10434   9.354   4.944  11.958
 6371W        W10435   3.151   1.299   9.105
 6372W        W10436   7.869  10.253  11.500
 6373W        W10437   1.550   0.211  11.877
 6374W        W10438   6.369   5.599   2.513
 6375W        W10439   8.556   0.992  11.040
 6376W        W10440   0.630   4.585   1.859
 6377W        W10441   7.510   7.119   0.665
 6378W        W10442   6.629   4.741   3.111
 6379W        W10443   8.530  10.357   3.066
 6380W        W10444   8.066   1.794   2.752
 6381W        W10445   7.057   0.479   0.622
 6382W        W10446   2.240   3.231   2.338
 6383W        W10447   3.195   4.700   9.546
 6384W        W10448   9.282   9.864  10.533
 6385W        W10449   5.338   3.083   2.074
 6386W        W10450   4.258   7.951   3.381
 6387W        W10451   2.367   4.068   2.380
 6388W        W10452   0.730   4.221   0.700
 6389W        W10453   9.458   9.664   9.129
 6390W        W10454   5.746   1.152  11.978
 6391W        W10455   8.873   2.338   1.952
 6392W        W10456   6.947   0.449   8.967
 6393W        W10457   8.950   5.682   1.948
 6394W        W10458   1.714   3.771  10.777
 6395W        W10459   9.654   3.525   3.560
 6396W        W10460   8.461   8.472  10.864
 6397W        W10461   8.095   0.438   0.609
 6398W        W10462   0.794   3.133  10.052
 6399W        W10463   6.220   9.599   0.977
 6400W        W10464   5.313   9.944   0.954
 6401W        W10465  10.074   3.230   2.060
 6402W        W10466  10.388   9.293  10.025
 6403W        W10467   6.031   7.158  11.302
 6404W        W10468   2.340   1.465   1.257
 6405W        W10469   6.712   3.222  10.259
 6406W        W10470   3.665   9.098   3.177
 6407W        W10471   2.853   6.135   8.814
 6408W        W10472   3.298   4.762   2.239
 6409W        W10473   3.587  10.466   0.698
 6410W        W10474   8.940   7.591   8.742
 6411W        W10475   9.707   8.760   9.074
 6412W        W10476  10.413   2.173   3.007
 6413W        W10477   2.379   2.109  10.509
 6414W        W10478   2.054   3.219   9.727
 6415W        W10479   6.892   1.797   1.905
 6416W        W10480   9.951   1.330   2.058
 6417W        W10481   9.809   9.066   2.843
 6418W        W10482   2.963   4.294  10.640
 6419W        W10483   5.590   4.488   9.423
 6420W        W10484   5.536   3.307   3.475
 6421W        W10485   0.430   7.258  11.545
 6422W        W10486   2.176   3.765  11.639
 6423W        W10487  10.045   3.452   9.042
 6424W        W10488   2.726   3.113   8.972
 6425W        W10489   8.614   3.856  10.620
 6426W        W10490   3.777   3.133   3.492
 6427W        W10491   7.285   7.172   2.760
 6428W        W10492   1.863   5.013   1.154
 6429W        W10493   6.854   9.822   9.411
 6430W        W10494   3.600   5.020   2.623
 6431W        W10495   0.381   7.848   0.450
 6432W        W10496   8.972   9.362   1.285
 6433W        W10497   5.793   1.763   9.472
 6434W        W10498   2.181   6.507   0.296
 6435W        W10499   5.322   2.872  10.953
 6436W        W10500   8.995   9.492   9.252
 6437W        W10501   7.175   5.235   8.442
 6438W        W10502   5.152   6.635  10.457
 6439W        W10503   9.487   4.057   0.268
 6440W        W10504   8.340   1.841   0.775
 6441W        W10505   9.124   6.108   3.700
 6442W        W10506   8.835   8.355   3.107
 6443W        W10507   1.714   0.549   0.238
 6444W        W10508   1.302  10.476  11.457
 6445W        W10509   9.983   8.562   2.466
 6446W        W10510   8.442   6.003   1.756
 6447W        W10511   1.244   7.205   3.048
 6448W        W10512   5.674   8.296   9.534
 6449W        W10513   4.293   4.771   8.610
 6450W        W10514   9.967   7.910  11.105
 6451W        W10515   7.306   5.067   3.055
 6452W        W10516   8.051   2.277   1.959
 6453W        W10517   6.456   9.837   0.461
 6454W        W10518   4.994   3.660   9.392
 6455W        W10519   6.176   6.327  11.364
 6456W        W10520   1.870   0.349   2.998
 6457W        W10521   2.204   4.675   9.455
 6458W        W10522   6.501   9.624   9.748
 6459W        W10523   4.934   8.055   2.282
 6460W        W10524   4.427   2.610   1.816
 6461W        W10525  10.252   9.647  10.964
 6462W        W10526   6.207   5.173   2.277
 6463W        W10527   5.466   3.329   1.495
 6464W        W10528   0.791   7.815   9.075
 6465W        W10529   6.223  10.439   3.178
 6466W        W10530   6.327   2.834   0.797
 6467W        W10531   5.454   1.151  10.505
 6468W        W10532   4.678   2.746  10.108
 6469W        W10533   1.821   6.154   2.247
 6470W        W10534   6.256   5.039   3.330
 6471W        W10535   1.614   6.550   8.843
 6472W        W10536   6.083   6.120   1.809
 6473W        W10537   5.703   4.315   1.387
 6474W        W10538   3.818   7.743   0.362
 6475W        W10539   0.410   6.470   3.468
 6476W        W10540   0.864   4.964  10.258
 6477W        W10541   0.164  10.202   2.071
 6478W        W10542   5.274   2.701  11.855
 6479W        W10543   9.572   3.122   0.263
 6480W        W10544  10.207   6.492   8.541
 6481W        W10545   5.251  10.436   2.822
 6482W        W10546   7.437   9.108   9.521
 6483W        W10547   4.475   6.466   0.143
 6484W        W10548   8.667   9.587   2.733
 6485W        W10549   2.387   4.234   1.403
 6486W        W10550  10.357   2.188   0.948
 6487W        W10551   7.977   7.910  10.033
 6488W        W10552   1.457   9.589  11.489
 6489W        W10553   5.535   7.171   3.532
 6490W        W10554   2.848   6.897   8.625
 6491W        W10555   3.021   3.498   0.532
 6492W        W10556   0.361   9.966   3.261
 6493W        W10557   5.498   9.378   2.253
 6494W        W10558   7.696   3.276   1.257
 6495W        W10559   6.192   4.070   4.121
 6496W        W10560   8.094   0.724   1.442
 6497W        W10561   0.405   4.111   1.336
 6498W        W10562   3.540   0.531  11.049
 6499W        W10563   4.788   9.851   1.748
 6500W        W10564   5.013   6.534   3.359
 6501W        W10565   1.845   1.389   0.992
 6502W        W10566   6.208   5.190   1.772
 6503W        W10567  10.041   5.803   2.325
 6504W        W10568   8.623   1.657  11.843
 6505W        W10569   6.047   8.547   1.903
 6506W        W10570   7.392   9.203   2.970
 6507W        W10571   8.868   8.358   1.942
 6508W        W10572   7.381   1.229   2.446
 6509W        W10573   9.574   9.498  11.556
 6510W        W10574   0.954   6.866   0.825
 6511W        W10575   6.997   0.797  11.409
 6512W        W10576   1.241   1.320   2.255
 6513W        W10577   1.639   9.076   3.393
 6514W        W10578   4.043   5.883  10.064
 6515W        W10579   2.648   2.488  11.780
 6516W        W10580   1.586   7.437  10.407
 6517W        W10581   1.171   0.997   1.336
 6518W        W10582   6.131   4.463   1.120
 6519W        W10583   3.340   2.565   1.874
 6520W        W10584   5.817   2.707  10.946
 6521W        W10585   8.323   7.305   1.143
 6522W        W10586   6.238   7.780   0.410
 6523W        W10587   0.545   4.064  10.455
 6524W        W10588   6.533   2.735   2.437
 6525W        W10589   2.195   2.820   1.141
 6526W        W10590   0.639  10.301   1.914
 6527W        W10591   6.298   1.339  10.236
 6528W        W10592   8.992   4.047   9.095
 6529W        W10593   8.816   2.801   0.522
 6530W        W10594   3.192   6.716   1.554
 6531W        W10595   5.194   0.887   1.894
 6532W        W10596   8.064   7.735   1.169
 6533W        W10597   8.266  10.459   9.738
 6534W        W10598   1.767   3.045   2.511
 6535W        W10599   1.791   6.113  10.700
 6536W        W10600   9.429   2.396   1.424
 6537W        W10601   4.955   6.391   1.951
 6538W        W10602   9.411   5.431   2.680
 6539W        W10603   4.809   8.648   9.869
 6540W        W10604   2.164   6.528  11.266
 6541W        W10605   4.612   3.338   2.632
 6542W        W10606   5.704   0.237  10.945
 6543W        W10607   1.390   8.529   2.762
 6544W        W10608   2.723   6.029  10.284
 6545W        W10609   2.789   2.214   0.241
 6546W        W10610   3.760   5.419   3.454
 6547W        W10611   4.575   6.057   2.017
 6548W        W10612   6.424   2.311   9.094
 6549W        W10613   1.856   2.262   2.744
 6550W        W10614   8.912   1.344   3.079
 6551W        W10615   7.176   1.065  10.803
 6552W        W10616   2.374   2.340   1.859
 6553W        W10617   0.929   1.126  10.227
 6554W        W10618   6.589   0.779   2.737
 6555W        W10619   0.380   9.879   2.779
 6556W        W10620   4.513   2.620   9.111
 6557W        W10621   2.212   1.417   9.372
 6558W        W10622   3.694   5.357   0.379
 6559W        W10623   8.557   6.357   0.243
 6560W        W10624   7.233  10.316  11.870
 6561W        W10625   3.620   8.448  10.530
 6562W        W10626   4.697   8.908   2.629
 6563W        W10627   7.910   2.678   2.750
 6564W        W10628   3.204   0.918   0.951
 6565W        W10629   1.584   3.109   0.721
 6566W        W10630   5.427   8.035   2.350
 6567W        W10631   9.372   3.631   2.452
 6568W        W10632   4.257   5.676  11.742
 6569W        W10633   1.040   2.714   8.443
 6570W        W10634   9.079   6.419  11.023
 6571W        W10635   3.772   6.954  10.489
 6572W        W10636   8.815   3.761   1.911
 6573W        W10637   9.918   7.722   3.541
 6574W        W10638   6.606   0.522   0.268
 6575W        W10639   3.302   6.596   9.783
 6576W        W10640  10.073   9.312  11.282
 6577W        W10641   5.803   4.307   3.095
 6578W        W10642   5.614   3.206   0.456
 6579W        W10643   0.755   9.000   3.206
 6580W        W10644   7.811   7.152  10.163
 6581W        W10645   8.503   5.996   9.057
 6582W        W10646   1.471   0.032   2.852
 6583W        W10647   0.431   0.329   0.765
 6584W        W10648   3.630   5.485  10.348
 6585W        W10649   8.846  10.307   0.880
 6586W        W10650   8.622   8.569   9.022
 6587W        W10651   5.847   4.384   2.156
 6588W        W10652   0.184   6.501   8.743
 6589W        W10653   6.530   6.787   8.846
 6590W        W10654   0.120   8.616  10.914
 6591W        W10655   7.850   3.665   9.349
 6592W        W10656   3.006   7.087   1.873
 6593W        W10657   7.862   7.636   2.159
 6594W        W10658   5.173  10.216   1.865
 6595W        W10659   5.671   4.111   4.000
 6596W        W10660   5.489   7.612  11.835
 6597W        W10661   6.167   2.804  11.944
 6598W        W10662   4.880   8.755   8.474
 6599W        W10663   5.517   0.750   0.202
 6600W        W10664   8.357   6.003   0.884
 6601W        W10665   5.136   5.993   2.765
 6602W        W10666   8.577   4.193   1.730
 6603W        W10667   6.206   3.723  10.401
 6604W        W10668   2.183   2.301   0.954
 6605W        W10669   9.425   5.362   0.270
 6606W        W10670   7.468   3.078   9.737
 6607W        W10671   5.807   4.774   3.322
 6608W        W10672   1.983   6.125  11.721
 6609W        W10673   4.139   4.890   9.782
 6610W        W10674   5.906   1.381   9.822
 6611W        W10675   1.852   6.944   1.454
 6612W        W10676   4.994   1.672   2.505
 6613W        W10677   3.764   2.252   2.076
 6614W        W10678   6.963   6.291   9.458
 6615W        W10679   3.405   1.901  11.249
 6616W        W10680   1.800   0.849   0.641
 6617W        W10681   3.334   4.495   0.807
 6618W        W10682   9.769   4.198   2.969
 6619W        W10683   4.462  10.401   8.641
 6620W        W10684   0.260   6.195  10.266
 6621W        W10685   3.309   1.141   2.785
 6622W        W10686   1.826   5.675   8.677
 6623W        W10687   8.560   8.429   8.521
 6624W        W10688   5.086   1.413  10.689
 6625W        W10689   0.774   5.479   1.498
 6626W        W10690   9.272   8.191   2.904
 6627W        W10691   6.520   5.614  11.173
 6628W        W10692  10.361   5.975  11.314
 6629W        W10693   9.477   6.886   0.076
 6630W        W10694   9.674   2.496  11.517
 6631W        W10695   7.605   8.407   8.420
 6632W        W10696   7.966   1.421   9.306
 6633W        W10697   0.810   7.507   1.388
 6634W        W10698   0.901   3.595   0.278
 6635W        W10699   1.604   0.805  11.326
 6636W        W10700  10.261   7.458  11.290
 6637W        W10701   8.423   8.056  11.867
 6638W        W10702   7.053   2.308   3.576
 6639W        W10703   3.108   3.552  11.085
 6640W        W10704   0.330   5.787   1.009
 6641W        W10705   4.263   0.742  10.874
 6642W        W10706   7.968   6.956   0.431
 6643W        W10707   1.401   7.560  11.849
 6644W        W10708   4.965   3.520   9.887
 6645W        W10709   1.898   7.206   2.288
 6646W        W10710   1.285   6.315  11.290
 6647W        W10711   4.197   8.554   1.793
 6648W        W10712   4.973  10.294  10.131
 6649W        W10713   7.976   4.100  10.524
 6650W        W10714   8.888   2.769   9.574
 6651W        W10715   2.403   6.169   9.022
 6652W        W10716   1.015   8.479  10.726
 6653W        W10717   8.989   9.952   1.963
 6654W        W10718   1.249   9.016   3.040
 6655W        W10719   7.244   3.969   9.271
 6656W        W10720   7.178   0.486   0.126
 6657W        W10721   8.724  10.422   9.976
 6658W        W10722   2.773   6.895   2.273
 6659W        W10723   4.744   7.355  11.141
 6660W        W10724   2.206   3.708   0.659
 6661W        W10725   4.765   3.601   1.001
 6662W        W10726   9.423   1.715   3.739
 6663W        W10727   9.882   3.799  10.964
 6664W        W10728   6.396   9.545   3.406
 6665W        W10729   3.325   4.591   2.752
 6666W        W10730   3.290   7.037   0.176
 6667W        W10731   6.716   9.566   0.849
 6668W        W10732   5.654   9.245   3.335
 6669W        W10733   4.251   1.303   0.697
 6670W        W10734   8.814   3.798  11.721
 6671W        W10735  10.041   2.222   0.220
 6672W        W10736   6.089   0.914   8.959
 6673W        W10737   6.348   0.819   3.527
 6674W        W10738   9.143   1.487   1.728
 6675W        W10739   2.290  10.242  11.438
 6676W        W10740   0.687   7.876   9.569
 6677W        W10741   4.330   3.083   2.284
 6678W        W10742   2.461   9.708   9.577
 6679W        W10743   0.783   1.909   1.826
 6680W        W10744   5.575   9.839   2.713
 6681W        W10745   0.021   0.695   2.675
 6682W        W10746   0.359   5.014  10.251
 6683W        W10747   2.858   7.444   9.883
 6684W        W10748   8.684   1.242   1.957
 6685W        W10749   9.948   4.818   3.232
 6686W        W10750  10.088   8.630   3.001
 6687W        W10751   2.661   6.241   9.817
 6688W        W10752   6.631   5.709  10.690
 6689W        W10753   2.162   8.237  11.876
 6690W        W10754   5.270   6.927  10.056
 6691W        W10755   0.253   5.962   2.917
 6692W        W10756   1.015   7.622  11.458
 6693W        W10757   8.120   3.504   0.736
 6694W        W10758  10.440  10.205  11.313
 6695W        W10759   0.565   9.411   2.905
 6696W        W10760   6.466   2.346  10.485
 6697W        W10761   4.213   7.079  11.671
 6698W        W10762   6.383   5.133   2.750
 6699W        W10763   2.222   1.628   0.654
 6700W        W10764   9.044   1.917   8.974
 6701W        W10765   2.239   2.680   3.085
 6702W        W10766   0.364   3.603   1.261
 6703W        W10767   8.845   8.624   9.620
 6704W        W10768   5.989   2.333   0.249
 6705W        W10769   6.319   9.810   1.723
 6706W        W10770   2.559   7.333  10.743
 6707W        W10771   3.226   8.894   0.531
 6708W        W10772   3.312   4.204  10.265
 6709W        W10773   0.017   8.417   9.027
 6710W        W10774   7.409  10.199   0.956
 6711W        W10775   3.156   1.852   9.889
 6712W        W10776   8.122   3.092   2.511
 6713W        W10777   6.032   4.616   8.605
 6714W        W10778   4.604   4.087   1.842
 6715W        W10779   0.203   9.013   8.905
 6716W        W10780   4.123   3.251   2.732
 6717W        W10781   2.666   5.667  11.257
 6718W        W10782   7.059  10.476   0.725
 6719W        W10783   2.285   1.163   0.841
 6720W        W10784   3.840   5.453   2.440
 6721W        W10785   4.032   4.136   9.473
 6722W        W10786   9.785   5.949   1.903
 6723W        W10787   3.231  10.227  11.062
 6724W        W10788   0.030   7.580   0.716
 6725W        W10789   4.115   5.948  10.920
 6726W        W10790   6.999   3.359  11.077
 6727W        W10791   1.276   9.917   2.883
 6728W        W10792   7.417  10.417   9.498
 6729W        W10793   2.310   7.537   3.259
 6730W        W10794  10.296   1.182   8.844
 6731W        W10795   5.186   6.043   1.323
 6732W        W10796   8.406   3.072   3.327
 6733W        W10797   9.929   6.968   3.209
 6734W        W10798   6.998   9.988   3.111
 6735W        W10799   4.286   1.672   1.404
 6736W        W10800   6.564   3.557  11.548
 6737W        W10801   1.334  10.010   0.950
 6738W        W10802   3.674   5.771   8.860
 6739W        W10803   9.975   3.365   0.777
 6740W        W10804   4.464   7.929   2.389
 6741W        W10805   6.508   5.694   1.125
 6742W        W10806   0.903   6.200   0.392
 6743W        W10807   0.873   5.977   1.291
 6744W        W10808  10.328   3.989   0.650
 6745W        W10809   6.537   7.068   2.219
 6746W        W10810   9.523  10.249  10.284
 6747W        W10811   9.546   2.407   2.991
 6748W        W10812   6.388   1.796   1.899
 6749W        W10813   2.201   8.962   0.733
 6750W        W10814   5.082   7.210   0.767
 6751W        W10815   3.279   6.095   1.897
 6752W        W10816   7.571  10.069   0.486
 6753W        W10817   0.392   9.427   0.406
 6754W        W10818   6.997   4.252   8.909
 6755W        W10819   5.700   6.033   1.473
 6756W        W10820   9.192   3.286  11.929
 6757W        W10821   6.581   8.649  10.068
 6758W        W10822   4.656   8.476  10.947
 6759W        W10823   9.938   3.827   3.266
 6760W        W10824   5.112   0.864  11.926
 6761W        W10825   0.249   5.848   9.749
 6762W        W10826   5.543   1.159   1.090
 6763W        W10827   4.175   3.518   3.156
 6764W        W10828   2.276   6.714   3.037
 6765W        W10829   7.663   0.860  10.927
 6766W        W10830   6.865   9.441   2.453
 6767W        W10831  10.214   7.891   9.234
 6768W        W10832   2.598   8.800   2.117
 6769W        W10833   8.983   6.674   0.063
 6770W        W10834   1.605   8.989   1.040
 6771W        W10835   8.007   0.441   0.034
 6772W        W10836   2.321   4.719   1.223
 6773W        W10837   2.596   9.854   1.461
 6774W        W10838   6.707   5.396  10.306
 6775W        W10839   7.494   2.785   8.484
 6776W        W10840   8.853   1.777   0.774
 6777W        W10841   1.229   5.454  10.908
 6778W        W10842   5.309   6.456  11.434
 6779W        W10843   2.361   8.658   1.147
 6780W        W10844   5.492   0.440   9.891
 6781W        W10845   8.878   2.592   2.396
 6782W        W10846   6.695   8.979   9.041
 6783W        W10847   5.419   7.123   9.607
 6784W        W10848   0.294   8.270   8.603
 6785W        W10849   8.565   4.265   0.724
 6786W        W10850   8.914   3.095  10.378
 6787W        W10851   5.118   0.876   3.162
 6788W        W10852   7.631   1.246   0.109
 6789W        W10853   7.644   9.151   0.892
 6790W        W10854   5.554   4.337  10.741
 6791W        W10855   9.813   2.886   0.934
 6792W        W10856   1.757  10.226   0.755
 6793W        W10857   2.392   4.669   1.739
 6794W        W10858   6.350   8.348   0.355
 6795W        W10859   0.249   4.561   1.503
 6796W        W10860   5.220   2.912   1.620
 6797W        W10861   6.583   9.506   8.907
 6798W        W10862   3.494   8.536   3.090
 6799W        W10863   1.424   8.603  10.413
 6800W        W10864   8.926   6.667   1.991
 6801W        W10865   1.722   8.582   3.167
 6802W        W10866   5.185   4.136   3.276
 6803W        W10867   8.206   9.536   3.485
 6804W        W10868   6.178   9.860  10.079
 6805W        W10869   7.776   5.950  10.046
 6806W        W10870   4.167   0.881   0.382
 6807W        W10871   9.848   7.440   9.321
 6808W        W10872   4.285   0.414   0.224
 6809W        W10873   7.167   6.101   8.587
 6810W        W10874   1.253   9.855  10.790
 6811W        W10875   9.376   0.542  11.952
 6812W        W10876  10.256   5.779   0.224
 6813W        W10877   1.645   0.713   3.335
 6814W        W10878   2.457   4.609   0.728
 6815W        W10879   5.547   7.943   9.874
 6816W        W10880   5.190   5.654  10.414
 6817W        W10881   4.718   9.127   9.723
 6818W        W10882   8.337   3.264  11.268
 6819W        W10883  10.057  10.453   9.452
 6820W        W10884   6.880   8.965   1.669
 6821W        W10885   3.239   0.197  10.806
 6822W        W10886   4.477   8.072  10.709
 6823W        W10887   6.816   4.277  11.705
 6824W        W10888   9.841   4.781   2.353
 6825W        W10889   5.789   6.139   0.103
 6826W        W10890   5.114   1.396   1.817
 6827W        W10891   3.560   4.655  10.396
 6828W        W10892   5.630   8.400  11.351
 6829W        W10893   4.582   1.011   2.915
 6830W        W10894   0.528   3.318   2.858
 6831W        W10895   0.131   8.886   9.388
 6832W        W10896   4.969   1.695   0.046
 6833W        W10897  10.387   3.302   1.647
 6834W        W10898   8.995   0.961   8.942
 6835W        W10899   6.417   0.320  10.400
 6836W        W10900   3.328   9.588   0.108
 6837W        W10901   9.936   4.179   2.476
 6838W        W10902  10.291   2.234   2.492
 6839W        W10903   1.209   3.063   1.599
 6840W        W10904   2.982   1.740  11.498
 6841W        W10905   5.438   5.683   2.375
 6842W        W10906   8.882   3.687   9.468
 6843W        W10907   0.698   3.242   3.366
 6844W        W10908   3.950   8.921  11.967
 6845W        W10909   9.451   7.015   3.452
 6846W        W10910   6.528   5.463   2.020
 6847W        W10911   7.589   0.581   1.338
 6848W        W10912   5.587   7.043   2.289
 6849W        W10913   7.132   1.311   0.203
 6850W        W10914   5.442  10.391   0.287
 6851W        W10915   8.573  10.208   8.658
 6852W        W10916   8.890   7.158   0.232
 6853W        W10917   4.064   7.134  10.884
 6854W        W10918   8.873   5.081   9.840
 6855W        W10919   3.740   5.079   9.092
 6856W        W10920   0.384   2.241  11.930
 6857W        W10921   7.290   8.795   8.718
 6858W        W10922   0.062   9.420   3.500
 6859W        W10923   0.293   1.726  11.716
 6860W        W10924   1.773   2.094  11.618
 6861W        W10925   7.579   2.270   8.358
 6862W        W10926   4.135   4.012   3.144
 6863W        W10927   3.264  10.280  11.579
 6864W        W10928   7.565   1.677  10.280
 6865W        W10929   9.252   5.149   3.318
 6866W        W10930   9.580  10.009   0.743
 6867W        W10931   0.581   3.305  11.297
 6868W        W10932   1.737   2.597   9.011
 6869W        W10933   4.896   6.039   3.254
 6870W        W10934   9.908   6.796   2.255
 6871W        W10935   2.478   5.541   2.227
 6872W        W10936   5.011   1.753   3.094
 6873W        W10937   6.755   2.592   0.833
 6874W        W10938   5.454   2.241   9.598
 6875W        W10939   6.408   1.195   9.770
 6876W        W10940   7.958   2.285  11.877
 6877W        W10941   1.258   2.806   8.936
 6878W        W10942   1.264   7.360   0.335
 6879W        W10943   4.937   1.871   0.888
 6880W        W10944   0.838   4.275  10.825
 6881W        W10945   7.379   9.078  11.186
 6882W        W10946  10.042   5.221   9.331
 6883W        W10947   4.324   3.125  11.864
 6884W        W10948   3.398   1.299   0.256
 6885W        W10949   9.925   5.370   9.897
 6886W        W10950   7.391   4.118   3.875
 6887W        W10951   6.254   4.048   2.188
 6888W        W10952   2.104   1.899   1.969
 6889W        W10953   0.619   7.559   2.343
 6890W        W10954   6.432   3.290   8.986
 6891W        W10955   9.696   6.832   1.780
 6892W        W10956   5.657   8.855   3.007
 6893W        W10957  10.436   1.424   2.465
 6894W        W10958   0.324   4.222   2.041
 6895W        W10959   3.959   1.771  11.731
 6896W        W10960   0.362   1.773  10.306
 6897W        W10961   6.643   3.737   2.999
 6898W        W10962   8.601   5.544   0.818
 6899W        W10963   7.994   4.780   3.482
 6900W        W10964   7.157   9.423  11.993
 6901W        W10965   1.789   6.154  11.221
 6902W        W10966   2.616   7.942  11.983
 6903W        W10967   8.502   0.902  11.558
 6904W        W10968  10.100   5.499  10.487
 6905W        W10969   8.485   5.679   3.146
 6906W        W10970   3.701   0.248   9.559
 6907W        W10971   6.030   9.451   1.990
 6908W        W10972   0.902   0.659   8.475
 6909W        W10973   0.505  10.328   8.747
 6910W        W10974   8.997   9.319   8.722
 6911W        W10975   6.150   1.374  11.738
 6912W        W10976   0.058   8.508  10.409
 6913W        W10977   6.510   9.803  10.956
 6914W        W10978   2.675   2.603   8.875
 6915W        W10979   7.906   2.955  11.267
 6916W        W10980   0.852   3.535   9.238
 6917W        W10981   6.641   4.491  10.476
 6918W        W10982   2.586   5.130  11.005
 6919W        W10983   8.617   5.576  11.681
 6920W        W10984   4.422   1.328   0.233
 6921W        W10985   5.211   6.227   0.801
 6922W        W10986   6.310  10.144   8.242
 6923W        W10987   4.238   5.674   2.742
 6924W        W10988   9.962   7.992  10.107
 6925W        W10989   2.414   7.747   0.724
 6926W        W10990   8.986   3.620   1.185
 6927W        W10991   7.340   5.402  11.804
 6928W        W10992   8.326   3.685  11.850
 6929W        W10993   6.455   7.119   9.582
 6930W        W10994   9.972   7.078   0.079
 6931W        W10995   3.801   5.505   2.960
 6932W        W10996  10.480   0.907  11.891
 6933W        W10997   7.613  10.281   2.984
 6934W        W10998   5.109  10.423   3.343
 6935W        W10999   9.530   4.240   1.236
 6936W        W11000   7.556   4.661   3.194
 6937W        W11001   3.223  10.356   2.445
 6938W        W11002   6.933   3.141   3.663
 6939W        W11003   9.367   8.339  10.953
 6940W        W11004   7.965   7.100   3.270
 6941W        W11005   7.547   7.858   9.438
 6942W        W11006   8.441   3.351   2.841
 6943W        W11007   4.606   3.557   2.080
 6944W        W11008   6.464   4.966  10.444
 6945W        W11009   7.548   1.435   1.520
 6946W        W11010   6.028   4.590   0.555
 6947W        W11011   3.869   7.291   2.833
 6948W        W11012   8.564   0.655   1.670
 6949W        W11013   8.518   1.408  11.387
 6950W        W11014   1.241   4.700   1.360
 6951W        W11015   7.460   7.750  11.903
 6952W        W11016  10.358   2.733   9.140
 6953W        W11017   7.938   9.920   2.824
 6954W        W11018   4.474   6.610   2.189
 6955W        W11019   0.823   4.711   0.859
 6956W        W11020   7.068   4.734  11.544
 6957W        W11021   5.199   2.229  10.591
 6958W        W11022   1.693   4.716   0.451
 6959W        W11023   8.522  10.230   1.265
 6960W        W11024   0.112   8.021   0.999
 6961W        W11025   4.626   7.426  10.309
 6962W        W11026   8.403   9.010  11.520
 6963W        W11027   7.182   9.152   9.078
 6964W        W11028   6.277   6.080   9.974
 6965W        W11029   9.866  10.426   8.912
 6966W        W11030   5.939   1.908   0.603
 6967W        W11031   2.763   2.745   0.481
 6968W        W11032   0.279   5.144   2.173
 6969W        W11033   4.063   9.051   1.914
 6970W        W11034   1.880   5.099   1.671
 6971W        W11035   9.025   4.081   0.947
 6972W        W11036   0.404   5.606   0.522
 6973W        W11037   6.697   4.265   3.289
 6974W        W11038  10.458   7.878   3.480
 6975W        W11039   1.986   1.727  10.111
 6976W        W11040   7.587   0.694   3.102
 6977W        W11041   7.594   2.037   3.683
 6978W        W11042   1.218   8.638  11.690
 6979W        W11043   2.779   5.303  10.003
 6980W        W11044   2.428   2.611   3.553
 6981W        W11045  10.329   2.151   1.521
 6982W        W11046   6.003   1.721   8.624
 6983W        W11047   9.376   8.595   1.105
 6984W        W11048   0.761   3.715   0.789
 6985W        W11049   4.181   7.445   1.554
 6986W        W11050   6.326   4.669   0.144
 6987W        W11051   3.568   1.944   9.524
 6988W        W11052   3.121   6.383   3.981
 6989W        W11053   8.571   4.848   2.765
 6990W        W11054   9.381   0.136   8.983
 6991W        W11055   3.642   4.159   1.616
 6992W        W11056   1.609   4.201   0.787
 6993W        W11057   3.383   7.419   9.229
 6994W        W11058   9.889   9.075   9.449
 6995W        W11059   5.648   4.534   0.896
 6996W        W11060   2.232   4.693  10.340
 6997W        W11061  10.007   2.131  10.684
 6998W        W11062   9.245   9.844  11.802
 6999W        W11063   5.116  10.042   0.500
 7000W        W11064   1.184   0.312   2.519
 7001W        W11065   7.475   0.977  11.476
 7002W        W11066   9.988   2.300  11.181
 7003W        W11067   3.380   1.819  10.365
 7004W        W11068   7.996   4.800   9.979
 7005W        W11069   9.348   7.547   2.864
 7006W        W11070   6.402   0.339   2.909
 7007W        W11071   1.726   4.872   9.423
 7008W        W11072   3.659   1.459   9.382
 7009W        W11073   9.914   8.045   0.438
 7010W        W11074   8.849   1.007   0.359
 7011W        W11075   5.507   7.206  10.498
 7012W        W11076   2.393   9.444   0.678
 7013W        W11077   3.839   4.236  10.409
 7014W        W11078   4.793   4.261   2.299
 7015W        W11079   4.602   2.416   0.153
 7016W        W11080   8.426   5.556   0.152
 7017W        W11081   3.661  10.061  11.317
 7018W        W11082   9.064   4.785  11.343
 7019W        W11083   9.637   7.078   9.914
 7020W        W11084   4.634   8.664   8.958
 7021W        W11085   4.796   4.036  10.331
 7022W        W11086   1.966   0.790   9.007
 7023W        W11087   8.426  10.025   2.666
 7024W        W11088  10.070   5.635   3.617
 7025W        W11089   5.211   2.227   3.186
 7026W        W11090   6.899   5.548   0.021
 7027W        W11091   2.247   0.024   9.024
 7028W        W11092   8.128   5.147   2.589
 7029W        W11093   8.304   0.598  10.369
 7030W        W11094  10.014   5.242   8.812
 7031W        W11095   9.249   9.027  10.345
 7032W        W11096  10.064   4.598   2.776
 7033W        W11097   9.009   4.660  10.155
 7034W        W11098   5.776   4.807   1.302
 7035W        W11099   7.182   6.409   3.257
 7036W        W11100   1.692   3.582   9.807
 7037W        W11101   7.578   4.875   2.206
 7038W        W11102   3.723   1.805   9.007
 7039W        W11103   8.594   5.368   2.685
 7040W        W11104   4.067   9.942   3.155
 7041W        W11105   4.222   2.931   1.493
 7042W        W11106   7.130   4.505   3.454
 7043W        W11107   6.927   6.944  11.475
 7044W        W11108   9.783   4.502   0.251
 7045W        W11109   6.644   4.145   1.842
 7046W        W11110   2.640   6.818  10.865
 7047W        W11111   6.899   9.583   0.377
 7048W        W11112   1.693   3.437   8.522
 7049W        W11113  10.327   4.026   8.346
 7050W        W11114   5.481   9.493   8.972
 7051W        W11115   8.947   7.591   9.762
 7052W        W11116   1.310   3.835   0.072
 7053W        W11117   1.070   4.670   8.463
 7054W        W11118   4.558   3.590   9.084
 7055W        W11119   5.522   1.588   8.520
 7056W        W11120   0.849   7.916  10.046
 7057W        W11121  10.436  10.485  11.819
 7058W        W11122   1.445   2.268   1.386
 7059W        W11123   7.374   9.436   2.294
 7060W        W11124   5.537   6.711  11.941
 7061W        W11125   8.852   2.408   0.073
 7062W        W11126   6.325   2.943   8.558
 7063W        W11127   8.957   0.704  11.737
 7064W        W11128   0.297   4.490  11.484
 7065W        W11129   4.754   6.679   8.579
 7066W        W11130   6.702   6.743   9.323
 7067W        W11131   0.558   1.161   0.335
 7068W        W11132   9.260   2.413  11.790
 7069W        W11133   5.292   1.858  11.667
 7070W        W11134   1.184   1.796  11.862
 7071W        W11135  10.488   4.281   9.605
 7072W        W11136   1.033   3.278   2.410
 7073W        W11137   2.714   7.906   1.456
 7074W        W11138   3.283   6.045   9.059
 7075W        W11139   9.804   2.267   2.199
 7076W        W11140   4.279   2.199   1.460
 7077W        W11141   6.536   6.310   1.701
 7078W        W11142   3.082   6.564   2.017
 7079W        W11143   5.439   6.444   2.707
 7080W        W11144   0.822   9.843   3.093
 7081W        W11145   2.745   0.303   3.537
 7082W        W11146   7.880   2.044   0.948
 7083W        W11147   0.499   6.707   0.992
 7084W        W11148   2.206   1.255  10.503
 7085W        W11149   8.451   0.541   1.142
 7086W        W11150   7.892   1.854   1.712
 7087W        W11151   6.504   5.954   2.080
 7088W        W11152   6.668  10.362   2.889
 7089W        W11153   6.961   6.405   2.798
 7090W        W11154   4.285   2.151  11.864
 7091W        W11155   6.498   9.331   1.792
 7092W        W11156   6.101   2.723   2.734
 7093W        W11157   0.704   8.573  11.596
 7094W        W11158   2.285   7.212   1.446
 7095W        W11159   4.164  10.014  11.257
 7096W        W11160  10.298   6.449   2.291
 7097W        W11161  10.330   1.802  11.551
 7098W        W11162   9.287   4.208  10.076
 7099W        W11163   1.315   6.929  11.057
 7100W        W11164   3.740   7.484  10.529
 7101W        W11165   1.313   1.569  11.425
 7102W        W11166   9.579   0.022  11.214
 7103W        W11167   1.148   1.705  10.961
 7104W        W11168   0.385   3.282   1.788
 7105W        W11169   6.531   4.656   0.822
 7106W        W11170   0.039   9.106   0.175
 7107W        W11171   1.822   3.151   1.197
 7108W        W11172   9.863   7.490  10.837
 7109W        W11173   1.438   9.811   0.452
 7110W        W11174   1.602   4.319   1.908
 7111W        W11175   4.664   1.014   1.166
 7112W        W11176   6.911   6.636   1.305
 7113W        W11177   2.817   7.002  10.408
 7114W        W11178   3.538   7.011   9.598
 7115W        W11179   5.108   0.564   1.489
 7116W        W11180   1.990   4.277   0.442
 7117W        W11181   2.769   9.358   9.351
 7118W        W11182   9.258   8.916   3.492
 7119W        W11183   8.382   7.673   8.967
 7120W        W11184   4.047   7.002   9.566
 7121W        W11185   4.314   6.246   4.134
 7122W        W11186   0.799   0.385   1.855
 7123W        W11187   9.471   2.449   0.910
 7124W        W11188   9.854   5.043   1.535
 7125W        W11189   2.537   7.824   9.971
 7126W        W11190  10.207   0.535   3.095
 7127W        W11191   2.829   0.232   1.751
 7128W        W11192   3.325   4.780  11.058
 7129W        W11193   3.588   6.227   8.630
 7130W        W11194   9.565   2.504  11.007
 7131W        W11195   9.583   8.617   2.982
 7132W        W11196   5.525   9.295   9.470
 7133W        W11197   8.465   8.601   9.978
 7134W        W11198   7.877   5.402   8.856
 7135W        W11199   6.997   2.674   2.245
 7136W        W11200   2.659   1.882   2.652
 7137W        W11201   9.772   7.549  11.417
 7138W        W11202   6.948   3.515   9.199
 7139W        W11203   2.281   3.473  10.672
 7140W        W11204   9.178   9.124   0.440
 7141W        W11205   6.483  10.497   8.996
 7142W        W11206   8.995   2.072  10.862
 7143W        W11207   0.931   7.110  11.391
 7144W        W11208   1.436   5.607   3.287
 7145W        W11209   0.350   2.913   9.320
 7146W        W11210  10.311   5.998  10.479
 7147W        W11211   9.143   5.170   9.414
 7148W        W11212   0.527   3.220   2.319
 7149W        W11213   7.473   2.191  11.724
 7150W        W11214   0.137   1.305   3.479
 7151W        W11215  10.263   4.233  10.936
 7152W        W11216  10.371   2.915   9.646
 7153W        W11217   5.476   7.856   0.286
 7154W        W11218   4.769   7.350   1.297
 7155W        W11219   4.618   2.844   0.439
 7156W        W11220   2.368   7.420  11.236
 7157W        W11221   9.342   9.997   2.793
 7158W        W11222   6.598   5.290   3.638
 7159W        W11223   3.601   0.257   3.519
 7160W        W11224   6.229   5.679  10.354
 7161W        W11225   2.585   0.182   0.010
 7162W        W11226   1.451   4.905   1.827
 7163W        W11227   1.836   8.957   9.801
 7164W        W11228  10.271   1.084  10.984
 7165W        W11229   4.288   4.724   0.962
 7166W        W11230   1.821  10.385  11.153
 7167W        W11231   0.380   6.152   0.642
 7168W        W11232   6.778   1.697   0.878
 7169W        W11233   0.909   3.857  11.750
 7170W        W11234   6.070   3.318   8.066
 7171W        W11235   3.597   6.630   0.194
 7172W        W11236   6.989   5.028   9.356
 7173W        W11237   7.354   9.494  11.527
 7174W        W11238   4.615   9.609   1.043
 7175W        W11239   2.603   4.708  10.724
 7176W        W11240   5.681   7.166   4.036
 7177W        W11241   9.652   7.627   2.159
 7178W        W11242   9.732   2.977  11.331
 7179W        W11243   6.214   5.256   1.287
 7180W        W11244   0.320   3.153  10.319
 7181W        W11245   0.490   8.554   9.483
 7182W        W11246   3.797   8.471   2.308
 7183W        W11247   9.626   8.763   2.140
 7184W        W11248   8.348   2.286  11.492
 7185W        W11249   0.174   2.156  10.003
 7186W        W11250   4.978   0.382   9.172
 7187W        W11251   5.104   7.709   0.631
 7188W        W11252  10.040  10.283   0.797
 7189W        W11253   2.301   6.462  10.726
 7190W        W11254   4.994   5.340   1.645
 7191W        W11255   9.460   1.350   1.344
 7192W        W11256   1.879   4.435  11.483
 7193W        W11257   7.697   6.652  11.355
 7194W        W11258   6.669   5.272   3.136
 7195W        W11259   1.265   5.910   1.966
 7196W        W11260   7.116   4.029   3.066
 7197W        W11261   1.822   6.169   0.240
 7198W        W11262   7.561   7.295   2.352
 7199W        W11263   5.531   9.428  10.434
 7200W        W11264   2.690   6.393   2.328
 7201W        W11265   4.056   9.047   0.481
 7202W        W11266   6.088   2.380   0.743
 7203W        W11267   0.817   8.091   2.239
 7204W        W11268   3.183   6.508   8.822
 7205W        W11269   1.708   8.853   8.919
 7206W        W11270   1.288   5.208  10.448
 7207W        W11271   5.584   2.818   2.825
 7208W        W11272   3.229   1.848   0.495
 7209W        W11273   1.624   6.983   1.906
 7210W        W11274   6.218   3.033   9.358
 7211W        W11275   4.816   7.984   3.618
 7212W        W11276   7.532   9.548   9.262
 7213W        W11277   6.661   1.728   2.369
 7214W        W11278   2.799   2.832   9.874
 7215W        W11279  10.272   2.796  10.520
 7216W        W11280   1.786   6.918  11.273
 7217W        W11281   5.941   8.105  11.019
 7218W        W11282   4.153   5.746   2.124
 7219W        W11283   9.977   7.584   1.350
 7220W        W11284   0.825   9.427  10.036
 7221W        W11285   4.187   5.589  11.256
 7222W        W11286   1.338   8.158  11.562
 7223W        W11287   8.584   3.770   1.446
 7224W        W11288   6.888   0.913   0.408
 7225W        W11289   4.738   5.387  10.421
 7226W        W11290   9.842   8.072   2.318
 7227W        W11291   7.146  10.201   8.740
 7228W        W11292   8.114   8.171  11.321
 7229W        W11293   3.038   2.361  10.025
 7230W        W11294   7.576   6.867  10.890
 7231W        W11295   4.093   4.272   9.965
 7232W        W11296  10.294   6.218   0.482
 7233W        W11297   6.410   9.687   2.559
 7234W        W11298   5.061   9.573  11.745
 7235W        W11299   8.647   4.419   2.434
 7236W        W11300   1.629   7.241   2.723
 7237W        W11301   7.467   7.005   3.301
 7238W        W11302   9.400   5.186   1.264
 7239W        W11303   8.304   9.216   2.385
 7240W        W11304   0.319   8.172  11.600
 7241W        W11305   9.840   1.723   3.467
 7242W        W11306   8.466   8.322   2.265
 7243W        W11307   6.952   4.664   8.586
 7244W        W11308   0.585   7.193   1.049
 7245W        W11309   0.780  10.438  10.963
 7246W        W11310   4.174   9.345   2.322
 7247W        W11311   6.511   2.149   0.899
 7248W        W11312   0.793   7.000  10.271
 7249W        W11313   2.827   5.870   3.944
 7250W        W11314   4.072   6.627  11.429
 7251W        W11315   5.930   6.891  10.532
 7252W        W11316   8.366   8.541   9.482
 7253W        W11317   9.428   0.652   9.038
 7254W        W11318   8.094   5.181   0.336
 7255W        W11319   4.782   4.186   0.281
 7256W        W11320   9.871   0.863  10.305
 7257W        W11321   2.900   6.637   9.495
 7258W        W11322   6.843   5.920   0.373
 7259W        W11323  10.442   6.577   1.749
 7260W        W11324   7.385   4.472   9.824
 7261W        W11325   7.958   3.181   2.990
 7262W        W11326   1.386   4.695   0.029
 7263W        W11327   6.280   0.416   1.072
 7264W        W11328   3.113   0.848  10.177
 7265W        W11329   9.492   8.041   1.628
 7266W        W11330   2.114   4.989   0.614
 7267W        W11331   4.211   9.369  11.880
 7268W        W11332   2.807   6.972   0.939
 7269W        W11333   2.759   3.818  11.432
 7270W        W11334   1.707  10.334   9.718
 7271W        W11335   0.895   5.492   8.618
 7272W        W11336   5.864   6.887   3.244
 7273W        W11337   7.407   7.565   0.396
 7274W        W11338   5.205   0.535   2.276
 7275W        W11339   3.276   9.686  11.137
 7276W        W11340   9.264   7.069  10.315
 7277W        W11341   4.976   5.573   0.289
 7278W        W11342   1.775   1.401  11.264
 7279W        W11343   0.558   5.164   8.887
 7280W        W11344   5.738   9.416   0.912
 7281W        W11345   4.973   6.977  11.408
 7282W        W11346   0.873   9.892   1.687
 7283W        W11347   1.690   9.802   8.990
 7284W        W11348   8.984   6.595   9.554
 7285W        W11349   9.913   2.660  11.975
 7286W        W11350   8.092   8.606   8.529
 7287W        W11351   1.981   5.659   2.308
 7288W        W11352   7.905   7.476   9.265
 7289W        W11353   5.521   5.732   9.023
 7290W        W11354   0.314   3.559   9.999
 7291W        W11355  10.370   6.599  11.834
 7292W        W11356   3.336   3.067  11.989
 7293W        W11357   4.555   7.683   9.887
 7294W        W11358   8.422   2.113  11.971
 7295W        W11359   6.526   7.519  10.668
 7296W        W11360   2.848   2.292   2.913
 7297W        W11361   7.412   2.095   9.762
 7298W        W11362   3.637   5.014   9.597
 7299W        W11363   9.384   7.917   2.499
 7300W        W11364   5.953   8.655   0.331
 7301W        W11365   3.606   3.815   9.412
 7302W        W11366   0.279   6.564   2.140
 7303W        W11367   2.360   5.128   9.295
 7304W        W11368   9.793   8.077   1.224
 7305W        W11369   9.359  10.119   8.895
 7306W        W11370   7.370   1.752  11.975
 7307W        W11371   1.489   3.172   2.941
 7308W        W11372   0.780  10.310  10.086
 7309W        W11373   0.874   7.571   3.605
 7310W        W11374   1.238   1.299   9.082
 7311W        W11375   8.092   0.318   9.061
 7312W        W11376   5.081   0.760   0.995
 7313ION    NA+11377   6.465   4.884   8.685
 7314ION    NA+11378   1.860  10.079   2.204
 7315ION    NA+11379   7.756   7.051  11.704
 7316ION    NA+11380   9.059   5.983   1.336
 7317ION    NA+11381   5.515   3.589   9.488
 7318ION    NA+11382   7.899   4.755   0.136
 7319ION    NA+11383   5.517   4.058   0.959
 7320ION    NA+11384   6.217   1.441  10.732
 7321ION    NA+11385   2.631   8.329   9.874
 7322ION    NA+11386   2.744   4.595  10.251
 7323ION    NA+11387   1.508   2.363  10.631
 7324ION    NA+11388  10.104   4.992  11.456
 7325ION    NA+11389   2.689   0.356  10.319
 7326ION    NA+11390   0.601   9.094   9.395
 7327ION    NA+11391   5.160   4.589   2.634
 7328ION    NA+11392   4.194   8.541   0.223
 7329ION    NA+11393   7.477   4.364   2.319
 7330ION    NA+11394   1.134   7.648   2.296
 7331ION    NA+11395   8.835   0.619   9.586
 7332ION    NA+11396   3.713   2.628  10.076
 7333ION    NA+11397   7.328   1.291   1.955
 7334ION    NA+11398   4.996   3.256   0.662
 7335ION    NA+11399   4.218   5.409   0.515
 7336ION    NA+11400   0.620   8.420  11.111
 7337ION    NA+11401   0.670   2.723   1.083
 7338ION    NA+11402   8.280   1.531   1.762
 7339ION    NA+11403   0.799   2.702   9.792
 7340ION    NA+11404   1.509   2.731   0.013
 7341ION    NA+11405   7.099   9.016   9.901
 7342ION    NA+11406   8.441   6.208   3.084
 7343ION    NA+11407   2.926   9.512   2.713
 7344ION    NA+11408   8.923   9.137   2.656
 7345ION    NA+11409   2.399   2.139  11.025
 7346ION    NA+11410   0.916   5.160  11.971
 7347ION    NA+11411   9.659   2.093  11.837
 7348ION    NA+11412   7.054   7.179   0.363
 7349ION    NA+11413   2.303   1.258   9.966
 7350ION    NA+11414   4.985   4.088  11.780
 7351ION    NA+11415   6.551   7.782   9.018
 7352ION    NA+11416   8.627   8.235  11.402
 7353ION    NA+11417   2.701   6.489   0.328
 7354ION    NA+11418   1.657   5.191   2.716
 7355ION    NA+11419   5.143   8.231   0.918
 7356ION    NA+11420   5.627   6.081  11.216
 7357ION    NA+11421   3.048   7.124   9.510
 7358ION    NA+11422   6.715   9.158   3.239
 7359ION    NA+11423   1.710   7.087  10.781
 7360ION    NA+11424  10.483   1.608   9.109
 7361ION    NA+11425   1.434   8.290   0.563
 7362ION    NA+11426   7.906   8.739   9.381
 7363ION    NA+11427   8.390   9.075  10.914
 7364ION    NA+11428   4.401   1.498  11.419
 7365ION    NA+11429   3.116   2.875  11.289
 7366ION    NA+11430   3.802   3.884   0.662
 7367ION    NA+11431   7.667   7.865   1.465
 7368ION    NA+11432   9.027   5.119   2.788
 7369ION    NA+11433   6.645   1.700   3.195
 7370ION    NA+11434   3.450   8.388  11.443
 7371ION    NA+11435   9.882   9.522   1.248
 7372ION    NA+11436   7.050   3.118   2.548
 7373ION    NA+11437   6.195   2.555   1.231
 7374ION    NA+11438   4.001   2.274   0.937
 7375ION    NA+11439   6.006   9.655   9.608
 7376ION    NA+11440   9.962   9.827  11.397
 7377ION    NA+11441   9.029  10.335  10.416
 7378ION    NA+11442   1.200   9.104   0.754
 7379ION    NA+11443   8.456   7.014   2.938
 7380ION    NA+11444   3.727   1.672   3.042
 7381ION    NA+11445   6.059   6.981   8.680
 7382ION    NA+11446   6.572   0.718   0.782
 7383ION    NA+11447   8.448   6.855   0.228
 7384ION    NA+11448   7.072   6.440  11.689
 7385ION    NA+11449   1.478   4.560   8.904
 7386ION    NA+11450   1.674   0.348  10.348
 7387ION    NA+11451   2.981   3.958   0.300
 7388ION    NA+11452   2.089   0.192  11.642
 7389ION    NA+11453   3.864  10.105   0.465
 7390ION    CL-11454   5.864   5.574   2.660
 7391ION    CL-11455   8.173   9.867   1.358
 7392ION    CL-11456   6.203   0.545   0.592
 7393ION    CL-11457   6.577   1.706  10.775
 7394ION    CL-11458   7.464   7.248   9.412
 7395ION    CL-11459  10.169   8.330   0.948
 7396ION    CL-11460   4.078   5.271   9.430
 7397ION    CL-11461   1.578   7.681   2.343
 7398ION    CL-11462   1.922   5.497  10.018
 7399ION    CL-11463   9.381   7.567   3.414
 7400ION    CL-11464   5.540   2.630  11.365
 7401ION    CL-11465   2.934   9.877   8.428
 7402ION    CL-11466   4.103   6.397  10.112
 7403ION    CL-11467   2.321   3.955   2.984
 7404ION    CL-11468   1.208   8.685   0.578
 7405ION    CL-11469  10.470   5.175   9.585
 7406ION    CL-11470   9.177   9.493   2.559
 7407ION    CL-11471   2.122   8.447   3.453
 7408ION    CL-11472  10.248   7.906   0.046
 7409ION    CL-11473   0.279   1.592   0.225
 7410ION    CL-11474   7.794   7.426   1.464
 7411ION    CL-11475   7.732   8.331   9.326
 7412ION    CL-11476   2.907   2.917  11.682
 7413ION    CL-11477   4.244   5.261   0.092
 7414ION    CL-11478   0.651   8.799   9.062
 7415ION    CL-11479   2.022   6.474   1.603
 7416ION    CL-11480   7.921   6.381   9.092
 7417ION    CL-11481   7.356   6.789  11.768
 7418ION    CL-11482   5.489   7.385  11.354
 7419ION    CL-11483   2.766   2.254   3.428
 7420ION    CL-11484   0.977   4.778  11.748
 7421ION    CL-11485   0.291   3.937   0.870
 7422ION    CL-11486   8.645   6.594   2.948
 7423ION    CL-11487   1.058   8.493  11.220
 7424ION    CL-11488  10.211   9.998  11.740
 7425ION    CL-11489   7.251   6.215   1.334
 7426ION    CL-11490   9.687   6.153   3.669
 7427ION    CL-11491   3.905   1.917   1.185
 7428ION    CL-11492   2.897   3.159   2.966
 7429ION    CL-11493   6.244   4.749   9.048
 7430ION    CL-11494   4.480   1.669  11.823
 7431ION    CL-11495   1.905   0.590  11.738
 7432ION    CL-11496   7.862   2.150  10.992
 7433ION    CL-11497   9.838   8.041   9.568
 7434ION    CL-11498   9.709   9.624  11.076
 7435ION    CL-11499   6.506   9.276   2.853
 7436ION    CL-11500  10.071   2.213  11.714
 7437ION    CL-11501   3.409   3.870   0.432
 7438ION    CL-11502   2.266   3.709   2.016
 7439ION    CL-11503   8.860   7.928  11.628
 7440ION    CL-11504   3.682   1.466   2.644
 7441ION    CL-11505  10.377   3.749  10.819
 7442ION    CL-11506   7.345   8.154   1.322
 7443ION    CL-11507   6.762   1.293   9.427
 7444ION    CL-11508   4.138   4.793   1.791
 7445ION    CL-11509   9.326   5.924   1.686
 7446ION    CL-11510   0.247   8.156  11.096
 7447ION    CL-11511   6.335   6.614   1.302
 7448ION    CL-11512   8.634   0.910   9.859
 7449ION    CL-11513   8.823   3.113  11.511
 7450ION    CL-11514   9.374   0.788  11.402
 7451ION    CL-11515   4.819   8.406   9.376
 7452ION    CL-11516   0.053   0.342   0.177
 7453ION    CL-11517   5.090   4.487  11.981
 7454ION    CL-11518   3.804  10.028   9.119
 7455ION    CL-11519   1.277   4.277   2.341
 7456ION    CL-11520   8.142   7.067  11.968
 7457ION    CL-11521   8.977   1.905   3.177
 7458ION    CL-11522   3.258   7.584  10.743
 7459ION    CL-11523   9.580   6.678  10.252
 7460ION    CL-11524   4.444   8.905   0.155
 7461ION    CL-11525   7.712   5.948   2.180
 7462ION    CL-11526   1.487   4.204  10.528
 7463ION    CL-11527   0.734   6.563   2.429
 7464ION    CL-11528   8.374   5.528   8.901
 7465ION    CL-11529  10.097   4.054   8.819
 7466ION    CL-11530   5.079   3.722  11.524
  10.50000  10.50000  12.00000
