Protein in INSANE! Membrane UpperLeaflet>POPC=1.0 LowerLeaflet>POPC=1.0
12676
    1AU     AUC    1   6.186   2.480   6.999  0.0150 -0.0600 -0.0149
    1AU     AUC    2   6.263   2.776   6.945  0.0558  0.1191  0.0265
    1AU     AUC    3   6.224   2.664   7.228 -0.0611  0.0485 -0.0020
    1AU     AUC    4   6.142   2.296   6.776  0.0555  0.0028  0.1441
    1AU     AUC    5   6.087   2.204   7.059 -0.0634 -0.0111 -0.0101
    1AU     AUC    6   5.895   2.410   6.952 -0.0898 -0.0046 -0.1152
    1AU     AUC    7   5.973   2.712   7.015  0.0855 -0.0931 -0.0138
    1AU     AUC    8   6.399   2.271   6.967  0.0528  0.0244  0.0001
    1AU     AUC    9   6.457   2.535   7.072  0.0197  0.0118  0.0021
    1AU     AUC   10   6.292   2.354   7.257 -0.0008 -0.0578 -0.0625
    1AU     AUC   11   5.991   2.472   7.243 -0.0043  0.0439  0.0350
    1AU     AUC   12   6.373   2.522   6.768 -0.0081  0.0244  0.0165
    1AU     AUC   13   6.087   2.582   6.751 -0.0901  0.0401  0.0791
    1AU     AUC   14   6.349   3.047   6.860 -0.0193  0.0290  0.0047
    1AU     AUC   15   6.309   2.958   7.168 -0.0251  0.0265 -0.0016
    1AU     AUC   16   6.264   2.866   7.452 -0.1109  0.0240  0.0387
    1AU     AUC   17   6.116   2.121   6.551  0.0566  0.0345 -0.0711
    1AU     AUC   18   6.033   2.021   6.830  0.0066 -0.0305  0.0739
    1AU     AUC   19   5.985   1.946   7.142  0.0519 -0.1510  0.0122
    1AU     AUC   20   5.615   2.364   6.893  0.0963  0.0636  0.0452
    1AU     AUC   21   5.668   2.643   6.976 -0.0131  0.0267  0.0630
    1AU     AUC   22   5.750   2.903   7.055 -0.0726 -0.0385  0.0488
    1AU     AUC   23   6.591   2.038   6.932 -0.1280  0.0290  0.1046
    1AU     AUC   24   6.688   2.331   7.018 -0.0019 -0.0321  0.0063
    1AU     AUC   25   6.750   2.600   7.152  0.0061  0.0569  0.0356
    1AU     AUC   26   6.409   2.221   7.495 -0.0369  0.0130 -0.0214
    1AU     AUC   27   6.094   2.331   7.504 -0.0700  0.0058 -0.0249
    1AU     AUC   28   5.801   2.432   7.470 -0.0321 -0.0151 -0.0090
    1AU     AUC   29   6.568   2.562   6.547 -0.0939 -0.0259 -0.0270
    1AU     AUC   30   6.245   2.641   6.516 -0.0242  0.0331 -0.0866
    1AU     AUC   31   5.964   2.702   6.478 -0.0358  0.0078 -0.0381
    1AU     AUC   32   6.316   2.557   7.499 -0.0068  0.0513  0.0271
    1AU     AUC   33   6.042   2.635   7.464 -0.0051  0.0016  0.0268
    1AU     AUC   34   6.457   2.817   6.698  0.0088  0.1053  0.0622
    1AU     AUC   35   6.159   2.901   6.692  0.0346  0.0324  0.0844
    1AU     AUC   36   6.194   2.077   7.339 -0.0240  0.0670  0.0138
    1AU     AUC   37   5.891   2.168   7.316 -0.0208 -0.0375 -0.0336
    1AU     AUC   38   6.349   2.340   6.517  0.0194  0.0611 -0.0042
    1AU     AUC   39   6.049   2.408   6.517 -0.1357 -0.0090  0.0141
    1AU     AUC   40   6.052   2.987   6.956  0.1175 -0.0213  0.0557
    1AU     AUC   41   6.019   2.905   7.269 -0.0920  0.0355 -0.0298
    1AU     AUC   42   5.838   2.217   6.726  0.1550  0.0434 -0.0039
    1AU     AUC   43   5.788   2.135   7.018  0.0824 -0.0213 -0.0512
    1AU     AUC   44   6.545   2.838   7.019 -0.0120  0.0881  0.0957
    1AU     AUC   45   6.501   2.752   7.314 -0.0257  0.0350 -0.0100
    1AU     AUC   46   6.343   2.073   6.744  0.0949  0.0353 -0.0121
    1AU     AUC   47   6.281   1.984   7.048 -0.0601  0.0577  0.0546
    1AU     AUC   48   5.701   2.374   7.193  0.0494 -0.0434  0.0883
    1AU     AUC   49   5.765   2.673   7.251  0.0368 -0.0329  0.0701
    1AU     AUC   50   6.505   2.132   7.208  0.0207  0.0606 -0.0333
    1AU     AUC   51   6.573   2.414   7.341  0.0311  0.0292 -0.0547
    1AU     AUC   52   5.771   2.521   6.681  0.1052  0.1131  0.0793
    1AU     AUC   53   5.857   2.814   6.786  0.0612 -0.0070  0.0670
    1AU     AUC   54   6.574   2.301   6.729  0.0512  0.0376 -0.0708
    1AU     AUC   55   6.655   2.600   6.839 -0.0049 -0.0486  0.0268
    1AU    AUSL   56   6.206   2.603   7.695 -0.0039  0.0673 -0.0292
    1AU    AUSL   57   6.624   2.449   7.712  0.0738 -0.0246 -0.0183
    1AU     AUL   58   6.506   2.608   8.027  0.1272  0.0061 -0.0134
    1AU       S   59   6.954   2.690   7.895 -0.0869  0.1944 -0.0569
    1AU     LIG   60   6.992   3.026   8.213  0.1674 -0.1624  0.0851
    1AU     LIG   61   7.210   3.449   8.184  0.3682  0.0312  0.0202
    1AU     LIG   62   7.619   3.544   8.350  0.2300 -0.0134  0.2217
    1AU     LIG   63   8.016   3.521   8.191 -0.7744 -0.2095  0.4207
    1AU     LIG   64   8.260   3.668   7.893 -0.2313 -0.0033 -0.1174
    1AU     LIG   65   8.344   3.705   7.391 -0.0732 -0.2866 -0.1554
    1AU       S   66   6.129   2.568   8.304  0.1182  0.1878 -0.3349
    1AU     LIG   67   6.209   2.889   8.603  0.1226 -0.1074 -0.1483
    1AU     LIG   68   5.982   2.979   8.926 -0.2341 -0.0148  0.3023
    1AU     LIG   69   5.701   2.962   9.288 -0.0533 -0.1858 -0.3668
    1AU     LIG   70   5.438   3.160   9.572  0.0238 -0.2295 -0.1835
    1AU     LIG   71   5.005   2.992   9.560  0.0172 -0.1213  0.1240
    1AU     LIG   72   4.676   2.635   9.711  0.2445  0.0535  0.0890
    1AU    AUSL   73   6.298   2.219   7.850  0.1015  0.0786  0.0172
    1AU    AUSL   74   5.888   2.274   7.712  0.0566  0.0293  0.0906
    1AU     AUL   75   6.033   2.254   7.978 -0.1655  0.0987  0.1246
    1AU       S   76   6.241   2.308   8.379  0.0146 -0.3863 -0.3344
    1AU     LIG   77   6.032   1.909   8.494 -0.0586  0.0635  0.5947
    1AU     LIG   78   5.840   1.520   8.466 -0.1723  0.2701 -0.2295
    1AU     LIG   79   5.471   1.699   8.380  0.1804  0.0161  0.2620
    1AU     LIG   80   5.054   1.725   8.391 -0.0403  0.1666  0.1238
    1AU     LIG   81   4.796   1.354   8.297 -0.3515 -0.1450  0.1000
    1AU     LIG   82   4.371   1.219   8.275 -0.2762 -0.0563  0.2528
    1AU       S   83   6.005   1.805   8.014 -0.2236  0.1283 -0.1921
    1AU     LIG   84   6.146   1.291   7.982  0.1592  0.0390  0.0368
    1AU     LIG   85   5.927   0.898   7.888 -0.2712  0.2369 -0.2090
    1AU     LIG   86   5.798   0.436   7.750  0.0602 -0.1023  0.0553
    1AU     LIG   87   5.726   0.158   7.466  0.0194  0.1511 -0.1247
    1AU     LIG   88   5.886  -0.227   7.277 -0.2337  0.3086  0.1862
    1AU     LIG   89   6.206  -0.467   7.218  0.1147  0.0027  0.2051
    1AU    AUSL   90   5.812   2.656   7.817 -0.0637  0.0708  0.0071
    1AU    AUSL   91   6.081   3.001   7.653  0.0603  0.0229 -0.0708
    1AU     AUL   92   6.118   2.803   7.911 -0.0245  0.0719 -0.0254
    1AU       S   93   5.799   2.635   8.154  0.2137  0.2493  0.1117
    1AU     LIG   94   5.532   2.315   8.341  0.0112  0.3482  0.3928
    1AU     LIG   95   5.117   2.183   8.297  0.3900 -0.2757 -0.1033
    1AU     LIG   96   4.672   2.515   8.291  0.5377  0.0386  0.2103
    1AU     LIG   97   4.280   2.220   8.113  0.2915  0.0362 -0.3124
    1AU     LIG   98   4.183   1.836   8.094  0.0036 -0.1038 -0.2070
    1AU     LIG   99   4.068   1.496   7.867 -0.0228  0.0034  0.4335
    1AU       S  100   6.049   3.239   7.765 -0.1037  0.3763  0.1905
    1AU     LIG  101   6.118   3.504   8.119 -0.0580  0.2001  0.2406
    1AU     LIG  102   6.384   3.841   8.042  0.0508  0.4708  0.3007
    1AU     LIG  103   6.649   4.246   8.124 -0.0478  0.0428  0.2247
    1AU     LIG  104   7.057   4.413   8.231  0.1198  0.2214 -0.0174
    1AU     LIG  105   7.205   4.827   8.074  0.2482  0.1189  0.6935
    1AU     LIG  106   7.480   5.006   8.247  0.1393  0.1587 -0.0936
    1AU    AUSL  107   6.340   3.129   6.594 -0.0212 -0.0544 -0.0493
    1AU    AUSL  108   5.928   3.092   6.463  0.0699 -0.0548  0.0312
    1AU     AUL  109   6.119   3.335   6.295 -0.0654 -0.0567 -0.0307
    1AU       S  110   6.582   3.272   6.046 -0.0321  0.1103  0.0354
    1AU     LIG  111   6.840   3.156   5.702 -0.2076 -0.0185  0.0950
    1AU     LIG  112   7.256   3.256   5.646  0.0018 -0.2344 -0.3621
    1AU     LIG  113   7.645   3.488   5.813  0.4135  0.2710 -0.2110
    1AU     LIG  114   7.663   3.709   6.181  0.0602 -0.2035 -0.0092
    1AU     LIG  115   7.843   4.088   6.485  0.1670  0.1021 -0.0219
    1AU     LIG  116   7.764   4.577   6.441  0.0700 -0.1407 -0.0705
    1AU       S  117   5.840   3.592   6.522  0.2088  0.1188  0.0639
    1AU     LIG  118   5.872   3.949   6.287 -0.0341  0.0196 -0.2636
    1AU     LIG  119   5.789   4.352   6.366  0.1957  0.1202 -0.3859
    1AU     LIG  120   5.709   4.526   6.789  0.0877  0.1319 -0.2605
    1AU     LIG  121   5.479   4.572   7.148 -0.2787  0.0764 -0.0820
    1AU     LIG  122   5.102   4.880   7.062  0.3700 -0.0426 -0.1821
    1AU     LIG  123   4.934   5.129   7.473  0.4260 -0.0377  0.0663
    1AU    AUSL  124   6.604   2.905   6.346  0.0629  0.0647 -0.0420
    1AU    AUSL  125   6.726   3.122   6.768  0.0138 -0.1215  0.0972
    1AU     AUL  126   6.578   3.337   6.508 -0.0545  0.0410 -0.0283
    1AU       S  127   7.034   3.182   6.570 -0.0447  0.1205  0.2665
    1AU     LIG  128   7.250   3.530   6.512  0.0391 -0.3379  0.0614
    1AU     LIG  129   7.373   4.020   6.541  0.1214  0.0409 -0.2091
    1AU     LIG  130   7.593   4.330   6.900  0.2003  0.4372  0.1936
    1AU     LIG  131   7.479   4.351   7.348  0.2177  0.0238  0.2107
    1AU     LIG  132   7.411   4.025   7.488 -0.4841 -0.1743  0.2723
    1AU     LIG  133   7.215   3.643   7.338  0.0763  0.2171  0.1380
    1AU       S  134   6.757   3.010   6.165 -0.0849 -0.3531 -0.3591
    1AU     LIG  135   7.038   3.430   6.111  0.2679 -0.0040 -0.4315
    1AU     LIG  136   7.312   3.817   5.852  0.0304  0.2526  0.0620
    1AU     LIG  137   7.518   4.179   6.029 -0.0980  0.0290  0.1373
    1AU     LIG  138   7.909   4.327   6.070 -0.0549  0.1257  0.4135
    1AU     LIG  139   8.325   4.530   5.941  0.1706 -0.1765  0.0980
    1AU     LIG  140   8.699   4.624   5.744 -0.1546  0.0794 -0.0040
    1AU    AUSL  141   6.197   2.781   6.445 -0.0432 -0.1554  0.0155
    1AU    AUSL  142   6.434   2.567   6.169 -0.0357  0.0601  0.0439
    1AU     AUL  143   6.284   2.947   6.143  0.0167  0.0630  0.0451
    1AU       S  144   6.365   2.581   5.806 -0.6591 -0.3630 -0.1433
    1AU     LIG  145   6.296   2.874   5.495 -0.0566  0.2378 -0.2837
    1AU     LIG  146   5.818   3.068   5.467  0.1615 -0.0818  0.1805
    1AU     LIG  147   5.373   3.023   5.716  0.3165  0.0231 -0.3350
    1AU     LIG  148   5.096   2.797   5.483  0.0671  0.3212  0.1473
    1AU     LIG  149   4.644   2.703   5.581 -0.0482  0.0564 -0.0481
    1AU     LIG  150   4.338   2.655   5.929  0.3213  0.1163  0.0581
    1AU       S  151   6.751   2.956   6.221  0.1524  0.1438 -0.1261
    1AU     LIG  152   7.221   2.936   5.995 -0.0161  0.1810  0.2218
    1AU     LIG  153   7.679   2.975   5.840  0.1209 -0.1236 -0.2168
    1AU     LIG  154   8.089   3.329   5.847  0.1635  0.1272 -0.2269
    1AU     LIG  155   8.409   3.651   5.862 -0.2941  0.1506 -0.2254
    1AU     LIG  156   8.530   4.012   6.171 -0.1925 -0.0905 -0.2653
    1AU     LIG  157   8.334   4.226   6.441 -0.1702  0.1006  0.4055
    1AU    AUSL  158   5.907   1.880   7.568 -0.0550 -0.0105 -0.0547
    1AU    AUSL  159   5.572   2.162   7.479  0.0670  0.0735 -0.0612
    1AU     AUL  160   5.643   2.060   7.796  0.0319 -0.0023  0.1121
    1AU       S  161   5.858   1.712   7.980 -0.0429 -0.5324 -0.3050
    1AU     LIG  162   5.664   1.342   7.962 -0.2815  0.0369  0.0885
    1AU     LIG  163   5.514   1.113   7.626 -0.1538 -0.1813  0.1725
    1AU     LIG  164   5.611   0.721   7.307 -0.0157  0.1162 -0.1231
    1AU     LIG  165   5.850   0.580   6.868  0.3760 -0.3740  0.1857
    1AU     LIG  166   6.173   0.479   6.641 -0.0188 -0.5067  0.0540
    1AU     LIG  167   6.362   0.869   6.375 -0.1343  0.0832 -0.3238
    1AU       S  168   5.475   1.696   7.612  0.2907  0.2199  0.0860
    1AU     LIG  169   5.197   1.514   7.925  0.0922  0.2838  0.3111
    1AU     LIG  170   5.047   1.128   7.869  0.1447 -0.4530 -0.3050
    1AU     LIG  171   5.141   0.725   7.668 -0.3292  0.4336  0.3365
    1AU     LIG  172   5.294   0.347   7.418  0.1306 -0.1820 -0.2337
    1AU     LIG  173   5.574   0.131   7.005 -0.0102 -0.6014 -0.0850
    1AU     LIG  174   5.714   0.155   6.560 -0.1367  0.1769 -0.2509
    1AU    AUSL  175   6.209   2.150   7.462 -0.1069  0.0095 -0.0651
    1AU    AUSL  176   6.156   1.683   7.291  0.0457 -0.0198 -0.0791
    1AU     AUL  177   6.013   1.693   7.539 -0.0906  0.0256 -0.0908
    1AU       S  178   6.381   1.366   7.490 -0.3342  0.0721  0.1577
    1AU     LIG  179   6.216   0.986   7.425 -0.1608  0.3049 -0.0560
    1AU     LIG  180   6.161   0.492   7.398  0.3229  0.1974  0.0748
    1AU     LIG  181   6.050   0.226   7.136  0.0277  0.0656  0.2626
    1AU     LIG  182   6.102  -0.056   6.814  0.1072  0.2281 -0.2578
    1AU     LIG  183   6.438  -0.246   6.793 -0.1186  0.0855  0.0026
    1AU     LIG  184   6.627  -0.639   6.933  0.0196  0.0408 -0.1188
    1AU       S  185   6.200   1.798   7.961  0.0973  0.1032  0.2358
    1AU     LIG  186   6.606   1.881   8.295  0.2935  0.2810 -0.2174
    1AU     LIG  187   7.064   1.662   8.301  0.3421 -0.4328  0.0318
    1AU     LIG  188   7.122   1.357   8.091  0.3169 -0.1463 -0.4832
    1AU     LIG  189   7.299   0.933   8.155 -0.4039 -0.1676 -0.0442
    1AU     LIG  190   7.318   0.598   8.543  0.0747  0.0939 -0.0888
    1AU     LIG  191   7.329   0.303   8.795 -0.1743  0.0184 -0.2060
    1AU    AUSL  192   6.205   2.269   6.373  0.0243  0.0003 -0.0516
    1AU    AUSL  193   6.626   2.315   6.439 -0.0429 -0.0705  0.0221
    1AU     AUL  194   6.554   2.290   6.113 -0.0528  0.0428  0.0218
    1AU       S  195   6.243   2.420   5.760  0.1238 -0.1611  0.1838
    1AU     LIG  196   6.126   2.435   5.230  0.1465 -0.1361 -0.1621
    1AU     LIG  197   5.857   2.654   5.072  0.2582  0.0074  0.2771
    1AU     LIG  198   5.429   2.755   5.126  0.1787 -0.2262  0.2611
    1AU     LIG  199   5.314   3.128   5.100  0.3032 -0.0839 -0.1102
    1AU     LIG  200   5.512   3.391   5.262 -0.1882 -0.5635 -0.1285
    1AU     LIG  201   5.695   3.553   5.660  0.0675 -0.0550  0.1322
    1AU       S  202   6.779   1.856   6.128 -0.1437 -0.0355 -0.5540
    1AU     LIG  203   7.111   2.007   5.866  0.0532 -0.2473 -0.0113
    1AU     LIG  204   7.445   2.171   5.967  0.1913  0.1922 -0.1593
    1AU     LIG  205   7.703   2.024   6.282  0.1250 -0.1594 -0.1303
    1AU     LIG  206   8.079   2.254   6.238  0.0930  0.0360  0.1056
    1AU     LIG  207   8.449   2.186   5.999 -0.0432  0.2584  0.6031
    1AU     LIG  208   8.666   2.034   5.738  0.2587  0.1207 -0.0522
    1AU    AUSL  209   6.008   2.568   6.146  0.0648 -0.1464 -0.1014
    1AU    AUSL  210   5.839   2.110   6.270 -0.0125  0.0223 -0.0667
    1AU     AUL  211   6.090   2.127   6.068 -0.0863 -0.0792 -0.1217
    1AU       S  212   5.641   2.202   6.025  0.0658 -0.0343  0.1554
    1AU     LIG  213   5.482   1.804   5.861  0.1979  0.0098 -0.2564
    1AU     LIG  214   5.484   1.419   6.048  0.0160  0.4768  0.1630
    1AU     LIG  215   5.279   0.973   6.144 -0.0224  0.1458  0.0674
    1AU     LIG  216   5.117   0.818   6.506 -0.1952  0.1610  0.0672
    1AU     LIG  217   4.793   0.594   6.630  0.0351  0.1234  0.0321
    1AU     LIG  218   4.717   0.743   7.016 -0.1135 -0.1193 -0.0811
    1AU       S  219   6.026   2.578   5.935 -0.0272 -0.2096 -0.1243
    1AU     LIG  220   5.764   2.600   5.572 -0.1325 -0.3340  0.1107
    1AU     LIG  221   5.424   2.387   5.527  0.0225  0.2464  0.0141
    1AU     LIG  222   5.302   1.959   5.357 -0.0726  0.0264  0.0761
    1AU     LIG  223   5.046   1.673   5.623  0.0787  0.1486  0.0766
    1AU     LIG  224   5.043   1.706   6.107  0.0616 -0.2045  0.1589
    1AU     LIG  225   5.019   1.326   6.384 -0.1995 -0.0665 -0.1815
    1AU    AUSL  226   5.719   3.235   7.109 -0.0814 -0.0299 -0.0593
    1AU    AUSL  227   6.046   3.303   6.832  0.0829  0.0648 -0.1092
    1AU     AUL  228   5.628   3.446   6.932  0.0311  0.0109  0.0338
    1AU       S  229   6.125   3.578   6.678 -0.0066 -0.0244  0.1383
    1AU     LIG  230   6.350   3.960   6.567  0.1158 -0.2553  0.1487
    1AU     LIG  231   6.841   4.068   6.683  0.1556 -0.1825  0.0863
    1AU     LIG  232   7.162   3.962   6.955  0.1748 -0.1735 -0.1097
    1AU     LIG  233   7.554   3.775   7.045 -0.1867  0.2014  0.1694
    1AU     LIG  234   7.883   3.480   7.132 -0.2714 -0.0171  0.2895
    1AU     LIG  235   8.010   3.170   6.895 -0.0642  0.2104  0.0919
    1AU       S  236   5.948   3.617   7.197 -0.0858  0.2868  0.1904
    1AU     LIG  237   5.818   4.032   7.349  0.3180 -0.0851 -0.0407
    1AU     LIG  238   5.906   4.396   7.322 -0.1279 -0.0434  0.1964
    1AU     LIG  239   5.923   4.843   7.201  0.0056  0.0808 -0.3094
    1AU     LIG  240   5.622   5.045   7.210  0.1049  0.2647 -0.3812
    1AU     LIG  241   5.672   5.408   7.392 -0.2684 -0.0897 -0.2573
    1AU     LIG  242   5.565   5.576   7.829  0.0777 -0.1116 -0.0927
    1AU    AUSL  243   6.390   3.346   7.046 -0.0369  0.0056 -0.0747
    1AU    AUSL  244   6.448   3.173   7.439 -0.1249 -0.0263  0.0236
    1AU     AUL  245   6.614   3.458   7.331 -0.0445  0.0262 -0.0024
    1AU       S  246   6.229   3.619   7.150 -0.0088 -0.2667 -0.2416
    1AU     LIG  247   6.506   4.090   7.127  0.0751 -0.3206  0.0045
    1AU     LIG  248   6.798   4.365   7.095  0.2792 -0.5270 -0.1543
    1AU     LIG  249   7.000   4.588   7.356 -0.1205  0.3095  0.1200
    1AU     LIG  250   7.293   4.868   7.456 -0.4332 -0.2901 -0.0812
    1AU     LIG  251   7.748   4.874   7.815  0.2277 -0.0498 -0.2404
    1AU     LIG  252   7.946   5.221   8.189  0.1867 -0.3033 -0.0910
    1AU       S  253   6.919   3.411   7.671 -0.0392 -0.2204 -0.1872
    1AU     LIG  254   6.814   3.840   7.821  0.1522  0.0733 -0.0134
    1AU     LIG  255   6.706   4.258   7.602  0.1074  0.0528 -0.0792
    1AU     LIG  256   6.417   4.602   7.313  0.0171 -0.2997 -0.0990
    1AU     LIG  257   6.473   4.942   7.289 -0.0077 -0.0730  0.3360
    1AU     LIG  258   6.624   5.326   6.977 -0.0622 -0.3302  0.0616
    1AU     LIG  259   6.710   5.508   6.595  0.1539 -0.0900 -0.1496
    1AU    AUSL  260   6.093   3.098   7.246 -0.0981  0.0069 -0.0387
    1AU    AUSL  261   5.707   3.002   7.453  0.0514 -0.1211 -0.0651
    1AU     AUL  262   5.729   3.263   7.394  0.0129 -0.0874 -0.0267
    1AU       S  263   5.849   3.196   7.841  0.1101  0.1954  0.4939
    1AU     LIG  264   5.550   3.530   8.052 -0.1229 -0.1213  0.4669
    1AU     LIG  265   5.421   3.941   7.899 -0.0438 -0.0007  0.2778
    1AU     LIG  266   5.700   4.266   7.791 -0.1432  0.1602  0.2332
    1AU     LIG  267   5.782   4.496   8.061  0.0916  0.0169 -0.4071
    1AU     LIG  268   6.170   4.347   8.345 -0.0500  0.1361  0.0744
    1AU     LIG  269   6.621   4.470   8.558  0.4294 -0.2051  0.3071
    1AU       S  270   6.094   3.491   7.376 -0.2614  0.0243  0.4964
    1AU     LIG  271   6.228   3.884   7.577 -0.1055  0.2532 -0.3297
    1AU     LIG  272   6.200   4.308   7.693  0.1197 -0.3278  0.0115
    1AU     LIG  273   6.256   4.857   7.757 -0.2646  0.2262 -0.1156
    1AU     LIG  274   6.117   5.145   7.588 -0.3773  0.1716  0.0217
    1AU     LIG  275   6.036   5.626   7.625  0.2948  0.0487 -0.1229
    1AU     LIG  276   5.945   5.947   7.300 -0.4088 -0.3601  0.4941
    1AU    AUSL  277   5.461   1.993   6.843 -0.0282  0.0091  0.1188
    1AU    AUSL  278   5.727   1.898   7.202 -0.0933 -0.0074  0.0233
    1AU     AUL  279   5.280   1.962   7.083 -0.0662 -0.0849  0.0194
    1AU       S  280   5.589   1.643   7.305 -0.1134 -0.3871  0.2281
    1AU     LIG  281   5.382   1.344   7.256  0.2628 -0.0641 -0.2761
    1AU     LIG  282   5.119   1.065   7.258 -0.0317 -0.3528  0.1976
    1AU     LIG  283   4.660   1.066   7.486 -0.1356 -0.0690 -0.0669
    1AU     LIG  284   4.552   1.323   7.760 -0.1180  0.1162 -0.1379
    1AU     LIG  285   4.600   1.804   7.866 -0.1347 -0.0177 -0.0053
    1AU     LIG  286   4.865   2.094   7.912 -0.2293  0.0666  0.0846
    1AU       S  287   5.381   1.599   6.809 -0.2668 -0.0170 -0.1678
    1AU     LIG  288   4.885   1.758   6.584 -0.5127  0.0260  0.0968
    1AU     LIG  289   4.739   2.097   6.301 -0.2483  0.2434  0.1078
    1AU     LIG  290   4.440   2.176   6.081 -0.3038  0.2133 -0.0617
    1AU     LIG  291   4.037   2.177   6.117 -0.0518  0.1414  0.1132
    1AU     LIG  292   3.684   2.116   5.962 -0.0516  0.0415  0.2533
    1AU     LIG  293   3.376   1.731   5.878 -0.4538  0.2716 -0.0706
    1AU    AUSL  294   5.844   2.046   6.673 -0.0587  0.0466 -0.0919
    1AU    AUSL  295   5.485   2.283   6.542 -0.0500  0.0072  0.0133
    1AU     AUL  296   5.465   1.998   6.465  0.0605 -0.0175 -0.0012
    1AU       S  297   5.382   1.549   6.638 -0.3795  0.1402 -0.2521
    1AU     LIG  298   5.028   1.302   6.871  0.3720  0.4459  0.0388
    1AU     LIG  299   4.681   1.226   7.033 -0.4852 -0.0519  0.0995
    1AU     LIG  300   4.294   0.923   7.125  0.1909 -0.1681 -0.1245
    1AU     LIG  301   4.082   0.648   7.244 -0.4488 -0.0339 -0.1239
    1AU     LIG  302   3.760   0.298   7.318 -0.2756 -0.0375  0.0933
    1AU     LIG  303   3.742  -0.045   7.452  0.1014  0.0939 -0.2155
    1AU       S  304   5.452   2.312   6.138  0.2362  0.1180  0.3034
    1AU     LIG  305   5.119   2.138   5.945 -0.0482 -0.3183  0.0659
    1AU     LIG  306   4.832   2.189   5.640 -0.1415 -0.2459  0.1505
    1AU     LIG  307   4.453   2.240   5.599  0.0839 -0.1807  0.3340
    1AU     LIG  308   4.163   2.519   5.513 -0.0004  0.2238  0.4793
    1AU     LIG  309   3.959   2.866   5.607  0.0033 -0.1047 -0.1206
    1AU     LIG  310   3.972   3.224   5.870  0.1723 -0.0332  0.1993
    1AU    AUSL  311   5.815   1.671   6.878 -0.1016 -0.0036  0.0115
    1AU    AUSL  312   6.109   1.769   6.531  0.0075 -0.0167 -0.0557
    1AU     AUL  313   5.829   1.703   6.493  0.0466  0.0365 -0.0404
    1AU       S  314   6.119   1.350   6.578  0.1838 -0.1051  0.2548
    1AU     LIG  315   5.893   0.992   6.487 -0.2223 -0.1209  0.1708
    1AU     LIG  316   5.558   0.653   6.461 -0.0690  0.0545 -0.1550
    1AU     LIG  317   5.255   0.302   6.536  0.3605 -0.3295  0.1706
    1AU     LIG  318   4.927   0.123   6.514  0.1895 -0.2587 -0.1570
    1AU     LIG  319   4.592   0.177   6.355  0.0137  0.1370  0.0760
    1AU     LIG  320   4.085   0.280   6.282 -0.0009 -0.4038  0.3818
    1AU       S  321   5.692   1.401   6.846  0.1552  0.0220 -0.2331
    1AU     LIG  322   5.554   1.020   6.872  0.0130  0.0314  0.2005
    1AU     LIG  323   5.277   0.657   6.937 -0.0145 -0.0926  0.0065
    1AU     LIG  324   5.046   0.205   7.003 -0.0191  0.1446 -0.1565
    1AU     LIG  325   5.228  -0.130   6.837 -0.1182 -0.3631  0.1863
    1AU     LIG  326   5.595  -0.303   6.590  0.3051  0.1127  0.0459
    1AU     LIG  327   5.950  -0.545   6.780 -0.1542  0.1330  0.2324
    1AU    AUSL  328   6.832   2.954   7.344 -0.0366 -0.0550 -0.0160
    1AU    AUSL  329   6.540   2.838   7.649  0.0151  0.0827 -0.1132
    1AU     AUL  330   6.599   3.117   7.708  0.0042  0.0399 -0.0125
    1AU       S  331   7.016   3.200   7.522 -0.2187 -0.2375 -0.1742
    1AU     LIG  332   7.473   3.490   7.742  0.0710  0.0978  0.0139
    1AU     LIG  333   7.802   3.768   7.772  0.1193  0.2913  0.2436
    1AU     LIG  334   7.920   3.995   7.282 -0.2592 -0.2081 -0.1283
    1AU     LIG  335   8.086   3.938   6.901  0.1137  0.0923 -0.0061
    1AU     LIG  336   8.485   3.886   6.824  0.1375 -0.1727  0.1773
    1AU     LIG  337   8.936   3.985   6.886  0.1822  0.1306  0.0365
    1AU       S  338   6.880   2.750   7.740 -0.1244  0.5631 -0.4971
    1AU     LIG  339   7.340   3.033   7.808 -0.1876 -0.2102 -0.3559
    1AU     LIG  340   7.814   3.090   7.855 -0.0611 -0.0382 -0.2498
    1AU     LIG  341   8.002   3.336   7.593  0.0209 -0.0628  0.1733
    1AU     LIG  342   8.365   3.231   7.237 -0.1333 -0.4517 -0.2705
    1AU     LIG  343   8.651   3.391   6.896  0.2133  0.2916 -0.2787
    1AU     LIG  344   8.924   3.351   6.636  0.0428  0.1132 -0.2682
    1AU    AUSL  345   6.505   2.962   7.083  0.0384  0.0665  0.0230
    1AU    AUSL  346   6.950   2.811   6.961 -0.0461  0.0261  0.0229
    1AU     AUL  347   6.855   3.183   7.049  0.0446  0.0291  0.0352
    1AU       S  348   6.976   3.117   7.465  0.0124  0.0932  0.0208
    1AU     LIG  349   7.450   3.204   7.300 -0.2059 -0.1835 -0.4782
    1AU     LIG  350   7.789   2.974   7.273 -0.0873 -0.0820 -0.1706
    1AU     LIG  351   8.093   2.777   7.188 -0.4339  0.2560  0.0319
    1AU     LIG  352   8.299   2.446   6.898  0.1263 -0.5189 -0.0539
    1AU     LIG  353   8.461   1.942   7.074  0.0735 -0.1418  0.0638
    1AU     LIG  354   8.370   1.569   7.051 -0.0114 -0.0022 -0.0536
    1AU       S  355   7.186   2.974   6.834 -0.2913  0.2122 -0.1288
    1AU     LIG  356   7.553   3.138   6.843 -0.0106  0.1713  0.5924
    1AU     LIG  357   7.742   3.514   6.681  0.3304 -0.1088  0.0144
    1AU     LIG  358   8.112   3.610   6.488 -0.0577 -0.1621  0.2156
    1AU     LIG  359   8.571   3.563   6.360 -0.0085  0.2969  0.2433
    1AU     LIG  360   8.861   3.503   6.134  0.1190 -0.1946  0.1147
    1AU     LIG  361   9.086   3.169   5.872 -0.2892 -0.1205  0.0595
    1AU    AUSL  362   6.483   1.690   6.767 -0.0241  0.0954 -0.1408
    1AU    AUSL  363   6.451   1.945   6.394  0.0089 -0.0393 -0.0908
    1AU     AUL  364   6.327   1.719   6.310 -0.0683  0.0242 -0.0739
    1AU       S  365   6.771   1.721   6.340  0.2034 -0.2190 -0.3805
    1AU     LIG  366   7.276   1.691   6.140  0.4518 -0.0631 -0.2658
    1AU     LIG  367   7.682   1.547   6.029 -0.1023  0.0431  0.3823
    1AU     LIG  368   8.081   1.740   6.233  0.0541 -0.1123 -0.2146
    1AU     LIG  369   8.403   1.621   6.425  0.2997  0.1474  0.1284
    1AU     LIG  370   8.786   1.692   6.703  0.1184 -0.2216  0.2848
    1AU     LIG  371   8.744   1.156   6.876  0.1698  0.1080  0.1742
    1AU       S  372   6.445   1.383   6.602 -0.0786  0.3406  0.1757
    1AU     LIG  373   6.779   1.113   6.782 -0.1471 -0.2996  0.3906
    1AU     LIG  374   6.906   0.728   6.688  0.3186  0.2189  0.2546
    1AU     LIG  375   7.221   0.535   6.788  0.3789 -0.2712 -0.1920
    1AU     LIG  376   7.336   0.177   6.946 -0.1392  0.1660 -0.0785
    1AU     LIG  377   7.540  -0.144   7.153 -0.1640  0.0828 -0.4963
    1AU     LIG  378   7.908  -0.300   7.414  0.0479 -0.1138 -0.1723
    1AU    AUSL  379   6.151   1.896   6.943  0.0234 -0.0039  0.0152
    1AU    AUSL  380   6.516   1.837   7.170 -0.0017 -0.1035  0.1173
    1AU     AUL  381   6.367   1.538   7.054  0.0258  0.0183  0.0294
    1AU       S  382   6.533   1.415   7.481  0.0342  0.2990  0.1672
    1AU     LIG  383   6.798   1.119   7.333  0.0535 -0.2095 -0.2502
    1AU     LIG  384   7.191   1.125   7.031  0.0423 -0.0524 -0.2411
    1AU     LIG  385   7.478   0.943   7.007  0.3552  0.0581 -0.1836
    1AU     LIG  386   7.892   0.878   6.844 -0.0818 -0.3692  0.1814
    1AU     LIG  387   8.104   0.771   6.419 -0.0475 -0.0133  0.0022
    1AU     LIG  388   8.355   0.614   6.131  0.0065 -0.0135  0.2162
    1AU       S  389   6.143   1.398   6.666  0.1714  0.2515 -0.3154
    1AU     LIG  390   6.171   0.991   6.912 -0.0397 -0.0773  0.3041
    1AU     LIG  391   6.524   0.665   7.045 -0.0632 -0.3118 -0.3824
    1AU     LIG  392   6.704   0.170   6.990 -0.0642  0.0761  0.3033
    1AU     LIG  393   6.891  -0.157   6.959 -0.1023  0.1288 -0.2542
    1AU     LIG  394   7.140  -0.553   7.161 -0.1318  0.0696 -0.2155
    1AU     LIG  395   7.373  -0.537   7.504  0.2309  0.0682 -0.0518
    1AU    AUSL  396   5.454   2.559   7.480  0.0555 -0.1317 -0.0480
    1AU    AUSL  397   5.634   2.275   7.083 -0.0102  0.0388 -0.0193
    1AU     AUL  398   5.332   2.243   7.451  0.0842  0.0180 -0.0244
    1AU       S  399   5.393   1.766   7.503  0.1316 -0.2061 -0.1987
    1AU     LIG  400   4.916   1.618   7.499  0.5082  0.2385  0.0420
    1AU     LIG  401   4.580   1.632   7.354  0.4039  0.2348 -0.1137
    1AU     LIG  402   4.230   1.477   7.323 -0.1027 -0.0758  0.0939
    1AU     LIG  403   3.838   1.470   7.339  0.0785  0.0847 -0.1693
    1AU     LIG  404   3.432   1.279   7.430 -0.1750 -0.1002 -0.0396
    1AU     LIG  405   3.120   1.619   7.186 -0.0882 -0.3009 -0.1771
    1AU       S  406   5.080   2.611   7.514  0.0967 -0.0632  0.0235
    1AU     LIG  407   4.679   2.513   7.716  0.1823  0.0982 -0.2170
    1AU     LIG  408   4.422   2.222   7.646 -0.0077  0.1600 -0.3597
    1AU     LIG  409   4.229   2.006   7.182  0.1681  0.0202 -0.3961
    1AU     LIG  410   3.888   1.838   6.991  0.0453  0.1383 -0.0477
    1AU     LIG  411   3.749   1.500   6.826 -0.0053 -0.2704  0.1151
    1AU     LIG  412   3.964   1.186   6.725 -0.1092 -0.1624  0.0427
    1AU    AUSL  413   5.261   2.454   7.045  0.0425 -0.0701 -0.0047
    1AU    AUSL  414   5.478   3.029   6.770 -0.0509 -0.0230  0.0026
    1AU     AUL  415   5.110   2.771   6.888  0.0421  0.0361 -0.0170
    1AU       S  416   5.017   2.488   7.227 -0.2270 -0.0674  0.0878
    1AU     LIG  417   4.584   2.437   7.159  0.2602  0.0621  0.2103
    1AU     LIG  418   4.103   2.445   6.910 -0.1189  0.2126  0.0406
    1AU     LIG  419   4.114   2.600   6.449 -0.2278 -0.0435 -0.1728
    1AU     LIG  420   4.370   2.937   6.355 -0.0014 -0.0812  0.0447
    1AU     LIG  421   4.395   3.293   6.233  0.2095  0.0183 -0.3374
    1AU     LIG  422   4.651   3.710   6.237 -0.0266 -0.1337 -0.0509
    1AU       S  423   5.241   3.204   6.598 -0.2579  0.2735 -0.2583
    1AU     LIG  424   5.125   3.627   6.478 -0.4746  0.0616  0.2383
    1AU     LIG  425   4.910   3.896   6.691 -0.3245 -0.5344 -0.2555
    1AU     LIG  426   4.473   4.119   6.662 -0.2845 -0.1016 -0.1626
    1AU     LIG  427   4.322   4.528   6.814  0.6233  0.1525  0.0821
    1AU     LIG  428   4.159   4.978   6.807  0.0372  0.2904 -0.3691
    1AU     LIG  429   3.897   5.161   7.134  0.1205  0.2487  0.1228
    1AU    AUSL  430   5.497   2.810   7.147 -0.0455 -0.0363 -0.0352
    1AU    AUSL  431   5.846   2.618   7.423 -0.0172 -0.0622  0.0345
    1AU     AUL  432   5.475   2.850   7.524  0.0070 -0.0355 -0.0729
    1AU       S  433   5.774   3.113   7.912  0.0021  0.3441  0.2737
    1AU     LIG  434   5.398   3.074   8.103  0.2962 -0.0720  0.2835
    1AU     LIG  435   5.174   2.673   8.376  0.1924  0.0254 -0.0788
    1AU     LIG  436   4.926   2.437   8.684  0.1579 -0.1248  0.3885
    1AU     LIG  437   4.816   2.147   8.831  0.0835  0.0630 -0.1483
    1AU     LIG  438   4.533   1.876   9.114 -0.0172 -0.1659 -0.1330
    1AU     LIG  439   4.589   2.072   9.530  0.0455  0.0977 -0.2910
    1AU       S  440   5.027   2.811   7.349 -0.2059 -0.1588 -0.0764
    1AU     LIG  441   4.533   2.893   7.395 -0.0858  0.0308  0.2434
    1AU     LIG  442   4.140   2.560   7.395 -0.3425 -0.0558  0.0350
    1AU     LIG  443   3.738   2.404   7.486 -0.1788  0.0330 -0.2685
    1AU     LIG  444   3.559   2.303   7.080  0.0000  0.2965  0.1191
    1AU     LIG  445   3.711   2.200   6.653  0.1089 -0.3003  0.1863
    1AU     LIG  446   4.050   1.841   6.547  0.0717 -0.1729 -0.2434
    1AU    AUSL  447   6.680   2.159   7.423 -0.0342  0.0304  0.1053
    1AU    AUSL  448   6.663   2.592   7.311  0.0570  0.0595 -0.0695
    1AU     AUL  449   6.806   2.287   7.710  0.1159 -0.0089 -0.0428
    1AU       S  450   7.191   2.067   7.555 -0.0766  0.0143 -0.4275
    1AU     LIG  451   7.364   1.945   8.026  0.1800 -0.1589  0.2362
    1AU     LIG  452   7.763   1.805   8.067 -0.1224 -0.0196  0.1436
    1AU     LIG  453   8.056   1.545   7.837  0.3670  0.0510 -0.1943
    1AU     LIG  454   8.374   1.489   7.546 -0.2074 -0.0368 -0.0513
    1AU     LIG  455   8.782   1.139   7.452 -0.0179 -0.2693  0.1651
    1AU     LIG  456   8.844   0.749   7.186  0.2126 -0.0587  0.3495
    1AU       S  457   7.077   2.680   7.639  0.0818  0.4320 -0.0602
    1AU     LIG  458   7.409   2.538   7.749  0.1127  0.2591  0.1711
    1AU     LIG  459   7.673   2.227   7.745 -0.0245  0.2650  0.1494
    1AU     LIG  460   7.961   1.969   7.549 -0.2196 -0.2512  0.2989
    1AU     LIG  461   8.156   2.238   7.307  0.1100 -0.1325 -0.0098
    1AU     LIG  462   8.676   2.376   7.206  0.0290 -0.0719  0.0525
    1AU     LIG  463   8.977   2.142   7.090 -0.0793  0.1042 -0.3299
    1AU    AUSL  464   6.886   2.023   7.095  0.1293  0.0096 -0.0698
    1AU    AUSL  465   6.458   1.858   7.597 -0.0764  0.0647 -0.0530
    1AU     AUL  466   6.817   1.804   7.361  0.0859 -0.0431  0.0168
    1AU       S  467   7.204   2.011   7.435 -0.1466  0.0102  0.0955
    1AU     LIG  468   7.535   1.677   7.546 -0.0085 -0.6042  0.0651
    1AU     LIG  469   7.542   1.253   7.438  0.0409  0.0028  0.3570
    1AU     LIG  470   7.289   0.904   7.474  0.2204 -0.4092  0.0784
    1AU     LIG  471   6.975   0.599   7.289  0.0336 -0.1172  0.1854
    1AU     LIG  472   6.638   0.340   7.439 -0.2692  0.1890 -0.3750
    1AU     LIG  473   6.266   0.106   7.722 -0.0357  0.1806 -0.0128
    1AU       S  474   6.500   1.557   7.621  0.2126 -0.0343  0.2371
    1AU     LIG  475   6.624   1.404   8.031 -0.1484 -0.1490 -0.2088
    1AU     LIG  476   6.637   1.035   7.850 -0.3245 -0.3476 -0.2715
    1AU     LIG  477   6.863   0.797   7.736 -0.0794  0.1206 -0.0908
    1AU     LIG  478   7.175   0.563   7.858 -0.2992  0.0674  0.1230
    1AU     LIG  479   7.626   0.638   7.762 -0.1761 -0.0652 -0.3588
    1AU     LIG  480   7.825   0.648   7.348  0.1398 -0.1543 -0.1331
    1AU    AUSL  481   7.016   2.406   7.289 -0.0312 -0.0175 -0.0045
    1AU    AUSL  482   6.942   2.098   6.690  0.0351 -0.0063  0.0779
    1AU     AUL  483   7.134   2.061   6.996  0.0411  0.0614  0.1118
    1AU       S  484   7.260   1.955   6.544 -0.0448 -0.4542 -0.1534
    1AU     LIG  485   7.564   1.711   6.672 -0.1214 -0.0122 -0.2315
    1AU     LIG  486   7.952   1.530   6.754  0.1368 -0.1006  0.0068
    1AU     LIG  487   8.341   1.140   6.642 -0.0638  0.0164 -0.1097
    1AU     LIG  488   8.696   0.899   6.410  0.3264 -0.0558  0.2045
    1AU     LIG  489   9.050   0.770   6.645  0.0426  0.1641  0.1469
    1AU     LIG  490   9.313   0.856   7.062 -0.0426  0.1541  0.2503
    1AU       S  491   7.143   2.285   7.371 -0.1029 -0.2153  0.0103
    1AU     LIG  492   7.662   2.290   7.243  0.0213  0.0638 -0.1837
    1AU     LIG  493   7.878   1.893   7.096  0.2253 -0.0277 -0.1157
    1AU     LIG  494   7.966   1.480   7.236  0.2285  0.5429 -0.0568
    1AU     LIG  495   8.123   1.088   7.320  0.1039  0.1092 -0.2034
    1AU     LIG  496   8.348   0.696   7.335 -0.0936 -0.0127  0.3095
    1AU     LIG  497   8.683   0.578   7.626  0.0294  0.0665  0.3328
    1AU    AUSL  498   5.630   2.798   6.406 -0.0206  0.0659 -0.0616
    1AU    AUSL  499   5.867   2.935   6.867  0.0378  0.0671 -0.0206
    1AU     AUL  500   5.686   3.150   6.572  0.0719 -0.0078 -0.0504
    1AU       S  501   5.356   3.017   6.240 -0.2154  0.2661  0.3139
    1AU     LIG  502   5.221   3.397   6.061 -0.1444  0.2428  0.1221
    1AU     LIG  503   5.449   3.753   6.120 -0.1440  0.0671 -0.2515
    1AU     LIG  504   5.483   3.926   6.614 -0.4482  0.1771 -0.1139
    1AU     LIG  505   5.467   4.079   7.007 -0.0685 -0.0482  0.0016
    1AU     LIG  506   5.366   4.191   7.430  0.0008  0.0146 -0.1786
    1AU     LIG  507   4.999   4.125   7.784  0.1280 -0.1321  0.0795
    1AU       S  508   6.036   3.449   6.765 -0.1612 -0.2228 -0.0213
    1AU     LIG  509   6.008   3.958   6.891  0.2017 -0.1807 -0.1263
    1AU     LIG  510   6.182   4.327   6.839  0.4647 -0.0069 -0.0364
    1AU     LIG  511   6.469   4.644   6.799 -0.4160 -0.1693 -0.5930
    1AU     LIG  512   6.855   4.854   6.947  0.2006  0.4378  0.0010
    1AU     LIG  513   6.968   5.176   7.262  0.3270  0.2561  0.2783
    1AU     LIG  514   7.000   5.239   7.643 -0.1933 -0.0027  0.1202
    1AU    AUSL  515   5.546   2.620   6.770 -0.0036  0.0970  0.1005
    1AU    AUSL  516   5.853   2.476   6.507  0.0187  0.0535 -0.0542
    1AU     AUL  517   5.352   2.571   6.498  0.0009  0.0831 -0.0698
    1AU       S  518   5.223   3.028   6.514 -0.1682 -0.0018  0.0446
    1AU     LIG  519   4.754   3.158   6.569 -0.0827 -0.0901  0.0790
    1AU     LIG  520   4.463   2.889   6.857 -0.0548  0.3435 -0.1462
    1AU     LIG  521   4.121   3.026   7.196 -0.4022 -0.0803 -0.1572
    1AU     LIG  522   3.800   2.955   7.522  0.1485 -0.1000 -0.0309
    1AU     LIG  523   3.419   2.762   7.439  0.1916 -0.0104 -0.0676
    1AU     LIG  524   3.170   2.410   7.482 -0.5056  0.1225 -0.3031
    1AU       S  525   5.559   2.468   6.062 -0.2262 -0.0722  0.0075
    1AU     LIG  526   5.112   2.640   5.949 -0.0874  0.2522  0.2121
    1AU     LIG  527   4.763   2.609   6.161 -0.2875 -0.1390 -0.2479
    1AU     LIG  528   4.596   2.503   6.595  0.2196  0.0500 -0.5923
    1AU     LIG  529   4.430   2.041   6.758 -0.4276  0.0227 -0.0525
    1AU     LIG  530   4.452   1.570   6.758  0.0041 -0.3469 -0.0335
    1AU     LIG  531   4.592   1.117   6.570  0.1881 -0.0646  0.1147
    1AU    AUSL  532   6.947   2.539   6.540  0.0558 -0.1049 -0.0186
    1AU    AUSL  533   6.542   2.091   6.782 -0.1066 -0.0780 -0.0163
    1AU     AUL  534   6.892   2.195   6.433  0.0298  0.0023  0.0241
    1AU       S  535   6.829   1.696   6.464 -0.0946 -0.2664 -0.1872
    1AU     LIG  536   7.107   1.440   6.509  0.1714 -0.0384  0.1655
    1AU     LIG  537   7.498   1.235   6.602 -0.0209  0.3568 -0.0644
    1AU     LIG  538   7.539   0.785   6.434 -0.0871  0.0932  0.3480
    1AU     LIG  539   7.320   0.399   6.297 -0.2679  0.3971 -0.2417
    1AU     LIG  540   7.037   0.109   6.430  0.0053  0.0101 -0.3119
    1AU     LIG  541   6.993  -0.369   6.478  0.0773  0.1205 -0.1618
    1AU       S  542   7.336   2.313   6.483 -0.1906  0.3799  0.3206
    1AU     LIG  543   7.612   2.663   6.405  0.1128 -0.1651 -0.2338
    1AU     LIG  544   8.038   2.738   6.600  0.0163  0.0930 -0.2882
    1AU     LIG  545   8.457   2.922   6.788  0.1327  0.0095 -0.1027
    1AU     LIG  546   8.685   2.877   7.111  0.1189  0.1886 -0.0946
    1AU     LIG  547   9.019   3.181   7.248 -0.3468 -0.2245 -0.1939
    1AU     LIG  548   9.120   3.284   7.645 -0.5066  0.2559  0.2087
    1AU    AUSL  549   6.833   2.421   6.919  0.0479 -0.0190 -0.0139
    1AU    AUSL  550   6.614   2.707   6.700 -0.0954  0.0648  0.0498
    1AU     AUL  551   7.105   2.553   6.822  0.0409  0.0574 -0.0263
    1AU       S  552   7.351   2.223   6.651  0.2049  0.0730  0.0174
    1AU     LIG  553   7.748   2.240   6.795 -0.3126  0.0594  0.1117
    1AU     LIG  554   8.136   1.994   6.677 -0.5389 -0.0354  0.2681
    1AU     LIG  555   8.603   2.114   6.463  0.3047 -0.1374 -0.1774
    1AU     LIG  556   9.066   2.109   6.541 -0.0773  0.0715  0.0291
    1AU     LIG  557   9.372   2.071   6.799  0.0647 -0.2008 -0.0633
    1AU     LIG  558   9.502   1.845   7.209  0.0102  0.0643  0.1337
    1AU       S  559   7.105   2.965   6.554 -0.0750  0.0578  0.3366
    1AU     LIG  560   7.512   3.155   6.321  0.2472 -0.1775 -0.4253
    1AU     LIG  561   7.904   3.147   6.298 -0.1731 -0.0170 -0.1317
    1AU     LIG  562   8.305   3.087   6.374 -0.1826  0.1204  0.3097
    1AU     LIG  563   8.698   3.012   6.319 -0.1191  0.1397  0.1120
    1AU     LIG  564   8.916   2.880   6.662  0.2562  0.0118  0.0353
    1AU     LIG  565   8.804   2.529   6.758  0.0749 -0.6249 -0.5062
    2POPC   NC3  566   9.248   8.235   8.689  0.0978  0.2646 -0.0902
    2POPC   PO4  567   9.325   7.739   8.763  0.2333  0.1348 -0.0366
    2POPC   GL1  568   9.199   7.776   8.370 -0.0598  0.2437  0.2238
    2POPC   GL2  569   8.910   7.859   8.363  0.0825  0.2654  0.0631
    2POPC   C1A  570   9.155   7.697   7.975  0.0347 -0.1512 -0.0258
    2POPC   D2A  571   8.939   7.653   7.693 -0.0443 -0.0283  0.1214
    2POPC   C3A  572   8.611   7.826   7.781  0.1132 -0.1123 -0.0009
    2POPC   C4A  573   8.465   8.121   8.004  0.1681 -0.0404  0.2009
    2POPC   C1B  574   8.914   8.168   8.127 -0.1681 -0.4302 -0.3940
    2POPC   C2B  575   9.012   8.155   7.744 -0.5022 -0.0666  0.0527
    2POPC   C3B  576   9.064   8.312   7.411  0.1220 -0.1087  0.0681
    2POPC   C4B  577   9.369   8.340   7.167 -0.2494  0.0129 -0.1280
    3POPC   NC3  578  10.121   4.353   8.985 -0.0126 -0.0380  0.0831
    3POPC   PO4  579  10.016   4.023   8.685 -0.4597 -0.2917  0.0410
    3POPC   GL1  580  10.121   4.217   8.288 -0.2022 -0.1798  0.0480
    3POPC   GL2  581  10.453   4.113   8.190 -0.3238  0.1430 -0.0621
    3POPC   C1A  582  10.140   4.291   7.879 -0.3227 -0.1703  0.0207
    3POPC   D2A  583  10.197   4.428   7.443 -0.1207 -0.1149 -0.0485
    3POPC   C3A  584   9.820   4.553   7.213  0.0226 -0.1834 -0.0348
    3POPC   C4A  585   9.508   4.607   6.969  0.1380  0.0790 -0.1834
    3POPC   C1B  586  10.633   4.355   7.841 -0.2635  0.2007 -0.2736
    3POPC   C2B  587  10.917   4.301   7.494  0.5412  0.0269  0.2332
    3POPC   C3B  588  10.587   4.463   7.139 -0.3726  0.0146 -0.3112
    3POPC   C4B  589  10.719   4.680   6.777  0.0283 -0.0879 -0.2002
    4POPC   NC3  590   9.263   8.406   9.206 -0.2202  0.3362  0.0740
    4POPC   PO4  591   9.107   8.639   8.872 -0.1178 -0.1781 -0.1972
    4POPC   GL1  592   9.079   8.631   8.459 -0.1098  0.0617  0.2120
    4POPC   GL2  593   9.358   8.685   8.465  0.0541 -0.2557 -0.0725
    4POPC   C1A  594   9.041   8.635   7.985  0.1157  0.2306 -0.0238
    4POPC   D2A  595   8.611   8.602   7.689 -0.0678  0.0046 -0.2791
    4POPC   C3A  596   8.608   8.353   7.239 -0.0187  0.1804 -0.1563
    4POPC   C4A  597   8.478   8.572   6.780 -0.2425 -0.3626  0.1682
    4POPC   C1B  598   9.552   8.796   8.091 -0.1175  0.3566 -0.3579
    4POPC   C2B  599   9.651   8.997   7.670  0.1281 -0.2542 -0.3961
    4POPC   C3B  600   9.368   9.329   7.433 -0.3633  0.1101  0.0477
    4POPC   C4B  601   8.915   9.495   7.236 -0.1022  0.1670  0.1084
    5POPC   NC3  602   4.419   6.120   8.978 -0.1333  0.2239  0.1712
    5POPC   PO4  603   3.993   6.146   9.033  0.0795 -0.1326  0.1468
    5POPC   GL1  604   4.054   6.178   8.689 -0.0452 -0.2409 -0.1051
    5POPC   GL2  605   4.052   6.526   8.591  0.0813  0.4024 -0.4042
    5POPC   C1A  606   4.272   6.006   8.335 -0.4233 -0.2972  0.2386
    5POPC   D2A  607   4.477   6.001   7.958 -0.0638  0.0330 -0.0279
    5POPC   C3A  608   4.638   5.723   7.639  0.1032  0.0569 -0.1476
    5POPC   C4A  609   4.714   5.503   7.189  0.0740  0.0027  0.0624
    5POPC   C1B  610   4.262   6.481   8.122 -0.2743  0.1990  0.1802
    5POPC   C2B  611   4.093   6.291   7.773 -0.3013 -0.0278  0.2118
    5POPC   C3B  612   4.086   6.458   7.428  0.0851  0.0109  0.0398
    5POPC   C4B  613   4.359   6.696   7.198  0.2216 -0.0146  0.1561
    6POPC   NC3  614   3.011   4.390   9.293  0.4362  0.0957  0.0027
    6POPC   PO4  615   2.819   4.667   9.033  0.1327  0.1408 -0.0715
    6POPC   GL1  616   2.929   4.776   8.649 -0.3774 -0.2001  0.3424
    6POPC   GL2  617   2.679   4.709   8.394 -0.1994  0.1520  0.0774
    6POPC   C1A  618   3.285   4.894   8.301  0.0794 -0.0828  0.0471
    6POPC   D2A  619   3.146   4.773   7.915  0.1478  0.0357  0.0239
    6POPC   C3A  620   3.560   4.718   7.536  0.2192 -0.1269  0.1179
    6POPC   C4A  621   4.024   4.727   7.640 -0.0942 -0.1334  0.0230
    6POPC   C1B  622   2.529   4.822   8.043  0.1621  0.1701  0.0311
    6POPC   C2B  623   2.680   4.841   7.597 -0.0418  0.1384  0.0359
    6POPC   C3B  624   3.119   4.936   7.228  0.2075 -0.3223 -0.2619
    6POPC   C4B  625   3.463   4.775   6.908 -0.4396 -0.3764 -0.0598
    7POPC   NC3  626   6.713   3.892  10.267 -0.1154 -0.3937 -0.0267
    7POPC   PO4  627   6.632   4.293  10.307  0.1833  0.0831 -0.0225
    7POPC   GL1  628   6.688   4.365   9.914 -0.1460  0.3975 -0.0871
    7POPC   GL2  629   6.939   4.238   9.793 -0.1576  0.1203 -0.2256
    7POPC   C1A  630   6.695   4.571   9.529 -0.2360  0.0867  0.1314
    7POPC   D2A  631   6.803   4.966   9.320 -0.4794 -0.0376 -0.2647
    7POPC   C3A  632   6.607   5.091   8.996  0.0076 -0.1209 -0.0712
    7POPC   C4A  633   6.709   5.029   8.533  0.0741 -0.0913  0.3314
    7POPC   C1B  634   7.148   4.391   9.426 -0.2381 -0.2917  0.3014
    7POPC   C2B  635   7.299   4.747   9.140 -0.1416  0.0281 -0.1579
    7POPC   C3B  636   7.572   5.199   9.098 -0.0125  0.0652 -0.0118
    7POPC   C4B  637   7.499   5.631   8.957  0.0691  0.1859  0.1253
    8POPC   NC3  638   9.374   1.642   9.750  0.1757  0.1873 -0.2519
    8POPC   PO4  639   9.530   1.644   9.327 -0.0776  0.1665  0.1840
    8POPC   GL1  640   9.644   1.686   8.907  0.0461  0.3452  0.1892
    8POPC   GL2  641   9.744   1.610   8.618  0.2379  0.0212 -0.2094
    8POPC   C1A  642   9.427   1.985   8.496 -0.1495  0.0549  0.2025
    8POPC   D2A  643   9.128   2.190   8.303 -0.2617  0.0738  0.2733
    8POPC   C3A  644   8.982   2.590   8.323 -0.2650 -0.2816 -0.0059
    8POPC   C4A  645   8.557   2.710   8.229  0.3593  0.0050 -0.0295
    8POPC   C1B  646   9.537   1.469   8.263  0.2056  0.1933  0.2770
    8POPC   C2B  647   9.427   1.424   7.871 -0.0503  0.1539 -0.1303
    8POPC   C3B  648   9.155   1.641   7.583  0.1251 -0.0171 -0.3819
    8POPC   C4B  649   8.903   1.653   7.222 -0.0982  0.1209  0.1476
    9POPC   NC3  650   2.930   2.731   9.723 -0.3791 -0.0281  0.1249
    9POPC   PO4  651   3.315   2.886   9.786 -0.1997  0.0648 -0.0360
    9POPC   GL1  652   3.455   2.845   9.330  0.1545  0.1169  0.2731
    9POPC   GL2  653   3.619   3.182   9.268 -0.2067  0.2280  0.2466
    9POPC   C1A  654   3.299   2.557   9.012 -0.0469  0.2908  0.1100
    9POPC   D2A  655   2.996   2.470   8.667 -0.0070 -0.1365 -0.0568
    9POPC   C3A  656   3.036   2.167   8.381  0.2296  0.0467  0.2908
    9POPC   C4A  657   3.200   2.084   8.006 -0.2664  0.1402 -0.0048
    9POPC   C1B  658   3.837   3.494   8.930  0.2568  0.0903 -0.4270
    9POPC   C2B  659   4.106   3.520   8.654 -0.0466  0.0448  0.2936
    9POPC   C3B  660   4.193   3.708   8.218  0.1143 -0.2725  0.1215
    9POPC   C4B  661   4.455   3.983   8.065  0.3677 -0.0659 -0.0249
   10POPC   NC3  662   1.014   6.442   9.344  0.1617  0.1222  0.0202
   10POPC   PO4  663   1.261   6.606   8.986 -0.2069  0.0469  0.1858
   10POPC   GL1  664   1.553   6.307   8.646  0.2406 -0.1229 -0.1705
   10POPC   GL2  665   1.922   6.182   8.692  0.0027 -0.0868 -0.0071
   10POPC   C1A  666   1.477   6.183   8.283  0.0322 -0.0344  0.1571
   10POPC   D2A  667   1.525   6.231   7.779  0.0706  0.0119 -0.2164
   10POPC   C3A  668   1.326   5.949   7.497  0.1891  0.1597 -0.0902
   10POPC   C4A  669   1.341   5.506   7.308  0.1106  0.1893 -0.4721
   10POPC   C1B  670   2.108   6.243   8.267 -0.1558 -0.0776 -0.1261
   10POPC   C2B  671   2.030   6.103   7.889  0.5504 -0.1065 -0.1995
   10POPC   C3B  672   2.019   6.346   7.514  0.0074  0.2341  0.0178
   10POPC   C4B  673   1.789   6.632   7.256  0.1763  0.0678 -0.2754
   11POPC   NC3  674   6.782   2.804  10.446 -0.0752 -0.2573 -0.0162
   11POPC   PO4  675   7.063   2.489  10.525  0.2073 -0.1640  0.1328
   11POPC   GL1  676   7.072   2.552  10.033  0.1652 -0.0361  0.1644
   11POPC   GL2  677   6.778   2.706   9.981 -0.1193  0.0205 -0.0204
   11POPC   C1A  678   7.122   2.713   9.548 -0.3271  0.0841  0.0853
   11POPC   D2A  679   6.927   2.994   9.384  0.0890 -0.0618 -0.2374
   11POPC   C3A  680   7.097   3.217   9.040 -0.1196  0.1008  0.0032
   11POPC   C4A  681   7.299   3.295   8.645  0.8170  0.0496 -0.0781
   11POPC   C1B  682   6.969   3.047   9.850  0.1917  0.1294 -0.1125
   11POPC   C2B  683   7.356   3.237   9.474 -0.0967  0.0593 -0.3030
   11POPC   C3B  684   7.531   3.438   9.039 -0.1064  0.0284  0.1371
   11POPC   C4B  685   7.519   3.811   8.833  0.1112 -0.0711  0.1611
   12POPC   NC3  686   9.046   3.386   9.246  0.3625  0.1306 -0.1376
   12POPC   PO4  687   8.811   3.294   8.967  0.1851 -0.2582  0.2020
   12POPC   GL1  688   8.757   3.342   8.509  0.0181 -0.1611 -0.2409
   12POPC   GL2  689   8.801   3.065   8.515 -0.2797 -0.0774  0.1215
   12POPC   C1A  690   8.897   3.395   8.178  0.0268 -0.1790 -0.4513
   12POPC   D2A  691   9.156   3.684   7.994  0.1533  0.4453 -0.0132
   12POPC   C3A  692   9.218   4.060   7.804  0.2362 -0.0136 -0.1435
   12POPC   C4A  693   9.600   4.206   7.501 -0.0234  0.1161 -0.1976
   12POPC   C1B  694   8.468   3.173   8.077  0.0873  0.1760 -0.1765
   12POPC   C2B  695   8.649   3.350   7.622 -0.1400  0.1052  0.0865
   12POPC   C3B  696   8.902   3.656   7.442  0.0327  0.2477 -0.3426
   12POPC   C4B  697   9.273   3.933   7.224  0.0403  0.0251 -0.1076
   13POPC   NC3  698   5.614   0.698  10.830  0.4727  0.2865  0.0766
   13POPC   PO4  699   5.522   0.411  10.465 -0.0963  0.1595  0.1206
   13POPC   GL1  700   5.573   0.528   9.984  0.2731 -0.2460 -0.0011
   13POPC   GL2  701   5.748   0.366   9.789 -0.2314 -0.1600 -0.0053
   13POPC   C1A  702   5.637   0.765   9.540 -0.0314 -0.1020 -0.2689
   13POPC   D2A  703   5.701   0.612   9.116 -0.1538  0.0921 -0.3049
   13POPC   C3A  704   5.804   0.879   8.881  0.1913  0.0442  0.1579
   13POPC   C4A  705   5.852   1.027   8.408 -0.2391 -0.1715 -0.0444
   13POPC   C1B  706   6.062   0.405   9.563  0.0979 -0.2193 -0.4469
   13POPC   C2B  707   6.145   0.792   9.399  0.1289 -0.1198  0.0055
   13POPC   C3B  708   5.965   1.249   9.198 -0.3496  0.0298  0.1485
   13POPC   C4B  709   6.000   1.730   8.993  0.0079  0.1388  0.0344
   14POPC   NC3  710   1.066   8.636   8.728 -0.1776 -0.1405 -0.1068
   14POPC   PO4  711   1.154   9.002   8.695  0.2345  0.0873  0.0856
   14POPC   GL1  712   1.171   8.941   8.266 -0.2984  0.0978  0.0198
   14POPC   GL2  713   1.473   9.046   8.066 -0.0662 -0.1881 -0.3643
   14POPC   C1A  714   1.135   9.281   7.834 -0.2368 -0.0131 -0.1800
   14POPC   D2A  715   0.723   9.582   7.811 -0.1047  0.0213  0.2058
   14POPC   C3A  716   0.516   9.852   7.435 -0.0658 -0.1754  0.2227
   14POPC   C4A  717   0.233   9.744   7.280  0.1168 -0.1883  0.1420
   14POPC   C1B  718   1.619   9.024   7.601 -0.3259 -0.3456 -0.0902
   14POPC   C2B  719   1.832   8.903   7.172  0.1447 -0.1611  0.0304
   14POPC   C3B  720   2.136   8.814   6.828 -0.2048  0.2694  0.4119
   14POPC   C4B  721   2.383   8.569   6.617  0.1331 -0.1500  0.1740
   15POPC   NC3  722   3.127   3.232   9.351  0.2479 -0.0860 -0.1425
   15POPC   PO4  723   2.745   3.345   9.076  0.1323 -0.0399 -0.2256
   15POPC   GL1  724   2.756   3.308   8.633  0.2258  0.1788 -0.1470
   15POPC   GL2  725   2.513   3.575   8.411 -0.2938 -0.1501  0.0406
   15POPC   C1A  726   2.977   3.493   8.326  0.1009  0.5041  0.0777
   15POPC   D2A  727   3.340   3.536   8.063 -0.0940  0.0944 -0.2885
   15POPC   C3A  728   3.243   3.701   7.585  0.1394 -0.2178 -0.2950
   15POPC   C4A  729   3.021   3.912   7.261  0.3288  0.2900 -0.2242
   15POPC   C1B  730   2.559   3.542   8.021 -0.1313 -0.0470 -0.1097
   15POPC   C2B  731   2.920   3.373   7.793  0.0465  0.5056  0.2068
   15POPC   C3B  732   3.329   3.235   7.655  0.1086  0.2030  0.1724
   15POPC   C4B  733   3.628   3.387   7.441  0.0733  0.3494  0.1459
   16POPC   NC3  734   5.922   0.067  10.269 -0.0110 -0.2408  0.2867
   16POPC   PO4  735   5.799  -0.227   9.897  0.1610  0.1376 -0.0471
   16POPC   GL1  736   5.776  -0.128   9.502 -0.0984  0.1867  0.0485
   16POPC   GL2  737   5.486  -0.116   9.360 -0.0629 -0.5236  0.0675
   16POPC   C1A  738   5.865   0.193   9.184 -0.0511  0.3362  0.1834
   16POPC   D2A  739   6.159   0.520   8.941 -0.1985 -0.1358 -0.3704
   16POPC   C3A  740   6.275   0.802   8.662  0.0939 -0.0980  0.3005
   16POPC   C4A  741   6.342   0.915   8.248  0.0693 -0.0917  0.1394
   16POPC   C1B  742   5.128  -0.048   9.123 -0.2199 -0.0659  0.2925
   16POPC   C2B  743   5.330  -0.193   8.652 -0.1542 -0.1519  0.0178
   16POPC   C3B  744   5.599  -0.265   8.326 -0.0647  0.2015 -0.0587
   16POPC   C4B  745   5.821  -0.556   8.119  0.2329 -0.0443  0.0595
   17POPC   NC3  746   4.779   9.879   9.642  0.0726 -0.1727 -0.1370
   17POPC   PO4  747   4.467  10.052   9.431 -0.0977 -0.0652 -0.2876
   17POPC   GL1  748   4.572  10.194   9.037 -0.2609 -0.0665  0.1214
   17POPC   GL2  749   4.331  10.414   9.079  0.0602 -0.2040 -0.3854
   17POPC   C1A  750   4.397  10.367   8.466  0.2413  0.1922 -0.2814
   17POPC   D2A  751   4.607  10.651   8.256  0.1122 -0.0978  0.0458
   17POPC   C3A  752   4.321  10.907   7.902 -0.0448  0.0046 -0.1453
   17POPC   C4A  753   4.144  11.158   7.606  0.2567 -0.1427 -0.3836
   17POPC   C1B  754   4.494  10.756   8.830 -0.2221 -0.0456  0.0993
   17POPC   C2B  755   4.646  11.025   8.586  0.0076 -0.0361  0.1085
   17POPC   C3B  756   5.019  11.011   8.293 -0.0098 -0.3400  0.0209
   17POPC   C4B  757   5.359  11.263   8.384  0.3775  0.0118  0.0056
   18POPC   NC3  758   6.907   4.236  10.742 -0.2362  0.1954 -0.0482
   18POPC   PO4  759   7.246   4.018  10.485 -0.2130 -0.0757  0.1718
   18POPC   GL1  760   7.195   3.842   9.999 -0.1159  0.0796  0.1907
   18POPC   GL2  761   7.454   3.847   9.760 -0.0146 -0.3752  0.0591
   18POPC   C1A  762   6.957   3.550   9.648  0.1634 -0.2699  0.1414
   18POPC   D2A  763   6.716   3.516   9.251 -0.3134  0.0230  0.1607
   18POPC   C3A  764   6.374   3.328   9.017  0.0139 -0.0259  0.0747
   18POPC   C4A  765   6.308   3.331   8.553 -0.1219  0.1697  0.0269
   18POPC   C1B  766   7.290   3.798   9.375 -0.1085  0.0149  0.1726
   18POPC   C2B  767   7.045   3.788   8.972  0.2058 -0.1512  0.0157
   18POPC   C3B  768   6.815   3.547   8.719 -0.0163 -0.1110 -0.0219
   18POPC   C4B  769   6.780   3.129   8.640 -0.2421  0.2507 -0.2853
   19POPC   NC3  770   0.401   6.544   9.206  0.0694 -0.1328 -0.1887
   19POPC   PO4  771   0.311   6.315   8.789  0.2836  0.0835  0.1225
   19POPC   GL1  772   0.506   6.479   8.502 -0.0483 -0.3460 -0.1200
   19POPC   GL2  773   0.532   6.209   8.365  0.0880  0.1960 -0.0995
   19POPC   C1A  774   0.576   6.626   8.136 -0.0288  0.1202  0.5132
   19POPC   D2A  775   0.834   6.935   7.933  0.2304 -0.1293 -0.1547
   19POPC   C3A  776   0.611   7.128   7.504  0.2578 -0.0975  0.2043
   19POPC   C4A  777   0.253   7.035   7.188  0.2746  0.0358 -0.0601
   19POPC   C1B  778   0.406   6.171   7.938 -0.1400 -0.1675  0.0459
   19POPC   C2B  779   0.169   6.258   7.501  0.1472  0.1839 -0.1616
   19POPC   C3B  780  -0.053   6.259   7.256  0.1246 -0.0068 -0.0368
   19POPC   C4B  781  -0.106   6.203   6.830 -0.0103 -0.0946  0.0579
   20POPC   NC3  782   2.370   4.853   8.784  0.1002  0.0804  0.2441
   20POPC   PO4  783   2.416   4.328   8.671 -0.1341 -0.0911 -0.1035
   20POPC   GL1  784   2.501   4.140   8.264 -0.3914  0.2907 -0.2675
   20POPC   GL2  785   2.825   4.241   8.318 -0.1512 -0.0717 -0.1060
   20POPC   C1A  786   2.283   3.901   7.949  0.2024 -0.4417  0.1783
   20POPC   D2A  787   2.262   3.468   7.631 -0.1036  0.2633 -0.0398
   20POPC   C3A  788   2.573   3.441   7.359 -0.2439 -0.0070 -0.1014
   20POPC   C4A  789   3.016   3.426   7.300 -0.0599  0.3806 -0.2220
   20POPC   C1B  790   2.631   4.335   7.871  0.0175  0.1368 -0.1929
   20POPC   C2B  791   2.810   4.359   7.439 -0.1971  0.0189 -0.2018
   20POPC   C3B  792   2.727   4.386   7.009  0.1628  0.0364  0.2472
   20POPC   C4B  793   2.687   4.484   6.492  0.2016 -0.1125  0.0808
   21POPC   NC3  794   0.976   1.829   8.505  0.3663  0.2683 -0.0471
   21POPC   PO4  795   1.117   2.242   8.330 -0.1182 -0.3057  0.0384
   21POPC   GL1  796   1.419   2.306   7.951 -0.1082  0.1846  0.1560
   21POPC   GL2  797   1.629   2.294   7.995  0.5822 -0.0295 -0.1655
   21POPC   C1A  798   1.257   2.322   7.578  0.1711  0.4112 -0.0135
   21POPC   D2A  799   1.083   2.574   7.320 -0.6180 -0.1520  0.1251
   21POPC   C3A  800   0.780   2.993   7.294 -0.4088  0.1427  0.3527
   21POPC   C4A  801   0.885   3.405   7.092 -0.1454 -0.1663 -0.1574
   21POPC   C1B  802   1.840   2.404   7.666 -0.1234 -0.3654  0.1343
   21POPC   C2B  803   1.992   2.858   7.750  0.2647  0.2717 -0.0446
   21POPC   C3B  804   2.120   3.189   8.070  0.1172 -0.0249 -0.0754
   21POPC   C4B  805   2.043   3.575   8.210  0.2581  0.0949  0.2249
   22POPC   NC3  806   3.584   5.893   9.067  0.1390 -0.2837  0.0500
   22POPC   PO4  807   3.146   6.052   8.991  0.0118  0.1931  0.1428
   22POPC   GL1  808   3.064   6.228   8.586  0.2526  0.3440 -0.0138
   22POPC   GL2  809   3.133   6.023   8.462  0.1197  0.0923  0.1130
   22POPC   C1A  810   3.231   6.421   8.223 -0.2871 -0.0610 -0.1035
   22POPC   D2A  811   3.418   6.100   7.903  0.0925 -0.3035  0.0624
   22POPC   C3A  812   3.650   6.192   7.531 -0.1196  0.1657  0.0809
   22POPC   C4A  813   3.682   6.334   7.045  0.0715 -0.0444  0.1261
   22POPC   C1B  814   3.082   5.773   8.109 -0.1725 -0.3784 -0.0658
   22POPC   C2B  815   2.852   5.740   7.668  0.2893  0.2150 -0.2103
   22POPC   C3B  816   2.735   6.122   7.332 -0.1899 -0.0248 -0.0797
   22POPC   C4B  817   2.390   6.252   7.181  0.2399 -0.1975  0.1876
   23POPC   NC3  818   4.547   4.098   9.978  0.3082 -0.1872  0.1398
   23POPC   PO4  819   4.876   4.079   9.677  0.0268  0.2742 -0.1943
   23POPC   GL1  820   5.155   4.058   9.263 -0.1891 -0.3145 -0.2836
   23POPC   GL2  821   5.502   4.126   9.209  0.1098 -0.0581  0.2921
   23POPC   C1A  822   4.940   3.839   8.849  0.4760  0.1321  0.1349
   23POPC   D2A  823   4.590   3.651   8.570  0.0567  0.1130  0.2190
   23POPC   C3A  824   4.492   3.238   8.459 -0.2929  0.2137  0.0377
   23POPC   C4A  825   4.400   3.019   8.008  0.1793  0.3166 -0.2767
   23POPC   C1B  826   5.590   3.852   8.864  0.0721 -0.4514 -0.2557
   23POPC   C2B  827   5.350   3.787   8.544  0.1423 -0.3112 -0.1435
   23POPC   C3B  828   5.093   3.481   8.268 -0.2179 -0.3604  0.2995
   23POPC   C4B  829   4.595   3.449   8.033  0.0186 -0.1404 -0.1118
   24POPC   NC3  830   5.280   5.828   8.956 -0.2283 -0.1636 -0.1535
   24POPC   PO4  831   4.946   6.138   8.842  0.1814  0.1307  0.0701
   24POPC   GL1  832   4.996   5.949   8.417  0.0248 -0.0125 -0.0229
   24POPC   GL2  833   4.822   6.209   8.238 -0.1346 -0.1278 -0.0888
   24POPC   C1A  834   5.160   5.960   7.964 -0.3313  0.0539 -0.0077
   24POPC   D2A  835   5.102   5.939   7.599  0.0131 -0.0782  0.3676
   24POPC   C3A  836   5.410   5.854   7.190  0.1865 -0.1286 -0.0629
   24POPC   C4A  837   5.687   6.201   6.929 -0.2305  0.1295  0.1104
   24POPC   C1B  838   4.796   6.617   8.132  0.0984 -0.0022 -0.1530
   24POPC   C2B  839   4.978   6.904   7.862 -0.0774 -0.0886 -0.1867
   24POPC   C3B  840   5.292   7.110   7.653  0.1813  0.3021  0.1275
   24POPC   C4B  841   5.308   7.036   7.172  0.2658 -0.0875  0.1691
   25POPC   NC3  842   5.713   8.252   8.961 -0.0533  0.0291  0.2315
   25POPC   PO4  843   5.650   7.852   9.043  0.2086  0.1117 -0.4197
   25POPC   GL1  844   5.695   7.768   8.594  0.1071  0.0930  0.2604
   25POPC   GL2  845   5.810   7.937   8.380 -0.0055  0.0013 -0.2108
   25POPC   C1A  846   5.520   7.790   8.027 -0.0017  0.1611 -0.2892
   25POPC   D2A  847   5.829   8.016   7.832  0.3270  0.1547 -0.0950
   25POPC   C3A  848   5.777   8.391   7.643  0.0422 -0.3923  0.2415
   25POPC   C4A  849   5.769   8.678   7.324  0.0322  0.1798 -0.0842
   25POPC   C1B  850   6.233   8.169   8.151 -0.0446  0.1608  0.2220
   25POPC   C2B  851   6.238   8.202   7.646  0.1563 -0.0678  0.0545
   25POPC   C3B  852   6.209   8.297   7.219  0.2492  0.1084  0.2912
   25POPC   C4B  853   6.163   8.669   6.968  0.0964 -0.2659  0.3857
   26POPC   NC3  854   5.589   3.160  10.739  0.3976  0.0140 -0.1798
   26POPC   PO4  855   5.841   2.869  10.510 -0.1922 -0.1762  0.0013
   26POPC   GL1  856   6.004   2.680  10.246  0.2517  0.0963  0.1266
   26POPC   GL2  857   6.331   2.691  10.216  0.0777  0.2080  0.3303
   26POPC   C1A  858   5.795   2.400   9.926  0.0965  0.0504  0.0879
   26POPC   D2A  859   5.650   2.147   9.524 -0.1324  0.0746  0.0832
   26POPC   C3A  860   5.585   1.963   9.169 -0.2899 -0.1979 -0.2024
   26POPC   C4A  861   5.540   1.786   8.842  0.3248  0.1288 -0.0777
   26POPC   C1B  862   6.362   2.523   9.899 -0.0334 -0.0424  0.1901
   26POPC   C2B  863   6.608   2.546   9.454  0.3373  0.1916  0.0252
   26POPC   C3B  864   6.778   2.138   9.069 -0.0964 -0.1214 -0.0059
   26POPC   C4B  865   7.051   2.189   8.718  0.0379  0.0879 -0.5056
   27POPC   NC3  866   1.372   2.733   8.738  0.0844 -0.3155 -0.0008
   27POPC   PO4  867   1.032   2.636   8.724  0.0947 -0.3462  0.4761
   27POPC   GL1  868   1.015   2.734   8.241 -0.2601 -0.0248 -0.2138
   27POPC   GL2  869   0.800   3.078   8.160  0.0114 -0.0441  0.2017
   27POPC   C1A  870   1.043   2.778   7.810 -0.1269  0.1624  0.0732
   27POPC   D2A  871   1.190   3.188   7.529  0.2563  0.0094  0.1699
   27POPC   C3A  872   1.254   3.050   7.093 -0.0323 -0.4918  0.3366
   27POPC   C4A  873   1.077   2.990   6.758 -0.1009 -0.2104 -0.1515
   27POPC   C1B  874   0.704   3.321   7.704 -0.0725 -0.3215 -0.0340
   27POPC   C2B  875   0.450   3.408   7.363  0.0897 -0.0431  0.2280
   27POPC   C3B  876   0.355   3.466   7.032 -0.0523 -0.1082 -0.2191
   27POPC   C4B  877   0.064   3.614   6.754  0.2058  0.0156  0.0612
   28POPC   NC3  878   3.360   9.670   8.612 -0.2605 -0.6120  0.2474
   28POPC   PO4  879   3.844   9.482   8.616 -0.1131 -0.0440 -0.0489
   28POPC   GL1  880   4.137   9.402   8.340  0.1834  0.1094  0.1168
   28POPC   GL2  881   4.417   9.281   8.429 -0.0561 -0.0270 -0.0655
   28POPC   C1A  882   4.144   9.366   7.871  0.2287  0.0615  0.0798
   28POPC   D2A  883   4.220   9.419   7.484  0.0599  0.0249 -0.0737
   28POPC   C3A  884   3.956   9.644   7.213 -0.2410  0.0274  0.0729
   28POPC   C4A  885   4.080   9.874   6.898  0.2802 -0.2278  0.1400
   28POPC   C1B  886   4.521   9.664   8.213  0.0356 -0.0633 -0.1182
   28POPC   C2B  887   4.775   9.774   7.857  0.0586  0.0447  0.2009
   28POPC   C3B  888   4.998   9.903   7.404 -0.3117 -0.0742 -0.2101
   28POPC   C4B  889   5.401   9.922   7.310 -0.1388  0.3926 -0.0949
   29POPC   NC3  890   6.670   5.533   9.966 -0.0146 -0.1296 -0.1283
   29POPC   PO4  891   6.788   5.287   9.672  0.0511 -0.1190 -0.1443
   29POPC   GL1  892   6.713   5.454   9.252 -0.0454 -0.0760 -0.0258
   29POPC   GL2  893   6.535   5.727   9.013  0.1950 -0.1507 -0.1371
   29POPC   C1A  894   7.047   5.586   9.096  0.1747  0.2447  0.2066
   29POPC   D2A  895   7.052   5.830   8.739 -0.1556 -0.0598  0.1456
   29POPC   C3A  896   7.266   5.767   8.363 -0.0610 -0.0407  0.0713
   29POPC   C4A  897   7.639   5.670   8.208 -0.1715  0.1888  0.0697
   29POPC   C1B  898   6.666   5.559   8.652 -0.1051 -0.1865  0.1172
   29POPC   C2B  899   6.934   5.448   8.398  0.1126 -0.0295 -0.2938
   29POPC   C3B  900   7.159   5.336   8.097 -0.2049 -0.0893  0.1399
   29POPC   C4B  901   7.465   5.252   7.821 -0.5134  0.0885  0.0252
   30POPC   NC3  902   3.640   3.850  10.012  0.1437  0.0037 -0.2806
   30POPC   PO4  903   3.719   4.103   9.593  0.0987 -0.1112  0.3554
   30POPC   GL1  904   3.865   3.958   9.092  0.1838 -0.2048  0.3652
   30POPC   GL2  905   4.194   4.030   8.908  0.0965  0.2556 -0.1892
   30POPC   C1A  906   3.739   3.919   8.617  0.2624  0.0282  0.2717
   30POPC   D2A  907   3.641   3.878   8.170  0.0236  0.2862 -0.0777
   30POPC   C3A  908   3.878   3.832   7.777  0.1935  0.0333 -0.2734
   30POPC   C4A  909   4.158   3.788   7.542  0.1107 -0.1125 -0.2024
   30POPC   C1B  910   4.244   4.100   8.504 -0.2528 -0.1522  0.0089
   30POPC   C2B  911   3.955   4.222   8.264 -0.0686  0.0751  0.0180
   30POPC   C3B  912   3.740   4.372   7.843  0.1142  0.2254 -0.0580
   30POPC   C4B  913   3.828   4.253   7.405  0.0247 -0.3850  0.0291
   31POPC   NC3  914   3.326   1.320   9.757 -0.0366 -0.0437  0.2251
   31POPC   PO4  915   3.407   1.696   9.532 -0.0916 -0.5009  0.0679
   31POPC   GL1  916   3.660   1.694   9.248  0.0012  0.0870 -0.1016
   31POPC   GL2  917   3.451   1.452   9.034  0.1177 -0.3484 -0.1183
   31POPC   C1A  918   3.673   1.934   8.877  0.0555 -0.2367  0.1868
   31POPC   D2A  919   3.845   2.082   8.454 -0.3059  0.0493  0.1465
   31POPC   C3A  920   3.734   2.151   8.031 -0.0658 -0.0254  0.2385
   31POPC   C4A  921   3.921   1.961   7.637  0.1576  0.1009 -0.2546
   31POPC   C1B  922   3.383   1.704   8.593 -0.1772  0.2014  0.0778
   31POPC   C2B  923   3.460   1.641   8.211  0.2570 -0.1401  0.0623
   31POPC   C3B  924   3.385   1.636   7.803  0.3797  0.1205  0.0114
   31POPC   C4B  925   3.419   1.971   7.547  0.2880 -0.0396  0.3076
   32POPC   NC3  926   4.067   9.846   9.257  0.1162 -0.0466 -0.2456
   32POPC   PO4  927   3.702   9.862   9.000  0.1676 -0.0697  0.0663
   32POPC   GL1  928   3.795  10.166   8.605 -0.0394  0.1992 -0.2440
   32POPC   GL2  929   3.769   9.951   8.392  0.1332  0.0411  0.0337
   32POPC   C1A  930   3.919  10.412   8.278 -0.3197  0.2204  0.2379
   32POPC   D2A  931   4.123  10.452   8.037 -0.1607  0.2560 -0.1124
   32POPC   C3A  932   4.150  10.413   7.648  0.0671 -0.0653  0.2122
   32POPC   C4A  933   4.252  10.293   7.238  0.0975  0.1237 -0.1970
   32POPC   C1B  934   4.153   9.947   8.111 -0.1411 -0.1434 -0.2584
   32POPC   C2B  935   4.376   9.929   7.625  0.0334 -0.1664  0.1250
   32POPC   C3B  936   4.669  10.310   7.509  0.1049 -0.2459  0.1018
   32POPC   C4B  937   4.618  10.705   7.571 -0.2681  0.0206 -0.1459
   33POPC   NC3  938   9.971   8.775   9.054  0.0717 -0.1116 -0.3626
   33POPC   PO4  939   9.636   8.524   8.875  0.2202  0.3583  0.2396
   33POPC   GL1  940   9.702   8.419   8.394 -0.1541 -0.1463 -0.0801
   33POPC   GL2  941   9.995   8.153   8.242  0.1091 -0.1759 -0.0977
   33POPC   C1A  942   9.553   8.220   7.974  0.2490  0.1974  0.0361
   33POPC   D2A  943   9.466   7.868   7.677 -0.1777 -0.4658 -0.1910
   33POPC   C3A  944   9.289   7.897   7.291 -0.0981  0.1452 -0.1081
   33POPC   C4A  945   9.235   7.814   6.836  0.0956  0.3138 -0.0403
   33POPC   C1B  946   9.903   8.496   7.853  0.0240 -0.1411 -0.0951
   33POPC   C2B  947   9.928   8.643   7.370  0.1538  0.0943  0.1354
   33POPC   C3B  948  10.060   8.798   7.055 -0.4381  0.1185  0.3230
   33POPC   C4B  949  10.180   8.997   6.722  0.0759  0.2125  0.0991
   34POPC   NC3  950   8.155   5.460   9.888 -0.0503 -0.1777  0.0899
   34POPC   PO4  951   8.594   5.401   9.809 -0.3253  0.2408  0.1962
   34POPC   GL1  952   8.329   5.339   9.447 -0.0094 -0.0116 -0.2078
   34POPC   GL2  953   8.402   5.043   9.184  0.1301  0.0949  0.3474
   34POPC   C1A  954   8.104   5.413   9.044 -0.1996  0.1462  0.1130
   34POPC   D2A  955   7.810   5.313   8.690 -0.2459  0.1630  0.1585
   34POPC   C3A  956   7.394   5.341   8.610 -0.1442  0.1103 -0.0560
   34POPC   C4A  957   7.073   5.179   8.852 -0.0645  0.0228 -0.2260
   34POPC   C1B  958   8.003   4.936   8.940 -0.0665  0.2429  0.2338
   34POPC   C2B  959   7.644   4.834   8.740 -0.1475 -0.0844 -0.0775
   34POPC   C3B  960   7.166   4.714   8.645 -0.0405 -0.2624  0.2643
   34POPC   C4B  961   6.836   4.587   8.977 -0.1299  0.2009  0.1842
   35POPC   NC3  962  10.071   7.140   9.282 -0.2007 -0.0947  0.0308
   35POPC   PO4  963  10.225   7.369   8.856 -0.2075 -0.0254 -0.5092
   35POPC   GL1  964  10.224   7.345   8.428 -0.0978 -0.0018  0.0179
   35POPC   GL2  965  10.314   7.645   8.120 -0.2156  0.1743  0.0266
   35POPC   C1A  966   9.974   7.109   8.104 -0.0103  0.0758 -0.0609
   35POPC   D2A  967   9.788   7.046   7.749 -0.2227  0.1473 -0.2710
   35POPC   C3A  968   9.548   6.790   7.570  0.0297  0.0945 -0.2046
   35POPC   C4A  969   9.586   6.540   7.219  0.0950  0.0938 -0.3687
   35POPC   C1B  970  10.164   7.468   7.769  0.1176  0.3503 -0.0759
   35POPC   C2B  971   9.824   7.555   7.532  0.1514  0.1342 -0.0106
   35POPC   C3B  972   9.635   7.589   7.163 -0.1939  0.1459 -0.1944
   35POPC   C4B  973   9.691   7.381   6.800  0.0643  0.0032 -0.1206
   36POPC   NC3  974   2.741   0.033   9.024 -0.2376  0.0405 -0.1386
   36POPC   PO4  975   2.542  -0.068   8.746  0.1996  0.1816  0.1071
   36POPC   GL1  976   2.550   0.251   8.431  0.2296 -0.0653 -0.0948
   36POPC   GL2  977   2.817   0.388   8.474 -0.1516 -0.1524  0.1523
   36POPC   C1A  978   2.586   0.698   8.066 -0.2816 -0.0715  0.3852
   36POPC   D2A  979   2.688   1.042   7.807  0.1635 -0.2113 -0.2346
   36POPC   C3A  980   2.484   1.100   7.385  0.5321 -0.3723  0.1158
   36POPC   C4A  981   1.989   1.065   7.215 -0.1809  0.0230  0.0994
   36POPC   C1B  982   3.042   0.421   8.110  0.1053  0.0822 -0.3439
   36POPC   C2B  983   2.965   0.574   7.688  0.0804  0.2097  0.0373
   36POPC   C3B  984   3.313   0.820   7.340  0.0127 -0.0004  0.0989
   36POPC   C4B  985   3.775   1.005   7.199  0.0382  0.0061  0.5416
   37POPC   NC3  986   4.148   2.124  10.541 -0.0936 -0.0051  0.2848
   37POPC   PO4  987   3.974   2.399  10.098 -0.2204  0.1213 -0.0544
   37POPC   GL1  988   3.924   2.483   9.612 -0.1677 -0.3143 -0.0561
   37POPC   GL2  989   4.143   2.759   9.592 -0.0176 -0.1581 -0.2049
   37POPC   C1A  990   3.889   2.626   9.143 -0.2466 -0.0486 -0.1222
   37POPC   D2A  991   3.977   2.459   8.761  0.1569 -0.0809 -0.2742
   37POPC   C3A  992   4.397   2.261   8.646  0.0582  0.3322 -0.1601
   37POPC   C4A  993   4.606   1.974   8.375 -0.2616 -0.1258 -0.2695
   37POPC   C1B  994   4.547   2.941   9.331  0.0898 -0.0211 -0.0360
   37POPC   C2B  995   4.888   2.888   9.055  0.1188  0.0338  0.1762
   37POPC   C3B  996   5.349   2.831   8.827 -0.1550 -0.0556  0.1761
   37POPC   C4B  997   5.708   2.683   8.581  0.0974  0.0603  0.0725
   38POPC   NC3  998   8.697   1.119  10.210  0.4092  0.0334 -0.1020
   38POPC   PO4  999   8.381   1.348   9.941 -0.1519  0.0918 -0.2205
   38POPC   GL1 1000   8.461   1.174   9.493  0.0180  0.0879  0.1037
   38POPC   GL2 1001   8.506   1.410   9.307 -0.0736  0.2128  0.1373
   38POPC   C1A 1002   8.013   1.208   9.291 -0.0767  0.0502  0.0151
   38POPC   D2A 1003   7.774   1.265   8.857 -0.0489 -0.0944 -0.0877
   38POPC   C3A 1004   8.088   1.496   8.518  0.0296  0.2780 -0.0369
   38POPC   C4A 1005   8.503   1.678   8.364  0.3763 -0.2192  0.3428
   38POPC   C1B 1006   8.091   1.675   9.192 -0.0627  0.0595 -0.1051
   38POPC   C2B 1007   7.734   1.723   8.898 -0.1147  0.0194 -0.1955
   38POPC   C3B 1008   7.615   1.465   8.434 -0.0850  0.0384  0.0819
   38POPC   C4B 1009   7.593   1.385   7.955  0.1236 -0.1261 -0.2465
   39POPC   NC3 1010   3.169   5.547   9.118 -0.0271  0.0927  0.3757
   39POPC   PO4 1011   3.682   5.447   9.284 -0.2439  0.2080 -0.0066
   39POPC   GL1 1012   3.971   5.547   8.839  0.0025 -0.0499 -0.1189
   39POPC   GL2 1013   4.306   5.659   8.793  0.3956 -0.2053 -0.0611
   39POPC   C1A 1014   4.071   5.519   8.402 -0.0460  0.1802  0.1233
   39POPC   D2A 1015   4.287   5.517   7.951  0.0779  0.1250 -0.4520
   39POPC   C3A 1016   4.212   5.315   7.627 -0.1614 -0.3553  0.0321
   39POPC   C4A 1017   4.229   5.471   7.254 -0.4072 -0.0057  0.1895
   39POPC   C1B 1018   4.652   5.554   8.565  0.2273 -0.1159  0.2021
   39POPC   C2B 1019   4.832   5.581   8.159 -0.0842  0.0933 -0.0666
   39POPC   C3B 1020   5.066   5.457   7.849  0.0722  0.2811  0.2381
   39POPC   C4B 1021   5.414   5.143   7.713 -0.1223 -0.0648 -0.2405
   40POPC   NC3 1022   5.181   2.303  10.732 -0.0060 -0.0524 -0.2459
   40POPC   PO4 1023   5.078   1.889  10.617 -0.1836 -0.1190 -0.3100
   40POPC   GL1 1024   5.071   1.610  10.362 -0.2733  0.0599  0.0388
   40POPC   GL2 1025   4.798   1.435  10.103  0.1168 -0.3570 -0.1251
   40POPC   C1A 1026   5.333   1.482  10.053  0.2000 -0.1860  0.1446
   40POPC   D2A 1027   5.599   1.352   9.658  0.0354 -0.1719  0.1673
   40POPC   C3A 1028   5.426   1.465   9.320  0.2358  0.2215 -0.0551
   40POPC   C4A 1029   5.074   1.424   9.183  0.1059 -0.2424 -0.0509
   40POPC   C1B 1030   4.945   1.235   9.832  0.1019  0.1644  0.2498
   40POPC   C2B 1031   5.132   1.103   9.525  0.0915 -0.0224  0.0421
   40POPC   C3B 1032   5.287   0.880   9.168  0.1121 -0.1181 -0.0004
   40POPC   C4B 1033   5.254   0.699   8.707  0.1660  0.2519 -0.3753
   41POPC   NC3 1034   4.459   8.043   9.570  0.2181  0.1293 -0.0613
   41POPC   PO4 1035   4.666   7.967   9.167  0.0115  0.1584  0.0122
   41POPC   GL1 1036   4.664   7.680   8.724  0.2336 -0.0063 -0.1876
   41POPC   GL2 1037   4.826   7.895   8.546 -0.0658 -0.2601 -0.0626
   41POPC   C1A 1038   4.383   7.511   8.527  0.0464 -0.2634 -0.1028
   41POPC   D2A 1039   4.259   7.352   8.119  0.1812 -0.1299 -0.2215
   41POPC   C3A 1040   4.537   7.058   7.988 -0.0122 -0.2307 -0.2984
   41POPC   C4A 1041   4.495   6.678   7.697  0.0081  0.1067  0.0484
   41POPC   C1B 1042   5.043   7.909   8.041 -0.1871 -0.3460 -0.2086
   41POPC   C2B 1043   5.261   8.007   7.607 -0.1129 -0.1187 -0.2873
   41POPC   C3B 1044   5.448   8.224   7.229 -0.6338  0.2239  0.0814
   41POPC   C4B 1045   5.717   8.391   6.859 -0.0269 -0.4130 -0.2339
   42POPC   NC3 1046   9.371   7.222   8.866  0.0303 -0.1135  0.0643
   42POPC   PO4 1047   9.438   6.810   8.971  0.0118  0.1436 -0.1008
   42POPC   GL1 1048   9.350   6.799   8.517 -0.0107 -0.0125  0.2077
   42POPC   GL2 1049   9.171   6.496   8.548 -0.0532 -0.1915 -0.0718
   42POPC   C1A 1050   9.420   6.764   8.089  0.3699 -0.3502  0.1663
   42POPC   D2A 1051   9.813   6.583   7.977 -0.3052 -0.0331  0.1228
   42POPC   C3A 1052   9.830   6.276   7.702 -0.0283 -0.2072  0.2390
   42POPC   C4A 1053   9.638   6.043   7.289 -0.0005 -0.0725  0.0654
   42POPC   C1B 1054   8.905   6.735   8.223  0.0506  0.0844 -0.1853
   42POPC   C2B 1055   8.736   6.282   8.155  0.1638  0.0494 -0.2114
   42POPC   C3B 1056   8.674   5.992   7.807 -0.3824 -0.3100  0.2551
   42POPC   C4B 1057   8.774   6.082   7.409  0.1796  0.0276 -0.0720
   43POPC   NC3 1058   7.051   8.143   8.805  0.0740 -0.0241  0.3384
   43POPC   PO4 1059   7.393   8.287   9.026  0.2271  0.2304 -0.3842
   43POPC   GL1 1060   7.310   8.464   8.523 -0.2284  0.0791 -0.2323
   43POPC   GL2 1061   6.934   8.541   8.439  0.0038 -0.3281  0.3278
   43POPC   C1A 1062   7.033   8.224   8.123 -0.1460 -0.1053  0.0292
   43POPC   D2A 1063   6.733   8.392   7.895  0.1190 -0.3371 -0.2022
   43POPC   C3A 1064   6.581   8.546   7.430 -0.0540  0.0471 -0.0762
   43POPC   C4A 1065   6.178   8.731   7.523 -0.0556 -0.0966 -0.0464
   43POPC   C1B 1066   7.032   8.746   8.100 -0.1311  0.1978 -0.0500
   43POPC   C2B 1067   7.130   8.699   7.619 -0.1833  0.1345  0.0961
   43POPC   C3B 1068   7.300   9.105   7.407 -0.2034  0.2320 -0.0901
   43POPC   C4B 1069   7.595   9.209   7.109  0.1596  0.2678  0.0633
   44POPC   NC3 1070   3.385   0.509   9.878 -0.0155  0.3083 -0.2519
   44POPC   PO4 1071   3.618   0.177   9.680  0.0382  0.0195  0.0645
   44POPC   GL1 1072   3.548   0.431   9.327 -0.1443 -0.1345  0.3342
   44POPC   GL2 1073   3.659   0.224   9.103  0.2333  0.1329 -0.1292
   44POPC   C1A 1074   3.581   0.777   9.126  0.5066  0.1503 -0.1557
   44POPC   D2A 1075   3.702   0.880   8.676  0.0293  0.1855  0.1535
   44POPC   C3A 1076   3.729   1.371   8.632 -0.2086  0.1764 -0.1248
   44POPC   C4A 1077   3.978   1.510   8.430 -0.2577 -0.0047 -0.0930
   44POPC   C1B 1078   3.822   0.427   8.783 -0.2068 -0.0287 -0.2343
   44POPC   C2B 1079   4.132   0.694   8.453  0.0644 -0.1248 -0.1032
   44POPC   C3B 1080   3.936   1.053   8.211 -0.1637 -0.0454  0.1384
   44POPC   C4B 1081   3.691   1.169   7.882 -0.1049 -0.0366 -0.2837
   45POPC   NC3 1082   4.590   3.221  10.457 -0.0358  0.0536 -0.0854
   45POPC   PO4 1083   4.699   2.903  10.624 -0.1182 -0.0561 -0.2075
   45POPC   GL1 1084   4.840   2.738  10.259  0.1553 -0.0276 -0.0539
   45POPC   GL2 1085   4.930   2.411  10.272 -0.3531 -0.2926 -0.2614
   45POPC   C1A 1086   5.205   2.734   9.944  0.0470  0.1445 -0.2756
   45POPC   D2A 1087   5.461   2.643   9.615 -0.2512 -0.2067  0.1548
   45POPC   C3A 1088   5.304   2.467   9.219 -0.0975  0.0510 -0.0202
   45POPC   C4A 1089   5.385   2.284   8.806  0.1547  0.0624  0.0202
   45POPC   C1B 1090   4.704   2.201  10.015  0.2521 -0.1101  0.2111
   45POPC   C2B 1091   4.894   1.854   9.907 -0.0324 -0.1779 -0.2497
   45POPC   C3B 1092   5.139   1.766   9.635 -0.1872 -0.0451  0.3554
   45POPC   C4B 1093   5.107   1.942   9.158 -0.2316 -0.1597 -0.2095
   46POPC   NC3 1094   8.267   8.164   8.999 -0.0650  0.0942 -0.0962
   46POPC   PO4 1095   8.212   8.572   8.882  0.0064 -0.0192 -0.1793
   46POPC   GL1 1096   8.122   8.574   8.499  0.2688 -0.0622  0.0516
   46POPC   GL2 1097   8.040   8.867   8.511  0.4079 -0.1440 -0.2819
   46POPC   C1A 1098   8.121   8.533   8.096  0.0923 -0.2999  0.2436
   46POPC   D2A 1099   8.024   8.420   7.705 -0.0140  0.0566 -0.0509
   46POPC   C3A 1100   8.185   7.989   7.569 -0.0484 -0.4332 -0.0681
   46POPC   C4A 1101   8.319   7.835   7.306 -0.0200 -0.1313  0.3603
   46POPC   C1B 1102   7.759   8.879   8.235  0.3687 -0.1833  0.0339
   46POPC   C2B 1103   7.529   8.603   8.020  0.0470 -0.1734  0.0722
   46POPC   C3B 1104   7.389   8.274   7.768 -0.0744  0.0454 -0.2330
   46POPC   C4B 1105   7.400   8.317   7.323 -0.1559  0.0084  0.0784
   47POPC   NC3 1106   9.444   0.155   9.265  0.1191 -0.1773  0.0595
   47POPC   PO4 1107   9.352   0.666   9.386  0.0980 -0.0591 -0.1695
   47POPC   GL1 1108   9.197   0.622   8.983  0.2428 -0.0501 -0.2716
   47POPC   GL2 1109   9.005   0.298   8.855 -0.0172  0.0124 -0.0917
   47POPC   C1A 1110   8.887   0.819   8.620 -0.1877  0.0384  0.0111
   47POPC   D2A 1111   8.765   1.123   8.412 -0.0522  0.0201  0.2255
   47POPC   C3A 1112   8.394   0.984   8.354 -0.4010  0.3150 -0.1276
   47POPC   C4A 1113   8.151   0.673   8.411 -0.0012 -0.0525 -0.2318
   47POPC   C1B 1114   9.289   0.105   8.431 -0.1519  0.5043 -0.2885
   47POPC   C2B 1115   9.461   0.030   8.070 -0.0491  0.0067 -0.0349
   47POPC   C3B 1116   9.504   0.075   7.616  0.0772  0.2244 -0.0815
   47POPC   C4B 1117   9.554   0.358   7.235  0.0570  0.0046  0.4168
   48POPC   NC3 1118   2.389   3.070   9.203  0.0127 -0.3715 -0.1170
   48POPC   PO4 1119   2.774   2.893   9.264 -0.1333  0.0349 -0.3195
   48POPC   GL1 1120   2.965   2.912   8.906  0.1176 -0.1677  0.1168
   48POPC   GL2 1121   3.244   3.160   8.889 -0.3540  0.1252 -0.0863
   48POPC   C1A 1122   3.167   3.018   8.444  0.0520 -0.2300 -0.0340
   48POPC   D2A 1123   3.413   3.087   8.147  0.0431 -0.0417  0.1583
   48POPC   C3A 1124   3.801   2.838   8.183  0.2018  0.0125  0.0360
   48POPC   C4A 1125   3.985   2.626   7.871 -0.1058 -0.0323 -0.2527
   48POPC   C1B 1126   3.570   2.963   8.789  0.2543  0.3525 -0.0954
   48POPC   C2B 1127   3.951   2.987   8.633 -0.1945 -0.1389  0.2146
   48POPC   C3B 1128   4.244   2.779   8.414  0.1705 -0.0067 -0.0380
   48POPC   C4B 1129   4.527   2.755   8.714  0.1361  0.1517 -0.2854
   49POPC   NC3 1130   1.852   2.506   9.479 -0.0049  0.1461 -0.0285
   49POPC   PO4 1131   1.690   2.326   9.061 -0.1528 -0.0595  0.0411
   49POPC   GL1 1132   1.880   2.285   8.676  0.2688  0.0714  0.0733
   49POPC   GL2 1133   1.765   2.557   8.453 -0.3322 -0.2480 -0.1024
   49POPC   C1A 1134   2.038   2.178   8.241  0.1790  0.0758 -0.1245
   49POPC   D2A 1135   2.171   1.920   7.971 -0.0191  0.0271  0.3220
   49POPC   C3A 1136   2.253   2.120   7.518  0.1984 -0.0474 -0.2521
   49POPC   C4A 1137   2.102   2.497   7.255 -0.0951  0.0929  0.0768
   49POPC   C1B 1138   2.112   2.682   8.219 -0.3086  0.1992  0.0841
   49POPC   C2B 1139   2.352   2.530   7.819  0.0363 -0.0797  0.2639
   49POPC   C3B 1140   2.616   2.476   7.507  0.1642  0.1256  0.2193
   49POPC   C4B 1141   2.691   2.277   7.064 -0.0906  0.0748 -0.1216
   50POPC   NC3 1142   7.835   8.562   9.190  0.3608 -0.1668 -0.1743
   50POPC   PO4 1143   7.936   9.046   9.078  0.2345  0.1881 -0.0065
   50POPC   GL1 1144   7.910   9.289   8.641 -0.1967 -0.2429 -0.4420
   50POPC   GL2 1145   8.186   9.519   8.506  0.2254 -0.2340 -0.2394
   50POPC   C1A 1146   7.774   9.520   8.202  0.2637  0.4630 -0.1584
   50POPC   D2A 1147   7.693   9.470   7.796 -0.1548  0.3121 -0.0478
   50POPC   C3A 1148   7.940   9.371   7.468 -0.1185  0.3874  0.2957
   50POPC   C4A 1149   8.116   9.408   7.071 -0.0054 -0.2407  0.0301
   50POPC   C1B 1150   8.174   9.808   8.100 -0.1293  0.4689 -0.1881
   50POPC   C2B 1151   8.127  10.073   7.873  0.0754 -0.2080  0.0539
   50POPC   C3B 1152   7.956  10.362   7.516  0.0953 -0.0766  0.0743
   50POPC   C4B 1153   7.923  10.378   7.091  0.0149 -0.0722  0.0534
   51POPC   NC3 1154   4.191   5.700   9.234  0.5282  0.1636  0.1977
   51POPC   PO4 1155   4.420   5.307   9.249 -0.2564 -0.0468  0.1557
   51POPC   GL1 1156   4.575   5.091   8.860  0.0409  0.1393  0.2920
   51POPC   GL2 1157   4.300   5.103   8.640 -0.1196  0.1968 -0.0938
   51POPC   C1A 1158   4.836   4.816   8.569  0.0585 -0.0069 -0.0937
   51POPC   D2A 1159   5.131   4.644   8.349  0.2909  0.0340  0.0887
   51POPC   C3A 1160   5.459   4.813   8.209 -0.0512 -0.1408 -0.1835
   51POPC   C4A 1161   5.804   4.704   8.491  0.3044  0.1314 -0.0639
   51POPC   C1B 1162   4.380   4.602   8.360  0.1770 -0.0369  0.2117
   51POPC   C2B 1163   4.268   4.384   7.932  0.2119 -0.2885  0.0770
   51POPC   C3B 1164   4.408   4.356   7.568  0.0464 -0.5621 -0.1318
   51POPC   C4B 1165   4.320   4.211   7.180 -0.2172  0.2401 -0.1725
   52POPC   NC3 1166   8.357   0.783   9.890  0.0769  0.1409  0.0033
   52POPC   PO4 1167   8.596   0.717   9.557 -0.1385 -0.2007 -0.2178
   52POPC   GL1 1168   8.333   0.768   9.204  0.2162 -0.0126 -0.0173
   52POPC   GL2 1169   8.391   0.708   8.862 -0.1229  0.1136 -0.2539
   52POPC   C1A 1170   7.891   0.717   8.927 -0.2895  0.1197 -0.0817
   52POPC   D2A 1171   7.726   0.922   8.542  0.2803 -0.2379 -0.1993
   52POPC   C3A 1172   7.795   0.896   8.171  0.0598  0.1807  0.1288
   52POPC   C4A 1173   7.872   1.069   7.757 -0.1803  0.2333 -0.2149
   52POPC   C1B 1174   8.370   1.138   8.868  0.3652  0.1748 -0.1212
   52POPC   C2B 1175   8.451   1.650   8.869 -0.0828  0.0810  0.1399
   52POPC   C3B 1176   8.412   2.008   8.991  0.0686  0.0556 -0.1101
   52POPC   C4B 1177   8.328   2.288   9.178 -0.0217 -0.0051 -0.3635
   53POPC   NC3 1178   1.385   4.527   8.685  0.2579  0.2137  0.2130
   53POPC   PO4 1179   1.712   4.693   8.907  0.1859 -0.1083 -0.0915
   53POPC   GL1 1180   1.841   4.787   8.447  0.2365  0.1794 -0.1421
   53POPC   GL2 1181   2.152   4.631   8.319  0.1605 -0.3849  0.0739
   53POPC   C1A 1182   1.552   4.752   8.065  0.1319  0.1204 -0.0278
   53POPC   D2A 1183   1.233   4.848   7.717 -0.1454  0.0453  0.2090
   53POPC   C3A 1184   1.361   5.000   7.280  0.0067  0.2370 -0.1115
   53POPC   C4A 1185   1.373   5.209   6.922 -0.4458  0.1070  0.2764
   53POPC   C1B 1186   2.094   4.642   7.899 -0.1474  0.2990  0.0157
   53POPC   C2B 1187   1.817   4.720   7.612 -0.2421 -0.2456 -0.0536
   53POPC   C3B 1188   1.843   4.831   7.237 -0.0735 -0.2196 -0.0701
   53POPC   C4B 1189   1.809   5.059   6.831  0.1843 -0.1966 -0.0019
   54POPC   NC3 1190   5.604   8.737   8.953 -0.0983  0.3865  0.2193
   54POPC   PO4 1191   6.093   8.612   8.971  0.0813 -0.1152 -0.0574
   54POPC   GL1 1192   6.045   9.003   8.799 -0.1525  0.1638  0.1043
   54POPC   GL2 1193   5.831   8.979   8.578  0.0072 -0.1860 -0.3321
   54POPC   C1A 1194   5.992   9.436   8.616  0.0790 -0.0944 -0.3589
   54POPC   D2A 1195   6.106   9.845   8.547 -0.2895  0.0270  0.2039
   54POPC   C3A 1196   6.145  10.141   8.182  0.0628 -0.1434 -0.0283
   54POPC   C4A 1197   6.083  10.611   8.144 -0.1957 -0.0728  0.0465
   54POPC   C1B 1198   6.042   9.080   8.194 -0.0846 -0.1441 -0.1794
   54POPC   C2B 1199   6.340   9.218   7.824  0.1476 -0.0458 -0.1281
   54POPC   C3B 1200   6.631   9.550   7.482 -0.0797  0.1528  0.2201
   54POPC   C4B 1201   6.562   9.975   7.371 -0.0659 -0.1028 -0.1965
   55POPC   NC3 1202   0.451   1.308   8.644 -0.1056 -0.1487 -0.0423
   55POPC   PO4 1203   0.545   1.659   8.652  0.1940  0.1441  0.0111
   55POPC   GL1 1204   0.324   1.614   8.319 -0.3712  0.2255  0.1147
   55POPC   GL2 1205   0.028   1.650   8.393  0.0125 -0.0269 -0.2074
   55POPC   C1A 1206   0.239   1.882   7.926 -0.2388 -0.1488 -0.0067
   55POPC   D2A 1207   0.307   2.094   7.525 -0.1104 -0.0827 -0.1856
   55POPC   C3A 1208   0.240   1.952   7.077 -0.0409  0.2672  0.1153
   55POPC   C4A 1209   0.315   2.251   6.906 -0.2945 -0.2207  0.0048
   55POPC   C1B 1210  -0.240   1.616   7.970 -0.1665  0.0219  0.0323
   55POPC   C2B 1211  -0.404   1.954   7.666 -0.1825  0.1814 -0.2935
   55POPC   C3B 1212  -0.219   2.192   7.268  0.1658 -0.1185  0.1003
   55POPC   C4B 1213  -0.112   2.549   7.143 -0.2922 -0.4456 -0.2734
   56POPC   NC3 1214   2.098   7.087   8.886 -0.0506  0.2000  0.1486
   56POPC   PO4 1215   2.445   6.785   8.832  0.2174 -0.0449  0.2492
   56POPC   GL1 1216   2.590   6.569   8.436  0.0601 -0.2604 -0.0468
   56POPC   GL2 1217   2.582   6.150   8.522  0.2778  0.0114  0.1309
   56POPC   C1A 1218   2.408   6.577   7.975  0.1032  0.1542  0.1638
   56POPC   D2A 1219   2.196   6.805   7.532 -0.0458 -0.1283 -0.1826
   56POPC   C3A 1220   2.289   6.742   7.088  0.0534 -0.0684  0.6452
   56POPC   C4A 1221   1.963   6.796   6.715 -0.3010  0.0167 -0.0477
   56POPC   C1B 1222   2.599   6.121   8.053 -0.2636 -0.0048  0.1441
   56POPC   C2B 1223   2.918   6.328   7.794  0.0000  0.3213  0.0302
   56POPC   C3B 1224   2.718   6.686   7.536  0.0403  0.1735 -0.1708
   56POPC   C4B 1225   2.731   7.052   7.248  0.3576  0.0346  0.1354
   57POPC   NC3 1226   7.605   7.487   9.144 -0.0753 -0.1544  0.4036
   57POPC   PO4 1227   7.512   7.768   8.870  0.0592  0.0055 -0.0748
   57POPC   GL1 1228   7.565   7.982   8.426  0.0263 -0.1173  0.0188
   57POPC   GL2 1229   7.762   8.293   8.282 -0.0053 -0.2565  0.2057
   57POPC   C1A 1230   7.411   7.756   8.029  0.0055  0.0760  0.0180
   57POPC   D2A 1231   7.194   7.597   7.763  0.2577 -0.1235 -0.0516
   57POPC   C3A 1232   6.793   7.589   7.472  0.1277 -0.0289  0.2424
   57POPC   C4A 1233   6.545   7.944   7.367 -0.1436 -0.0087  0.1849
   57POPC   C1B 1234   7.865   8.002   7.961 -0.3927 -0.1306 -0.0427
   57POPC   C2B 1235   7.639   7.888   7.555 -0.0747  0.2387  0.2875
   57POPC   C3B 1236   7.714   7.820   7.078 -0.0694 -0.1383 -0.2180
   57POPC   C4B 1237   8.123   7.711   6.873  0.3867 -0.1516 -0.1141
   58POPC   NC3 1238   6.103   1.538  10.938  0.1664  0.0699 -0.1780
   58POPC   PO4 1239   6.515   1.566  10.654 -0.0508  0.2128  0.2023
   58POPC   GL1 1240   6.403   1.813  10.269 -0.0307  0.1079 -0.4706
   58POPC   GL2 1241   6.439   1.864  10.020  0.2099 -0.0417 -0.0570
   58POPC   C1A 1242   6.014   2.094  10.262  0.1060  0.1230  0.1100
   58POPC   D2A 1243   5.581   1.932  10.228 -0.0448 -0.0358  0.0955
   58POPC   C3A 1244   5.293   2.220  10.028  0.1242 -0.1966  0.3583
   58POPC   C4A 1245   5.063   2.280   9.648  0.1626 -0.4012  0.0540
   58POPC   C1B 1246   6.218   2.082   9.734 -0.1788 -0.2227 -0.0112
   58POPC   C2B 1247   6.237   2.209   9.266  0.1855  0.1557  0.1202
   58POPC   C3B 1248   6.291   2.459   8.914 -0.0441 -0.1341  0.0228
   58POPC   C4B 1249   6.642   2.501   8.664  0.2870 -0.1660  0.2148
   59POPC   NC3 1250   1.752   6.423   9.129 -0.0378 -0.0088 -0.2947
   59POPC   PO4 1251   2.220   6.216   9.077 -0.0195  0.1281  0.0488
   59POPC   GL1 1252   2.246   5.831   8.796 -0.1227 -0.1210  0.0959
   59POPC   GL2 1253   1.964   5.704   8.765  0.2038 -0.2227  0.0735
   59POPC   C1A 1254   2.346   5.705   8.450  0.0892  0.0508 -0.1640
   59POPC   D2A 1255   2.583   5.641   8.157  0.0772  0.1242 -0.0805
   59POPC   C3A 1256   2.512   5.323   7.873  0.0949  0.2521 -0.0246
   59POPC   C4A 1257   2.227   5.056   7.562 -0.0621  0.0994 -0.2310
   59POPC   C1B 1258   1.813   5.792   8.352 -0.3779 -0.0326  0.4133
   59POPC   C2B 1259   1.674   5.734   8.005 -0.2172  0.1855  0.0064
   59POPC   C3B 1260   1.774   5.777   7.518  0.0688  0.0215 -0.4269
   59POPC   C4B 1261   1.690   6.030   7.179 -0.1426  0.0047  0.0610
   60POPC   NC3 1262   8.151   2.801  10.158  0.0336 -0.1596 -0.1573
   60POPC   PO4 1263   7.921   3.255  10.147  0.1948  0.0080 -0.0949
   60POPC   GL1 1264   7.891   3.477   9.737  0.2566 -0.1152  0.0705
   60POPC   GL2 1265   7.961   3.727   9.509  0.0453  0.0983  0.0680
   60POPC   C1A 1266   7.837   3.198   9.320 -0.1017 -0.0562  0.1372
   60POPC   D2A 1267   7.955   3.199   8.897 -0.0267  0.2777 -0.0712
   60POPC   C3A 1268   7.742   3.040   8.595 -0.0267 -0.3779 -0.0377
   60POPC   C4A 1269   7.571   2.960   8.261  0.2583  0.4154  0.3642
   60POPC   C1B 1270   7.932   3.716   9.073  0.0097  0.3630  0.0102
   60POPC   C2B 1271   8.070   3.892   8.634 -0.1092 -0.1231 -0.2250
   60POPC   C3B 1272   7.961   4.106   8.195 -0.2554  0.0318 -0.0000
   60POPC   C4B 1273   8.228   4.121   7.699  0.2182 -0.2438 -0.0239
   61POPC   NC3 1274   1.468   1.447   9.083 -0.2302 -0.2008  0.2690
   61POPC   PO4 1275   1.456   1.060   8.930  0.0524  0.0666  0.0842
   61POPC   GL1 1276   1.455   0.943   8.512 -0.0547 -0.1973  0.0563
   61POPC   GL2 1277   1.260   0.895   8.349 -0.1855  0.0954  0.2514
   61POPC   C1A 1278   1.736   0.853   8.059  0.0697  0.1675  0.3723
   61POPC   D2A 1279   2.025   0.763   7.700  0.0215 -0.0534 -0.0320
   61POPC   C3A 1280   1.984   0.570   7.310  0.0397 -0.1538  0.3285
   61POPC   C4A 1281   1.964   0.600   6.810 -0.2239 -0.2747  0.1958
   61POPC   C1B 1282   1.214   1.095   7.903 -0.0089  0.0444  0.2591
   61POPC   C2B 1283   1.124   0.949   7.511  0.4126 -0.1162 -0.7208
   61POPC   C3B 1284   1.044   0.637   7.244 -0.3663  0.2298  0.2650
   61POPC   C4B 1285   0.847   0.323   6.941  0.0369  0.0149  0.0863
   62POPC   NC3 1286   5.195   7.795   9.208 -0.1495  0.1954  0.0662
   62POPC   PO4 1287   5.198   8.115   8.907  0.0107 -0.0616 -0.0062
   62POPC   GL1 1288   5.288   8.144   8.494  0.0121  0.1790  0.2665
   62POPC   GL2 1289   5.280   8.496   8.502 -0.0174  0.1548  0.1323
   62POPC   C1A 1290   5.463   8.316   8.051  0.2096  0.1943  0.2387
   62POPC   D2A 1291   5.801   8.667   8.040  0.1609 -0.0760 -0.3258
   62POPC   C3A 1292   6.208   8.634   7.988  0.0322 -0.0126 -0.0898
   62POPC   C4A 1293   6.524   8.860   8.207 -0.0014  0.1600  0.2449
   62POPC   C1B 1294   5.386   8.886   8.290 -0.1775 -0.3254  0.3227
   62POPC   C2B 1295   5.521   9.160   7.954 -0.1306  0.1153 -0.0569
   62POPC   C3B 1296   5.488   9.545   7.720 -0.1177 -0.0224 -0.0688
   62POPC   C4B 1297   5.824   9.966   7.789  0.3026  0.2178 -0.1388
   63POPC   NC3 1298   5.397   5.007   9.441 -0.0615  0.2318 -0.0310
   63POPC   PO4 1299   5.398   5.442   9.226  0.1522  0.1354 -0.0141
   63POPC   GL1 1300   5.769   5.648   8.869  0.3326 -0.0684 -0.1232
   63POPC   GL2 1301   5.804   6.003   8.927  0.3318 -0.3009 -0.1908
   63POPC   C1A 1302   6.203   5.377   8.628  0.3835  0.1755  0.2097
   63POPC   D2A 1303   6.449   5.421   8.219 -0.0605  0.1161 -0.0102
   63POPC   C3A 1304   6.700   5.119   7.992 -0.0694  0.1327 -0.0179
   63POPC   C4A 1305   6.742   4.742   7.775 -0.0769 -0.2229 -0.1708
   63POPC   C1B 1306   6.185   5.897   8.552  0.0246 -0.0433 -0.0282
   63POPC   C2B 1307   6.271   5.863   8.048  0.2177 -0.5817 -0.4729
   63POPC   C3B 1308   6.175   6.176   7.667  0.1632  0.2541 -0.2841
   63POPC   C4B 1309   5.967   6.470   7.379 -0.2234 -0.1569 -0.2928
   64POPC   NC3 1310  10.119   5.858   8.665  0.0872  0.5174 -0.1236
   64POPC   PO4 1311   9.830   5.475   8.713  0.2239  0.2632  0.0130
   64POPC   GL1 1312   9.797   5.634   8.276  0.1001 -0.0485 -0.2708
   64POPC   GL2 1313   9.881   5.385   8.160  0.0356 -0.1235 -0.1463
   64POPC   C1A 1314   9.578   6.009   8.078 -0.1527 -0.1015 -0.0958
   64POPC   D2A 1315   9.342   6.274   8.085 -0.1497  0.3570  0.0950
   64POPC   C3A 1316   9.088   6.510   7.777  0.3477 -0.2458  0.3555
   64POPC   C4A 1317   8.751   6.661   7.714 -0.0603  0.1047 -0.0124
   64POPC   C1B 1318  10.054   5.339   7.736 -0.3335 -0.1011  0.1002
   64POPC   C2B 1319  10.013   5.454   7.311  0.1456  0.3026  0.2541
   64POPC   C3B 1320  10.005   5.747   6.972  0.1922  0.1938 -0.1098
   64POPC   C4B 1321   9.766   5.835   6.626 -0.0115 -0.1442  0.0238
   65POPC   NC3 1322   0.335   3.785   8.553  0.2692 -0.2274  0.0637
   65POPC   PO4 1323   0.717   3.969   8.624 -0.2924 -0.1067  0.0468
   65POPC   GL1 1324   0.868   3.579   8.395 -0.4621  0.0425 -0.0866
   65POPC   GL2 1325   0.562   3.551   8.116 -0.0161  0.2473 -0.0998
   65POPC   C1A 1326   1.067   3.582   7.929 -0.0578  0.2980 -0.1909
   65POPC   D2A 1327   0.994   3.688   7.489  0.2912 -0.0393 -0.0338
   65POPC   C3A 1328   0.660   3.862   7.085  0.0261 -0.1139 -0.2334
   65POPC   C4A 1329   0.733   4.175   6.785 -0.0635  0.1753  0.1039
   65POPC   C1B 1330   0.527   3.818   7.814 -0.2087  0.3391  0.1816
   65POPC   C2B 1331   0.270   3.850   7.453 -0.0143  0.1347  0.1292
   65POPC   C3B 1332   0.159   4.047   7.014 -0.2391  0.0446  0.0169
   65POPC   C4B 1333   0.104   4.077   6.610  0.0625  0.3685  0.2705
   66POPC   NC3 1334   2.134   2.162   9.125 -0.2400  0.1685 -0.0210
   66POPC   PO4 1335   2.257   1.815   8.935  0.0042  0.0788  0.1322
   66POPC   GL1 1336   2.274   1.758   8.586 -0.3471  0.4630 -0.1419
   66POPC   GL2 1337   1.972   1.623   8.346  0.0836  0.1057 -0.0139
   66POPC   C1A 1338   2.586   1.952   8.229  0.0315 -0.0709 -0.5003
   66POPC   D2A 1339   2.639   1.988   7.851 -0.4133 -0.0027 -0.0715
   66POPC   C3A 1340   2.672   1.522   7.618  0.1023  0.0682 -0.0880
   66POPC   C4A 1341   2.956   1.165   7.473 -0.1603 -0.3014  0.2266
   66POPC   C1B 1342   1.697   1.746   7.996 -0.0476 -0.0519  0.1645
   66POPC   C2B 1343   1.681   1.906   7.690  0.2685  0.3778  0.1950
   66POPC   C3B 1344   1.714   2.037   7.274 -0.2430 -0.1253  0.0597
   66POPC   C4B 1345   1.489   2.123   6.969 -0.0615  0.0490 -0.1250
   67POPC   NC3 1346   2.746   8.599   9.092 -0.1567  0.0652  0.1227
   67POPC   PO4 1347   2.510   8.831   8.743  0.1716 -0.2416 -0.3660
   67POPC   GL1 1348   2.304   8.782   8.365 -0.0130  0.0114 -0.1315
   67POPC   GL2 1349   2.383   8.537   8.371  0.1295  0.1110 -0.1321
   67POPC   C1A 1350   2.582   8.819   8.014  0.1827  0.1076  0.0070
   67POPC   D2A 1351   2.716   8.627   7.723 -0.0159 -0.0675 -0.0155
   67POPC   C3A 1352   2.646   8.851   7.397  0.3255 -0.2890  0.4048
   67POPC   C4A 1353   2.261   9.070   7.324  0.3112  0.0094 -0.0136
   67POPC   C1B 1354   2.566   8.207   8.056  0.7838 -0.0543  0.3357
   67POPC   C2B 1355   2.841   8.074   7.804  0.1302 -0.1592 -0.3252
   67POPC   C3B 1356   2.839   7.738   7.492 -0.0041 -0.1930  0.1635
   67POPC   C4B 1357   2.690   7.719   7.038 -0.1782  0.0895  0.0753
   68POPC   NC3 1358  10.078   7.808   9.012  0.0301 -0.1486  0.3091
   68POPC   PO4 1359   9.754   7.507   9.034  0.1515 -0.0289  0.2088
   68POPC   GL1 1360   9.769   7.527   8.577  0.0717 -0.1880  0.0803
   68POPC   GL2 1361   9.533   7.398   8.382 -0.1420 -0.3248 -0.1659
   68POPC   C1A 1362   9.804   7.725   8.061  0.1466  0.1626 -0.1384
   68POPC   D2A 1363  10.043   7.952   7.751  0.2746 -0.1914 -0.1279
   68POPC   C3A 1364   9.898   8.132   7.464  0.1701 -0.1672  0.0997
   68POPC   C4A 1365   9.468   8.528   7.591 -0.2592 -0.1490 -0.1214
   68POPC   C1B 1366   9.497   7.358   7.949 -0.1571  0.1082 -0.1447
   68POPC   C2B 1367   9.323   7.376   7.498 -0.0044  0.0234  0.0465
   68POPC   C3B 1368   8.987   7.500   7.225 -0.1282  0.2392  0.1698
   68POPC   C4B 1369   8.842   7.865   7.193 -0.2393  0.2394  0.1418
   69POPC   NC3 1370   0.969   6.418   8.612  0.0921  0.0192  0.2466
   69POPC   PO4 1371   1.033   5.962   8.639 -0.2445  0.0677 -0.1847
   69POPC   GL1 1372   0.755   5.741   8.294 -0.0334 -0.2289  0.3733
   69POPC   GL2 1373   0.798   5.455   8.116 -0.1278 -0.1739 -0.2928
   69POPC   C1A 1374   0.585   5.731   7.816  0.2604 -0.0891  0.0435
   69POPC   D2A 1375   0.640   6.097   7.411  0.0461 -0.0936 -0.0524
   69POPC   C3A 1376   0.401   6.120   7.006 -0.0695 -0.0810  0.4385
   69POPC   C4A 1377   0.553   6.409   6.713 -0.1792 -0.0260 -0.1660
   69POPC   C1B 1378   1.073   5.454   7.710  0.0277 -0.0343  0.3132
   69POPC   C2B 1379   0.892   5.675   7.312  0.0175 -0.2196 -0.0589
   69POPC   C3B 1380   1.048   5.928   7.104  0.2407 -0.0035 -0.1591
   69POPC   C4B 1381   1.046   6.323   6.793  0.0636 -0.0477  0.0652
   70POPC   NC3 1382   1.327   3.548   8.606  0.1684 -0.0335 -0.1751
   70POPC   PO4 1383   1.473   3.193   8.854 -0.0899 -0.0981 -0.1475
   70POPC   GL1 1384   1.593   3.061   8.375 -0.2457  0.0759  0.2649
   70POPC   GL2 1385   1.482   3.221   8.215 -0.2635  0.1159 -0.1651
   70POPC   C1A 1386   1.573   2.802   8.040 -0.2494 -0.0881  0.0916
   70POPC   D2A 1387   1.476   2.751   7.610 -0.0801 -0.0703 -0.0191
   70POPC   C3A 1388   1.594   2.562   7.190  0.2192  0.0607 -0.0375
   70POPC   C4A 1389   1.255   2.486   6.827 -0.1480  0.3400 -0.0204
   70POPC   C1B 1390   1.547   3.327   7.860 -0.0861  0.0419  0.0767
   70POPC   C2B 1391   1.551   3.494   7.431  0.0007 -0.1286  0.0102
   70POPC   C3B 1392   1.322   3.672   7.083  0.1004  0.3270  0.0192
   70POPC   C4B 1393   1.045   3.719   6.727  0.0720  0.0483  0.1968
   71POPC   NC3 1394   7.737   0.553   9.906  0.0309  0.2886  0.1978
   71POPC   PO4 1395   7.851   0.194   9.556 -0.1397  0.1503 -0.1521
   71POPC   GL1 1396   7.907   0.230   9.165  0.0011  0.0761  0.0466
   71POPC   GL2 1397   7.797  -0.073   9.010 -0.1863 -0.2147 -0.2365
   71POPC   C1A 1398   7.818   0.317   8.643  0.0995  0.0701  0.2744
   71POPC   D2A 1399   8.030   0.228   8.226  0.1334  0.0926 -0.4803
   71POPC   C3A 1400   8.132   0.540   7.877 -0.0212  0.0916  0.0289
   71POPC   C4A 1401   8.410   0.938   7.807  0.0238  0.0294  0.2265
   71POPC   C1B 1402   7.884  -0.234   8.541  0.2599  0.0937  0.0112
   71POPC   C2B 1403   7.717  -0.138   8.090  0.1711 -0.0746 -0.3314
   71POPC   C3B 1404   7.494  -0.070   7.691 -0.1714 -0.4760 -0.0976
   71POPC   C4B 1405   7.491   0.281   7.454 -0.0313 -0.0067 -0.0744
   72POPC   NC3 1406   7.530   6.068   9.671 -0.2732  0.4772 -0.0122
   72POPC   PO4 1407   7.221   6.078   9.465 -0.1466  0.2896  0.0636
   72POPC   GL1 1408   7.241   6.177   9.046 -0.1143  0.1056  0.0697
   72POPC   GL2 1409   7.198   6.449   8.894 -0.0814 -0.0162 -0.1307
   72POPC   C1A 1410   7.524   6.118   8.648 -0.0171 -0.0462  0.2440
   72POPC   D2A 1411   7.800   6.145   8.313  0.1781  0.2181  0.0563
   72POPC   C3A 1412   7.639   6.125   7.850 -0.1561  0.0735 -0.2702
   72POPC   C4A 1413   7.611   6.397   7.530 -0.2057 -0.0540 -0.1169
   72POPC   C1B 1414   7.094   6.349   8.505 -0.0110 -0.0216 -0.1973
   72POPC   C2B 1415   7.026   6.244   8.074 -0.0671 -0.3647  0.1574
   72POPC   C3B 1416   7.255   5.811   7.886 -0.2478 -0.2426 -0.0063
   72POPC   C4B 1417   7.598   5.707   7.647  0.0836 -0.0584 -0.0972
   73POPC   NC3 1418   5.867   5.620   9.821  0.2455 -0.1308  0.0428
   73POPC   PO4 1419   5.921   5.230   9.641  0.1435  0.0652 -0.0158
   73POPC   GL1 1420   5.892   4.927   9.309 -0.3636  0.2471  0.3422
   73POPC   GL2 1421   5.633   4.745   9.133 -0.4947  0.0802  0.1297
   73POPC   C1A 1422   5.869   5.086   8.844 -0.2780 -0.0279 -0.0412
   73POPC   D2A 1423   5.656   5.201   8.491  0.0002  0.1785 -0.0812
   73POPC   C3A 1424   5.877   5.071   8.036 -0.0789  0.0079 -0.2597
   73POPC   C4A 1425   5.725   4.779   7.632 -0.1712  0.0961  0.1271
   73POPC   C1B 1426   5.303   4.895   8.817  0.0603  0.1180  0.0893
   73POPC   C2B 1427   5.135   5.166   8.389 -0.1567  0.0159 -0.2770
   73POPC   C3B 1428   5.324   5.538   8.285  0.1671 -0.4406  0.3104
   73POPC   C4B 1429   5.767   5.669   8.338  0.1526 -0.1830 -0.0517
   74POPC   NC3 1430   7.900   2.185  10.247 -0.0409 -0.0717  0.2176
   74POPC   PO4 1431   8.316   2.352  10.088  0.0861 -0.0181 -0.1656
   74POPC   GL1 1432   8.023   2.496   9.731  0.1399 -0.0740 -0.0700
   74POPC   GL2 1433   8.007   2.135   9.560 -0.1297 -0.1254  0.0035
   74POPC   C1A 1434   8.002   2.608   9.339 -0.3089 -0.0653 -0.0972
   74POPC   D2A 1435   7.958   2.687   8.855  0.1864  0.1005 -0.1893
   74POPC   C3A 1436   7.677   2.498   8.580  0.0392  0.1100  0.0293
   74POPC   C4A 1437   7.604   2.367   8.191 -0.2085  0.0442 -0.1634
   74POPC   C1B 1438   7.691   1.938   9.342  0.1702  0.0823  0.1518
   74POPC   C2B 1439   7.609   1.466   9.354 -0.0675 -0.0792  0.1152
   74POPC   C3B 1440   7.391   1.277   9.086  0.0020  0.2133  0.0562
   74POPC   C4B 1441   7.410   0.829   8.988  0.0934  0.0609 -0.2924
   75POPC   NC3 1442   4.214   4.130   9.403 -0.1237 -0.0328  0.0946
   75POPC   PO4 1443   4.218   3.814   9.706  0.0558  0.1182 -0.1638
   75POPC   GL1 1444   4.450   3.640   9.300 -0.0022 -0.0701 -0.0339
   75POPC   GL2 1445   4.692   3.826   9.278  0.4275  0.1247  0.0568
   75POPC   C1A 1446   4.605   3.306   8.960  0.2557  0.1165  0.1278
   75POPC   D2A 1447   5.007   3.221   8.631 -0.2128  0.4319 -0.2202
   75POPC   C3A 1448   4.850   3.021   8.202 -0.2444 -0.0764 -0.2354
   75POPC   C4A 1449   4.859   2.971   7.801  0.0588 -0.4338 -0.0161
   75POPC   C1B 1450   5.016   3.460   9.213  0.4079 -0.4463  0.1223
   75POPC   C2B 1451   5.285   3.347   9.002  0.0656 -0.1440 -0.1283
   75POPC   C3B 1452   5.555   3.315   8.633 -0.2085  0.0600  0.0942
   75POPC   C4B 1453   5.832   3.176   8.348  0.0713 -0.2928 -0.1051
   76POPC   NC3 1454   0.624   5.248   8.974 -0.3125  0.1529  0.1253
   76POPC   PO4 1455   0.424   5.003   8.724  0.2378  0.0394  0.2999
   76POPC   GL1 1456   0.482   4.787   8.329 -0.0866 -0.4639  0.2622
   76POPC   GL2 1457   0.251   4.657   8.200 -0.0603 -0.1007  0.3412
   76POPC   C1A 1458   0.824   4.692   7.965  0.0440 -0.3437 -0.0237
   76POPC   D2A 1459   1.169   4.403   7.940  0.0138  0.0039 -0.2601
   76POPC   C3A 1460   1.333   4.051   7.725 -0.1966  0.1830  0.0106
   76POPC   C4A 1461   1.609   3.993   7.347 -0.0414  0.1550 -0.2379
   76POPC   C1B 1462   0.157   4.847   7.739  0.1725  0.3064 -0.0756
   76POPC   C2B 1463  -0.138   4.994   7.312  0.3017  0.0289 -0.1286
   76POPC   C3B 1464  -0.359   5.017   6.916 -0.3645 -0.0751  0.4274
   76POPC   C4B 1465  -0.282   4.978   6.457 -0.0233  0.2864 -0.1506
   77POPC   NC3 1466   4.131   8.109   9.217 -0.1214 -0.0688 -0.1388
   77POPC   PO4 1467   3.826   7.760   9.190 -0.0846  0.0476  0.0712
   77POPC   GL1 1468   3.939   7.677   8.726  0.0024 -0.1811  0.2252
   77POPC   GL2 1469   4.171   7.962   8.685  0.0974 -0.1670  0.0147
   77POPC   C1A 1470   3.843   7.664   8.237  0.1438  0.0284 -0.1192
   77POPC   D2A 1471   3.772   7.417   7.935  0.0749 -0.0993  0.1003
   77POPC   C3A 1472   3.377   7.228   7.847 -0.2499  0.0103  0.1543
   77POPC   C4A 1473   2.969   7.262   7.704 -0.1447  0.3080  0.0487
   77POPC   C1B 1474   4.041   8.185   8.310 -0.1643 -0.1190 -0.1071
   77POPC   C2B 1475   3.985   8.381   7.912  0.0716 -0.3061 -0.0563
   77POPC   C3B 1476   3.798   8.516   7.549  0.3293  0.1007 -0.2856
   77POPC   C4B 1477   3.965   8.567   7.161  0.2566  0.0628 -0.1407
   78POPC   NC3 1478   1.741   0.001   8.925 -0.1195 -0.0401 -0.0340
   78POPC   PO4 1479   1.384   0.285   8.807  0.1074  0.0508  0.1838
   78POPC   GL1 1480   1.216   0.178   8.361  0.2399 -0.0308 -0.4104
   78POPC   GL2 1481   0.988   0.352   8.180  0.1856 -0.2308  0.2287
   78POPC   C1A 1482   1.367   0.040   7.908  0.0302  0.0777  0.0597
   78POPC   D2A 1483   1.354   0.198   7.499  0.2192  0.4100  0.3447
   78POPC   C3A 1484   1.024  -0.043   7.212 -0.1772 -0.2482 -0.0055
   78POPC   C4A 1485   0.730  -0.259   6.863 -0.1692  0.0904 -0.4017
   78POPC   C1B 1486   1.213   0.591   7.876  0.4383  0.4048 -0.1746
   78POPC   C2B 1487   1.505   0.669   7.575  0.2653  0.2259  0.1608
   78POPC   C3B 1488   1.509   0.798   7.124 -0.1058 -0.0874  0.2485
   78POPC   C4B 1489   1.565   0.847   6.709 -0.2440  0.0389  0.0456
   79POPC   NC3 1490   3.151   1.863  10.038 -0.0207  0.1715 -0.1530
   79POPC   PO4 1491   2.927   2.112   9.704 -0.0337  0.0760 -0.1098
   79POPC   GL1 1492   3.151   2.083   9.343  0.1014 -0.0856 -0.1647
   79POPC   GL2 1493   3.051   1.790   9.158 -0.0032 -0.2078 -0.3186
   79POPC   C1A 1494   3.595   2.251   9.276  0.1713 -0.1916 -0.1042
   79POPC   D2A 1495   4.031   2.141   9.204  0.1367  0.0582 -0.1823
   79POPC   C3A 1496   4.405   2.439   9.198 -0.0388 -0.1271  0.0305
   79POPC   C4A 1497   4.805   2.485   9.245  0.1565 -0.1567 -0.0739
   79POPC   C1B 1498   3.205   2.107   8.857 -0.0242  0.0655 -0.0122
   79POPC   C2B 1499   3.442   2.347   8.564  0.1373  0.1115 -0.1241
   79POPC   C3B 1500   3.362   2.560   8.244 -0.1143  0.3410  0.2434
   79POPC   C4B 1501   3.443   2.520   7.917  0.0472  0.0620 -0.0673
   80POPC   NC3 1502   3.283   8.803   9.215  0.2620  0.2030  0.1440
   80POPC   PO4 1503   3.132   8.778   8.795  0.1316 -0.0603 -0.2395
   80POPC   GL1 1504   2.931   8.807   8.476 -0.0825  0.1846 -0.0652
   80POPC   GL2 1505   2.972   8.524   8.269 -0.0809  0.0946  0.0986
   80POPC   C1A 1506   3.024   9.052   8.047  0.1865 -0.2192 -0.0752
   80POPC   D2A 1507   2.976   9.060   7.698  0.4141 -0.1674 -0.0576
   80POPC   C3A 1508   3.103   8.737   7.401  0.1078 -0.1167  0.4844
   80POPC   C4A 1509   3.263   8.488   7.058 -0.2409 -0.3671  0.3052
   80POPC   C1B 1510   3.224   8.566   7.856  0.0073  0.0671  0.2154
   80POPC   C2B 1511   3.324   8.238   7.555  0.3357 -0.1950 -0.1046
   80POPC   C3B 1512   3.576   8.012   7.342 -0.0465 -0.2273  0.0265
   80POPC   C4B 1513   4.016   8.113   7.443  0.1275 -0.0041 -0.4188
   81POPC   NC3 1514   4.125   9.023   8.779 -0.4610  0.0805  0.3065
   81POPC   PO4 1515   4.196   8.517   8.917  0.7441  0.0978 -0.2035
   81POPC   GL1 1516   4.285   8.576   8.469 -0.0713 -0.0657  0.0848
   81POPC   GL2 1517   4.101   8.772   8.330 -0.1201 -0.2409 -0.1214
   81POPC   C1A 1518   4.449   8.634   8.023 -0.3662 -0.4060 -0.3878
   81POPC   D2A 1519   4.513   8.934   7.734 -0.0618  0.0073  0.0626
   81POPC   C3A 1520   4.805   8.750   7.557 -0.0299  0.0008 -0.2924
   81POPC   C4A 1521   4.973   8.426   7.673  0.0159  0.1698 -0.2281
   81POPC   C1B 1522   3.954   8.931   7.937 -0.1935 -0.1856  0.2385
   81POPC   C2B 1523   4.119   8.924   7.463 -0.1498 -0.1299  0.0129
   81POPC   C3B 1524   4.448   8.921   7.237  0.0860 -0.0792 -0.3256
   81POPC   C4B 1525   4.865   9.024   7.149 -0.1015  0.4364 -0.2533
   82POPC   NC3 1526   3.926   7.244   9.235 -0.0232  0.2249  0.0141
   82POPC   PO4 1527   3.666   7.319   8.893  0.2653  0.2572 -0.1836
   82POPC   GL1 1528   3.668   7.252   8.427 -0.4120  0.2885  0.1932
   82POPC   GL2 1529   3.457   7.421   8.393  0.1615  0.0133  0.0243
   82POPC   C1A 1530   3.922   6.978   8.268 -0.0611  0.2565  0.3926
   82POPC   D2A 1531   3.972   6.977   7.788  0.1622 -0.2846  0.3691
   82POPC   C3A 1532   4.252   7.189   7.582 -0.2140  0.4634 -0.3308
   82POPC   C4A 1533   4.531   7.176   7.394 -0.1745  0.0259 -0.2182
   82POPC   C1B 1534   2.991   7.407   8.148  0.2351  0.2389 -0.0238
   82POPC   C2B 1535   2.639   7.521   7.957 -0.1362 -0.0014  0.0703
   82POPC   C3B 1536   2.247   7.676   7.773  0.0251  0.2798  0.1974
   82POPC   C4B 1537   2.033   7.788   7.383 -0.3000 -0.1391 -0.0742
   83POPC   NC3 1538   0.496   8.366   8.804 -0.1176 -0.0297  0.0599
   83POPC   PO4 1539   0.212   8.768   8.737  0.3666 -0.1359 -0.0621
   83POPC   GL1 1540   0.192   8.490   8.416  0.1105 -0.1397  0.3511
   83POPC   GL2 1541   0.041   8.692   8.179  0.2359 -0.2106 -0.1907
   83POPC   C1A 1542   0.299   8.269   8.040 -0.3138 -0.0583  0.3060
   83POPC   D2A 1543   0.170   8.387   7.651  0.0975 -0.2034 -0.1282
   83POPC   C3A 1544   0.102   8.285   7.133 -0.0212  0.1869 -0.1762
   83POPC   C4A 1545   0.142   8.067   6.752  0.1209  0.0225 -0.2286
   83POPC   C1B 1546   0.061   8.902   7.765 -0.2186 -0.0100 -0.2148
   83POPC   C2B 1547   0.298   8.779   7.380 -0.0571  0.4921 -0.3933
   83POPC   C3B 1548   0.379   8.656   7.041  0.5088  0.1385 -0.1729
   83POPC   C4B 1549   0.545   8.451   6.807  0.1496 -0.0110  0.1456
   84POPC   NC3 1550   8.045   7.306   9.074 -0.2238  0.2901 -0.1080
   84POPC   PO4 1551   8.018   7.726   8.919  0.1374 -0.2616 -0.1001
   84POPC   GL1 1552   8.106   7.387   8.624 -0.0138  0.1407  0.3994
   84POPC   GL2 1553   7.845   7.255   8.577 -0.1501  0.2270  0.1108
   84POPC   C1A 1554   8.161   7.174   8.213 -0.0157 -0.1882 -0.1223
   84POPC   D2A 1555   8.037   7.021   7.858  0.2262  0.1392  0.0973
   84POPC   C3A 1556   8.346   6.896   7.664 -0.0026  0.3192 -0.0187
   84POPC   C4A 1557   8.479   6.866   7.366  0.0289 -0.1086  0.1920
   84POPC   C1B 1558   7.681   7.393   8.316 -0.0511  0.0643  0.0920
   84POPC   C2B 1559   7.715   7.391   7.861  0.1974  0.3856  0.1444
   84POPC   C3B 1560   7.596   7.417   7.469 -0.1505 -0.1381  0.0839
   84POPC   C4B 1561   7.245   7.225   7.436 -0.0119 -0.0923 -0.1095
   85POPC   NC3 1562   1.820   1.322   8.694  0.0594  0.1198 -0.0561
   85POPC   PO4 1563   1.329   1.509   8.616 -0.0946  0.1356 -0.4493
   85POPC   GL1 1564   1.290   1.527   8.184  0.2573  0.0507  0.0636
   85POPC   GL2 1565   1.613   1.303   8.161  0.2114 -0.1065  0.1639
   85POPC   C1A 1566   1.128   1.689   7.856 -0.0335 -0.5223 -0.2065
   85POPC   D2A 1567   0.956   1.436   7.620 -0.0193 -0.2779  0.3097
   85POPC   C3A 1568   0.551   1.538   7.463  0.0476 -0.0224 -0.0403
   85POPC   C4A 1569   0.285   1.272   7.384 -0.0357  0.1353 -0.0403
   85POPC   C1B 1570   1.666   1.164   7.660  0.0275  0.0071  0.1208
   85POPC   C2B 1571   1.463   1.244   7.266 -0.2352 -0.1291  0.0882
   85POPC   C3B 1572   1.109   1.138   7.056 -0.0186  0.1601  0.2189
   85POPC   C4B 1573   0.788   0.873   6.791  0.1403  0.1610  0.1627
   86POPC   NC3 1574   5.437   7.442   8.978  0.5167 -0.3192  0.0658
   86POPC   PO4 1575   5.164   7.167   8.857 -0.1212  0.0082 -0.0263
   86POPC   GL1 1576   5.111   7.435   8.562  0.0458 -0.3051 -0.1235
   86POPC   GL2 1577   5.304   7.544   8.427 -0.0523  0.0335 -0.2277
   86POPC   C1A 1578   4.777   7.535   8.204 -0.1452  0.2872  0.0261
   86POPC   D2A 1579   4.451   7.898   8.175  0.0812  0.1168 -0.2927
   86POPC   C3A 1580   4.464   8.193   7.880  0.2702 -0.3291  0.3120
   86POPC   C4A 1581   4.427   8.428   7.505 -0.1131 -0.2403  0.0021
   86POPC   C1B 1582   5.246   7.344   8.077 -0.1376 -0.0794 -0.2883
   86POPC   C2B 1583   5.060   7.511   7.713 -0.3075  0.0251 -0.0116
   86POPC   C3B 1584   5.209   7.571   7.417 -0.2156  0.1280  0.1328
   86POPC   C4B 1585   5.422   7.813   7.039  0.0011 -0.0083 -0.1531
   87POPC   NC3 1586   7.497   4.279  10.099 -0.2167  0.1229  0.2052
   87POPC   PO4 1587   7.797   4.174   9.833 -0.0444 -0.4161 -0.2696
   87POPC   GL1 1588   7.577   4.226   9.482  0.3548  0.1594  0.0328
   87POPC   GL2 1589   7.717   4.528   9.252 -0.2156 -0.0239  0.0262
   87POPC   C1A 1590   7.340   4.224   9.037 -0.0232  0.1209  0.0958
   87POPC   D2A 1591   7.071   4.187   8.702 -0.2867  0.0082 -0.0979
   87POPC   C3A 1592   7.001   3.871   8.384  0.1086 -0.1077  0.0268
   87POPC   C4A 1593   6.727   3.495   8.257 -0.1379  0.3075  0.0235
   87POPC   C1B 1594   7.796   4.356   8.870  0.1700 -0.2541  0.1508
   87POPC   C2B 1595   7.561   4.364   8.597 -0.0125  0.0247 -0.0798
   87POPC   C3B 1596   7.477   4.074   8.319 -0.0972 -0.3726  0.0701
   87POPC   C4B 1597   7.299   3.922   7.961 -0.1443 -0.0963  0.0271
   88POPC   NC3 1598   2.825   9.241   8.771  0.1763  0.2664 -0.1479
   88POPC   PO4 1599   3.292   9.272   8.850  0.3469  0.1132  0.0068
   88POPC   GL1 1600   3.453   9.119   8.433  0.0910  0.0574  0.0102
   88POPC   GL2 1601   3.624   9.361   8.215  0.0028 -0.3681  0.1938
   88POPC   C1A 1602   3.528   8.860   8.131  0.0493 -0.2350 -0.1405
   88POPC   D2A 1603   3.531   8.917   7.672  0.0350  0.1910 -0.2344
   88POPC   C3A 1604   3.739   9.340   7.516  0.2748 -0.0790  0.0160
   88POPC   C4A 1605   3.779   9.707   7.843  0.0713  0.0870  0.0143
   88POPC   C1B 1606   3.327   9.406   7.840 -0.2177  0.0496 -0.0706
   88POPC   C2B 1607   3.137   9.424   7.398  0.0448  0.1317  0.3940
   88POPC   C3B 1608   3.061   9.550   6.941  0.1809 -0.1648 -0.1582
   88POPC   C4B 1609   2.809   9.709   6.612 -0.2145 -0.0693  0.3202
   89POPC   NC3 1610   9.242   9.495   8.753  0.2219  0.5150  0.0800
   89POPC   PO4 1611   9.022   9.184   8.663  0.1218 -0.0663  0.1042
   89POPC   GL1 1612   9.172   9.139   8.230 -0.4684  0.1241  0.2246
   89POPC   GL2 1613   9.102   9.525   8.180 -0.0011  0.0591 -0.2438
   89POPC   C1A 1614   9.196   9.095   7.832 -0.2494 -0.0637 -0.0481
   89POPC   D2A 1615   9.081   8.865   7.433 -0.1688 -0.0019 -0.1952
   89POPC   C3A 1616   8.801   8.961   7.024  0.2674 -0.2969  0.1434
   89POPC   C4A 1617   8.800   9.117   6.584 -0.0785  0.0024 -0.0906
   89POPC   C1B 1618   8.938   9.513   7.763 -0.2018 -0.0870  0.0750
   89POPC   C2B 1619   8.867   9.913   7.484 -0.1509  0.1140  0.5898
   89POPC   C3B 1620   8.903   9.972   7.033 -0.1449  0.0230  0.2035
   89POPC   C4B 1621   8.670  10.076   6.767 -0.2702 -0.3857  0.3071
   90POPC   NC3 1622   0.842   7.238   8.929 -0.3566  0.1995 -0.2150
   90POPC   PO4 1623   0.487   7.109   9.147 -0.0033  0.4385 -0.2284
   90POPC   GL1 1624   0.436   6.989   8.716  0.0691 -0.3768  0.0128
   90POPC   GL2 1625   0.581   7.013   8.490  0.1834 -0.2341  0.0633
   90POPC   C1A 1626   0.136   6.795   8.355 -0.1111 -0.1059 -0.0944
   90POPC   D2A 1627   0.127   6.627   7.984 -0.2952  0.0273 -0.1202
   90POPC   C3A 1628   0.495   6.659   7.606 -0.0939  0.1631 -0.0363
   90POPC   C4A 1629   0.755   6.565   7.165 -0.0351 -0.1617 -0.0705
   90POPC   C1B 1630   0.397   7.145   8.116  0.0436  0.0270 -0.1614
   90POPC   C2B 1631   0.117   6.993   7.673 -0.0055  0.1869 -0.0490
   90POPC   C3B 1632  -0.124   6.749   7.393  0.1102 -0.4773  0.0114
   90POPC   C4B 1633  -0.231   6.750   6.956 -0.1056 -0.1728  0.0567
   91POPC   NC3 1634   9.193   5.065   9.053 -0.1317 -0.0505 -0.0176
   91POPC   PO4 1635   9.552   5.046   8.898 -0.1734  0.1314  0.1367
   91POPC   GL1 1636   9.628   4.995   8.472  0.1503  0.1851  0.1889
   91POPC   GL2 1637   9.391   5.317   8.493 -0.0696  0.2251 -0.1033
   91POPC   C1A 1638   9.435   5.038   8.088  0.2237 -0.1045 -0.3189
   91POPC   D2A 1639   9.541   5.246   7.835 -0.0109  0.0205 -0.0016
   91POPC   C3A 1640   9.552   5.671   7.679 -0.2273  0.0557  0.0803
   91POPC   C4A 1641   9.283   6.046   7.611 -0.2458  0.2050  0.0414
   91POPC   C1B 1642   9.015   5.370   8.600 -0.0648 -0.0278 -0.0873
   91POPC   C2B 1643   8.792   5.263   8.306 -0.1573 -0.2467  0.0228
   91POPC   C3B 1644   8.999   5.128   7.830 -0.4739  0.2522 -0.2685
   91POPC   C4B 1645   8.750   5.111   7.420  0.0576  0.1373 -0.1583
   92POPC   NC3 1646   6.603   8.938   9.198  0.1144 -0.0081 -0.0831
   92POPC   PO4 1647   6.682   8.526   8.892  0.1777 -0.1393 -0.3087
   92POPC   GL1 1648   6.746   9.005   8.703  0.2157 -0.3133 -0.0136
   92POPC   GL2 1649   6.494   9.221   8.712  0.0282 -0.1075  0.2575
   92POPC   C1A 1650   6.866   9.239   8.240 -0.1624  0.0332  0.0862
   92POPC   D2A 1651   6.821   9.595   8.065 -0.1517  0.0076  0.0104
   92POPC   C3A 1652   6.972   9.769   7.696  0.0863 -0.0537  0.1145
   92POPC   C4A 1653   7.124  10.118   7.410 -0.0377 -0.0285  0.2367
   92POPC   C1B 1654   6.398   9.466   8.349  0.0541 -0.2400  0.1999
   92POPC   C2B 1655   6.322   9.725   7.890  0.1724  0.0002 -0.2845
   92POPC   C3B 1656   5.954   9.495   7.565  0.2114  0.0008 -0.0278
   92POPC   C4B 1657   5.837   9.095   7.596 -0.0625 -0.0332 -0.6142
   93POPC   NC3 1658   4.725   4.895   9.322 -0.3449  0.0288  0.1084
   93POPC   PO4 1659   4.602   4.457   9.366 -0.1281 -0.3158 -0.1386
   93POPC   GL1 1660   4.717   4.419   9.009 -0.0142  0.1675  0.1295
   93POPC   GL2 1661   4.594   4.389   8.734  0.0079  0.2457  0.1583
   93POPC   C1A 1662   5.164   4.301   8.758 -0.1017  0.0125  0.2883
   93POPC   D2A 1663   5.263   4.178   8.255 -0.0531 -0.0511 -0.1083
   93POPC   C3A 1664   5.269   4.512   7.887  0.0638  0.0914  0.2390
   93POPC   C4A 1665   4.964   4.629   7.498 -0.1071 -0.3927  0.2511
   93POPC   C1B 1666   4.795   4.252   8.347 -0.1094 -0.4180 -0.1104
   93POPC   C2B 1667   4.737   4.539   7.943 -0.0755  0.3212 -0.1934
   93POPC   C3B 1668   4.530   4.838   7.676 -0.0094  0.2229 -0.2914
   93POPC   C4B 1669   4.375   4.898   7.356 -0.0609  0.3599  0.0933
   94POPC   NC3 1670   9.591   4.186   8.505  0.0409 -0.2677  0.0307
   94POPC   PO4 1671   9.581   4.134   8.935  0.0865  0.2104  0.2429
   94POPC   GL1 1672   9.052   4.059   8.702  0.0602 -0.2538 -0.1168
   94POPC   GL2 1673   8.961   3.727   8.759 -0.2913  0.0247  0.1613
   94POPC   C1A 1674   8.912   4.226   8.256  0.1059 -0.0184 -0.0756
   94POPC   D2A 1675   8.436   4.344   8.260 -0.1224 -0.0307  0.0446
   94POPC   C3A 1676   8.244   4.584   7.908  0.3607 -0.0217  0.0432
   94POPC   C4A 1677   8.018   4.529   7.472  0.2463  0.1572  0.0523
   94POPC   C1B 1678   8.609   3.837   8.391 -0.2949  0.0118 -0.0810
   94POPC   C2B 1679   8.741   3.927   7.879 -0.0420 -0.0015 -0.1710
   94POPC   C3B 1680   8.732   4.114   7.417  0.1873  0.0696 -0.0394
   94POPC   C4B 1681   8.353   4.256   7.173  0.1525 -0.2925 -0.3233
   95POPC   NC3 1682   2.681   3.817   8.841  0.3980  0.1774 -0.0579
   95POPC   PO4 1683   2.908   3.894   9.150 -0.3844  0.0134  0.0998
   95POPC   GL1 1684   3.206   3.764   8.733  0.1423 -0.3382  0.1605
   95POPC   GL2 1685   3.233   3.905   8.419  0.1580  0.0600 -0.3478
   95POPC   C1A 1686   3.452   3.439   8.564  0.0084 -0.0796  0.0723
   95POPC   D2A 1687   3.789   3.384   8.273 -0.3408  0.0091  0.3318
   95POPC   C3A 1688   3.862   3.284   7.911  0.1311 -0.2575 -0.0685
   95POPC   C4A 1689   4.287   3.318   7.651  0.0386  0.1841 -0.0042
   95POPC   C1B 1690   2.949   3.880   8.022 -0.0655 -0.2586  0.2404
   95POPC   C2B 1691   2.730   3.879   7.660  0.0433  0.0881  0.1608
   95POPC   C3B 1692   2.352   4.041   7.467 -0.0060  0.1658  0.0783
   95POPC   C4B 1693   2.268   4.071   7.078  0.0741 -0.3055 -0.0381
   96POPC   NC3 1694   4.558   8.940   9.114  0.0045  0.1598 -0.0285
   96POPC   PO4 1695   4.618   8.814   8.789 -0.3026 -0.0892 -0.1479
   96POPC   GL1 1696   4.740   8.876   8.431 -0.3607 -0.1750  0.1428
   96POPC   GL2 1697   4.970   9.204   8.349  0.0241  0.3766  0.2167
   96POPC   C1A 1698   4.962   8.728   8.068 -0.1680 -0.0443  0.0187
   96POPC   D2A 1699   5.373   8.703   7.775  0.2178 -0.0847 -0.0394
   96POPC   C3A 1700   5.349   9.026   7.391  0.0993 -0.2278 -0.3146
   96POPC   C4A 1701   5.130   9.447   7.229 -0.2157  0.2423 -0.1496
   96POPC   C1B 1702   4.766   9.242   8.026  0.0235  0.1377 -0.2405
   96POPC   C2B 1703   4.965   9.289   7.698  0.0442 -0.0724  0.0329
   96POPC   C3B 1704   4.672   9.422   7.337 -0.0759 -0.2936  0.2249
   96POPC   C4B 1705   4.612   9.829   7.116 -0.0005 -0.1541 -0.0847
   97POPC   NC3 1706   3.682   8.115   8.893  0.2012  0.0191 -0.2956
   97POPC   PO4 1707   3.293   8.344   9.041  0.0320 -0.2383  0.1673
   97POPC   GL1 1708   3.336   8.365   8.602 -0.1136  0.4119  0.0479
   97POPC   GL2 1709   3.299   8.140   8.545  0.1515 -0.3240 -0.1130
   97POPC   C1A 1710   3.555   8.272   8.112 -0.1261  0.0270  0.1878
   97POPC   D2A 1711   3.716   7.960   7.851  0.2474  0.1879  0.0876
   97POPC   C3A 1712   4.145   7.756   7.793 -0.0657 -0.3061 -0.3016
   97POPC   C4A 1713   4.527   7.537   7.740 -0.0118 -0.4960 -0.0552
   97POPC   C1B 1714   3.243   7.887   8.161  0.2325 -0.1384  0.0556
   97POPC   C2B 1715   3.212   7.693   7.795  0.0977  0.2860  0.0624
   97POPC   C3B 1716   3.304   7.529   7.414 -0.1563 -0.1403 -0.2060
   97POPC   C4B 1717   3.170   7.461   7.063 -0.0007 -0.0716 -0.0161
   98POPC   NC3 1718   5.076   8.603   9.679  0.0457 -0.1602  0.1560
   98POPC   PO4 1719   4.959   8.795   9.376 -0.0173 -0.1116  0.1031
   98POPC   GL1 1720   5.037   9.207   9.126 -0.0388  0.1659 -0.1523
   98POPC   GL2 1721   4.798   9.279   8.800 -0.0874 -0.1150  0.1012
   98POPC   C1A 1722   5.253   9.523   8.819 -0.0543 -0.1007 -0.0854
   98POPC   D2A 1723   5.461   9.397   8.468  0.1888 -0.1044  0.0446
   98POPC   C3A 1724   5.227   9.612   8.142 -0.0025 -0.2510 -0.0610
   98POPC   C4A 1725   5.212   9.950   7.877  0.1986 -0.0011  0.2026
   98POPC   C1B 1726   4.767   9.719   8.689  0.0456 -0.1260 -0.0821
   98POPC   C2B 1727   4.842  10.055   8.379  0.2553  0.0235 -0.2037
   98POPC   C3B 1728   4.625  10.197   8.019  0.1749  0.0625 -0.0727
   98POPC   C4B 1729   4.958  10.494   7.911 -0.4478  0.2613 -0.0036
   99POPC   NC3 1730   6.118   3.278  10.572  0.0946  0.1503 -0.0803
   99POPC   PO4 1731   6.441   3.497  10.463  0.1653  0.1211 -0.0324
   99POPC   GL1 1732   6.418   3.226  10.199  0.0649  0.1718 -0.1661
   99POPC   GL2 1733   6.120   3.160  10.091  0.0532 -0.0845 -0.0462
   99POPC   C1A 1734   6.426   3.039   9.751 -0.0745  0.1742 -0.2180
   99POPC   D2A 1735   6.271   2.928   9.341 -0.2847 -0.0874 -0.0075
   99POPC   C3A 1736   6.634   2.887   9.047  0.1258 -0.1857  0.1394
   99POPC   C4A 1737   6.982   2.561   9.080 -0.1161 -0.1566 -0.0265
   99POPC   C1B 1738   5.942   2.959   9.809  0.0500  0.0215 -0.0874
   99POPC   C2B 1739   5.974   2.553   9.508  0.0784 -0.0370 -0.2106
   99POPC   C3B 1740   5.766   2.484   9.146 -0.1382  0.0605 -0.0912
   99POPC   C4B 1741   5.886   2.212   8.822 -0.1356  0.0960 -0.1397
  100POPC   NC3 1742   0.460   0.361   8.840  0.1554  0.4243  0.0189
  100POPC   PO4 1743   0.398   0.795   8.707 -0.1187 -0.0205  0.2228
  100POPC   GL1 1744   0.415   0.912   8.304  0.2326 -0.1377  0.0165
  100POPC   GL2 1745   0.759   0.856   8.159 -0.1110 -0.1655 -0.2979
  100POPC   C1A 1746   0.155   0.964   7.977 -0.2836  0.0394 -0.0848
  100POPC   D2A 1747  -0.243   1.108   7.817 -0.4082  0.0931 -0.0744
  100POPC   C3A 1748  -0.263   1.226   7.401  0.0605 -0.1450 -0.1697
  100POPC   C4A 1749  -0.439   1.147   7.067  0.1007 -0.1093 -0.0540
  100POPC   C1B 1750   0.538   1.305   8.000  0.2718 -0.0517 -0.0452
  100POPC   C2B 1751   0.179   1.408   7.825 -0.2584  0.1140  0.1053
  100POPC   C3B 1752   0.008   1.717   7.457 -0.0231  0.0129  0.0943
  100POPC   C4B 1753  -0.221   1.653   7.029 -0.2897  0.0724 -0.1516
  101POPC   NC3 1754   5.930   8.996   9.271 -0.0708  0.0731  0.3523
  101POPC   PO4 1755   6.126   9.297   9.267 -0.2721 -0.0785  0.1524
  101POPC   GL1 1756   6.004   9.697   9.103 -0.1832 -0.1754 -0.0014
  101POPC   GL2 1757   6.219   9.960   9.265  0.0596 -0.2317  0.2711
  101POPC   C1A 1758   5.774   9.945   8.913  0.0476 -0.0044  0.0298
  101POPC   D2A 1759   5.806  10.287   8.634 -0.0312  0.2563  0.4457
  101POPC   C3A 1760   5.680  10.741   8.459  0.1664  0.2913 -0.1092
  101POPC   C4A 1761   5.466  10.834   8.069  0.1311 -0.2967  0.0701
  101POPC   C1B 1762   6.300  10.183   8.834  0.2053 -0.2115  0.0804
  101POPC   C2B 1763   6.429  10.469   8.580  0.0641  0.1179  0.3487
  101POPC   C3B 1764   6.584  10.639   8.236  0.0201  0.5046 -0.1913
  101POPC   C4B 1765   6.391  10.801   7.792 -0.2420 -0.1825 -0.2944
  102POPC   NC3 1766   8.172   9.978   9.342 -0.2261 -0.0376 -0.0080
  102POPC   PO4 1767   8.637  10.128   9.179  0.0134  0.1779  0.1130
  102POPC   GL1 1768   8.508  10.379   8.866  0.0860  0.0404  0.3066
  102POPC   GL2 1769   8.213  10.274   8.812  0.0049  0.0566  0.5494
  102POPC   C1A 1770   8.585  10.588   8.433  0.3043  0.1100 -0.1080
  102POPC   D2A 1771   8.872  10.727   8.165 -0.0113 -0.1104 -0.1789
  102POPC   C3A 1772   8.945  11.099   7.898  0.3845  0.0896 -0.1158
  102POPC   C4A 1773   8.773  11.464   7.894 -0.0798 -0.2500  0.2406
  102POPC   C1B 1774   8.470  10.092   8.375 -0.0233 -0.0273  0.3130
  102POPC   C2B 1775   8.556  10.337   7.981  0.0538 -0.1472 -0.1034
  102POPC   C3B 1776   8.497  10.194   7.575  0.2370 -0.1028  0.1870
  102POPC   C4B 1777   8.526  10.404   7.088 -0.3233 -0.0951  0.5649
  103POPC   NC3 1778   7.486   7.060   9.434  0.1297  0.3596  0.1561
  103POPC   PO4 1779   7.892   6.817   9.267  0.4224  0.2790 -0.0157
  103POPC   GL1 1780   7.611   6.701   8.977  0.1937  0.0384 -0.0173
  103POPC   GL2 1781   7.540   7.006   8.868 -0.1508 -0.1055 -0.0759
  103POPC   C1A 1782   7.538   6.645   8.531 -0.2162 -0.0269 -0.4044
  103POPC   D2A 1783   7.704   6.859   8.296 -0.0009 -0.0141  0.2718
  103POPC   C3A 1784   7.893   6.545   7.933 -0.0141  0.0109  0.0154
  103POPC   C4A 1785   8.158   6.415   7.643 -0.1481  0.2479  0.4156
  103POPC   C1B 1786   7.245   7.121   8.494  0.0892 -0.1761 -0.0757
  103POPC   C2B 1787   6.919   6.851   8.278  0.4761  0.1554  0.1887
  103POPC   C3B 1788   6.857   6.630   7.805 -0.1819  0.0594 -0.4486
  103POPC   C4B 1789   6.695   6.558   7.448  0.2174  0.1357 -0.1105
  104POPC   NC3 1790   7.679   2.133  10.902  0.1769  0.2340 -0.2743
  104POPC   PO4 1791   7.573   2.493  10.530  0.0468 -0.1958 -0.2380
  104POPC   GL1 1792   7.543   2.544  10.159 -0.2392  0.4301  0.0664
  104POPC   GL2 1793   7.656   2.889  10.020  0.1035 -0.2886 -0.3982
  104POPC   C1A 1794   7.461   2.257   9.801 -0.1291  0.1002 -0.0670
  104POPC   D2A 1795   7.282   2.253   9.318  0.0163 -0.0508  0.0738
  104POPC   C3A 1796   7.540   2.265   8.998 -0.0466 -0.2480 -0.1115
  104POPC   C4A 1797   7.870   2.210   8.952 -0.0732 -0.4542  0.1314
  104POPC   C1B 1798   7.614   2.788   9.612  0.0869 -0.1307 -0.0429
  104POPC   C2B 1799   7.546   2.850   9.150 -0.3998 -0.1656  0.0671
  104POPC   C3B 1800   7.347   2.807   8.766 -0.0997 -0.1784  0.4162
  104POPC   C4B 1801   7.131   2.739   8.543 -0.0307  0.2368 -0.0198
  105POPC   NC3 1802   5.297   6.296   9.678  0.0973 -0.0666  0.3606
  105POPC   PO4 1803   5.208   6.328   9.189 -0.1793 -0.3014 -0.0917
  105POPC   GL1 1804   5.511   6.408   8.872 -0.0249  0.1391 -0.0362
  105POPC   GL2 1805   5.358   6.241   8.685  0.1229 -0.1418  0.0298
  105POPC   C1A 1806   5.849   6.414   8.644 -0.2657  0.4675  0.1006
  105POPC   D2A 1807   6.112   6.298   8.218  0.3111  0.0611  0.0438
  105POPC   C3A 1808   6.513   6.314   7.983 -0.0644 -0.2877 -0.0192
  105POPC   C4A 1809   6.737   6.084   7.682 -0.3723 -0.0090  0.2336
  105POPC   C1B 1810   5.584   6.187   8.285  0.1145  0.0924  0.1654
  105POPC   C2B 1811   5.760   6.055   7.938  0.0179  0.1255  0.1891
  105POPC   C3B 1812   5.584   6.140   7.570  0.1592  0.3908  0.2808
  105POPC   C4B 1813   5.236   6.336   7.303  0.2320 -0.1302 -0.1934
  106POPC   NC3 1814   3.641   4.932   9.335 -0.1109  0.0724  0.0146
  106POPC   PO4 1815   3.979   5.097   9.085  0.2061 -0.0152  0.1847
  106POPC   GL1 1816   3.917   4.806   8.796 -0.3828 -0.0364 -0.2194
  106POPC   GL2 1817   3.918   4.445   8.838  0.1705 -0.0896  0.2610
  106POPC   C1A 1818   3.892   4.725   8.312  0.4401  0.0279  0.0136
  106POPC   D2A 1819   4.169   4.980   8.008 -0.0947  0.0304 -0.2278
  106POPC   C3A 1820   4.596   5.135   8.141  0.3329  0.1665  0.1119
  106POPC   C4A 1821   4.999   4.950   7.959  0.0697  0.1406 -0.0987
  106POPC   C1B 1822   3.584   4.427   8.564  0.2385 -0.1151  0.3708
  106POPC   C2B 1823   3.294   4.372   8.258  0.0511  0.1589  0.1848
  106POPC   C3B 1824   3.106   4.265   7.826 -0.0948  0.2163 -0.2556
  106POPC   C4B 1825   3.387   4.148   7.602 -0.3411 -0.3097  0.0229
  107POPC   NC3 1826   2.670   2.392   9.420 -0.1150 -0.0062  0.0741
  107POPC   PO4 1827   2.333   2.616   9.373  0.4469  0.1563  0.1940
  107POPC   GL1 1828   2.512   2.643   8.998  0.0625  0.5282 -0.0608
  107POPC   GL2 1829   2.363   2.363   8.715  0.3298 -0.1927 -0.1696
  107POPC   C1A 1830   2.589   2.854   8.589  0.2744 -0.0731  0.0675
  107POPC   D2A 1831   2.745   3.067   8.162  0.0108  0.3027  0.1046
  107POPC   C3A 1832   2.487   3.032   7.688  0.0049  0.2530 -0.1098
  107POPC   C4A 1833   2.377   2.955   7.274 -0.0265 -0.0503 -0.1075
  107POPC   C1B 1834   2.585   2.452   8.268  0.2880  0.2888 -0.0531
  107POPC   C2B 1835   2.932   2.486   7.938  0.1929 -0.1079 -0.1259
  107POPC   C3B 1836   2.990   2.826   7.763  0.1056  0.2830 -0.0253
  107POPC   C4B 1837   2.948   2.863   7.407  0.0530 -0.0519 -0.0454
  108POPC   NC3 1838   8.989   1.555   9.291 -0.1733  0.2126  0.1280
  108POPC   PO4 1839   9.015   1.906   9.417  0.0470 -0.0480 -0.1186
  108POPC   GL1 1840   9.187   1.917   9.042 -0.0116  0.2654 -0.1285
  108POPC   GL2 1841   9.198   2.146   8.878 -0.0312 -0.1362 -0.2210
  108POPC   C1A 1842   9.207   1.635   8.633  0.1830 -0.0785  0.0871
  108POPC   D2A 1843   8.967   1.618   8.232  0.0290  0.1504  0.1540
  108POPC   C3A 1844   8.827   1.881   7.875  0.1106  0.1089 -0.0334
  108POPC   C4A 1845   8.534   1.960   7.612  0.1982 -0.1455 -0.2554
  108POPC   C1B 1846   8.818   1.915   8.658 -0.2028  0.0201 -0.0292
  108POPC   C2B 1847   8.640   2.205   8.274  0.1713 -0.3997  0.0545
  108POPC   C3B 1848   8.811   2.421   7.898 -0.0851  0.2464 -0.1174
  108POPC   C4B 1849   9.127   2.607   7.740 -0.3161 -0.0789  0.1311
  109POPC   NC3 1850  10.057   1.919   8.877  0.0404  0.3072  0.0992
  109POPC   PO4 1851  10.432   2.098   8.732  0.1681 -0.2152 -0.0440
  109POPC   GL1 1852   9.956   2.320   8.577 -0.0195  0.2112 -0.2972
  109POPC   GL2 1853  10.069   2.578   8.386 -0.3118  0.0523 -0.2286
  109POPC   C1A 1854   9.852   2.122   8.192 -0.1141 -0.1385  0.0338
  109POPC   D2A 1855   9.371   1.873   7.982 -0.2997 -0.1938 -0.1814
  109POPC   C3A 1856   9.241   2.133   7.556  0.2419  0.2342 -0.2526
  109POPC   C4A 1857   9.098   2.565   7.259 -0.0848  0.1272  0.1823
  109POPC   C1B 1858  10.442   2.440   8.073 -0.2218 -0.1100 -0.1268
  109POPC   C2B 1859  10.911   2.286   7.767  0.2046  0.2194 -0.0466
  109POPC   C3B 1860  11.024   1.956   7.434  0.0761  0.0708  0.0602
  109POPC   C4B 1861  11.104   2.125   7.036 -0.1358  0.2624 -0.3241
  110POPC   NC3 1862   1.237   9.477   8.510  0.0740 -0.2601 -0.1720
  110POPC   PO4 1863   1.591   9.568   8.382 -0.1827 -0.1677 -0.0494
  110POPC   GL1 1864   1.481   9.625   8.054 -0.0754 -0.1152  0.0104
  110POPC   GL2 1865   1.681   9.453   7.895 -0.0938  0.3706  0.0726
  110POPC   C1A 1866   1.194   9.727   7.735  0.2573 -0.2393  0.0750
  110POPC   D2A 1867   0.939  10.044   7.680 -0.2839 -0.1185  0.2025
  110POPC   C3A 1868   0.913  10.462   7.590  0.1235 -0.1369  0.2894
  110POPC   C4A 1869   0.571  10.660   7.276  0.1493 -0.1106 -0.1562
  110POPC   C1B 1870   1.892   9.474   7.547 -0.1286  0.2574 -0.3048
  110POPC   C2B 1871   2.251   9.571   7.321  0.0218 -0.1058  0.2659
  110POPC   C3B 1872   2.546   9.823   7.107  0.1549 -0.1035 -0.0315
  110POPC   C4B 1873   2.948  10.085   7.055 -0.1683 -0.1227  0.2345
  111POPC   NC3 1874   8.424   9.408   9.187 -0.1063 -0.1847 -0.3299
  111POPC   PO4 1875   8.835   9.651   8.958 -0.0026  0.2344 -0.0234
  111POPC   GL1 1876   8.767   9.669   8.539  0.1407 -0.2464 -0.0135
  111POPC   GL2 1877   8.872   9.936   8.541  0.2274 -0.0454  0.2175
  111POPC   C1A 1878   8.569   9.538   8.142  0.0390  0.2620  0.0165
  111POPC   D2A 1879   8.301   9.467   7.799 -0.3114 -0.1230 -0.1494
  111POPC   C3A 1880   8.445   9.530   7.418  0.0392  0.0311  0.4495
  111POPC   C4A 1881   8.313   9.888   7.093 -0.0630 -0.3924 -0.2313
  111POPC   C1B 1882   8.947   9.990   8.036 -0.4061 -0.2749  0.2579
  111POPC   C2B 1883   8.980  10.306   7.721 -0.1821 -0.0320  0.0247
  111POPC   C3B 1884   9.008  10.448   7.296  0.0936 -0.0022  0.2125
  111POPC   C4B 1885   9.002  10.493   6.928 -0.0192  0.0306  0.2020
  112POPC   NC3 1886   5.927   4.320  10.174  0.0027  0.1924  0.2228
  112POPC   PO4 1887   5.672   3.941  10.113 -0.0586 -0.0634 -0.0010
  112POPC   GL1 1888   5.673   3.590   9.780 -0.0580  0.1152 -0.0391
  112POPC   GL2 1889   5.912   3.467   9.753 -0.4005  0.0206  0.2778
  112POPC   C1A 1890   5.660   3.516   9.316 -0.1398 -0.1121 -0.0759
  112POPC   D2A 1891   5.923   3.460   8.965 -0.0138  0.0842 -0.0549
  112POPC   C3A 1892   5.916   3.719   8.494  0.3223 -0.2872 -0.0002
  112POPC   C4A 1893   5.912   3.981   8.164  0.1398 -0.2728 -0.1228
  112POPC   C1B 1894   6.240   3.619   9.382 -0.0922 -0.0751  0.3246
  112POPC   C2B 1895   6.243   3.925   9.152  0.3544 -0.0264  0.1648
  112POPC   C3B 1896   6.123   4.152   8.796 -0.0540 -0.1051  0.1990
  112POPC   C4B 1897   5.712   4.224   8.542 -0.5850  0.1992 -0.2701
  113POPC   NC3 1898   8.495   3.747   9.619  0.0299 -0.0707  0.2307
  113POPC   PO4 1899   8.700   3.758   9.296  0.1467 -0.1275 -0.4919
  113POPC   GL1 1900   8.492   3.793   8.888 -0.0411 -0.1110 -0.2044
  113POPC   GL2 1901   8.530   4.123   8.794 -0.0870 -0.2600  0.4348
  113POPC   C1A 1902   8.272   3.417   8.644  0.0945 -0.0835  0.1615
  113POPC   D2A 1903   8.284   2.932   8.568  0.1556 -0.0162 -0.0346
  113POPC   C3A 1904   8.047   2.710   8.184 -0.2206 -0.2653 -0.3341
  113POPC   C4A 1905   8.222   2.387   7.863  0.1510 -0.2158  0.0060
  113POPC   C1B 1906   8.247   4.622   8.675  0.0902 -0.2004 -0.1297
  113POPC   C2B 1907   7.899   4.645   8.306 -0.0171 -0.0760  0.0560
  113POPC   C3B 1908   7.575   4.496   8.071 -0.1424  0.2945 -0.2996
  113POPC   C4B 1909   7.177   4.437   7.799  0.5136 -0.0775  0.2045
  114POPC   NC3 1910   1.790   8.315   8.532 -0.2778  0.0565 -0.1083
  114POPC   PO4 1911   1.950   7.947   8.356  0.1027 -0.3114 -0.1092
  114POPC   GL1 1912   1.895   7.956   7.945  0.2986 -0.1105  0.0418
  114POPC   GL2 1913   2.037   8.306   8.003 -0.1090  0.2149 -0.1216
  114POPC   C1A 1914   1.549   7.796   7.655 -0.2814 -0.1769  0.4333
  114POPC   D2A 1915   1.623   8.110   7.329 -0.3038 -0.0318 -0.2087
  114POPC   C3A 1916   1.956   8.300   7.150 -0.1634 -0.3805 -0.0530
  114POPC   C4A 1917   2.284   8.511   7.189 -0.1240 -0.1117  0.0904
  114POPC   C1B 1918   2.233   8.187   7.636 -0.0848  0.0400  0.0121
  114POPC   C2B 1919   2.551   8.077   7.403  0.0516 -0.1228  0.1975
  114POPC   C3B 1920   2.854   8.287   7.308 -0.3640  0.0007  0.3204
  114POPC   C4B 1921   3.138   7.964   7.110  0.5614  0.1826 -0.2879
  115POPC   NC3 1922   4.702   0.321  10.353  0.0356 -0.2336 -0.4275
  115POPC   PO4 1923   4.498   0.529  10.086 -0.0675  0.2045  0.2170
  115POPC   GL1 1924   4.525   0.714   9.719  0.1711  0.1381  0.1001
  115POPC   GL2 1925   4.511   0.453   9.525  0.3409 -0.0496 -0.2408
  115POPC   C1A 1926   4.633   1.027   9.503 -0.0406 -0.0051  0.2137
  115POPC   D2A 1927   4.780   0.962   9.075 -0.0666  0.2732  0.2501
  115POPC   C3A 1928   5.088   1.161   8.786  0.2389  0.1132  0.3728
  115POPC   C4A 1929   5.527   1.276   8.824 -0.2881  0.0614 -0.0218
  115POPC   C1B 1930   4.852   0.492   9.247  0.0929 -0.3492  0.2046
  115POPC   C2B 1931   4.943   0.335   8.798  0.1142 -0.0067 -0.2491
  115POPC   C3B 1932   5.229   0.245   8.396 -0.1190  0.0352  0.0560
  115POPC   C4B 1933   5.431   0.224   7.978 -0.0943  0.0745  0.1096
  116POPC   NC3 1934   9.400   2.538   9.233  0.2034 -0.0130 -0.1600
  116POPC   PO4 1935   9.309   2.971   9.197 -0.3201 -0.0872 -0.2256
  116POPC   GL1 1936   9.072   2.671   8.806  0.2193  0.0980 -0.0820
  116POPC   GL2 1937   9.308   2.626   8.699 -0.2395  0.2194  0.1713
  116POPC   C1A 1938   8.700   2.517   8.707 -0.2108  0.0228  0.0971
  116POPC   D2A 1939   8.294   2.374   8.626 -0.0783 -0.2002  0.0701
  116POPC   C3A 1940   7.984   2.056   8.506  0.3054 -0.1080  0.0466
  116POPC   C4A 1941   7.507   2.022   8.562 -0.0170 -0.0548  0.0397
  116POPC   C1B 1942   9.532   2.614   8.274  0.0309 -0.4823  0.2815
  116POPC   C2B 1943   9.650   2.437   7.884 -0.2416  0.0907  0.0750
  116POPC   C3B 1944   9.605   2.504   7.447 -0.1424  0.5306 -0.1171
  116POPC   C4B 1945   9.511   2.362   7.144 -0.2954  0.2019 -0.0124
  117POPC   NC3 1946   9.749   3.186   8.612 -0.4020  0.0729  0.0184
  117POPC   PO4 1947  10.077   3.525   8.485 -0.4002  0.1427  0.0499
  117POPC   GL1 1948  10.144   3.502   8.081  0.2317 -0.1485 -0.2069
  117POPC   GL2 1949  10.192   3.784   7.972 -0.3604 -0.2541  0.2585
  117POPC   C1A 1950  10.110   3.360   7.625 -0.1152 -0.1426  0.1251
  117POPC   D2A 1951  10.261   3.065   7.480 -0.1608  0.0423  0.1094
  117POPC   C3A 1952  10.244   2.681   7.632 -0.0840 -0.1354 -0.2551
  117POPC   C4A 1953  10.089   2.346   7.738 -0.1299 -0.2425  0.0205
  117POPC   C1B 1954   9.917   3.857   7.645  0.1850  0.0802 -0.6406
  117POPC   C2B 1955   9.927   3.783   7.332 -0.0699  0.0011 -0.7462
  117POPC   C3B 1956   9.880   3.450   7.070  0.4027  0.1164 -0.0687
  117POPC   C4B 1957   9.914   3.050   7.056 -0.0369 -0.0585  0.1100
  118POPC   NC3 1958   1.921   7.476   8.569 -0.1396 -0.1400  0.2350
  118POPC   PO4 1959   1.787   7.442   8.928 -0.1611 -0.1392  0.0749
  118POPC   GL1 1960   1.682   7.032   8.646  0.1860  0.1125 -0.0154
  118POPC   GL2 1961   1.838   6.719   8.737  0.1744  0.0444 -0.0227
  118POPC   C1A 1962   1.566   7.050   8.206  0.0851  0.0849 -0.3514
  118POPC   D2A 1963   1.384   7.266   7.759  0.0060  0.2303  0.0325
  118POPC   C3A 1964   1.101   7.578   7.819  0.3125  0.2953 -0.3184
  118POPC   C4A 1965   0.626   7.500   7.811 -0.1239  0.1823 -0.2130
  118POPC   C1B 1966   1.922   6.685   8.370  0.1555 -0.1059  0.0444
  118POPC   C2B 1967   1.812   6.645   7.967 -0.2878  0.1765  0.2286
  118POPC   C3B 1968   1.577   6.799   7.682 -0.0630  0.1093 -0.1083
  118POPC   C4B 1969   1.102   6.841   7.519  0.0638  0.0583  0.0488
  119POPC   NC3 1970   5.553   1.406  11.258 -0.0677  0.0539 -0.0936
  119POPC   PO4 1971   5.752   1.138  10.889 -0.1597 -0.3277 -0.1716
  119POPC   GL1 1972   5.843   1.074  10.457 -0.3839 -0.1279 -0.1462
  119POPC   GL2 1973   5.683   1.209  10.219 -0.1304  0.0149  0.0223
  119POPC   C1A 1974   5.921   0.853  10.038 -0.3223  0.3544  0.0118
  119POPC   D2A 1975   6.071   1.111   9.761 -0.0744 -0.6335 -0.1715
  119POPC   C3A 1976   6.362   1.391   9.973  0.0500 -0.2172  0.1479
  119POPC   C4A 1977   6.718   1.598   9.779 -0.0796  0.0854 -0.3573
  119POPC   C1B 1978   5.342   0.965   9.918 -0.0066  0.1865 -0.0416
  119POPC   C2B 1979   5.163   0.626   9.642  0.0784 -0.0098  0.0967
  119POPC   C3B 1980   5.346   0.346   9.372  0.0212  0.0111 -0.1025
  119POPC   C4B 1981   5.453   0.296   8.900 -0.3382 -0.0261 -0.0032
  120POPC   NC3 1982   9.717   1.060   9.166  0.0256 -0.0423 -0.2073
  120POPC   PO4 1983  10.029   0.833   8.927 -0.1564 -0.4277 -0.2185
  120POPC   GL1 1984   9.637   0.823   8.568  0.4091  0.2436  0.2091
  120POPC   GL2 1985   9.795   0.910   8.251  0.1883  0.1231  0.0378
  120POPC   C1A 1986   9.389   0.633   8.367  0.4153  0.2180  0.2719
  120POPC   D2A 1987   9.343   0.459   7.931 -0.0763 -0.4245 -0.1065
  120POPC   C3A 1988   9.160   0.712   7.547  0.3640  0.0879 -0.0268
  120POPC   C4A 1989   9.290   1.184   7.435 -0.0382 -0.0093  0.0452
  120POPC   C1B 1990   9.454   0.951   7.955 -0.2738 -0.2704  0.1508
  120POPC   C2B 1991   9.633   0.792   7.484 -0.0833  0.1593  0.0424
  120POPC   C3B 1992   9.878   0.675   7.022 -0.0270  0.2889 -0.0453
  120POPC   C4B 1993  10.023   0.800   6.687 -0.2432 -0.1798 -0.1726
  121POPC   NC3 1994   9.747   9.515   9.603  0.0845  0.0425 -0.1663
  121POPC   PO4 1995   9.613   9.768   9.170  0.4309 -0.4577  0.1608
  121POPC   GL1 1996   9.791   9.722   8.776 -0.1798  0.0663  0.1995
  121POPC   GL2 1997   9.996   9.851   8.736  0.0789  0.1878 -0.0666
  121POPC   C1A 1998   9.813   9.764   8.228  0.3037 -0.1175  0.0844
  121POPC   D2A 1999  10.142  10.145   8.014 -0.0447 -0.0227 -0.0149
  121POPC   C3A 2000  10.234  10.119   7.569  0.1078 -0.0419  0.1999
  121POPC   C4A 2001  10.212  10.518   7.362  0.3478 -0.0974 -0.2437
  121POPC   C1B 2002   9.904  10.187   8.444  0.2739  0.3357 -0.2051
  121POPC   C2B 2003   9.797  10.587   8.135  0.3185 -0.2545 -0.5454
  121POPC   C3B 2004   9.999  10.765   7.778 -0.2348  0.0851 -0.0294
  121POPC   C4B 2005  10.249  10.994   7.485 -0.0858 -0.0187 -0.2323
  122POPC   NC3 2006   9.661   3.641   8.773  0.1811  0.0929  0.1629
  122POPC   PO4 2007   9.368   3.681   8.512 -0.0572  0.0774 -0.0150
  122POPC   GL1 2008   9.470   3.362   8.225  0.1981  0.0355  0.0945
  122POPC   GL2 2009   9.627   3.444   7.885 -0.1890  0.1775  0.1904
  122POPC   C1A 2010   9.104   2.975   8.022  0.1743 -0.2003  0.1246
  122POPC   D2A 2011   8.721   2.870   7.720 -0.0268  0.0292  0.1954
  122POPC   C3A 2012   8.299   2.830   7.716 -0.0251  0.2862 -0.1775
  122POPC   C4A 2013   7.913   2.659   7.654 -0.0125  0.1521 -0.2682
  122POPC   C1B 2014   9.542   3.470   7.460  0.4797 -0.1478 -0.1677
  122POPC   C2B 2015   9.349   3.455   6.980 -0.0813  0.2753 -0.0992
  122POPC   C3B 2016   9.210   3.717   6.626 -0.0678 -0.2324  0.0937
  122POPC   C4B 2017   9.016   3.904   6.337  0.2176  0.1674 -0.0894
  123POPC   NC3 2018   7.312  10.036   9.652 -0.1336 -0.0223 -0.3917
  123POPC   PO4 2019   7.594   9.863   9.390  0.0312  0.2967 -0.0115
  123POPC   GL1 2020   7.473   9.563   9.133 -0.0313 -0.2301  0.1567
  123POPC   GL2 2021   7.405   9.180   8.940 -0.1805 -0.0620  0.0156
  123POPC   C1A 2022   7.564   9.620   8.726  0.1404  0.0522  0.2241
  123POPC   D2A 2023   7.302   9.618   8.288  0.0592 -0.0046  0.2133
  123POPC   C3A 2024   7.127   9.998   8.103  0.0401  0.2972 -0.1066
  123POPC   C4A 2025   7.026  10.369   8.291 -0.0009  0.1086 -0.0996
  123POPC   C1B 2026   7.327   9.135   8.495  0.4662 -0.1457 -0.3780
  123POPC   C2B 2027   7.423   9.133   8.031  0.1167  0.3716  0.0160
  123POPC   C3B 2028   7.077   9.293   7.789 -0.2419 -0.0534  0.1286
  123POPC   C4B 2029   6.817   9.066   7.549  0.0271 -0.0184 -0.1069
  124POPC   NC3 2030   3.035   0.361   9.319 -0.1359 -0.2497 -0.3286
  124POPC   PO4 2031   3.162   0.032   9.345 -0.0416 -0.0227 -0.3679
  124POPC   GL1 2032   3.244   0.015   8.902 -0.0400  0.0195  0.0532
  124POPC   GL2 2033   3.241   0.409   8.795  0.1097  0.1832 -0.1898
  124POPC   C1A 2034   3.308   0.140   8.450  0.2315  0.2370 -0.0130
  124POPC   D2A 2035   3.423   0.051   7.966  0.0568  0.0494 -0.2601
  124POPC   C3A 2036   3.407   0.322   7.670 -0.0434  0.1531  0.1312
  124POPC   C4A 2037   3.191   0.336   7.262  0.0509  0.0162  0.1951
  124POPC   C1B 2038   3.243   0.701   8.560 -0.3003 -0.3035 -0.0536
  124POPC   C2B 2039   2.989   0.923   8.287 -0.3481 -0.1202  0.1669
  124POPC   C3B 2040   2.707   1.300   8.425  0.2584  0.1103 -0.0578
  124POPC   C4B 2041   2.502   1.517   8.061  0.1343 -0.0278  0.0588
  125POPC   NC3 2042   3.192   7.238   8.792 -0.1448 -0.2015 -0.3865
  125POPC   PO4 2043   2.699   7.301   8.814  0.3312  0.0972  0.1130
  125POPC   GL1 2044   2.523   7.210   8.406 -0.1486 -0.3484  0.4777
  125POPC   GL2 2045   2.290   7.003   8.396 -0.4224 -0.0949 -0.4446
  125POPC   C1A 2046   2.636   7.042   8.045  0.1521 -0.1263 -0.2244
  125POPC   D2A 2047   2.502   7.132   7.699  0.1220 -0.1070  0.0391
  125POPC   C3A 2048   2.330   7.356   7.345  0.0430 -0.0001 -0.0149
  125POPC   C4A 2049   2.020   7.145   7.043  0.1407  0.1028 -0.1639
  125POPC   C1B 2050   2.082   7.126   8.007 -0.1827 -0.0276 -0.3080
  125POPC   C2B 2051   1.898   7.240   7.628 -0.1457  0.0829  0.3047
  125POPC   C3B 2052   1.582   7.102   7.274  0.1848  0.1348  0.2307
  125POPC   C4B 2053   1.309   6.827   7.077 -0.0597 -0.2224 -0.0919
  126POPC   NC3 2054   1.865   4.305   8.667  0.2649  0.2169 -0.1260
  126POPC   PO4 2055   1.630   3.924   8.703  0.5465  0.1953 -0.0331
  126POPC   GL1 2056   1.762   3.949   8.313  0.3133 -0.0312 -0.0471
  126POPC   GL2 2057   1.542   3.816   8.095 -0.0516 -0.3453 -0.2022
  126POPC   C1A 2058   1.788   4.240   7.964 -0.2176  0.2230 -0.1593
  126POPC   D2A 2059   1.947   4.277   7.537 -0.0535  0.2571  0.1082
  126POPC   C3A 2060   2.273   4.510   7.375 -0.1931  0.0365  0.2271
  126POPC   C4A 2061   2.365   4.868   7.110  0.2966 -0.0081 -0.0087
  126POPC   C1B 2062   1.861   3.745   7.720  0.2995 -0.4742  0.0787
  126POPC   C2B 2063   1.989   3.736   7.290  0.0275  0.2262 -0.1075
  126POPC   C3B 2064   1.964   3.766   6.787  0.0633 -0.1014  0.0352
  126POPC   C4B 2065   1.973   3.411   6.558 -0.0901 -0.0642  0.0817
  127POPC   NC3 2066   8.548   7.177   9.554 -0.2445 -0.0198  0.0518
  127POPC   PO4 2067   8.533   7.114   9.125  0.1260 -0.1251  0.2714
  127POPC   GL1 2068   8.569   7.161   8.696  0.2228 -0.1627 -0.0392
  127POPC   GL2 2069   8.599   7.002   8.455  0.1267 -0.0883  0.2582
  127POPC   C1A 2070   8.517   7.544   8.412  0.1531  0.1094 -0.0914
  127POPC   D2A 2071   8.340   7.679   8.151  0.1445  0.3402  0.1592
  127POPC   C3A 2072   8.228   7.506   7.748 -0.2384  0.0013  0.2576
  127POPC   C4A 2073   8.122   7.211   7.369  0.1594  0.0012  0.2336
  127POPC   C1B 2074   8.651   6.526   8.636  0.3788 -0.3991  0.2473
  127POPC   C2B 2075   8.307   6.178   8.435  0.0349 -0.3167  0.1123
  127POPC   C3B 2076   8.158   5.918   8.062  0.1257  0.1150 -0.0749
  127POPC   C4B 2077   8.129   5.561   7.879 -0.1594  0.1211  0.0946
  128POPC   NC3 2078   9.099   6.501   9.145  0.1054  0.1943  0.0484
  128POPC   PO4 2079   9.081   6.293   9.551 -0.0463 -0.2480 -0.0862
  128POPC   GL1 2080   8.734   6.170   9.173 -0.2329  0.1818  0.0993
  128POPC   GL2 2081   9.002   6.052   8.851 -0.1627  0.0379  0.3865
  128POPC   C1A 2082   8.332   6.196   8.951  0.0176 -0.3573 -0.2377
  128POPC   D2A 2083   7.935   6.428   8.721  0.1446  0.2126  0.1026
  128POPC   C3A 2084   8.148   6.712   8.392  0.0087 -0.3160  0.1521
  128POPC   C4A 2085   8.361   6.626   8.068  0.0704  0.0650  0.0946
  128POPC   C1B 2086   9.133   5.867   8.391 -0.0239  0.0380 -0.2092
  128POPC   C2B 2087   9.121   5.615   8.047 -0.2371 -0.0920  0.0642
  128POPC   C3B 2088   9.092   5.490   7.554 -0.0838 -0.0236  0.1462
  128POPC   C4B 2089   8.791   5.549   7.214  0.1574 -0.0315 -0.2032
  129POPC   NC3 2090   3.714   2.041   9.869 -0.1260  0.1338  0.0185
  129POPC   PO4 2091   3.749   1.765  10.330  0.0683  0.0111  0.0640
  129POPC   GL1 2092   4.165   1.753  10.176  0.1074  0.0613 -0.1346
  129POPC   GL2 2093   4.240   1.995   9.834 -0.0051  0.0374  0.1000
  129POPC   C1A 2094   4.421   1.497   9.847  0.3937  0.0842 -0.0166
  129POPC   D2A 2095   4.732   1.551   9.494  0.1512 -0.1118 -0.1171
  129POPC   C3A 2096   4.594   1.428   9.138 -0.3135  0.2336 -0.1625
  129POPC   C4A 2097   4.703   1.539   8.815  0.2417  0.0595  0.1057
  129POPC   C1B 2098   4.217   1.779   9.452 -0.2017  0.1745 -0.0978
  129POPC   C2B 2099   4.131   1.528   8.940 -0.0144  0.0433 -0.0383
  129POPC   C3B 2100   4.216   1.114   8.781  0.0001  0.1725 -0.3014
  129POPC   C4B 2101   4.153   0.839   9.134  0.1449  0.0120  0.1433
  130POPC   NC3 2102   6.100   8.127   9.234 -0.0183  0.5018 -0.1230
  130POPC   PO4 2103   6.187   7.714   9.331 -0.0380  0.0955 -0.0553
  130POPC   GL1 2104   6.136   7.668   8.908 -0.1038 -0.3351 -0.1139
  130POPC   GL2 2105   5.931   7.439   8.993  0.0485  0.2453 -0.0202
  130POPC   C1A 2106   6.232   7.739   8.474 -0.0337  0.0518 -0.1792
  130POPC   D2A 2107   6.436   7.669   8.120 -0.1775 -0.0591 -0.1140
  130POPC   C3A 2108   6.784   7.853   7.933 -0.0814  0.1331  0.2496
  130POPC   C4A 2109   6.962   8.018   7.631  0.3879  0.1206 -0.3565
  130POPC   C1B 2110   5.901   7.308   8.501 -0.0795 -0.1300  0.1928
  130POPC   C2B 2111   5.920   7.485   8.136  0.1110  0.2245 -0.3142
  130POPC   C3B 2112   6.199   7.635   7.717  0.0398  0.2709 -0.0663
  130POPC   C4B 2113   6.286   7.392   7.382  0.5092 -0.0071 -0.0167
  131POPC   NC3 2114   0.999   5.376   8.652 -0.1680 -0.0870  0.0671
  131POPC   PO4 2115   1.409   5.076   8.657 -0.1059  0.0728 -0.2828
  131POPC   GL1 2116   1.575   5.315   8.342 -0.0896 -0.2307 -0.3879
  131POPC   GL2 2117   1.365   5.543   8.360 -0.0312 -0.1155  0.1018
  131POPC   C1A 2118   1.640   5.280   7.897 -0.0825  0.1637 -0.2928
  131POPC   D2A 2119   1.751   5.271   7.438 -0.1742  0.1183  0.2051
  131POPC   C3A 2120   2.072   5.379   7.243 -0.1261  0.0344  0.0054
  131POPC   C4A 2121   2.227   5.322   6.917 -0.0608  0.0619 -0.3104
  131POPC   C1B 2122   1.170   5.733   8.055 -0.0697  0.2438  0.0847
  131POPC   C2B 2123   0.972   6.075   7.904 -0.1651  0.0186 -0.0131
  131POPC   C3B 2124   0.981   6.260   7.687 -0.0595  0.1092  0.3215
  131POPC   C4B 2125   1.326   6.404   7.307  0.0480 -0.0317 -0.3526
  132POPC   NC3 2126   6.894   1.840  10.460 -0.2686  0.1867  0.1015
  132POPC   PO4 2127   7.201   1.613  10.433 -0.3481 -0.1352 -0.0118
  132POPC   GL1 2128   7.113   1.740   9.991 -0.0231  0.0585  0.0820
  132POPC   GL2 2129   7.033   2.065   9.848  0.1951  0.1570 -0.0477
  132POPC   C1A 2130   7.166   1.802   9.499 -0.4298  0.2638  0.2660
  132POPC   D2A 2131   7.240   1.881   9.058  0.1252  0.2620 -0.1399
  132POPC   C3A 2132   7.234   1.571   8.738 -0.0801 -0.1404 -0.0231
  132POPC   C4A 2133   7.221   1.143   8.626 -0.0362  0.1153  0.1937
  132POPC   C1B 2134   6.718   2.092   9.602 -0.2689 -0.0366  0.2403
  132POPC   C2B 2135   6.530   1.830   9.377  0.0054 -0.2054 -0.1297
  132POPC   C3B 2136   6.137   1.617   9.566  0.0952 -0.0785 -0.1347
  132POPC   C4B 2137   5.901   1.724   9.883 -0.0712 -0.2243  0.1696
  133POPC   NC3 2138   1.713   0.663   8.910 -0.1208  0.0730 -0.3566
  133POPC   PO4 2139   2.030   0.853   8.697  0.2478 -0.0274  0.0272
  133POPC   GL1 2140   2.239   0.914   8.431 -0.5130  0.0034  0.0749
  133POPC   GL2 2141   2.176   0.539   8.263 -0.1542 -0.0883 -0.0303
  133POPC   C1A 2142   2.182   1.006   8.082  0.1684  0.1879  0.1534
  133POPC   D2A 2143   2.024   1.424   7.799 -0.0916  0.4215 -0.0711
  133POPC   C3A 2144   1.914   1.535   7.346  0.0289  0.0350  0.2075
  133POPC   C4A 2145   2.207   1.494   6.934 -0.1203  0.0333 -0.1520
  133POPC   C1B 2146   1.847   0.373   7.981  0.1014  0.2138  0.0354
  133POPC   C2B 2147   1.855  -0.073   7.778 -0.0892  0.1575  0.0232
  133POPC   C3B 2148   1.607  -0.241   7.455 -0.0626  0.2308  0.1441
  133POPC   C4B 2149   1.821  -0.379   7.109 -0.1075  0.0381 -0.0640
  134POPC   NC3 2150   2.382   0.763   9.643 -0.2813  0.1181 -0.3306
  134POPC   PO4 2151   2.730   0.836   9.301  0.1382  0.1991  0.1039
  134POPC   GL1 2152   2.750   1.133   8.882  0.1775  0.2186 -0.2085
  134POPC   GL2 2153   2.686   1.420   8.960 -0.0200  0.0464  0.1592
  134POPC   C1A 2154   3.118   1.242   8.674 -0.0911 -0.0140  0.0536
  134POPC   D2A 2155   3.416   1.165   8.324  0.0419 -0.2337  0.2277
  134POPC   C3A 2156   3.570   0.674   8.108  0.1283 -0.0648  0.1401
  134POPC   C4A 2157   3.852   0.630   7.751  0.1612 -0.1786  0.2361
  134POPC   C1B 2158   2.875   1.735   8.623 -0.0623  0.2324 -0.1500
  134POPC   C2B 2159   2.971   1.680   8.248 -0.5218 -0.7617  0.0305
  134POPC   C3B 2160   3.045   1.340   8.014  0.1845  0.2613  0.0359
  134POPC   C4B 2161   3.259   0.947   7.837  0.3267 -0.0625 -0.2836
  135POPC   NC3 2162   1.683   9.120   8.546  0.3616 -0.2449  0.0958
  135POPC   PO4 2163   1.502   8.686   8.498  0.1627  0.4402 -0.0883
  135POPC   GL1 2164   1.392   8.493   8.244  0.4011  0.1546 -0.0050
  135POPC   GL2 2165   1.390   8.097   8.111  0.2062  0.2259 -0.0046
  135POPC   C1A 2166   1.160   8.672   7.816 -0.0036 -0.1044  0.0491
  135POPC   D2A 2167   0.943   8.530   7.443  0.2113  0.3200 -0.3252
  135POPC   C3A 2168   1.042   8.304   7.119  0.3413  0.1973  0.2753
  135POPC   C4A 2169   1.184   8.096   6.776  0.0276  0.1927  0.0857
  135POPC   C1B 2170   1.138   8.042   7.775 -0.1623 -0.0667  0.3717
  135POPC   C2B 2171   0.978   7.861   7.402 -0.1425  0.2651  0.1444
  135POPC   C3B 2172   0.762   7.575   7.254 -0.0655 -0.2727  0.2237
  135POPC   C4B 2173   0.511   7.519   7.055  0.3266 -0.0509  0.1406
  136POPC   NC3 2174   3.029   5.341   9.696  0.0687  0.2881 -0.0537
  136POPC   PO4 2175   3.168   5.006   9.272 -0.0575 -0.0648 -0.1045
  136POPC   GL1 2176   3.455   5.173   8.913  0.1432 -0.0732  0.0194
  136POPC   GL2 2177   3.380   5.540   8.660 -0.0934 -0.2797  0.3678
  136POPC   C1A 2178   3.659   5.147   8.461 -0.2249 -0.0301 -0.4722
  136POPC   D2A 2179   3.616   5.341   8.087 -0.1176 -0.5207 -0.2877
  136POPC   C3A 2180   3.694   5.273   7.678  0.1627  0.3766  0.2121
  136POPC   C4A 2181   3.440   5.303   7.334 -0.2302 -0.1056  0.1208
  136POPC   C1B 2182   3.677   5.843   8.466 -0.1237 -0.2063 -0.0213
  136POPC   C2B 2183   3.874   5.845   8.032  0.0836 -0.1339  0.0443
  136POPC   C3B 2184   4.023   5.812   7.595  0.3715 -0.0799  0.1849
  136POPC   C4B 2185   3.783   5.673   7.255  0.2203  0.0109 -0.3119
  137POPC   NC3 2186   1.503   7.994   9.080 -0.0111  0.1993 -0.1835
  137POPC   PO4 2187   1.405   8.211   8.781  0.0843  0.1203 -0.2031
  137POPC   GL1 2188   1.086   8.157   8.573 -0.1227  0.1750  0.0108
  137POPC   GL2 2189   0.809   8.050   8.471 -0.0278  0.0241  0.0700
  137POPC   C1A 2190   0.943   8.360   8.139 -0.0188 -0.0509  0.1595
  137POPC   D2A 2191   0.617   8.635   7.885  0.0828  0.1238 -0.1549
  137POPC   C3A 2192   0.785   8.944   7.649 -0.0460 -0.2005  0.0214
  137POPC   C4A 2193   1.173   9.012   7.408  0.1550 -0.1187  0.1487
  137POPC   C1B 2194   0.716   7.937   8.059 -0.1173 -0.2312  0.4661
  137POPC   C2B 2195   0.665   8.171   7.687  0.0224 -0.1373  0.2531
  137POPC   C3B 2196   0.538   8.204   7.339  0.1044  0.2952  0.1336
  137POPC   C4B 2197   0.350   7.885   7.362  0.0483  0.1449  0.0142
  138POPC   NC3 2198   6.769   6.189   9.099 -0.3812  0.0361  0.1674
  138POPC   PO4 2199   6.569   6.731   9.101 -0.0240 -0.0697 -0.1690
  138POPC   GL1 2200   6.651   6.695   8.664 -0.1603 -0.0642  0.2760
  138POPC   GL2 2201   6.387   6.469   8.665 -0.0777 -0.1486  0.2110
  138POPC   C1A 2202   6.462   6.745   8.175  0.0535 -0.1639 -0.1179
  138POPC   D2A 2203   6.220   6.722   7.833  0.2851 -0.0894  0.1145
  138POPC   C3A 2204   5.851   6.537   7.877 -0.0082 -0.0533 -0.0176
  138POPC   C4A 2205   5.439   6.613   7.639 -0.0312 -0.2771  0.2165
  138POPC   C1B 2206   6.517   6.163   8.461  0.0679 -0.4519  0.3005
  138POPC   C2B 2207   6.719   5.824   8.173 -0.0624 -0.0123  0.0677
  138POPC   C3B 2208   6.743   5.606   7.785 -0.0678  0.3343  0.0148
  138POPC   C4B 2209   6.545   5.402   7.483  0.2771 -0.0641 -0.1003
  139POPC   NC3 2210   9.192   5.745   9.743 -0.1763 -0.0534  0.3993
  139POPC   PO4 2211   9.085   5.466   9.384 -0.3441  0.1312  0.1730
  139POPC   GL1 2212   8.766   5.321   9.007 -0.0597 -0.1825 -0.1686
  139POPC   GL2 2213   8.533   5.674   9.095 -0.1778  0.2985  0.4605
  139POPC   C1A 2214   8.471   5.229   8.757  0.0269 -0.0118 -0.0171
  139POPC   D2A 2215   8.357   5.317   8.530  0.3304  0.2293 -0.0035
  139POPC   C3A 2216   8.191   5.609   8.476  0.1683  0.0368  0.0848
  139POPC   C4A 2217   8.012   5.844   8.858 -0.3446  0.2608  0.0402
  139POPC   C1B 2218   8.605   5.832   8.699  0.2000  0.0448 -0.2801
  139POPC   C2B 2219   8.650   5.784   8.265 -0.2423  0.0125 -0.1410
  139POPC   C3B 2220   8.657   5.506   7.850  0.3123  0.2241  0.0714
  139POPC   C4B 2221   8.398   5.446   7.439  0.4032 -0.1127  0.1339
  140POPC   NC3 2222   3.275   9.690   9.118  0.0863  0.1053 -0.0040
  140POPC   PO4 2223   2.914   9.698   8.847  0.3440  0.3469  0.0575
  140POPC   GL1 2224   2.952   9.708   8.360  0.0578 -0.0896 -0.2182
  140POPC   GL2 2225   2.866  10.072   8.309 -0.0617  0.2972 -0.2254
  140POPC   C1A 2226   2.841   9.673   7.862 -0.0904  0.1213 -0.2653
  140POPC   D2A 2227   2.698   9.877   7.544  0.3116  0.2301 -0.2441
  140POPC   C3A 2228   2.747  10.337   7.529 -0.1496  0.1083  0.1898
  140POPC   C4A 2229   2.520  10.771   7.414 -0.1023  0.0209 -0.2112
  140POPC   C1B 2230   2.959  10.128   7.924  0.2686 -0.1475  0.0299
  140POPC   C2B 2231   3.196   9.882   7.596 -0.0493  0.0068  0.2553
  140POPC   C3B 2232   3.406   9.838   7.221 -0.0602 -0.0212 -0.0596
  140POPC   C4B 2233   3.512  10.102   6.876  0.1218  0.2235 -0.4128
  141POPC   NC3 2234   0.211   9.499   8.824  0.0777 -0.0160 -0.1393
  141POPC   PO4 2235  -0.106   9.206   8.785 -0.0667  0.0199  0.1000
  141POPC   GL1 2236   0.020   9.238   8.420 -0.0967  0.0262 -0.0220
  141POPC   GL2 2237   0.200   9.146   8.210 -0.0104 -0.0100  0.0770
  141POPC   C1A 2238  -0.218   9.283   8.001 -0.0312  0.1857 -0.2201
  141POPC   D2A 2239  -0.619   9.444   7.920  0.0540  0.0529 -0.2083
  141POPC   C3A 2240  -0.696   9.737   7.736 -0.1964 -0.1105  0.0100
  141POPC   C4A 2241  -0.770   9.900   7.260  0.0933  0.1530  0.0248
  141POPC   C1B 2242   0.455   9.196   8.004  0.0781 -0.1178  0.1859
  141POPC   C2B 2243   0.391   9.261   7.521  0.0045 -0.1010  0.1934
  141POPC   C3B 2244   0.408   9.320   7.021 -0.0410 -0.0563  0.0570
  141POPC   C4B 2245   0.327   9.365   6.613  0.0804  0.0701  0.1181
  142POPC   NC3 2246   9.887   5.217   9.202  0.2351 -0.3804  0.1842
  142POPC   PO4 2247  10.313   5.433   8.883  0.1433 -0.0628 -0.2865
  142POPC   GL1 2248  10.349   5.446   8.390 -0.0204 -0.0272 -0.1113
  142POPC   GL2 2249  10.386   5.777   8.263  0.0704 -0.1988 -0.0354
  142POPC   C1A 2250  10.478   5.306   7.985 -0.0060 -0.2246 -0.0788
  142POPC   D2A 2251  10.834   5.120   7.824 -0.0031 -0.3145  0.0735
  142POPC   C3A 2252  10.837   4.863   7.454  0.2789  0.1326 -0.1198
  142POPC   C4A 2253  11.106   4.670   7.188  0.1796  0.1375 -0.0467
  142POPC   C1B 2254  10.030   5.831   7.911 -0.0535  0.0756 -0.1838
  142POPC   C2B 2255  10.039   5.861   7.564  0.0313  0.1013  0.1806
  142POPC   C3B 2256  10.402   5.733   7.434  0.0592 -0.1814  0.0464
  142POPC   C4B 2257  10.664   5.345   7.453  0.2566  0.2470 -0.2844
  143POPC   NC3 2258   3.812   6.277   9.545 -0.2254 -0.1491  0.2004
  143POPC   PO4 2259   3.657   6.422   9.244  0.0986 -0.0688  0.0072
  143POPC   GL1 2260   3.423   6.397   8.905 -0.2896 -0.5139 -0.0642
  143POPC   GL2 2261   3.521   6.281   8.705  0.0588 -0.1422 -0.0489
  143POPC   C1A 2262   3.504   6.725   8.471 -0.3257 -0.2591  0.1227
  143POPC   D2A 2263   3.232   6.970   8.314 -0.0068 -0.0762  0.3896
  143POPC   C3A 2264   3.073   6.836   8.006 -0.0537 -0.0549 -0.0101
  143POPC   C4A 2265   3.193   6.794   7.723 -0.0767  0.0467  0.0972
  143POPC   C1B 2266   3.734   6.330   8.276  0.1379 -0.1862  0.5272
  143POPC   C2B 2267   3.647   6.654   7.982 -0.0700  0.1242 -0.0552
  143POPC   C3B 2268   3.639   6.712   7.546  0.0649  0.0871 -0.4097
  143POPC   C4B 2269   3.820   6.816   7.148  0.1114 -0.0606 -0.0961
  144POPC   NC3 2270   6.042   3.637  10.185 -0.0825 -0.1874  0.5963
  144POPC   PO4 2271   6.228   3.978  10.165  0.2187  0.3047  0.1020
  144POPC   GL1 2272   6.099   3.943   9.763  0.0105 -0.0287  0.1145
  144POPC   GL2 2273   5.828   4.107   9.608 -0.0986  0.0576  0.0693
  144POPC   C1A 2274   6.482   4.032   9.628  0.2386 -0.0522  0.1907
  144POPC   D2A 2275   6.785   4.033   9.305 -0.0827 -0.0114 -0.2246
  144POPC   C3A 2276   6.626   4.058   8.874 -0.0326 -0.1478  0.0656
  144POPC   C4A 2277   6.557   3.932   8.527  0.1449  0.0580 -0.1737
  144POPC   C1B 2278   5.974   4.331   9.255 -0.1995 -0.1166 -0.0107
  144POPC   C2B 2279   6.307   4.589   9.054 -0.0951 -0.2436 -0.2232
  144POPC   C3B 2280   6.259   4.786   8.694  0.0429  0.1738 -0.2685
  144POPC   C4B 2281   6.371   4.839   8.255  0.1929 -0.1736 -0.0441
  145POPC   NC3 2282   0.739   9.870   9.114  0.0552 -0.2177 -0.2587
  145POPC   PO4 2283   0.656   9.647   8.659 -0.1878 -0.1177  0.0614
  145POPC   GL1 2284   0.340   9.626   8.367 -0.0354  0.4222 -0.1392
  145POPC   GL2 2285   0.474   9.863   8.224 -0.0538  0.0146 -0.1332
  145POPC   C1A 2286   0.189   9.699   7.839  0.1097  0.1771 -0.1784
  145POPC   D2A 2287  -0.230   9.641   7.528  0.1481 -0.2433  0.0906
  145POPC   C3A 2288  -0.242  10.004   7.166  0.0685 -0.1754 -0.2115
  145POPC   C4A 2289  -0.200  10.383   6.894 -0.2697 -0.0545 -0.0706
  145POPC   C1B 2290   0.468  10.181   7.918 -0.0709  0.1647 -0.4097
  145POPC   C2B 2291   0.438  10.626   7.773  0.0463  0.3080 -0.1624
  145POPC   C3B 2292   0.654  10.968   7.649  0.0117 -0.2689  0.3008
  145POPC   C4B 2293   0.703  11.146   7.271  0.4128 -0.4038 -0.0575
  146POPC   NC3 2294   6.967   0.809  10.291  0.1021 -0.2216 -0.2089
  146POPC   PO4 2295   6.867   0.546  10.024 -0.1113  0.2226  0.2247
  146POPC   GL1 2296   6.690   0.944   9.844  0.0453  0.3117  0.2608
  146POPC   GL2 2297   7.003   1.126   9.922 -0.0940 -0.1349 -0.1511
  146POPC   C1A 2298   6.488   1.224   9.509 -0.0155 -0.0561  0.0241
  146POPC   D2A 2299   6.407   1.407   9.121  0.0548 -0.0509  0.1073
  146POPC   C3A 2300   6.191   1.361   8.774 -0.0803  0.1740 -0.0393
  146POPC   C4A 2301   6.342   1.449   8.431  0.3248  0.2684 -0.1386
  146POPC   C1B 2302   7.070   1.297   9.570  0.0193  0.0529  0.0242
  146POPC   C2B 2303   6.905   1.490   9.160  0.1691  0.2225 -0.0002
  146POPC   C3B 2304   6.785   1.789   8.752  0.0676  0.1369  0.2772
  146POPC   C4B 2305   6.448   1.913   8.797  0.1875 -0.0319 -0.0761
  147POPC   NC3 2306   1.970   8.783   8.738  0.0318 -0.0289 -0.2475
  147POPC   PO4 2307   1.980   9.210   9.013  0.3238  0.0014  0.0383
  147POPC   GL1 2308   2.239   9.270   8.565  0.2056 -0.1571  0.0657
  147POPC   GL2 2309   2.046   9.276   8.271  0.2232 -0.1669 -0.0493
  147POPC   C1A 2310   2.529   9.288   8.164  0.1807 -0.1291 -0.1009
  147POPC   D2A 2311   2.393   9.534   7.802  0.1147  0.0378 -0.1978
  147POPC   C3A 2312   2.427  10.053   7.916 -0.0401  0.1841 -0.0104
  147POPC   C4A 2313   2.307  10.494   7.825  0.0045  0.1410  0.5025
  147POPC   C1B 2314   2.076   9.117   7.920 -0.3183  0.0639 -0.4446
  147POPC   C2B 2315   2.115   8.867   7.735 -0.2297 -0.0258 -0.2315
  147POPC   C3B 2316   1.881   8.597   7.575  0.1832 -0.0174 -0.1547
  147POPC   C4B 2317   1.596   8.354   7.749 -0.2399  0.1666 -0.2385
  148POPC   NC3 2318   6.676   9.317   9.651  0.3091  0.0837 -0.1120
  148POPC   PO4 2319   6.700   9.730   9.832 -0.0250 -0.4158  0.2307
  148POPC   GL1 2320   6.690   9.987   9.554  0.2483 -0.2618  0.0575
  148POPC   GL2 2321   6.828  10.292   9.669  0.2066  0.2524  0.1913
  148POPC   C1A 2322   6.696  10.072   9.168 -0.0644 -0.2258 -0.1707
  148POPC   D2A 2323   6.834  10.328   8.803  0.1818  0.2968 -0.1960
  148POPC   C3A 2324   6.816  10.768   8.693  0.0963 -0.0549 -0.1486
  148POPC   C4A 2325   6.901  11.022   8.401 -0.1532  0.1654 -0.2283
  148POPC   C1B 2326   6.591  10.510   9.363  0.2016  0.2662 -0.1270
  148POPC   C2B 2327   6.653  10.848   9.147  0.2608  0.1407  0.2154
  148POPC   C3B 2328   6.861  11.179   8.988 -0.1834  0.2182  0.2788
  148POPC   C4B 2329   6.767  11.498   8.617  0.0014  0.0410 -0.0751
  149POPC   NC3 2330  10.116   5.036   8.460 -0.1636  0.0479  0.1172
  149POPC   PO4 2331   9.880   4.573   8.572 -0.0369 -0.1037 -0.0778
  149POPC   GL1 2332   9.866   4.607   8.105  0.1125 -0.1156  0.0401
  149POPC   GL2 2333   9.653   4.320   7.966 -0.0673  0.1670 -0.3221
  149POPC   C1A 2334   9.759   4.852   7.696  0.2584  0.2549 -0.1556
  149POPC   D2A 2335   9.443   4.898   7.424 -0.0865  0.0973  0.0995
  149POPC   C3A 2336   9.543   5.291   7.320 -0.0837  0.0206 -0.2160
  149POPC   C4A 2337   9.325   5.635   7.110 -0.0363 -0.0021  0.0814
  149POPC   C1B 2338   9.275   4.605   7.822  0.0498  0.1581  0.1365
  149POPC   C2B 2339   9.029   4.497   7.440 -0.2609  0.0680  0.2764
  149POPC   C3B 2340   8.889   4.499   7.029 -0.0136 -0.3110 -0.2637
  149POPC   C4B 2341   8.626   4.539   6.745  0.6182 -0.2176  0.0483
  150POPC   NC3 2342   0.288   2.997   9.247 -0.0314  0.0175  0.3400
  150POPC   PO4 2343   0.109   2.965   8.762  0.6398 -0.0948  0.0309
  150POPC   GL1 2344   0.084   3.078   8.310  0.2145  0.3609 -0.2095
  150POPC   GL2 2345  -0.257   2.969   8.165  0.0646  0.2764 -0.0416
  150POPC   C1A 2346   0.310   3.103   7.965  0.3270  0.0612  0.1119
  150POPC   D2A 2347   0.581   2.793   7.770  0.2074 -0.0268 -0.5657
  150POPC   C3A 2348   0.511   2.550   7.340  0.1148  0.0000 -0.0777
  150POPC   C4A 2349   0.747   2.596   6.981 -0.3311  0.1123 -0.1503
  150POPC   C1B 2350  -0.399   2.916   7.688  0.2106 -0.2724 -0.2763
  150POPC   C2B 2351  -0.692   2.956   7.349  0.0882  0.0376  0.2562
  150POPC   C3B 2352  -0.746   2.847   6.900 -0.1708 -0.0400  0.0495
  150POPC   C4B 2353  -0.813   2.551   6.651 -0.0584  0.0924 -0.0700
  151POPC   NC3 2354   6.747   7.652   9.281  0.2340  0.0108 -0.1187
  151POPC   PO4 2355   7.028   7.824   9.325 -0.3018 -0.0181  0.0666
  151POPC   GL1 2356   6.902   7.696   8.821  0.1175  0.0688  0.2939
  151POPC   GL2 2357   6.608   7.547   8.746  0.0260 -0.0488  0.1199
  151POPC   C1A 2358   6.951   7.515   8.363  0.0733 -0.0859 -0.0832
  151POPC   D2A 2359   6.851   7.368   8.044  0.0391 -0.1832  0.4061
  151POPC   C3A 2360   7.208   7.091   7.957 -0.2075  0.0465 -0.1201
  151POPC   C4A 2361   7.384   6.661   7.928 -0.1010 -0.2636 -0.1323
  151POPC   C1B 2362   6.518   7.244   8.391 -0.0502 -0.2984  0.3867
  151POPC   C2B 2363   6.313   7.180   8.069  0.1159  0.1359 -0.1990
  151POPC   C3B 2364   6.536   7.022   7.711 -0.3042  0.1834  0.0182
  151POPC   C4B 2365   6.800   7.016   7.278 -0.1179 -0.2831 -0.0474
  152POPC   NC3 2366   5.383   6.766   9.149  0.0577 -0.0122 -0.0151
  152POPC   PO4 2367   5.725   7.017   9.171 -0.2130  0.1575 -0.1462
  152POPC   GL1 2368   5.697   6.931   8.763  0.1129 -0.1253  0.3208
  152POPC   GL2 2369   5.499   7.057   8.472  0.0897  0.0539 -0.0813
  152POPC   C1A 2370   5.967   6.797   8.441  0.0158 -0.4586 -0.1888
  152POPC   D2A 2371   5.787   7.020   8.062 -0.0591 -0.0343  0.0928
  152POPC   C3A 2372   5.807   6.965   7.646  0.0080 -0.2383  0.3757
  152POPC   C4A 2373   5.839   6.931   7.162 -0.1957  0.1582  0.1293
  152POPC   C1B 2374   5.481   6.734   8.238 -0.2230 -0.1745 -0.2579
  152POPC   C2B 2375   5.215   6.396   8.040  0.0370 -0.1002  0.0100
  152POPC   C3B 2376   4.882   6.350   7.728  0.0882 -0.1106  0.0071
  152POPC   C4B 2377   4.525   6.258   7.387  0.1718 -0.1385  0.2377
  153POPC   NC3 2378   7.573   9.108   9.425 -0.1279 -0.1136  0.1871
  153POPC   PO4 2379   7.089   9.110   9.376 -0.1009  0.0660  0.1151
  153POPC   GL1 2380   6.913   9.443   9.047 -0.1081  0.0445 -0.2153
  153POPC   GL2 2381   6.645   9.504   9.159 -0.0210  0.1941 -0.1426
  153POPC   C1A 2382   6.995   9.512   8.649  0.0020 -0.0622 -0.1332
  153POPC   D2A 2383   7.143   9.885   8.670 -0.2469 -0.0912 -0.1686
  153POPC   C3A 2384   7.455  10.085   8.532 -0.2477  0.0517  0.3316
  153POPC   C4A 2385   7.521  10.500   8.180  0.3480  0.0727 -0.0455
  153POPC   C1B 2386   6.593   9.779   8.799 -0.1140 -0.2161 -0.0779
  153POPC   C2B 2387   6.681   9.976   8.436 -0.1515 -0.0194 -0.2122
  153POPC   C3B 2388   6.625  10.149   8.178  0.1607 -0.0476  0.2143
  153POPC   C4B 2389   6.839  10.318   7.818  0.3389 -0.0406 -0.4452
  154POPC   NC3 2390   8.828   4.210   9.208  0.1572 -0.0882  0.1778
  154POPC   PO4 2391   8.772   4.641   9.079  0.1031 -0.0315 -0.1149
  154POPC   GL1 2392   8.751   4.592   8.638 -0.2063 -0.0231  0.3533
  154POPC   GL2 2393   8.857   4.915   8.652 -0.1659  0.1080  0.1021
  154POPC   C1A 2394   8.479   4.839   8.310 -0.0684 -0.4382  0.0080
  154POPC   D2A 2395   8.463   5.008   8.017  0.0293  0.0488 -0.0162
  154POPC   C3A 2396   8.165   5.028   7.607  0.0720  0.0285 -0.2198
  154POPC   C4A 2397   7.874   5.216   7.407  0.0931  0.1532  0.1291
  154POPC   C1B 2398   9.078   4.746   8.223  0.0902 -0.0819 -0.2111
  154POPC   C2B 2399   8.735   4.567   7.861 -0.2483  0.1573  0.1193
  154POPC   C3B 2400   8.534   4.633   7.483 -0.2550 -0.1015 -0.4370
  154POPC   C4B 2401   8.378   4.789   7.103  0.1459  0.2121  0.3015
  155POPC   NC3 2402   8.629   8.802   8.715 -0.1832  0.1433  0.1317
  155POPC   PO4 2403   8.384   9.146   8.791  0.0492  0.0408 -0.2322
  155POPC   GL1 2404   8.479   9.088   8.334 -0.0029  0.1497 -0.0543
  155POPC   GL2 2405   8.202   9.078   8.133  0.0968 -0.2470 -0.2834
  155POPC   C1A 2406   8.753   9.031   8.030  0.1799 -0.3604  0.2159
  155POPC   D2A 2407   8.665   9.120   7.634 -0.2693  0.0444 -0.0805
  155POPC   C3A 2408   8.345   8.820   7.381 -0.2158  0.6533 -0.1017
  155POPC   C4A 2409   7.968   8.861   7.210 -0.0728 -0.0908  0.1251
  155POPC   C1B 2410   7.941   9.024   7.802 -0.0589 -0.1622 -0.0951
  155POPC   C2B 2411   7.639   8.801   7.565  0.2867  0.0612  0.5964
  155POPC   C3B 2412   7.526   8.719   7.072 -0.3186  0.0027  0.3694
  155POPC   C4B 2413   7.472   8.707   6.617 -0.1088 -0.0682  0.1483
  156POPC   NC3 2414   2.226   5.680   9.294 -0.0137  0.0010 -0.0711
  156POPC   PO4 2415   2.279   5.324   9.027  0.1155 -0.0029 -0.2411
  156POPC   GL1 2416   2.492   5.238   8.532  0.2707 -0.3895  0.1070
  156POPC   GL2 2417   2.220   5.144   8.398  0.0765  0.0964 -0.4024
  156POPC   C1A 2418   2.868   5.266   8.276 -0.2198 -0.1790 -0.1047
  156POPC   D2A 2419   3.128   5.292   7.919  0.0683  0.0452  0.5421
  156POPC   C3A 2420   3.337   5.626   7.720 -0.2500 -0.4813 -0.0012
  156POPC   C4A 2421   3.272   5.937   7.385 -0.0485 -0.0609  0.0725
  156POPC   C1B 2422   2.081   5.427   8.123 -0.1276 -0.1532 -0.0557
  156POPC   C2B 2423   2.128   5.541   7.712 -0.1815  0.5198 -0.0740
  156POPC   C3B 2424   2.304   5.791   7.444 -0.0065  0.1180 -0.1119
  156POPC   C4B 2425   2.264   5.853   6.986 -0.0476  0.1351  0.0217
  157POPC   NC3 2426   0.041   9.627   4.953  0.2651  0.0603  0.1772
  157POPC   PO4 2427   0.286   9.669   5.255  0.0625 -0.0944 -0.0564
  157POPC   GL1 2428   0.279   9.552   5.771  0.1123  0.1935  0.0596
  157POPC   GL2 2429   0.064   9.779   5.868 -0.0856 -0.1415 -0.2574
  157POPC   C1A 2430   0.096   9.302   6.175 -0.0593  0.0675  0.1073
  157POPC   D2A 2431  -0.268   9.270   6.424  0.1429 -0.1700 -0.4247
  157POPC   C3A 2432  -0.566   9.202   6.189  0.1324  0.3064  0.0165
  157POPC   C4A 2433  -1.037   9.383   6.207 -0.1955  0.2496 -0.2059
  157POPC   C1B 2434  -0.084   9.789   6.170 -0.3380  0.0363  0.1022
  157POPC   C2B 2435  -0.236   9.756   6.658  0.1056  0.1171  0.0319
  157POPC   C3B 2436  -0.132   9.527   6.999 -0.1094 -0.1265 -0.2426
  157POPC   C4B 2437  -0.249   9.204   7.297 -0.0235  0.1447  0.0362
  158POPC   NC3 2438   7.888   5.869   4.801  0.4944  0.1161  0.1394
  158POPC   PO4 2439   7.617   5.708   5.049 -0.1049  0.0150  0.0922
  158POPC   GL1 2440   7.645   5.524   5.404  0.1774  0.2163  0.2381
  158POPC   GL2 2441   7.625   5.719   5.649 -0.1964 -0.1170 -0.0008
  158POPC   C1A 2442   7.831   5.182   5.653  0.1991 -0.1096 -0.0336
  158POPC   D2A 2443   7.815   4.776   5.903  0.0154 -0.0648 -0.1647
  158POPC   C3A 2444   7.332   4.714   6.091  0.0881 -0.0621  0.0052
  158POPC   C4A 2445   6.913   4.867   6.275 -0.1010  0.2964 -0.1176
  158POPC   C1B 2446   7.524   5.277   5.999 -0.1290  0.0622 -0.3981
  158POPC   C2B 2447   7.525   5.054   6.406 -0.1309 -0.2285  0.0479
  158POPC   C3B 2448   7.469   4.969   6.856 -0.3428  0.1443  0.0843
  158POPC   C4B 2449   7.910   4.871   7.041 -0.2014  0.0188  0.6060
  159POPC   NC3 2450   7.892   6.537   5.610  0.0426  0.0735 -0.2309
  159POPC   PO4 2451   7.709   6.944   5.822 -0.1750 -0.1722  0.0451
  159POPC   GL1 2452   7.701   6.817   6.215  0.0748 -0.0157  0.0337
  159POPC   GL2 2453   7.548   6.587   6.165  0.2797  0.1074 -0.2028
  159POPC   C1A 2454   7.813   6.900   6.695 -0.1096 -0.2110  0.1854
  159POPC   D2A 2455   7.658   7.371   6.956  0.1047  0.1409  0.2050
  159POPC   C3A 2456   7.168   7.356   6.964  0.0560 -0.2590  0.0656
  159POPC   C4A 2457   6.926   7.214   6.522 -0.3259 -0.0074 -0.0593
  159POPC   C1B 2458   7.510   6.546   6.641  0.2559  0.2747  0.1050
  159POPC   C2B 2459   7.745   6.397   6.932  0.1532  0.1833  0.0644
  159POPC   C3B 2460   8.031   6.155   7.173 -0.1212  0.0092 -0.1495
  159POPC   C4B 2461   8.061   5.938   7.585 -0.2171 -0.2694  0.2300
  160POPC   NC3 2462   5.147   7.883   5.434 -0.3038 -0.2050  0.1444
  160POPC   PO4 2463   5.597   7.717   5.407  0.1754  0.1472  0.0546
  160POPC   GL1 2464   5.495   7.753   5.808  0.2236 -0.0718 -0.1038
  160POPC   GL2 2465   5.589   7.639   6.084 -0.2740  0.0417  0.1050
  160POPC   C1A 2466   5.147   7.814   6.144  0.0603 -0.3272 -0.3426
  160POPC   D2A 2467   5.058   7.734   6.618 -0.1966 -0.0633 -0.0701
  160POPC   C3A 2468   4.904   7.949   7.115 -0.3094 -0.1576  0.0918
  160POPC   C4A 2469   4.694   7.980   7.442  0.1195  0.1282  0.0219
  160POPC   C1B 2470   5.504   7.312   6.344  0.2562  0.2218 -0.1249
  160POPC   C2B 2471   5.496   7.300   6.781  0.0105 -0.1480 -0.0723
  160POPC   C3B 2472   5.672   7.413   7.160 -0.4339 -0.4656  0.1633
  160POPC   C4B 2473   5.682   7.455   7.645 -0.0362  0.0407  0.1723
  161POPC   NC3 2474   4.208   3.764   3.628  0.2653  0.1425  0.0939
  161POPC   PO4 2475   4.421   3.856   4.076  0.1648  0.3638 -0.1357
  161POPC   GL1 2476   4.401   3.680   4.427 -0.1755  0.0937 -0.1316
  161POPC   GL2 2477   4.591   3.496   4.485 -0.1730 -0.1025  0.0126
  161POPC   C1A 2478   4.381   3.990   4.843  0.0755  0.2016  0.4372
  161POPC   D2A 2479   4.329   4.243   5.300 -0.0099 -0.0065 -0.1285
  161POPC   C3A 2480   4.590   4.106   5.702 -0.0669  0.4174 -0.1567
  161POPC   C4A 2481   4.905   4.000   5.875  0.4308 -0.1203  0.0355
  161POPC   C1B 2482   4.370   3.455   4.938 -0.3273 -0.0887 -0.0165
  161POPC   C2B 2483   4.335   3.288   5.286 -0.1233 -0.0718 -0.1087
  161POPC   C3B 2484   4.439   3.114   5.725  0.0748  0.0862  0.1688
  161POPC   C4B 2485   4.774   3.049   5.993  0.1900  0.0036 -0.1501
  162POPC   NC3 2486   1.819   8.334   4.888 -0.2523 -0.2201  0.0935
  162POPC   PO4 2487   2.010   7.925   5.052  0.0516  0.3214 -0.0526
  162POPC   GL1 2488   1.841   7.955   5.534  0.0990  0.2198  0.0713
  162POPC   GL2 2489   1.566   7.782   5.669 -0.0721  0.0658 -0.0334
  162POPC   C1A 2490   2.044   7.792   5.930  0.1278 -0.4018  0.0352
  162POPC   D2A 2491   2.040   7.533   6.389  0.1762 -0.1964  0.2048
  162POPC   C3A 2492   1.800   7.427   6.642 -0.1488  0.1470 -0.0477
  162POPC   C4A 2493   1.436   7.154   6.775 -0.3112  0.2214  0.1107
  162POPC   C1B 2494   1.552   7.590   6.121 -0.1304 -0.0290  0.2109
  162POPC   C2B 2495   1.319   7.547   6.505 -0.1005 -0.2374 -0.1380
  162POPC   C3B 2496   1.208   7.615   6.875  0.2328  0.2828  0.0438
  162POPC   C4B 2497   1.187   7.386   7.305  0.0690 -0.1611  0.0188
  163POPC   NC3 2498   4.959   3.872   3.922  0.1564  0.1558  0.0863
  163POPC   PO4 2499   5.271   4.041   4.088  0.0014 -0.0729  0.0587
  163POPC   GL1 2500   5.458   4.029   4.499 -0.2664  0.3097  0.1111
  163POPC   GL2 2501   5.294   4.376   4.551  0.0086  0.1683  0.0691
  163POPC   C1A 2502   5.641   4.158   4.869  0.1937  0.1192 -0.0196
  163POPC   D2A 2503   5.550   3.980   5.308 -0.0337  0.0648 -0.1015
  163POPC   C3A 2504   5.242   4.192   5.611 -0.2494  0.1870  0.1083
  163POPC   C4A 2505   4.911   4.413   5.498 -0.1835  0.0571 -0.1553
  163POPC   C1B 2506   5.317   4.479   5.060  0.0121  0.0273 -0.1332
  163POPC   C2B 2507   5.009   4.125   5.133  0.2094  0.0369 -0.1079
  163POPC   C3B 2508   4.868   3.798   5.263 -0.0955 -0.4829  0.0822
  163POPC   C4B 2509   4.416   3.753   5.331 -0.1909  0.0088 -0.0072
  164POPC   NC3 2510   7.275   4.554   3.836  0.0120  0.2509 -0.0896
  164POPC   PO4 2511   7.128   4.115   3.939 -0.0736 -0.0289 -0.0322
  164POPC   GL1 2512   6.959   4.013   4.365  0.3833 -0.2858  0.3475
  164POPC   GL2 2513   6.709   3.892   4.635  0.0469 -0.1453  0.1124
  164POPC   C1A 2514   7.030   4.237   4.772 -0.1760 -0.1955 -0.3134
  164POPC   D2A 2515   7.259   4.271   5.098 -0.1142  0.0415 -0.1895
  164POPC   C3A 2516   7.245   4.683   5.356 -0.1735 -0.1968  0.4024
  164POPC   C4A 2517   7.401   4.983   5.577  0.1281 -0.1548  0.2410
  164POPC   C1B 2518   6.822   3.979   5.108 -0.0658  0.0422 -0.0447
  164POPC   C2B 2519   6.648   3.955   5.509  0.0048 -0.1280  0.2078
  164POPC   C3B 2520   6.820   3.758   5.801  0.1090 -0.1181  0.0608
  164POPC   C4B 2521   6.887   3.860   6.210 -0.0059  0.0746 -0.2222
  165POPC   NC3 2522   2.997   4.507   5.139  0.0121 -0.0588  0.0597
  165POPC   PO4 2523   2.777   4.930   5.195  0.2521 -0.4024 -0.0057
  165POPC   GL1 2524   2.804   4.902   5.551  0.1035 -0.2331 -0.0174
  165POPC   GL2 2525   2.595   5.134   5.738  0.1079 -0.1737  0.0778
  165POPC   C1A 2526   3.068   5.094   5.906 -0.1840  0.0867 -0.0934
  165POPC   D2A 2527   3.364   5.393   6.158  0.0082 -0.2014  0.0832
  165POPC   C3A 2528   3.242   5.841   5.938  0.1481 -0.3025  0.0776
  165POPC   C4A 2529   3.051   5.844   5.522  0.1412  0.3671  0.1901
  165POPC   C1B 2530   2.496   5.135   6.050 -0.2165 -0.3482 -0.1371
  165POPC   C2B 2531   2.326   5.410   6.379 -0.2538  0.0202 -0.0060
  165POPC   C3B 2532   1.995   5.641   6.568  0.0487  0.1568 -0.1084
  165POPC   C4B 2533   1.753   5.625   6.961 -0.1857  0.0759  0.1768
  166POPC   NC3 2534   6.442   6.967   5.313  0.3970  0.1138  0.2311
  166POPC   PO4 2535   6.623   6.554   5.515 -0.2404  0.0347 -0.1427
  166POPC   GL1 2536   6.815   6.244   5.743  0.2459  0.2142  0.3538
  166POPC   GL2 2537   6.866   5.914   5.701 -0.2256 -0.1428 -0.0325
  166POPC   C1A 2538   6.937   6.199   6.262  0.0433 -0.0941  0.0992
  166POPC   D2A 2539   6.732   5.993   6.599 -0.3928 -0.0444 -0.3966
  166POPC   C3A 2540   7.027   5.766   6.917  0.0475  0.0807 -0.2015
  166POPC   C4A 2541   7.048   5.693   7.421  0.1227 -0.0764 -0.2500
  166POPC   C1B 2542   6.822   5.676   6.141  0.2327 -0.0836 -0.1549
  166POPC   C2B 2543   7.083   5.327   6.252 -0.1092 -0.0785 -0.1426
  166POPC   C3B 2544   7.133   5.244   6.624  0.1437  0.2033  0.0056
  166POPC   C4B 2545   7.373   5.427   7.076  0.1153  0.1648  0.4296
  167POPC   NC3 2546   3.774   1.024   4.770  0.0021  0.1185  0.3289
  167POPC   PO4 2547   3.618   0.671   4.848 -0.0768  0.1265  0.2465
  167POPC   GL1 2548   3.703   0.798   5.269 -0.0037  0.0022 -0.5657
  167POPC   GL2 2549   3.953   1.041   5.341 -0.1187 -0.2235  0.1618
  167POPC   C1A 2550   3.569   1.072   5.618 -0.0102  0.1879 -0.2406
  167POPC   D2A 2551   3.512   0.996   6.068 -0.4301 -0.0514 -0.0418
  167POPC   C3A 2552   3.687   1.368   6.320  0.3118 -0.0221  0.0696
  167POPC   C4A 2553   3.498   1.771   6.377  0.2079  0.0263  0.6087
  167POPC   C1B 2554   4.188   1.191   5.607 -0.2380 -0.1731  0.0136
  167POPC   C2B 2555   4.113   1.080   6.176  0.3197 -0.4612  0.0943
  167POPC   C3B 2556   4.200   0.788   6.508 -0.2537 -0.1040  0.0018
  167POPC   C4B 2557   4.301   0.507   6.794 -0.1558  0.0756  0.0318
  168POPC   NC3 2558   8.077   3.052   3.879 -0.2096 -0.1691 -0.0741
  168POPC   PO4 2559   8.241   3.416   3.864 -0.0171  0.1060 -0.1161
  168POPC   GL1 2560   8.219   3.336   4.257 -0.1584  0.1897 -0.1650
  168POPC   GL2 2561   7.977   3.075   4.454  0.0492  0.0447 -0.1372
  168POPC   C1A 2562   8.548   3.229   4.587  0.2814  0.0920  0.1342
  168POPC   D2A 2563   8.719   3.161   5.004  0.0491  0.0798 -0.3302
  168POPC   C3A 2564   8.540   3.042   5.367  0.5986  0.1213  0.1749
  168POPC   C4A 2565   8.090   2.949   5.492 -0.0118  0.0702 -0.2085
  168POPC   C1B 2566   7.629   2.896   4.453 -0.3247  0.3407  0.0503
  168POPC   C2B 2567   7.422   2.849   4.819  0.1021 -0.4674 -0.2302
  168POPC   C3B 2568   7.232   2.655   5.188  0.0718 -0.1859  0.0788
  168POPC   C4B 2569   6.969   2.576   5.627 -0.1478 -0.0228 -0.1310
  169POPC   NC3 2570   3.878   1.728   3.916  0.1759 -0.0732  0.0989
  169POPC   PO4 2571   4.130   2.157   3.654 -0.3092 -0.0182  0.2009
  169POPC   GL1 2572   4.332   1.959   4.028 -0.2336  0.0046 -0.1164
  169POPC   GL2 2573   4.199   2.032   4.268  0.0391  0.0851 -0.2478
  169POPC   C1A 2574   4.741   2.046   4.196  0.1498  0.2903  0.3716
  169POPC   D2A 2575   5.200   1.953   4.428 -0.1125  0.0042  0.0604
  169POPC   C3A 2576   5.193   1.903   4.836 -0.2633 -0.2633 -0.1866
  169POPC   C4A 2577   5.269   1.588   5.035  0.2915  0.1372 -0.1795
  169POPC   C1B 2578   4.497   1.834   4.535  0.1927  0.2344 -0.1881
  169POPC   C2B 2579   4.811   1.671   4.661 -0.2042 -0.0971  0.0244
  169POPC   C3B 2580   5.136   1.415   4.528  0.0856 -0.1097  0.2015
  169POPC   C4B 2581   5.448   1.561   4.235  0.3047 -0.0650  0.0755
  170POPC   NC3 2582   4.694   7.215   5.407 -0.3333  0.0020  0.2280
  170POPC   PO4 2583   4.779   7.609   5.210  0.1423 -0.2936 -0.1660
  170POPC   GL1 2584   4.563   7.765   5.575 -0.1349  0.1194  0.0645
  170POPC   GL2 2585   4.727   8.152   5.504  0.1676 -0.0179  0.2020
  170POPC   C1A 2586   4.463   7.580   6.078 -0.0944  0.3473 -0.0067
  170POPC   D2A 2587   4.592   7.465   6.529  0.0729 -0.2632 -0.0077
  170POPC   C3A 2588   4.471   7.677   6.842  0.1698 -0.0548  0.1434
  170POPC   C4A 2589   4.306   7.610   7.282  0.0959  0.1482  0.0329
  170POPC   C1B 2590   4.812   8.133   5.896  0.2666 -0.3809  0.2316
  170POPC   C2B 2591   4.726   7.957   6.335  0.2233  0.4431  0.2884
  170POPC   C3B 2592   4.715   8.167   6.669 -0.0539 -0.0128 -0.0249
  170POPC   C4B 2593   4.910   8.407   7.121 -0.0668  0.0977  0.3543
  171POPC   NC3 2594   2.340   9.665   4.945  0.3572  0.3215 -0.0862
  171POPC   PO4 2595   2.805   9.523   5.016 -0.2736  0.2177 -0.0968
  171POPC   GL1 2596   2.590   9.520   5.456  0.3684  0.4137  0.1118
  171POPC   GL2 2597   2.890   9.370   5.690 -0.0185  0.1880 -0.2424
  171POPC   C1A 2598   2.487   9.656   5.838 -0.1923 -0.0295  0.3669
  171POPC   D2A 2599   2.243   9.789   6.305 -0.0444  0.0143  0.3085
  171POPC   C3A 2600   2.208   9.573   6.658 -0.0491  0.2410  0.0251
  171POPC   C4A 2601   2.039   9.301   6.894 -0.0038  0.0366 -0.1287
  171POPC   C1B 2602   2.892   9.519   6.076 -0.2765 -0.1203  0.0911
  171POPC   C2B 2603   3.050   9.285   6.479 -0.2621  0.1885  0.0157
  171POPC   C3B 2604   3.056   9.050   6.810  0.0846 -0.0172 -0.0908
  171POPC   C4B 2605   2.756   8.762   6.897 -0.0135 -0.0334 -0.1931
  172POPC   NC3 2606   7.001   6.324   5.262 -0.0647  0.0429  0.1441
  172POPC   PO4 2607   6.518   6.109   5.263  0.0164  0.0766 -0.0092
  172POPC   GL1 2608   6.275   5.998   5.636 -0.0316 -0.0681 -0.3516
  172POPC   GL2 2609   6.243   6.098   5.951  0.2234  0.0380 -0.3813
  172POPC   C1A 2610   5.916   5.761   5.818  0.1717  0.0087 -0.0223
  172POPC   D2A 2611   5.757   5.493   6.022 -0.4280  0.1021  0.1554
  172POPC   C3A 2612   6.017   5.357   6.372 -0.3477 -0.0452 -0.2062
  172POPC   C4A 2613   6.482   5.131   6.390  0.1910 -0.2593 -0.3370
  172POPC   C1B 2614   6.511   6.419   6.213 -0.1434  0.1287  0.2037
  172POPC   C2B 2615   6.658   6.497   6.634 -0.0104  0.2123 -0.1124
  172POPC   C3B 2616   6.921   6.595   7.017  0.2783  0.0208 -0.1066
  172POPC   C4B 2617   7.189   6.741   7.423 -0.0168 -0.0109  0.3160
  173POPC   NC3 2618   6.841   7.699   5.362 -0.0181 -0.0508 -0.1308
  173POPC   PO4 2619   7.194   7.647   5.194 -0.0185  0.4115  0.1101
  173POPC   GL1 2620   7.290   7.946   5.361 -0.0116  0.0228  0.0164
  173POPC   GL2 2621   7.633   7.924   5.319  0.0822 -0.0578 -0.0625
  173POPC   C1A 2622   7.181   8.125   5.749 -0.4410  0.2350  0.2234
  173POPC   D2A 2623   6.870   8.209   6.079  0.0325 -0.3618  0.2287
  173POPC   C3A 2624   6.890   8.225   6.567  0.2956 -0.0849 -0.1625
  173POPC   C4A 2625   6.566   8.337   6.833  0.0063 -0.1664 -0.3729
  173POPC   C1B 2626   7.714   8.041   5.726 -0.0421  0.0450  0.0058
  173POPC   C2B 2627   7.764   8.147   5.990  0.3229 -0.0263 -0.0375
  173POPC   C3B 2628   7.824   8.501   6.353  0.0479 -0.1952 -0.0637
  173POPC   C4B 2629   8.006   8.570   6.751  0.0548 -0.3500 -0.1278
  174POPC   NC3 2630   9.450   5.733   4.491 -0.0381 -0.2390 -0.0073
  174POPC   PO4 2631   9.238   5.681   4.840 -0.0879 -0.0206 -0.0300
  174POPC   GL1 2632   9.061   5.617   5.196 -0.3519  0.0093 -0.2301
  174POPC   GL2 2633   9.053   5.902   5.388 -0.0711 -0.0202 -0.2608
  174POPC   C1A 2634   8.829   5.305   5.501  0.1050 -0.2491 -0.2670
  174POPC   D2A 2635   8.821   5.064   5.927 -0.1919 -0.2945 -0.0778
  174POPC   C3A 2636   8.707   4.847   6.187  0.0416  0.0826  0.0309
  174POPC   C4A 2637   8.849   4.436   6.271 -0.1405  0.0740  0.3337
  174POPC   C1B 2638   9.276   5.700   5.689  0.0434 -0.2726  0.1686
  174POPC   C2B 2639   9.098   5.515   6.079  0.3350  0.1586 -0.1004
  174POPC   C3B 2640   9.165   5.062   6.322  0.1786 -0.4384 -0.0440
  174POPC   C4B 2641   9.101   4.716   6.570  0.4755  0.0943 -0.3047
  175POPC   NC3 2642   0.702   3.958   5.175  0.0501 -0.0406  0.1411
  175POPC   PO4 2643   0.586   4.367   5.210 -0.0046  0.0456  0.1277
  175POPC   GL1 2644   0.773   4.277   5.584  0.0699  0.1055 -0.0809
  175POPC   GL2 2645   0.667   4.020   5.720 -0.3702 -0.0212  0.2340
  175POPC   C1A 2646   1.054   4.206   5.943 -0.0147  0.0280  0.1378
  175POPC   D2A 2647   1.035   4.069   6.323  0.1374 -0.0811 -0.0247
  175POPC   C3A 2648   1.146   4.410   6.585 -0.1672 -0.0460  0.2278
  175POPC   C4A 2649   1.039   4.845   6.700  0.1215 -0.0913 -0.1390
  175POPC   C1B 2650   0.661   3.761   5.977 -0.3103  0.2165  0.4657
  175POPC   C2B 2651   0.320   3.523   6.181 -0.0400 -0.2615 -0.2448
  175POPC   C3B 2652  -0.159   3.408   6.261 -0.1921  0.3161  0.0222
  175POPC   C4B 2653  -0.392   3.127   6.109 -0.1610 -0.0586  0.2681
  176POPC   NC3 2654   1.860   1.299   5.076  0.1203  0.0543  0.1691
  176POPC   PO4 2655   2.173   1.631   5.151 -0.1522  0.0918  0.2723
  176POPC   GL1 2656   2.326   1.751   5.511  0.0070 -0.2460  0.1008
  176POPC   GL2 2657   2.176   2.033   5.494 -0.0939  0.1300  0.2424
  176POPC   C1A 2658   2.200   1.557   5.970  0.3272 -0.0490 -0.0010
  176POPC   D2A 2659   1.987   1.631   6.403 -0.1360 -0.0018  0.0868
  176POPC   C3A 2660   1.896   1.888   6.699 -0.3348  0.1664 -0.0909
  176POPC   C4A 2661   2.168   2.043   6.898  0.0253  0.2638 -0.0998
  176POPC   C1B 2662   2.473   2.065   5.812  0.0368 -0.0444 -0.6858
  176POPC   C2B 2663   2.468   2.034   6.242  0.0609  0.0092  0.0756
  176POPC   C3B 2664   2.573   2.244   6.549 -0.0424 -0.2982 -0.0256
  176POPC   C4B 2665   2.378   2.575   6.863  0.2544  0.2768 -0.1484
  177POPC   NC3 2666   5.980   7.647   5.143 -0.0414 -0.0202  0.2969
  177POPC   PO4 2667   6.042   7.275   5.348  0.0677 -0.0028  0.2522
  177POPC   GL1 2668   6.189   7.105   5.851  0.0055 -0.0400  0.2843
  177POPC   GL2 2669   6.465   6.907   5.839  0.3218  0.0763  0.1006
  177POPC   C1A 2670   6.018   7.324   6.209  0.0187 -0.0665 -0.0405
  177POPC   D2A 2671   5.968   7.687   6.463  0.0101 -0.0595  0.2003
  177POPC   C3A 2672   5.545   7.774   6.541  0.0796 -0.3457 -0.3306
  177POPC   C4A 2673   5.310   8.180   6.755  0.1192  0.0213 -0.2987
  177POPC   C1B 2674   6.305   6.936   6.297  0.0549  0.2423  0.1907
  177POPC   C2B 2675   6.173   6.677   6.721  0.0103  0.0004 -0.1311
  177POPC   C3B 2676   6.275   6.316   6.928 -0.1407 -0.1690 -0.2429
  177POPC   C4B 2677   6.645   6.090   7.087  0.4569 -0.2313 -0.1128
  178POPC   NC3 2678   5.179   3.140   3.301  0.0747 -0.3552 -0.2306
  178POPC   PO4 2679   5.144   3.461   3.666 -0.1552  0.1237 -0.2866
  178POPC   GL1 2680   5.509   3.352   3.987 -0.0688 -0.1164 -0.1412
  178POPC   GL2 2681   5.374   3.566   4.180  0.0916  0.0851 -0.3624
  178POPC   C1A 2682   5.212   3.099   4.325  0.0425 -0.0644  0.1672
  178POPC   D2A 2683   4.879   3.189   4.665 -0.0148 -0.2385 -0.0773
  178POPC   C3A 2684   4.978   3.403   4.958 -0.3498 -0.3711 -0.0416
  178POPC   C4A 2685   5.282   3.733   4.943 -0.1348  0.0988  0.0131
  178POPC   C1B 2686   5.103   3.648   4.500  0.0257  0.1667  0.1291
  178POPC   C2B 2687   4.866   3.893   4.635  0.2441 -0.4515 -0.0023
  178POPC   C3B 2688   4.719   4.381   4.692  0.4331 -0.2522  0.3080
  178POPC   C4B 2689   4.857   4.709   5.035  0.1593 -0.1750 -0.0062
  179POPC   NC3 2690   1.375   1.965   4.824 -0.1242 -0.0804  0.2122
  179POPC   PO4 2691   1.659   1.740   5.183  0.1211 -0.3276 -0.2747
  179POPC   GL1 2692   1.813   1.687   5.600 -0.0235 -0.1571  0.1856
  179POPC   GL2 2693   1.973   1.432   5.590  0.1544  0.1699 -0.0437
  179POPC   C1A 2694   1.571   1.577   5.996  0.0332  0.0445  0.0362
  179POPC   D2A 2695   1.500   1.768   6.414  0.1590  0.1152 -0.0965
  179POPC   C3A 2696   1.362   1.592   6.846 -0.1309  0.0379  0.0842
  179POPC   C4A 2697   1.290   1.701   7.307  0.2024 -0.1450 -0.1444
  179POPC   C1B 2698   1.825   1.152   5.960  0.1927 -0.0098 -0.1285
  179POPC   C2B 2699   1.896   1.113   6.387  0.0125 -0.1021  0.0672
  179POPC   C3B 2700   2.214   1.051   6.710 -0.1125  0.0576  0.2642
  179POPC   C4B 2701   2.384   0.801   6.993  0.4424 -0.1340  0.0863
  180POPC   NC3 2702   0.253   0.788   5.160  0.2480  0.1595  0.1895
  180POPC   PO4 2703   0.471   1.167   5.053  0.0693  0.0739  0.2409
  180POPC   GL1 2704   0.258   1.355   5.348 -0.3547 -0.0811 -0.0602
  180POPC   GL2 2705   0.299   1.674   5.311 -0.4138 -0.1152 -0.0696
  180POPC   C1A 2706   0.116   1.238   5.762  0.2415  0.2109  0.4346
  180POPC   D2A 2707  -0.188   1.410   6.098 -0.0677  0.0155 -0.1849
  180POPC   C3A 2708  -0.398   1.167   6.263 -0.0071 -0.1925 -0.0184
  180POPC   C4A 2709  -0.664   0.995   6.610 -0.3293  0.0327 -0.1154
  180POPC   C1B 2710   0.252   1.760   5.762 -0.1278  0.0472 -0.0085
  180POPC   C2B 2711   0.242   1.906   6.178  0.1725  0.0418  0.2428
  180POPC   C3B 2712   0.068   2.134   6.540  0.0555  0.0698 -0.1118
  180POPC   C4B 2713  -0.329   2.251   6.729  0.1232 -0.4401 -0.0641
  181POPC   NC3 2714   5.458   4.884   4.378  0.0726 -0.0487  0.1054
  181POPC   PO4 2715   5.614   4.556   4.032 -0.1261  0.2770  0.2317
  181POPC   GL1 2716   5.848   4.494   4.420  0.0295 -0.0373  0.0053
  181POPC   GL2 2717   5.905   4.198   4.453 -0.0133  0.1684 -0.1707
  181POPC   C1A 2718   5.806   4.709   4.898  0.2988  0.1984  0.2162
  181POPC   D2A 2719   5.981   4.905   5.280  0.0023 -0.1324 -0.0768
  181POPC   C3A 2720   6.131   4.679   5.602 -0.1670 -0.0511  0.0798
  181POPC   C4A 2721   6.093   4.329   5.972 -0.2259  0.3123 -0.0858
  181POPC   C1B 2722   6.212   4.137   4.739  0.1075  0.2197  0.2525
  181POPC   C2B 2723   6.322   3.933   5.152 -0.0695  0.1689 -0.5336
  181POPC   C3B 2724   6.139   3.961   5.631 -0.0755 -0.1770 -0.0188
  181POPC   C4B 2725   5.730   4.013   5.855 -0.0921 -0.1025  0.2967
  182POPC   NC3 2726   2.902   2.339   4.999 -0.0183 -0.1230 -0.4764
  182POPC   PO4 2727   2.413   2.535   5.001  0.3672  0.2201 -0.0502
  182POPC   GL1 2728   2.520   2.437   5.395  0.2403  0.1639  0.0656
  182POPC   GL2 2729   2.421   2.819   5.446 -0.1847 -0.0308  0.1753
  182POPC   C1A 2730   2.711   2.514   5.712  0.0232 -0.1415  0.0893
  182POPC   D2A 2731   2.726   2.534   6.189 -0.2166 -0.0720  0.0964
  182POPC   C3A 2732   3.108   2.404   6.440  0.1581 -0.0601  0.0428
  182POPC   C4A 2733   3.322   2.208   6.244 -0.2431  0.0507 -0.0996
  182POPC   C1B 2734   2.303   2.929   5.777 -0.0351  0.2365 -0.1308
  182POPC   C2B 2735   2.232   3.183   6.161  0.3698  0.1646 -0.1035
  182POPC   C3B 2736   2.426   3.378   6.585 -0.0448 -0.1071 -0.2946
  182POPC   C4B 2737   2.674   3.213   6.946 -0.5057 -0.2423  0.0212
  183POPC   NC3 2738   8.022   5.403   5.072 -0.0627 -0.2744  0.3918
  183POPC   PO4 2739   8.122   5.779   5.187  0.3781  0.0524 -0.2578
  183POPC   GL1 2740   8.158   5.630   5.523  0.2571 -0.1615  0.0600
  183POPC   GL2 2741   8.351   5.413   5.647  0.0711 -0.3501 -0.1632
  183POPC   C1A 2742   8.015   5.524   6.019  0.1404 -0.0949  0.1440
  183POPC   D2A 2743   7.775   5.647   6.373  0.0888  0.1370  0.0539
  183POPC   C3A 2744   7.813   5.501   6.772 -0.1522 -0.2230  0.0711
  183POPC   C4A 2745   8.007   5.635   7.198  0.1087  0.0231  0.2240
  183POPC   C1B 2746   8.544   5.436   6.052  0.0972 -0.0801  0.0096
  183POPC   C2B 2747   8.696   5.262   6.444 -0.2235 -0.0395 -0.2435
  183POPC   C3B 2748   8.730   5.031   6.884 -0.2161 -0.0664  0.2918
  183POPC   C4B 2749   9.212   5.082   6.976 -0.2583 -0.5604  0.0634
  184POPC   NC3 2750   2.908   1.248   5.201  0.2899 -0.2199 -0.1696
  184POPC   PO4 2751   2.711   1.571   5.134  0.0229  0.1206  0.2243
  184POPC   GL1 2752   2.722   1.477   5.589  0.1655 -0.0182 -0.2210
  184POPC   GL2 2753   2.897   1.636   5.779  0.0566 -0.0700 -0.0189
  184POPC   C1A 2754   2.540   1.210   5.812  0.2866  0.0471 -0.3106
  184POPC   D2A 2755   2.366   1.128   6.189  0.1765 -0.1315  0.1187
  184POPC   C3A 2756   2.698   1.184   6.601  0.0758 -0.0288  0.2606
  184POPC   C4A 2757   2.771   1.292   6.995  0.1269 -0.0932  0.2247
  184POPC   C1B 2758   2.688   1.511   6.174 -0.1562 -0.2469  0.0533
  184POPC   C2B 2759   2.612   1.686   6.636  0.1640 -0.0881 -0.0693
  184POPC   C3B 2760   2.571   1.780   7.078  0.0369 -0.2978  0.0797
  184POPC   C4B 2761   2.866   1.972   7.433  0.0320 -0.2063 -0.0171
  185POPC   NC3 2762   1.263   5.291   5.192 -0.3142  0.0997  0.1948
  185POPC   PO4 2763   1.477   4.943   5.390  0.0292  0.0772  0.1827
  185POPC   GL1 2764   1.302   4.671   5.629  0.2151  0.0923  0.1384
  185POPC   GL2 2765   1.536   4.503   5.778 -0.1696  0.2247  0.1822
  185POPC   C1A 2766   0.936   4.742   5.734 -0.0681 -0.0003  0.0924
  185POPC   D2A 2767   0.776   4.574   6.132 -0.1134 -0.0281  0.0257
  185POPC   C3A 2768   0.553   4.234   6.194 -0.3667  0.0061 -0.0283
  185POPC   C4A 2769   0.177   4.065   6.101 -0.1195 -0.0430  0.1215
  185POPC   C1B 2770   1.760   4.726   6.144 -0.1070  0.1198 -0.1621
  185POPC   C2B 2771   2.032   5.039   6.298 -0.0619 -0.1054  0.1462
  185POPC   C3B 2772   2.356   4.956   6.616 -0.3695 -0.1168 -0.0096
  185POPC   C4B 2773   2.785   4.948   6.809  0.2289 -0.1559  0.1073
  186POPC   NC3 2774   2.513   3.020   4.965  0.3433  0.3609  0.0939
  186POPC   PO4 2775   2.701   3.279   5.163  0.3198  0.1364 -0.0740
  186POPC   GL1 2776   2.921   3.285   5.416  0.0709 -0.0599  0.0908
  186POPC   GL2 2777   2.949   3.043   5.643  0.1767 -0.1008  0.0724
  186POPC   C1A 2778   3.059   3.450   5.816 -0.0317 -0.1286 -0.3660
  186POPC   D2A 2779   3.207   3.630   6.209 -0.1843 -0.2800 -0.3632
  186POPC   C3A 2780   3.534   3.499   6.495 -0.3568 -0.0453  0.0271
  186POPC   C4A 2781   3.586   3.440   6.951  0.2485 -0.0375 -0.0720
  186POPC   C1B 2782   2.719   3.025   6.021 -0.2900  0.1609  0.0563
  186POPC   C2B 2783   2.651   2.998   6.347 -0.1947  0.4916  0.0908
  186POPC   C3B 2784   2.791   2.730   6.668 -0.0684  0.2574 -0.3196
  186POPC   C4B 2785   3.154   2.561   6.952  0.1390  0.1219 -0.4794
  187POPC   NC3 2786   2.017   3.005   5.139  0.0005  0.0376 -0.0522
  187POPC   PO4 2787   2.189   3.356   5.242  0.2959  0.1057 -0.2235
  187POPC   GL1 2788   2.127   3.621   5.700 -0.0893  0.1011  0.1367
  187POPC   GL2 2789   1.956   3.380   5.760  0.0310  0.0144  0.0323
  187POPC   C1A 2790   2.224   3.734   6.097 -0.2126  0.1230  0.0213
  187POPC   D2A 2791   2.638   3.543   6.160  0.0573  0.2310 -0.0815
  187POPC   C3A 2792   2.914   3.378   6.535  0.3316  0.0614  0.0350
  187POPC   C4A 2793   3.076   3.484   6.806  0.2849 -0.1057 -0.0532
  187POPC   C1B 2794   1.752   3.481   6.129 -0.1525 -0.1309 -0.0050
  187POPC   C2B 2795   1.636   3.843   6.367  0.2417 -0.2223 -0.0401
  187POPC   C3B 2796   1.460   3.979   6.736  0.0862 -0.1339 -0.0114
  187POPC   C4B 2797   1.145   4.128   7.031 -0.0765  0.0905 -0.2900
  188POPC   NC3 2798   5.481   3.613   3.205 -0.1057  0.3157 -0.1266
  188POPC   PO4 2799   5.904   3.330   3.078  0.1477  0.2471 -0.2496
  188POPC   GL1 2800   6.213   3.248   3.428  0.1673 -0.0833 -0.1060
  188POPC   GL2 2801   6.176   2.930   3.641 -0.1602  0.1278 -0.0179
  188POPC   C1A 2802   6.565   3.305   3.700  0.0608 -0.2107 -0.0668
  188POPC   D2A 2803   6.911   3.226   3.999 -0.3421  0.1742  0.3656
  188POPC   C3A 2804   6.979   3.037   4.317 -0.0299  0.3567 -0.2545
  188POPC   C4A 2805   6.959   3.169   4.748  0.0180  0.0735 -0.4537
  188POPC   C1B 2806   6.448   3.058   4.110  0.0610  0.0510 -0.0403
  188POPC   C2B 2807   6.501   2.975   4.565  0.1415  0.0401 -0.0613
  188POPC   C3B 2808   6.463   2.947   4.984 -0.0561 -0.3900 -0.0978
  188POPC   C4B 2809   6.895   3.018   5.221  0.0675  0.1464  0.1946
  189POPC   NC3 2810   3.146   6.734   4.946 -0.1182  0.0230 -0.0128
  189POPC   PO4 2811   3.461   6.970   4.818  0.1723 -0.3296 -0.0945
  189POPC   GL1 2812   3.351   7.068   5.297 -0.2020  0.1516  0.1891
  189POPC   GL2 2813   3.518   7.260   5.372 -0.2304  0.4375 -0.2250
  189POPC   C1A 2814   3.157   7.247   5.716 -0.1988  0.1199 -0.0843
  189POPC   D2A 2815   2.766   7.139   5.939 -0.1127 -0.3314 -0.1523
  189POPC   C3A 2816   2.644   6.874   6.208  0.0358  0.0726  0.0582
  189POPC   C4A 2817   2.438   6.633   6.551 -0.3139  0.0906 -0.0492
  189POPC   C1B 2818   3.577   7.443   5.786 -0.0922  0.2454 -0.0058
  189POPC   C2B 2819   3.481   7.581   6.197 -0.2638  0.2849  0.0397
  189POPC   C3B 2820   3.188   7.295   6.335 -0.0436 -0.0614 -0.0135
  189POPC   C4B 2821   3.149   6.983   6.281  0.1711 -0.0686  0.4528
  190POPC   NC3 2822   3.073   8.645   5.171 -0.1212  0.0639 -0.2209
  190POPC   PO4 2823   2.708   8.437   5.306 -0.0532  0.1836 -0.0052
  190POPC   GL1 2824   2.841   8.620   5.667  0.0026 -0.0439  0.3120
  190POPC   GL2 2825   3.138   8.832   5.658 -0.2937 -0.2601  0.0174
  190POPC   C1A 2826   2.899   8.456   5.984 -0.0699 -0.1540 -0.2836
  190POPC   D2A 2827   3.211   8.292   6.311 -0.1836  0.0159 -0.3264
  190POPC   C3A 2828   3.259   8.615   6.520 -0.1558  0.1728 -0.0682
  190POPC   C4A 2829   3.530   8.984   6.572 -0.0461  0.0405  0.1615
  190POPC   C1B 2830   3.511   8.534   5.938 -0.1456 -0.0393  0.1949
  190POPC   C2B 2831   3.771   8.562   6.316  0.0783 -0.0132 -0.3466
  190POPC   C3B 2832   3.899   8.657   6.690  0.2199  0.1622  0.2983
  190POPC   C4B 2833   3.915   9.073   6.903  0.0141  0.0682 -0.1150
  191POPC   NC3 2834   8.787   7.715   4.705  0.2406 -0.1589 -0.4375
  191POPC   PO4 2835   9.071   7.846   5.048  0.1937  0.4870 -0.4932
  191POPC   GL1 2836   9.305   7.993   5.332  0.2285  0.1181  0.0115
  191POPC   GL2 2837   9.101   8.064   5.595 -0.2842 -0.1238  0.0480
  191POPC   C1A 2838   9.606   8.068   5.676  0.0211 -0.0075  0.0921
  191POPC   D2A 2839   9.877   7.956   5.996  0.0929  0.2468  0.0810
  191POPC   C3A 2840  10.291   7.839   6.020 -0.1539  0.1412 -0.0723
  191POPC   C4A 2841  10.768   7.845   6.056 -0.3593 -0.3671  0.2643
  191POPC   C1B 2842   9.136   8.362   6.013  0.0289  0.1702  0.1033
  191POPC   C2B 2843   8.891   8.577   6.445 -0.2972 -0.0895  0.1034
  191POPC   C3B 2844   9.158   8.711   6.866  0.1414 -0.3237  0.0085
  191POPC   C4B 2845   9.524   8.862   7.105  0.1069  0.5773 -0.0866
  192POPC   NC3 2846   8.203   0.168   4.523 -0.0898 -0.2079 -0.0785
  192POPC   PO4 2847   8.598   0.387   4.410  0.1818  0.1669 -0.0637
  192POPC   GL1 2848   8.536   0.385   4.920  0.1867 -0.1741  0.0527
  192POPC   GL2 2849   8.302   0.291   5.008 -0.1959 -0.1619  0.2245
  192POPC   C1A 2850   8.754   0.327   5.273 -0.1860 -0.0422  0.0452
  192POPC   D2A 2851   9.139   0.538   5.490 -0.2239 -0.2153  0.4793
  192POPC   C3A 2852   9.322   0.377   5.845  0.0013 -0.4753  0.3182
  192POPC   C4A 2853   9.250   0.511   6.220 -0.1224  0.2234  0.1481
  192POPC   C1B 2854   8.104   0.186   5.297 -0.0634  0.0155 -0.2104
  192POPC   C2B 2855   8.010   0.146   5.720 -0.0476  0.0564  0.1619
  192POPC   C3B 2856   7.921   0.330   6.289 -0.0563 -0.1199  0.1088
  192POPC   C4B 2857   7.798   0.354   6.643  0.0690  0.0299 -0.0097
  193POPC   NC3 2858   0.832   0.153   5.427  0.1502 -0.2138  0.0425
  193POPC   PO4 2859   0.468   0.292   5.177 -0.1220 -0.0962 -0.1122
  193POPC   GL1 2860   0.376   0.458   5.619 -0.0783  0.3751 -0.5185
  193POPC   GL2 2861   0.561   0.269   5.915 -0.1498 -0.1172 -0.0352
  193POPC   C1A 2862   0.044   0.740   5.805  0.3247 -0.1023 -0.0691
  193POPC   D2A 2863   0.058   0.978   6.222  0.0839  0.0100 -0.0774
  193POPC   C3A 2864   0.344   1.085   6.536 -0.2040  0.3498  0.1504
  193POPC   C4A 2865   0.480   1.362   6.907  0.0145 -0.2654  0.0557
  193POPC   C1B 2866   0.434   0.099   6.141 -0.2189  0.3126  0.0377
  193POPC   C2B 2867   0.482   0.152   6.568  0.0958 -0.1860 -0.4354
  193POPC   C3B 2868   0.400   0.538   6.776 -0.2315 -0.1222 -0.3502
  193POPC   C4B 2869   0.273   0.877   7.023  0.1314  0.0368 -0.3151
  194POPC   NC3 2870   2.010   6.405   4.542  0.0578  0.0757  0.5763
  194POPC   PO4 2871   1.665   6.479   4.942 -0.2238 -0.0544 -0.0483
  194POPC   GL1 2872   1.916   6.522   5.414  0.1469  0.1311 -0.0940
  194POPC   GL2 2873   2.205   6.757   5.444  0.0824  0.0925 -0.1172
  194POPC   C1A 2874   1.801   6.270   5.798 -0.1561  0.0561 -0.1885
  194POPC   D2A 2875   1.754   5.966   6.183  0.0885  0.1700 -0.0630
  194POPC   C3A 2876   1.575   6.046   6.547  0.1853 -0.1666 -0.0190
  194POPC   C4A 2877   1.601   6.450   6.833  0.2485 -0.3020 -0.0657
  194POPC   C1B 2878   2.273   6.955   5.936  0.3314 -0.1066  0.2000
  194POPC   C2B 2879   2.298   7.118   6.405 -0.0451 -0.3089  0.0934
  194POPC   C3B 2880   2.559   7.143   6.801 -0.3277  0.2008  0.3169
  194POPC   C4B 2881   3.050   7.073   6.829 -0.2983 -0.0444  0.1735
  195POPC   NC3 2882   8.960   4.579   4.068  0.0395 -0.0763  0.0590
  195POPC   PO4 2883   8.967   4.845   4.398  0.1578 -0.0641  0.2733
  195POPC   GL1 2884   8.784   4.758   4.842 -0.1090  0.0500  0.1334
  195POPC   GL2 2885   8.645   4.390   4.846  0.1418  0.1552 -0.0619
  195POPC   C1A 2886   8.966   4.493   5.233 -0.0052  0.0049  0.1644
  195POPC   D2A 2887   9.274   4.326   5.460 -0.2450  0.0362  0.3437
  195POPC   C3A 2888   9.588   4.566   5.635 -0.0087 -0.1116 -0.3260
  195POPC   C4A 2889   9.785   4.864   5.894  0.2203 -0.1293 -0.0738
  195POPC   C1B 2890   8.461   4.411   5.290 -0.0057  0.1065  0.0542
  195POPC   C2B 2891   8.020   4.489   5.460 -0.0021  0.2229 -0.1504
  195POPC   C3B 2892   7.617   4.292   5.539  0.2213  0.4324 -0.0927
  195POPC   C4B 2893   7.119   4.225   5.540  0.3377 -0.0028 -0.1867
  196POPC   NC3 2894   7.107   8.476   5.041 -0.0729 -0.0823 -0.3101
  196POPC   PO4 2895   7.539   8.461   5.247  0.5097  0.0696 -0.0728
  196POPC   GL1 2896   7.886   8.539   5.521 -0.0979 -0.2234  0.1018
  196POPC   GL2 2897   8.066   8.863   5.449  0.0929  0.1623  0.2200
  196POPC   C1A 2898   8.063   8.797   5.985  0.0821 -0.3229 -0.0472
  196POPC   D2A 2899   7.689   8.993   6.196  0.3310 -0.3580 -0.1084
  196POPC   C3A 2900   7.866   9.153   6.654 -0.1048  0.2956  0.1755
  196POPC   C4A 2901   8.343   9.080   6.819 -0.1180 -0.1070  0.0929
  196POPC   C1B 2902   7.701   9.041   5.711 -0.1400  0.3638 -0.2195
  196POPC   C2B 2903   7.428   9.323   5.726 -0.2937 -0.1375 -0.0223
  196POPC   C3B 2904   7.262   9.690   5.603  0.0323 -0.1241  0.1468
  196POPC   C4B 2905   7.274   9.969   5.284  0.2911 -0.0421 -0.3148
  197POPC   NC3 2906   2.444   8.010   5.320  0.0023 -0.0044  0.0354
  197POPC   PO4 2907   2.158   8.333   5.465  0.3941  0.1253  0.1405
  197POPC   GL1 2908   2.112   8.387   5.839  0.0917  0.0072 -0.0671
  197POPC   GL2 2909   1.899   8.736   5.896 -0.1759  0.0921  0.1763
  197POPC   C1A 2910   2.092   8.229   6.311 -0.2254  0.0964 -0.0118
  197POPC   D2A 2911   2.119   8.001   6.574 -0.0302 -0.0389 -0.3247
  197POPC   C3A 2912   2.323   8.100   6.813 -0.0553  0.1611  0.1738
  197POPC   C4A 2913   2.731   8.192   6.872 -0.1618  0.2371  0.0206
  197POPC   C1B 2914   1.750   8.601   6.268 -0.0114 -0.3380  0.1939
  197POPC   C2B 2915   1.671   8.367   6.659 -0.3111 -0.3920  0.0397
  197POPC   C3B 2916   1.534   8.472   6.969 -0.1571 -0.3317 -0.6310
  197POPC   C4B 2917   1.430   8.599   7.373 -0.1884 -0.5370  0.1804
  198POPC   NC3 2918   0.599   4.862   5.122  0.0433 -0.2792  0.0751
  198POPC   PO4 2919   0.788   5.300   5.031 -0.2688  0.4888  0.3136
  198POPC   GL1 2920   0.913   5.212   5.518 -0.0034  0.1868 -0.1581
  198POPC   GL2 2921   0.989   5.580   5.524  0.3463  0.1177 -0.1303
  198POPC   C1A 2922   1.189   5.249   5.939 -0.2472  0.0418 -0.0510
  198POPC   D2A 2923   0.973   5.133   6.273  0.1832  0.1301 -0.0951
  198POPC   C3A 2924   1.136   5.371   6.491 -0.1230 -0.1871  0.0851
  198POPC   C4A 2925   1.261   5.687   6.634  0.2193  0.1266 -0.2010
  198POPC   C1B 2926   1.310   5.828   5.648  0.1864 -0.1711  0.2460
  198POPC   C2B 2927   1.334   6.321   5.760 -0.0812 -0.0997 -0.1365
  198POPC   C3B 2928   1.080   6.669   5.806  0.2968 -0.0651  0.0125
  198POPC   C4B 2929   0.770   6.991   5.916 -0.3158  0.1458  0.3468
  199POPC   NC3 2930   6.420   9.216   4.635 -0.1744 -0.1161 -0.1680
  199POPC   PO4 2931   6.182   9.300   5.047 -0.0743 -0.0860 -0.0337
  199POPC   GL1 2932   6.338   9.394   5.512 -0.0412  0.0217 -0.4602
  199POPC   GL2 2933   6.539   9.204   5.633 -0.2690  0.1878 -0.2113
  199POPC   C1A 2934   6.181   9.655   5.923  0.1392 -0.0663 -0.0284
  199POPC   D2A 2935   6.111   9.821   6.353 -0.1774 -0.0166  0.0426
  199POPC   C3A 2936   6.298  10.098   6.266  0.0272  0.2896  0.0677
  199POPC   C4A 2937   6.694  10.094   6.176  0.4420  0.0052 -0.0249
  199POPC   C1B 2938   6.921   9.361   5.735  0.1417  0.0216 -0.0086
  199POPC   C2B 2939   7.166   9.420   6.177  0.2456 -0.0286  0.2466
  199POPC   C3B 2940   7.211   9.143   6.541  0.5012 -0.1972  0.1377
  199POPC   C4B 2941   7.014   9.191   6.956 -0.1392  0.1208 -0.0231
  200POPC   NC3 2942   7.806   8.678   4.874 -0.0001  0.3628  0.2576
  200POPC   PO4 2943   7.937   9.153   5.024 -0.0679  0.1174 -0.4508
  200POPC   GL1 2944   8.155   9.505   5.189 -0.3754 -0.1296 -0.0614
  200POPC   GL2 2945   8.123   9.822   5.396 -0.2173 -0.0480 -0.2288
  200POPC   C1A 2946   8.276   9.376   5.598 -0.2314  0.0365  0.0998
  200POPC   D2A 2947   8.141   9.375   5.969  0.1564 -0.0278  0.3189
  200POPC   C3A 2948   8.342   9.036   6.321 -0.0407 -0.3237  0.0465
  200POPC   C4A 2949   8.334   8.565   6.315 -0.2902  0.0189  0.1997
  200POPC   C1B 2950   7.829   9.762   5.741 -0.0271  0.0332  0.0990
  200POPC   C2B 2951   7.658   9.565   6.121 -0.2335  0.0041  0.0719
  200POPC   C3B 2952   7.514   9.628   6.462 -0.0985 -0.0741  0.2797
  200POPC   C4B 2953   7.496   9.577   6.818 -0.1390  0.2053  0.0112
  201POPC   NC3 2954   3.147   9.195   5.297  0.1033  0.1862  0.0023
  201POPC   PO4 2955   2.799   9.010   5.341  0.1917 -0.0161 -0.0648
  201POPC   GL1 2956   2.536   9.070   5.782 -0.0592  0.3414  0.0819
  201POPC   GL2 2957   2.196   9.118   5.835 -0.3816  0.0948 -0.0190
  201POPC   C1A 2958   2.490   9.234   6.257 -0.1241 -0.0942  0.0607
  201POPC   D2A 2959   2.512   9.080   6.637 -0.0482 -0.2912 -0.0175
  201POPC   C3A 2960   2.601   9.342   6.959 -0.0357  0.2243 -0.0709
  201POPC   C4A 2961   2.687   9.361   7.430 -0.2104  0.3259  0.2234
  201POPC   C1B 2962   1.960   9.376   5.999  0.0263 -0.0301 -0.3001
  201POPC   C2B 2963   1.827   9.443   6.399  0.5089  0.0600  0.1365
  201POPC   C3B 2964   1.434   9.552   6.554  0.0192 -0.5053  0.0775
  201POPC   C4B 2965   1.382   9.797   6.895  0.2784 -0.0677  0.4875
  202POPC   NC3 2966   1.502   9.573   5.166  0.3167  0.0029  0.0260
  202POPC   PO4 2967   1.251  10.025   5.255 -0.2008  0.3351  0.0135
  202POPC   GL1 2968   1.451  10.264   5.476 -0.1019  0.2661 -0.0541
  202POPC   GL2 2969   1.232  10.509   5.725 -0.1644 -0.0477  0.1408
  202POPC   C1A 2970   1.698  10.316   5.861  0.3003  0.1124 -0.0499
  202POPC   D2A 2971   1.706   9.961   6.232  0.0905 -0.2539 -0.1117
  202POPC   C3A 2972   1.622  10.144   6.606  0.1772 -0.2930  0.0403
  202POPC   C4A 2973   1.623  10.423   7.006  0.3882 -0.2356 -0.1830
  202POPC   C1B 2974   1.000  10.708   5.973  0.4235  0.2611  0.0092
  202POPC   C2B 2975   0.638  10.765   6.256 -0.0315  0.0099  0.2154
  202POPC   C3B 2976   0.332  10.705   6.304  0.2599  0.1249  0.2920
  202POPC   C4B 2977  -0.013  10.296   6.453 -0.2597 -0.0512  0.3361
  203POPC   NC3 2978   2.422   4.140   4.787 -0.0130  0.3372 -0.1351
  203POPC   PO4 2979   2.747   4.061   5.094 -0.2153  0.0815  0.3215
  203POPC   GL1 2980   2.920   3.996   5.450  0.1978  0.0729 -0.0137
  203POPC   GL2 2981   2.769   3.942   5.671  0.0641 -0.1638  0.2536
  203POPC   C1A 2982   3.308   3.945   5.701 -0.0385  0.1743 -0.3546
  203POPC   D2A 2983   3.531   3.593   5.809  0.0729  0.0491 -0.1130
  203POPC   C3A 2984   3.959   3.652   6.160  0.1222  0.0826 -0.3637
  203POPC   C4A 2985   4.240   3.683   6.516 -0.2203 -0.0722 -0.0670
  203POPC   C1B 2986   2.725   4.038   6.109  0.4484 -0.3101 -0.0963
  203POPC   C2B 2987   2.945   4.014   6.493 -0.0660  0.1334  0.3022
  203POPC   C3B 2988   3.297   3.935   6.788 -0.1960  0.1438  0.0644
  203POPC   C4B 2989   3.565   3.817   7.254 -0.1303 -0.0609 -0.0974
  204POPC   NC3 2990   0.313   7.734   4.416 -0.1590  0.0328  0.3115
  204POPC   PO4 2991   0.540   7.406   4.758 -0.1815 -0.2414 -0.0156
  204POPC   GL1 2992   0.338   7.282   5.225 -0.0155 -0.2806  0.2135
  204POPC   GL2 2993   0.036   7.347   5.344  0.2047  0.2345  0.2526
  204POPC   C1A 2994   0.341   6.968   5.560 -0.2428 -0.0349  0.0988
  204POPC   D2A 2995   0.156   6.718   5.804 -0.0059  0.1159 -0.1755
  204POPC   C3A 2996   0.308   6.756   6.201  0.3010  0.0167  0.1062
  204POPC   C4A 2997   0.753   6.598   6.265  0.5658 -0.0384 -0.1227
  204POPC   C1B 2998   0.084   7.314   5.730 -0.1419 -0.4165  0.0197
  204POPC   C2B 2999   0.399   7.395   5.998  0.1517  0.0492 -0.1056
  204POPC   C3B 3000   0.577   7.168   6.324 -0.1662  0.0167  0.1428
  204POPC   C4B 3001   0.480   6.937   6.717  0.0742  0.0899 -0.2411
  205POPC   NC3 3002   6.657   9.191   5.163  0.1705  0.1773  0.0144
  205POPC   PO4 3003   6.687   8.760   5.209  0.0376 -0.0254  0.2087
  205POPC   GL1 3004   6.381   8.683   5.590 -0.0553 -0.1528  0.0338
  205POPC   GL2 3005   6.485   8.374   5.785  0.3966  0.0280 -0.5115
  205POPC   C1A 3006   6.207   8.943   5.966 -0.3523 -0.1409 -0.0058
  205POPC   D2A 3007   6.270   8.842   6.401 -0.0981 -0.0415  0.1000
  205POPC   C3A 3008   6.153   9.111   6.791 -0.1612 -0.0884  0.3677
  205POPC   C4A 3009   6.111   9.116   7.201 -0.0904 -0.0169  0.5914
  205POPC   C1B 3010   6.412   8.355   6.232  0.0097  0.0962 -0.1264
  205POPC   C2B 3011   6.067   8.181   6.555 -0.3193 -0.0375  0.0378
  205POPC   C3B 3012   5.962   7.985   6.927  0.1941 -0.0276 -0.2365
  205POPC   C4B 3013   5.894   7.847   7.357 -0.3243 -0.0619 -0.2521
  206POPC   NC3 3014   5.402   6.807   5.276 -0.0910  0.0749 -0.3430
  206POPC   PO4 3015   5.162   6.486   5.029  0.1286 -0.0279  0.0147
  206POPC   GL1 3016   5.038   6.283   5.507  0.0557 -0.2032  0.2860
  206POPC   GL2 3017   4.847   6.003   5.506  0.2106 -0.1094 -0.1937
  206POPC   C1A 3018   4.960   6.239   5.943  0.1968 -0.2008  0.1444
  206POPC   D2A 3019   4.954   6.251   6.417  0.1339 -0.0254  0.1118
  206POPC   C3A 3020   5.253   6.251   6.732  0.0821  0.1204 -0.1806
  206POPC   C4A 3021   5.336   5.899   6.662  0.0491  0.3677 -0.1074
  206POPC   C1B 3022   5.049   5.585   5.683 -0.1313  0.1559 -0.1057
  206POPC   C2B 3023   4.916   5.393   6.248 -0.3325  0.0048  0.1680
  206POPC   C3B 3024   5.015   5.199   6.700 -0.1286  0.1660 -0.0643
  206POPC   C4B 3025   5.199   5.390   7.124 -0.3841 -0.1996 -0.1419
  207POPC   NC3 3026   4.223   7.460   4.736  0.0142  0.1040  0.1877
  207POPC   PO4 3027   4.298   7.494   5.192  0.0427 -0.2278 -0.1467
  207POPC   GL1 3028   4.208   7.503   5.600 -0.1557  0.1429  0.1550
  207POPC   GL2 3029   4.197   7.220   5.811  0.2467 -0.1662 -0.0075
  207POPC   C1A 3030   4.049   7.736   5.898  0.3466 -0.0652 -0.2673
  207POPC   D2A 3031   4.111   7.736   6.352  0.2148 -0.0383 -0.3296
  207POPC   C3A 3032   3.918   7.502   6.651  0.2023 -0.0354  0.0157
  207POPC   C4A 3033   3.471   7.616   6.683 -0.1642 -0.1190 -0.0813
  207POPC   C1B 3034   3.916   7.222   6.125  0.1450 -0.1701 -0.2347
  207POPC   C2B 3035   3.643   7.143   6.507  0.1729  0.1157 -0.0819
  207POPC   C3B 3036   3.603   7.195   6.920 -0.2316 -0.2089  0.0225
  207POPC   C4B 3037   3.742   7.187   7.409 -0.2927  0.0812  0.0162
  208POPC   NC3 3038   1.049   9.501   4.440 -0.0543  0.2255  0.0104
  208POPC   PO4 3039   1.002   9.553   4.976  0.0175  0.2328  0.0388
  208POPC   GL1 3040   1.102   9.544   5.421  0.2344  0.0355  0.1875
  208POPC   GL2 3041   1.110   9.756   5.670 -0.1191  0.1267 -0.0110
  208POPC   C1A 3042   0.780   9.324   5.735  0.1800  0.0287  0.0531
  208POPC   D2A 3043   0.394   9.073   5.712  0.0302  0.0779 -0.2565
  208POPC   C3A 3044   0.368   8.615   5.776  0.0437 -0.1615  0.0696
  208POPC   C4A 3045   0.406   8.163   5.741 -0.1332  0.0935 -0.0587
  208POPC   C1B 3046   1.227  10.072   5.983 -0.1508 -0.0746  0.2256
  208POPC   C2B 3047   1.354  10.441   6.214  0.2028  0.3290  0.1247
  208POPC   C3B 3048   1.730  10.645   6.417  0.2633  0.0541  0.0222
  208POPC   C4B 3049   1.947  10.813   6.081  0.3170 -0.2073  0.2110
  209POPC   NC3 3050   0.942   1.060   4.982 -0.5275 -0.1069  0.0513
  209POPC   PO4 3051   0.774   0.659   5.066  0.0989  0.1329  0.0392
  209POPC   GL1 3052   0.839   0.635   5.500 -0.1118  0.3487 -0.0061
  209POPC   GL2 3053   0.605   0.930   5.509  0.0617 -0.2565 -0.0529
  209POPC   C1A 3054   1.063   0.941   5.695  0.1383 -0.0258  0.1698
  209POPC   D2A 3055   1.261   1.233   6.088  0.1091 -0.2331 -0.0904
  209POPC   C3A 3056   1.372   1.246   6.518  0.4389 -0.0051 -0.0656
  209POPC   C4A 3057   1.769   1.251   6.817  0.1801  0.3302  0.1961
  209POPC   C1B 3058   0.591   1.018   5.957  0.0330 -0.0788  0.0016
  209POPC   C2B 3059   0.805   1.062   6.323  0.2430 -0.0287  0.1516
  209POPC   C3B 3060   0.915   1.372   6.663  0.1892  0.0366  0.2041
  209POPC   C4B 3061   0.864   1.621   7.058 -0.0160  0.0021 -0.2000
  210POPC   NC3 3062   2.979   2.947   4.659 -0.0288 -0.2180  0.1593
  210POPC   PO4 3063   3.289   2.687   4.799 -0.0250 -0.2302  0.3457
  210POPC   GL1 3064   3.352   2.457   5.253  0.2453  0.1640  0.0370
  210POPC   GL2 3065   3.203   2.636   5.531  0.2297 -0.0799 -0.2343
  210POPC   C1A 3066   3.649   2.472   5.610  0.2662  0.1834 -0.1200
  210POPC   D2A 3067   3.747   2.673   6.019 -0.0291 -0.0221 -0.2486
  210POPC   C3A 3068   3.545   2.671   6.368  0.0037  0.1867 -0.0757
  210POPC   C4A 3069   3.617   2.704   6.788  0.0878 -0.0890 -0.1921
  210POPC   C1B 3070   3.181   2.727   5.951 -0.3827 -0.0302 -0.0597
  210POPC   C2B 3071   3.120   2.888   6.365  0.0889  0.0722 -0.2014
  210POPC   C3B 3072   3.364   3.068   6.654 -0.0722  0.2157  0.0565
  210POPC   C4B 3073   3.258   3.024   7.030  0.2548 -0.1857 -0.0413
  211POPC   NC3 3074   1.971   2.118   5.023 -0.1499 -0.0151 -0.0633
  211POPC   PO4 3075   1.856   2.563   4.941 -0.0240 -0.2681 -0.0709
  211POPC   GL1 3076   1.965   2.499   5.331 -0.0699 -0.0154 -0.3184
  211POPC   GL2 3077   1.849   2.825   5.597 -0.0454  0.3539 -0.1824
  211POPC   C1A 3078   2.092   2.460   5.741  0.2845 -0.3529 -0.0621
  211POPC   D2A 3079   2.270   2.503   6.071 -0.1728  0.2280 -0.0272
  211POPC   C3A 3080   2.022   2.231   6.362  0.0186  0.2239  0.0900
  211POPC   C4A 3081   1.633   2.377   6.330 -0.0154 -0.1532  0.1508
  211POPC   C1B 3082   1.839   2.770   6.064  0.0320  0.1183  0.1800
  211POPC   C2B 3083   2.129   2.787   6.442  0.0123  0.1878  0.0677
  211POPC   C3B 3084   2.094   2.972   6.821 -0.0587 -0.1448 -0.1345
  211POPC   C4B 3085   2.201   3.404   7.049 -0.0325 -0.0885  0.0347
  212POPC   NC3 3086   4.343   5.580   4.922  0.2821  0.1596  0.2208
  212POPC   PO4 3087   3.959   5.567   5.277 -0.1453 -0.0403 -0.1362
  212POPC   GL1 3088   4.100   5.658   5.649 -0.1858 -0.1107 -0.0067
  212POPC   GL2 3089   4.157   5.923   5.781  0.0433  0.0925  0.0956
  212POPC   C1A 3090   4.122   5.335   5.960 -0.1318  0.1239 -0.2142
  212POPC   D2A 3091   3.939   5.182   6.298 -0.1412 -0.0755  0.3340
  212POPC   C3A 3092   3.736   5.317   6.600 -0.1443  0.3584 -0.1561
  212POPC   C4A 3093   4.009   5.512   6.800  0.0684  0.0766 -0.0419
  212POPC   C1B 3094   4.514   5.911   5.856  0.0382  0.0332  0.2049
  212POPC   C2B 3095   4.698   5.832   6.284  0.4490  0.0034  0.0544
  212POPC   C3B 3096   4.822   5.823   6.701  0.1312  0.1692 -0.0195
  212POPC   C4B 3097   4.890   6.012   7.096 -0.0289  0.1538  0.1315
  213POPC   NC3 3098   1.686   2.981   4.706 -0.2001  0.2008  0.2431
  213POPC   PO4 3099   1.295   3.100   4.710  0.5202 -0.2459 -0.0664
  213POPC   GL1 3100   1.516   2.932   5.156 -0.1640 -0.0592 -0.2376
  213POPC   GL2 3101   1.596   3.202   5.389  0.0071 -0.0085 -0.0957
  213POPC   C1A 3102   1.252   2.796   5.586 -0.1350  0.0110 -0.1340
  213POPC   D2A 3103   1.318   2.710   5.899 -0.0903  0.1575 -0.4294
  213POPC   C3A 3104   1.143   2.629   6.371  0.0436  0.0624 -0.3966
  213POPC   C4A 3105   0.733   2.757   6.501 -0.0768 -0.0978 -0.0675
  213POPC   C1B 3106   1.374   3.269   5.796  0.0247 -0.0820  0.0346
  213POPC   C2B 3107   1.262   3.094   6.260  0.1920  0.0839 -0.2339
  213POPC   C3B 3108   1.576   2.877   6.622  0.0746  0.1529  0.2736
  213POPC   C4B 3109   1.870   2.533   6.751 -0.1142 -0.3624 -0.3548
  214POPC   NC3 3110   2.767  10.041   5.254 -0.0679 -0.1748  0.1516
  214POPC   PO4 3111   2.621  10.371   5.124 -0.0370 -0.0329 -0.3204
  214POPC   GL1 3112   2.742  10.542   5.484 -0.0331 -0.1747  0.2388
  214POPC   GL2 3113   3.062  10.378   5.463  0.2214 -0.0415 -0.1296
  214POPC   C1A 3114   2.894  10.577   5.890 -0.2044 -0.0300 -0.1990
  214POPC   D2A 3115   3.182  10.749   6.223  0.0077  0.1008  0.1072
  214POPC   C3A 3116   3.239  11.145   6.520 -0.4479 -0.0284 -0.0710
  214POPC   C4A 3117   3.387  11.212   6.877  0.0938  0.2050  0.0223
  214POPC   C1B 3118   2.936  10.097   5.839  0.3478  0.1367 -0.0718
  214POPC   C2B 3119   2.701   9.959   6.258 -0.2423 -0.2651 -0.1497
  214POPC   C3B 3120   2.575  10.236   6.702 -0.0457 -0.0395  0.3911
  214POPC   C4B 3121   2.731  10.511   6.997  0.2523 -0.2003 -0.0181
  215POPC   NC3 3122   5.413   9.454   4.496  0.1493 -0.3830  0.0544
  215POPC   PO4 3123   5.261   9.293   4.981 -0.0012  0.0291 -0.3443
  215POPC   GL1 3124   5.018   9.404   5.418 -0.3065  0.0677  0.1643
  215POPC   GL2 3125   5.360   9.342   5.459  0.1018  0.5314 -0.0770
  215POPC   C1A 3126   5.030   9.662   5.732 -0.1062 -0.1424  0.1369
  215POPC   D2A 3127   4.778   9.952   6.048  0.1466 -0.2077  0.0099
  215POPC   C3A 3128   4.604   9.881   6.532  0.1127  0.1026 -0.0633
  215POPC   C4A 3129   4.512  10.212   6.834 -0.1435 -0.0075  0.5450
  215POPC   C1B 3130   5.271   9.183   5.813 -0.0553  0.1286  0.2213
  215POPC   C2B 3131   5.161   9.344   6.108  0.3596  0.2397 -0.2086
  215POPC   C3B 3132   5.016   9.699   6.388  0.1006 -0.0349  0.0922
  215POPC   C4B 3133   4.928   9.645   6.839  0.0116 -0.0364  0.2364
  216POPC   NC3 3134   1.323   8.397   4.773 -0.0049 -0.0861  0.2880
  216POPC   PO4 3135   1.134   8.593   5.075  0.0585  0.0562 -0.0914
  216POPC   GL1 3136   1.295   8.609   5.448 -0.0509  0.0051  0.0236
  216POPC   GL2 3137   1.445   8.422   5.648 -0.2010  0.2960  0.0886
  216POPC   C1A 3138   1.240   8.671   5.960  0.1791  0.2418 -0.1396
  216POPC   D2A 3139   1.324   8.452   6.288 -0.0289 -0.0183  0.1985
  216POPC   C3A 3140   1.183   8.543   6.638  0.0157  0.3493  0.0250
  216POPC   C4A 3141   1.097   8.826   6.864  0.0281 -0.0507 -0.1781
  216POPC   C1B 3142   1.666   8.157   6.049 -0.3205 -0.0929 -0.3401
  216POPC   C2B 3143   1.590   7.929   6.482  0.4178 -0.1452  0.1658
  216POPC   C3B 3144   1.660   7.857   6.820 -0.0614 -0.0894  0.1187
  216POPC   C4B 3145   1.608   7.602   7.142 -0.0953 -0.3517 -0.2839
  217POPC   NC3 3146  10.013   3.642   4.512 -0.2534 -0.1763  0.0670
  217POPC   PO4 3147   9.503   3.757   4.370 -0.2128  0.0205 -0.0643
  217POPC   GL1 3148   9.372   3.788   4.808 -0.0348 -0.1788 -0.2391
  217POPC   GL2 3149   9.557   3.461   4.917 -0.2169 -0.1796 -0.0721
  217POPC   C1A 3150   9.428   3.733   5.294  0.1251 -0.0104 -0.0824
  217POPC   D2A 3151   9.236   3.672   5.732 -0.2684 -0.2220 -0.2390
  217POPC   C3A 3152   9.453   3.564   6.183  0.0032  0.0413  0.0139
  217POPC   C4A 3153   9.699   3.291   6.588  0.3172  0.0434 -0.0541
  217POPC   C1B 3154   9.026   3.524   5.052  0.0156 -0.2582 -0.0547
  217POPC   C2B 3155   8.558   3.600   5.178 -0.1710 -0.0863  0.2490
  217POPC   C3B 3156   8.278   3.509   5.407 -0.0977  0.1006 -0.2724
  217POPC   C4B 3157   7.907   3.373   5.264  0.1255 -0.1675  0.0508
  218POPC   NC3 3158   8.609   7.190   5.680  0.0435  0.1374 -0.1508
  218POPC   PO4 3159   8.170   7.276   5.614  0.3296 -0.4004 -0.0475
  218POPC   GL1 3160   8.161   7.098   6.022 -0.0476 -0.0114 -0.3334
  218POPC   GL2 3161   8.433   7.249   6.169 -0.1085  0.2791 -0.0842
  218POPC   C1A 3162   8.189   6.805   6.368  0.0112 -0.3482 -0.1052
  218POPC   D2A 3163   8.236   6.411   6.744 -0.1646 -0.0371  0.0578
  218POPC   C3A 3164   8.501   6.408   7.133  0.0930  0.1269 -0.0393
  218POPC   C4A 3165   8.956   6.503   7.311 -0.5164 -0.0564  0.0036
  218POPC   C1B 3166   8.657   7.395   6.620 -0.0061 -0.1655  0.0957
  218POPC   C2B 3167   8.443   7.352   7.066 -0.1934  0.1611  0.1278
  218POPC   C3B 3168   8.610   7.394   7.487  0.0519  0.1679 -0.0526
  218POPC   C4B 3169   8.602   7.215   7.912 -0.0451 -0.1990  0.0110
  219POPC   NC3 3170   6.009   5.727   4.672  0.0683  0.0910 -0.2955
  219POPC   PO4 3171   6.311   5.432   4.457 -0.2506  0.2269 -0.0737
  219POPC   GL1 3172   6.359   5.312   4.949  0.0573  0.2660 -0.3562
  219POPC   GL2 3173   6.290   5.004   4.793  0.4791 -0.0700 -0.1735
  219POPC   C1A 3174   6.450   5.021   5.385  0.0996 -0.2268  0.2734
  219POPC   D2A 3175   6.340   5.063   5.846 -0.0094  0.1239 -0.1489
  219POPC   C3A 3176   6.398   4.727   6.110 -0.1645  0.1418  0.0955
  219POPC   C4A 3177   6.482   4.426   6.355 -0.5330  0.1972 -0.1431
  219POPC   C1B 3178   6.321   4.617   5.016  0.1017 -0.2978  0.0901
  219POPC   C2B 3179   6.069   4.368   5.264  0.2365 -0.1025  0.0669
  219POPC   C3B 3180   5.639   4.439   5.446 -0.0315  0.2121 -0.1162
  219POPC   C4B 3181   5.632   4.578   5.864 -0.2761  0.0503 -0.3384
  220POPC   NC3 3182   9.669   2.392   4.652  0.4042 -0.1813  0.2643
  220POPC   PO4 3183   9.866   2.785   4.654  0.1997 -0.0933  0.1030
  220POPC   GL1 3184   9.580   2.928   5.007 -0.1201  0.2956 -0.4691
  220POPC   GL2 3185   9.242   3.019   4.907  0.2227  0.2298 -0.2259
  220POPC   C1A 3186   9.586   2.787   5.378 -0.0345  0.0143 -0.2068
  220POPC   D2A 3187   9.882   2.909   5.665  0.1535  0.3442 -0.0152
  220POPC   C3A 3188  10.083   3.280   5.391  0.0901 -0.0337 -0.2421
  220POPC   C4A 3189   9.929   3.613   5.289  0.0301  0.1470  0.0201
  220POPC   C1B 3190   9.060   3.117   5.379 -0.1519  0.2740 -0.0385
  220POPC   C2B 3191   8.846   2.733   5.581  0.3505 -0.1009 -0.1343
  220POPC   C3B 3192   8.436   2.682   5.794 -0.0656 -0.1408 -0.2075
  220POPC   C4B 3193   8.090   2.769   6.006 -0.1467  0.0268  0.0418
  221POPC   NC3 3194   4.685   5.332   4.331  0.2552 -0.0004  0.0691
  221POPC   PO4 3195   5.107   5.410   4.581  0.2416  0.2017 -0.4862
  221POPC   GL1 3196   5.109   5.188   5.036 -0.0091 -0.0340  0.4048
  221POPC   GL2 3197   5.381   4.985   4.836  0.1496 -0.0326  0.0031
  221POPC   C1A 3198   5.007   5.114   5.416  0.0894 -0.2168 -0.3456
  221POPC   D2A 3199   4.739   4.901   5.611 -0.2561  0.2073 -0.0711
  221POPC   C3A 3200   4.940   4.988   5.938  0.3259 -0.2954  0.1662
  221POPC   C4A 3201   4.861   4.832   6.328  0.0133 -0.1685 -0.2340
  221POPC   C1B 3202   5.489   4.896   5.313 -0.1143 -0.0179  0.0917
  221POPC   C2B 3203   5.276   4.745   5.610 -0.0225  0.0772 -0.1497
  221POPC   C3B 3204   5.178   4.560   5.965 -0.2064 -0.0624  0.1636
  221POPC   C4B 3205   5.332   4.274   6.199 -0.1539  0.2162 -0.0855
  222POPC   NC3 3206  10.051   5.913   5.289 -0.0675 -0.1018 -0.3569
  222POPC   PO4 3207  10.106   5.593   5.137 -0.0772  0.0701  0.1092
  222POPC   GL1 3208  10.224   5.523   5.587 -0.0640  0.0914  0.0669
  222POPC   GL2 3209  10.016   5.635   5.760  0.1917 -0.1128 -0.0649
  222POPC   C1A 3210  10.175   5.211   6.021  0.1744 -0.1231  0.1881
  222POPC   D2A 3211  10.383   5.103   6.405 -0.2917 -0.0869  0.1757
  222POPC   C3A 3212  10.310   5.394   6.743 -0.4198 -0.1011  0.0857
  222POPC   C4A 3213  10.586   5.594   6.950 -0.3029  0.1611  0.0752
  222POPC   C1B 3214   9.999   5.900   6.041  0.2284 -0.1462 -0.1697
  222POPC   C2B 3215   9.782   6.218   6.378 -0.0378  0.0557  0.2021
  222POPC   C3B 3216   9.566   6.296   6.798  0.0311 -0.2984 -0.3244
  222POPC   C4B 3217   9.204   6.206   7.034 -0.1695 -0.3086  0.1637
  223POPC   NC3 3218   8.362   3.878   4.054  0.2237  0.0267 -0.0624
  223POPC   PO4 3219   8.596   4.249   4.112  0.0184 -0.1532  0.2125
  223POPC   GL1 3220   8.521   4.101   4.504  0.0910  0.1854  0.0957
  223POPC   GL2 3221   8.625   3.918   4.729  0.0505  0.0228  0.0939
  223POPC   C1A 3222   8.210   4.106   4.889  0.1300 -0.4023 -0.0986
  223POPC   D2A 3223   8.105   4.008   5.299 -0.1526  0.0918 -0.1310
  223POPC   C3A 3224   8.473   4.046   5.580  0.0578  0.0331 -0.2893
  223POPC   C4A 3225   8.857   4.148   5.845  0.0012  0.0921  0.1176
  223POPC   C1B 3226   8.943   4.043   5.036 -0.0353  0.0005  0.1558
  223POPC   C2B 3227   8.939   3.940   5.430 -0.1425  0.3539 -0.0574
  223POPC   C3B 3228   8.777   3.490   5.609  0.0621  0.0992 -0.0993
  223POPC   C4B 3229   8.572   3.194   5.846  0.0721  0.1421  0.1939
  224POPC   NC3 3230   0.264   6.506   4.726  0.0870  0.0611  0.1791
  224POPC   PO4 3231   0.290   6.200   5.122 -0.0139  0.0576 -0.1279
  224POPC   GL1 3232   0.304   6.281   5.494  0.4070 -0.3852  0.0162
  224POPC   GL2 3233   0.303   5.924   5.593  0.0963 -0.2836  0.2348
  224POPC   C1A 3234   0.170   6.273   6.003 -0.5076  0.4256  0.2723
  224POPC   D2A 3235   0.158   6.270   6.403 -0.1821 -0.0022 -0.6658
  224POPC   C3A 3236   0.124   5.832   6.444  0.2609  0.0104  0.0829
  224POPC   C4A 3237  -0.143   5.473   6.390  0.3554 -0.0167 -0.1210
  224POPC   C1B 3238   0.366   5.753   6.011  0.0988 -0.2781  0.1647
  224POPC   C2B 3239   0.560   5.577   6.409  0.0610 -0.0821 -0.0767
  224POPC   C3B 3240   0.676   5.210   6.682 -0.0896 -0.0075  0.0046
  224POPC   C4B 3241   0.930   5.204   7.099  0.0258  0.1241 -0.0934
  225POPC   NC3 3242   9.694   2.925   4.122 -0.0381  0.3028 -0.1624
  225POPC   PO4 3243   9.402   2.847   4.461  0.1897 -0.0297 -0.2389
  225POPC   GL1 3244   9.150   2.562   4.784  0.0859 -0.0057 -0.1897
  225POPC   GL2 3245   9.284   2.469   5.069 -0.0111  0.0517 -0.1552
  225POPC   C1A 3246   8.767   2.533   5.029  0.0198 -0.4129  0.2924
  225POPC   D2A 3247   8.312   2.674   5.124  0.1475  0.0706 -0.0009
  225POPC   C3A 3248   8.090   3.008   4.947  0.0522 -0.0897 -0.3279
  225POPC   C4A 3249   8.187   3.441   4.857  0.0713 -0.1569 -0.3183
  225POPC   C1B 3250   8.983   2.279   5.426  0.0971  0.0489 -0.0904
  225POPC   C2B 3251   8.997   2.344   5.888  0.1449 -0.3334 -0.3640
  225POPC   C3B 3252   8.867   2.474   6.256 -0.0161  0.0743  0.0884
  225POPC   C4B 3253   8.469   2.570   6.440 -0.1991 -0.1623 -0.1359
  226POPC   NC3 3254   5.303   3.572   7.305 -0.1345  0.0202  0.0639
  226POPC   PO4 3255   5.234   3.201   7.162  0.1618 -0.0793  0.1154
  226POPC   GL1 3256   4.929   3.434   7.006  0.3140 -0.2363  0.0108
  226POPC   GL2 3257   4.867   3.418   7.447  0.3989  0.0387 -0.0001
  226POPC   C1A 3258   4.497   3.598   6.949 -0.0604  0.3715 -0.1024
  226POPC   D2A 3259   4.065   3.601   7.029 -0.0474  0.0005  0.0772
  226POPC   C3A 3260   3.812   3.853   6.771 -0.3364 -0.4393 -0.1346
  226POPC   C4A 3261   3.972   4.146   6.450 -0.3253 -0.1764 -0.1691
  226POPC   C1B 3262   4.684   3.843   7.392  0.0201 -0.3553 -0.0848
  226POPC   C2B 3263   4.842   4.147   7.292 -0.1380  0.0639  0.1296
  226POPC   C3B 3264   4.759   4.469   7.036  0.0753 -0.0678  0.0838
  226POPC   C4B 3265   4.661   4.940   6.859  0.2782  0.0997 -0.0377
  227POPC   NC3 3266   5.904   4.173   3.788  0.0031  0.3606  0.1102
  227POPC   PO4 3267   5.951   3.717   3.522 -0.1658  0.2559 -0.1713
  227POPC   GL1 3268   6.098   3.535   3.892  0.1125 -0.3871  0.1492
  227POPC   GL2 3269   5.893   3.622   4.146  0.1536 -0.1443  0.3157
  227POPC   C1A 3270   6.565   3.627   4.035  0.0263  0.0714  0.0327
  227POPC   D2A 3271   6.831   3.467   4.405  0.2277 -0.0015  0.2255
  227POPC   C3A 3272   6.650   3.472   4.871 -0.0581 -0.4968 -0.3622
  227POPC   C4A 3273   6.690   3.511   5.243 -0.1997 -0.0620  0.3642
  227POPC   C1B 3274   5.749   3.673   4.581 -0.1672  0.2033 -0.0468
  227POPC   C2B 3275   5.766   3.667   4.962 -0.3893 -0.1257 -0.2390
  227POPC   C3B 3276   6.088   3.448   5.247  0.0677 -0.0382 -0.3451
  227POPC   C4B 3277   6.329   3.469   5.642 -0.0299 -0.2436 -0.0186
  228POPC   NC3 3278   0.184   4.025   4.525  0.0811 -0.2908 -0.1241
  228POPC   PO4 3279   0.247   4.097   4.944 -0.1569  0.1725 -0.1695
  228POPC   GL1 3280   0.116   4.047   5.353  0.3046 -0.0617 -0.2696
  228POPC   GL2 3281   0.223   4.210   5.603  0.0368  0.2116 -0.2048
  228POPC   C1A 3282  -0.393   4.031   5.559 -0.1727  0.2070 -0.2727
  228POPC   D2A 3283  -0.649   4.059   5.801  0.1465 -0.0398  0.0561
  228POPC   C3A 3284  -0.757   4.144   6.191  0.0683 -0.0346  0.2965
  228POPC   C4A 3285  -0.859   4.270   6.655 -0.4491  0.2499 -0.1222
  228POPC   C1B 3286  -0.231   4.284   5.924 -0.0643 -0.3146  0.0417
  228POPC   C2B 3287  -0.258   3.948   6.229 -0.2149  0.2134 -0.2512
  228POPC   C3B 3288  -0.367   3.838   6.588  0.1175  0.0215 -0.4299
  228POPC   C4B 3289  -0.371   4.061   6.975 -0.1271  0.1923  0.4014
  229POPC   NC3 3290   4.056   5.192   4.806 -0.1384 -0.2344 -0.0792
  229POPC   PO4 3291   4.332   4.986   4.455 -0.1175  0.3198 -0.1287
  229POPC   GL1 3292   4.378   4.766   4.789  0.0310  0.2767 -0.0338
  229POPC   GL2 3293   4.243   4.482   4.824  0.2520  0.0924 -0.0879
  229POPC   C1A 3294   4.400   4.698   5.273 -0.0283 -0.0868 -0.2828
  229POPC   D2A 3295   4.357   4.569   5.655  0.0339 -0.1984 -0.1118
  229POPC   C3A 3296   4.664   4.549   5.914 -0.3240  0.2828  0.0277
  229POPC   C4A 3297   4.796   4.299   6.309 -0.0533 -0.1855  0.0672
  229POPC   C1B 3298   3.943   4.521   5.157 -0.1522 -0.0941  0.0126
  229POPC   C2B 3299   3.731   4.694   5.520  0.2126 -0.0534  0.2120
  229POPC   C3B 3300   3.633   5.091   5.810  0.1022 -0.1737 -0.0795
  229POPC   C4B 3301   3.515   5.473   5.677  0.0002  0.0315 -0.0177
  230POPC   NC3 3302   7.012   0.416   3.993 -0.0066 -0.1743 -0.0330
  230POPC   PO4 3303   6.872   0.017   4.220  0.2981 -0.0918  0.1817
  230POPC   GL1 3304   6.758   0.100   4.567  0.2281 -0.2483  0.0096
  230POPC   GL2 3305   6.930  -0.029   4.866 -0.0410 -0.0373 -0.1417
  230POPC   C1A 3306   6.738   0.466   4.914  0.0442 -0.0997 -0.1554
  230POPC   D2A 3307   6.751   0.764   5.079 -0.1004  0.1041 -0.1128
  230POPC   C3A 3308   6.962   0.663   5.415 -0.1267 -0.3005  0.0323
  230POPC   C4A 3309   6.905   0.935   5.771 -0.1787 -0.0256 -0.5328
  230POPC   C1B 3310   7.247   0.439   4.859 -0.0134 -0.2814 -0.1583
  230POPC   C2B 3311   7.275   0.816   5.051 -0.0649 -0.2441 -0.3288
  230POPC   C3B 3312   7.291   1.006   5.446 -0.0202  0.1552  0.1073
  230POPC   C4B 3313   7.703   1.095   5.531 -0.1154 -0.2660 -0.0468
  231POPC   NC3 3314   7.464   7.257   5.466  0.4331 -0.1380  0.1308
  231POPC   PO4 3315   6.919   7.195   5.329  0.0584 -0.1535 -0.2217
  231POPC   GL1 3316   7.008   7.107   5.785  0.1119 -0.0848  0.0468
  231POPC   GL2 3317   6.932   6.783   5.910 -0.0762  0.0328 -0.0420
  231POPC   C1A 3318   7.189   7.219   6.083  0.0121 -0.4460  0.2688
  231POPC   D2A 3319   7.450   7.295   6.501  0.0899 -0.0511  0.1662
  231POPC   C3A 3320   7.688   7.726   6.554  0.2553 -0.1688  0.1188
  231POPC   C4A 3321   7.615   8.194   6.730  0.0971  0.0248 -0.0931
  231POPC   C1B 3322   7.047   6.698   6.358  0.1839 -0.1636 -0.1027
  231POPC   C2B 3323   7.216   6.893   6.785  0.1047 -0.0534  0.2479
  231POPC   C3B 3324   7.511   6.940   7.082 -0.1709  0.0954  0.0153
  231POPC   C4B 3325   7.657   6.925   7.512  0.0728 -0.2217  0.0114
  232POPC   NC3 3326   9.165   9.883   5.008  0.3484 -0.2218 -0.0831
  232POPC   PO4 3327   9.544   9.821   5.076 -0.1361 -0.0093  0.0743
  232POPC   GL1 3328   9.353   9.829   5.457  0.1270 -0.0030  0.0043
  232POPC   GL2 3329   9.510   9.818   5.664 -0.0840 -0.2518 -0.1305
  232POPC   C1A 3330   9.040  10.113   5.608 -0.6098 -0.1371 -0.1688
  232POPC   D2A 3331   8.849  10.439   5.919 -0.1653 -0.0079 -0.0812
  232POPC   C3A 3332   8.906  10.847   5.967  0.2676 -0.1327  0.1398
  232POPC   C4A 3333   8.778  11.218   5.870  0.0341 -0.0311  0.3481
  232POPC   C1B 3334   9.267  10.037   6.076  0.1018 -0.0775 -0.0271
  232POPC   C2B 3335   9.148  10.221   6.497 -0.3565  0.0910  0.1199
  232POPC   C3B 3336   8.798  10.486   6.497 -0.1678 -0.1570 -0.2148
  232POPC   C4B 3337   8.460  10.886   6.872 -0.3574  0.0195  0.1930
  233POPC   NC3 3338   0.896   3.337   4.531 -0.1088  0.2525 -0.1106
  233POPC   PO4 3339   0.732   3.521   4.886 -0.1550  0.0168  0.4076
  233POPC   GL1 3340   0.677   3.427   5.216 -0.0974 -0.0623  0.0128
  233POPC   GL2 3341   0.876   3.247   5.457  0.4218  0.0622 -0.2031
  233POPC   C1A 3342   0.375   3.456   5.485 -0.1335  0.0404  0.1142
  233POPC   D2A 3343   0.026   3.681   5.777 -0.0007 -0.2557  0.1267
  233POPC   C3A 3344  -0.377   3.556   5.778 -0.1990 -0.1035  0.1557
  233POPC   C4A 3345  -0.612   3.331   5.558  0.0413 -0.1819  0.1259
  233POPC   C1B 3346   0.895   3.291   5.888  0.1000  0.0143  0.1365
  233POPC   C2B 3347   0.798   3.259   6.162  0.3437  0.0198  0.0841
  233POPC   C3B 3348   0.611   3.324   6.573 -0.0161  0.0210  0.0076
  233POPC   C4B 3349   0.573   3.762   6.568  0.2092  0.0412 -0.0749
  234POPC   NC3 3350   9.731   0.209   5.012  0.0762  0.3405  0.0569
  234POPC   PO4 3351   9.334   0.564   4.973 -0.1554  0.0090 -0.1157
  234POPC   GL1 3352   9.126   0.861   5.079 -0.0424 -0.0710  0.3041
  234POPC   GL2 3353   9.394   1.032   5.360 -0.1565 -0.1940 -0.0361
  234POPC   C1A 3354   9.012   1.304   5.284 -0.3840  0.2745  0.0848
  234POPC   D2A 3355   9.007   1.533   5.665  0.1421  0.1661  0.2074
  234POPC   C3A 3356   9.227   1.933   5.733 -0.0506  0.0222 -0.1856
  234POPC   C4A 3357   9.545   2.111   6.049 -0.1393  0.1102  0.2639
  234POPC   C1B 3358   9.282   0.929   5.755  0.1159 -0.0539 -0.1065
  234POPC   C2B 3359   9.265   0.999   6.194  0.1848 -0.3143 -0.1022
  234POPC   C3B 3360   9.036   1.254   6.397  0.0998  0.1048 -0.1925
  234POPC   C4B 3361   9.261   1.343   6.898  0.0211  0.2162 -0.0405
  235POPC   NC3 3362   3.333   0.210   4.679 -0.0885 -0.2114 -0.0267
  235POPC   PO4 3363   3.161  -0.148   4.907 -0.2364  0.0835  0.0786
  235POPC   GL1 3364   3.434  -0.109   5.254 -0.0024 -0.1578 -0.0948
  235POPC   GL2 3365   3.719  -0.155   5.114  0.0963  0.2706  0.1951
  235POPC   C1A 3366   3.433   0.018   5.708 -0.0062  0.0704  0.0109
  235POPC   D2A 3367   3.517   0.209   6.150 -0.0961  0.2226  0.2790
  235POPC   C3A 3368   3.508   0.346   6.537 -0.2349 -0.1112 -0.0144
  235POPC   C4A 3369   3.310   0.609   6.831  0.3393 -0.2941  0.0901
  235POPC   C1B 3370   3.733   0.306   5.392  0.0825 -0.2040 -0.2364
  235POPC   C2B 3371   4.063   0.608   5.533 -0.1076  0.2024  0.0138
  235POPC   C3B 3372   4.253   0.660   5.968 -0.0228  0.1274  0.1037
  235POPC   C4B 3373   4.600   0.814   6.233  0.0136 -0.0818  0.2175
  236POPC   NC3 3374   1.897   4.813   5.197  0.0821 -0.1094 -0.1819
  236POPC   PO4 3375   1.973   5.217   5.113  0.0741 -0.1077  0.2829
  236POPC   GL1 3376   2.059   5.321   5.557  0.3800  0.3063 -0.1202
  236POPC   GL2 3377   2.013   5.012   5.772 -0.3012  0.1739  0.0237
  236POPC   C1A 3378   1.916   5.430   6.003  0.3595 -0.0546 -0.1676
  236POPC   D2A 3379   1.631   5.381   6.311  0.0017 -0.0559 -0.0178
  236POPC   C3A 3380   1.453   4.989   6.422  0.1185 -0.0513  0.0305
  236POPC   C4A 3381   1.264   4.651   6.183 -0.2545  0.0297  0.0256
  236POPC   C1B 3382   2.240   4.742   5.925 -0.0289 -0.1323  0.1600
  236POPC   C2B 3383   2.267   4.597   6.279 -0.2378  0.1182 -0.1800
  236POPC   C3B 3384   2.182   4.543   6.760 -0.1929 -0.1869 -0.1046
  236POPC   C4B 3385   1.816   4.260   6.988 -0.0968  0.0284 -0.0841
  237POPC   NC3 3386   3.915   4.120   3.962  0.1813  0.3400  0.0585
  237POPC   PO4 3387   3.770   3.911   4.333  0.1902 -0.0982  0.0279
  237POPC   GL1 3388   3.949   3.712   4.754  0.0529 -0.2994  0.0895
  237POPC   GL2 3389   3.746   3.453   4.890  0.3385  0.1857  0.0198
  237POPC   C1A 3390   3.955   3.837   5.128 -0.0290  0.1411  0.2140
  237POPC   D2A 3391   3.742   4.130   5.429  0.0573 -0.0448 -0.1174
  237POPC   C3A 3392   4.084   4.114   5.740  0.0138  0.0857  0.1482
  237POPC   C4A 3393   4.342   4.076   6.112  0.2167 -0.1407  0.2863
  237POPC   C1B 3394   3.990   3.193   4.949  0.1016  0.0545 -0.1540
  237POPC   C2B 3395   4.093   2.756   4.691  0.0877  0.0268  0.0957
  237POPC   C3B 3396   4.352   2.525   4.458  0.4629  0.2394  0.3413
  237POPC   C4B 3397   4.736   2.243   4.643 -0.3262 -0.1573  0.4248
  238POPC   NC3 3398   6.275  10.006   4.466 -0.1816 -0.2859  0.0195
  238POPC   PO4 3399   6.171   9.698   4.602  0.3542  0.3063  0.0406
  238POPC   GL1 3400   6.078   9.837   5.016 -0.0857 -0.1505 -0.0859
  238POPC   GL2 3401   5.876   9.682   5.239  0.0340 -0.1185 -0.0347
  238POPC   C1A 3402   6.231  10.010   5.431  0.1743 -0.3908 -0.2293
  238POPC   D2A 3403   6.262  10.256   5.736 -0.0379 -0.0458 -0.1100
  238POPC   C3A 3404   6.460  10.504   5.917 -0.0982  0.0323 -0.0323
  238POPC   C4A 3405   6.565  10.584   6.390  0.0945 -0.3213 -0.0016
  238POPC   C1B 3406   5.824   9.422   5.644  0.2943  0.0884  0.0151
  238POPC   C2B 3407   5.720   9.556   6.139  0.2605  0.1324 -0.2307
  238POPC   C3B 3408   5.576   9.301   6.522 -0.1666 -0.1220  0.2328
  238POPC   C4B 3409   5.267   9.249   6.768  0.3190  0.0390 -0.2578
  239POPC   NC3 3410   8.646   8.684   5.353  0.1639  0.0603  0.2759
  239POPC   PO4 3411   8.289   8.377   5.238  0.0538 -0.0390 -0.0290
  239POPC   GL1 3412   8.385   8.429   5.721 -0.2563  0.0620  0.2809
  239POPC   GL2 3413   8.630   8.402   5.819 -0.1518 -0.0146  0.0976
  239POPC   C1A 3414   8.198   8.066   6.047 -0.1364  0.0914 -0.4147
  239POPC   D2A 3415   8.185   8.103   6.483 -0.0572  0.0150  0.2748
  239POPC   C3A 3416   8.167   8.188   6.942  0.0244  0.1658  0.0540
  239POPC   C4A 3417   7.867   8.236   7.297 -0.0305  0.0463  0.0676
  239POPC   C1B 3418   8.689   8.219   6.199  0.0836 -0.1569 -0.2991
  239POPC   C2B 3419   8.995   8.030   6.395  0.0858  0.2898 -0.1615
  239POPC   C3B 3420   9.103   7.604   6.419 -0.0223  0.0024  0.1538
  239POPC   C4B 3421   9.500   7.366   6.306 -0.0204 -0.0211  0.0083
  240POPC   NC3 3422   7.511   9.280   4.859 -0.1175 -0.0486  0.2120
  240POPC   PO4 3423   7.313   8.926   5.086  0.1886 -0.1897  0.0135
  240POPC   GL1 3424   7.059   8.861   5.517 -0.1427  0.0233 -0.2983
  240POPC   GL2 3425   7.003   8.559   5.635 -0.1089  0.1380  0.0129
  240POPC   C1A 3426   7.205   8.953   5.968  0.2159  0.3496 -0.2673
  240POPC   D2A 3427   7.009   8.750   6.438  0.4801  0.1505 -0.2666
  240POPC   C3A 3428   7.052   8.546   6.922 -0.2607 -0.3609 -0.1826
  240POPC   C4A 3429   6.961   8.202   7.152  0.1038 -0.0338  0.0595
  240POPC   C1B 3430   6.733   8.760   5.984  0.0042 -0.1401 -0.0326
  240POPC   C2B 3431   6.733   9.136   6.129  0.2052  0.0510 -0.0969
  240POPC   C3B 3432   6.618   9.151   6.588 -0.0373  0.0677  0.1768
  240POPC   C4B 3433   6.599   8.919   7.060 -0.1132  0.1136  0.2141
  241POPC   NC3 3434   1.204   3.405   5.090  0.0447  0.3204 -0.0168
  241POPC   PO4 3435   1.079   3.671   5.359 -0.1158 -0.2970  0.0099
  241POPC   GL1 3436   1.167   3.769   5.839  0.2803  0.0576  0.2118
  241POPC   GL2 3437   1.539   3.988   5.808  0.0361 -0.1392  0.2709
  241POPC   C1A 3438   1.205   3.610   6.217 -0.3455 -0.2306 -0.1194
  241POPC   D2A 3439   1.386   3.361   6.674 -0.1196 -0.0154  0.0216
  241POPC   C3A 3440   1.686   3.368   6.987 -0.1056  0.0461 -0.0949
  241POPC   C4A 3441   1.863   3.077   7.307  0.3201  0.4552  0.1336
  241POPC   C1B 3442   1.525   4.278   6.198 -0.2365  0.0873  0.2745
  241POPC   C2B 3443   1.705   4.561   6.592  0.1989 -0.1281 -0.1223
  241POPC   C3B 3444   1.432   4.648   6.927  0.1326 -0.2581  0.0833
  241POPC   C4B 3445   1.402   4.474   7.409  0.0915  0.0905 -0.0781
  242POPC   NC3 3446   4.991   0.503   4.433  0.2022  0.1346 -0.2913
  242POPC   PO4 3447   5.427   0.563   4.351 -0.1125 -0.2155 -0.0087
  242POPC   GL1 3448   5.678   0.526   4.727  0.3840 -0.3998 -0.2593
  242POPC   GL2 3449   5.753   0.681   5.066  0.2297 -0.2432 -0.0698
  242POPC   C1A 3450   5.364   0.379   5.078  0.5004 -0.2636 -0.1236
  242POPC   D2A 3451   5.123   0.365   5.444  0.2559  0.0839  0.1236
  242POPC   C3A 3452   5.218   0.023   5.789  0.2675 -0.1515  0.0932
  242POPC   C4A 3453   5.243  -0.050   6.160 -0.0687  0.1107  0.1508
  242POPC   C1B 3454   5.891   0.700   5.349 -0.0973 -0.1353  0.1751
  242POPC   C2B 3455   6.053   0.679   5.707 -0.0543  0.0605 -0.3645
  242POPC   C3B 3456   6.427   0.886   5.827  0.0731  0.0308 -0.2057
  242POPC   C4B 3457   6.634   1.175   6.171  0.1390 -0.1374  0.2740
  243POPC   NC3 3458   6.144   6.409   5.380  0.0559  0.3427 -0.1393
  243POPC   PO4 3459   5.871   6.829   5.452 -0.1615 -0.0412  0.4713
  243POPC   GL1 3460   5.618   6.806   5.767 -0.1911  0.1579 -0.2467
  243POPC   GL2 3461   5.415   6.614   5.734  0.1233 -0.2272  0.0764
  243POPC   C1A 3462   5.835   6.796   6.113 -0.2472 -0.2249  0.0362
  243POPC   D2A 3463   5.750   6.929   6.580 -0.1343  0.0972  0.0955
  243POPC   C3A 3464   5.981   7.125   6.721 -0.1069 -0.0524 -0.2773
  243POPC   C4A 3465   6.145   7.517   6.935  0.1978  0.2058 -0.2296
  243POPC   C1B 3466   5.726   6.315   5.921  0.0680 -0.2950  0.2841
  243POPC   C2B 3467   5.800   5.939   6.209 -0.1683 -0.2159 -0.0616
  243POPC   C3B 3468   5.810   5.866   6.518 -0.2409  0.0999  0.0116
  243POPC   C4B 3469   5.727   5.601   6.899  0.1429  0.1805 -0.3775
  244POPC   NC3 3470   5.460  10.012   4.243 -0.1473  0.0803 -0.3434
  244POPC   PO4 3471   5.848  10.257   4.509  0.1230  0.1943  0.1110
  244POPC   GL1 3472   5.914  10.305   4.936  0.0377 -0.1164  0.0143
  244POPC   GL2 3473   5.669  10.181   5.082  0.2806  0.0934 -0.0693
  244POPC   C1A 3474   6.129  10.449   5.256 -0.0038 -0.0719 -0.2839
  244POPC   D2A 3475   6.467  10.718   5.470  0.3407  0.2792  0.1784
  244POPC   C3A 3476   6.573  11.226   5.359  0.0266 -0.1499  0.2174
  244POPC   C4A 3477   6.498  11.599   5.206  0.1391  0.0663 -0.0247
  244POPC   C1B 3478   5.599  10.357   5.529  0.2967 -0.1819  0.1255
  244POPC   C2B 3479   5.523  10.798   5.686 -0.1270 -0.1156 -0.0667
  244POPC   C3B 3480   5.738  11.231   5.782 -0.2777  0.0972 -0.3425
  244POPC   C4B 3481   6.031  11.348   6.075 -0.1240 -0.0784  0.2779
  245POPC   NC3 3482   9.219   2.400   4.338 -0.0257 -0.2295 -0.2409
  245POPC   PO4 3483   9.321   2.006   4.217 -0.0349  0.0340 -0.0010
  245POPC   GL1 3484   9.289   2.021   4.678 -0.2281 -0.1819 -0.0293
  245POPC   GL2 3485   9.524   2.058   4.944  0.0051 -0.0256  0.0040
  245POPC   C1A 3486   8.963   2.055   4.847  0.2962  0.0027  0.1573
  245POPC   D2A 3487   8.598   1.969   4.871 -0.1734 -0.1376  0.2380
  245POPC   C3A 3488   8.367   2.247   4.815 -0.0974  0.0067  0.0794
  245POPC   C4A 3489   8.424   2.741   4.658 -0.3514  0.4458 -0.1551
  245POPC   C1B 3490   9.596   2.182   5.431  0.0357  0.2328  0.1088
  245POPC   C2B 3491   9.459   2.477   5.749  0.1044 -0.2053  0.1112
  245POPC   C3B 3492   9.315   2.689   6.132  0.1532 -0.1816  0.1637
  245POPC   C4B 3493   9.262   3.042   6.373  0.0618 -0.1480 -0.0152
  246POPC   NC3 3494   7.540   3.054   3.471 -0.0444  0.0960  0.2683
  246POPC   PO4 3495   7.158   2.772   3.326 -0.0621 -0.3471 -0.0491
  246POPC   GL1 3496   6.931   2.810   3.750 -0.3574  0.0071 -0.4414
  246POPC   GL2 3497   7.139   2.600   4.004 -0.0289  0.0326  0.2236
  246POPC   C1A 3498   6.611   2.620   3.886  0.1753 -0.4456  0.0193
  246POPC   D2A 3499   6.194   2.588   4.047  0.0060 -0.2843 -0.2487
  246POPC   C3A 3500   6.056   2.396   4.337 -0.0462 -0.2365  0.1630
  246POPC   C4A 3501   5.956   2.203   4.746  0.1326  0.1840  0.1483
  246POPC   C1B 3502   7.093   2.506   4.356 -0.1132  0.0222 -0.1493
  246POPC   C2B 3503   6.913   2.651   4.757 -0.0503  0.2286 -0.1557
  246POPC   C3B 3504   6.763   2.484   5.221  0.1120 -0.1003  0.3148
  246POPC   C4B 3505   6.586   2.256   5.422  0.0080  0.0259 -0.1834
  247POPC   NC3 3506   4.549   6.387   5.344  0.2332  0.1004  0.2418
  247POPC   PO4 3507   4.840   6.742   5.322  0.0445 -0.1544 -0.0734
  247POPC   GL1 3508   4.902   6.720   5.706  0.0567 -0.2115  0.1666
  247POPC   GL2 3509   4.697   6.980   5.813 -0.0261  0.0260 -0.0150
  247POPC   C1A 3510   4.867   6.747   6.215 -0.2765  0.4638  0.2587
  247POPC   D2A 3511   4.696   6.708   6.582  0.1450  0.1984  0.3005
  247POPC   C3A 3512   4.674   7.012   6.909 -0.1803 -0.0467 -0.2518
  247POPC   C4A 3513   4.819   7.389   7.039 -0.2359 -0.1295 -0.0478
  247POPC   C1B 3514   4.484   7.089   6.163  0.0316 -0.2117  0.2335
  247POPC   C2B 3515   4.260   7.123   6.517  0.1280  0.1172 -0.1585
  247POPC   C3B 3516   4.123   7.209   6.987 -0.0398  0.1064  0.1105
  247POPC   C4B 3517   3.816   7.616   7.130  0.3181  0.2059  0.0171
  248POPC   NC3 3518   1.575   0.166   4.987  0.3665 -0.0503  0.0409
  248POPC   PO4 3519   1.811  -0.144   5.212 -0.0984 -0.2265 -0.3144
  248POPC   GL1 3520   1.721  -0.283   5.605 -0.0753  0.2578  0.2154
  248POPC   GL2 3521   1.581  -0.635   5.643  0.0645 -0.3018 -0.0929
  248POPC   C1A 3522   2.044  -0.224   5.826  0.0247  0.0421 -0.0134
  248POPC   D2A 3523   2.415  -0.025   5.877 -0.0986 -0.0037 -0.1648
  248POPC   C3A 3524   2.530   0.270   6.227  0.1167  0.1691  0.0013
  248POPC   C4A 3525   2.278   0.599   6.420  0.2743  0.0264 -0.2762
  248POPC   C1B 3526   1.433  -0.558   6.032 -0.0418 -0.3463 -0.3180
  248POPC   C2B 3527   1.041  -0.480   6.210  0.2057 -0.2877  0.3818
  248POPC   C3B 3528   0.794  -0.564   6.481  0.0101  0.3634  0.0736
  248POPC   C4B 3529   0.636  -0.912   6.245 -0.0326  0.4284 -0.2367
  249POPC   NC3 3530   8.209   6.613   5.259  0.4123  0.0653 -0.0929
  249POPC   PO4 3531   8.329   6.825   5.539 -0.2322 -0.1411 -0.2782
  249POPC   GL1 3532   8.475   6.368   5.750  0.0235  0.1075 -0.0084
  249POPC   GL2 3533   8.248   6.432   6.002 -0.0788  0.2959  0.3434
  249POPC   C1A 3534   8.351   5.903   5.973 -0.1489 -0.1156  0.4296
  249POPC   D2A 3535   8.316   5.943   6.369 -0.0368 -0.0222  0.0909
  249POPC   C3A 3536   8.265   5.479   6.492 -0.1128  0.0974  0.0041
  249POPC   C4A 3537   8.262   5.198   6.882 -0.1847 -0.0774 -0.1900
  249POPC   C1B 3538   8.558   6.402   6.392  0.3279 -0.3197 -0.0567
  249POPC   C2B 3539   8.909   6.431   6.685  0.1188  0.0361 -0.2048
  249POPC   C3B 3540   9.228   6.729   6.783  0.0586  0.2516 -0.0141
  249POPC   C4B 3541   9.584   6.925   6.575 -0.2794  0.1536  0.0476
  250POPC   NC3 3542   3.611   2.567   4.361  0.0640  0.1342  0.1022
  250POPC   PO4 3543   3.617   2.229   4.162 -0.1463  0.1257 -0.3765
  250POPC   GL1 3544   3.768   2.215   4.636  0.2910 -0.1737  0.1631
  250POPC   GL2 3545   3.668   2.342   4.895 -0.0363  0.1229 -0.0965
  250POPC   C1A 3546   4.081   1.956   4.810  0.1524  0.2648  0.0717
  250POPC   D2A 3547   4.398   2.004   4.994  0.1463  0.0768 -0.2812
  250POPC   C3A 3548   4.416   2.446   5.128  0.2253  0.4681  0.1369
  250POPC   C4A 3549   4.271   2.829   5.161  0.3371  0.0643  0.0531
  250POPC   C1B 3550   3.858   2.319   5.191  0.2852  0.5527  0.1593
  250POPC   C2B 3551   3.950   1.992   5.531 -0.0252  0.1446  0.0497
  250POPC   C3B 3552   4.340   1.781   5.516  0.1846  0.0782  0.1379
  250POPC   C4B 3553   4.598   1.724   5.860 -0.0959 -0.1440  0.3759
  251POPC   NC3 3554   0.410   2.673   4.332  0.1479  0.2976  0.3138
  251POPC   PO4 3555   0.710   2.545   4.787  0.1376  0.3605 -0.1323
  251POPC   GL1 3556   0.763   2.597   5.281 -0.0720 -0.3510  0.0664
  251POPC   GL2 3557   0.589   2.427   5.446  0.1617  0.1261  0.1482
  251POPC   C1A 3558   1.033   2.324   5.626  0.5212 -0.2312  0.3426
  251POPC   D2A 3559   1.209   2.148   5.820 -0.1520 -0.2762  0.2188
  251POPC   C3A 3560   1.610   2.318   5.785 -0.2761 -0.3287 -0.1402
  251POPC   C4A 3561   1.943   1.985   5.948  0.1966  0.0906  0.2013
  251POPC   C1B 3562   0.389   2.360   5.807  0.5164  0.0691 -0.0974
  251POPC   C2B 3563   0.395   2.519   6.234 -0.1436 -0.0875  0.0003
  251POPC   C3B 3564   0.224   2.647   6.641 -0.1469  0.1549  0.0600
  251POPC   C4B 3565   0.333   2.908   6.990 -0.1070  0.2960  0.0029
  252POPC   NC3 3566   6.530   5.023   4.305  0.0825 -0.1985  0.1845
  252POPC   PO4 3567   6.947   4.969   4.393 -0.2544 -0.1194  0.0652
  252POPC   GL1 3568   6.730   4.698   4.672  0.3200 -0.0703 -0.0715
  252POPC   GL2 3569   6.611   4.372   4.631  0.1867 -0.2386 -0.1907
  252POPC   C1A 3570   6.758   4.493   5.123  0.1586  0.0815 -0.0592
  252POPC   D2A 3571   6.568   4.450   5.567  0.0753 -0.2002  0.5701
  252POPC   C3A 3572   6.578   4.202   5.945  0.0664 -0.2417 -0.1766
  252POPC   C4A 3573   6.324   3.886   6.092 -0.1219  0.3107 -0.0877
  252POPC   C1B 3574   6.440   4.081   4.292 -0.0984 -0.2083  0.3163
  252POPC   C2B 3575   6.303   3.652   4.475  0.1221 -0.3383 -0.1263
  252POPC   C3B 3576   6.130   3.334   4.711  0.0330 -0.0800 -0.0150
  252POPC   C4B 3577   5.830   3.171   4.959 -0.0349  0.0315 -0.2985
  253POPC   NC3 3578   4.160   0.277   4.071  0.3167  0.0094  0.0053
  253POPC   PO4 3579   4.326   0.023   4.374 -0.1340  0.1947  0.1746
  253POPC   GL1 3580   4.477   0.297   4.687 -0.0828  0.0836  0.2445
  253POPC   GL2 3581   4.589   0.604   4.756  0.2762 -0.1800 -0.0690
  253POPC   C1A 3582   4.544   0.287   5.109  0.1427  0.2637  0.0628
  253POPC   D2A 3583   4.539   0.378   5.553 -0.2191 -0.2434 -0.1520
  253POPC   C3A 3584   4.301   0.119   5.845  0.0318  0.0980  0.0779
  253POPC   C4A 3585   3.898   0.060   5.872  0.5366  0.0264  0.1672
  253POPC   C1B 3586   4.910   0.593   5.045  0.1081  0.0797  0.0585
  253POPC   C2B 3587   5.291   0.828   5.241  0.0225 -0.0180 -0.0277
  253POPC   C3B 3588   5.313   1.083   5.546 -0.0286 -0.0450 -0.0229
  253POPC   C4B 3589   5.025   1.266   5.861  0.3432  0.2680 -0.3277
  254POPC   NC3 3590   3.363   9.548   5.056  0.2244 -0.0134  0.1185
  254POPC   PO4 3591   3.775   9.487   4.914  0.0828  0.1948 -0.2714
  254POPC   GL1 3592   3.739   9.433   5.370 -0.2868 -0.0255 -0.0232
  254POPC   GL2 3593   4.051   9.353   5.473 -0.2111  0.1680 -0.2028
  254POPC   C1A 3594   3.527   9.689   5.647 -0.1127 -0.3271  0.0389
  254POPC   D2A 3595   3.270   9.876   6.090  0.2199 -0.1442  0.0185
  254POPC   C3A 3596   3.221   9.970   6.491  0.0569 -0.0456 -0.0921
  254POPC   C4A 3597   2.980  10.382   6.529  0.0936 -0.3092 -0.3901
  254POPC   C1B 3598   3.894   9.448   5.954  0.0083  0.1020 -0.0438
  254POPC   C2B 3599   3.756   9.813   6.181  0.2461  0.0568  0.0204
  254POPC   C3B 3600   3.744  10.059   6.419  0.2165 -0.3173  0.1722
  254POPC   C4B 3601   3.916  10.346   6.796  0.0444  0.0789  0.1289
  255POPC   NC3 3602   2.082   6.059   5.222 -0.0957  0.3047  0.5733
  255POPC   PO4 3603   2.531   5.988   5.280  0.0881  0.1495  0.5787
  255POPC   GL1 3604   2.545   5.721   5.715 -0.0305  0.0815  0.3411
  255POPC   GL2 3605   2.357   5.555   5.897  0.1369 -0.2268 -0.1655
  255POPC   C1A 3606   2.830   5.537   5.997  0.2851 -0.0441 -0.1789
  255POPC   D2A 3607   2.806   5.287   6.412 -0.0557 -0.2338  0.0615
  255POPC   C3A 3608   2.736   5.419   6.767 -0.0280  0.0169  0.0609
  255POPC   C4A 3609   2.609   5.315   7.264 -0.1071 -0.0310  0.3556
  255POPC   C1B 3610   2.377   5.853   6.232  0.2228 -0.1259  0.2492
  255POPC   C2B 3611   2.575   6.091   6.641  0.1523 -0.0876  0.2064
  255POPC   C3B 3612   2.881   5.881   6.942 -0.3450  0.0955 -0.2137
  255POPC   C4B 3613   3.047   5.572   7.145 -0.0803 -0.1380  0.0837
  256POPC   NC3 3614   5.764   8.588   4.897  0.1116 -0.0867  0.4611
  256POPC   PO4 3615   5.815   8.581   5.249 -0.3208 -0.0583  0.1218
  256POPC   GL1 3616   5.894   8.413   5.593 -0.2715  0.0366 -0.0784
  256POPC   GL2 3617   5.904   8.104   5.626  0.1329  0.1169  0.1816
  256POPC   C1A 3618   5.943   8.553   6.083  0.0032  0.3736 -0.1933
  256POPC   D2A 3619   5.642   8.728   6.486  0.1936 -0.1288 -0.0300
  256POPC   C3A 3620   5.706   8.898   6.897 -0.2924  0.0965  0.1437
  256POPC   C4A 3621   5.607   9.355   7.133 -0.1630 -0.1211  0.0545
  256POPC   C1B 3622   6.094   7.993   5.994 -0.1363 -0.2467 -0.0481
  256POPC   C2B 3623   6.427   7.871   6.310  0.0375 -0.2619  0.1642
  256POPC   C3B 3624   6.395   7.835   6.734 -0.3172 -0.1943 -0.2634
  256POPC   C4B 3625   6.683   7.431   6.970 -0.0826 -0.2004 -0.0040
  257POPC   NC3 3626   9.746   1.765   4.625  0.2124 -0.1653  0.0391
  257POPC   PO4 3627  10.066   2.010   4.858  0.1284 -0.1617  0.5544
  257POPC   GL1 3628   9.921   1.800   5.335 -0.1810  0.0329  0.0554
  257POPC   GL2 3629   9.940   1.555   5.475  0.0293 -0.1639  0.2287
  257POPC   C1A 3630   9.904   1.830   5.837  0.0345 -0.0808  0.1184
  257POPC   D2A 3631   9.884   1.820   6.347  0.1347 -0.0444  0.1840
  257POPC   C3A 3632  10.185   1.567   6.490  0.0267 -0.3425  0.1707
  257POPC   C4A 3633  10.188   1.268   6.899  0.0027  0.1353  0.0054
  257POPC   C1B 3634   9.776   1.108   5.720 -0.0763 -0.0768  0.2423
  257POPC   C2B 3635   9.730   0.696   5.977 -0.0347  0.0692 -0.2717
  257POPC   C3B 3636   9.778   0.462   6.351  0.1725  0.1709 -0.1875
  257POPC   C4B 3637   9.502   0.421   6.699 -0.1416  0.0085 -0.0998
  258POPC   NC3 3638   4.028   9.926   4.706  0.2554  0.1302  0.3636
  258POPC   PO4 3639   3.862  10.350   4.669 -0.0164  0.0672  0.0007
  258POPC   GL1 3640   4.044  10.489   4.977 -0.0285 -0.3776 -0.0387
  258POPC   GL2 3641   4.142  10.925   4.996 -0.1399 -0.2769 -0.3329
  258POPC   C1A 3642   4.118  10.174   5.320 -0.0097  0.3194  0.1157
  258POPC   D2A 3643   4.125   9.793   5.676  0.0370  0.1857  0.0290
  258POPC   C3A 3644   4.247   9.882   6.102 -0.2262 -0.1636 -0.0902
  258POPC   C4A 3645   4.128   9.591   6.480 -0.1666  0.2266 -0.3737
  258POPC   C1B 3646   4.511  11.030   5.261 -0.2241  0.0850 -0.0958
  258POPC   C2B 3647   4.873  10.961   5.458 -0.1575 -0.3288 -0.0526
  258POPC   C3B 3648   5.022  10.894   5.788 -0.1045 -0.1124 -0.2065
  258POPC   C4B 3649   5.002  10.586   6.140 -0.1137  0.1788 -0.2240
  259POPC   NC3 3650   0.812   3.040   4.918 -0.2543 -0.2773 -0.0714
  259POPC   PO4 3651   0.457   3.026   4.695  0.0241  0.2365  0.0475
  259POPC   GL1 3652   0.355   3.003   5.123 -0.2087  0.1805  0.2929
  259POPC   GL2 3653   0.134   2.824   5.136  0.3222  0.1570  0.1380
  259POPC   C1A 3654   0.466   2.976   5.561  0.0023  0.3631  0.0902
  259POPC   D2A 3655   0.185   3.100   5.938  0.2458 -0.4565  0.2838
  259POPC   C3A 3656   0.320   3.034   6.301 -0.0061  0.0212 -0.0285
  259POPC   C4A 3657   0.026   3.135   6.684 -0.2903 -0.1898  0.0981
  259POPC   C1B 3658   0.110   2.611   5.518  0.1333  0.0205 -0.3155
  259POPC   C2B 3659  -0.153   2.458   5.901 -0.1302  0.0109 -0.0528
  259POPC   C3B 3660  -0.066   2.695   6.218 -0.2513 -0.3156  0.0540
  259POPC   C4B 3661  -0.364   2.762   6.606  0.1210 -0.3439 -0.0105
  260POPC   NC3 3662   6.228   5.740   5.121 -0.1479 -0.0224 -0.1714
  260POPC   PO4 3663   5.883   5.451   5.055 -0.0956  0.0826  0.2062
  260POPC   GL1 3664   6.033   5.384   5.418 -0.0589 -0.0794 -0.0801
  260POPC   GL2 3665   6.298   5.501   5.563 -0.1226 -0.1274  0.1961
  260POPC   C1A 3666   5.771   5.087   5.703 -0.2971 -0.1976 -0.2451
  260POPC   D2A 3667   5.954   4.877   6.123  0.1006 -0.2345  0.0009
  260POPC   C3A 3668   6.030   4.801   6.555 -0.0138  0.0795 -0.0327
  260POPC   C4A 3669   6.195   5.160   6.846 -0.1574  0.2764 -0.0702
  260POPC   C1B 3670   6.332   5.542   6.002 -0.1159  0.2153  0.2365
  260POPC   C2B 3671   6.305   5.809   6.359  0.2909 -0.0232 -0.1379
  260POPC   C3B 3672   6.195   5.830   6.803 -0.0048 -0.0602 -0.0345
  260POPC   C4B 3673   6.232   5.577   7.133  0.0300 -0.1318  0.0879
  261POPC   NC3 3674   4.677   8.499   4.711 -0.1077  0.0266  0.0094
  261POPC   PO4 3675   4.502   8.637   5.044  0.0190 -0.0606  0.3476
  261POPC   GL1 3676   4.528   8.707   5.482 -0.5838 -0.1457 -0.0040
  261POPC   GL2 3677   4.556   9.039   5.564  0.0294  0.3010 -0.0280
  261POPC   C1A 3678   4.529   8.605   5.908  0.3456 -0.1037 -0.0676
  261POPC   D2A 3679   4.716   8.515   6.228  0.0573  0.2115  0.0894
  261POPC   C3A 3680   5.098   8.294   6.285  0.4216  0.1886 -0.0990
  261POPC   C4A 3681   5.538   8.263   6.239  0.0643  0.1950 -0.1769
  261POPC   C1B 3682   4.738   9.027   5.998 -0.1768  0.0366  0.1684
  261POPC   C2B 3683   4.764   8.967   6.489 -0.1613 -0.1047 -0.0994
  261POPC   C3B 3684   4.565   8.650   6.779 -0.0379  0.1629  0.0132
  261POPC   C4B 3685   4.396   8.233   7.059  0.1675 -0.1797 -0.0435
  262POPC   NC3 3686   5.418   5.520   4.943 -0.3448 -0.0355  0.2307
  262POPC   PO4 3687   5.630   5.939   4.916  0.0834  0.1483 -0.0989
  262POPC   GL1 3688   5.724   5.811   5.350 -0.0958 -0.1557 -0.0123
  262POPC   GL2 3689   5.550   5.562   5.564  0.0112  0.0789 -0.0782
  262POPC   C1A 3690   5.474   5.971   5.741  0.0475  0.0054 -0.1011
  262POPC   D2A 3691   5.329   5.919   6.187  0.0054  0.3077  0.1699
  262POPC   C3A 3692   5.374   5.495   6.396  0.0062  0.0114  0.0408
  262POPC   C4A 3693   5.652   5.158   6.657 -0.1225 -0.6506  0.0354
  262POPC   C1B 3694   5.334   5.269   5.925 -0.1225  0.1642 -0.0557
  262POPC   C2B 3695   5.436   4.968   6.194  0.2961 -0.0630  0.1577
  262POPC   C3B 3696   5.332   4.765   6.478 -0.0591  0.1826  0.1214
  262POPC   C4B 3697   5.187   4.466   6.785 -0.2282  0.0539  0.0498
  263POPC   NC3 3698   9.539   6.695   4.774  0.1426  0.1636  0.0951
  263POPC   PO4 3699   9.596   6.593   5.173 -0.1435 -0.2904 -0.1556
  263POPC   GL1 3700   9.424   6.581   5.558 -0.0631 -0.3692 -0.1795
  263POPC   GL2 3701   9.424   6.861   5.760 -0.3051  0.0983 -0.0310
  263POPC   C1A 3702   9.144   6.285   5.794  0.4807  0.1297  0.3114
  263POPC   D2A 3703   8.816   6.088   6.036  0.2217  0.1171 -0.1105
  263POPC   C3A 3704   8.829   5.855   6.361 -0.1982 -0.1025  0.0314
  263POPC   C4A 3705   8.982   5.617   6.618 -0.0068  0.1195 -0.0974
  263POPC   C1B 3706   9.211   6.630   6.098  0.1425 -0.3823 -0.1848
  263POPC   C2B 3707   9.270   6.204   6.348  0.0725 -0.0541 -0.2325
  263POPC   C3B 3708   9.318   5.917   6.605  0.0195 -0.1561 -0.0463
  263POPC   C4B 3709   9.452   5.417   6.570 -0.1798 -0.0891 -0.0202
  264POPC   NC3 3710   3.746   6.451   4.674  0.0222 -0.4128 -0.0611
  264POPC   PO4 3711   3.847   6.150   5.026  0.1315 -0.1817 -0.1703
  264POPC   GL1 3712   3.775   6.065   5.428 -0.1401 -0.3309  0.0807
  264POPC   GL2 3713   3.900   6.452   5.481  0.0770 -0.5112  0.2132
  264POPC   C1A 3714   3.688   5.969   5.828 -0.0369 -0.2508 -0.0472
  264POPC   D2A 3715   3.786   5.674   6.095 -0.1379  0.2645  0.1852
  264POPC   C3A 3716   4.218   5.711   6.283 -0.0668 -0.2758 -0.1662
  264POPC   C4A 3717   4.303   5.900   6.543  0.0122  0.0399 -0.0400
  264POPC   C1B 3718   3.877   6.423   5.917  0.1614  0.0355 -0.0644
  264POPC   C2B 3719   3.940   6.154   6.228 -0.4248 -0.2726  0.2041
  264POPC   C3B 3720   3.781   5.932   6.542  0.3516  0.3116 -0.2432
  264POPC   C4B 3721   3.459   5.748   6.902  0.1073 -0.0589 -0.1669
  265POPC   NC3 3722   9.606   8.550   4.983 -0.2857  0.1170 -0.2264
  265POPC   PO4 3723   9.527   8.954   5.025  0.0986 -0.1344  0.1016
  265POPC   GL1 3724   9.424   9.025   5.528 -0.3197 -0.1045 -0.0219
  265POPC   GL2 3725   9.339   9.347   5.631  0.0478  0.2913 -0.1197
  265POPC   C1A 3726   9.571   8.811   5.895  0.2467  0.0606 -0.2090
  265POPC   D2A 3727   9.623   8.383   6.172 -0.3075  0.0679  0.1592
  265POPC   C3A 3728   9.939   8.285   6.397  0.2319  0.1094 -0.1191
  265POPC   C4A 3729  10.175   8.485   6.538 -0.0077 -0.1660  0.1187
  265POPC   C1B 3730   9.027   9.666   5.857 -0.0554 -0.0634 -0.1891
  265POPC   C2B 3731   8.794   9.965   6.044 -0.0368 -0.3038  0.0854
  265POPC   C3B 3732   8.379  10.251   6.199  0.0966 -0.2524 -0.2717
  265POPC   C4B 3733   8.271  10.275   6.658  0.2871  0.1758 -0.1131
  266POPC   NC3 3734   8.077   1.221   3.657  0.2929  0.0248 -0.0115
  266POPC   PO4 3735   8.022   1.553   3.956  0.1698 -0.1088 -0.0589
  266POPC   GL1 3736   8.089   1.888   4.206  0.1200 -0.2066 -0.1021
  266POPC   GL2 3737   8.327   2.113   4.162  0.2421  0.0936  0.1827
  266POPC   C1A 3738   7.942   2.035   4.574  0.1428 -0.2194  0.1497
  266POPC   D2A 3739   7.920   2.130   4.994  0.1657  0.1689 -0.2116
  266POPC   C3A 3740   7.708   2.116   5.361  0.0787 -0.1526 -0.1456
  266POPC   C4A 3741   7.526   2.561   5.579  0.1768 -0.0726  0.2372
  266POPC   C1B 3742   8.165   2.453   4.333  0.1727  0.0852  0.0625
  266POPC   C2B 3743   7.888   2.580   4.720 -0.1597  0.3453  0.2608
  266POPC   C3B 3744   7.794   2.659   5.126 -0.0181 -0.1212  0.2860
  266POPC   C4B 3745   7.596   2.974   5.333  0.0355  0.0235  0.1596
  267POPC   NC3 3746   4.765   1.078   3.629  0.1396 -0.0016 -0.2110
  267POPC   PO4 3747   4.468   1.018   3.977 -0.3155  0.1825  0.4386
  267POPC   GL1 3748   4.455   1.108   4.473 -0.2110 -0.1014  0.3644
  267POPC   GL2 3749   4.263   1.160   4.712  0.1310  0.1508 -0.0074
  267POPC   C1A 3750   4.739   1.048   4.821 -0.0771 -0.2522 -0.0811
  267POPC   D2A 3751   4.903   1.204   5.135 -0.2491 -0.2808 -0.0373
  267POPC   C3A 3752   4.675   1.336   5.498 -0.1111  0.2041 -0.0254
  267POPC   C4A 3753   4.531   1.275   5.982 -0.1250 -0.1464 -0.0543
  267POPC   C1B 3754   4.436   1.442   5.013 -0.1223 -0.0791  0.1575
  267POPC   C2B 3755   4.754   1.714   5.220  0.0512 -0.0335  0.0469
  267POPC   C3B 3756   4.840   2.130   5.129 -0.0228  0.0888 -0.3586
  267POPC   C4B 3757   4.889   2.548   5.117  0.0080  0.2503  0.0966
  268POPC   NC3 3758   7.556   1.901   2.887 -0.4973 -0.0655 -0.1609
  268POPC   PO4 3759   7.334   1.611   3.198 -0.3302 -0.0378 -0.1126
  268POPC   GL1 3760   7.101   1.686   3.604 -0.4963  0.3024 -0.0839
  268POPC   GL2 3761   7.053   1.534   3.995 -0.2839  0.0349  0.0093
  268POPC   C1A 3762   6.715   1.965   3.737 -0.3288 -0.2165 -0.1360
  268POPC   D2A 3763   6.763   2.223   4.169  0.3951  0.2870 -0.1247
  268POPC   C3A 3764   6.590   2.446   4.378 -0.1592  0.1393 -0.0715
  268POPC   C4A 3765   6.400   2.444   4.769 -0.0600 -0.0549  0.0380
  268POPC   C1B 3766   6.644   1.732   4.241  0.0467 -0.0397  0.1646
  268POPC   C2B 3767   6.403   1.508   4.348 -0.0880 -0.1230 -0.1297
  268POPC   C3B 3768   6.267   1.494   4.617  0.0295  0.3725  0.1347
  268POPC   C4B 3769   6.054   1.520   5.004 -0.3093  0.1364 -0.1395
  269POPC   NC3 3770   0.119   0.357   4.808 -0.0803 -0.1134 -0.0593
  269POPC   PO4 3771   0.049  -0.009   5.115 -0.0654 -0.3357  0.2263
  269POPC   GL1 3772   0.246  -0.002   5.535 -0.0036  0.3573  0.2035
  269POPC   GL2 3773   0.518  -0.183   5.633  0.2101  0.2094  0.1275
  269POPC   C1A 3774  -0.001   0.183   5.867 -0.0178 -0.0859  0.0490
  269POPC   D2A 3775  -0.381   0.121   6.020 -0.1241  0.0907 -0.2051
  269POPC   C3A 3776  -0.451  -0.022   6.405 -0.1522  0.0888  0.2003
  269POPC   C4A 3777  -0.622  -0.074   6.820  0.0267 -0.1312 -0.0083
  269POPC   C1B 3778   0.591  -0.330   6.014 -0.0821 -0.3277 -0.0483
  269POPC   C2B 3779   0.364  -0.365   6.385 -0.1377  0.2074 -0.0300
  269POPC   C3B 3780   0.200  -0.172   6.800  0.0795 -0.3313 -0.1705
  269POPC   C4B 3781   0.361   0.093   7.053  0.3432  0.2407  0.1289
  270POPC   NC3 3782   9.676   7.178   5.155  0.0437 -0.3662  0.0813
  270POPC   PO4 3783   9.553   7.639   5.081  0.1775  0.0113 -0.0215
  270POPC   GL1 3784   9.778   7.555   5.479  0.1400 -0.2577 -0.2751
  270POPC   GL2 3785   9.623   7.313   5.763  0.0485 -0.0730  0.1237
  270POPC   C1A 3786   9.921   7.487   6.051  0.1289 -0.1991  0.1502
  270POPC   D2A 3787  10.025   7.216   6.403 -0.3179  0.3219 -0.0459
  270POPC   C3A 3788  10.227   7.365   6.806 -0.0764 -0.0245 -0.1686
  270POPC   C4A 3789  10.140   7.667   7.143  0.1109 -0.0698 -0.1364
  270POPC   C1B 3790   9.817   6.998   6.027  0.1726 -0.1126  0.4226
  270POPC   C2B 3791   9.952   6.710   6.251 -0.2009 -0.1311 -0.1763
  270POPC   C3B 3792  10.211   6.709   6.598 -0.2787 -0.3668 -0.0960
  270POPC   C4B 3793  10.412   6.566   7.056  0.4587 -0.2650 -0.2584
  271POPC   NC3 3794   7.517   0.426   3.971  0.0324 -0.1091  0.1621
  271POPC   PO4 3795   7.810   0.481   4.303  0.1113 -0.2622  0.0090
  271POPC   GL1 3796   7.777   0.674   4.601  0.0140  0.3940  0.3907
  271POPC   GL2 3797   8.171   0.684   4.728  0.0404 -0.0396  0.1306
  271POPC   C1A 3798   7.852   0.978   4.887 -0.0261  0.1590 -0.1903
  271POPC   D2A 3799   8.050   1.247   5.200 -0.3846  0.1028  0.0325
  271POPC   C3A 3800   7.801   1.586   5.472  0.1313  0.1845 -0.0529
  271POPC   C4A 3801   7.400   1.653   5.659  0.1739 -0.1399  0.2036
  271POPC   C1B 3802   8.145   0.717   5.279  0.1912  0.0160  0.1006
  271POPC   C2B 3803   8.208   0.949   5.625  0.0398  0.0010 -0.0575
  271POPC   C3B 3804   8.111   1.377   5.863  0.0117 -0.0837  0.1302
  271POPC   C4B 3805   8.388   1.200   6.145 -0.1553 -0.2508 -0.0261
  272POPC   NC3 3806   0.939   1.417   4.194 -0.1748 -0.1939  0.2293
  272POPC   PO4 3807   1.003   1.688   4.679  0.0700 -0.0069  0.3333
  272POPC   GL1 3808   0.817   1.568   5.052  0.2067  0.4129 -0.2178
  272POPC   GL2 3809   0.863   1.434   5.406 -0.0875  0.0100  0.1106
  272POPC   C1A 3810   0.744   1.863   5.406  0.0508 -0.1201 -0.1785
  272POPC   D2A 3811   0.697   1.922   5.743  0.3554 -0.0396  0.0419
  272POPC   C3A 3812   0.811   2.261   6.048 -0.1493 -0.2775 -0.2402
  272POPC   C4A 3813   0.755   2.755   5.926 -0.0752  0.4029  0.3568
  272POPC   C1B 3814   0.599   1.433   5.756 -0.2619 -0.0845 -0.2346
  272POPC   C2B 3815   0.561   1.476   6.311  0.0367 -0.2173  0.0353
  272POPC   C3B 3816   0.530   1.845   6.567  0.0352 -0.0912 -0.2076
  272POPC   C4B 3817   0.648   2.221   6.599 -0.0454 -0.0701  0.2957
  273POPC   NC3 3818   6.305   1.018   3.503  0.2050 -0.0347  0.2630
  273POPC   PO4 3819   6.185   1.445   3.656 -0.3911 -0.1464  0.0629
  273POPC   GL1 3820   6.189   1.689   4.019 -0.0271 -0.1291  0.0459
  273POPC   GL2 3821   6.283   2.093   4.001 -0.1594 -0.0428 -0.0206
  273POPC   C1A 3822   5.930   1.780   4.294  0.1630 -0.0300 -0.0500
  273POPC   D2A 3823   5.668   1.775   4.629  0.1133  0.0878 -0.0586
  273POPC   C3A 3824   5.578   1.379   4.721  0.2467  0.1257 -0.1080
  273POPC   C4A 3825   5.640   1.185   5.225 -0.3579  0.1508 -0.3341
  273POPC   C1B 3826   6.305   1.999   4.496 -0.0272 -0.0725 -0.1090
  273POPC   C2B 3827   6.382   1.978   4.991  0.2432  0.5272  0.2102
  273POPC   C3B 3828   6.205   1.915   5.358  0.4157  0.0128 -0.2280
  273POPC   C4B 3829   5.809   2.089   5.569  0.2429  0.1240 -0.1886
  274POPC   NC3 3830   3.059   3.611   5.057 -0.0233 -0.2369 -0.0432
  274POPC   PO4 3831   3.220   3.277   4.955  0.3846 -0.0798 -0.1250
  274POPC   GL1 3832   3.402   3.026   5.239  0.1127 -0.0079 -0.0067
  274POPC   GL2 3833   3.750   2.802   5.208  0.2792 -0.0373  0.4689
  274POPC   C1A 3834   3.476   3.025   5.707  0.0026 -0.3376 -0.2497
  274POPC   D2A 3835   3.407   3.162   6.044 -0.0781 -0.1684 -0.2067
  274POPC   C3A 3836   3.810   3.129   6.332  0.2184  0.0046 -0.0346
  274POPC   C4A 3837   3.983   3.126   6.689 -0.1250  0.0643 -0.1863
  274POPC   C1B 3838   3.804   3.298   5.420  0.2377  0.3413  0.3772
  274POPC   C2B 3839   3.991   3.638   5.591 -0.1299 -0.4074 -0.1143
  274POPC   C3B 3840   4.358   3.639   5.793  0.0043  0.1908 -0.3302
  274POPC   C4B 3841   4.753   3.536   5.783  0.0859 -0.1525 -0.0256
  275POPC   NC3 3842   7.142   9.711   4.308 -0.0939  0.2946  0.0976
  275POPC   PO4 3843   6.654   9.702   4.518 -0.3816  0.0009  0.1373
  275POPC   GL1 3844   6.563   9.824   4.949 -0.2995 -0.0502 -0.1226
  275POPC   GL2 3845   6.410  10.205   4.946  0.1812 -0.2382  0.2116
  275POPC   C1A 3846   6.713   9.783   5.314  0.1862 -0.0200 -0.2374
  275POPC   D2A 3847   6.674   9.790   5.808 -0.4461 -0.1520 -0.1170
  275POPC   C3A 3848   7.157   9.995   6.000  0.1627 -0.0151  0.1054
  275POPC   C4A 3849   7.572  10.241   6.015  0.2850 -0.2590 -0.0059
  275POPC   C1B 3850   6.755  10.323   5.344  0.1723  0.2980  0.3829
  275POPC   C2B 3851   6.889  10.272   5.695  0.1610 -0.3413 -0.4122
  275POPC   C3B 3852   6.893  10.668   6.048  0.2395  0.0050  0.0244
  275POPC   C4B 3853   7.028  11.061   6.260 -0.4240 -0.1358  0.2557
  276POPC   NC3 3854   0.624   7.961   4.743  0.3634 -0.2740  0.2951
  276POPC   PO4 3855   1.034   7.992   4.979  0.1845 -0.0658 -0.1220
  276POPC   GL1 3856   1.051   8.052   5.424 -0.1151 -0.1953  0.1779
  276POPC   GL2 3857   0.845   7.891   5.565 -0.0902 -0.2545 -0.0188
  276POPC   C1A 3858   1.174   8.069   5.824 -0.2183 -0.0097  0.1084
  276POPC   D2A 3859   1.196   7.922   6.165 -0.2064  0.0331  0.0951
  276POPC   C3A 3860   0.861   7.866   6.508 -0.1860 -0.2987 -0.2638
  276POPC   C4A 3861   0.647   7.973   6.927  0.1092  0.0997 -0.1830
  276POPC   C1B 3862   1.011   7.574   5.863  0.1396  0.1141  0.1619
  276POPC   C2B 3863   0.898   7.487   6.217 -0.0123 -0.2248 -0.1781
  276POPC   C3B 3864   0.807   7.369   6.686  0.0518  0.0218 -0.0222
  276POPC   C4B 3865   0.871   7.114   7.087  0.1080  0.0136  0.1550
  277POPC   NC3 3866   2.122   0.824   4.944  0.0307  0.2144 -0.2239
  277POPC   PO4 3867   1.987   0.901   5.314 -0.1647  0.0285  0.1551
  277POPC   GL1 3868   2.213   0.662   5.497  0.1675 -0.1542  0.2017
  277POPC   GL2 3869   2.178   0.318   5.669  0.1137  0.0244 -0.1724
  277POPC   C1A 3870   2.451   0.693   5.836 -0.1731  0.1462  0.1894
  277POPC   D2A 3871   2.750   0.806   6.159 -0.1876  0.1518 -0.1494
  277POPC   C3A 3872   2.752   0.699   6.638  0.1661  0.2128  0.1126
  277POPC   C4A 3873   2.869   0.856   7.074 -0.1636  0.0697 -0.3788
  277POPC   C1B 3874   2.070   0.156   6.142  0.2072 -0.0718  0.2802
  277POPC   C2B 3875   2.110   0.118   6.516  0.0199  0.1029 -0.0772
  277POPC   C3B 3876   2.101   0.107   7.002 -0.0937 -0.0237  0.2963
  277POPC   C4B 3877   2.194   0.050   7.382  0.2577  0.1374  0.1828
  278POPC   NC3 3878   7.352   5.146   4.830 -0.1183 -0.1732  0.0143
  278POPC   PO4 3879   7.194   5.408   5.219 -0.0222  0.0048  0.2208
  278POPC   GL1 3880   7.164   5.421   5.650  0.0513  0.1314  0.0276
  278POPC   GL2 3881   6.727   5.378   5.720  0.0842  0.1647  0.0349
  278POPC   C1A 3882   7.274   5.776   6.037  0.0064 -0.1411 -0.2564
  278POPC   D2A 3883   7.267   5.740   6.477 -0.0121 -0.1698  0.0438
  278POPC   C3A 3884   7.538   5.926   6.797 -0.3803  0.2408 -0.4041
  278POPC   C4A 3885   7.566   5.964   7.246 -0.3646  0.0968 -0.2900
  278POPC   C1B 3886   6.842   4.955   5.745  0.0329 -0.3542 -0.0311
  278POPC   C2B 3887   6.909   4.552   5.854 -0.1213 -0.4629 -0.0949
  278POPC   C3B 3888   7.005   4.356   6.269 -0.1931 -0.0244 -0.1069
  278POPC   C4B 3889   7.129   4.499   6.763 -0.3266  0.0957 -0.4187
  279POPC   NC3 3890   0.161   9.164   5.256 -0.0513  0.0084  0.2310
  279POPC   PO4 3891  -0.214   8.893   5.260  0.0639 -0.3761  0.0752
  279POPC   GL1 3892  -0.108   8.919   5.690 -0.2472 -0.1680 -0.1373
  279POPC   GL2 3893  -0.361   9.312   5.751  0.0162  0.0324  0.0792
  279POPC   C1A 3894  -0.078   8.707   6.099  0.1126 -0.0027  0.2629
  279POPC   D2A 3895  -0.396   8.765   6.516 -0.0425 -0.2352  0.2925
  279POPC   C3A 3896  -0.393   8.462   6.842 -0.0165 -0.0809  0.2612
  279POPC   C4A 3897  -0.369   8.035   7.024  0.2326  0.2098 -0.1036
  279POPC   C1B 3898  -0.536   9.668   6.100  0.1208 -0.2041 -0.0679
  279POPC   C2B 3899  -0.765   9.714   6.476 -0.0177 -0.2309  0.0563
  279POPC   C3B 3900  -1.098   9.621   6.685 -0.2836 -0.1425 -0.2684
  279POPC   C4B 3901  -1.562   9.503   6.854 -0.2169  0.0662  0.1527
  280POPC   NC3 3902   3.094   0.429   5.027  0.0943 -0.0938 -0.0638
  280POPC   PO4 3903   3.168   0.931   4.948  0.0738 -0.0291 -0.0786
  280POPC   GL1 3904   3.144   0.758   5.402  0.4863 -0.0017 -0.0849
  280POPC   GL2 3905   2.896   0.963   5.584  0.1519  0.1517 -0.1157
  280POPC   C1A 3906   3.384   0.516   5.742  0.4189 -0.0806  0.0049
  280POPC   D2A 3907   3.810   0.592   5.976  0.0608 -0.0558 -0.1371
  280POPC   C3A 3908   3.737   0.746   6.401  0.0733 -0.1172 -0.1753
  280POPC   C4A 3909   3.807   0.680   6.839 -0.0792  0.0813 -0.0649
  280POPC   C1B 3910   3.031   1.098   5.928  0.1242 -0.0679  0.1052
  280POPC   C2B 3911   3.135   1.399   6.242  0.1219  0.1246 -0.1283
  280POPC   C3B 3912   3.120   1.551   6.659 -0.1279  0.0594  0.1609
  280POPC   C4B 3913   3.199   1.966   6.777 -0.3435 -0.0141 -0.3152
  281POPC   NC3 3914   5.368   8.140   4.833 -0.0827 -0.1031 -0.1071
  281POPC   PO4 3915   5.426   8.270   5.172 -0.0328 -0.1532 -0.1181
  281POPC   GL1 3916   5.375   8.353   5.531 -0.0700  0.0796  0.2178
  281POPC   GL2 3917   5.236   8.225   5.731 -0.4196  0.1984  0.0743
  281POPC   C1A 3918   5.574   8.746   5.850  0.4002  0.0478 -0.0308
  281POPC   D2A 3919   5.766   9.056   6.018  0.2935 -0.3085 -0.0668
  281POPC   C3A 3920   6.068   9.283   6.271 -0.2389 -0.1178  0.1379
  281POPC   C4A 3921   6.514   9.546   6.347  0.1046  0.2175  0.2868
  281POPC   C1B 3922   5.093   8.595   5.917 -0.1828 -0.1270 -0.1819
  281POPC   C2B 3923   5.147   8.812   6.231  0.2195  0.2401  0.1088
  281POPC   C3B 3924   5.130   8.683   6.698 -0.0830 -0.3073  0.0006
  281POPC   C4B 3925   5.328   8.670   7.082  0.0964 -0.0202  0.0511
  282POPC   NC3 3926   9.679   4.637   4.662 -0.1320  0.0501  0.1462
  282POPC   PO4 3927   9.284   4.860   4.790  0.1593 -0.0252 -0.1138
  282POPC   GL1 3928   9.231   4.993   5.200 -0.2082  0.1186  0.0162
  282POPC   GL2 3929   9.321   5.207   5.402  0.2392  0.1966 -0.1103
  282POPC   C1A 3930   9.148   4.791   5.613  0.1921  0.1723 -0.4429
  282POPC   D2A 3931   9.170   4.650   5.926  0.1876  0.2456 -0.2927
  282POPC   C3A 3932   9.563   4.609   6.220  0.2110  0.0013  0.2422
  282POPC   C4A 3933   9.851   4.505   6.615 -0.0312 -0.3377  0.2262
  282POPC   C1B 3934   9.415   5.172   5.889  0.1111  0.1869 -0.0473
  282POPC   C2B 3935   9.600   5.577   6.088  0.0643  0.1280 -0.0678
  282POPC   C3B 3936   9.522   6.001   5.990 -0.0191 -0.3187  0.0721
  282POPC   C4B 3937   9.767   6.394   5.910  0.4842  0.2444 -0.0502
  283POPC   NC3 3938   1.693   0.495   5.351  0.0147 -0.2903  0.2259
  283POPC   PO4 3939   1.631   0.682   4.985 -0.1545  0.2980 -0.2412
  283POPC   GL1 3940   1.494   0.956   5.367  0.1632 -0.0264  0.0397
  283POPC   GL2 3941   1.575   0.836   5.702  0.0137 -0.3086 -0.2209
  283POPC   C1A 3942   1.389   1.313   5.574 -0.1565 -0.1040  0.2343
  283POPC   D2A 3943   1.096   1.645   5.807 -0.0789 -0.1885  0.2917
  283POPC   C3A 3944   1.003   1.790   6.291  0.1929 -0.1305  0.3426
  283POPC   C4A 3945   1.117   2.114   6.554  0.0295 -0.1732 -0.1105
  283POPC   C1B 3946   1.426   0.791   6.084  0.0552  0.2185 -0.3248
  283POPC   C2B 3947   1.183   0.681   6.446 -0.0108 -0.2462  0.0065
  283POPC   C3B 3948   0.955   0.337   6.500 -0.1175  0.2091 -0.1795
  283POPC   C4B 3949   0.885  -0.066   6.428  0.0067  0.1284  0.2520
  284POPC   NC3 3950   7.592   3.827   3.669  0.1298  0.2153  0.2270
  284POPC   PO4 3951   7.777   3.413   3.679 -0.1837  0.1941  0.2432
  284POPC   GL1 3952   7.761   3.370   4.084 -0.0769 -0.0902  0.0121
  284POPC   GL2 3953   7.838   3.767   4.093 -0.4168  0.0001  0.0576
  284POPC   C1A 3954   7.611   3.409   4.448  0.4104  0.0107  0.2366
  284POPC   D2A 3955   7.598   3.312   4.810  0.0517  0.1103 -0.0723
  284POPC   C3A 3956   7.292   3.412   5.102  0.0494  0.2876  0.0461
  284POPC   C4A 3957   7.171   3.656   5.381  0.0009 -0.0073  0.1099
  284POPC   C1B 3958   7.980   3.748   4.590  0.0096 -0.3108 -0.2680
  284POPC   C2B 3959   7.784   3.779   4.958 -0.0272 -0.1483 -0.1698
  284POPC   C3B 3960   7.670   3.781   5.464  0.0826 -0.0792  0.1552
  284POPC   C4B 3961   7.964   3.895   5.810  0.0550  0.0385  0.1739
  285POPC   NC3 3962   9.097   8.805   5.146  0.1586  0.0068  0.2181
  285POPC   PO4 3963   9.000   9.007   5.293 -0.3687  0.4737 -0.2744
  285POPC   GL1 3964   8.794   9.187   5.663 -0.1293 -0.1106 -0.2656
  285POPC   GL2 3965   8.525   8.937   5.810  0.0105  0.2973  0.0025
  285POPC   C1A 3966   8.658   9.389   5.998  0.1778  0.2019  0.0402
  285POPC   D2A 3967   8.548   9.583   6.297 -0.0588 -0.1700 -0.3198
  285POPC   C3A 3968   8.150   9.548   6.485  0.1060  0.0825 -0.0606
  285POPC   C4A 3969   7.855   9.816   6.789 -0.0324 -0.2948 -0.1462
  285POPC   C1B 3970   8.956   8.890   6.094  0.3300  0.0422 -0.0135
  285POPC   C2B 3971   9.262   8.857   6.320 -0.0160 -0.2368  0.0891
  285POPC   C3B 3972   9.393   9.101   6.687 -0.0208  0.0694 -0.0931
  285POPC   C4B 3973   9.509   9.500   6.915  0.0042 -0.0703  0.0600
  286POPC   NC3 3974   9.281   9.220   4.663 -0.2213  0.1209 -0.0837
  286POPC   PO4 3975   8.841   9.395   4.766 -0.0870 -0.0799 -0.0186
  286POPC   GL1 3976   8.663   9.627   5.091 -0.1074 -0.3204 -0.3630
  286POPC   GL2 3977   8.876   9.656   5.362 -0.5100  0.2113 -0.0857
  286POPC   C1A 3978   8.523  10.026   5.260 -0.3134  0.1182  0.3201
  286POPC   D2A 3979   8.472  10.202   5.631  0.0600 -0.0204  0.0247
  286POPC   C3A 3980   8.466  10.669   5.590 -0.1736  0.1267 -0.0705
  286POPC   C4A 3981   8.738  10.975   5.478 -0.0967 -0.0029  0.3368
  286POPC   C1B 3982   8.600   9.742   5.646  0.0474 -0.0876  0.1950
  286POPC   C2B 3983   8.265   9.856   5.922  0.2156  0.5560  0.1369
  286POPC   C3B 3984   7.960   9.972   6.307  0.1713 -0.0408  0.0482
  286POPC   C4B 3985   7.525  10.132   6.539  0.0088  0.0099  0.1851
  287POPC   NC3 3986   9.273   1.471   4.036 -0.0567 -0.2125 -0.3581
  287POPC   PO4 3987   9.352   1.529   4.495  0.1163  0.0831  0.2003
  287POPC   GL1 3988   9.256   1.602   4.942 -0.1391 -0.0165  0.2571
  287POPC   GL2 3989   9.520   1.526   5.109 -0.1419 -0.0596  0.3589
  287POPC   C1A 3990   9.169   1.820   5.212  0.0395 -0.1097  0.1332
  287POPC   D2A 3991   8.714   1.821   5.325  0.2004 -0.2030  0.2131
  287POPC   C3A 3992   8.488   2.197   5.279  0.1425  0.1389  0.1976
  287POPC   C4A 3993   8.101   2.381   5.532 -0.0171  0.0119  0.1240
  287POPC   C1B 3994   9.451   1.535   5.525 -0.0402 -0.3153  0.0430
  287POPC   C2B 3995   9.400   1.385   5.939  0.1184  0.1490  0.3951
  287POPC   C3B 3996   9.378   1.641   6.236  0.1562 -0.1183  0.2823
  287POPC   C4B 3997   9.636   1.509   6.644  0.0966 -0.0345 -0.1351
  288POPC   NC3 3998   3.154   1.721   4.337  0.1520 -0.1340 -0.1923
  288POPC   PO4 3999   3.675   1.654   4.382 -0.2033  0.0149  0.2422
  288POPC   GL1 4000   3.921   1.512   4.707 -0.0205  0.4535  0.0868
  288POPC   GL2 4001   3.643   1.657   4.871  0.0960 -0.2594 -0.0249
  288POPC   C1A 4002   4.010   1.648   5.172  0.0290  0.2424 -0.0045
  288POPC   D2A 4003   3.782   1.549   5.560 -0.2098  0.3778 -0.0483
  288POPC   C3A 4004   4.111   1.638   5.891  0.1745  0.0593 -0.3052
  288POPC   C4A 4005   4.430   1.653   6.298 -0.0391  0.0990 -0.1974
  288POPC   C1B 4006   3.421   1.893   5.074 -0.0222 -0.2641  0.0209
  288POPC   C2B 4007   3.441   2.024   5.505 -0.1339  0.3934  0.0510
  288POPC   C3B 4008   3.098   2.120   5.812  0.4585  0.2447 -0.1596
  288POPC   C4B 4009   2.964   1.925   6.349 -0.0308  0.0744  0.1592
  289POPC   NC3 4010   6.790   1.291   3.687 -0.1539  0.1348 -0.0440
  289POPC   PO4 4011   7.031   0.970   3.885  0.1713 -0.1443 -0.0645
  289POPC   GL1 4012   6.784   0.956   4.200 -0.0300  0.0401 -0.1050
  289POPC   GL2 4013   6.705   0.653   4.327  0.2423  0.2299  0.3369
  289POPC   C1A 4014   6.911   1.366   4.428 -0.1769  0.0233 -0.2184
  289POPC   D2A 4015   6.736   1.634   4.759 -0.1996 -0.3638  0.1357
  289POPC   C3A 4016   6.874   1.819   5.064 -0.0217 -0.0397 -0.2447
  289POPC   C4A 4017   7.156   1.977   5.367  0.1182 -0.4188  0.1208
  289POPC   C1B 4018   7.013   0.911   4.632 -0.3381 -0.0263 -0.2906
  289POPC   C2B 4019   7.365   1.144   4.670 -0.1526  0.0341 -0.1896
  289POPC   C3B 4020   7.755   1.407   4.711 -0.2484  0.1431  0.1697
  289POPC   C4B 4021   7.865   1.671   4.966  0.2549 -0.3971  0.2106
  290POPC   NC3 4022   7.623   7.611   4.881  0.1949 -0.4024 -0.1372
  290POPC   PO4 4023   7.887   7.475   5.255 -0.0570 -0.2417 -0.1947
  290POPC   GL1 4024   7.733   7.527   5.813 -0.0242 -0.2213 -0.1910
  290POPC   GL2 4025   7.934   7.623   5.988 -0.1277 -0.1054  0.0747
  290POPC   C1A 4026   7.436   7.638   6.127  0.0330  0.2714  0.1081
  290POPC   D2A 4027   7.293   8.000   6.285 -0.0681 -0.0186 -0.0087
  290POPC   C3A 4028   7.323   8.378   6.186  0.0124 -0.1682 -0.1288
  290POPC   C4A 4029   7.564   8.587   5.906 -0.2098  0.0357 -0.0874
  290POPC   C1B 4030   8.142   7.606   6.322 -0.2244  0.0748 -0.0005
  290POPC   C2B 4031   8.148   7.287   6.627  0.0311  0.3922  0.0379
  290POPC   C3B 4032   8.267   6.956   6.909 -0.2260 -0.0094  0.0392
  290POPC   C4B 4033   8.034   6.683   7.255  0.1364 -0.0673 -0.2275
  291POPC   NC3 4034   3.988   8.828   5.115  0.2143  0.2523 -0.0502
  291POPC   PO4 4035   3.605   8.910   5.380 -0.3536  0.3062 -0.0874
  291POPC   GL1 4036   3.437   9.228   5.717 -0.1259  0.4192  0.0170
  291POPC   GL2 4037   3.592   9.032   5.942  0.1428 -0.3370  0.1941
  291POPC   C1A 4038   3.403   9.406   6.212 -0.0687  0.0675 -0.0724
  291POPC   D2A 4039   3.496   9.525   6.635 -0.0096 -0.2430  0.0777
  291POPC   C3A 4040   3.503   9.360   7.019 -0.2613 -0.0175 -0.3029
  291POPC   C4A 4041   3.503   8.937   7.126  0.0051 -0.0966 -0.3912
  291POPC   C1B 4042   3.205   8.945   6.105  0.0299  0.3218 -0.0380
  291POPC   C2B 4043   2.870   8.852   6.255  0.0162  0.0737  0.2212
  291POPC   C3B 4044   2.372   8.668   6.147 -0.4427 -0.0499  0.2208
  291POPC   C4B 4045   2.063   8.997   6.359  0.1103  0.0968 -0.1293
  292POPC   NC3 4046   5.100   5.874   4.706  0.0438 -0.1060 -0.0714
  292POPC   PO4 4047   4.937   5.664   5.041  0.0341  0.0871  0.1883
  292POPC   GL1 4048   4.616   5.558   5.362 -0.1379  0.1951 -0.3576
  292POPC   GL2 4049   4.357   5.190   5.293 -0.2270  0.0820  0.2330
  292POPC   C1A 4050   4.592   5.306   5.768 -0.1998  0.1952  0.2175
  292POPC   D2A 4051   4.416   4.964   5.988 -0.3220  0.1693  0.2912
  292POPC   C3A 4052   4.409   5.090   6.389 -0.3510 -0.1970  0.4668
  292POPC   C4A 4053   4.546   5.432   6.669 -0.3065  0.1640  0.2988
  292POPC   C1B 4054   4.112   4.999   5.582  0.4944 -0.0068  0.4812
  292POPC   C2B 4055   3.947   4.761   5.976 -0.1166  0.1199  0.1087
  292POPC   C3B 4056   3.762   4.368   6.006  0.1517 -0.0591  0.0736
  292POPC   C4B 4057   3.672   4.018   6.081  0.1485 -0.0849  0.2897
  293POPC   NC3 4058   0.454   5.500   5.302  0.2589  0.2456 -0.0359
  293POPC   PO4 4059   0.158   5.127   5.136  0.0645 -0.1823 -0.3020
  293POPC   GL1 4060   0.252   5.056   5.580 -0.3688  0.1625 -0.0806
  293POPC   GL2 4061   0.446   4.728   5.573 -0.0463 -0.0930  0.0715
  293POPC   C1A 4062   0.178   4.643   5.955  0.0385 -0.3129  0.0715
  293POPC   D2A 4063   0.139   4.596   6.387  0.0337  0.3520  0.1123
  293POPC   C3A 4064   0.082   4.764   6.807 -0.0288 -0.0873 -0.4569
  293POPC   C4A 4065   0.424   5.050   7.069 -0.1390  0.0460  0.2738
  293POPC   C1B 4066   0.579   5.040   5.966  0.0884  0.2814 -0.0569
  293POPC   C2B 4067   0.749   5.400   5.935 -0.0728  0.1246  0.1157
  293POPC   C3B 4068   0.958   5.712   6.159 -0.0172 -0.3166  0.0242
  293POPC   C4B 4069   1.228   6.022   6.105 -0.2380 -0.0005 -0.4318
  294POPC   NC3 4070   8.168   1.939   3.654 -0.2375 -0.0816  0.1418
  294POPC   PO4 4071   7.870   2.165   3.775  0.4210 -0.2229 -0.0543
  294POPC   GL1 4072   7.641   2.171   4.041 -0.0323  0.2757 -0.0699
  294POPC   GL2 4073   7.319   2.135   3.952  0.1336 -0.0903 -0.1503
  294POPC   C1A 4074   7.580   2.343   4.319  0.0656 -0.1538 -0.0363
  294POPC   D2A 4075   7.458   2.233   4.752 -0.2579  0.0256  0.1591
  294POPC   C3A 4076   7.131   2.190   4.910 -0.1535  0.2301  0.1606
  294POPC   C4A 4077   6.786   2.118   4.660 -0.1492 -0.1895 -0.0100
  294POPC   C1B 4078   7.162   2.006   4.355  0.1503 -0.1295 -0.0040
  294POPC   C2B 4079   7.183   1.738   4.604  0.0514  0.0884 -0.2104
  294POPC   C3B 4080   7.383   1.700   4.971 -0.1832  0.2380  0.0380
  294POPC   C4B 4081   7.489   1.337   5.110 -0.4019  0.2451  0.2429
  295POPC   NC3 4082   9.298   7.445   5.413  0.1792  0.2261 -0.1904
  295POPC   PO4 4083   9.055   7.162   5.578 -0.0996 -0.2817 -0.1915
  295POPC   GL1 4084   8.924   7.020   6.050 -0.1206  0.0709  0.1080
  295POPC   GL2 4085   8.649   6.797   6.027  0.3171  0.0919 -0.4261
  295POPC   C1A 4086   9.094   7.072   6.401  0.2204  0.6010  0.2089
  295POPC   D2A 4087   9.177   7.282   6.782 -0.0036  0.0091  0.2226
  295POPC   C3A 4088   9.476   7.112   7.151  0.2696 -0.2720  0.2020
  295POPC   C4A 4089   9.969   7.204   7.168 -0.0527  0.2756 -0.0246
  295POPC   C1B 4090   8.657   6.876   6.510 -0.2278  0.0203  0.0384
  295POPC   C2B 4091   8.789   6.957   6.941 -0.0411  0.0914 -0.0396
  295POPC   C3B 4092   8.998   6.973   7.405 -0.0416  0.1791 -0.0214
  295POPC   C4B 4093   9.131   7.045   7.817 -0.2406 -0.1656  0.0099
  296POPC   NC3 4094   6.323   8.375   5.218  0.2688  0.0088 -0.1251
  296POPC   PO4 4095   6.345   7.953   5.334  0.1231  0.1098  0.1705
  296POPC   GL1 4096   6.563   7.760   5.770 -0.1617 -0.2986 -0.1615
  296POPC   GL2 4097   6.560   7.424   5.640 -0.1835  0.1377 -0.0184
  296POPC   C1A 4098   6.912   7.698   6.156 -0.0137 -0.0983  0.1501
  296POPC   D2A 4099   6.982   7.676   6.536  0.2618 -0.2844  0.0023
  296POPC   C3A 4100   7.192   7.843   6.859  0.0463 -0.0091  0.1740
  296POPC   C4A 4101   7.266   7.768   7.296  0.2145 -0.0345  0.2787
  296POPC   C1B 4102   6.525   7.369   6.091 -0.1704 -0.2576  0.1621
  296POPC   C2B 4103   6.453   7.384   6.456  0.1323 -0.2545  0.0732
  296POPC   C3B 4104   6.478   7.025   6.794 -0.3247 -0.1287 -0.0079
  296POPC   C4B 4105   6.367   6.824   7.218  0.0935  0.2601 -0.2255
  297POPC   NC3 4106   5.643   7.203   5.019 -0.0239 -0.0784  0.1908
  297POPC   PO4 4107   5.251   7.374   5.306  0.0141  0.2578  0.2386
  297POPC   GL1 4108   5.097   7.435   5.663  0.0524  0.0435 -0.0762
  297POPC   GL2 4109   5.173   7.122   5.743 -0.0277  0.1212  0.2004
  297POPC   C1A 4110   4.936   7.325   6.102 -0.2720 -0.0752  0.1190
  297POPC   D2A 4111   5.004   7.200   6.527 -0.0693 -0.1161  0.1092
  297POPC   C3A 4112   5.240   6.894   6.675 -0.1382 -0.2140 -0.0193
  297POPC   C4A 4113   5.484   6.654   6.944 -0.0716  0.0170 -0.4048
  297POPC   C1B 4114   5.332   6.876   6.180  0.1322 -0.0111  0.0634
  297POPC   C2B 4115   5.441   6.531   6.297  0.0675  0.1793 -0.0980
  297POPC   C3B 4116   5.709   6.406   6.488  0.0768  0.1889 -0.2877
  297POPC   C4B 4117   6.115   6.248   6.489  0.2454  0.0241  0.0263
  298POPC   NC3 4118   4.376   2.753   3.477 -0.6307  0.1660  0.0634
  298POPC   PO4 4119   4.284   2.944   3.899  0.0485  0.2716 -0.1957
  298POPC   GL1 4120   4.616   2.943   4.229 -0.3606 -0.1942 -0.2186
  298POPC   GL2 4121   4.436   3.022   4.421 -0.1310 -0.1716 -0.0571
  298POPC   C1A 4122   4.875   2.665   4.389  0.1675  0.1609  0.1571
  298POPC   D2A 4123   5.122   2.783   4.739  0.0681 -0.2730 -0.1932
  298POPC   C3A 4124   5.635   2.802   4.559 -0.0167  0.0686 -0.1255
  298POPC   C4A 4125   6.014   2.828   4.589 -0.1307 -0.0651  0.2285
  298POPC   C1B 4126   4.598   2.774   4.845  0.4022 -0.2685  0.1137
  298POPC   C2B 4127   4.760   3.042   5.180 -0.0966  0.0308 -0.0578
  298POPC   C3B 4128   4.975   3.289   5.456  0.0525 -0.1765  0.1514
  298POPC   C4B 4129   5.204   3.674   5.610 -0.0543  0.0622  0.0484
  299POPC   NC3 4130   7.243   5.856   5.357 -0.0545 -0.1608 -0.0553
  299POPC   PO4 4131   7.476   6.204   5.514 -0.2653  0.1508  0.1751
  299POPC   GL1 4132   7.557   6.198   5.892  0.1093  0.2602 -0.0547
  299POPC   GL2 4133   7.855   6.079   6.005  0.1861  0.0188 -0.0562
  299POPC   C1A 4134   7.400   6.169   6.356  0.0151  0.0528 -0.0611
  299POPC   D2A 4135   7.161   6.233   6.771  0.0267 -0.0606  0.2439
  299POPC   C3A 4136   7.154   6.170   7.178  0.1174 -0.0544  0.2204
  299POPC   C4A 4137   7.182   6.169   7.501 -0.2554 -0.1916 -0.2652
  299POPC   C1B 4138   7.918   6.227   6.388 -0.0429  0.2317 -0.1457
  299POPC   C2B 4139   8.025   5.939   6.721  0.4262  0.0744 -0.0198
  299POPC   C3B 4140   8.464   5.881   6.861  0.0174  0.0365 -0.2321
  299POPC   C4B 4141   8.835   5.940   6.928 -0.0458 -0.2290 -0.0878
  300POPC   NC3 4142   8.645   5.162   4.554  0.2511  0.0961 -0.0662
  300POPC   PO4 4143   8.188   5.106   4.655 -0.1512 -0.0123 -0.0258
  300POPC   GL1 4144   8.266   4.787   4.897  0.1217 -0.1675  0.4095
  300POPC   GL2 4145   8.171   4.951   5.260  0.0626  0.2400  0.1699
  300POPC   C1A 4146   7.903   4.458   4.992 -0.0273  0.0496  0.1749
  300POPC   D2A 4147   7.707   4.267   4.723  0.2065  0.0207 -0.0212
  300POPC   C3A 4148   7.478   3.909   4.556 -0.0124  0.0157  0.0068
  300POPC   C4A 4149   7.205   3.769   4.766  0.0367  0.1774 -0.1070
  300POPC   C1B 4150   8.304   4.982   5.709  0.2281 -0.1086 -0.0619
  300POPC   C2B 4151   8.156   5.079   6.147 -0.2860  0.1108  0.0667
  300POPC   C3B 4152   8.215   4.830   6.527 -0.0094 -0.3068  0.3792
  300POPC   C4B 4153   8.110   4.459   6.793  0.3231 -0.1292 -0.2122
  301POPC   NC3 4154   3.374   6.072   4.815 -0.0597 -0.1646  0.1865
  301POPC   PO4 4155   3.463   6.401   5.184  0.1391 -0.1171  0.0181
  301POPC   GL1 4156   3.463   6.686   5.521  0.0052  0.1179 -0.2310
  301POPC   GL2 4157   3.698   6.884   5.768 -0.4844  0.2240 -0.0457
  301POPC   C1A 4158   3.212   6.784   5.809  0.0533 -0.0385  0.2694
  301POPC   D2A 4159   3.002   6.550   6.058  0.3026  0.1677  0.0793
  301POPC   C3A 4160   2.938   6.500   6.486 -0.2386  0.0336 -0.3888
  301POPC   C4A 4161   2.715   6.615   6.947 -0.3660  0.0915  0.2664
  301POPC   C1B 4162   3.592   6.797   6.114 -0.1622 -0.1617  0.0035
  301POPC   C2B 4163   3.698   6.602   6.530  0.0705  0.1859 -0.1298
  301POPC   C3B 4164   3.385   6.708   6.957  0.0923  0.2928 -0.2197
  301POPC   C4B 4165   3.216   7.005   7.286  0.2583  0.0500  0.2922
  302POPC   NC3 4166   1.788   8.598   5.341 -0.0603  0.0779 -0.0116
  302POPC   PO4 4167   1.875   9.012   5.355 -0.1307  0.1100 -0.1859
  302POPC   GL1 4168   1.552   9.040   5.635 -0.2215  0.2907 -0.1907
  302POPC   GL2 4169   1.269   9.164   5.689  0.0801 -0.0023 -0.4548
  302POPC   C1A 4170   1.611   9.046   6.136  0.0723 -0.1850  0.1814
  302POPC   D2A 4171   1.485   8.965   6.599 -0.3325 -0.0852 -0.0821
  302POPC   C3A 4172   1.492   9.224   6.932  0.0131  0.1878 -0.5445
  302POPC   C4A 4173   1.344   9.469   7.272 -0.1395 -0.0432  0.1167
  302POPC   C1B 4174   1.138   9.138   6.090  0.3516  0.0953 -0.0941
  302POPC   C2B 4175   1.099   9.204   6.441 -0.0030 -0.0774 -0.3631
  302POPC   C3B 4176   1.006   9.376   6.844  0.2420  0.0940  0.1425
  302POPC   C4B 4177   0.852   9.477   7.258 -0.2160  0.3809  0.1005
  303POPC   NC3 4178   3.510   8.060   5.244 -0.0514 -0.4379  0.0808
  303POPC   PO4 4179   3.623   8.482   5.114 -0.0575  0.0742 -0.1775
  303POPC   GL1 4180   3.768   8.403   5.577  0.0461 -0.2382  0.1900
  303POPC   GL2 4181   3.972   8.713   5.669  0.5403 -0.2518  0.2002
  303POPC   C1A 4182   4.031   8.304   5.951  0.1260 -0.2838 -0.2296
  303POPC   D2A 4183   4.308   8.172   6.070  0.0770  0.0834 -0.1679
  303POPC   C3A 4184   4.233   8.181   6.509 -0.1372  0.1727  0.5835
  303POPC   C4A 4185   4.047   7.955   6.790  0.0570  0.0254 -0.3999
  303POPC   C1B 4186   4.113   8.840   5.980 -0.1583 -0.1553 -0.1180
  303POPC   C2B 4187   4.282   8.784   6.322 -0.0015 -0.0737 -0.0971
  303POPC   C3B 4188   4.296   9.072   6.656 -0.0333  0.0335  0.3230
  303POPC   C4B 4189   4.308   9.374   6.967  0.3482 -0.2132  0.3580
  304POPC   NC3 4190   2.257   7.444   5.055 -0.0749 -0.2254  0.1278
  304POPC   PO4 4191   2.477   7.062   5.203 -0.1414  0.0806 -0.0209
  304POPC   GL1 4192   2.351   7.341   5.585 -0.0131 -0.2656 -0.2672
  304POPC   GL2 4193   2.011   7.380   5.542 -0.2835  0.0435  0.0682
  304POPC   C1A 4194   2.470   7.590   6.038 -0.2177  0.0401  0.1025
  304POPC   D2A 4195   2.473   7.956   6.122  0.1164 -0.2873  0.1645
  304POPC   C3A 4196   2.712   8.100   6.387  0.1596  0.1024  0.1809
  304POPC   C4A 4197   3.042   7.753   6.516  0.1493 -0.1975  0.1592
  304POPC   C1B 4198   1.850   7.256   5.977 -0.0023  0.1946  0.2064
  304POPC   C2B 4199   1.672   7.051   6.321  0.1047 -0.1550 -0.0387
  304POPC   C3B 4200   1.485   6.767   6.473 -0.0594 -0.1411  0.0007
  304POPC   C4B 4201   1.584   6.442   6.259 -0.1103 -0.0339  0.3839
  305POPC   NC3 4202   8.482   0.871   4.319 -0.2980  0.0028 -0.3463
  305POPC   PO4 4203   8.414   1.190   4.024 -0.1702  0.0472 -0.1141
  305POPC   GL1 4204   8.322   1.414   4.439 -0.0513  0.2558  0.0912
  305POPC   GL2 4205   8.321   1.190   4.680  0.0862 -0.0028 -0.1124
  305POPC   C1A 4206   8.261   1.688   4.676  0.2411 -0.3175  0.3230
  305POPC   D2A 4207   8.263   1.720   5.183 -0.3808  0.1750  0.0337
  305POPC   C3A 4208   8.243   1.841   5.615  0.0326  0.2939  0.0051
  305POPC   C4A 4209   7.905   2.029   5.849 -0.2294  0.0114 -0.1510
  305POPC   C1B 4210   8.555   1.347   5.025  0.2679  0.0874 -0.1148
  305POPC   C2B 4211   8.544   1.354   5.487 -0.1927  0.1295 -0.1002
  305POPC   C3B 4212   8.579   1.552   5.875  0.0018 -0.0618  0.1832
  305POPC   C4B 4213   8.871   1.797   6.116 -0.0512 -0.3470 -0.2115
  306POPC   NC3 4214   0.336   8.828   4.578  0.3053 -0.0003  0.3547
  306POPC   PO4 4215   0.400   8.838   5.013  0.0004  0.2128 -0.1101
  306POPC   GL1 4216   0.665   8.719   5.365  0.1735 -0.3884  0.1814
  306POPC   GL2 4217   0.857   8.867   5.461 -0.1812  0.2743  0.1802
  306POPC   C1A 4218   0.862   8.423   5.709 -0.0490 -0.3573  0.1356
  306POPC   D2A 4219   0.819   8.296   6.059 -0.1813  0.3024 -0.1070
  306POPC   C3A 4220   0.389   8.373   6.228 -0.0869  0.3256  0.4210
  306POPC   C4A 4221   0.304   8.853   6.345  0.0782  0.0110 -0.3244
  306POPC   C1B 4222   0.769   8.860   5.951 -0.2513 -0.0496  0.1456
  306POPC   C2B 4223   0.854   8.763   6.341 -0.0791 -0.2768  0.3029
  306POPC   C3B 4224   0.723   9.024   6.688  0.0184 -0.3168  0.1108
  306POPC   C4B 4225   0.741   9.009   7.140 -0.2801 -0.1922 -0.0992
  307POPC   NC3 4226   2.577   6.501   5.253 -0.1260  0.0655 -0.0929
  307POPC   PO4 4227   2.956   6.320   5.021 -0.0470 -0.0906 -0.2594
  307POPC   GL1 4228   3.075   6.331   5.503  0.2945 -0.0089  0.1736
  307POPC   GL2 4229   3.311   6.274   5.699  0.1283 -0.1612 -0.1727
  307POPC   C1A 4230   2.800   6.114   5.878  0.1137 -0.0873 -0.2299
  307POPC   D2A 4231   2.956   5.988   6.348  0.0181  0.0122  0.1273
  307POPC   C3A 4232   3.109   5.656   6.530  0.0464  0.1414  0.1908
  307POPC   C4A 4233   3.218   5.258   6.690 -0.0957 -0.0105 -0.1805
  307POPC   C1B 4234   3.416   6.270   6.183  0.1169  0.0583 -0.0212
  307POPC   C2B 4235   3.388   6.216   6.574 -0.0443  0.0431 -0.0871
  307POPC   C3B 4236   3.137   6.298   6.927  0.2057  0.0776 -0.0300
  307POPC   C4B 4237   3.151   6.490   7.350 -0.1808  0.0344 -0.1237
  308POPC   NC3 4238   1.197   6.770   4.936  0.0248 -0.0802  0.1294
  308POPC   PO4 4239   0.733   6.891   4.872  0.0954  0.0922  0.1108
  308POPC   GL1 4240   0.810   6.729   5.357 -0.1483  0.0816 -0.0021
  308POPC   GL2 4241   0.860   7.084   5.372  0.0092 -0.1129 -0.0748
  308POPC   C1A 4242   0.605   6.552   5.745  0.0245 -0.0555  0.0489
  308POPC   D2A 4243   0.746   6.122   5.880  0.3430  0.0206 -0.0978
  308POPC   C3A 4244   0.642   6.081   6.354 -0.1737  0.0623 -0.0475
  308POPC   C4A 4245   0.765   5.926   6.736  0.0778  0.1690  0.1723
  308POPC   C1B 4246   0.667   7.414   5.597  0.0242  0.4489 -0.0569
  308POPC   C2B 4247   0.353   7.733   5.526  0.1057  0.1462 -0.1714
  308POPC   C3B 4248   0.050   7.948   5.485  0.2860 -0.1473 -0.0621
  308POPC   C4B 4249  -0.102   8.290   5.663 -0.0416  0.0743  0.0742
  309POPC   NC3 4250   8.306   9.375   4.745 -0.1600 -0.2987  0.0466
  309POPC   PO4 4251   7.830   9.654   4.801  0.1538 -0.0762  0.4297
  309POPC   GL1 4252   7.842  10.009   5.002  0.2150 -0.0591 -0.1619
  309POPC   GL2 4253   7.719  10.387   4.882  0.0048 -0.0787  0.0222
  309POPC   C1A 4254   7.678  10.172   5.383 -0.0059 -0.1630 -0.1079
  309POPC   D2A 4255   7.360  10.506   5.547  0.2153  0.2880 -0.0003
  309POPC   C3A 4256   7.358  10.816   5.890  0.2403  0.3064  0.1005
  309POPC   C4A 4257   7.381  11.346   5.967  0.0625  0.3051 -0.1373
  309POPC   C1B 4258   7.685  10.637   5.190  0.1121  0.0616  0.0952
  309POPC   C2B 4259   7.835  10.736   5.679  0.2427  0.0011  0.3304
  309POPC   C3B 4260   7.878  11.110   6.004 -0.0459  0.0869  0.1905
  309POPC   C4B 4261   7.944  11.373   6.327  0.0418  0.1596  0.1740
  310POPC   NC3 4262   5.793   2.034   3.683 -0.0376 -0.2372 -0.1568
  310POPC   PO4 4263   5.340   2.255   3.600  0.1248 -0.3604  0.0816
  310POPC   GL1 4264   5.624   2.468   4.018  0.1731  0.1352  0.1308
  310POPC   GL2 4265   5.504   2.328   4.333 -0.0800  0.0221 -0.2615
  310POPC   C1A 4266   5.674   2.794   3.933 -0.0675 -0.1456  0.0787
  310POPC   D2A 4267   5.951   3.040   4.076 -0.1539 -0.0446 -0.1072
  310POPC   C3A 4268   5.735   3.225   4.388  0.1456  0.0944 -0.3110
  310POPC   C4A 4269   5.401   3.329   4.678 -0.1821  0.0105 -0.1280
  310POPC   C1B 4270   5.393   2.360   4.732  0.1782 -0.1931  0.1564
  310POPC   C2B 4271   5.587   2.263   5.097  0.1060 -0.0998 -0.0067
  310POPC   C3B 4272   5.678   1.909   5.094 -0.1494  0.2515  0.0008
  310POPC   C4B 4273   5.761   1.554   5.497  0.0091 -0.2254 -0.2791
  311POPC   NC3 4274   8.448   7.562   5.261  0.1947  0.1809 -0.0987
  311POPC   PO4 4275   8.837   7.630   5.457 -0.2258 -0.1113 -0.0556
  311POPC   GL1 4276   8.834   7.618   5.964  0.0153  0.1476  0.1206
  311POPC   GL2 4277   9.159   7.636   5.921 -0.0999  0.0541 -0.0415
  311POPC   C1A 4278   8.632   7.749   6.237  0.1765 -0.0233  0.0693
  311POPC   D2A 4279   8.634   7.912   6.713 -0.4696 -0.2004 -0.0333
  311POPC   C3A 4280   8.923   8.216   6.878  0.1217  0.0464 -0.1771
  311POPC   C4A 4281   9.315   8.306   6.624 -0.2323  0.0288  0.0869
  311POPC   C1B 4282   9.399   7.897   6.119  0.1337  0.2536 -0.1973
  311POPC   C2B 4283   9.570   7.947   6.411 -0.0117 -0.0411 -0.3185
  311POPC   C3B 4284   9.980   7.725   6.534  0.0983 -0.0512  0.0598
  311POPC   C4B 4285  10.513   7.659   6.463  0.2658 -0.0435  0.1560
  312POPC   NC3 4286   4.004   7.071   5.402  0.1458 -0.2073  0.1170
  312POPC   PO4 4287   4.339   6.810   5.528  0.3021  0.0453 -0.0499
  312POPC   GL1 4288   4.262   6.677   5.814 -0.1819  0.1492 -0.1679
  312POPC   GL2 4289   4.432   6.419   5.843  0.0154  0.3532  0.0767
  312POPC   C1A 4290   4.088   6.724   6.234  0.0205 -0.3317  0.1211
  312POPC   D2A 4291   4.085   6.749   6.748 -0.1177 -0.1963  0.1095
  312POPC   C3A 4292   4.166   6.257   6.960 -0.0384  0.0906  0.0514
  312POPC   C4A 4293   4.348   5.880   7.039 -0.2029  0.0508  0.2509
  312POPC   C1B 4294   4.456   6.298   6.197 -0.6150  0.0321  0.1170
  312POPC   C2B 4295   4.558   6.228   6.681 -0.4642  0.1684 -0.1186
  312POPC   C3B 4296   4.879   6.507   6.986 -0.2857  0.1072 -0.0863
  312POPC   C4B 4297   4.919   6.721   7.360 -0.0314  0.3480 -0.1275
  313POPC   NC3 4298   1.032   7.265   4.929 -0.2669 -0.2620 -0.1899
  313POPC   PO4 4299   1.467   7.239   4.773  0.0190 -0.0240  0.1919
  313POPC   GL1 4300   1.419   7.123   5.227  0.1611 -0.2552  0.0665
  313POPC   GL2 4301   1.452   6.726   5.337  0.2744 -0.1227 -0.0597
  313POPC   C1A 4302   1.251   7.193   5.623  0.2616 -0.1095  0.1852
  313POPC   D2A 4303   1.234   7.096   6.049 -0.0174  0.2077 -0.0299
  313POPC   C3A 4304   1.080   7.059   6.395  0.0754  0.0827  0.0339
  313POPC   C4A 4305   0.957   6.776   6.684  0.1821  0.2762  0.1354
  313POPC   C1B 4306   1.711   6.921   5.616 -0.2772  0.1522 -0.0687
  313POPC   C2B 4307   1.800   6.728   5.890 -0.0587  0.1446 -0.1833
  313POPC   C3B 4308   2.047   6.498   6.195 -0.0034 -0.2580  0.0492
  313POPC   C4B 4309   2.090   6.184   6.522 -0.3400 -0.0959 -0.0575
  314POPC   NC3 4310   4.808   9.433   4.721 -0.0124  0.2051 -0.1559
  314POPC   PO4 4311   5.056   9.774   4.772 -0.0133 -0.0357  0.2816
  314POPC   GL1 4312   5.313   9.790   5.173 -0.2257  0.3156 -0.2253
  314POPC   GL2 4313   5.138   9.959   5.258 -0.0288 -0.2733  0.1323
  314POPC   C1A 4314   5.538   9.812   5.532 -0.1774 -0.0590  0.2152
  314POPC   D2A 4315   5.663   9.976   5.958 -0.0285  0.0169 -0.0239
  314POPC   C3A 4316   5.554  10.508   6.102  0.1177  0.0878  0.1416
  314POPC   C4A 4317   5.989  10.658   6.187  0.1983  0.3361  0.0456
  314POPC   C1B 4318   4.642   9.962   5.525  0.0663 -0.0874 -0.0113
  314POPC   C2B 4319   4.520   9.537   5.782 -0.3461  0.2528  0.0048
  314POPC   C3B 4320   4.327   9.289   6.118  0.0880 -0.1474  0.1116
  314POPC   C4B 4321   3.903   9.133   6.283 -0.0918  0.0250 -0.1541
  315POPC   NC3 4322   2.955   7.200   4.979 -0.3347  0.1397 -0.0354
  315POPC   PO4 4323   2.771   7.557   5.177 -0.2132 -0.0965  0.0513
  315POPC   GL1 4324   2.783   7.698   5.609 -0.1241  0.2161  0.2139
  315POPC   GL2 4325   2.772   8.036   5.738 -0.1437 -0.2051  0.2843
  315POPC   C1A 4326   2.948   7.612   5.966  0.0650  0.0746  0.2091
  315POPC   D2A 4327   2.722   7.346   6.367 -0.0766 -0.1175  0.0181
  315POPC   C3A 4328   2.489   7.602   6.565  0.0371 -0.1840  0.0883
  315POPC   C4A 4329   2.198   7.621   6.935  0.0619 -0.0757 -0.2832
  315POPC   C1B 4330   3.194   8.025   5.908 -0.1842 -0.1721  0.1176
  315POPC   C2B 4331   3.635   8.033   6.121 -0.0320 -0.4497  0.0539
  315POPC   C3B 4332   3.656   8.079   6.454 -0.3440 -0.0953  0.1402
  315POPC   C4B 4333   3.582   8.122   6.896 -0.2044 -0.1560 -0.2336
  316POPC   NC3 4334   2.488   3.703   5.279  0.2151 -0.1837  0.1756
  316POPC   PO4 4335   2.307   4.050   5.291 -0.1525  0.3542  0.2453
  316POPC   GL1 4336   2.259   4.104   5.737 -0.0867  0.0914  0.0056
  316POPC   GL2 4337   2.470   4.367   5.892  0.1414  0.2416  0.2902
  316POPC   C1A 4338   2.013   4.191   6.063 -0.0317  0.3509  0.4943
  316POPC   D2A 4339   2.011   4.187   6.475 -0.3042 -0.0480  0.3334
  316POPC   C3A 4340   2.379   3.959   6.510  0.0842 -0.5285 -0.2161
  316POPC   C4A 4341   2.600   3.754   6.872  0.2567 -0.1703  0.0489
  316POPC   C1B 4342   2.807   4.716   6.040 -0.1987 -0.0746  0.1037
  316POPC   C2B 4343   3.047   4.786   6.434  0.1796  0.1967  0.0566
  316POPC   C3B 4344   3.125   4.422   6.777 -0.3379  0.2584 -0.1832
  316POPC   C4B 4345   3.401   4.359   7.173  0.0151 -0.2274  0.3373
  317POPC   NC3 4346   5.861   0.772   4.315 -0.2170  0.2241  0.2286
  317POPC   PO4 4347   6.238   0.702   4.128  0.0223  0.1500 -0.4196
  317POPC   GL1 4348   6.333   0.982   4.484  0.3175 -0.0706 -0.0370
  317POPC   GL2 4349   6.063   1.010   4.729  0.1245  0.1124 -0.1036
  317POPC   C1A 4350   6.583   1.149   4.846  0.0319 -0.3670  0.2059
  317POPC   D2A 4351   6.995   1.249   4.993  0.0300  0.1452  0.0008
  317POPC   C3A 4352   7.037   1.474   5.409 -0.1911  0.1333 -0.1199
  317POPC   C4A 4353   6.961   1.446   5.787  0.1093 -0.4913  0.2316
  317POPC   C1B 4354   6.245   0.863   5.070 -0.0993 -0.2130 -0.1514
  317POPC   C2B 4355   6.094   1.164   5.416 -0.1923  0.1424  0.3448
  317POPC   C3B 4356   6.281   1.459   5.695  0.3556 -0.1924  0.0296
  317POPC   C4B 4357   6.641   1.804   5.683  0.1196 -0.1873 -0.0804
  318POPC   NC3 4358   3.418   3.785   4.738 -0.1864 -0.1162 -0.0481
  318POPC   PO4 4359   3.310   4.115   5.080  0.1140  0.0523 -0.1379
  318POPC   GL1 4360   3.341   4.399   5.466  0.2127  0.0748 -0.3342
  318POPC   GL2 4361   3.036   4.370   5.776  0.0659 -0.1252  0.1524
  318POPC   C1A 4362   3.388   4.691   5.873  0.2752  0.2651  0.0835
  318POPC   D2A 4363   3.491   4.901   6.251 -0.3132 -0.0039 -0.1725
  318POPC   C3A 4364   3.923   4.680   6.469 -0.4296  0.1946 -0.1472
  318POPC   C4A 4365   4.301   4.533   6.316  0.0061 -0.0610 -0.0639
  318POPC   C1B 4366   3.174   4.354   6.151 -0.5403  0.0240  0.0113
  318POPC   C2B 4367   3.511   4.331   6.478  0.2249  0.0453  0.2228
  318POPC   C3B 4368   3.831   4.363   6.830  0.1179  0.0140 -0.2149
  318POPC   C4B 4369   3.951   4.649   7.136  0.0270  0.0397  0.0006
  319W        W 4370   3.164   7.350   2.830  0.0042 -0.1034  0.2806
  320W        W 4371   8.817   0.983  11.595  0.1307  0.1078 -0.1992
  321W        W 4372   7.187   9.847  10.530  0.0205  0.0145  0.0799
  322W        W 4373   1.525   6.067  13.290 -0.0436  0.1345  0.1228
  323W        W 4374   4.157   5.056  10.070 -0.1417 -0.0553  0.3086
  324W        W 4375   8.396   4.193   1.533 -0.2633 -0.0308 -0.0028
  325W        W 4376   8.195   6.074  12.431  0.4604 -0.0447 -0.0745
  326W        W 4377   5.984   9.391   2.092  0.2343  0.0536 -0.2907
  327W        W 4378   6.794  10.012   0.827 -0.0343 -0.1314 -0.1207
  328W        W 4379   1.282   5.613   3.495  0.0801  0.1933  0.0503
  329W        W 4380   2.533   7.862  12.516  0.2464  0.2179  0.0249
  330W        W 4381   2.653   1.979   3.200 -0.2176 -0.1709  0.1542
  331W        W 4382   1.078   4.645   4.532 -0.3035  0.0303 -0.2602
  332W        W 4383   0.640   9.823   4.704 -0.1551  0.2097  0.0627
  333W        W 4384   5.466   1.154   0.068 -0.0535 -0.0779 -0.3281
  334W        W 4385   2.781   5.687   8.662  0.0573  0.2637  0.1952
  335W        W 4386   4.828   7.717  10.931 -0.1215 -0.3548 -0.1511
  336W        W 4387   9.594   5.146   1.545 -0.1858 -0.2732  0.0532
  337W        W 4388   5.845   9.715   4.280  0.2314  0.2463  0.0457
  338W        W 4389   6.317   0.108  11.154  0.1510  0.3610  0.0611
  339W        W 4390   6.284   6.035   0.090  0.1731 -0.2991 -0.2562
  340W        W 4391   7.422   8.871   9.902  0.0270  0.2807  0.5093
  341W        W 4392   7.758   5.119   3.134  0.1454  0.1768 -0.0020
  342W        W 4393   3.617   6.808   4.320  0.2206 -0.0696  0.0847
  343W        W 4394   9.063   0.363   3.065 -0.2674 -0.1483 -0.2984
  344W        W 4395   0.327   4.122   0.810 -0.2143 -0.2660  0.2985
  345W        W 4396   4.015   4.136   0.090  0.1484  0.0800  0.2804
  346W        W 4397   7.754   9.025   0.107  0.1972 -0.3301  0.0439
  347W        W 4398   3.181   2.815  12.094  0.1398  0.0859 -0.1032
  348W        W 4399   8.333   4.860  12.527  0.0308 -0.1159  0.1374
  349W        W 4400   3.156   1.104  11.575 -0.0879  0.0978  0.0223
  350W        W 4401   0.449   5.784  12.497 -0.1109 -0.0233  0.1922
  351W        W 4402   2.730  10.139  10.222  0.0246 -0.1258 -0.2301
  352W        W 4403   2.523   4.321   4.309 -0.0376 -0.2865 -0.0388
  353W        W 4404   3.501   6.501  12.618  0.1177  0.0992  0.1620
  354W        W 4405   8.852   9.041   9.097  0.1902 -0.5398 -0.0070
  355W        W 4406   0.304   5.474   4.810  0.2377 -0.2307 -0.0062
  356W        W 4407   8.470   9.261  10.867 -0.0196 -0.1425 -0.1207
  357W        W 4408   5.065   1.141  11.986 -0.0267  0.0382 -0.2265
  358W        W 4409   6.672   5.934   1.017 -0.0101  0.4877 -0.4799
  359W        W 4410   7.722   0.950   3.385 -0.0384 -0.3612  0.4828
  360W        W 4411   9.023   7.113  12.113 -0.2574 -0.1500  0.0081
  361W        W 4412   9.319  10.039   3.335  0.1748  0.0125 -0.1394
  362W        W 4413   3.247   7.249  13.497 -0.2122  0.0935 -0.1205
  363W        W 4414   6.384   8.262  11.788  0.4972 -0.0923  0.1555
  364W        W 4415   6.965   2.742  13.934  0.0383 -0.0286 -0.2272
  365W        W 4416   3.918   7.486   2.814  0.0430  0.1106 -0.1753
  366W        W 4417   2.238   7.223   3.241  0.1318  0.1703  0.3776
  367W        W 4418   1.674   8.180   4.423  0.0416 -0.1204 -0.0003
  368W        W 4419   2.495   5.058  12.233  0.1432 -0.1855 -0.2321
  369W        W 4420   6.009   9.729   3.765  0.2813  0.2011 -0.0636
  370W        W 4421   8.926   8.054   1.480  0.0492 -0.0311 -0.1839
  371W        W 4422   7.647   7.094  12.128  0.0388  0.0525 -0.0968
  372W        W 4423   4.473   6.720   1.412  0.1523  0.1368  0.1661
  373W        W 4424   6.276   1.548   0.079  0.2152 -0.2433 -0.2029
  374W        W 4425   5.223   2.297   1.024  0.2125 -0.3427  0.0613
  375W        W 4426   1.996   6.638  12.891 -0.2854  0.0973 -0.1461
  376W        W 4427   3.742   7.011   1.320  0.1709 -0.1599 -0.3160
  377W        W 4428   3.225   9.605   1.216  0.0664 -0.1348 -0.0892
  378W        W 4429   4.352   8.967  10.542 -0.1299  0.0599 -0.3497
  379W        W 4430   0.654   9.548   3.699 -0.0563  0.1042  0.0362
  380W        W 4431   3.996   1.328   1.304  0.0673  0.1657  0.0809
  381W        W 4432   8.057   0.300   2.097 -0.0315  0.1573 -0.0908
  382W        W 4433   8.628   6.296   2.337 -0.0067 -0.1375  0.0533
  383W        W 4434   5.903   7.630  14.081 -0.0288  0.6195  0.1730
  384W        W 4435   2.558   7.082   1.099  0.2663  0.0153 -0.2303
  385W        W 4436   3.292   5.286  13.457 -0.3464 -0.1892  0.1562
  386W        W 4437   0.221   6.063   9.401  0.0295 -0.2643 -0.0724
  387W        W 4438   1.469   2.927   4.276  0.3809  0.0082  0.2569
  388W        W 4439   2.231   5.775   0.819  0.0137  0.2013  0.0518
  389W        W 4440   0.687   5.939   1.641 -0.0822 -0.1468  0.1646
  390W        W 4441   1.359   0.646   0.375  0.3782  0.0379  0.1191
  391W        W 4442  10.098   1.382   4.061  0.2019 -0.0733  0.1395
  392W        W 4443   5.272   5.503   0.597 -0.0192 -0.0683 -0.2950
  393W        W 4444   8.261   2.909   9.616 -0.1152 -0.4112  0.1193
  394W        W 4445   3.014   2.920   2.351  0.1779  0.0516 -0.1690
  395W        W 4446   3.623   3.464   1.274  0.1936  0.4079 -0.4493
  396W        W 4447   6.824   8.622   0.384 -0.4488  0.2666 -0.3322
  397W        W 4448   0.723   8.982   1.477 -0.4096 -0.0576 -0.1167
  398W        W 4449   8.018   7.977   4.471  0.3125  0.0718 -0.0328
  399W        W 4450   8.585   3.816  11.990  0.0551 -0.0925 -0.0128
  400W        W 4451   1.173   2.386   1.830  0.1316  0.3614  0.1638
  401W        W 4452   3.036   1.747   0.279  0.1932 -0.0686  0.0541
  402W        W 4453   6.518   1.368   1.660 -0.2293 -0.0050 -0.1051
  403W        W 4454   5.467   9.734  11.026 -0.0265 -0.1265  0.0077
  404W        W 4455   6.774   9.638   2.943 -0.3919  0.1086 -0.1123
  405W        W 4456   0.381   4.577   9.084 -0.0427 -0.1285  0.1119
  406W        W 4457   0.020   1.077  12.197  0.0703  0.2797  0.2688
  407W        W 4458   8.062   2.207   0.701  0.1411 -0.1438 -0.2304
  408W        W 4459   5.029   4.666  13.007  0.0956 -0.2393  0.1249
  409W        W 4460   1.942   8.199  13.597  0.1267 -0.2243  0.2660
  410W        W 4461   0.204   9.271  12.112 -0.1181 -0.1659 -0.1247
  411W        W 4462   7.716   5.221  12.462 -0.1321  0.0876  0.1774
  412W        W 4463   9.854   1.377   9.715 -0.1902 -0.2980 -0.1468
  413W        W 4464   1.174   6.304  11.237  0.1062  0.0821 -0.1159
  414W        W 4465   2.692   5.094  10.799  0.2884  0.2348 -0.0861
  415W        W 4466   1.677   8.953   3.692 -0.0619 -0.1425 -0.2411
  416W        W 4467   4.093   4.018   3.204  0.0720 -0.2996 -0.0416
  417W        W 4468  10.129   3.286  13.450  0.1851 -0.2091 -0.2064
  418W        W 4469   0.388   2.630   1.877  0.1815  0.1081 -0.0307
  419W        W 4470   5.709   3.270  12.278 -0.0724  0.0434  0.3118
  420W        W 4471   7.570   4.903   4.468  0.1236 -0.1724  0.0692
  421W        W 4472   7.187   4.877  11.420  0.1861  0.0723  0.1043
  422W        W 4473   6.557   2.257   1.233 -0.1415  0.3503 -0.1694
  423W        W 4474   5.361   6.381   1.006  0.0088 -0.2781 -0.0540
  424W        W 4475  10.080   3.987  10.711 -0.0508 -0.1181  0.2202
  425W        W 4476   4.790   2.996  13.176 -0.2203  0.1014  0.1943
  426W        W 4477   0.686   0.220   1.552  0.1546 -0.1807 -0.1460
  427W        W 4478   1.148   6.606   2.241 -0.0340 -0.0847  0.1929
  428W        W 4479   3.588   4.367  10.022 -0.0772 -0.0066  0.1727
  429W        W 4480   8.788   4.602   1.331 -0.0525 -0.0365  0.0839
  430W        W 4481   5.303   3.484  10.982 -0.3280 -0.3333  0.0652
  431W        W 4482   7.793   0.080   0.927  0.0320  0.4364 -0.0781
  432W        W 4483   0.095   0.201   0.554 -0.0056  0.0263 -0.2386
  433W        W 4484   4.827   8.628  13.665  0.0869  0.2197  0.0812
  434W        W 4485   0.008   8.504   1.345  0.2317 -0.1445  0.0707
  435W        W 4486   5.751   4.106  13.457  0.1546  0.1524  0.5039
  436W        W 4487   7.448   6.882  13.161 -0.0300 -0.0205 -0.2663
  437W        W 4488   2.244   3.482   2.633  0.0900 -0.0036  0.0040
  438W        W 4489   2.415   8.343  13.305 -0.1787  0.1607 -0.2711
  439W        W 4490   4.955   8.150   9.562 -0.3283  0.0007  0.2988
  440W        W 4491  10.061   8.522  10.728  0.0407  0.0168 -0.3319
  441W        W 4492  10.145   2.824   1.220 -0.0855 -0.1417  0.0142
  442W        W 4493   6.195   1.771  12.403 -0.0298 -0.0511 -0.2577
  443W        W 4494   3.179   1.548  12.738  0.0040 -0.2287 -0.1224
  444W        W 4495   5.264   3.302   7.712  0.2690  0.0958  0.2527
  445W        W 4496   4.712   1.495   0.227  0.1200 -0.0454  0.1634
  446W        W 4497   3.607   8.892   3.264  0.2200 -0.0398  0.2011
  447W        W 4498   1.634   7.787   9.532  0.1737  0.3023  0.2488
  448W        W 4499   5.995   8.436   1.909 -0.1792 -0.2727  0.0018
  449W        W 4500   4.955   0.107   4.911 -0.0103 -0.2787 -0.1221
  450W        W 4501   1.999   7.790   0.450 -0.0532 -0.4172  0.0238
  451W        W 4502   0.506   4.035   2.344 -0.0919  0.0852  0.0401
  452W        W 4503   5.517   3.636  11.396 -0.0594 -0.0425 -0.0028
  453W        W 4504   4.318   1.165  11.377  0.0445  0.0104  0.1951
  454W        W 4505   2.220   2.971  11.906  0.2543  0.2408 -0.1401
  455W        W 4506   0.224   3.023   9.759  0.2818 -0.2034  0.0269
  456W        W 4507   2.530   3.637  11.255 -0.2304  0.0586  0.1259
  457W        W 4508   2.564   7.398  13.899  0.1107 -0.0916  0.1190
  458W        W 4509  10.107   2.795  13.620 -0.1650 -0.0096  0.0204
  459W        W 4510   7.850   2.152  13.098 -0.1440  0.0457  0.1899
  460W        W 4511   7.841   8.316  12.871 -0.2015 -0.0297  0.1384
  461W        W 4512   1.557   1.218   2.683  0.0366  0.4628 -0.0288
  462W        W 4513   3.380   1.896   3.889  0.0526 -0.0399 -0.0994
  463W        W 4514   0.320   2.968  13.343 -0.0881 -0.2480  0.1013
  464W        W 4515   1.929   9.520  13.888 -0.1803 -0.1645 -0.0325
  465W        W 4516   9.896   8.960   3.859 -0.1286 -0.2224 -0.0180
  466W        W 4517   4.801   3.502  13.216  0.1173 -0.0426  0.2225
  467W        W 4518   2.159   9.108   1.432  0.1863 -0.1639 -0.1845
  468W        W 4519   0.043   9.051  12.534  0.0828 -0.0552 -0.2180
  469W        W 4520   5.611  10.024  10.617  0.0624  0.0991  0.2099
  470W        W 4521   8.710   4.949   3.586  0.2020 -0.1201  0.1248
  471W        W 4522   6.827   9.940  12.347  0.0471  0.0601 -0.0232
  472W        W 4523   3.499   6.621   2.431  0.2081  0.1570 -0.1194
  473W        W 4524   3.210   0.957  10.096  0.0432 -0.2285 -0.0199
  474W        W 4525   1.049   0.219   2.284  0.1057 -0.0071 -0.1987
  475W        W 4526   0.150   1.888  11.834  0.3618  0.3580  0.0570
  476W        W 4527   2.178   2.843   4.629  0.1714  0.1716 -0.3350
  477W        W 4528   7.854   6.938   5.351  0.0720  0.1735 -0.0723
  478W        W 4529   1.624   5.471   4.832  0.0106  0.3652  0.0115
  479W        W 4530   4.393   8.663  11.820 -0.1362 -0.3582  0.2387
  480W        W 4531   5.600   6.164   1.818 -0.1535 -0.3492  0.0179
  481W        W 4532   9.644   1.099  13.789 -0.1361 -0.0248  0.3451
  482W        W 4533   5.843   8.482   8.497  0.1076 -0.1986  0.1252
  483W        W 4534   2.033   1.136   9.724  0.2849  0.0855 -0.1184
  484W        W 4535   7.246   2.017  12.120 -0.0015 -0.2119  0.0987
  485W        W 4536   0.943   3.475   8.944  0.0249  0.0292  0.0329
  486W        W 4537   0.803   3.396  10.848  0.1842  0.0915 -0.1130
  487W        W 4538   1.164   0.700  10.040 -0.1055 -0.3898 -0.0545
  488W        W 4539   8.931   3.922   3.258  0.0264  0.4528 -0.1829
  489W        W 4540   4.482   0.063   2.616 -0.0628  0.2284  0.0745
  490W        W 4541   6.490   7.061  11.995 -0.0203  0.1438 -0.0859
  491W        W 4542   7.948   9.351  10.722 -0.0675 -0.1173  0.0416
  492W        W 4543   1.541   3.877  12.656 -0.0458  0.1064 -0.0504
  493W        W 4544   1.484   9.534   1.236 -0.1521 -0.0798  0.4364
  494W        W 4545   2.910   3.227  13.535  0.1130  0.0017  0.1468
  495W        W 4546   7.801   1.670   1.452 -0.0330 -0.2525  0.2333
  496W        W 4547   8.142   6.735   0.930  0.1781  0.1676 -0.1873
  497W        W 4548   3.684   7.142   3.095 -0.3881 -0.0341 -0.0896
  498W        W 4549   8.144   4.345   1.948 -0.1724  0.1425  0.1086
  499W        W 4550   4.764   4.323   3.027 -0.1709  0.0615 -0.1826
  500W        W 4551   5.493   6.113  11.854 -0.0186  0.0764  0.1599
  501W        W 4552   8.872   1.391   8.854 -0.1343  0.2076  0.1926
  502W        W 4553   0.861   2.412   4.204  0.1565  0.3177  0.1985
  503W        W 4554   0.112   0.181   9.655  0.0996 -0.2296 -0.3599
  504W        W 4555   2.285   7.206  10.301 -0.0395  0.1113 -0.0110
  505W        W 4556   9.958   7.436  12.621  0.0285 -0.1846 -0.1021
  506W        W 4557   0.825   5.543   2.003  0.0922 -0.1403  0.0590
  507W        W 4558   8.444   8.855   2.767  0.0022  0.3836 -0.0387
  508W        W 4559   6.901   0.124  10.632  0.0162 -0.0664 -0.1742
  509W        W 4560   2.504   8.194   1.953  0.3063  0.1477 -0.0848
  510W        W 4561   9.955   3.121   0.825 -0.1591 -0.2282 -0.3977
  511W        W 4562   1.729   1.367  11.133 -0.1071 -0.0816  0.0549
  512W        W 4563   9.667   1.895   2.390  0.1543  0.1880  0.0718
  513W        W 4564   7.408   8.256   1.093 -0.2761  0.1130  0.2090
  514W        W 4565   2.544   3.571   3.149 -0.0874 -0.2274 -0.0089
  515W        W 4566   6.552   9.825  10.872 -0.2113 -0.2878 -0.0272
  516W        W 4567   4.374   5.629  11.859  0.0818  0.0329 -0.0486
  517W        W 4568   4.236   6.263   3.208 -0.0252  0.3289 -0.2297
  518W        W 4569   9.842   4.262   2.226 -0.1053  0.0751  0.3098
  519W        W 4570   6.186   7.309   1.868 -0.3570  0.2306  0.1784
  520W        W 4571   2.819   8.288   8.668 -0.1522 -0.2135 -0.1920
  521W        W 4572   4.387   3.938   0.297  0.0438  0.1578  0.1131
  522W        W 4573   4.645   7.036   2.433  0.1959 -0.2155 -0.0953
  523W        W 4574   5.814   9.180  13.483  0.1808  0.1129  0.1140
  524W        W 4575   9.698   4.557  10.234 -0.0811  0.0363 -0.4886
  525W        W 4576   3.149   5.940   4.293 -0.0180  0.0893  0.0884
  526W        W 4577   0.356   4.031  11.501  0.0201  0.1236  0.1679
  527W        W 4578   3.371   8.099   1.783 -0.0853 -0.2516  0.1174
  528W        W 4579   6.081   4.566   0.608  0.0702  0.1049 -0.0120
  529W        W 4580   3.979   6.997   3.512  0.1132 -0.1034  0.0394
  530W        W 4581   3.223   8.958  12.388  0.0844 -0.0765 -0.1122
  531W        W 4582   1.823   4.982  10.642  0.0112 -0.1075  0.0407
  532W        W 4583   2.519   9.949  11.147 -0.0491  0.1723  0.3038
  533W        W 4584   1.599   4.031  13.968  0.1827  0.0697 -0.4353
  534W        W 4585   9.408   0.164  10.234  0.0000  0.4340  0.0957
  535W        W 4586   4.665   3.236  11.702  0.0143 -0.0631  0.2324
  536W        W 4587   5.804  10.118  13.626  0.2834  0.0304  0.0798
  537W        W 4588   9.616   3.520   9.976  0.2970  0.1004  0.1979
  538W        W 4589   4.894   8.723  12.692  0.2441 -0.0199 -0.2131
  539W        W 4590   0.886   2.553  10.568 -0.0736 -0.1232 -0.0930
  540W        W 4591   4.416   4.771   2.709 -0.0805 -0.0913  0.1953
  541W        W 4592  10.060   1.837   2.843 -0.3558  0.0458  0.1001
  542W        W 4593   3.717   7.132  11.285  0.1534 -0.2014  0.1591
  543W        W 4594   1.523   9.813  10.790 -0.4149 -0.4684  0.1130
  544W        W 4595   7.323   1.635   0.462  0.5265  0.1800  0.2396
  545W        W 4596   6.464   8.565   3.079  0.0474  0.0745 -0.3134
  546W        W 4597   6.388   7.369  10.289 -0.1851  0.2687 -0.3128
  547W        W 4598   2.556   3.310  11.766  0.4217 -0.0792 -0.2458
  548W        W 4599   8.199   6.870   8.865  0.1958 -0.1840 -0.4519
  549W        W 4600   5.785   5.318  10.220 -0.1409  0.0544 -0.0082
  550W        W 4601   0.359   9.339   3.292  0.3366 -0.2016 -0.4652
  551W        W 4602   8.769   3.420   4.162  0.0174 -0.3534 -0.0250
  552W        W 4603   0.735   9.401  12.871 -0.2411 -0.0408 -0.1821
  553W        W 4604   9.211   5.223   2.049  0.0454  0.1369 -0.0928
  554W        W 4605   8.839   0.446  13.507 -0.1192 -0.1575 -0.0066
  555W        W 4606   3.234   3.056   0.604 -0.0568 -0.0213  0.1651
  556W        W 4607   5.261   4.410   3.147  0.1967  0.2346 -0.2187
  557W        W 4608   6.764   6.667  13.764  0.0654  0.0299  0.0920
  558W        W 4609   8.063   4.390  12.648 -0.0342 -0.1812 -0.0004
  559W        W 4610   8.790   3.929  12.472 -0.1927  0.1628  0.3816
  560W        W 4611   8.700   8.472   9.178  0.0048  0.1637  0.0503
  561W        W 4612   1.611   3.256   9.568 -0.0883 -0.3287  0.1161
  562W        W 4613   9.595   9.919  13.500 -0.0653  0.2513  0.4400
  563W        W 4614   6.446   0.074   3.230  0.0385  0.2593 -0.1066
  564W        W 4615   1.846   3.654  13.753 -0.0120 -0.2111  0.0613
  565W        W 4616   7.159   7.555  12.699  0.2131 -0.2601  0.0050
  566W        W 4617   4.134   8.092   1.862 -0.1426  0.3837  0.1901
  567W        W 4618   5.188   1.442  12.577  0.1863  0.3828 -0.2506
  568W        W 4619   1.697   0.248   4.069 -0.0654  0.1151 -0.0288
  569W        W 4620   9.171   2.762   1.497  0.3812  0.0091  0.0017
  570W        W 4621   0.236   9.272   4.302 -0.2178  0.1555  0.2371
  571W        W 4622   5.629   5.346   0.138 -0.0945  0.1565  0.1746
  572W        W 4623   1.454   9.481  11.193  0.1050  0.1452  0.1207
  573W        W 4624   0.383   4.650   9.611  0.0019  0.3283 -0.1517
  574W        W 4625   8.248   8.201  12.039  0.1744 -0.0385  0.1636
  575W        W 4626   3.656   2.718   3.828  0.2803 -0.1806  0.0321
  576W        W 4627   2.092   4.799  11.378  0.1170  0.0121  0.0611
  577W        W 4628  10.073   3.238   4.890  0.1004 -0.3545  0.0833
  578W        W 4629   1.159   9.141   0.189 -0.1863  0.4067 -0.3263
  579W        W 4630   5.718   2.654   2.298 -0.2344 -0.0430 -0.2715
  580W        W 4631   4.887   5.973   9.995  0.3325 -0.0155 -0.1961
  581W        W 4632   8.064   7.425  12.151 -0.0736 -0.0574  0.0377
  582W        W 4633   4.911   1.045   4.291 -0.0950 -0.0647  0.1228
  583W        W 4634   6.975   3.715  10.744 -0.2928 -0.3911 -0.0445
  584W        W 4635   2.431   3.721   9.873 -0.1209 -0.4929  0.0514
  585W        W 4636   3.548   5.980  11.470  0.1724  0.1474  0.1369
  586W        W 4637   2.945   9.195   1.424 -0.3106  0.0669 -0.1288
  587W        W 4638   8.951   0.590   2.580  0.0804  0.1796  0.1938
  588W        W 4639   3.437   8.965  14.032 -0.0336  0.0641 -0.0613
  589W        W 4640   9.902   0.206  10.746  0.1219  0.0111  0.0010
  590W        W 4641   5.563   4.956  12.518 -0.2269  0.0818 -0.1916
  591W        W 4642  10.123   3.767   9.874  0.0009 -0.3117 -0.0731
  592W        W 4643   0.276   7.024   4.818 -0.1203 -0.1154 -0.2454
  593W        W 4644   7.547   4.746  11.781  0.0918 -0.2845 -0.0652
  594W        W 4645   1.234   6.364  12.955  0.3746 -0.1380  0.1282
  595W        W 4646   1.012   3.540  12.009 -0.0740  0.0811 -0.0246
  596W        W 4647   0.091   6.290   1.476  0.1957 -0.1762 -0.0252
  597W        W 4648   5.729   2.195  11.652 -0.1579 -0.1972 -0.3116
  598W        W 4649   5.307   0.794  12.289 -0.3474 -0.0425 -0.1157
  599W        W 4650   4.377   9.141  11.027 -0.1358 -0.2294 -0.1582
  600W        W 4651   6.891   9.402   1.564  0.0944 -0.1555  0.3117
  601W        W 4652   7.277   8.563  11.132 -0.2821  0.0590 -0.0122
  602W        W 4653   4.519   4.030   2.257  0.0898  0.0282 -0.0082
  603W        W 4654   3.633   0.345   0.987 -0.0638  0.0741  0.1884
  604W        W 4655   7.161   9.604  12.053 -0.2359  0.0209  0.0201
  605W        W 4656   1.479   8.720   0.857 -0.3752 -0.1696 -0.1924
  606W        W 4657   3.916   9.254  11.420  0.0796  0.4735 -0.1347
  607W        W 4658   5.026   5.004  13.791  0.3019 -0.0585 -0.1216
  608W        W 4659   3.185   0.602  12.532 -0.0656 -0.3201 -0.0411
  609W        W 4660  10.118   8.647   1.884 -0.5363  0.0589 -0.0450
  610W        W 4661   4.612   0.102   0.206 -0.1080  0.3738  0.3985
  611W        W 4662   6.027   8.827   4.532  0.0810  0.2142 -0.1279
  612W        W 4663   0.307   0.486  13.625 -0.0190  0.3315  0.0840
  613W        W 4664   6.433   8.195   1.851 -0.1647  0.0604 -0.0885
  614W        W 4665   0.015   0.809  10.393  0.0164 -0.1611 -0.1045
  615W        W 4666   3.706   7.867   4.033 -0.0452 -0.3078 -0.1055
  616W        W 4667   4.344   9.072   2.906  0.1171 -0.0846  0.3047
  617W        W 4668   1.889   2.627   4.246 -0.0968  0.0837 -0.0110
  618W        W 4669   0.872   6.438  13.947 -0.2896  0.2312 -0.1009
  619W        W 4670   8.469   1.026  13.058 -0.2188 -0.1799  0.0768
  620W        W 4671   2.056   3.492   9.602 -0.1551 -0.0446  0.0720
  621W        W 4672   5.072   9.289   3.362 -0.0609  0.2809 -0.0046
  622W        W 4673   1.336   3.052  11.889  0.0382  0.1200 -0.0159
  623W        W 4674   6.997   5.611   0.669  0.1113 -0.0444 -0.1745
  624W        W 4675   5.065   7.228   2.133 -0.1872  0.2407 -0.2141
  625W        W 4676   0.378   9.375   1.670 -0.0295  0.0688 -0.0533
  626W        W 4677   1.825   2.034   4.414 -0.0245 -0.2474 -0.0508
  627W        W 4678   1.937   5.223   4.576 -0.0315 -0.1547  0.2620
  628W        W 4679   4.456   2.645  12.233  0.0037  0.1850 -0.0022
  629W        W 4680   2.542   6.691   3.136 -0.2692  0.1216  0.3825
  630W        W 4681   9.609   8.745  10.601 -0.1790  0.0303 -0.0957
  631W        W 4682   0.392   1.045   4.246  0.0457 -0.2999 -0.2268
  632W        W 4683   4.307   3.148   1.740 -0.0153  0.0063  0.1479
  633W        W 4684   0.141   7.555  12.942 -0.1334  0.2819  0.1022
  634W        W 4685   1.786   2.008   9.439  0.2818  0.2493  0.1316
  635W        W 4686   5.089   2.004   2.009 -0.3721  0.2358  0.0487
  636W        W 4687   3.615   2.713  10.177  0.6685  0.0788  0.0434
  637W        W 4688   1.570   5.217   3.428 -0.1052 -0.1141  0.1127
  638W        W 4689   0.669   9.148  14.067  0.0732 -0.1204 -0.1625
  639W        W 4690   2.786   8.097  10.612  0.6092  0.0992 -0.1444
  640W        W 4691   2.396   1.188   5.265 -0.0280 -0.1111  0.0819
  641W        W 4692   5.739   0.776  13.976 -0.0919 -0.0878  0.1218
  642W        W 4693   9.260   3.066  12.678  0.2681  0.2486  0.1719
  643W        W 4694   7.803  10.000   2.545  0.0347  0.0680  0.2805
  644W        W 4695   7.382   4.150   2.375  0.1169 -0.0768  0.0897
  645W        W 4696   0.497   9.765  13.062  0.1261  0.2374  0.0655
  646W        W 4697   7.903   7.638   2.946  0.2417  0.2293  0.0962
  647W        W 4698   3.694   1.646  12.140 -0.0994 -0.1700 -0.0522
  648W        W 4699   0.509   6.860   4.402 -0.0988 -0.1614 -0.5557
  649W        W 4700   4.528   9.724  13.015 -0.1352 -0.1470  0.1075
  650W        W 4701   1.700   8.219   0.686  0.1148 -0.0531 -0.0140
  651W        W 4702   5.246   8.666   4.894 -0.2675  0.3744 -0.2645
  652W        W 4703   2.928   0.387   3.351 -0.0061  0.1507 -0.0991
  653W        W 4704   8.227   8.494  13.695 -0.0586  0.3396  0.1763
  654W        W 4705   5.555   7.021   1.461 -0.2306 -0.2397  0.1141
  655W        W 4706   5.581   5.859   9.380 -0.3480  0.0095 -0.1619
  656W        W 4707   9.277   6.997   4.089  0.1331  0.3044  0.2706
  657W        W 4708   3.925   9.041  10.381 -0.0908 -0.1541 -0.4292
  658W        W 4709   8.132   0.407   3.014  0.2212 -0.0610 -0.1363
  659W        W 4710   2.847   9.933  10.727 -0.1806  0.0759 -0.0919
  660W        W 4711   2.179   4.074   9.513  0.2112 -0.1735  0.2287
  661W        W 4712   7.775   0.456   1.187  0.1432 -0.2571 -0.0180
  662W        W 4713   4.075   7.837   2.341 -0.0744 -0.0170 -0.0931
  663W        W 4714   3.474   9.067  11.116  0.1260  0.1312 -0.2025
  664W        W 4715   3.656   0.403   4.157  0.0434 -0.3802 -0.0941
  665W        W 4716   3.418   8.645   2.768  0.2122 -0.1374  0.1000
  666W        W 4717   6.021   1.832  11.378 -0.3297  0.0524  0.1945
  667W        W 4718   7.459   9.889   3.374  0.1701  0.0321  0.1097
  668W        W 4719   2.548   1.977  11.717  0.1449 -0.1875 -0.0071
  669W        W 4720   8.208   3.473   3.386 -0.2036 -0.0901 -0.1261
  670W        W 4721   8.556   1.830  13.774 -0.0313 -0.1979 -0.5738
  671W        W 4722   0.690   3.166  12.522  0.1883 -0.0332  0.1516
  672W        W 4723   2.208   1.113   3.256  0.1156  0.0805 -0.2373
  673W        W 4724   3.967   9.175  14.069 -0.0511 -0.0682 -0.1627
  674W        W 4725   1.691   0.623  12.084 -0.0801  0.0310  0.1963
  675W        W 4726   2.464   1.258   9.428  0.2212  0.1359 -0.4217
  676W        W 4727   9.692   3.260   9.103 -0.1025  0.1899  0.1174
  677W        W 4728   8.553   0.316   2.276  0.0647 -0.1549  0.1525
  678W        W 4729   2.607   1.192  11.628  0.0809 -0.1949 -0.1266
  679W        W 4730   2.138   3.880   8.646 -0.3774 -0.2851 -0.0429
  680W        W 4731   5.927   7.652   3.541 -0.1655 -0.2027  0.1588
  681W        W 4732   1.748   7.272   2.811  0.2068 -0.1406 -0.0591
  682W        W 4733   7.634   7.255  13.904  0.5202 -0.0100 -0.0560
  683W        W 4734   8.213   7.384   1.602  0.0888 -0.1052 -0.1188
  684W        W 4735   1.491   9.239   9.328 -0.0533  0.1590  0.2828
  685W        W 4736   3.132   4.111  10.856 -0.1499 -0.0756 -0.1180
  686W        W 4737   8.572   8.061   9.440 -0.2314  0.3615 -0.3293
  687W        W 4738   6.557   7.563  12.475 -0.3769  0.2996 -0.4336
  688W        W 4739   0.705   4.046   3.585  0.2221  0.1273 -0.0081
  689W        W 4740   9.037   1.954  10.579  0.1391 -0.3581  0.0109
  690W        W 4741   1.932   3.258   9.131 -0.1221  0.1300 -0.0917
  691W        W 4742   6.368   5.007   9.475  0.0686  0.0994 -0.0949
  692W        W 4743   4.214  10.055   1.366 -0.1073 -0.3143  0.0692
  693W        W 4744   1.532   4.985  11.197  0.1475 -0.1502 -0.1093
  694W        W 4745   3.736   4.546   2.571 -0.0186 -0.1640 -0.1242
  695W        W 4746   2.836   3.933   0.654  0.3790  0.0869 -0.0466
  696W        W 4747   5.762   8.210  11.007 -0.0433  0.0617 -0.4172
  697W        W 4748   0.076   3.884  11.963  0.1768 -0.0071  0.2701
  698W        W 4749   0.686   7.949   9.634 -0.1406 -0.3603  0.2026
  699W        W 4750   1.112   7.104   4.459  0.0431 -0.0208 -0.1413
  700W        W 4751   3.028   7.547   9.726  0.1447 -0.1694  0.0178
  701W        W 4752   9.786   1.541  10.147 -0.1058 -0.1183 -0.3025
  702W        W 4753   7.758   8.019   9.267  0.0040  0.0892 -0.0364
  703W        W 4754   0.523   8.961  12.782  0.0128  0.1912  0.1735
  704W        W 4755   3.017   6.669  10.690  0.0317 -0.2004  0.1613
  705W        W 4756   5.735   3.310  13.102 -0.0132  0.1145  0.2111
  706W        W 4757   8.752   3.652  13.034  0.1481  0.0080  0.1423
  707W        W 4758   7.172   7.223   0.019  0.0447  0.1499 -0.1456
  708W        W 4759   5.297   7.696   2.413 -0.1385  0.0461 -0.1856
  709W        W 4760   0.623   1.867  11.773  0.1596  0.1322  0.2635
  710W        W 4761   7.299   2.439  10.973  0.4436 -0.3107  0.2561
  711W        W 4762   7.875   4.932  11.453 -0.2122  0.0101 -0.1404
  712W        W 4763   4.009   0.060   2.740  0.0698 -0.3389 -0.1873
  713W        W 4764   7.319   2.710   2.815  0.0847 -0.1150 -0.0131
  714W        W 4765   5.017   8.382  12.312 -0.1345 -0.0448  0.3659
  715W        W 4766  10.017   3.250   3.373 -0.2047 -0.0441 -0.4163
  716W        W 4767   3.908   6.254  11.140  0.0386 -0.1160 -0.0592
  717W        W 4768   8.943   5.644  11.917 -0.2106 -0.1767 -0.0118
  718W        W 4769   3.959   2.217  14.022  0.2192  0.0736  0.2935
  719W        W 4770   3.393   7.226   0.824  0.0957 -0.0894  0.2530
  720W        W 4771   0.094   1.159   1.664 -0.2592 -0.0941  0.0598
  721W        W 4772   7.929   7.399   4.378  0.2374 -0.1241  0.1742
  722W        W 4773   1.985   9.403  12.373  0.2450  0.2135 -0.5718
  723W        W 4774   1.456   6.930   3.102 -0.1296 -0.0083 -0.3084
  724W        W 4775   2.986   4.199   1.139  0.0120 -0.0279  0.2057
  725W        W 4776   2.709   5.711   4.145 -0.0657  0.0058 -0.0552
  726W        W 4777   3.337   7.968   1.292 -0.0329 -0.1425 -0.0301
  727W        W 4778   3.197   5.103  13.921  0.2219 -0.2398  0.2999
  728W        W 4779   7.574   6.260   4.576  0.3602  0.0564 -0.1978
  729W        W 4780   5.458   6.357  12.345 -0.1594 -0.0747 -0.0159
  730W        W 4781   7.962   1.799  13.972 -0.0376  0.2997 -0.2682
  731W        W 4782   1.974   4.436   1.046  0.1493 -0.0002 -0.0337
  732W        W 4783   1.963   2.056   1.475 -0.0846 -0.3715  0.3058
  733W        W 4784   5.372   2.488   7.950 -0.0332  0.0208  0.0413
  734W        W 4785   1.908   0.333   2.744 -0.1802  0.1256  0.4144
  735W        W 4786   2.817   8.001   1.498 -0.0821  0.2081  0.2442
  736W        W 4787   2.591   1.275   2.406  0.3418  0.0403 -0.0374
  737W        W 4788   3.149   5.647   1.866  0.1260 -0.1150  0.3855
  738W        W 4789   3.756   0.066   3.218 -0.1206  0.3237 -0.0635
  739W        W 4790   8.618  10.114   1.946  0.0309  0.1231 -0.0574
  740W        W 4791   4.290   4.554  10.801 -0.1330 -0.0560 -0.1245
  741W        W 4792   3.846   4.195  11.527 -0.1227  0.0860  0.1152
  742W        W 4793   6.730   7.758   0.859  0.0060  0.1120  0.3145
  743W        W 4794   2.138   9.834   2.127 -0.1043 -0.2021  0.1235
  744W        W 4795   1.578   5.730   2.470  0.0054  0.0471  0.0775
  745W        W 4796   1.561   5.290  13.413  0.2147  0.1208 -0.1214
  746W        W 4797   5.736   1.570  11.761 -0.1583 -0.0450 -0.2130
  747W        W 4798   1.495   3.583  12.163 -0.0814 -0.0758 -0.0518
  748W        W 4799   3.080   8.669  10.141  0.0751  0.2174 -0.0370
  749W        W 4800   0.154   7.516  13.986  0.3755 -0.0929  0.1792
  750W        W 4801   3.633   7.313   4.494 -0.0676 -0.0925  0.1894
  751W        W 4802   5.431   4.051   1.041  0.1065 -0.2501 -0.2178
  752W        W 4803   8.172   1.714   0.583  0.1094 -0.1321  0.0130
  753W        W 4804   1.622   9.908   3.352  0.1481  0.0013  0.0801
  754W        W 4805   8.439   9.388   1.711 -0.1407 -0.0244 -0.1480
  755W        W 4806   3.156   0.379   2.643  0.1370  0.0292 -0.2628
  756W        W 4807   0.588   4.432   0.556 -0.0521 -0.1972 -0.1616
  757W        W 4808   9.440   7.312   3.184 -0.0898 -0.1812 -0.0288
  758W        W 4809   7.653   3.792  10.174 -0.0357  0.1731 -0.2015
  759W        W 4810   7.283   1.674   2.231  0.0418  0.2085 -0.2257
  760W        W 4811   3.723   5.307   0.818 -0.1850 -0.2824  0.1594
  761W        W 4812   3.915   7.409  10.200  0.2348  0.0445 -0.2745
  762W        W 4813   4.135   6.838  10.338  0.2084  0.0171  0.0933
  763W        W 4814   1.338   1.747   4.284 -0.1168 -0.1084 -0.0935
  764W        W 4815   6.363   6.347   3.536 -0.1045 -0.2123 -0.1036
  765W        W 4816   9.957   9.802   5.422 -0.2415 -0.2096  0.1021
  766W        W 4817   9.994   2.847   9.334  0.1242  0.2149  0.1072
  767W        W 4818   6.346   9.181  13.615  0.0271 -0.0452  0.1050
  768W        W 4819   2.168   5.014   4.028  0.0926 -0.2279  0.3812
  769W        W 4820   3.759   5.830  11.914  0.1488  0.0430 -0.1037
  770W        W 4821   1.222   3.395   2.991  0.1069  0.2905 -0.1241
  771W        W 4822   7.389   9.622   3.778 -0.0083  0.0302 -0.0282
  772W        W 4823   4.885   5.300   0.838 -0.1445 -0.1154 -0.0927
  773W        W 4824   5.017   7.232   3.261 -0.1597  0.0384  0.0588
  774W        W 4825   6.258   5.331  12.184  0.0041  0.2750 -0.2568
  775W        W 4826   9.343   4.809   0.731  0.0810  0.0027 -0.0772
  776W        W 4827   2.232   1.189   1.948 -0.0612 -0.1786  0.1142
  777W        W 4828   9.215   1.055   1.953 -0.0754  0.0594 -0.2031
  778W        W 4829   4.257   1.228   1.771  0.0056  0.0555 -0.4149
  779W        W 4830   4.192   5.833  13.904 -0.1985  0.0742 -0.1500
  780W        W 4831   4.928   7.515  10.269 -0.0107  0.1347 -0.2204
  781W        W 4832   4.266   3.598  10.696 -0.0541  0.0734  0.3582
  782W        W 4833   6.882   2.958  11.741  0.0761 -0.0796  0.1014
  783W        W 4834   8.698   4.381   3.629  0.1272  0.1439 -0.2519
  784W        W 4835   0.900   7.987  10.510  0.1047  0.0960  0.1161
  785W        W 4836   9.026   4.846  11.141  0.2180  0.1000 -0.2635
  786W        W 4837   9.439   4.091   1.488  0.0539 -0.0882  0.0225
  787W        W 4838   0.983   2.820   2.626  0.1175 -0.1440 -0.2414
  788W        W 4839   3.031   6.137  11.375 -0.1546 -0.0869  0.0677
  789W        W 4840   5.787   7.474   1.325 -0.0099  0.1631 -0.0023
  790W        W 4841   4.514   6.378   0.389 -0.2343 -0.0938  0.1547
  791W        W 4842   1.856   1.726  12.912 -0.0830 -0.1476  0.0723
  792W        W 4843   7.580   9.912  11.250  0.0516  0.0942 -0.1735
  793W        W 4844   6.450   8.409   0.095  0.0063  0.0913  0.3103
  794W        W 4845   0.186   0.168  11.106 -0.3913  0.1779  0.0373
  795W        W 4846   6.132   9.334   0.814 -0.1995  0.2126  0.2693
  796W        W 4847   1.539   0.623   4.418  0.2008 -0.0766  0.0096
  797W        W 4848   3.660   5.034  10.243 -0.2826  0.1964  0.0082
  798W        W 4849   6.336   4.194   1.000 -0.2139  0.1300 -0.3865
  799W        W 4850   0.654   0.020  10.343  0.3286 -0.0017 -0.1029
  800W        W 4851   5.887   7.108   3.260  0.0027  0.0385 -0.0128
  801W        W 4852   0.696   4.355   3.149  0.0826  0.1468  0.1261
  802W        W 4853   9.381   2.528   1.144 -0.1075  0.2084 -0.1205
  803W        W 4854  10.143   4.675  10.354  0.2552  0.0163  0.0555
  804W        W 4855   4.869   1.143   0.682 -0.0397  0.3178 -0.2326
  805W        W 4856   5.556   5.971   3.149  0.0475  0.3396 -0.2029
  806W        W 4857   1.847   0.911  11.539 -0.1473 -0.0857  0.2179
  807W        W 4858   2.900   3.956   4.637  0.2453 -0.1324  0.2797
  808W        W 4859   4.580   4.518   1.955  0.1622 -0.0798  0.1851
  809W        W 4860   9.834   9.404  13.389 -0.0410  0.1802  0.1332
  810W        W 4861   8.607   6.696   2.053  0.2074  0.0309  0.1187
  811W        W 4862   1.047   9.524  10.907  0.0632 -0.0565  0.1757
  812W        W 4863   9.873   9.544   2.336  0.2224 -0.0263 -0.2214
  813W        W 4864   9.046   8.019   3.731  0.1532  0.2321  0.0084
  814W        W 4865   1.023   9.552   0.973  0.1943  0.2887  0.1679
  815W        W 4866   1.843   7.798   1.511  0.3450 -0.0239 -0.2129
  816W        W 4867   5.417   8.418   9.327 -0.5834  0.2399 -0.1674
  817W        W 4868   4.132   5.022  13.686  0.3779 -0.2626  0.0441
  818W        W 4869   8.983   9.298   3.870 -0.0684  0.1091 -0.1561
  819W        W 4870   5.968   0.306  13.929  0.1362  0.1895 -0.5266
  820W        W 4871   5.568   9.553   3.485 -0.2213 -0.3416 -0.0169
  821W        W 4872   5.861   1.196   3.323 -0.3600  0.1149  0.0441
  822W        W 4873   8.850   6.784   9.580  0.1266  0.3263 -0.1378
  823W        W 4874   5.736   8.272   0.452 -0.4736  0.2929  0.2722
  824W        W 4875   7.368   8.229   3.435 -0.0446 -0.0172 -0.1104
  825W        W 4876   2.951   9.046  13.588 -0.2574  0.3364 -0.1633
  826W        W 4877   1.173   2.467  13.308 -0.0911 -0.0392  0.2828
  827W        W 4878   0.397   8.829   4.098  0.1633 -0.0034  0.1027
  828W        W 4879   2.720   3.322   2.808 -0.1605  0.1985 -0.1408
  829W        W 4880   9.290   6.172  13.812  0.1411  0.1016  0.3230
  830W        W 4881   7.729   6.908  12.658  0.1828 -0.2027  0.0085
  831W        W 4882   4.872   5.649   2.279 -0.0294 -0.1746  0.0327
  832W        W 4883   6.605   6.211  11.891 -0.1716 -0.1260 -0.2067
  833W        W 4884   6.872   7.965   4.895  0.0332 -0.0689  0.0596
  834W        W 4885   6.795   5.845   3.832  0.1462  0.1305 -0.1061
  835W        W 4886  10.078   6.197   8.273 -0.1979  0.0642  0.1157
  836W        W 4887   7.008   6.745   0.485  0.2801 -0.1444 -0.1784
  837W        W 4888   8.432   6.579   4.401  0.0327 -0.1503 -0.2019
  838W        W 4889   1.742   8.947   0.027  0.0706  0.0984  0.0197
  839W        W 4890   5.299   8.987   0.884  0.4130  0.2214  0.0454
  840W        W 4891   8.482   4.024   0.133  0.4771  0.0470  0.3438
  841W        W 4892   3.030   6.558   4.067  0.1689  0.2054 -0.2440
  842W        W 4893   1.933   9.598  11.282 -0.0742 -0.2348 -0.1400
  843W        W 4894   3.269   7.934  10.352 -0.1798 -0.1329  0.1221
  844W        W 4895   9.087   5.020  12.600  0.0053  0.0409  0.0129
  845W        W 4896   4.106   5.167  10.543  0.3073 -0.2226 -0.0978
  846W        W 4897   2.140   2.304  12.659 -0.2226 -0.0314  0.1375
  847W        W 4898   3.986   1.717   3.432  0.0367 -0.1815 -0.0376
  848W        W 4899   5.959   3.170  13.719  0.0658  0.1338 -0.1121
  849W        W 4900   2.482   2.867  11.415  0.0382 -0.1164 -0.2773
  850W        W 4901   5.727   4.022  12.138 -0.1724  0.1191 -0.1005
  851W        W 4902   6.589   1.506  12.961 -0.1521  0.0065  0.2476
  852W        W 4903   2.636   9.561  13.094  0.0124 -0.2714  0.0221
  853W        W 4904   0.246   1.726  13.694  0.1058  0.0382  0.0805
  854W        W 4905   0.619   3.073   2.349  0.0836 -0.2920 -0.0302
  855W        W 4906   0.393   3.475   9.974 -0.0915 -0.1087  0.2376
  856W        W 4907   6.695   6.493   0.150  0.0820  0.0223 -0.1342
  857W        W 4908   0.323   5.696   0.320  0.1116  0.0453  0.2451
  858W        W 4909   1.412   0.114  13.772  0.2980 -0.5066 -0.0714
  859W        W 4910   3.957   2.873  12.908 -0.0523 -0.1020 -0.1384
  860W        W 4911   0.121   1.844   2.228 -0.2272 -0.3848  0.2275
  861W        W 4912   4.190   9.708   5.138  0.0827 -0.0239  0.3786
  862W        W 4913   4.993   7.892  14.066 -0.0467  0.1295  0.0535
  863W        W 4914   9.208   4.418  13.856 -0.0153 -0.0861  0.0981
  864W        W 4915   3.807   8.890  12.512  0.0222  0.1391  0.2576
  865W        W 4916   0.351   6.683   5.187 -0.4748 -0.2073 -0.1326
  866W        W 4917   4.158   5.588   2.674  0.1092  0.0923 -0.2475
  867W        W 4918   1.721   6.009  12.026  0.1163 -0.0957  0.0380
  868W        W 4919   6.995   6.797   5.042  0.1197  0.3791  0.0637
  869W        W 4920   5.566   1.096  12.567  0.3142  0.3210 -0.0660
  870W        W 4921   2.011   2.754   2.043  0.0620 -0.3465  0.1303
  871W        W 4922   2.083   2.784  13.365 -0.1897  0.0227 -0.0001
  872W        W 4923   8.756   7.471   9.998  0.0431 -0.0698 -0.0071
  873W        W 4924   2.103   2.946   1.095  0.1748  0.0039 -0.1712
  874W        W 4925   2.740   8.220  12.808 -0.2934 -0.0424  0.0984
  875W        W 4926   6.812   4.809  11.800 -0.3696 -0.3352 -0.2750
  876W        W 4927   2.276   1.010  12.638  0.2628  0.0319  0.0134
  877W        W 4928   5.822   1.901   1.644  0.0690 -0.0700 -0.0228
  878W        W 4929   6.773   5.210  13.544 -0.0983 -0.3576 -0.1547
  879W        W 4930   4.208   5.425  11.379 -0.2311 -0.1911  0.3571
  880W        W 4931   3.528   1.214   1.437 -0.1265  0.0943  0.0414
  881W        W 4932   0.178   3.597   3.589  0.0627  0.1204 -0.0247
  882W        W 4933   2.554   3.503  10.753 -0.1865  0.0024 -0.0654
  883W        W 4934   8.211   7.063  11.786 -0.0688 -0.1318  0.0417
  884W        W 4935   5.220   9.213  12.867 -0.0471  0.0737  0.2710
  885W        W 4936   3.082   0.666   2.074  0.1449  0.1886  0.2667
  886W        W 4937   4.570   4.754  10.271  0.1619  0.1761 -0.2366
  887W        W 4938   0.121   4.240   9.496  0.0557 -0.0208  0.2037
  888W        W 4939   1.079   5.203   3.197  0.1762 -0.4443  0.0409
  889W        W 4940   2.399   1.193  13.118 -0.0540  0.1860 -0.1872
  890W        W 4941   1.269   6.971   9.894 -0.1612  0.0718  0.2065
  891W        W 4942   1.501   6.187   4.461  0.0639  0.1064  0.1780
  892W        W 4943   4.411   1.520   1.390 -0.0494  0.1264 -0.0281
  893W        W 4944   6.435   0.746  12.398  0.2388 -0.0165  0.0865
  894W        W 4945   3.477   4.914  13.050  0.0347  0.2943 -0.2642
  895W        W 4946   5.691   2.217   2.532  0.2158  0.2332  0.0507
  896W        W 4947   3.820   4.744   4.652  0.0834  0.0386 -0.0164
  897W        W 4948   1.833   5.710   4.229  0.1006  0.0183  0.5755
  898W        W 4949   5.665   8.059  10.138 -0.0596 -0.0499  0.0974
  899W        W 4950   0.123   5.350  13.383  0.1089  0.1304 -0.1138
  900W        W 4951   8.324   6.752   9.664  0.1242 -0.1641  0.1505
  901W        W 4952   3.179   0.977   2.520  0.1985  0.2043 -0.1890
  902W        W 4953   7.762   1.179  10.603  0.1657 -0.2093 -0.0403
  903W        W 4954   6.552   3.524   0.341 -0.0540 -0.3883  0.0352
  904W        W 4955   4.439   7.512   0.543  0.0810 -0.1876  0.2690
  905W        W 4956   8.667   8.859  11.519  0.2665  0.0265 -0.4609
  906W        W 4957   3.100   4.418  10.006  0.0576 -0.1413  0.0757
  907W        W 4958   5.315   5.047   1.662 -0.0030  0.2401  0.0019
  908W        W 4959   4.655   9.940   1.561  0.1496  0.2295  0.2070
  909W        W 4960   0.336   2.644  10.147 -0.0800 -0.1845  0.1886
  910W        W 4961   5.871   8.127   5.058  0.0684 -0.5234  0.1562
  911W        W 4962   0.979   1.242  13.813  0.0731  0.0168 -0.2498
  912W        W 4963   0.101   9.941  12.707  0.1158 -0.1811 -0.0813
  913W        W 4964   9.722   0.610  13.071  0.0116  0.0615 -0.2180
  914W        W 4965   7.890  10.140  11.953 -0.1675 -0.2247  0.0239
  915W        W 4966   6.074   1.752  13.038 -0.1481 -0.0978 -0.0768
  916W        W 4967   8.304   3.843  13.769  0.0095 -0.0106 -0.0395
  917W        W 4968   8.805   0.082  13.897  0.0187 -0.0413  0.1593
  918W        W 4969   2.111   1.943   1.979  0.2302  0.0587 -0.1861
  919W        W 4970   8.684   5.798   1.522 -0.1956 -0.1333 -0.3241
  920W        W 4971   5.325   8.009  11.449 -0.1051  0.0936 -0.0395
  921W        W 4972   5.703   8.297  13.519  0.0319  0.1044 -0.2339
  922W        W 4973   8.703   4.822  13.969 -0.1009  0.0425 -0.0844
  923W        W 4974   0.027   5.916   4.789 -0.1414  0.0796 -0.0018
  924W        W 4975   5.016   5.218   8.987 -0.1811  0.1836  0.0959
  925W        W 4976   4.185   9.909   8.714  0.0713 -0.1337  0.2820
  926W        W 4977   6.771   6.186  10.794  0.2351  0.0093  0.1334
  927W        W 4978   8.425   7.202  10.390  0.0430  0.1826  0.3469
  928W        W 4979   1.267   9.605   1.833  0.0506 -0.3438 -0.2749
  929W        W 4980   4.513   8.216  10.838  0.0493 -0.1159 -0.0142
  930W        W 4981   7.566   1.667  13.538  0.1303  0.1113  0.0925
  931W        W 4982   7.089   9.645   9.443  0.1387 -0.0269  0.2575
  932W        W 4983   1.850   4.554  10.406  0.2893 -0.3974  0.1265
  933W        W 4984   4.354   5.191   2.961 -0.1735 -0.0480  0.0230
  934W        W 4985   2.008   7.368   2.377  0.0237  0.0258  0.0171
  935W        W 4986   5.526   6.722  11.985 -0.1574  0.3459 -0.0248
  936W        W 4987   2.915   2.444   3.126 -0.0319  0.1137 -0.0766
  937W        W 4988   2.841   4.130  13.460 -0.0430  0.3915 -0.1996
  938W        W 4989   4.826   8.136  13.458 -0.1417  0.0629 -0.0902
  939W        W 4990   5.196   6.460   1.991 -0.0063  0.0883 -0.1094
  940W        W 4991   0.359   8.345   9.706 -0.0202 -0.1851 -0.0588
  941W        W 4992   6.414   1.974  12.806  0.2571 -0.2232  0.0519
  942W        W 4993   9.762   2.972  12.107  0.1579  0.1721  0.0850
  943W        W 4994   7.663   3.345   0.781 -0.1083 -0.0583 -0.1774
  944W        W 4995   6.525   3.043  13.881 -0.1155  0.1666 -0.2316
  945W        W 4996   4.159   0.118  12.364 -0.1397 -0.1168  0.2019
  946W        W 4997   5.184   8.284  13.807 -0.4136 -0.0992 -0.1380
  947W        W 4998   8.758   6.593   3.128 -0.0256 -0.2730  0.0667
  948W        W 4999   3.436   1.468   3.575  0.0050 -0.2266 -0.0568
  949W        W 5000   7.357   5.294   3.498 -0.5800 -0.0886  0.2126
  950W        W 5001   1.582   7.150   4.285  0.0645 -0.4989  0.0132
  951W        W 5002   3.215   6.452   4.549 -0.2579 -0.0255  0.1492
  952W        W 5003   1.749   9.537   0.757  0.2161 -0.1557 -0.1571
  953W        W 5004   5.626   3.624   0.902 -0.3633  0.0328 -0.0877
  954W        W 5005   4.842   5.702   9.107 -0.1468  0.0478 -0.0120
  955W        W 5006   2.589   8.718  13.603 -0.0541 -0.0994 -0.3095
  956W        W 5007   8.485   5.827   9.982 -0.0503 -0.2234 -0.0993
  957W        W 5008   8.606   8.091   3.918  0.0252 -0.2855 -0.1144
  958W        W 5009   9.821   1.908  12.508 -0.0043 -0.0307 -0.1412
  959W        W 5010   4.679   8.694  11.398 -0.2663 -0.2820 -0.0038
  960W        W 5011   1.302   7.402  10.156 -0.0865  0.0244  0.2017
  961W        W 5012   3.542   7.606   2.525  0.0115  0.0633  0.1431
  962W        W 5013   5.496   7.482   3.384  0.0682 -0.1392  0.0232
  963W        W 5014   0.344   8.049  13.231  0.2839 -0.0151  0.1377
  964W        W 5015   5.890   6.959  10.380  0.1383  0.3528 -0.3456
  965W        W 5016   4.261   7.050   0.995 -0.1795  0.1713  0.3327
  966W        W 5017   7.707   0.998   2.586 -0.5627  0.1876  0.1822
  967W        W 5018   5.266   0.486   1.609 -0.1827  0.0950  0.0305
  968W        W 5019   3.679   8.026  12.383 -0.2630  0.0461 -0.2713
  969W        W 5020   9.962   2.369   0.469  0.1480  0.1464 -0.0594
  970W        W 5021   2.184   9.123  13.722 -0.1579  0.2631 -0.1910
  971W        W 5022   7.719   7.711  13.687 -0.1394 -0.0530 -0.2187
  972W        W 5023  10.059   8.442  12.337 -0.0504 -0.1932 -0.1898
  973W        W 5024   3.030   8.813   1.120 -0.0300  0.1596  0.0377
  974W        W 5025   5.937   8.206   0.019  0.1157 -0.1413  0.1524
  975W        W 5026   2.519   4.607   0.338  0.2926  0.1648 -0.3240
  976W        W 5027   9.103   9.974   9.306 -0.1161 -0.0995 -0.0242
  977W        W 5028   9.571   5.442   4.066 -0.0264 -0.1057 -0.2639
  978W        W 5029   3.395   8.506  10.960  0.0244  0.5582  0.0213
  979W        W 5030   1.160   8.699   1.242 -0.0876 -0.1858  0.0021
  980W        W 5031   5.712  10.127   2.755  0.0067  0.0493  0.0600
  981W        W 5032   3.927   2.270   1.542  0.1282 -0.2416 -0.1846
  982W        W 5033   6.717   1.124  10.706 -0.1339 -0.4382 -0.0111
  983W        W 5034   9.986   1.471   2.463  0.1313  0.0753 -0.1758
  984W        W 5035   0.500   5.765   3.542 -0.2016  0.1108  0.1702
  985W        W 5036   1.455   5.577  12.215  0.3222 -0.3994 -0.2203
  986W        W 5037   1.128   2.891   0.390  0.0205  0.0476 -0.1431
  987W        W 5038   7.411   3.221   2.959 -0.1609  0.0368 -0.0026
  988W        W 5039   3.283   0.209  14.025  0.1275 -0.0195 -0.0943
  989W        W 5040   7.118   8.847  11.546  0.4771 -0.1169  0.1566
  990W        W 5041   2.958   6.163   3.762 -0.2745  0.2782  0.0652
  991W        W 5042   1.626   1.365  10.617  0.1412 -0.1063 -0.0509
  992W        W 5043   6.231   9.436  13.174 -0.2081 -0.2494  0.0715
  993W        W 5044   5.894   1.657   3.292 -0.0054 -0.1064 -0.1923
  994W        W 5045   6.774   0.749  13.628 -0.1261  0.2522 -0.0077
  995W        W 5046   0.373   2.060   2.647 -0.2799 -0.0562 -0.1014
  996W        W 5047   6.545   8.047   9.573 -0.1123  0.0658 -0.4952
  997W        W 5048   5.560   4.507   0.697  0.1385  0.1762  0.0613
  998W        W 5049   4.776   0.107  12.190 -0.2416  0.1010 -0.3900
  999W        W 5050   3.151   2.486   1.330  0.3328 -0.1797  0.1100
 1000W        W 5051   1.685   3.827   9.589  0.2835  0.0606 -0.2426
 1001W        W 5052   3.356   0.530   3.156  0.0745  0.1380 -0.1297
 1002W        W 5053   1.214   1.129   0.536  0.1031 -0.1147 -0.1858
 1003W        W 5054   4.730   5.036  13.342 -0.0304 -0.1741 -0.0099
 1004W        W 5055   9.429   1.480   2.179  0.0788  0.0698 -0.2796
 1005W        W 5056  10.032   8.481  13.901 -0.0094  0.0039 -0.1496
 1006W        W 5057   9.625   6.215   4.487  0.0284 -0.1200 -0.2151
 1007W        W 5058   4.448   9.344   9.426 -0.0292  0.1701 -0.2182
 1008W        W 5059   3.091   8.875  10.804  0.0265 -0.1798 -0.2683
 1009W        W 5060   0.546   8.323  10.624  0.0691  0.0589 -0.1119
 1010W        W 5061   8.226   7.271   0.704  0.3925 -0.3465 -0.0479
 1011W        W 5062   3.251   2.410   3.831  0.2828 -0.1696 -0.0424
 1012W        W 5063   1.117   9.535   8.982 -0.1990 -0.0767  0.1376
 1013W        W 5064   5.921   6.884   4.075  0.1431 -0.0762  0.0424
 1014W        W 5065   8.230   5.528   3.811 -0.0087 -0.4540  0.1255
 1015W        W 5066   6.066   2.647   1.950 -0.1448  0.0165  0.2843
 1016W        W 5067   5.543   0.972   2.549  0.0541 -0.0422 -0.0620
 1017W        W 5068   0.764   2.428  10.085  0.0272  0.1326  0.2751
 1018W        W 5069   2.340   8.734  12.384  0.0826 -0.1979 -0.3779
 1019W        W 5070   6.777   3.653   6.896  0.2935  0.2488  0.0644
 1020W        W 5071  10.083   3.793   3.141  0.0797 -0.2827 -0.2934
 1021W        W 5072   6.969   0.032  10.136 -0.0782  0.1099  0.0845
 1022W        W 5073   5.893   6.316  13.886 -0.2475 -0.0501 -0.1299
 1023W        W 5074   5.183   8.471  11.454 -0.1962 -0.4771 -0.0225
 1024W        W 5075   4.043   9.818  13.104 -0.1803  0.0057  0.1147
 1025W        W 5076   0.654   5.885   4.025  0.2292  0.2552  0.0573
 1026W        W 5077  10.069   9.544   9.198 -0.2602  0.2071 -0.0054
 1027W        W 5078   3.395   4.857   2.409  0.0528 -0.3459 -0.1647
 1028W        W 5079   2.963   9.304   9.257 -0.0110 -0.0164 -0.2019
 1029W        W 5080   7.634   3.007  11.110 -0.1006 -0.0119  0.0614
 1030W        W 5081   1.110   0.544   0.868 -0.1968  0.2019 -0.3156
 1031W        W 5082   9.444   1.055   0.583  0.3987  0.2627 -0.1161
 1032W        W 5083   3.077   4.447   4.154  0.1559  0.0850 -0.4136
 1033W        W 5084  10.041   6.044  11.182  0.0525 -0.1828  0.2082
 1034W        W 5085   4.811   3.166   1.894 -0.0857 -0.4142  0.2301
 1035W        W 5086   7.262   3.897   1.305  0.1215 -0.2357  0.1867
 1036W        W 5087   7.386   6.832  10.145 -0.1374 -0.2032 -0.2043
 1037W        W 5088   2.676   8.140   3.032 -0.1494 -0.0241  0.0912
 1038W        W 5089   3.183   3.055   2.822 -0.0465  0.0282 -0.2223
 1039W        W 5090   1.604   4.388  11.253 -0.2155  0.2528 -0.0177
 1040W        W 5091   5.601   9.795   0.484 -0.0685  0.1706 -0.0605
 1041W        W 5092   4.428   3.032  10.038 -0.0688 -0.4703  0.0994
 1042W        W 5093   7.948   8.782   4.224  0.0054 -0.0373 -0.2760
 1043W        W 5094   1.747   0.822   2.931  0.1244 -0.1016  0.1294
 1044W        W 5095   5.924   9.192   3.663 -0.1135  0.0783 -0.1336
 1045W        W 5096   9.721   4.670   1.563 -0.1380  0.1256  0.2771
 1046W        W 5097   2.769   5.346  10.358 -0.0084  0.3452  0.2789
 1047W        W 5098   0.017   3.082   4.382  0.3162 -0.0508 -0.3553
 1048W        W 5099   2.364   4.280  13.424  0.1342  0.0889  0.1456
 1049W        W 5100   8.083   9.431  13.471  0.1534 -0.0605 -0.2395
 1050W        W 5101   6.575   4.971   3.381  0.2338  0.0587 -0.0620
 1051W        W 5102   1.602   8.809  11.961 -0.0734  0.0474 -0.0114
 1052W        W 5103   3.540   3.596   2.933  0.0081  0.3164 -0.0765
 1053W        W 5104   1.293   1.043   4.120  0.0411 -0.2549  0.0203
 1054W        W 5105   9.971   3.268  10.714 -0.0494  0.1669  0.5558
 1055W        W 5106   4.191   9.455   8.947 -0.0861  0.1696  0.0940
 1056W        W 5107   1.532   7.034   9.096  0.1793  0.3457  0.0424
 1057W        W 5108   9.542   2.401   3.914 -0.0279 -0.0388 -0.4052
 1058W        W 5109   8.590   0.612  13.910 -0.0305 -0.0647 -0.0609
 1059W        W 5110   8.255   9.765   4.411  0.1518  0.0702 -0.0027
 1060W        W 5111   2.704   0.675  11.464  0.0307  0.1935 -0.0914
 1061W        W 5112   0.391   8.058   1.319  0.2284 -0.0691 -0.0330
 1062W        W 5113   3.205   8.406   1.432  0.1690  0.3059  0.1078
 1063W        W 5114   1.909   6.855  13.486 -0.2511 -0.0422 -0.2180
 1064W        W 5115   0.449   0.215  12.700  0.2074  0.1321 -0.1273
 1065W        W 5116   4.136   7.178   8.792 -0.2173  0.1203  0.0007
 1066W        W 5117   1.669   0.415  13.045 -0.1756  0.0012 -0.0824
 1067W        W 5118   0.202   4.519  11.345 -0.2233  0.1206 -0.0905
 1068W        W 5119   3.658   8.671  12.979 -0.2152 -0.1099  0.0225
 1069W        W 5120   4.358   8.919  13.766 -0.1828  0.0033  0.2430
 1070W        W 5121   1.266   8.461   9.199 -0.0960 -0.1797  0.3618
 1071W        W 5122   1.232   0.113  10.977 -0.0585  0.1888 -0.0800
 1072W        W 5123   5.293   2.090   2.762  0.1379  0.0613  0.2839
 1073W        W 5124   5.197   9.686   3.163  0.1857  0.1384  0.0789
 1074W        W 5125   5.827   8.687  10.729 -0.1384  0.0968 -0.1794
 1075W        W 5126   5.722   5.667   3.557 -0.1775  0.0674  0.0477
 1076W        W 5127   9.836   9.089   0.547 -0.1690 -0.1048 -0.2816
 1077W        W 5128   6.842   9.563  11.592 -0.2484  0.0660  0.1539
 1078W        W 5129   1.739   0.509  10.265 -0.0771 -0.0360 -0.0626
 1079W        W 5130   2.752   1.544   1.983 -0.0479  0.2288 -0.2485
 1080W        W 5131   9.797   6.354   4.064  0.2121  0.3074  0.1615
 1081W        W 5132   4.949   8.705   2.180 -0.2209  0.0097  0.3571
 1082W        W 5133   8.955   9.161   2.564  0.1837 -0.2357 -0.2008
 1083W        W 5134   5.332   6.450   1.506 -0.0077 -0.1780 -0.0208
 1084W        W 5135   1.620   9.523   8.886 -0.0157 -0.0359  0.0651
 1085W        W 5136   1.708   0.419   2.109  0.1893  0.0565 -0.0531
 1086W        W 5137   0.556   3.434  13.332 -0.0861  0.0215 -0.2576
 1087W        W 5138   4.065   5.890  11.496  0.0925 -0.0078 -0.1657
 1088W        W 5139   4.468   3.409   0.327 -0.3149 -0.1911 -0.0856
 1089W        W 5140   5.707   6.807   2.648 -0.0247 -0.1646 -0.0710
 1090W        W 5141   7.749   8.978  11.103 -0.1741 -0.1808  0.0898
 1091W        W 5142   4.240   6.816  11.059  0.0905  0.1336 -0.0184
 1092W        W 5143   5.834   8.893   2.114  0.2881  0.3971 -0.1930
 1093W        W 5144   6.559   4.530   3.154 -0.0464  0.0624 -0.0176
 1094W        W 5145  10.125   4.132  13.176  0.2202  0.3539 -0.3077
 1095W        W 5146   3.308   9.406  11.444  0.1682  0.0833 -0.0691
 1096W        W 5147   7.882   3.355  10.892  0.2461  0.0023  0.1433
 1097W        W 5148   1.376   0.129   0.672 -0.0832 -0.2111  0.0295
 1098W        W 5149   5.623   7.898  10.605  0.1931  0.2010 -0.3242
 1099W        W 5150   6.462   0.607   0.202 -0.0240  0.0387  0.1670
 1100W        W 5151   6.960   4.668  13.335  0.1538 -0.4212  0.0674
 1101W        W 5152   4.872   9.451  11.235  0.1443  0.0771 -0.0224
 1102W        W 5153   6.373   7.637   0.510 -0.2874 -0.3176  0.0538
 1103W        W 5154   3.960   6.961   4.650 -0.1231  0.0148 -0.3164
 1104W        W 5155   7.131   8.125   1.996  0.3049 -0.0225  0.1020
 1105W        W 5156   4.984   4.343   1.053 -0.1769 -0.3762  0.1332
 1106W        W 5157   4.624   1.385  12.801 -0.0652 -0.0024  0.0636
 1107W        W 5158   0.258   0.078   1.289  0.0624 -0.1911  0.0925
 1108W        W 5159   6.868   5.232  12.526  0.1613  0.1395 -0.2973
 1109W        W 5160   0.044   7.599   2.605  0.2207 -0.1161 -0.1619
 1110W        W 5161   0.659   0.555   4.169  0.0727  0.3935  0.2253
 1111W        W 5162   4.651   4.856   2.283 -0.3878 -0.0884  0.2226
 1112W        W 5163   9.608   7.253   3.721 -0.1725  0.1072 -0.1373
 1113W        W 5164   2.406   4.467   1.291 -0.4321 -0.3481  0.1321
 1114W        W 5165   9.707   7.334   9.930 -0.0610 -0.0209 -0.2380
 1115W        W 5166   5.205   9.497  12.302  0.1178  0.0345 -0.0814
 1116W        W 5167   7.908   1.338  12.004  0.0627 -0.1323 -0.3218
 1117W        W 5168   5.548   2.976  12.721 -0.1718 -0.3345 -0.1487
 1118W        W 5169   0.540   8.168  10.135  0.0624  0.1150  0.0968
 1119W        W 5170   9.546   4.966  12.849 -0.1952 -0.1187  0.0862
 1120W        W 5171   5.550   0.287   1.182  0.1624  0.1247 -0.1149
 1121W        W 5172   7.969   2.762   0.174  0.2273 -0.0006  0.2190
 1122W        W 5173   3.990   2.177   0.505  0.0189  0.2103 -0.2423
 1123W        W 5174   4.688   5.875   4.441  0.2005  0.0312  0.0966
 1124W        W 5175   1.725   6.093  11.036 -0.0225 -0.2988  0.3320
 1125W        W 5176   5.284   8.916   1.822  0.0129  0.2965  0.0839
 1126W        W 5177   7.844   3.141  12.974 -0.0113 -0.4971  0.0296
 1127W        W 5178   0.962   0.154   9.013  0.0767  0.1984  0.1071
 1128W        W 5179   6.790   6.260  12.705  0.0633 -0.2206 -0.4369
 1129W        W 5180   3.428   2.566   2.224 -0.0213  0.3096  0.0855
 1130W        W 5181   3.210   5.927   3.392 -0.1364 -0.3142 -0.1169
 1131W        W 5182   4.446   3.745  12.551 -0.0247  0.1218 -0.2437
 1132W        W 5183   7.335   4.464   0.152 -0.1629 -0.0012  0.0854
 1133W        W 5184   7.734   5.157   2.166 -0.1044 -0.1597 -0.0570
 1134W        W 5185   9.932   3.838  13.607  0.0559  0.0606 -0.2133
 1135W        W 5186   3.585   9.517   0.814 -0.3756  0.0187 -0.2284
 1136W        W 5187   0.909   0.096   4.943 -0.1402  0.2955  0.4561
 1137W        W 5188   4.285   4.288   2.806  0.1652 -0.2733  0.1330
 1138W        W 5189   9.747   4.245  12.801  0.3809  0.1234 -0.1748
 1139W        W 5190   7.079   6.193  11.676  0.0880 -0.1418 -0.1382
 1140W        W 5191   1.615   6.557   1.215  0.0889 -0.1348  0.0117
 1141W        W 5192   1.824  10.007  11.799  0.0392 -0.1906  0.1532
 1142W        W 5193   1.279   9.613   0.547  0.1130 -0.0285 -0.2721
 1143W        W 5194   7.249   5.106   0.936 -0.1149 -0.3113 -0.0363
 1144W        W 5195   1.333   1.837   3.405  0.1630  0.3046  0.1968
 1145W        W 5196   7.774   7.084   4.858 -0.1154 -0.1517 -0.2712
 1146W        W 5197   2.551   5.538   0.383 -0.1593  0.0628 -0.1381
 1147W        W 5198   6.065   7.015  13.320 -0.1225  0.0417 -0.0123
 1148W        W 5199   2.438   7.180   9.323 -0.0337 -0.0090  0.0197
 1149W        W 5200   1.709   1.086   1.910 -0.2692  0.0047  0.2256
 1150W        W 5201   9.802   5.107   3.310 -0.2512  0.0314 -0.5381
 1151W        W 5202   3.091   9.015   2.957 -0.1869  0.1706  0.2203
 1152W        W 5203   2.160   1.414   2.845 -0.1321  0.0956  0.2479
 1153W        W 5204   9.033   0.618   3.554 -0.1624 -0.2508  0.0628
 1154W        W 5205   7.011   9.621   0.538 -0.0550  0.2200  0.0311
 1155W        W 5206   0.651   6.516   0.770 -0.0115 -0.0791 -0.0816
 1156W        W 5207   0.187   8.418   5.289 -0.1309 -0.2843 -0.1866
 1157W        W 5208   1.205   9.396  13.287 -0.3031  0.0891  0.2590
 1158W        W 5209   1.413   4.066  12.138 -0.2277  0.2024 -0.0239
 1159W        W 5210   0.165   9.109   9.220  0.1672 -0.0264 -0.0644
 1160W        W 5211   8.722   9.323  12.590 -0.2329 -0.0829 -0.1551
 1161W        W 5212   1.951   0.017   3.180 -0.1017 -0.1109 -0.1467
 1162W        W 5213   2.836   8.875   0.662  0.1490  0.0486 -0.4438
 1163W        W 5214   2.663   0.253   2.313  0.1572  0.1131  0.1274
 1164W        W 5215   3.374   6.027   9.547  0.0497 -0.3866  0.1199
 1165W        W 5216   1.447   3.034  11.414  0.1690  0.2169 -0.0632
 1166W        W 5217   3.881   8.629  10.090  0.0842  0.0432  0.1568
 1167W        W 5218   9.558   8.793  12.412 -0.2953 -0.0073 -0.2524
 1168W        W 5219   0.880   5.085   4.131  0.1719  0.1223 -0.0806
 1169W        W 5220   1.610   2.097  13.278  0.0511  0.0500  0.0984
 1170W        W 5221   8.541   3.496   2.229 -0.1350  0.1082  0.0737
 1171W        W 5222   7.000   2.600  12.981 -0.0298  0.0923  0.0413
 1172W        W 5223   2.095   9.416   1.814 -0.0812 -0.1520 -0.0068
 1173W        W 5224   8.196   9.299  12.832  0.2291 -0.0766 -0.1712
 1174W        W 5225   7.194   3.554   2.630 -0.1830 -0.0228  0.2487
 1175W        W 5226   1.024   6.310   4.012  0.1149  0.1069 -0.1906
 1176W        W 5227   8.129   5.527   4.308  0.0706  0.0729 -0.2658
 1177W        W 5228   0.450   2.238  10.487  0.1055  0.3994  0.2723
 1178W        W 5229   0.588   8.477  12.980  0.2832 -0.2541 -0.0214
 1179W        W 5230   0.256   6.219  12.382  0.3243 -0.1153 -0.0777
 1180W        W 5231   9.571   3.500  13.293  0.0179 -0.3314 -0.0333
 1181W        W 5232   4.014   2.331  11.080  0.0955 -0.1705  0.2611
 1182W        W 5233   9.333   8.192   1.779  0.0057 -0.0681 -0.0177
 1183W        W 5234   4.272   1.488   4.272  0.1179 -0.1315  0.0632
 1184W        W 5235   8.784   7.367  12.846  0.1697 -0.0300 -0.2522
 1185W        W 5236   3.889   3.352  13.137 -0.5948  0.1316  0.2370
 1186W        W 5237   5.544   2.961   2.998  0.0061 -0.0078 -0.2127
 1187W        W 5238   9.078   9.578   3.488 -0.1457 -0.0667  0.0403
 1188W        W 5239   2.520   8.004   9.073 -0.1842  0.2370 -0.2201
 1189W        W 5240   0.465   4.157  12.036  0.2810 -0.0060 -0.1873
 1190W        W 5241   6.784   2.727  11.052  0.1366  0.0244 -0.2217
 1191W        W 5242   3.867   5.082   4.266  0.0146  0.1742 -0.1542
 1192W        W 5243   3.819   5.875   0.898  0.2593  0.1414  0.3216
 1193W        W 5244   5.215   4.180   1.490  0.0543  0.2289  0.1136
 1194W        W 5245   5.769   1.471  13.344  0.2850  0.3657 -0.1070
 1195W        W 5246   1.119   4.031   9.862 -0.2044 -0.4438 -0.1258
 1196W        W 5247   4.873  10.054  10.128  0.2202  0.0105 -0.2097
 1197W        W 5248   4.441   2.798   2.061  0.1189  0.1272  0.1366
 1198W        W 5249   3.702   5.478  13.679  0.0531 -0.1748 -0.3975
 1199W        W 5250   2.886   0.718   4.596 -0.1219 -0.2908  0.3831
 1200W        W 5251   3.560   4.493  13.970  0.0550  0.1773 -0.2162
 1201W        W 5252   1.959   1.027  12.206  0.1902 -0.2763  0.0392
 1202W        W 5253   4.633   8.213   3.149 -0.0390 -0.2392 -0.0612
 1203W        W 5254   0.843   8.068  13.903 -0.0822 -0.0510 -0.2364
 1204W        W 5255   0.605   1.480   3.126  0.1429 -0.2299  0.0817
 1205W        W 5256   4.287   5.543   0.776 -0.2080  0.2845  0.2021
 1206W        W 5257   0.976   3.120   8.630  0.0964  0.0024  0.0574
 1207W        W 5258   9.498   9.720  12.223 -0.0215 -0.0903  0.2491
 1208W        W 5259   0.026   4.973  11.612 -0.2232 -0.2288  0.2213
 1209W        W 5260   6.102   6.042   2.824  0.1373 -0.1610 -0.0398
 1210W        W 5261   5.845   3.684   7.744  0.1586 -0.0633  0.0013
 1211W        W 5262   2.406   0.468   0.248  0.1243 -0.4359 -0.2654
 1212W        W 5263   1.030   9.900   2.505  0.2797 -0.2941  0.0585
 1213W        W 5264   7.204   6.248   0.139  0.0270 -0.0289 -0.0458
 1214W        W 5265   9.237   7.468  11.210  0.0307  0.1782  0.3142
 1215W        W 5266   6.422   4.114  14.079 -0.1649  0.0293  0.2623
 1216W        W 5267   2.220   1.133  11.288 -0.1475 -0.0750 -0.1813
 1217W        W 5268   3.187   7.627   1.626  0.1286  0.1362 -0.1911
 1218W        W 5269   3.392   9.916   1.979 -0.1723  0.1789 -0.0304
 1219W        W 5270   4.559   0.721  10.706 -0.0341  0.0427  0.1211
 1220W        W 5271  10.115   5.029   1.657  0.0547 -0.3517 -0.1398
 1221W        W 5272   1.734   3.920   1.205 -0.5917 -0.1230 -0.1949
 1222W        W 5273   8.060   7.122  10.808  0.2216  0.0229  0.3221
 1223W        W 5274   4.525   6.746   9.988 -0.2105  0.2675  0.2697
 1224W        W 5275   9.215   4.706   0.164 -0.2417  0.2254  0.1351
 1225W        W 5276  10.035   4.884  13.509  0.0104  0.2420  0.2127
 1226W        W 5277   0.794  10.082   0.047 -0.2004  0.0550  0.1217
 1227W        W 5278   2.006   2.625   1.515  0.0318 -0.0561  0.1723
 1228W        W 5279   7.960   6.775   2.960  0.2416  0.1351  0.3203
 1229W        W 5280   0.879   2.319   2.836 -0.0162 -0.0733 -0.1972
 1230W        W 5281   3.042   8.570  14.071  0.1471 -0.0626 -0.2802
 1231W        W 5282   0.868   0.884  12.235  0.0033  0.0814 -0.1992
 1232W        W 5283   1.409   4.754   2.630  0.2722 -0.0318  0.0086
 1233W        W 5284   7.885   8.574   0.009  0.2439 -0.0632  0.3909
 1234W        W 5285   4.173   0.941   3.016 -0.1079 -0.3059 -0.0839
 1235W        W 5286   5.718   4.869  11.191 -0.0870 -0.0717  0.1555
 1236W        W 5287   0.925   4.358   8.995 -0.1649  0.0623  0.0230
 1237W        W 5288   9.027   6.612  11.326 -0.3683  0.1474  0.4176
 1238W        W 5289   7.531   7.439   4.039 -0.0887 -0.4076  0.0300
 1239W        W 5290   0.923   0.793   0.223  0.0918  0.3237  0.5335
 1240W        W 5291   0.443   5.144   0.918  0.1789  0.2629 -0.0451
 1241W        W 5292   8.429   6.216   9.576  0.0907  0.0718 -0.0051
 1242W        W 5293   7.982   7.579  10.490 -0.2630  0.2571 -0.2949
 1243W        W 5294   4.205   3.061   3.047 -0.5870  0.2188  0.3165
 1244W        W 5295   5.276   8.155   4.082 -0.2187  0.1963 -0.2163
 1245W        W 5296   4.460   1.003   1.382  0.1713  0.2020 -0.0865
 1246W        W 5297   1.454   8.674   2.711 -0.1122  0.1180  0.2115
 1247W        W 5298   4.312   1.356  13.677 -0.2843  0.2764  0.5786
 1248W        W 5299   4.433   5.741   3.146 -0.3127  0.1212  0.2692
 1249W        W 5300  10.144   4.008   1.196  0.1635  0.2171 -0.0372
 1250W        W 5301   4.258   4.628   0.571  0.0071 -0.0764  0.0292
 1251W        W 5302   2.554   2.000   1.765 -0.0817  0.0285  0.1705
 1252W        W 5303   0.321   6.450  12.790 -0.1088  0.3278 -0.2188
 1253W        W 5304   2.154   4.765   2.190  0.2751  0.0383  0.2185
 1254W        W 5305   4.251   7.980  12.663 -0.0290 -0.0928 -0.0767
 1255W        W 5306   9.067   1.972  12.766  0.0297  0.0529  0.0299
 1256W        W 5307   6.389   7.600   1.462  0.0293 -0.3074 -0.0042
 1257W        W 5308   0.644   7.345   4.283  0.1288 -0.1333  0.0357
 1258W        W 5309   2.320   0.799   1.482  0.1944 -0.0377  0.0390
 1259W        W 5310   9.958   6.889   2.614  0.2663  0.3130  0.0600
 1260W        W 5311   7.261   7.466   1.632 -0.1721  0.2425  0.0179
 1261W        W 5312   8.270   8.209  13.240  0.2388 -0.0646  0.4306
 1262W        W 5313   3.031   1.518   3.244  0.1367 -0.0556 -0.1815
 1263W        W 5314   3.024   4.306   8.762  0.1408 -0.0393  0.1508
 1264W        W 5315   0.433   6.996   3.949 -0.0341  0.2589  0.1543
 1265W        W 5316   8.762   1.324   3.700 -0.0088 -0.1770  0.2276
 1266W        W 5317   9.828   4.529   4.195 -0.1885 -0.0023  0.0445
 1267W        W 5318   1.853   7.110   1.949 -0.0908  0.0210  0.0954
 1268W        W 5319   3.732   8.226   2.080 -0.3564 -0.2413  0.0483
 1269W        W 5320   3.058   2.847   1.011 -0.1719  0.1005  0.1157
 1270W        W 5321   5.256   0.256   4.022  0.2002 -0.2265  0.1112
 1271W        W 5322   5.907   9.650  11.819 -0.0411 -0.1654  0.0587
 1272W        W 5323   1.406   1.835  11.981 -0.2062  0.1139 -0.0103
 1273W        W 5324   8.042   3.082  13.426 -0.3014 -0.1157  0.0874
 1274W        W 5325   3.204   2.190   0.109  0.4056 -0.1965 -0.1188
 1275W        W 5326   4.359   2.059   1.369 -0.3803  0.0299 -0.3991
 1276W        W 5327   2.098   6.838   2.341 -0.0167 -0.0770 -0.2356
 1277W        W 5328   8.475   8.871  12.433 -0.0786  0.1847 -0.1875
 1278W        W 5329   7.421   2.523   0.964  0.0279 -0.0360 -0.0269
 1279W        W 5330   7.761   7.691   0.190 -0.1695 -0.0268 -0.0285
 1280W        W 5331   0.301   6.751   1.677 -0.3668 -0.0866  0.1373
 1281W        W 5332   2.385   1.719  10.468  0.0719  0.0619 -0.0188
 1282W        W 5333   8.427   4.266  12.331 -0.1273 -0.2711  0.2543
 1283W        W 5334   0.327   6.820   2.569 -0.0157 -0.0384 -0.0894
 1284W        W 5335   0.662   0.760  13.389 -0.1798 -0.1665  0.1057
 1285W        W 5336   1.123   7.723   8.286 -0.1265  0.0271  0.3024
 1286W        W 5337   4.832   6.319   2.921 -0.0768  0.1109  0.3581
 1287W        W 5338   1.327   4.055   1.012 -0.2163 -0.0949 -0.0852
 1288W        W 5339   4.034   5.543   2.121  0.0620  0.2342 -0.3269
 1289W        W 5340   6.347   9.833   2.319 -0.1681  0.0350 -0.2203
 1290W        W 5341   0.119   6.656   1.143  0.1792  0.1633  0.2500
 1291W        W 5342   0.485   7.438  11.822  0.0732  0.0718 -0.0945
 1292W        W 5343   4.718   8.366   2.644  0.0073 -0.0439 -0.0813
 1293W        W 5344  10.146   4.762   9.395 -0.1334 -0.1365 -0.0459
 1294W        W 5345   7.339   5.323   0.492 -0.1132 -0.2038  0.3701
 1295W        W 5346   2.497   6.060  10.127 -0.0501  0.0358 -0.0049
 1296W        W 5347   7.474   9.356  10.956  0.0454 -0.2401 -0.0620
 1297W        W 5348   3.225   5.257   2.682 -0.0045 -0.0551  0.3573
 1298W        W 5349   8.601   8.054   3.420 -0.3106  0.0284 -0.1392
 1299W        W 5350   4.997   5.520   1.784 -0.1734 -0.0380 -0.3700
 1300W        W 5351   4.776   0.289  10.891 -0.3101 -0.1826  0.1884
 1301W        W 5352   0.466   4.468   3.722 -0.0359  0.2491  0.3183
 1302W        W 5353   3.374   6.822   1.854 -0.1914  0.2120 -0.0518
 1303W        W 5354   9.699   4.460  10.759 -0.1807 -0.0628 -0.1932
 1304W        W 5355   4.833   1.074  12.457 -0.2456 -0.3391 -0.1324
 1305W        W 5356   3.726   7.165   3.984  0.0254  0.1041 -0.0885
 1306W        W 5357   9.995   3.355  11.898  0.0060  0.1684 -0.0206
 1307W        W 5358   2.861   6.741  11.735  0.0308  0.0328  0.1346
 1308W        W 5359   9.012   8.814   3.896 -0.0346  0.2757  0.1556
 1309W        W 5360   9.906   9.587   3.819 -0.1152 -0.1439  0.1538
 1310W        W 5361   8.131   1.196   1.549  0.3638  0.1948  0.0064
 1311W        W 5362   2.880   1.106  12.912  0.3964 -0.1196 -0.0944
 1312W        W 5363   8.831   8.371  10.246 -0.0456 -0.2368 -0.3961
 1313W        W 5364   7.688   1.261   1.803  0.5371  0.1948  0.3094
 1314W        W 5365   9.566   3.232  10.419 -0.1496 -0.1978  0.1918
 1315W        W 5366   4.745   6.137   3.989 -0.4810  0.6590 -0.1124
 1316W        W 5367   8.464   6.545  12.601 -0.1228  0.0656 -0.1643
 1317W        W 5368   5.948   3.895  10.600 -0.2423 -0.1924 -0.1977
 1318W        W 5369   5.145   3.344   2.783 -0.1541 -0.0857 -0.1034
 1319W        W 5370   2.527   9.490   3.685  0.0715  0.0440  0.2515
 1320W        W 5371   4.207  10.070   0.439 -0.1839 -0.0169 -0.0965
 1321W        W 5372   9.763   4.291   1.157  0.0724 -0.1680  0.1094
 1322W        W 5373   9.324   1.092  12.378  0.1812 -0.3122  0.1011
 1323W        W 5374   4.025   4.792   3.096  0.1125 -0.0847  0.2804
 1324W        W 5375   7.104   5.124  10.577 -0.0798  0.2118  0.1993
 1325W        W 5376   4.004   9.087   9.860  0.1148 -0.1187  0.1275
 1326W        W 5377   1.615   3.234  10.131 -0.0288  0.2237  0.1014
 1327W        W 5378   8.508   1.031  12.528  0.3030  0.1770  0.2937
 1328W        W 5379   6.202   9.558   9.727  0.4656  0.1879  0.1257
 1329W        W 5380   4.358   2.571  10.340  0.0513 -0.6768  0.5287
 1330W        W 5381   0.271   6.910   9.578  0.1441  0.1201 -0.0326
 1331W        W 5382   1.884   7.474  12.350  0.3047 -0.0690  0.4871
 1332W        W 5383   8.604   3.564   0.526  0.2707 -0.3139 -0.0341
 1333W        W 5384   5.265   1.041  11.029  0.0512 -0.0051  0.0960
 1334W        W 5385  10.117   5.118   2.846 -0.1341  0.0844  0.2465
 1335W        W 5386   7.322   4.597  12.968 -0.3047 -0.0084  0.0242
 1336W        W 5387   2.072   2.699   0.647  0.2234 -0.0557 -0.0361
 1337W        W 5388   4.602   3.278   2.763  0.0363  0.0501  0.1558
 1338W        W 5389   4.803   2.936   3.755 -0.2402  0.1988  0.3763
 1339W        W 5390   0.350   5.176  12.585 -0.0293  0.0110 -0.0135
 1340W        W 5391   4.282   8.016   4.536  0.0936 -0.0502 -0.0174
 1341W        W 5392   3.147   1.130  13.760  0.0850  0.0927 -0.0141
 1342W        W 5393   5.135   2.789  12.851  0.3622 -0.2971 -0.1159
 1343W        W 5394   0.432   5.437  11.226  0.1538  0.2127  0.2126
 1344W        W 5395   5.850   2.943  11.914 -0.2726  0.0302 -0.1890
 1345W        W 5396   5.689   4.082   3.341  0.1118  0.0832 -0.1934
 1346W        W 5397   6.677   4.412   2.668  0.1888 -0.1307  0.2132
 1347W        W 5398   2.187   8.387   3.095 -0.3186 -0.1696 -0.0592
 1348W        W 5399   7.615   9.813  10.750  0.0602 -0.1348 -0.4822
 1349W        W 5400   5.792  10.086  12.720 -0.0616  0.2568 -0.0146
 1350W        W 5401   1.785   7.576   9.971 -0.1241  0.1289  0.1337
 1351W        W 5402   1.544   7.754   1.001 -0.1072 -0.1634  0.2874
 1352W        W 5403   9.708   1.661   4.142  0.1786 -0.1102  0.0739
 1353W        W 5404   2.888   8.783   3.904 -0.0733  0.0217  0.2300
 1354W        W 5405   9.592   4.022  13.192  0.0112  0.0132  0.0640
 1355W        W 5406   3.115   2.458  11.777 -0.3908 -0.1582  0.1035
 1356W        W 5407   7.500   2.840  13.309 -0.1300  0.1794  0.0229
 1357W        W 5408   8.796   2.996  10.911  0.0318 -0.4597  0.0427
 1358W        W 5409   6.491   6.261   4.433  0.2625  0.2124  0.0358
 1359W        W 5410   4.365   9.731   2.981  0.1618 -0.2554 -0.2738
 1360W        W 5411  10.051   5.478  11.254 -0.1243  0.1967  0.0658
 1361W        W 5412   1.135   9.898  11.252  0.0042  0.3464 -0.2841
 1362W        W 5413   7.265   3.211  11.558  0.1757 -0.1305  0.1258
 1363W        W 5414   2.831   0.100   0.177 -0.1255 -0.0532 -0.2108
 1364W        W 5415   3.609   7.089  13.189 -0.0747  0.4860  0.1066
 1365W        W 5416   6.237   8.114   0.510 -0.2020  0.1444  0.2499
 1366W        W 5417   5.870   4.199   2.046 -0.2160 -0.1283  0.3260
 1367W        W 5418   3.010   2.410   1.785  0.1380  0.0317  0.0589
 1368W        W 5419   0.854   8.678   4.282  0.0774  0.1095  0.0954
 1369W        W 5420   3.974   8.410  10.985 -0.0495  0.0221  0.0181
 1370W        W 5421   7.957   6.346   0.595  0.0213 -0.1771 -0.1456
 1371W        W 5422   4.453   7.961   5.060  0.1603  0.0981  0.2235
 1372W        W 5423   4.550   9.951   4.819  0.3465  0.2949 -0.2066
 1373W        W 5424   8.766   1.480   1.035 -0.1441  0.0908  0.4151
 1374W        W 5425   5.271   9.076   4.141  0.2995  0.0915 -0.1866
 1375W        W 5426   0.600   9.616  13.846  0.2190  0.1895 -0.1313
 1376W        W 5427   1.912   8.723   2.785 -0.2008 -0.0634  0.1133
 1377W        W 5428   9.262   3.289   1.597 -0.3863  0.0485 -0.0793
 1378W        W 5429   1.306   1.970   2.121 -0.3165 -0.2885  0.0417
 1379W        W 5430   3.272   6.854  12.885  0.1024  0.0444  0.0048
 1380W        W 5431   9.799   0.534  14.056 -0.2101 -0.2192  0.0668
 1381W        W 5432   6.968   6.734  13.273  0.0315 -0.3039 -0.0861
 1382W        W 5433   6.812   1.158  13.967 -0.1113 -0.2672 -0.2047
 1383W        W 5434   9.958   6.401   5.449  0.0629 -0.4034 -0.3084
 1384W        W 5435   2.878   2.227  13.639 -0.0667 -0.0590 -0.3134
 1385W        W 5436   4.560   7.202   1.352  0.0283 -0.1696  0.0754
 1386W        W 5437   8.125   4.511  10.119  0.0515 -0.2746  0.1574
 1387W        W 5438   9.770   5.112  11.434 -0.1021  0.1188 -0.0491
 1388W        W 5439   9.567   5.100   2.900  0.0817 -0.0082 -0.0666
 1389W        W 5440   3.327   2.752  12.945 -0.1394 -0.1451  0.0307
 1390W        W 5441   8.809   5.050   2.438  0.0361  0.2628  0.0940
 1391W        W 5442   3.912   0.230  13.741  0.0033 -0.0036  0.0638
 1392W        W 5443   4.256   3.867   1.078 -0.3129 -0.1246 -0.1661
 1393W        W 5444   0.421   8.735   1.124 -0.0154 -0.0061 -0.0322
 1394W        W 5445   3.754   4.358  12.164 -0.4091  0.2665 -0.2291
 1395W        W 5446   4.572   9.017   2.077 -0.1167  0.1768  0.2619
 1396W        W 5447   2.789   4.134  12.512 -0.0155  0.0749 -0.0647
 1397W        W 5448   4.556   0.535  13.012  0.4549 -0.0301  0.3349
 1398W        W 5449  10.147   9.422  11.024 -0.5678  0.3087  0.2514
 1399W        W 5450   5.317   7.601   2.934  0.3267  0.0917  0.2055
 1400W        W 5451   3.140   0.089   9.847 -0.0465  0.3973 -0.0487
 1401W        W 5452   0.666   6.665   2.178  0.6260 -0.2677  0.0198
 1402W        W 5453   4.133   9.635  11.222 -0.2487  0.1416 -0.2364
 1403W        W 5454   1.712   5.553  10.673 -0.0395 -0.1198 -0.1420
 1404W        W 5455   5.817   7.723   0.475  0.0479 -0.4234  0.1116
 1405W        W 5456   9.068   6.458   5.207 -0.0030 -0.1268 -0.3618
 1406W        W 5457   6.008   5.370  13.905  0.4430 -0.3182  0.1481
 1407W        W 5458   7.256   5.931  10.817 -0.0235  0.2687 -0.0119
 1408W        W 5459   1.922   5.088  13.175 -0.4101  0.1609  0.1382
 1409W        W 5460   8.958   6.874   8.802  0.0456 -0.0176 -0.1324
 1410W        W 5461   2.366   0.922   2.812  0.1405 -0.0158 -0.1727
 1411W        W 5462   2.161   5.255   2.226  0.0415  0.1500 -0.1916
 1412W        W 5463   3.704   9.878  10.460  0.1987  0.1130 -0.0850
 1413W        W 5464   0.783   1.348   0.878  0.2250  0.3313 -0.1018
 1414W        W 5465   1.969   7.995   9.940 -0.0130  0.1405 -0.1621
 1415W        W 5466   4.548   6.407   4.412  0.0159  0.0776  0.0295
 1416W        W 5467   8.629   2.701   0.608 -0.0554 -0.0926  0.0459
 1417W        W 5468   1.320   7.515   2.187 -0.1843 -0.1534  0.4626
 1418W        W 5469   9.800   3.921  12.215 -0.3419  0.1932 -0.1878
 1419W        W 5470   2.668   8.465   3.469 -0.2735 -0.2511  0.2894
 1420W        W 5471   8.943   1.605   2.047  0.1564  0.1286  0.1805
 1421W        W 5472   6.046   5.257  10.988  0.0618 -0.0363 -0.1506
 1422W        W 5473   7.583   8.231  11.407  0.3290 -0.2041 -0.1454
 1423W        W 5474   1.568   9.399   0.164 -0.5764 -0.1757 -0.1244
 1424W        W 5475   5.037   2.523   3.909 -0.0090 -0.0708  0.1344
 1425W        W 5476   2.606   7.684   2.740  0.0245 -0.2265 -0.1158
 1426W        W 5477   3.365   7.208   2.182  0.0047 -0.1008  0.4083
 1427W        W 5478   7.522   8.179   0.167  0.0417 -0.2058 -0.1996
 1428W        W 5479   5.527   0.423  13.663 -0.3333 -0.1456  0.0251
 1429W        W 5480   7.369   6.152   4.988 -0.1942  0.0533 -0.4801
 1430W        W 5481   9.655   6.392  10.361 -0.1175  0.1871  0.2845
 1431W        W 5482   5.419   1.717   3.371  0.2763  0.0269  0.0034
 1432W        W 5483   1.046   0.984   1.108 -0.0968  0.1809 -0.0756
 1433W        W 5484   2.456   2.837   1.550 -0.1886 -0.1363  0.2044
 1434W        W 5485   7.180   1.521  14.050 -0.1308 -0.1893  0.2003
 1435W        W 5486   8.001   9.840   9.782 -0.2051 -0.1004  0.1658
 1436W        W 5487   7.279   1.599   1.620  0.1776 -0.4130  0.1320
 1437W        W 5488   8.027   1.843  12.217 -0.0664 -0.1309  0.0492
 1438W        W 5489   0.726   9.934  13.455  0.0000  0.0425 -0.4327
 1439W        W 5490   9.742   5.047   4.377  0.0026 -0.0114 -0.0080
 1440W        W 5491   7.201   4.582   4.312 -0.1391  0.1624  0.0624
 1441W        W 5492   1.731   5.665   0.697 -0.0733 -0.1682 -0.2391
 1442W        W 5493   8.358   9.822   8.835 -0.0307  0.0819 -0.0286
 1443W        W 5494   8.051   4.118  10.457 -0.0290  0.0542  0.3518
 1444W        W 5495   6.554   3.290  13.092 -0.0320  0.1518 -0.0663
 1445W        W 5496   1.965   3.221   1.579 -0.0867  0.1391  0.0632
 1446W        W 5497   3.482   8.686   1.927  0.1920  0.1163 -0.3332
 1447W        W 5498   9.072   3.418   4.569 -0.1942 -0.1822 -0.1707
 1448W        W 5499   9.651   8.216  11.603  0.3149  0.0310 -0.2934
 1449W        W 5500   1.608   7.521  13.676  0.1173  0.0074 -0.0436
 1450W        W 5501   3.868   1.127  10.390  0.0193 -0.1721 -0.0370
 1451W        W 5502   6.018   4.941  13.334 -0.0617 -0.2265  0.2666
 1452W        W 5503   7.979   6.607  10.793  0.1905 -0.1268  0.0723
 1453W        W 5504   7.421   3.367  12.738 -0.1741 -0.0846  0.0044
 1454W        W 5505   9.936   2.795   3.578  0.2175  0.3914  0.0628
 1455W        W 5506   9.527   7.873   3.860  0.1069 -0.0111 -0.4127
 1456W        W 5507   2.044   4.607   9.902  0.1589 -0.1995  0.1679
 1457W        W 5508   2.479   9.738   1.690  0.0381 -0.0033 -0.1513
 1458W        W 5509   0.347   1.059   3.407 -0.2376 -0.0650  0.1290
 1459W        W 5510   2.320   8.861   0.576 -0.0326  0.1233  0.2354
 1460W        W 5511   5.964   6.407   2.058  0.2607  0.0011 -0.1484
 1461W        W 5512   6.253   3.875  13.658 -0.0073 -0.1116 -0.0477
 1462W        W 5513   3.219   7.868   0.234  0.1432  0.0528 -0.0982
 1463W        W 5514   3.910   8.937  10.921  0.1971  0.2883  0.0564
 1464W        W 5515   9.631   0.599  11.479 -0.1766 -0.3949  0.1176
 1465W        W 5516   0.627   6.326   9.640  0.1775 -0.0002  0.0607
 1466W        W 5517   4.933   4.898   1.289 -0.2807  0.1542  0.3158
 1467W        W 5518   2.142   8.768   9.240  0.0763  0.4683  0.0065
 1468W        W 5519   4.695   6.768   4.032 -0.4238  0.2950 -0.0740
 1469W        W 5520   6.060   5.734  11.226  0.2851 -0.2201  0.1715
 1470W        W 5521   1.976   4.338  10.908  0.0142  0.1494 -0.0216
 1471W        W 5522   4.158   5.972  12.163 -0.3238 -0.1424  0.2323
 1472W        W 5523   1.365   0.992  12.368  0.0267  0.0008 -0.1302
 1473W        W 5524   0.280   9.999  10.027 -0.0896 -0.1548  0.0665
 1474W        W 5525   0.866   9.912   2.962 -0.3172  0.0726 -0.0694
 1475W        W 5526   5.748   4.369  10.863  0.2425  0.1132  0.2028
 1476W        W 5527   1.075   3.622   0.717 -0.0900 -0.2267  0.1760
 1477W        W 5528   6.807   5.119   0.680 -0.1861  0.2369 -0.1506
 1478W        W 5529   3.140   7.363   4.557  0.0436 -0.0053  0.0633
 1479W        W 5530   8.283   0.634  12.730 -0.1614 -0.1358 -0.4515
 1480W        W 5531   9.859   1.609   1.938  0.2569 -0.3996 -0.3073
 1481W        W 5532   6.836   6.409   9.543 -0.0472 -0.4807  0.1866
 1482W        W 5533   2.048   7.188   9.797  0.2994 -0.2821  0.1248
 1483W        W 5534   2.947   7.498   3.704 -0.1204 -0.0359 -0.0152
 1484W        W 5535   9.617   2.755   0.348  0.1811  0.5047 -0.5253
 1485W        W 5536   4.964   2.868  11.984 -0.0653 -0.0479  0.0528
 1486W        W 5537   6.317   9.268  10.107 -0.2434  0.1952 -0.0778
 1487W        W 5538   0.251   8.176   3.366  0.1717  0.0955  0.3004
 1488W        W 5539   8.287   4.767  10.524 -0.0204  0.0683 -0.0349
 1489W        W 5540   1.516   4.439   0.752  0.0650 -0.2489  0.1050
 1490W        W 5541   1.027   3.733   1.917 -0.4772 -0.1596 -0.0387
 1491W        W 5542   5.850   6.721  12.466 -0.1531  0.1241  0.0530
 1492W        W 5543   8.909   2.480  12.659 -0.0892 -0.2735 -0.1410
 1493W        W 5544   9.034   7.879   2.040  0.1538 -0.2455 -0.0605
 1494W        W 5545  10.063   0.432  12.262  0.1098 -0.1326  0.2793
 1495W        W 5546   8.390   5.875   2.810  0.0611  0.0442  0.0891
 1496W        W 5547   0.976   4.742  12.588 -0.2481 -0.2168  0.0784
 1497W        W 5548   9.722   4.313   9.373  0.1702  0.0871 -0.3139
 1498W        W 5549   8.406   0.912  13.569 -0.0111  0.1566 -0.0068
 1499W        W 5550   5.282   3.238  13.077  0.1854 -0.0232  0.0166
 1500W        W 5551   5.632   8.709   4.161 -0.1344  0.1022  0.0567
 1501W        W 5552   3.408   9.143  12.808 -0.0023 -0.2599  0.2074
 1502W        W 5553   8.891   8.334   0.455 -0.1706 -0.0918  0.1665
 1503W        W 5554   9.802   6.786  11.814 -0.0539  0.2917  0.0592
 1504W        W 5555   8.184   6.716   0.343  0.0920  0.3576 -0.2155
 1505W        W 5556   9.474   8.677   0.537  0.0863 -0.1821 -0.1125
 1506W        W 5557   9.729   8.989   2.290 -0.0341  0.2532 -0.0366
 1507W        W 5558   2.119   3.760   4.911  0.0167  0.2385  0.1061
 1508W        W 5559   9.956   0.691   1.727  0.1343 -0.0138  0.0792
 1509W        W 5560   6.231   9.424   4.206 -0.4740 -0.0214 -0.2184
 1510W        W 5561   6.207   2.330   1.582  0.1728  0.1413  0.2665
 1511W        W 5562   3.766   6.797   8.849  0.0555 -0.0963 -0.1215
 1512W        W 5563   4.279   6.970  13.138  0.0270  0.0661 -0.0950
 1513W        W 5564   7.523   6.210   0.895 -0.0121 -0.0415 -0.2332
 1514W        W 5565   1.975   9.594   1.293  0.1495 -0.1273  0.0078
 1515W        W 5566   3.176   6.218  12.366  0.2084  0.1146  0.2946
 1516W        W 5567   1.838   8.746  12.918 -0.0230  0.0130 -0.0337
 1517W        W 5568   2.581   5.034   1.182  0.0805  0.0690 -0.2489
 1518W        W 5569   2.323   3.883  12.513  0.2209 -0.0633  0.0060
 1519W        W 5570   7.349   7.021   1.965 -0.1322  0.1611 -0.0232
 1520W        W 5571   1.096   2.252   4.616  0.4182 -0.2944 -0.1732
 1521W        W 5572   1.113   6.599  11.679 -0.0057  0.0197  0.0149
 1522W        W 5573   4.308   4.821  13.181  0.2389  0.1237 -0.2840
 1523W        W 5574   6.125   5.711   3.197  0.0941 -0.0506  0.5082
 1524W        W 5575   5.510   0.316  13.157  0.2188  0.6304 -0.0341
 1525W        W 5576   4.688   8.258   1.313  0.0254  0.1110  0.1541
 1526W        W 5577   9.195  10.044   1.436 -0.0900  0.1760 -0.1372
 1527W        W 5578   8.551   1.661   4.032  0.0852 -0.0034 -0.2017
 1528W        W 5579   7.417   2.361  12.911 -0.2071  0.2691  0.0204
 1529W        W 5580   0.663   1.927   8.138 -0.2741 -0.0294  0.0231
 1530W        W 5581   6.432   4.496  12.433  0.0539 -0.1513  0.0340
 1531W        W 5582   8.931   9.178  13.534  0.1539  0.1711  0.1731
 1532W        W 5583   1.938   1.751   0.188 -0.0775 -0.3842  0.0441
 1533W        W 5584   4.870   6.106  13.015  0.1745  0.0274  0.0498
 1534W        W 5585   6.109   4.595   1.868 -0.0811 -0.0211 -0.2742
 1535W        W 5586   6.440   1.648   2.177  0.1260 -0.1348  0.4216
 1536W        W 5587   3.789   1.892  12.790  0.1291 -0.1062 -0.0500
 1537W        W 5588   7.982   4.600   4.491 -0.5259 -0.0722  0.0210
 1538W        W 5589   1.068   4.065   3.935 -0.1020 -0.0098 -0.0213
 1539W        W 5590   7.704   6.409  10.071  0.3349  0.0472 -0.1045
 1540W        W 5591   5.764   3.964  13.956 -0.3514  0.2521  0.0954
 1541W        W 5592   4.411   1.458   3.736 -0.2233  0.0413  0.2561
 1542W        W 5593   7.683   3.581   2.746  0.1954  0.1342 -0.0280
 1543W        W 5594   7.031   8.956  11.005 -0.2585 -0.0925 -0.1413
 1544W        W 5595   3.284   4.492   2.744 -0.2132 -0.5480  0.2044
 1545W        W 5596   7.570   9.507   9.706  0.1825 -0.2695 -0.1543
 1546W        W 5597   8.402   3.212   0.211 -0.1123  0.0765  0.1756
 1547W        W 5598   7.642   3.468  11.311 -0.4139 -0.1892  0.2508
 1548W        W 5599   1.966   6.735   3.206  0.1226 -0.4691 -0.2075
 1549W        W 5600   5.761   3.318   2.263 -0.1881 -0.0189  0.2136
 1550W        W 5601   2.768   4.100  11.272 -0.1485 -0.6507  0.2381
 1551W        W 5602   5.214   0.851   4.736 -0.0550 -0.1743 -0.0941
 1552W        W 5603   9.884   3.218   1.753 -0.1206 -0.1352 -0.0830
 1553W        W 5604   5.397   9.472  11.814  0.0957  0.0403 -0.1882
 1554W        W 5605   8.856   7.799  11.070  0.5730 -0.2141 -0.1554
 1555W        W 5606   3.346   3.585  12.893 -0.0973 -0.0186 -0.0997
 1556W        W 5607   8.037   8.278   4.080 -0.0738  0.0586  0.3343
 1557W        W 5608   2.481   0.424   0.699  0.0766  0.2300 -0.1254
 1558W        W 5609   2.234   1.255   8.916 -0.1576  0.3711 -0.0743
 1559W        W 5610   5.080   7.580  13.697  0.4562  0.0169 -0.0163
 1560W        W 5611   0.831   8.211   2.336  0.1567 -0.1338  0.2314
 1561W        W 5612   2.306   8.370   4.993 -0.0038  0.0442  0.2937
 1562W        W 5613   6.317   8.611   0.506  0.2627  0.2704 -0.0638
 1563W        W 5614   4.996   2.054   3.255 -0.0818 -0.0985 -0.0491
 1564W        W 5615   4.721   3.897  10.973  0.0578  0.0696  0.2022
 1565W        W 5616   1.021   2.122   1.010 -0.0877 -0.3255  0.3197
 1566W        W 5617   3.077   5.081   0.840 -0.1361 -0.2642 -0.0353
 1567W        W 5618   4.702   7.002   1.846  0.2753 -0.2291 -0.6047
 1568W        W 5619   8.341   0.170  13.079 -0.0179 -0.1348 -0.2877
 1569W        W 5620   5.056   0.379   1.059 -0.3475 -0.0112 -0.0648
 1570W        W 5621   6.287   6.653  13.960 -0.2075  0.0595 -0.0317
 1571W        W 5622   8.906  10.052   0.313 -0.4401 -0.0106 -0.2212
 1572W        W 5623   0.201   6.846   3.503  0.1732  0.1318  0.2380
 1573W        W 5624   0.901   8.144   9.022  0.1390  0.3266  0.3308
 1574W        W 5625   8.111   6.052   4.408  0.0223 -0.0017 -0.2450
 1575W        W 5626   7.025   0.399  11.665  0.4039  0.3592  0.0499
 1576W        W 5627   7.247   5.125  11.900  0.0681  0.0476  0.4138
 1577W        W 5628   2.089   0.036   8.545 -0.2285 -0.1323  0.0626
 1578W        W 5629   3.219   9.629  10.400  0.0849 -0.2565 -0.0280
 1579W        W 5630   2.466   0.239  13.776 -0.1621  0.2392  0.0326
 1580W        W 5631   9.111   6.050   4.470 -0.2999 -0.1890 -0.0771
 1581W        W 5632   4.596   1.592   0.796  0.0938 -0.0728 -0.0109
 1582W        W 5633   3.003   7.772   0.783  0.0899  0.2816 -0.0794
 1583W        W 5634   0.289   1.395  11.781 -0.1852 -0.0580  0.3015
 1584W        W 5635   0.993   8.337  10.925  0.2353  0.2737 -0.0339
 1585W        W 5636   4.650   3.782  13.992  0.0595 -0.0447  0.0645
 1586W        W 5637   4.398   8.703  12.750  0.4008  0.1274 -0.0190
 1587W        W 5638   8.133   8.778   3.748  0.1640 -0.0557  0.0867
 1588W        W 5639   3.963   5.061   3.590 -0.1293 -0.1083  0.3035
 1589W        W 5640   0.914   6.893   4.086  0.0266  0.1311 -0.0890
 1590W        W 5641   0.538   4.818  12.846  0.1000  0.4465 -0.1761
 1591W        W 5642   6.239   6.015  10.644 -0.0520  0.3114 -0.3044
 1592W        W 5643   5.017   4.247  12.749 -0.1623  0.0528  0.0486
 1593W        W 5644   0.723   5.940   5.333 -0.0334 -0.2112  0.0774
 1594W        W 5645   8.821   8.338  11.526 -0.2485 -0.1546  0.0536
 1595W        W 5646   8.511   6.172  10.381 -0.1058  0.2641 -0.1181
 1596W        W 5647   9.577   2.636  11.049 -0.0298  0.1076  0.3202
 1597W        W 5648   1.660   9.267   1.585 -0.2294 -0.0826 -0.2279
 1598W        W 5649   6.839   2.788  13.411  0.0292  0.1386 -0.0092
 1599W        W 5650   6.273   8.821   4.964  0.2425  0.1300 -0.0674
 1600W        W 5651   5.528   0.358   0.092 -0.1028 -0.2146  0.1077
 1601W        W 5652   3.836   7.296   4.987  0.0451  0.0324 -0.3796
 1602W        W 5653   8.829   8.155   0.989 -0.2782 -0.4905  0.2653
 1603W        W 5654   9.861  10.112  12.214 -0.0244  0.2931  0.0378
 1604W        W 5655   1.244   1.503  11.182 -0.0332 -0.1018 -0.1444
 1605W        W 5656   1.840   7.512  10.465 -0.1908 -0.1345  0.3123
 1606W        W 5657   9.773   4.536   0.421  0.4469  0.0980 -0.0274
 1607W        W 5658   1.188   1.482  13.415  0.0572 -0.2224  0.0907
 1608W        W 5659   8.381   0.532  12.210 -0.1946 -0.3982  0.1084
 1609W        W 5660   4.482   5.685   3.831 -0.1447 -0.0807  0.0004
 1610W        W 5661   6.541   0.582  12.984 -0.3912  0.3140  0.1283
 1611W        W 5662   2.780   7.250  11.589 -0.1417 -0.0684 -0.2938
 1612W        W 5663   7.602   3.806  10.846 -0.1050  0.4729 -0.0624
 1613W        W 5664   2.471   7.566  12.059 -0.0058  0.2783 -0.1591
 1614W        W 5665   9.211   6.564   1.111 -0.0496 -0.3301  0.0586
 1615W        W 5666   7.976   0.594  11.832 -0.1915 -0.3381 -0.1726
 1616W        W 5667   9.827   4.352  13.578  0.0781 -0.0065 -0.0850
 1617W        W 5668   1.948   7.829  13.282 -0.0335 -0.1669  0.0664
 1618W        W 5669   2.675   1.502   4.175 -0.1733  0.2700  0.1484
 1619W        W 5670   6.582   6.035   2.856  0.0587 -0.0702  0.2559
 1620W        W 5671   9.332   4.560  12.974 -0.0631  0.0074 -0.1542
 1621W        W 5672   8.545   7.776   0.963  0.0443 -0.1382 -0.1675
 1622W        W 5673   9.736   1.484   3.667  0.0858  0.2366 -0.4666
 1623W        W 5674   4.561   5.325  13.931  0.0324  0.0319 -0.1228
 1624W        W 5675   2.490   8.090   9.809  0.1241  0.3686 -0.0158
 1625W        W 5676   5.712   1.184   1.677 -0.0093  0.2642  0.5975
 1626W        W 5677   4.456   6.684   9.471  0.2399  0.0611  0.6084
 1627W        W 5678   8.222   2.332   0.260 -0.1393 -0.0554  0.1576
 1628W        W 5679  10.113   4.623   0.775  0.2863  0.0831 -0.1691
 1629W        W 5680   9.576   8.655   1.935  0.1898 -0.3847  0.0516
 1630W        W 5681   6.493   9.570   0.516  0.3357 -0.3059  0.1338
 1631W        W 5682   9.231   9.472  10.273 -0.1652  0.1034 -0.1609
 1632W        W 5683   7.071   9.767  11.116 -0.1659  0.0213 -0.3491
 1633W        W 5684   5.570   1.853  10.887 -0.0594  0.4220 -0.0436
 1634W        W 5685   6.532   2.700   1.671  0.1718 -0.1401 -0.3801
 1635W        W 5686   3.608   4.990   1.256 -0.3642  0.1260 -0.0062
 1636W        W 5687   8.572   2.487  10.933 -0.1998 -0.1375  0.0041
 1637W        W 5688   1.628   8.000  11.446  0.0839  0.1389  0.1604
 1638W        W 5689   9.143   7.084  11.560  0.3716  0.1644  0.2965
 1639W        W 5690   6.035   0.526  10.423  0.1600 -0.0517 -0.2232
 1640W        W 5691   5.252   8.991   8.752 -0.1195  0.1416 -0.1419
 1641W        W 5692   2.154   7.192  10.875  0.1500 -0.2669 -0.2231
 1642W        W 5693   5.211   2.482   0.020 -0.3793  0.1267 -0.0513
 1643W        W 5694   2.318   4.858   5.433  0.0600 -0.0963  0.0442
 1644W        W 5695   8.215   5.361   1.692  0.3227  0.4041 -0.0738
 1645W        W 5696   8.669   2.169   3.726 -0.3752  0.1441 -0.1835
 1646W        W 5697   6.220   3.149   2.190  0.1800  0.1323 -0.1388
 1647W        W 5698   1.111   6.667   1.303  0.2088 -0.1912 -0.0959
 1648W        W 5699   1.001   1.714  10.134  0.0851 -0.0065  0.1678
 1649W        W 5700   2.789   6.470  13.744  0.0409  0.0487 -0.2375
 1650W        W 5701   8.322   5.480   0.938 -0.4018 -0.1161 -0.0745
 1651W        W 5702   1.240   7.489   0.636  0.2252 -0.0581 -0.1452
 1652W        W 5703   3.853   0.341  11.993  0.3228  0.2228  0.1501
 1653W        W 5704   8.731   9.235  10.396  0.1029 -0.0716  0.1506
 1654W        W 5705   8.473   8.894   1.841 -0.0409  0.2252  0.1949
 1655W        W 5706   6.351   7.313  12.825 -0.2071  0.2711 -0.0298
 1656W        W 5707   0.758   9.749   9.748  0.2297 -0.0626 -0.1736
 1657W        W 5708   9.131   5.270   2.826  0.0581  0.2891 -0.1492
 1658W        W 5709   1.371   2.313  13.825  0.0195 -0.0587 -0.2003
 1659W        W 5710   2.260   4.606  13.054  0.2866 -0.0990 -0.1649
 1660W        W 5711   0.795   1.082  10.965  0.5083 -0.1401 -0.2444
 1661W        W 5712   3.091   6.568   2.155  0.0426 -0.1121  0.2325
 1662W        W 5713   1.521   2.822   1.721  0.1989  0.1910  0.0108
 1663W        W 5714   5.710   9.153   5.153  0.2329 -0.0719 -0.1591
 1664W        W 5715   6.390   6.991  11.017  0.0085  0.0302  0.1279
 1665W        W 5716   8.112   0.972   0.043 -0.0505  0.1844  0.1528
 1666W        W 5717   0.096   0.501  13.102 -0.0138 -0.4547 -0.0508
 1667W        W 5718   3.815   9.963  13.523 -0.0033  0.0966  0.2676
 1668W        W 5719   3.828   8.754   3.682 -0.0973  0.2304  0.0868
 1669W        W 5720   1.443   0.935  10.418 -0.2076  0.1262 -0.0503
 1670W        W 5721   7.373   0.750   4.353 -0.4267  0.0892 -0.0697
 1671W        W 5722   0.492   3.953   9.772 -0.0248 -0.2539  0.1237
 1672W        W 5723   2.357   8.334  10.663 -0.1505 -0.2567 -0.0011
 1673W        W 5724   0.028   6.949  14.049  0.2335  0.3140 -0.2213
 1674W        W 5725   6.001   2.965  11.004 -0.1819 -0.1329 -0.1079
 1675W        W 5726   3.022   5.526   1.307 -0.1048  0.0473 -0.1357
 1676W        W 5727   9.679   0.146   5.542 -0.1213 -0.2660  0.0974
 1677W        W 5728   6.540   8.038   4.426 -0.1430 -0.2304 -0.0826
 1678W        W 5729   0.513   0.395   8.317  0.0089 -0.2145 -0.0644
 1679W        W 5730   2.193   0.285   4.163 -0.1623 -0.2575 -0.2694
 1680W        W 5731   9.779   2.351  12.196  0.0304  0.0100 -0.3216
 1681W        W 5732   4.747   5.789  14.078  0.0507 -0.2063  0.2012
 1682W        W 5733   9.596   3.234   3.684  0.2624  0.1005 -0.0243
 1683W        W 5734   3.826   0.066   1.912 -0.0434 -0.3453  0.3381
 1684W        W 5735   8.916   0.665  10.311  0.0443  0.0932  0.0209
 1685W        W 5736   1.966   3.224   0.489 -0.1124  0.0897  0.1291
 1686W        W 5737   1.560   0.336   3.027  0.2486  0.1427 -0.2217
 1687W        W 5738   5.104   3.044  13.675 -0.1646 -0.2429 -0.0571
 1688W        W 5739   5.200   1.342   3.832  0.2791 -0.2982  0.1241
 1689W        W 5740   5.467   9.673  12.789  0.1707 -0.0462  0.1129
 1690W        W 5741   3.865   9.214   4.022 -0.0160  0.0760  0.2184
 1691W        W 5742   1.599   5.548   1.913  0.0670  0.0211  0.0681
 1692W        W 5743   3.659   1.696   2.625 -0.4962 -0.2224 -0.0832
 1693W        W 5744   2.761   7.582  12.831 -0.0849  0.0627  0.0226
 1694W        W 5745   1.343   7.108   3.808 -0.1201  0.1213  0.2772
 1695W        W 5746   5.900   6.880  10.950 -0.0001  0.0298 -0.0723
 1696W        W 5747   0.518   3.645   1.319 -0.0165  0.3926 -0.0728
 1697W        W 5748   2.048   1.103   2.416  0.1279  0.3019 -0.1668
 1698W        W 5749   1.297   2.804  13.679 -0.2122  0.2505 -0.0156
 1699W        W 5750   1.524   5.247   2.920 -0.1322  0.0592 -0.3362
 1700W        W 5751   8.407   6.686  10.301 -0.2978 -0.1603  0.1446
 1701W        W 5752   9.165   7.006  11.062  0.2024 -0.0421  0.0992
 1702W        W 5753   9.542   4.887  11.036 -0.0793  0.0527  0.2802
 1703W        W 5754   9.880   5.322  12.944  0.1072 -0.0510  0.1205
 1704W        W 5755   1.989   4.127  12.151 -0.3319  0.2605 -0.1161
 1705W        W 5756   6.829   7.161  12.687 -0.0395 -0.0726  0.0427
 1706W        W 5757   8.393   8.331   2.657 -0.1690 -0.1069 -0.2515
 1707W        W 5758   4.516   9.479  12.540  0.2027  0.1467  0.0257
 1708W        W 5759   4.233   5.745   9.900  0.1840 -0.2080  0.3092
 1709W        W 5760   3.170   8.395  10.523 -0.0530  0.3002 -0.1603
 1710W        W 5761   9.484   8.777   3.678 -0.0411  0.0846  0.1841
 1711W        W 5762   1.320   1.321   5.084 -0.2174  0.2242 -0.1183
 1712W        W 5763   6.351   5.023   0.922 -0.0746  0.2190  0.1730
 1713W        W 5764   5.410   1.233  13.658  0.0904  0.3362 -0.1367
 1714W        W 5765   0.573   1.805   0.902 -0.0312 -0.0794 -0.4119
 1715W        W 5766   2.910   8.791  13.081  0.1320 -0.2069  0.1397
 1716W        W 5767   1.615   6.072  14.080  0.1729 -0.2394  0.0813
 1717W        W 5768   1.775   3.443   2.965 -0.1522  0.2357  0.0470
 1718W        W 5769   9.383   6.544   3.836 -0.1218  0.1338 -0.2162
 1719W        W 5770   2.977   2.857  10.794  0.0550 -0.1670 -0.2613
 1720W        W 5771   5.135   8.121   1.078 -0.3266  0.0026 -0.2299
 1721W        W 5772   0.759   5.554   4.521 -0.1752  0.0332  0.1677
 1722W        W 5773   1.016   5.229   2.538 -0.1586 -0.0229 -0.2282
 1723W        W 5774   9.018   2.832  13.092  0.2540  0.0366  0.0630
 1724W        W 5775   2.968   6.650  11.218  0.1436  0.4165 -0.1107
 1725W        W 5776   1.779   1.645  13.412 -0.0755  0.6454  0.2305
 1726W        W 5777   7.651   4.009  11.304 -0.2207  0.2339 -0.0828
 1727W        W 5778   4.482   6.624   0.833 -0.1696 -0.1498 -0.0304
 1728W        W 5779   5.066   2.955  10.974  0.3241  0.1773  0.2627
 1729W        W 5780   0.118   0.904   1.251 -0.0115  0.0313  0.0609
 1730W        W 5781   6.386   0.255   4.250  0.0006  0.1956 -0.0519
 1731W        W 5782   7.097   5.774  13.695 -0.1332 -0.2411  0.0379
 1732W        W 5783   2.879   7.102  10.934  0.2024 -0.0741  0.0024
 1733W        W 5784   3.052   8.401   0.486  0.0210 -0.3018  0.2230
 1734W        W 5785   7.983   5.704  13.278  0.3305 -0.1156 -0.1258
 1735W        W 5786   2.322   4.394  10.576  0.1816 -0.0087 -0.1729
 1736W        W 5787   8.354   6.111  11.686  0.5669  0.0839 -0.0888
 1737W        W 5788   9.929   5.922  12.408  0.0533  0.1355 -0.1536
 1738W        W 5789   3.241   8.677   4.469  0.2505  0.2857 -0.3644
 1739W        W 5790   0.728   9.166   4.302  0.1319 -0.3103  0.0831
 1740W        W 5791   9.964   0.388   3.049 -0.0538 -0.0420  0.0651
 1741W        W 5792   0.425   3.656   2.708  0.0001  0.0730 -0.1093
 1742W        W 5793   3.311   4.782   1.784 -0.2908 -0.3875 -0.1107
 1743W        W 5794   6.194   2.533  11.703 -0.0969  0.1339 -0.0571
 1744W        W 5795   2.628   8.809   3.048 -0.0124 -0.1667  0.0637
 1745W        W 5796   9.695   9.512   4.699 -0.1815 -0.0701 -0.3153
 1746W        W 5797   3.556   3.573  11.161 -0.0797  0.0005  0.2087
 1747W        W 5798   0.729   8.538   4.745  0.0754  0.1425 -0.3028
 1748W        W 5799   9.082   1.073   1.039 -0.3826 -0.0255 -0.0397
 1749W        W 5800   6.146   8.268  12.839  0.0105  0.3358 -0.1778
 1750W        W 5801   2.744   5.880  12.632  0.1923 -0.2051  0.0123
 1751W        W 5802   1.183   8.857   3.628 -0.1443 -0.0227  0.2225
 1752W        W 5803   8.047   0.705   1.705  0.0108 -0.0075  0.2493
 1753W        W 5804   7.445  10.105   4.085  0.2845 -0.1380 -0.1693
 1754W        W 5805   9.214   4.848   1.551  0.0775  0.3343 -0.2598
 1755W        W 5806   7.903   8.591   1.776 -0.1726 -0.3365 -0.1024
 1756W        W 5807   8.968   1.574  13.018  0.3024 -0.1078  0.1180
 1757W        W 5808   2.701   2.805   2.017 -0.0687 -0.0158  0.2221
 1758W        W 5809   2.597   4.517  10.052  0.1536 -0.0146  0.0608
 1759W        W 5810   3.339   8.844   0.438 -0.1698 -0.1258  0.0175
 1760W        W 5811   8.088   4.029  13.383 -0.0080 -0.1175 -0.0736
 1761W        W 5812   6.961   3.499   1.580 -0.0218  0.1411 -0.2671
 1762W        W 5813   1.432   3.037   0.003  0.0569 -0.1111  0.2756
 1763W        W 5814   6.937   1.997  14.059  0.2007 -0.2157 -0.3691
 1764W        W 5815   1.385   9.913   0.955  0.2155  0.0131 -0.1782
 1765W        W 5816   4.396   0.699  11.207  0.1050  0.0022 -0.3137
 1766W        W 5817   2.545   8.934   1.180  0.0834 -0.0228  0.2703
 1767W        W 5818   5.140   0.166  11.493 -0.0931  0.0496  0.1906
 1768W        W 5819   3.927   5.678  13.127 -0.1571  0.1868  0.1791
 1769W        W 5820   1.177   5.617   2.858 -0.0058  0.1456  0.0561
 1770W        W 5821   4.137   5.506   4.379 -0.1312  0.0045  0.1968
 1771W        W 5822   0.933   3.318   0.100 -0.1351 -0.1775 -0.0622
 1772W        W 5823   9.675   0.084  13.838  0.1678 -0.1125 -0.0216
 1773W        W 5824   6.761   3.090   1.781  0.0407 -0.3392  0.1056
 1774W        W 5825   9.960   2.363   2.088 -0.0526 -0.1054 -0.1775
 1775W        W 5826   6.085   5.468  13.404  0.2386 -0.4188  0.1500
 1776W        W 5827   6.497   4.748  13.469 -0.0277  0.0315 -0.0917
 1777W        W 5828   1.509   6.588  10.869  0.3661  0.0214  0.0011
 1778W        W 5829   9.461   9.962  11.083 -0.3212  0.0040  0.0983
 1779W        W 5830   3.625   1.203   9.393 -0.2763 -0.1144 -0.1357
 1780W        W 5831   2.051   8.837   4.957  0.1533  0.0880  0.0317
 1781W        W 5832   2.478   6.785   1.633  0.5531  0.1914  0.1731
 1782W        W 5833   0.443   0.829   4.673 -0.0064 -0.1117 -0.0134
 1783W        W 5834   5.903   7.325  10.070  0.0786  0.0187 -0.0963
 1784W        W 5835   2.701   0.134   9.567 -0.0907 -0.0126  0.1155
 1785W        W 5836   6.548   6.528  11.535  0.1698  0.0903 -0.1815
 1786W        W 5837   2.715   1.066   1.443 -0.3215 -0.1638  0.1112
 1787W        W 5838   0.847   3.859  13.366  0.1068  0.0437  0.2924
 1788W        W 5839   9.799   2.647   0.847 -0.0318 -0.5348  0.1573
 1789W        W 5840   1.441   7.896   0.449 -0.0719  0.0781 -0.0664
 1790W        W 5841   9.746   8.344   4.009 -0.1342 -0.3093  0.0351
 1791W        W 5842   5.933   5.393  11.572 -0.2054  0.1283 -0.2056
 1792W        W 5843   8.863   9.673  13.540 -0.3570 -0.1110  0.2004
 1793W        W 5844   0.939   4.192  12.285  0.0529  0.1550  0.1426
 1794W        W 5845   9.112   4.367   4.585  0.3523 -0.3247 -0.2559
 1795W        W 5846   3.079   1.952  13.211  0.0573  0.1228 -0.0455
 1796W        W 5847   4.924   3.553   3.179  0.0403  0.0931 -0.0643
 1797W        W 5848   1.358   7.977   4.009 -0.0295 -0.0962 -0.2507
 1798W        W 5849   0.209   7.127   1.237  0.1236  0.2723  0.0675
 1799W        W 5850   7.261   0.345   9.868 -0.2682 -0.1975 -0.0516
 1800W        W 5851   1.188   0.653   9.076 -0.0282 -0.0719  0.0963
 1801W        W 5852   1.703   2.643   1.027 -0.0711  0.0499  0.0204
 1802W        W 5853   0.344   7.580  12.393 -0.1730  0.0080 -0.1102
 1803W        W 5854   6.000   7.001  12.000  0.0031 -0.3347 -0.2894
 1804W        W 5855   9.546   2.607  11.822  0.1456 -0.0392 -0.2984
 1805W        W 5856   5.311   1.964  12.715  0.0750  0.0195  0.1197
 1806W        W 5857   0.913   5.131  12.909  0.0098  0.0433  0.2755
 1807W        W 5858   7.448   6.549   9.462 -0.1920  0.0734  0.0444
 1808W        W 5859   9.586   3.850   3.065 -0.2236  0.0541  0.3523
 1809W        W 5860   2.208   8.563   4.530 -0.1534  0.1777  0.1893
 1810W        W 5861   9.396   1.475   1.695  0.5201 -0.0878  0.2196
 1811W        W 5862   7.125   1.042   2.594  0.1755  0.0746  0.0271
 1812W        W 5863   7.703   1.592  13.014  0.1558  0.1761  0.0029
 1813W        W 5864   3.814   1.047   4.200 -0.0599 -0.1755 -0.2871
 1814W        W 5865   4.898   3.784  12.404 -0.0426  0.0992  0.1186
 1815W        W 5866   1.429   0.599  10.765 -0.0907  0.3389 -0.0445
 1816W        W 5867   2.976   1.377  11.961  0.1512  0.2883  0.0303
 1817W        W 5868   7.353   3.028   0.110 -0.1017 -0.2814  0.1320
 1818W        W 5869   8.734   7.321  13.388 -0.2319 -0.1876 -0.0396
 1819W        W 5870   3.593   8.764   9.679 -0.0538 -0.0261  0.2605
 1820W        W 5871   0.056   5.242  10.687 -0.0713  0.2338  0.0395
 1821W        W 5872   8.610   1.855  12.724 -0.0207  0.2244 -0.3210
 1822W        W 5873   6.387   1.042  12.878 -0.4102 -0.3769  0.2771
 1823W        W 5874   0.586   0.176   0.911 -0.0016 -0.2766 -0.0385
 1824W        W 5875   6.063   5.178   1.280  0.1331  0.1412 -0.0855
 1825W        W 5876   6.986   8.557  10.155  0.0226 -0.2219  0.0683
 1826W        W 5877   8.827   5.679   4.554  0.0563  0.1275  0.0467
 1827W        W 5878   7.141   5.064  13.180 -0.0235  0.2661 -0.0455
 1828W        W 5879   9.438   0.599   0.360 -0.2736 -0.0503 -0.2923
 1829W        W 5880   2.515   7.661   9.491 -0.0564  0.0283 -0.1392
 1830W        W 5881   9.957   3.585   2.723 -0.1033 -0.2373  0.1592
 1831W        W 5882   5.049   6.428  13.473 -0.2395  0.0628  0.0730
 1832W        W 5883   5.576   7.412   1.795 -0.2078  0.1096  0.1873
 1833W        W 5884   3.040   9.733   1.647  0.0788  0.0560 -0.1076
 1834W        W 5885   0.813   5.936  10.718  0.0466  0.0553  0.0978
 1835W        W 5886   4.944   8.509   3.855  0.3269  0.1024  0.3248
 1836W        W 5887   1.012   4.259   4.964 -0.3545 -0.3077  0.0991
 1837W        W 5888   6.726   5.489   0.256  0.0596 -0.1710  0.0826
 1838W        W 5889   2.944   8.024   5.192 -0.0712 -0.3857 -0.1245
 1839W        W 5890  10.103   0.422   5.311  0.0724 -0.2484  0.0423
 1840W        W 5891   6.602   6.397   0.811 -0.0496  0.0788  0.2918
 1841W        W 5892   8.506   8.133   4.434  0.1369 -0.0713  0.0054
 1842W        W 5893   3.230   5.883  12.757 -0.2357  0.2995 -0.1142
 1843W        W 5894   9.305   2.860   2.982 -0.0790 -0.1043 -0.0297
 1844W        W 5895   6.154   0.372  13.479 -0.0100 -0.2036  0.0737
 1845W        W 5896   1.700   6.665   2.714 -0.0873 -0.3596  0.1755
 1846W        W 5897   0.232   2.627   3.608 -0.2750 -0.3304 -0.0001
 1847W        W 5898   0.759   9.874  11.655  0.0670 -0.1647  0.4084
 1848W        W 5899   1.903   6.201   3.037 -0.0537  0.2610 -0.3712
 1849W        W 5900   2.344   6.838  11.573  0.0173 -0.2294  0.2297
 1850W        W 5901   9.453   6.306   8.849  0.0866 -0.2830  0.1568
 1851W        W 5902   3.926   9.450   9.552  0.3502 -0.0323 -0.1077
 1852W        W 5903   8.290   3.409   9.246 -0.3406  0.0679 -0.1959
 1853W        W 5904   7.640   6.815   0.145 -0.2562 -0.0316  0.1121
 1854W        W 5905   7.611   0.409   1.660  0.0368  0.0996  0.4250
 1855W        W 5906   0.705   6.258  10.347  0.4197  0.0251 -0.0395
 1856W        W 5907   9.843   6.800   3.614  0.1802  0.0630 -0.1152
 1857W        W 5908   6.910   8.853   4.738  0.1811 -0.2267 -0.1576
 1858W        W 5909   0.394   4.319  10.597  0.0179 -0.0493 -0.0096
 1859W        W 5910   8.523   6.734   4.862  0.1279  0.0822 -0.1093
 1860W        W 5911   9.952   0.196  12.761  0.2430  0.0305  0.1703
 1861W        W 5912   9.393   1.208   9.989 -0.0103 -0.1228  0.1855
 1862W        W 5913   6.097   1.487   0.796 -0.0796 -0.2382  0.3015
 1863W        W 5914   0.923   2.845   4.477 -0.0236  0.1487 -0.1028
 1864W        W 5915   2.991   8.174  10.043  0.4017  0.4634 -0.1270
 1865W        W 5916   5.779   4.727  10.510  0.2002 -0.1637  0.0666
 1866W        W 5917   5.651   7.910   0.961 -0.0130 -0.1278 -0.3805
 1867W        W 5918   5.044   0.715   2.534  0.3126  0.0124  0.0955
 1868W        W 5919   1.750   8.267   2.529  0.2041  0.2649  0.1890
 1869W        W 5920   9.271   6.552   4.328 -0.0970 -0.3352  0.0174
 1870W        W 5921   9.130   3.022  10.534 -0.0500  0.1476 -0.3011
 1871W        W 5922   8.074   9.769  11.030 -0.1252  0.0121 -0.0808
 1872W        W 5923   3.571   3.669  13.554  0.1324  0.1839 -0.2391
 1873W        W 5924   1.049   3.090   3.578 -0.2059 -0.0571  0.0361
 1874W        W 5925   5.147   5.683  12.770 -0.2214  0.0475 -0.0924
 1875W        W 5926   4.253   5.976   4.192  0.0460  0.0130  0.0950
 1876W        W 5927   7.271   9.085  14.011 -0.2841  0.0195 -0.0808
 1877W        W 5928   7.460   1.259  11.695 -0.0974 -0.2862 -0.3926
 1878W        W 5929   1.468   3.269   3.921  0.2407 -0.1245  0.1417
 1879W        W 5930   9.408   6.066   1.153  0.3342  0.1688  0.2574
 1880W        W 5931   3.859   0.553   1.970  0.0987  0.0185 -0.1150
 1881W        W 5932   8.174   8.416   3.182 -0.0727 -0.2122  0.2608
 1882W        W 5933   6.899   7.567  10.342 -0.2472  0.0838  0.1128
 1883W        W 5934   3.232   3.845   4.237 -0.0735  0.1420 -0.3405
 1884W        W 5935   0.900   6.507   3.106 -0.0021  0.1337 -0.0959
 1885W        W 5936   4.327   6.698   8.952 -0.1969 -0.0665  0.2361
 1886W        W 5937   6.535   8.064   9.030 -0.2594  0.1622  0.0873
 1887W        W 5938   7.139   0.390  13.682 -0.3246 -0.2025  0.0738
 1888W        W 5939   7.369   5.746   3.905  0.2071  0.0786 -0.0577
 1889W        W 5940   0.848   7.570  11.426  0.1374 -0.0923 -0.0716
 1890W        W 5941   8.453   8.201   0.691 -0.2469  0.1441  0.3707
 1891W        W 5942   1.395   8.270  10.482  0.0403  0.0574 -0.1774
 1892W        W 5943   8.529   8.542   1.026  0.1798  0.0981  0.1171
 1893W        W 5944   1.886   4.852   3.162  0.2623 -0.2491 -0.3166
 1894W        W 5945   0.641   9.665  10.205 -0.3808  0.0378  0.1873
 1895W        W 5946   5.662   6.614  10.611  0.2672 -0.0993 -0.0053
 1896W        W 5947   7.835   6.218  13.385  0.0782 -0.1549  0.1889
 1897W        W 5948   2.541   9.390  11.239  0.0647  0.0417  0.1591
 1898W        W 5949   6.336   8.676  12.726  0.0954  0.1679  0.1159
 1899W        W 5950   1.783   4.704   4.175 -0.2544 -0.2276 -0.0096
 1900W        W 5951   6.745   6.113   9.942  0.0338 -0.1317  0.1534
 1901W        W 5952   8.929   8.423   1.911 -0.1134  0.2561 -0.0761
 1902W        W 5953   8.781   3.799   2.551 -0.2549  0.0178 -0.1426
 1903W        W 5954   5.624   3.537   2.733 -0.0091 -0.1950  0.2334
 1904W        W 5955   7.908   3.253   2.307  0.0728 -0.0984 -0.1277
 1905W        W 5956   5.456   8.979   9.453  0.0167 -0.5837  0.1795
 1906W        W 5957   6.774   4.472   4.150 -0.1570 -0.1212 -0.3195
 1907W        W 5958   0.050   1.471   3.530 -0.0528  0.1861 -0.0394
 1908W        W 5959   6.632   8.723  11.820 -0.2605 -0.0895  0.2505
 1909W        W 5960   8.692   8.090   5.361 -0.2155 -0.0094  0.2470
 1910W        W 5961   7.216   3.908  12.488 -0.0592  0.2452  0.0326
 1911W        W 5962   5.340   8.363  11.890 -0.1206 -0.0864  0.0986
 1912W        W 5963   0.380   6.646   9.991 -0.0726 -0.0306  0.0293
 1913W        W 5964   3.431   9.336  13.531 -0.4188 -0.6317  0.1279
 1914W        W 5965   8.695   6.983  11.720 -0.2037 -0.1832 -0.0277
 1915W        W 5966   5.113   6.043  13.803 -0.2670  0.1873 -0.1764
 1916W        W 5967   5.896   5.007  12.034  0.1381 -0.2381  0.3933
 1917W        W 5968   1.295   4.755  13.501  0.0929 -0.0945 -0.1130
 1918W        W 5969   8.307   7.951   3.011  0.1798  0.2421  0.2000
 1919W        W 5970   4.986   7.001   8.353  0.0482 -0.0810  0.0195
 1920W        W 5971   0.483   4.134   0.167  0.1237 -0.1168 -0.0945
 1921W        W 5972   6.563   8.445   9.897 -0.0547  0.1748 -0.2524
 1922W        W 5973   3.789   9.688   3.869  0.1952 -0.1275 -0.0406
 1923W        W 5974   3.847   9.043   1.678 -0.3423 -0.1564  0.2682
 1924W        W 5975  10.058   2.815  10.355 -0.1434 -0.0765 -0.1238
 1925W        W 5976   4.745   1.146   1.728  0.0842 -0.1633 -0.3597
 1926W        W 5977   1.831   1.230  13.156  0.0700  0.1691  0.2538
 1927W        W 5978   7.609   9.669   2.104  0.1150 -0.1581  0.3970
 1928W        W 5979   8.613   8.983   1.299  0.1998 -0.1240 -0.1991
 1929W        W 5980   6.201   7.769   2.624 -0.0168  0.3197 -0.3147
 1930W        W 5981   3.991   9.052   4.623 -0.2014 -0.2036 -0.5782
 1931W        W 5982   3.429   9.381   3.181  0.0627 -0.0574  0.1867
 1932W        W 5983   9.248   1.090   2.482 -0.2217 -0.1062 -0.2662
 1933W        W 5984   1.830  10.068  13.171  0.2489  0.0082  0.1733
 1934W        W 5985   4.307   0.800  11.696 -0.0397 -0.1268  0.2044
 1935W        W 5986   3.121   1.073  12.397  0.0653 -0.2413 -0.1133
 1936W        W 5987   5.139   0.083  10.565 -0.3470 -0.1006 -0.1730
 1937W        W 5988   4.894   9.972   1.130 -0.1682 -0.0197 -0.2318
 1938W        W 5989   9.809   0.170  11.225  0.1341 -0.4510 -0.2657
 1939W        W 5990   9.816   3.690   1.447  0.3171  0.4560  0.0929
 1940W        W 5991   6.264   8.485  12.242  0.0514 -0.1444  0.0298
 1941W        W 5992   3.074   0.635  11.005 -0.0086  0.0874  0.0995
 1942W        W 5993  10.066   5.675   2.090  0.2028 -0.4019 -0.0007
 1943W        W 5994   8.948   4.720  13.409  0.0498  0.1537  0.0863
 1944W        W 5995   2.530   1.980   3.694  0.0610  0.2224  0.0155
 1945W        W 5996   0.992   8.558   2.640  0.5154  0.0014  0.1435
 1946W        W 5997   1.936   7.850  12.721 -0.1650  0.3075  0.3750
 1947W        W 5998   4.762   7.400   0.920 -0.1024 -0.0094  0.0978
 1948W        W 5999   6.258   6.170   9.007 -0.1798  0.1757 -0.1779
 1949W        W 6000   6.730   4.035   3.197  0.3113  0.1841 -0.0209
 1950W        W 6001   2.893   3.083   3.224  0.1963 -0.3611  0.0318
 1951W        W 6002   6.637   6.324  13.217  0.0787  0.0326  0.0727
 1952W        W 6003   9.109   1.643  11.153  0.5018 -0.0579 -0.1079
 1953W        W 6004   8.879   2.388   1.377 -0.0617  0.2799 -0.0422
 1954W        W 6005   5.838   2.346   0.727  0.2589  0.1355  0.0422
 1955W        W 6006   8.729   2.247   0.114  0.1316 -0.1856 -0.1622
 1956W        W 6007   7.674   6.844   2.513 -0.0108  0.1171  0.1041
 1957W        W 6008   7.716   2.386   2.775  0.1166 -0.1046  0.1781
 1958W        W 6009   2.381   9.601  12.076  0.0377 -0.1647 -0.1445
 1959W        W 6010   3.400   7.613   4.993  0.2595  0.2141 -0.0635
 1960W        W 6011   3.187   2.968   3.726 -0.1577 -0.3526  0.0089
 1961W        W 6012   0.161   4.185   1.967 -0.0986  0.0499 -0.1239
 1962W        W 6013   7.017   1.086  11.140 -0.1196 -0.2105 -0.0851
 1963W        W 6014   7.979   8.980  13.764 -0.0744  0.1627 -0.0381
 1964W        W 6015   9.307   3.284   4.195  0.0368  0.0009 -0.1782
 1965W        W 6016   2.921   4.493   3.600 -0.0487 -0.1926 -0.0309
 1966W        W 6017   3.336   4.431  11.406 -0.3672 -0.0373  0.1819
 1967W        W 6018   8.205   4.692  14.061  0.2650  0.0933 -0.0939
 1968W        W 6019   4.188   3.256   3.519  0.3067 -0.2788  0.3134
 1969W        W 6020   1.757   4.076   4.035  0.2020 -0.1363  0.1214
 1970W        W 6021   2.242   7.748   1.813  0.2098  0.1496  0.3096
 1971W        W 6022   0.760   8.416   9.398  0.3037 -0.2503 -0.1747
 1972W        W 6023   2.541   3.738   3.712 -0.2857 -0.0420  0.1891
 1973W        W 6024   9.912   8.047  11.943 -0.4698  0.0883 -0.0640
 1974W        W 6025   6.397   0.526   3.308  0.0438 -0.1779 -0.1233
 1975W        W 6026   6.530   2.802   2.193  0.1528  0.0129  0.3392
 1976W        W 6027   7.400   6.090   3.116 -0.0018  0.2050  0.3752
 1977W        W 6028   9.392   3.241   9.624  0.0315 -0.2763 -0.0121
 1978W        W 6029   6.924   2.293   8.192 -0.3640  0.2507  0.1112
 1979W        W 6030   0.637   4.483  10.989 -0.0608  0.0044  0.2768
 1980W        W 6031   7.369   5.996   1.666 -0.2472  0.1388 -0.0218
 1981W        W 6032   9.529   7.470   4.175  0.2854 -0.2870  0.0799
 1982W        W 6033   9.870   8.997  13.938  0.2288  0.3872 -0.2938
 1983W        W 6034   1.791   2.622   2.475 -0.1596 -0.0847  0.1992
 1984W        W 6035   6.417   4.609   0.040 -0.2946 -0.2203 -0.0668
 1985W        W 6036   5.526   0.364   0.694  0.1319 -0.1355  0.2407
 1986W        W 6037   7.142   4.571   2.488 -0.1136 -0.2526  0.0674
 1987W        W 6038   8.308   9.721  12.465  0.1947  0.3868 -0.2984
 1988W        W 6039   9.938   9.413   0.150 -0.0060 -0.3093  0.1978
 1989W        W 6040   4.430   1.861   0.439  0.0472 -0.2015 -0.1525
 1990W        W 6041   0.235  10.069   4.631 -0.1601 -0.0092  0.1815
 1991W        W 6042   3.620   5.231  12.592  0.2828  0.0270  0.0086
 1992W        W 6043   1.511   5.344   3.900 -0.1425 -0.1702  0.1253
 1993W        W 6044   1.226   2.267  10.260 -0.3483  0.0609  0.1657
 1994W        W 6045   6.044   2.845   3.173  0.1309 -0.2986  0.1551
 1995W        W 6046   8.155   7.972   8.484 -0.1974 -0.0204  0.0208
 1996W        W 6047   8.092   6.953  12.296 -0.0632  0.1322 -0.0874
 1997W        W 6048   8.043   5.852   0.197  0.2265  0.4480 -0.0867
 1998W        W 6049   5.430   5.553  11.689 -0.1450  0.1846 -0.2432
 1999W        W 6050   1.490   4.032   0.379 -0.2080  0.2363  0.0108
 2000W        W 6051   5.262   4.916   3.155  0.3995  0.0404 -0.1020
 2001W        W 6052   9.841   7.857   1.722 -0.2486 -0.2630  0.1357
 2002W        W 6053   7.539   1.039  11.189 -0.2356  0.1155 -0.1546
 2003W        W 6054   3.373   5.410  12.975 -0.1304 -0.1123  0.3034
 2004W        W 6055   9.443   9.009  13.608  0.0938  0.2183 -0.1027
 2005W        W 6056   2.280   4.022   2.434  0.0139 -0.1741 -0.2425
 2006W        W 6057   5.825   5.051   2.524  0.0344  0.1724 -0.0471
 2007W        W 6058   4.240   9.898   3.959  0.0162  0.2730  0.0014
 2008W        W 6059   5.183   9.353   1.987 -0.1683 -0.0347 -0.2720
 2009W        W 6060   8.625   6.251   1.821  0.1805 -0.1492  0.0883
 2010W        W 6061   1.707   2.248  11.043 -0.0889 -0.4158  0.0235
 2011W        W 6062   5.131   8.560   4.346 -0.1068 -0.2542 -0.0274
 2012W        W 6063   0.353   5.509  11.678 -0.0022  0.0854 -0.1515
 2013W        W 6064   1.129   7.623  11.022  0.2689  0.1460  0.2091
 2014W        W 6065   0.632   7.258  13.888 -0.0472 -0.2207 -0.2298
 2015W        W 6066   2.143   9.069   3.745 -0.0818 -0.0526 -0.0428
 2016W        W 6067   3.975   6.594   0.508 -0.1743 -0.3235 -0.2450
 2017W        W 6068   8.827   4.389   0.178  0.3347 -0.3513  0.1553
 2018W        W 6069   8.224   2.191  13.865 -0.1499 -0.2667 -0.1415
 2019W        W 6070   5.733   8.729   1.543  0.2621 -0.0513  0.0943
 2020W        W 6071   4.325   9.504   4.697 -0.0159  0.1344  0.3568
 2021W        W 6072   5.884   3.088   0.859  0.0881  0.1071 -0.0331
 2022W        W 6073   4.448   8.677   1.061 -0.2271  0.4253  0.2901
 2023W        W 6074   8.544   5.897   1.063  0.2349 -0.1248 -0.0241
 2024W        W 6075   5.890   6.127  12.202 -0.0688  0.0948  0.0798
 2025W        W 6076   1.186   4.167   4.455 -0.2046 -0.1969  0.1712
 2026W        W 6077   4.014   1.181  12.288  0.1233  0.1164 -0.0894
 2027W        W 6078   0.739   7.200  11.063 -0.2761  0.1695 -0.2800
 2028W        W 6079   8.061   3.938   3.618 -0.0795  0.1207 -0.0103
 2029W        W 6080   7.074   2.135   1.127 -0.0044 -0.1539 -0.0496
 2030W        W 6081   4.940   7.575   0.445  0.2141 -0.3301 -0.1733
 2031W        W 6082   0.363   7.702   2.240  0.3489 -0.1831 -0.2156
 2032W        W 6083   6.402   6.957  12.469 -0.1712  0.0079  0.1351
 2033W        W 6084   2.635   8.949  10.164  0.0510  0.3804  0.1136
 2034W        W 6085   5.383   1.661   1.644 -0.1540  0.1225  0.2501
 2035W        W 6086   3.634   1.854   0.052 -0.0560 -0.1853 -0.0786
 2036W        W 6087   2.123   7.333   0.198 -0.0178 -0.1227  0.1343
 2037W        W 6088   7.588   9.245   1.833  0.0273  0.1579  0.2117
 2038W        W 6089   8.185   1.860  10.545 -0.0865  0.1080  0.2069
 2039W        W 6090   5.713   2.246   3.209  0.0829  0.2928 -0.1028
 2040W        W 6091   9.630   3.264  11.596  0.1878  0.3140  0.3825
 2041W        W 6092   9.250   7.923   2.589 -0.0876  0.0899 -0.0169
 2042W        W 6093   3.235   4.676  10.399 -0.3005  0.0412  0.2013
 2043W        W 6094   3.512   9.600   9.991 -0.0767 -0.0264 -0.1369
 2044W        W 6095   0.536   1.776   9.560 -0.1958  0.2291 -0.1270
 2045W        W 6096   0.653   0.728   9.143 -0.0125  0.1043 -0.0556
 2046W        W 6097   3.651   3.230   3.732  0.2664  0.3095  0.3114
 2047W        W 6098   9.277   3.675   1.250  0.4231 -0.0246  0.4976
 2048W        W 6099   4.748   7.117  13.093  0.2680  0.0848 -0.1101
 2049W        W 6100   3.094   0.251   0.960 -0.1730  0.1376  0.2794
 2050W        W 6101   8.142   1.064   0.555  0.1972  0.1589 -0.1353
 2051W        W 6102   0.898   5.471  10.517  0.1766  0.2341  0.1895
 2052W        W 6103   1.092   1.535   3.095  0.0903  0.0794  0.1310
 2053W        W 6104   2.291  10.094   4.715 -0.1072 -0.0748  0.1801
 2054W        W 6105   3.910   8.720   2.880 -0.2402 -0.0524 -0.3007
 2055W        W 6106   2.915   6.646  12.239  0.0962  0.2131  0.0869
 2056W        W 6107   0.618   1.445   1.757  0.1710 -0.1177 -0.2225
 2057W        W 6108   4.091   5.347   0.035 -0.0396  0.3498  0.3627
 2058W        W 6109   5.420   1.306   1.288  0.0740  0.0619  0.0737
 2059W        W 6110   2.585   6.584  12.868 -0.2973  0.0833  0.0948
 2060W        W 6111   1.238   6.194   4.856 -0.1874  0.2498 -0.0722
 2061W        W 6112   3.621   7.650  12.782 -0.0476 -0.1903  0.1170
 2062W        W 6113   7.770   6.262   9.160  0.1067  0.3267  0.1587
 2063W        W 6114   9.525   5.753  12.662 -0.1429 -0.2826 -0.0853
 2064W        W 6115   7.201   7.579  13.705 -0.0118  0.0602  0.1199
 2065W        W 6116   0.060   7.393   9.729  0.0563 -0.1161 -0.1221
 2066W        W 6117   7.339   1.902  13.160 -0.2179  0.1517 -0.0239
 2067W        W 6118   4.448   2.256  11.809 -0.5242 -0.1524  0.3004
 2068W        W 6119   3.375   7.393  11.019 -0.0307  0.0403  0.2783
 2069W        W 6120   2.725   2.382  12.040  0.3369  0.1236  0.1230
 2070W        W 6121   6.363   7.955   4.871 -0.0619 -0.3538 -0.1402
 2071W        W 6122   5.634   8.399   2.554 -0.0093 -0.0799  0.2008
 2072W        W 6123   1.192   5.857   1.850  0.2184  0.0658  0.4560
 2073W        W 6124   5.500   6.837  10.105 -0.1190 -0.4467  0.0085
 2074W        W 6125   2.062   3.067   8.618  0.2101 -0.3353 -0.2021
 2075W        W 6126   0.324   5.098  13.910  0.2363  0.0883 -0.0454
 2076W        W 6127   9.932   3.788   2.022  0.0576 -0.2327 -0.0892
 2077W        W 6128   0.720   3.185   2.882 -0.1823  0.2150  0.1186
 2078W        W 6129   7.945   5.795   3.049 -0.1425  0.2109 -0.2404
 2079W        W 6130   3.928   5.611   3.881 -0.2210 -0.1825  0.2987
 2080W        W 6131   2.703   8.664   2.186 -0.2250 -0.0206  0.4952
 2081W        W 6132   1.504   1.930   8.439  0.1231 -0.2205  0.2876
 2082W        W 6133   9.317   6.495  13.453  0.2354 -0.1269 -0.2795
 2083W        W 6134   5.628   2.708   1.133  0.1379 -0.1976 -0.0180
 2084W        W 6135   5.388   7.205  11.920  0.0684 -0.2214  0.4714
 2085W        W 6136   9.848   4.139   2.780 -0.1266  0.1434 -0.1865
 2086W        W 6137   5.771   6.548  13.279  0.1230  0.1657  0.1684
 2087W        W 6138   3.500   6.313   4.113 -0.3005  0.1721 -0.0118
 2088W        W 6139   7.417   9.424   0.286  0.2511 -0.0340 -0.1426
 2089W        W 6140   7.837   3.643   1.676 -0.3204  0.0478  0.0968
 2090W        W 6141  10.003   7.590   4.286  0.1998  0.1228 -0.0934
 2091W        W 6142   5.399   8.403   0.155  0.1506 -0.1097 -0.0120
 2092W        W 6143   4.523   9.360   2.477 -0.1409  0.1619  0.0456
 2093W        W 6144  10.025   8.743   0.834 -0.1137  0.2341 -0.1150
 2094W        W 6145   8.809   4.321   2.396 -0.0626 -0.1339 -0.1665
 2095W        W 6146   9.310  10.137  12.058 -0.1328  0.0693  0.0294
 2096W        W 6147   6.846   1.716   1.395 -0.1551  0.1289 -0.0719
 2097W        W 6148   5.646   7.000   0.512 -0.0376  0.1647  0.1540
 2098W        W 6149   6.017   6.713   3.604 -0.0737  0.3176 -0.0797
 2099W        W 6150   6.422   7.472  11.166  0.3202  0.3112 -0.0341
 2100W        W 6151   0.074   1.310  10.433 -0.1761  0.2213  0.0253
 2101W        W 6152   2.373   2.627   2.373 -0.0341 -0.0866  0.0900
 2102W        W 6153   2.480   9.489   1.263 -0.1122  0.0486 -0.0308
 2103W        W 6154   9.612   1.069  12.781 -0.0101 -0.1059  0.2739
 2104W        W 6155   7.260   0.402  10.376 -0.2688 -0.0804 -0.1147
 2105W        W 6156   5.832   0.764   0.840  0.1281 -0.1205 -0.0447
 2106W        W 6157   3.854   5.811   9.558  0.2805 -0.1908  0.0998
 2107W        W 6158   7.898   5.996  11.538  0.1563 -0.0855 -0.4395
 2108W        W 6159   4.192   7.891  11.608  0.1217  0.1523  0.2438
 2109W        W 6160   2.581   2.911  10.037  0.0032 -0.0776  0.0187
 2110W        W 6161   1.838   6.919   4.641  0.1345 -0.1210 -0.1175
 2111W        W 6162   8.701   4.622  10.091 -0.0144 -0.0235  0.4198
 2112W        W 6163   5.012   6.249   3.385 -0.0709  0.0106 -0.1898
 2113W        W 6164   2.901   0.209  12.364 -0.0227  0.1368 -0.2131
 2114W        W 6165   1.644   8.265   9.586  0.0314 -0.1014  0.0264
 2115W        W 6166   8.917   9.576   0.596  0.1037  0.2965 -0.1195
 2116W        W 6167   5.737   6.073   0.861 -0.1169 -0.1143 -0.0447
 2117W        W 6168   4.517   2.789  11.762  0.0012  0.1846  0.2334
 2118W        W 6169   9.115   2.208  13.933  0.0970  0.0080  0.3013
 2119W        W 6170   8.256   5.195   0.015 -0.2004 -0.1662  0.3713
 2120W        W 6171   8.364   2.413   2.024  0.0761  0.1318 -0.0089
 2121W        W 6172   2.301   1.472   3.778 -0.2785  0.3434  0.0037
 2122W        W 6173   2.664   0.924  10.096 -0.0025  0.0941  0.0105
 2123W        W 6174   0.233   7.054  12.672 -0.1059  0.0971  0.4043
 2124W        W 6175   7.080   6.286  13.734  0.1858 -0.1358  0.1116
 2125W        W 6176   4.253   0.354  10.843 -0.2725  0.3416  0.2758
 2126W        W 6177   6.774   9.391  13.242 -0.1671  0.1263 -0.0272
 2127W        W 6178   3.994   0.891   1.537 -0.0235 -0.0015  0.0725
 2128W        W 6179   8.013   5.087   3.703  0.3434  0.1505 -0.1308
 2129W        W 6180   2.606   7.306   4.538  0.1202 -0.1082  0.1149
 2130W        W 6181   2.343   5.708  12.857  0.0665 -0.0439  0.2287
 2131W        W 6182   0.692   1.275   4.609  0.0279  0.2116 -0.1423
 2132W        W 6183   6.067   0.716   2.397 -0.1852  0.1346  0.1175
 2133W        W 6184   8.522  10.006   9.701  0.0147  0.4943 -0.1891
 2134W        W 6185   3.747   2.881  14.000 -0.1452  0.0343  0.1036
 2135W        W 6186   2.734   8.273   3.945 -0.1576 -0.1304 -0.0014
 2136W        W 6187   1.231   0.563   3.344 -0.1393 -0.0569 -0.2646
 2137W        W 6188   1.855   6.596   0.752  0.2668  0.0521  0.1378
 2138W        W 6189   4.301   3.987  11.629 -0.0417 -0.3245  0.0766
 2139W        W 6190   9.582   6.268  10.998 -0.0260 -0.2808  0.0465
 2140W        W 6191   0.958   7.816   3.677 -0.0017  0.1981 -0.1503
 2141W        W 6192   5.430   8.433   2.052 -0.0555 -0.1724  0.2641
 2142W        W 6193   0.318   4.336  10.025  0.0950  0.3690 -0.4018
 2143W        W 6194   4.096   7.432   3.776 -0.1811  0.0679 -0.3020
 2144W        W 6195   1.112   7.485   3.336  0.0237  0.4399  0.0883
 2145W        W 6196   9.433   5.724   2.795 -0.1651  0.0805 -0.1959
 2146W        W 6197   4.796   1.814  12.649  0.0460  0.0804  0.2032
 2147W        W 6198   1.894   6.796  11.143 -0.2717 -0.0900  0.1701
 2148W        W 6199   3.017   3.368   4.047  0.0027  0.2061 -0.1244
 2149W        W 6200   4.972   4.769   4.528  0.1477  0.1588  0.1218
 2150W        W 6201   8.689   6.412   9.914 -0.4098 -0.0279 -0.2468
 2151W        W 6202   4.652   2.014   2.353  0.2869  0.0214  0.0782
 2152W        W 6203   6.409   4.420  11.636 -0.1965  0.5063 -0.3295
 2153W        W 6204   6.140   4.843  11.558  0.2763 -0.1762  0.1674
 2154W        W 6205   6.487   8.556   1.077 -0.1552 -0.3451  0.0156
 2155W        W 6206   8.765   2.858   1.223 -0.3978  0.2612  0.0797
 2156W        W 6207   6.466   2.244   0.699 -0.1194 -0.0650  0.1920
 2157W        W 6208   6.044   7.765   9.847 -0.0566  0.1317  0.0023
 2158W        W 6209   1.315   0.595   1.314  0.2052 -0.2070  0.0087
 2159W        W 6210   5.358   6.122   4.225 -0.0418  0.1523  0.1855
 2160W        W 6211   3.820   3.569   3.328  0.0097 -0.3258  0.0441
 2161W        W 6212   6.481   7.533   4.611 -0.0355 -0.0154 -0.2366
 2162W        W 6213   4.687   2.974   0.546 -0.2447 -0.0650 -0.0520
 2163W        W 6214   2.596   8.561   0.291  0.0365  0.0366 -0.0281
 2164W        W 6215   1.352   7.367   8.697 -0.0312 -0.0351  0.0906
 2165W        W 6216   9.414   9.894  10.534  0.4099 -0.2418  0.0100
 2166W        W 6217   5.429   7.241  13.830 -0.0271  0.2243 -0.2539
 2167W        W 6218   2.593   9.282   0.488  0.2648  0.0997  0.0868
 2168W        W 6219   8.395   4.042   2.386 -0.3672  0.0136  0.0986
 2169W        W 6220   5.896   0.240   3.401 -0.0940  0.1682  0.0314
 2170W        W 6221   8.276   2.285  13.359 -0.2450  0.0810 -0.0023
 2171W        W 6222   2.758   4.609  12.347  0.0183 -0.1394  0.1244
 2172W        W 6223   2.997   5.799   5.026  0.0671 -0.0037  0.3379
 2173W        W 6224   0.298   5.174   9.328  0.1424  0.0371  0.0577
 2174W        W 6225   2.852   9.965   1.107  0.0583  0.0905  0.1363
 2175W        W 6226   4.757   7.717  12.289  0.3647  0.1013  0.3806
 2176W        W 6227   2.471   6.140  10.901  0.2181 -0.0684 -0.0969
 2177W        W 6228   7.584   8.743  12.215 -0.0456  0.0053  0.1539
 2178W        W 6229   8.877   2.836   9.400  0.0327  0.1268  0.0444
 2179W        W 6230   8.125   1.687   1.815 -0.0919  0.1503 -0.0197
 2180W        W 6231   2.841   1.908  12.520  0.0969 -0.0358  0.3567
 2181W        W 6232   1.384   5.699   4.487  0.1391 -0.0608  0.0254
 2182W        W 6233   6.467   0.127  10.104 -0.0428 -0.0903 -0.2819
 2183W        W 6234   1.700   2.233   3.587  0.0442 -0.0364 -0.1257
 2184W        W 6235   6.315   9.479   2.725  0.3305 -0.1014  0.0049
 2185W        W 6236   0.231   9.882  14.019 -0.0535 -0.1779  0.2091
 2186W        W 6237   6.557   9.562  12.795  0.1490  0.2069  0.1535
 2187W        W 6238   6.545   7.605   3.583 -0.1644  0.0178  0.0773
 2188W        W 6239   2.273   0.812  11.792  0.2575 -0.0252 -0.0260
 2189W        W 6240   6.234   6.182  12.577 -0.1384  0.1279 -0.1078
 2190W        W 6241   2.302   9.245   3.265  0.1079 -0.0092 -0.0577
 2191W        W 6242   1.341   2.546  11.696  0.1009 -0.2234 -0.1325
 2192W        W 6243   1.075   3.224   1.967 -0.1125 -0.0703 -0.0315
 2193W        W 6244   2.993   8.960  11.668  0.0796  0.2859 -0.4029
 2194W        W 6245   7.347   9.801   4.777  0.0075 -0.1667  0.2981
 2195W        W 6246   2.175   7.507   2.849  0.0674  0.1235 -0.1606
 2196W        W 6247   1.549   3.635   9.122  0.0570 -0.0253 -0.1568
 2197W        W 6248   1.047   0.294   4.163  0.1331  0.0027 -0.1201
 2198W        W 6249   5.087   4.665   2.744  0.2882  0.1317 -0.3682
 2199W        W 6250   0.503   7.520   0.585  0.1650  0.2131 -0.0562
 2200W        W 6251   3.508   0.644   0.561  0.1586  0.0296  0.1120
 2201W        W 6252   9.430   7.953   1.280  0.1206 -0.0058  0.2611
 2202W        W 6253   2.047   9.493   5.363  0.2030 -0.0294  0.0784
 2203W        W 6254   1.770   5.947   4.827 -0.1131 -0.1340  0.2225
 2204W        W 6255   0.447   8.745  11.660  0.2514  0.3215 -0.1137
 2205W        W 6256   0.383   3.975  12.942 -0.1185  0.1861 -0.0641
 2206W        W 6257   1.567   9.352  13.664 -0.1223  0.2839  0.0452
 2207W        W 6258   2.123   8.607  13.787  0.2330  0.1790  0.3190
 2208W        W 6259   8.872   1.691   4.509 -0.0011  0.0632  0.0468
 2209W        W 6260   2.068   0.524   3.213 -0.3066 -0.1145 -0.0749
 2210W        W 6261   5.137   7.503   4.131  0.1126 -0.2004 -0.2485
 2211W        W 6262   1.215   8.758  12.256 -0.2622 -0.0922 -0.0007
 2212W        W 6263   8.135   1.859  11.352  0.1524 -0.2267 -0.0406
 2213W        W 6264   5.388   9.616   0.090  0.2222  0.2418  0.0224
 2214W        W 6265   7.120   8.759   9.020 -0.0907 -0.1839  0.3012
 2215W        W 6266  10.035   7.975   1.286 -0.0279  0.1108  0.0040
 2216W        W 6267   8.873   3.286   2.632 -0.2165 -0.1138 -0.0988
 2217W        W 6268   3.439   9.903  11.381 -0.4015  0.0975 -0.0394
 2218W        W 6269   5.378   6.616   2.981  0.0715 -0.1780  0.0866
 2219W        W 6270   9.884   0.204   2.545 -0.0052 -0.2038  0.0302
 2220W        W 6271   0.458   3.541  12.181 -0.1573  0.0332 -0.0680
 2221W        W 6272   4.472   1.334   3.238 -0.1122 -0.2892  0.1597
 2222W        W 6273   9.463   3.763   1.905 -0.0821 -0.0491  0.2096
 2223W        W 6274   0.832   2.720   3.220 -0.0769  0.1045  0.2803
 2224W        W 6275   8.939   1.398  12.553  0.1029  0.2922  0.0177
 2225W        W 6276   0.104   4.916   4.046  0.2447 -0.0668 -0.1327
 2226W        W 6277   8.329   6.475  12.103  0.0660  0.1534  0.1791
 2227W        W 6278   4.647   7.661  12.768  0.0980 -0.0889  0.1568
 2228W        W 6279   4.088   7.105   9.779  0.0130  0.1708  0.1215
 2229W        W 6280   9.458   6.852   0.558 -0.0602  0.0406  0.0480
 2230W        W 6281   5.741   2.742  12.343  0.2647 -0.0638 -0.1683
 2231W        W 6282   4.116   7.212  11.809  0.0593  0.0470 -0.0799
 2232W        W 6283   5.086   0.255   2.033  0.1858 -0.3807 -0.0255
 2233W        W 6284   0.143   1.888  12.717 -0.0083  0.2603 -0.1093
 2234W        W 6285   4.384   5.546  10.834  0.0932 -0.0440 -0.2561
 2235W        W 6286   4.295   5.956  11.070  0.1425 -0.0687 -0.0352
 2236W        W 6287   1.383   6.476   0.155 -0.0148  0.1236  0.2867
 2237W        W 6288   4.038   2.626  11.849 -0.1441 -0.1588  0.1281
 2238W        W 6289   7.820   3.228   0.299 -0.0758 -0.2451  0.0447
 2239W        W 6290   1.225   2.675   1.241 -0.0244 -0.0622  0.0206
 2240W        W 6291   3.724   9.873   0.498 -0.0749  0.1601  0.0488
 2241W        W 6292   1.520   8.318   1.572  0.1548 -0.3388  0.1344
 2242W        W 6293   7.148   8.580   1.347  0.3299 -0.1616  0.0903
 2243W        W 6294   2.672   8.479   1.397  0.2694 -0.1787  0.5653
 2244W        W 6295   7.673   5.331  13.049 -0.2683 -0.3586  0.0165
 2245W        W 6296   3.122   4.886   3.917 -0.1588  0.1662  0.2553
 2246W        W 6297   6.909   6.821  12.376 -0.2187 -0.1103  0.1090
 2247W        W 6298   8.288   5.435   0.467 -0.0784 -0.2881  0.0215
 2248W        W 6299   7.777   8.949   0.584  0.0976 -0.1496  0.1101
 2249W        W 6300   7.840   7.989   3.273  0.0819 -0.0253 -0.2997
 2250W        W 6301   5.996   5.252   2.934  0.4636  0.1656  0.0036
 2251W        W 6302   2.325   8.430   8.909 -0.1269  0.1142 -0.0355
 2252W        W 6303   2.372   5.515  11.548 -0.1793  0.1364  0.1364
 2253W        W 6304   8.040   7.213   2.690  0.0904  0.2232  0.1206
 2254W        W 6305   6.656   8.426   4.719  0.1363  0.2634 -0.0326
 2255W        W 6306   5.961   0.579   0.317 -0.3715 -0.0811 -0.0340
 2256W        W 6307   8.005   6.576   4.747 -0.0256  0.1034 -0.2006
 2257W        W 6308   4.352   6.064   2.746  0.3025  0.0150 -0.0883
 2258W        W 6309   5.011   2.196   6.725 -0.1863 -0.0735  0.0225
 2259W        W 6310   4.300   3.141  10.926  0.0447  0.0845 -0.0766
 2260W        W 6311   6.140  10.058  13.281  0.0336  0.3980 -0.0500
 2261W        W 6312   9.979   0.785  13.490  0.0637  0.1004  0.0273
 2262W        W 6313   8.327   5.138  11.378 -0.1404 -0.1171 -0.1532
 2263W        W 6314   5.100   9.956  11.943 -0.2872 -0.0149 -0.1049
 2264W        W 6315   9.809   0.357   2.073 -0.3274  0.1141 -0.1986
 2265W        W 6316   3.457   5.325   1.605  0.6073  0.2601  0.1695
 2266W        W 6317   6.926   0.692  12.565  0.2802 -0.1203  0.5186
 2267W        W 6318   7.285   7.107  12.487 -0.0069 -0.1212 -0.2698
 2268W        W 6319   1.352   3.856   2.760  0.0421  0.1425  0.1532
 2269W        W 6320   6.381   5.199  13.129 -0.0075  0.1168 -0.2324
 2270W        W 6321   5.657   6.542   4.926  0.1021 -0.2647  0.1878
 2271W        W 6322   4.845   4.355  11.324  0.0547  0.1585  0.3034
 2272W        W 6323   5.214   9.818  11.466 -0.1834 -0.1366  0.2103
 2273W        W 6324   0.793   7.561   1.989 -0.2597 -0.2665  0.0401
 2274W        W 6325   7.759   8.223   1.435  0.3084 -0.1094 -0.1690
 2275W        W 6326   1.468   2.902   3.335  0.1159 -0.1985  0.2220
 2276W        W 6327   9.455   3.852   0.517 -0.2280 -0.1401 -0.0289
 2277W        W 6328   3.306   7.495   4.103 -0.2624 -0.1958  0.0347
 2278W        W 6329   1.068   9.569  11.960  0.3107 -0.1822 -0.1170
 2279W        W 6330   8.417   3.194  12.373  0.3944  0.1063  0.3562
 2280W        W 6331   6.727   0.543   1.202  0.1044 -0.0870 -0.3313
 2281W        W 6332   9.257   6.954   3.540  0.2057 -0.1664  0.0509
 2282W        W 6333   4.718   6.713   4.824 -0.1438 -0.1423  0.1402
 2283W        W 6334   5.501   5.355   4.098 -0.1896  0.1182 -0.0551
 2284W        W 6335   3.914   5.450   3.108  0.2635  0.0509 -0.0021
 2285W        W 6336   1.240   1.060   9.409  0.0562 -0.0284  0.1898
 2286W        W 6337   2.717   2.132   8.946 -0.0050 -0.0145  0.3231
 2287W        W 6338   9.228   8.732   4.618 -0.2377 -0.3453 -0.0557
 2288W        W 6339   9.394   4.170   4.154 -0.3838  0.0958 -0.1943
 2289W        W 6340   0.905   2.908  13.371  0.3634 -0.0443 -0.2212
 2290W        W 6341   2.535   0.302  10.987 -0.1599  0.1634 -0.2562
 2291W        W 6342  10.026   7.920  12.993 -0.2393 -0.0554 -0.1124
 2292W        W 6343   3.466   1.085   0.410 -0.2144  0.1487 -0.2113
 2293W        W 6344   4.865   0.966  13.012  0.3661 -0.0616  0.0149
 2294W        W 6345   0.367   6.696  12.309 -0.1443 -0.1979  0.1143
 2295W        W 6346   7.345   8.717   3.622  0.0766 -0.1965 -0.0329
 2296W        W 6347   0.132   0.079   1.961  0.3116  0.2458  0.0301
 2297W        W 6348   3.299   3.386   1.687  0.0149  0.1727  0.0895
 2298W        W 6349   6.362   1.527   2.638  0.3761 -0.1356 -0.1262
 2299W        W 6350   2.597   4.514   2.327  0.3535 -0.1299  0.0138
 2300W        W 6351   4.960   0.820   0.173 -0.1076 -0.0317 -0.2053
 2301W        W 6352   6.912   4.825  12.786 -0.2498 -0.0667  0.2083
 2302W        W 6353   2.201   0.901   0.614  0.1653 -0.3994  0.0165
 2303W        W 6354   6.220   7.840  13.690 -0.3418  0.0950  0.2930
 2304W        W 6355   4.046   4.539  13.470 -0.0585  0.1075  0.2889
 2305W        W 6356   1.609   0.830   2.348  0.0499  0.1123  0.4913
 2306W        W 6357   1.518   6.693  12.655  0.1944  0.1050  0.2652
 2307W        W 6358   2.354   5.554  10.142  0.4469  0.0635  0.0883
 2308W        W 6359   2.086   3.440  10.476  0.1245  0.0227 -0.2119
 2309W        W 6360   0.985   9.432   9.467  0.1575  0.0296 -0.4621
 2310W        W 6361   9.053   0.927  13.626  0.1575 -0.0187 -0.2008
 2311W        W 6362   4.908   1.344   1.272  0.0801  0.2490  0.1437
 2312W        W 6363   6.284   0.160   0.201  0.2514 -0.2875 -0.0922
 2313W        W 6364   4.976   6.665   0.795  0.2981 -0.0145 -0.1186
 2314W        W 6365   3.552   1.301   2.345  0.1421 -0.1857  0.0306
 2315W        W 6366   0.154   1.995   1.088  0.0215  0.2628  0.2970
 2316W        W 6367   7.298   9.822  12.532  0.1212 -0.1499  0.2464
 2317W        W 6368   0.617   1.565  10.470 -0.1029 -0.2141 -0.3146
 2318W        W 6369   4.006   9.550  12.122 -0.0208  0.2042  0.3051
 2319W        W 6370   2.575   1.487   1.212  0.3715 -0.1560  0.1222
 2320W        W 6371   5.858   3.613  13.500 -0.2825 -0.0288  0.0866
 2321W        W 6372   2.528   3.351   5.660  0.2669  0.0099  0.0266
 2322W        W 6373   3.666   5.740   1.874  0.0389  0.0246 -0.0305
 2323W        W 6374   3.251   4.888   9.922 -0.1138  0.1471  0.0664
 2324W        W 6375   2.006   8.871   3.288  0.0891  0.0850 -0.0457
 2325W        W 6376   0.903   7.811   0.511  0.2063  0.1044 -0.2920
 2326W        W 6377   7.125   0.734  12.023  0.2924  0.0653 -0.0415
 2327W        W 6378   9.173   2.016   2.363  0.0765 -0.0661 -0.2598
 2328W        W 6379   4.217   7.170  10.669  0.0800 -0.3737  0.1660
 2329W        W 6380   7.672   6.898  11.663  0.2050 -0.1649 -0.2100
 2330W        W 6381   8.497   9.913   0.895  0.1500  0.0924 -0.0778
 2331W        W 6382   2.976   7.683   8.618 -0.0382  0.3338 -0.1441
 2332W        W 6383   7.450   1.221   4.188 -0.0028  0.0008 -0.1442
 2333W        W 6384   4.484   3.616  11.335  0.1970  0.0882 -0.1250
 2334W        W 6385   1.621   4.177   9.957  0.2818  0.3240  0.3927
 2335W        W 6386   0.104   2.265  13.597  0.0314  0.0801  0.0779
 2336W        W 6387   7.202   5.612  13.232  0.2698  0.2685  0.1419
 2337W        W 6388   8.310   4.616  11.456  0.1473 -0.2652 -0.2688
 2338W        W 6389   5.486   6.549  11.121 -0.0716 -0.1752 -0.0872
 2339W        W 6390   9.342   0.591  12.666 -0.0190 -0.0145 -0.0377
 2340W        W 6391   6.754   8.220   5.427  0.0231 -0.2894  0.5050
 2341W        W 6392  10.109   9.146   4.740 -0.0834 -0.1946 -0.0208
 2342W        W 6393   5.509   5.691   4.469  0.2757 -0.1978 -0.0616
 2343W        W 6394   1.561   5.667  11.694  0.0949  0.1511 -0.0781
 2344W        W 6395   2.117   3.319  13.401  0.0148  0.2617 -0.5109
 2345W        W 6396  10.127   5.505  12.546 -0.1380 -0.3166  0.1000
 2346W        W 6397   3.163   5.398  12.433  0.0522 -0.1871  0.1272
 2347W        W 6398   5.097   5.666  11.291  0.2457  0.0257  0.2057
 2348W        W 6399   7.957   6.339   1.177  0.1242 -0.2235 -0.2280
 2349W        W 6400   6.090   6.877   9.520 -0.1724  0.0019 -0.0057
 2350W        W 6401   5.130   5.163  10.745  0.0575  0.0722  0.0180
 2351W        W 6402   8.197   2.737  13.822  0.0655 -0.2090 -0.1676
 2352W        W 6403   0.480   3.574  11.672  0.1634 -0.1550 -0.1618
 2353W        W 6404   3.641   3.064   3.174  0.2752  0.1639  0.4516
 2354W        W 6405   6.915   1.543   6.966 -0.1524  0.1113 -0.0127
 2355W        W 6406   0.422   1.988  13.202  0.1361 -0.2916 -0.2817
 2356W        W 6407   8.761   3.575  10.059 -0.1936 -0.0854  0.3507
 2357W        W 6408   1.219   7.711   0.054  0.2844  0.4158 -0.3223
 2358W        W 6409   2.695   8.176  12.083  0.2644 -0.0334 -0.0475
 2359W        W 6410   3.561   9.232  11.879 -0.0992 -0.0918  0.4094
 2360W        W 6411   3.854   3.476   0.224  0.0157  0.0507  0.3111
 2361W        W 6412   8.062   3.670   0.094  0.0082  0.2503 -0.3760
 2362W        W 6413   3.042   4.617   2.125 -0.1204  0.2365 -0.1748
 2363W        W 6414   4.065   4.078  10.113 -0.1764  0.1655 -0.1264
 2364W        W 6415   0.483   0.561   9.733  0.1259  0.1923 -0.1138
 2365W        W 6416   2.436   9.809  11.618  0.2994  0.0005 -0.1996
 2366W        W 6417   8.875   8.532   4.316  0.0906 -0.3021 -0.2818
 2367W        W 6418   9.107   4.000   0.910  0.0663 -0.0848 -0.1172
 2368W        W 6419   8.207   7.152   9.939  0.1750  0.1074  0.0531
 2369W        W 6420   0.817   3.947   2.891 -0.2864 -0.2042 -0.4585
 2370W        W 6421   6.524   9.452  12.300 -0.1395 -0.3092 -0.2744
 2371W        W 6422   7.581   8.908   1.436 -0.2217 -0.0767 -0.0608
 2372W        W 6423   2.302   4.804  10.873 -0.0933  0.0550  0.0050
 2373W        W 6424   1.886   5.719  10.221 -0.2706 -0.0131  0.0755
 2374W        W 6425   0.851   2.378   1.442  0.0794 -0.3452 -0.1078
 2375W        W 6426   1.536  10.027   2.035 -0.0981 -0.0866 -0.0331
 2376W        W 6427   0.018   0.007  13.622 -0.0080 -0.0035  0.2390
 2377W        W 6428   9.251   7.460   0.417 -0.2901 -0.4406  0.0693
 2378W        W 6429   7.269   7.045   2.739  0.0425 -0.2900  0.1244
 2379W        W 6430   1.174   9.196  12.663 -0.1136 -0.0093  0.1828
 2380W        W 6431   2.627   4.454   5.464 -0.0481 -0.0640 -0.1780
 2381W        W 6432   8.919   9.916   3.824  0.3253  0.2011  0.1892
 2382W        W 6433   0.112   9.768  11.840 -0.1432  0.2252 -0.0854
 2383W        W 6434   0.692   9.083   3.772 -0.1352 -0.2039  0.0060
 2384W        W 6435   8.509   5.596  11.571  0.0329  0.1517  0.0656
 2385W        W 6436   5.505   7.588   9.665  0.3495 -0.2864  0.3305
 2386W        W 6437   6.171   6.839  12.874  0.3249  0.1233 -0.2287
 2387W        W 6438   8.580   8.996   3.796  0.0536  0.0506 -0.1562
 2388W        W 6439   2.722   5.944   0.063  0.1184 -0.1004  0.2489
 2389W        W 6440   5.697   9.657   0.948 -0.2147  0.0512  0.0226
 2390W        W 6441   0.434   9.219   1.170  0.2699  0.2952 -0.1531
 2391W        W 6442   9.321   4.894  11.516 -0.2192  0.0004 -0.2205
 2392W        W 6443   5.204   8.355  12.752  0.0431 -0.0696 -0.4082
 2393W        W 6444   9.294   6.793  10.417 -0.1202  0.0342 -0.1683
 2394W        W 6445   7.747   8.914   3.410  0.3223  0.0131 -0.1038
 2395W        W 6446   1.338   8.193   1.152  0.3341  0.3464 -0.1171
 2396W        W 6447   3.330   7.903   9.530  0.0272  0.3253 -0.0463
 2397W        W 6448   0.973   0.835  10.596 -0.0283 -0.0188  0.0331
 2398W        W 6449  10.077   5.876   2.709 -0.1062 -0.3658 -0.3785
 2399W        W 6450   8.818   6.016   3.738 -0.0901 -0.3320  0.1216
 2400W        W 6451   9.156   5.394  13.431  0.1558  0.3091 -0.0235
 2401W        W 6452   3.892   1.052   2.020  0.0329 -0.2886 -0.1492
 2402W        W 6453   5.100   9.911   2.163  0.5298  0.1424  0.3803
 2403W        W 6454   2.708   0.287  12.864 -0.0315 -0.1513 -0.4664
 2404W        W 6455   3.300   4.592   1.193  0.0038 -0.1246 -0.1622
 2405W        W 6456   0.088   3.563   4.043 -0.0090  0.1455 -0.1932
 2406W        W 6457   2.101   1.649   1.126  0.3314  0.1964  0.2171
 2407W        W 6458   8.619   0.943  10.754  0.2065  0.0462 -0.2813
 2408W        W 6459   4.321   7.681   0.990  0.0596  0.1526  0.0821
 2409W        W 6460   0.808   2.955  13.845 -0.0676 -0.0477 -0.1565
 2410W        W 6461   1.344   6.250  12.385  0.0208  0.0660  0.0106
 2411W        W 6462   9.271   3.216   8.742  0.1552  0.0044  0.0258
 2412W        W 6463   0.154   7.881   9.581 -0.0468  0.0857  0.0024
 2413W        W 6464   7.596   8.705  13.307  0.1727  0.1603 -0.0633
 2414W        W 6465   1.366   2.556   2.842  0.1108  0.1073 -0.0337
 2415W        W 6466   7.628   9.657  13.329 -0.0513 -0.2513 -0.1449
 2416W        W 6467   2.237   1.499  13.688 -0.0257 -0.1528 -0.4185
 2417W        W 6468   9.181   2.194  13.191  0.0223  0.1668 -0.4553
 2418W        W 6469   2.405   0.535  12.145 -0.1067 -0.0671 -0.1814
 2419W        W 6470   8.125   7.475   2.104 -0.0209 -0.3798 -0.2033
 2420W        W 6471   2.388   0.428   4.666 -0.0415 -0.3037  0.2575
 2421W        W 6472   4.140   6.988   1.688  0.1111 -0.1840 -0.0016
 2422W        W 6473   9.217   5.009  13.741  0.0488  0.2958  0.3756
 2423W        W 6474   5.939   1.251   7.195  0.1728 -0.2338  0.0033
 2424W        W 6475   1.926   6.898  10.594  0.0752 -0.1354 -0.2446
 2425W        W 6476   8.115   7.609   1.091  0.0732  0.3015 -0.1125
 2426W        W 6477   7.454   9.102  11.873  0.0477  0.1526 -0.3874
 2427W        W 6478   2.794   4.659   1.003  0.2000  0.2446  0.1055
 2428W        W 6479   0.687   0.964   9.795 -0.2269 -0.0659  0.2308
 2429W        W 6480   2.863   5.256   1.752  0.0178 -0.4689  0.0440
 2430W        W 6481   9.009   0.122   4.269 -0.1109 -0.1903  0.0683
 2431W        W 6482   5.110   9.754   1.698 -0.1560 -0.0764  0.2541
 2432W        W 6483   2.166   3.389  11.456 -0.1352  0.2705 -0.0244
 2433W        W 6484   0.447   0.966  12.605 -0.0283 -0.1044 -0.0075
 2434W        W 6485   9.472   0.014   1.847  0.0645 -0.1333 -0.1449
 2435W        W 6486   7.116   7.883  11.772 -0.0610 -0.0919  0.0109
 2436W        W 6487   9.215   6.583  10.862 -0.2467 -0.3035 -0.0146
 2437W        W 6488   1.309   0.680   2.708 -0.3696 -0.0535 -0.0671
 2438W        W 6489   0.936   1.725  12.110  0.1918 -0.0638  0.2074
 2439W        W 6490   3.126   7.737  13.590  0.2254 -0.0956 -0.0821
 2440W        W 6491   9.556   5.791  11.186 -0.0206  0.0003  0.0332
 2441W        W 6492   2.543   1.706   0.207  0.0301  0.0048  0.0317
 2442W        W 6493   9.834   1.323   1.423 -0.2803  0.0590  0.0163
 2443W        W 6494   0.487   7.679   8.877 -0.1872  0.0250  0.0262
 2444W        W 6495   2.321   1.846  12.729 -0.0382 -0.1588 -0.0979
 2445W        W 6496   3.743   6.151  10.651  0.0524  0.2234 -0.0957
 2446W        W 6497   9.863   5.365  10.354  0.2641 -0.1975  0.0881
 2447W        W 6498   1.023   3.982   2.398 -0.0154  0.2504 -0.3334
 2448W        W 6499   1.764   3.610  13.085  0.2171 -0.0898  0.1794
 2449W        W 6500   3.381   6.970  14.029  0.3370  0.0853 -0.3437
 2450W        W 6501   3.546   0.598  13.069 -0.5081  0.2631 -0.1250
 2451W        W 6502   2.442   3.891  11.748 -0.0012 -0.2123  0.1474
 2452W        W 6503   2.149   9.689   3.441  0.1207 -0.1044 -0.1293
 2453W        W 6504   6.127   5.867  13.737 -0.0429 -0.2029 -0.0121
 2454W        W 6505   0.621   2.225  12.706  0.0901  0.1662  0.1525
 2455W        W 6506   1.511   1.166  13.629 -0.0220  0.0556 -0.3640
 2456W        W 6507   3.560   0.830  12.304  0.0666 -0.0986 -0.2322
 2457W        W 6508   4.973   9.889   0.082  0.2953 -0.1844  0.2475
 2458W        W 6509   5.932   3.811   3.011  0.1576  0.2593 -0.3068
 2459W        W 6510   1.290   7.345   1.139 -0.1028  0.0727 -0.1300
 2460W        W 6511   1.308   1.183   2.222 -0.1695 -0.2654  0.0084
 2461W        W 6512   8.259   0.134  11.687  0.0500 -0.1587  0.0363
 2462W        W 6513   4.360   7.264   2.142 -0.1130  0.0855 -0.0333
 2463W        W 6514   2.380  10.025  13.029  0.1560  0.2267 -0.2508
 2464W        W 6515   7.477   8.860  10.727 -0.0779  0.1829 -0.0575
 2465W        W 6516   7.195   7.291   9.070  0.1842 -0.1572 -0.0224
 2466W        W 6517   8.873   7.108  10.543  0.1673  0.0998  0.1957
 2467W        W 6518   7.995   5.920   0.868 -0.0141 -0.2510 -0.2269
 2468W        W 6519   3.578   0.956  13.926  0.1026 -0.5148 -0.0881
 2469W        W 6520   8.577   2.191  10.536 -0.1176  0.1510 -0.1322
 2470W        W 6521   8.486   4.639   4.399 -0.0962 -0.2141 -0.1662
 2471W        W 6522   0.357   3.059   0.875  0.0753 -0.1295 -0.0923
 2472W        W 6523   1.886   5.646  13.103  0.1437 -0.4986 -0.1435
 2473W        W 6524   7.493   4.114   2.933  0.1397  0.2387 -0.1659
 2474W        W 6525   2.209   2.543   3.744 -0.0594 -0.1004  0.0670
 2475W        W 6526   3.621   5.765  12.399 -0.0964 -0.1414  0.7409
 2476W        W 6527   2.296   3.461   8.915 -0.0185 -0.1680 -0.1639
 2477W        W 6528   2.610   8.967   2.544 -0.0309 -0.0580  0.2779
 2478W        W 6529   6.991   9.609   1.035  0.0493 -0.1120 -0.1290
 2479W        W 6530   8.742   9.093   0.825 -0.1641 -0.0506  0.2443
 2480W        W 6531   2.504   8.826   4.786 -0.0043 -0.1158 -0.2282
 2481W        W 6532   8.314   5.701  12.033  0.1428  0.0885 -0.0704
 2482W        W 6533   0.192   0.468   0.969  0.1750  0.3753 -0.3572
 2483W        W 6534   9.313   1.146   8.886  0.0691  0.0714 -0.1159
 2484W        W 6535   1.304   6.538   0.672 -0.3130 -0.0620 -0.0175
 2485W        W 6536   2.007   8.294  13.050  0.2779 -0.0468 -0.0994
 2486W        W 6537   4.801   9.143  10.544 -0.3212 -0.0513 -0.1790
 2487W        W 6538   9.822   2.135   4.221  0.0002 -0.0766 -0.5522
 2488W        W 6539   4.921   7.181   4.924 -0.4214 -0.0430  0.0781
 2489W        W 6540   2.191   2.148   9.668 -0.1515 -0.1810 -0.2931
 2490W        W 6541   7.289   6.738   5.446  0.1555 -0.0137 -0.2108
 2491W        W 6542   1.107   2.010  13.490 -0.0131  0.2532  0.2953
 2492W        W 6543   7.382   2.863  12.792  0.1425  0.0110 -0.2421
 2493W        W 6544   8.488   6.813  10.774  0.1651  0.0288  0.1996
 2494W        W 6545   1.836   6.452   3.617  0.0971  0.2223 -0.1968
 2495W        W 6546   4.097   9.528  13.535 -0.0863  0.0602  0.0638
 2496W        W 6547   9.970   9.710   0.939 -0.0163 -0.1846 -0.0568
 2497W        W 6548   9.567   7.776   2.247  0.1496  0.0716  0.2462
 2498W        W 6549   0.941   1.485   1.362 -0.2416 -0.0526 -0.4167
 2499W        W 6550   1.313   9.861   4.737 -0.1262 -0.0359 -0.4988
 2500W        W 6551   8.240   1.405   3.012  0.1488  0.0341  0.1166
 2501W        W 6552   4.705   1.651  13.803 -0.2313  0.2389  0.0883
 2502W        W 6553   7.703   1.245   1.171  0.2000 -0.0373  0.0579
 2503W        W 6554   6.854   1.686   1.865  0.0406  0.2151  0.0519
 2504W        W 6555   1.167   2.595   5.004  0.0117  0.4113 -0.0492
 2505W        W 6556   9.604   5.531   9.963 -0.0248  0.1786 -0.1852
 2506W        W 6557   4.142   8.454  10.495  0.1587  0.0183  0.0549
 2507W        W 6558   5.172   3.671   1.781 -0.3928 -0.0583 -0.0619
 2508W        W 6559   0.672   8.579  13.679  0.1333  0.3876 -0.0221
 2509W        W 6560   0.991   8.192   4.470 -0.0845  0.1799  0.2296
 2510W        W 6561   3.205   7.044  11.396 -0.0188 -0.1796 -0.0513
 2511W        W 6562   9.457   5.685  12.153 -0.0280  0.0792  0.0263
 2512W        W 6563   0.563   2.334  12.031 -0.1485 -0.0617 -0.1828
 2513W        W 6564   2.083   1.329  10.255 -0.0896  0.1361 -0.2306
 2514W        W 6565   6.470   7.478   5.105  0.0862 -0.1443  0.0821
 2515W        W 6566   3.139   5.412   4.172 -0.1128  0.0728  0.2510
 2516W        W 6567   9.165   3.207  10.083 -0.2743 -0.1717 -0.0828
 2517W        W 6568   0.165   7.080  10.158  0.3203 -0.1956 -0.0764
 2518W        W 6569   7.370   9.232   4.212 -0.0009  0.4481 -0.1989
 2519W        W 6570   3.617   4.487   1.578 -0.1657 -0.0308  0.0714
 2520W        W 6571   9.513   0.646  13.575 -0.4686 -0.0827 -0.0048
 2521W        W 6572   4.631   9.575   5.200  0.2404  0.1273  0.2356
 2522W        W 6573   8.243   5.744  10.397  0.0857 -0.3500  0.2370
 2523W        W 6574   0.737   3.390   0.992 -0.0745  0.0976 -0.1485
 2524W        W 6575   9.090   8.946   1.226 -0.0734 -0.1912  0.2668
 2525W        W 6576   6.201   5.099  10.511 -0.1361 -0.0898 -0.1961
 2526W        W 6577   8.453   4.046   3.327  0.1759  0.2634  0.3119
 2527W        W 6578   9.171   4.481   3.700 -0.4230  0.2352  0.3458
 2528W        W 6579   5.813   4.793   1.467 -0.3109 -0.1346 -0.2183
 2529W        W 6580   3.488   5.326  12.106 -0.3186 -0.1268  0.2939
 2530W        W 6581   5.785   1.233   2.194 -0.2783 -0.1671  0.3004
 2531W        W 6582   4.406   5.090   0.773 -0.2181  0.0832 -0.2195
 2532W        W 6583   5.761   8.779  13.232 -0.2355 -0.1693  0.2773
 2533W        W 6584   2.007   5.767   2.187 -0.0583 -0.0390  0.1647
 2534W        W 6585   3.103   6.650  10.199  0.0972 -0.1591 -0.0226
 2535W        W 6586   4.105   1.647   0.893  0.1394  0.2047 -0.0431
 2536W        W 6587   1.642   9.634  13.215 -0.0823  0.1604 -0.0727
 2537W        W 6588   8.017   1.726   2.753 -0.0308  0.0429 -0.1936
 2538W        W 6589   3.411   6.438  10.496 -0.1341  0.0614 -0.0786
 2539W        W 6590   1.318   2.345   3.338 -0.1064  0.2722  0.1538
 2540W        W 6591   1.600   0.802   9.468 -0.3572  0.0721  0.2607
 2541W        W 6592   8.526   1.407   1.842 -0.0543  0.0215 -0.0071
 2542W        W 6593   8.620   8.959   3.291  0.1682  0.1668  0.1862
 2543W        W 6594   9.890   7.851   4.702 -0.0386  0.0058  0.3926
 2544W        W 6595   2.772   4.618  10.809  0.0394  0.3410 -0.0455
 2545W        W 6596   8.522   3.900   1.945 -0.5031 -0.1166  0.2517
 2546W        W 6597   5.725   1.576  12.687 -0.1120  0.2377 -0.6490
 2547W        W 6598   4.344   4.874   1.443  0.1657 -0.2281 -0.1967
 2548W        W 6599   3.452   8.544  12.512 -0.1591 -0.0199 -0.1668
 2549W        W 6600   6.178   5.993   0.594 -0.3409 -0.1097  0.3380
 2550W        W 6601   1.924   3.150   4.073 -0.2173 -0.5031 -0.0088
 2551W        W 6602   5.270   5.212  12.892 -0.0652 -0.1444 -0.0808
 2552W        W 6603   3.678   8.130  12.870  0.2920  0.1362 -0.0255
 2553W        W 6604   1.768   1.841   8.928 -0.3404  0.0599 -0.0696
 2554W        W 6605   5.887   7.273  12.517  0.2214 -0.1962 -0.2637
 2555W        W 6606   2.819   0.286  10.605  0.0668 -0.0104 -0.1135
 2556W        W 6607   0.657   0.101   2.611  0.2367 -0.0883 -0.4350
 2557W        W 6608   4.715   7.947   1.789  0.0007 -0.1839  0.2479
 2558W        W 6609   3.322   3.775   0.906  0.1958 -0.0777 -0.0491
 2559W        W 6610   9.509   9.264   3.663  0.0628  0.2338  0.0128
 2560W        W 6611   1.186   0.285  11.470 -0.1146 -0.2505  0.0861
 2561W        W 6612   0.240   7.960   8.545  0.0863  0.1735  0.2573
 2562W        W 6613   9.786   0.476   9.246  0.1547  0.0463  0.1226
 2563W        W 6614   6.918   5.893   5.026 -0.0825 -0.1357 -0.1483
 2564W        W 6615   1.815   3.836   5.396  0.1499  0.0314  0.1091
 2565W        W 6616   7.865   5.487   0.692  0.2932 -0.0104  0.3199
 2566W        W 6617   7.711   9.658  10.260  0.1966 -0.1718 -0.2405
 2567W        W 6618   2.260   6.221  12.768  0.1619 -0.1743  0.2104
 2568W        W 6619   8.343   8.850   0.012 -0.1393 -0.1037  0.1945
 2569W        W 6620   5.084   1.673  13.057  0.0883  0.1476 -0.0323
 2570W        W 6621   3.273   2.901   1.853 -0.1584  0.0373 -0.3256
 2571W        W 6622   9.730   1.401  12.390 -0.1732 -0.2395 -0.2180
 2572W        W 6623   1.370   8.246   2.931  0.0059  0.0951  0.0568
 2573W        W 6624   1.655   4.416   3.573  0.0284  0.1007 -0.3228
 2574W        W 6625   0.479   7.800  10.600 -0.1140 -0.0132  0.0284
 2575W        W 6626   5.372   8.676  11.047 -0.0317 -0.0468 -0.0207
 2576W        W 6627   0.990   8.342   1.580 -0.0627  0.0212  0.0655
 2577W        W 6628   6.612   7.941  11.094 -0.2548  0.1075  0.2146
 2578W        W 6629   3.732   8.250   3.667 -0.6283  0.1794  0.1276
 2579W        W 6630   8.952   4.055  10.734  0.0721  0.0946  0.2280
 2580W        W 6631   4.337   4.292   3.761 -0.1730 -0.3450  0.3086
 2581W        W 6632   3.942   8.797   1.254 -0.0837 -0.0334 -0.0683
 2582W        W 6633   2.564   0.862   0.961  0.2608  0.1126  0.0342
 2583W        W 6634   9.918   9.268   4.261 -0.1448 -0.1125 -0.0215
 2584W        W 6635   2.409   1.822   0.680 -0.1771 -0.0792  0.1718
 2585W        W 6636   9.526   9.466  13.908 -0.2740 -0.1729 -0.0946
 2586W        W 6637   3.022   1.202   4.371  0.2980  0.0834 -0.2437
 2587W        W 6638   2.850   5.469  14.047 -0.0213  0.4944  0.2018
 2588W        W 6639   3.755   9.522   1.929  0.0726  0.2385  0.0744
 2589W        W 6640   8.627   6.090  12.871  0.3365  0.1354  0.0283
 2590W        W 6641   6.782   2.720   1.255 -0.2457  0.4467 -0.3649
 2591W        W 6642   3.670   6.738  10.119 -0.0122  0.0162  0.0053
 2592W        W 6643   7.307   0.879  12.937 -0.0505  0.0466 -0.1676
 2593W        W 6644   3.412   5.853  10.433  0.3632 -0.1731  0.0248
 2594W        W 6645   6.269   8.279  10.874  0.3306  0.1676  0.1460
 2595W        W 6646   2.925   3.025   1.549 -0.2017 -0.1550  0.2288
 2596W        W 6647   0.258   7.519   9.288  0.0524  0.2567 -0.1857
 2597W        W 6648   6.436   9.085   2.325  0.0833  0.0098  0.0646
 2598W        W 6649   2.687   2.399  11.469  0.2321 -0.1394 -0.2528
 2599W        W 6650   8.245   7.133   5.112 -0.0729  0.4477  0.2926
 2600W        W 6651   9.784   6.587   0.238  0.1041 -0.0152 -0.6876
 2601W        W 6652   3.400   8.923   3.983 -0.1438  0.0327  0.2188
 2602W        W 6653   6.092   1.308  11.401 -0.2506 -0.1059 -0.1954
 2603W        W 6654   6.292   6.809   1.820  0.3301  0.0505 -0.1088
 2604W        W 6655   5.035   9.021   4.578 -0.0028 -0.0579 -0.0138
 2605W        W 6656   8.454   6.983   2.897  0.0628  0.0643  0.2232
 2606W        W 6657   4.946   3.423   1.429 -0.1515  0.0556 -0.1468
 2607W        W 6658   5.827   7.139   0.030  0.0081 -0.2042  0.0875
 2608W        W 6659   9.080   8.312  13.238 -0.5109 -0.0224  0.0135
 2609W        W 6660   1.852   3.932   2.687  0.1732  0.1538 -0.4059
 2610W        W 6661   0.204   4.441   3.229  0.1614 -0.1491  0.0434
 2611W        W 6662   3.611   1.931  13.280  0.0019 -0.0115  0.4259
 2612W        W 6663   8.257   7.689   9.386  0.1197 -0.2545 -0.2495
 2613W        W 6664   5.435   3.700   1.387 -0.4432 -0.0950  0.0614
 2614W        W 6665   8.590   1.931   1.897 -0.2189  0.0920  0.2653
 2615W        W 6666   5.316   8.952   9.980  0.2516  0.3191  0.1923
 2616W        W 6667   9.243   4.567  10.538  0.1642 -0.2349  0.0988
 2617W        W 6668   5.050   0.428   0.519  0.2123 -0.0507 -0.0682
 2618W        W 6669   8.476   0.429  10.326 -0.0373  0.1783  0.0755
 2619W        W 6670   2.252   6.352   3.393 -0.4247 -0.1379  0.0248
 2620W        W 6671   7.465   1.471  10.929  0.0538  0.2311 -0.1065
 2621W        W 6672   5.279   4.133  11.725  0.0152 -0.1008  0.2161
 2622W        W 6673   8.613   0.146   0.624  0.0195  0.2820  0.1416
 2623W        W 6674   3.154   3.653   0.406  0.1047 -0.0944 -0.3672
 2624W        W 6675   2.838   5.531   2.623 -0.0848 -0.1268  0.2361
 2625W        W 6676   4.559   8.448   9.281  0.0496 -0.0605  0.0048
 2626W        W 6677   6.358   4.410   2.262  0.1405 -0.1194 -0.2553
 2627W        W 6678   5.508   1.929  13.172  0.1770 -0.0108  0.2082
 2628W        W 6679   9.743   1.182  10.606 -0.1332 -0.1805 -0.0990
 2629W        W 6680   4.546   5.453   1.934 -0.1115 -0.2391  0.0327
 2630W        W 6681   6.331   5.496   9.640 -0.0489 -0.0840  0.0834
 2631W        W 6682   6.842   5.370   4.774 -0.0481  0.0818 -0.1509
 2632W        W 6683   4.669   1.984   2.854  0.0535 -0.0517  0.0818
 2633W        W 6684   4.453   6.701   0.014  0.2671 -0.4667  0.2864
 2634W        W 6685   2.477   1.143  13.965 -0.1638  0.0505  0.0502
 2635W        W 6686   2.086   0.556  14.005  0.0938 -0.1386  0.2303
 2636W        W 6687   9.669   5.293  12.482  0.2055 -0.0815 -0.1753
 2637W        W 6688   9.612   7.198  11.420 -0.1301 -0.0865 -0.0948
 2638W        W 6689   7.263   7.701  13.236 -0.1340 -0.0130  0.0691
 2639W        W 6690   3.294   0.403  10.592 -0.1031 -0.0444  0.4172
 2640W        W 6691   8.657   1.101   0.740 -0.2317 -0.1184 -0.0272
 2641W        W 6692   8.533   5.739   2.293 -0.2647  0.2513  0.0788
 2642W        W 6693   3.708   9.921  12.222 -0.0554 -0.0406  0.2518
 2643W        W 6694   0.249   9.902   3.788  0.2628 -0.2261 -0.2693
 2644W        W 6695   2.623   6.598  10.079  0.0091 -0.0128 -0.1002
 2645W        W 6696   9.576   5.831  10.635  0.0399  0.3883  0.0164
 2646W        W 6697   4.689   6.771  13.646  0.2294  0.1480  0.1415
 2647W        W 6698   4.006   2.595   2.914 -0.1788 -0.0853  0.1473
 2648W        W 6699   1.312   7.683  12.704 -0.0237  0.0191  0.1759
 2649W        W 6700   8.677   7.762  13.775  0.3034 -0.1887 -0.0185
 2650W        W 6701   5.059   4.191  10.129  0.0644  0.1447 -0.2190
 2651W        W 6702   3.662   2.220   2.636  0.1689  0.1798  0.2121
 2652W        W 6703   9.966   3.158  13.976  0.1664 -0.0440 -0.0309
 2653W        W 6704   8.237   8.838  11.190 -0.1553  0.2619  0.0752
 2654W        W 6705   4.316   4.698   9.025  0.1191  0.1048 -0.0959
 2655W        W 6706  10.068   2.714  10.848  0.0165  0.3161  0.1542
 2656W        W 6707   2.820   7.975   3.542  0.1882  0.0070 -0.0350
 2657W        W 6708   2.916   9.724  13.905 -0.0595 -0.0710  0.1148
 2658W        W 6709   8.246   8.369  10.708 -0.2194 -0.2451 -0.0026
 2659W        W 6710   4.624   2.346   3.529  0.3290  0.0992 -0.2935
 2660W        W 6711   6.092   9.275  11.002  0.0039 -0.1223 -0.1091
 2661W        W 6712   3.259   7.745   5.514  0.2300  0.1716 -0.1911
 2662W        W 6713   1.900   1.766  10.426  0.0575 -0.2561 -0.2015
 2663W        W 6714   1.468   8.225  11.042 -0.3900 -0.1901 -0.1077
 2664W        W 6715   7.255   7.411  10.929  0.2456 -0.2475 -0.1986
 2665W        W 6716   1.071   4.358   0.584 -0.2291 -0.0618 -0.3256
 2666W        W 6717   3.950   1.288  14.038  0.1367 -0.0367 -0.0368
 2667W        W 6718   6.069   5.462   9.193  0.0498  0.3365 -0.0494
 2668W        W 6719   8.385   8.589   2.236  0.3664 -0.1429 -0.2382
 2669W        W 6720   4.321   2.631  10.812  0.0516 -0.2817 -0.0431
 2670W        W 6721   4.343   1.246   0.450 -0.2165 -0.1635  0.0897
 2671W        W 6722   1.423   7.063  11.749 -0.0939  0.1159  0.0039
 2672W        W 6723   0.908   7.680   2.493  0.0308 -0.1387  0.0353
 2673W        W 6724   0.050   6.695   2.106  0.3477 -0.2163  0.2025
 2674W        W 6725   6.342   4.664  10.240 -0.0725  0.0688  0.2454
 2675W        W 6726   3.430   7.447   9.359 -0.2117 -0.1918  0.0164
 2676W        W 6727   5.866   6.574   9.893 -0.1358 -0.2928 -0.1927
 2677W        W 6728   9.425   5.769   0.745 -0.0183 -0.3605  0.2106
 2678W        W 6729   8.857   6.174   0.331  0.0475 -0.4350  0.0016
 2679W        W 6730   8.625   3.144  11.422 -0.1125 -0.2163  0.0081
 2680W        W 6731   7.834  10.063   1.825  0.0479 -0.1663  0.0630
 2681W        W 6732   8.553   9.599   2.188 -0.0315  0.2771  0.0930
 2682W        W 6733   8.868   6.859  13.488  0.1064 -0.0856  0.2506
 2683W        W 6734   3.600   6.773   0.911 -0.2686 -0.0260  0.2053
 2684W        W 6735   6.197   3.691  13.052  0.1866  0.1004  0.0180
 2685W        W 6736   5.003   5.332   0.185  0.0977 -0.2207 -0.5247
 2686W        W 6737   9.190   8.207  11.861  0.1884  0.0172  0.1417
 2687W        W 6738   3.572   0.338   3.661 -0.0669 -0.5028  0.2198
 2688W        W 6739   0.843   4.823   0.772  0.1539 -0.1884 -0.0777
 2689W        W 6740   5.024   8.060   4.496  0.1440 -0.1854  0.3362
 2690W        W 6741   2.850   9.744   3.988  0.1550 -0.0990  0.0585
 2691W        W 6742  10.098   1.861   3.922  0.1470  0.0947  0.1499
 2692W        W 6743   9.767   8.231   0.587  0.0418 -0.2073  0.1143
 2693W        W 6744   3.755   8.493   9.238 -0.0533 -0.0029 -0.2317
 2694W        W 6745   7.521   0.411  11.992  0.1970  0.0111 -0.1094
 2695W        W 6746   0.196   8.164   2.350  0.2180  0.0167 -0.0130
 2696W        W 6747   1.351   1.095   0.042  0.0604 -0.0545  0.2287
 2697W        W 6748   8.787   4.593  12.453  0.0385 -0.0114  0.0813
 2698W        W 6749   4.622   8.737   0.114 -0.1657  0.0275 -0.1740
 2699W        W 6750   7.495   8.149   2.407 -0.0724  0.1443  0.0929
 2700W        W 6751   0.833   1.670  13.102  0.0513 -0.0301  0.2425
 2701W        W 6752   1.516   5.221   2.404  0.0699  0.2082 -0.2919
 2702W        W 6753   2.108   0.510  11.381  0.1190 -0.0695  0.2401
 2703W        W 6754   7.834   7.456   3.612 -0.0560  0.0653 -0.1967
 2704W        W 6755   2.744   4.818  10.361 -0.0211 -0.1471 -0.0117
 2705W        W 6756   0.576   2.968   0.189  0.0351  0.1459  0.0240
 2706W        W 6757   6.950   1.033  11.671  0.3014  0.0368  0.1020
 2707W        W 6758   1.272   5.155  10.764 -0.1663 -0.0043 -0.0863
 2708W        W 6759   7.492   3.942  13.380  0.1246  0.4962  0.2299
 2709W        W 6760   1.190   1.819   5.324 -0.0584  0.3185 -0.0318
 2710W        W 6761   5.208   5.785  12.222  0.2361 -0.2913 -0.0948
 2711W        W 6762   2.575   8.777  11.011 -0.1349  0.0181 -0.3362
 2712W        W 6763   1.459   9.288  12.155  0.0841  0.1533 -0.5936
 2713W        W 6764   2.171   2.175   0.285 -0.0377  0.2420 -0.3961
 2714W        W 6765  10.072   0.853   3.120 -0.0204  0.2584 -0.2466
 2715W        W 6766   9.291   4.390  11.050  0.0111 -0.0645  0.2726
 2716W        W 6767   0.440   2.408   3.216 -0.0207  0.1095 -0.0896
 2717W        W 6768   1.102   3.820   3.283 -0.0627 -0.2607 -0.1952
 2718W        W 6769   0.697   9.430  13.369 -0.1653 -0.1085 -0.1597
 2719W        W 6770   3.400   1.449  10.213 -0.1774 -0.0641  0.0514
 2720W        W 6771   1.991   7.458   9.348  0.2469  0.0105 -0.2144
 2721W        W 6772   6.172   1.981   1.148 -0.1150  0.0159 -0.0429
 2722W        W 6773   6.753   4.751   2.264 -0.0221  0.0138  0.1228
 2723W        W 6774   9.796   6.653   9.300 -0.3071  0.0780 -0.0275
 2724W        W 6775   7.143   3.645  13.096  0.0536 -0.0847 -0.1570
 2725W        W 6776   1.407   4.593  10.849 -0.0647 -0.0845  0.0065
 2726W        W 6777   9.308   9.003  11.081  0.2440  0.2562 -0.2915
 2727W        W 6778   2.808   7.156  13.277 -0.1622  0.1379 -0.0754
 2728W        W 6779   1.210   3.689   4.666  0.2546 -0.2930 -0.1105
 2729W        W 6780   8.386   8.388  12.517 -0.1432 -0.0583 -0.1383
 2730W        W 6781   7.017   3.783   2.180 -0.0804 -0.0933 -0.0607
 2731W        W 6782   0.322   2.134   3.603 -0.0217  0.1305  0.1421
 2732W        W 6783   8.958   6.562   0.643 -0.2162 -0.0039  0.1605
 2733W        W 6784   1.209   4.622   9.720 -0.0824 -0.3447  0.0173
 2734W        W 6785   6.241   4.659   1.223 -0.0985  0.1739  0.0169
 2735W        W 6786   9.874   8.510  12.775 -0.1254  0.4059  0.1265
 2736W        W 6787   9.716   2.988   9.998  0.0310 -0.0173  0.2255
 2737W        W 6788   9.694   1.315  11.218  0.0952  0.0482 -0.2674
 2738W        W 6789   3.369   9.582   2.743  0.1584  0.6503  0.1281
 2739W        W 6790   7.876   4.193   0.334  0.0643 -0.1577  0.1322
 2740W        W 6791   0.747   1.211  11.770 -0.1345 -0.3961 -0.3718
 2741W        W 6792   7.265   2.378  13.376  0.0054 -0.1283  0.0897
 2742W        W 6793   3.619   9.359   0.300  0.3265 -0.0109 -0.0477
 2743W        W 6794   6.111   5.904   1.958  0.0270 -0.0981 -0.1012
 2744W        W 6795   4.849  10.118   0.625 -0.0204  0.4034  0.1199
 2745W        W 6796   0.311   0.260   3.795 -0.2503  0.3247 -0.3148
 2746W        W 6797   4.988   1.150   3.127  0.1226 -0.1078 -0.3062
 2747W        W 6798   1.877   6.798  11.741  0.0688 -0.0477 -0.1698
 2748W        W 6799   8.353   0.058   0.050 -0.2589  0.0123 -0.0059
 2749W        W 6800   7.475   4.316  12.592  0.3562  0.0831  0.3076
 2750W        W 6801   7.994   9.809   0.137  0.1047 -0.2395  0.0873
 2751W        W 6802   1.628   6.959   1.474  0.2870  0.2226 -0.0743
 2752W        W 6803   3.686   4.000  10.913 -0.0444  0.0749 -0.0155
 2753W        W 6804   4.658   6.063   1.955 -0.1849  0.0844 -0.2184
 2754W        W 6805   3.698   9.598  13.854  0.0698 -0.1359 -0.1785
 2755W        W 6806   6.930   0.465   2.433  0.0392  0.3340  0.2450
 2756W        W 6807   7.070   5.171  10.050 -0.1471 -0.0544  0.1723
 2757W        W 6808   6.740   4.329  12.013  0.1285  0.0087  0.0375
 2758W        W 6809   6.856   3.729   3.573  0.1489 -0.0725  0.1670
 2759W        W 6810   3.051   5.277   0.399  0.1957  0.1210  0.2045
 2760W        W 6811   2.940   0.106  13.725 -0.2500  0.1955  0.0136
 2761W        W 6812   1.177   0.033   3.305 -0.0651  0.0804 -0.0226
 2762W        W 6813   0.824   7.858  11.803 -0.3255  0.1972  0.0553
 2763W        W 6814   7.145   0.683   1.979  0.0690 -0.1331  0.0549
 2764W        W 6815  10.010   4.967  12.598  0.0464  0.0021 -0.0781
 2765W        W 6816   2.089   8.179  14.049 -0.1128 -0.0466 -0.1616
 2766W        W 6817   7.574   5.524   0.115 -0.0894  0.1513 -0.0791
 2767W        W 6818   8.338   7.972   4.940  0.0809  0.0361  0.2083
 2768W        W 6819   4.141   7.524  12.384 -0.3964 -0.0278  0.2159
 2769W        W 6820   9.971   8.574   9.851  0.1596 -0.2744 -0.1439
 2770W        W 6821   3.841   4.455  11.037 -0.3353 -0.3804 -0.4323
 2771W        W 6822   3.827   3.796  10.482 -0.0170 -0.2030  0.3614
 2772W        W 6823   0.616   1.754   2.203 -0.4417  0.2170 -0.0757
 2773W        W 6824   8.034   3.917  12.431 -0.0542  0.1718  0.2558
 2774W        W 6825   6.386   7.191  13.801  0.2924  0.3045  0.2939
 2775W        W 6826   5.436   4.399   2.408 -0.0295  0.0155 -0.3260
 2776W        W 6827   1.217  10.120  12.579  0.0011 -0.2920 -0.1949
 2777W        W 6828   7.648   0.210   0.480  0.0537 -0.0511  0.4651
 2778W        W 6829   8.158   1.346  13.808 -0.3586 -0.2223  0.1345
 2779W        W 6830   5.139   2.903  11.501  0.1984 -0.2714  0.0987
 2780W        W 6831   4.069   8.241   4.079 -0.1447  0.2334 -0.1285
 2781W        W 6832   9.483   8.083   4.813 -0.0996  0.3255  0.0435
 2782W        W 6833   8.907   6.265   1.321  0.2113  0.1354 -0.1942
 2783W        W 6834   8.044   7.271  13.597  0.1465  0.0630  0.5187
 2784W        W 6835   7.023   9.340   4.615  0.0578  0.2123  0.0660
 2785W        W 6836   4.255   9.359  13.034 -0.1471 -0.0063 -0.0669
 2786W        W 6837   2.835   2.233   0.936 -0.0204  0.0926  0.1595
 2787W        W 6838   2.927   1.498  11.415  0.1794 -0.2502 -0.2465
 2788W        W 6839   2.648   2.261   2.708 -0.0895  0.0064 -0.0476
 2789W        W 6840   4.877   5.605  13.268 -0.2295  0.0823  0.0020
 2790W        W 6841   7.627   1.859  10.016  0.4090 -0.1666 -0.0423
 2791W        W 6842   8.869   6.327   4.124  0.1163 -0.0390 -0.0082
 2792W        W 6843   1.832   8.873  12.462  0.1256 -0.1930 -0.0935
 2793W        W 6844   9.315   8.554   0.104  0.2975 -0.1044  0.2642
 2794W        W 6845   0.585   1.949  10.067  0.0217  0.2357 -0.1456
 2795W        W 6846   1.134   4.966  12.108  0.0453 -0.0137 -0.2282
 2796W        W 6847   9.547   6.086   5.408 -0.0427 -0.0757 -0.0943
 2797W        W 6848   4.234   3.272  12.742 -0.1940 -0.1907 -0.0404
 2798W        W 6849   7.112   8.915   2.698  0.3324  0.3324 -0.2401
 2799W        W 6850   1.607   1.772   0.637 -0.3010 -0.2752 -0.0946
 2800W        W 6851   8.881   4.025   1.350  0.1726 -0.0739  0.1754
 2801W        W 6852   7.970   9.184   2.652  0.0057 -0.0869 -0.0169
 2802W        W 6853   2.918   5.018   4.357 -0.0103  0.0776 -0.2118
 2803W        W 6854   3.729   5.558   1.231  0.3205  0.2550  0.2589
 2804W        W 6855   7.219   0.069   2.646 -0.0695  0.1232 -0.0068
 2805W        W 6856   4.910  10.124   4.391 -0.1864  0.0335 -0.3161
 2806W        W 6857   6.499   2.750   0.732 -0.2165  0.1338  0.0779
 2807W        W 6858   2.237   6.610  13.836 -0.3230 -0.1940  0.3841
 2808W        W 6859   3.140   4.902  12.650  0.1691 -0.0078 -0.2469
 2809W        W 6860   8.054   7.839  12.761  0.3211 -0.0488 -0.3163
 2810W        W 6861   8.279   5.102   3.262  0.2312 -0.1297  0.0681
 2811W        W 6862   3.915   8.754   4.191 -0.0304  0.2232 -0.1946
 2812W        W 6863   6.596   0.327  13.882  0.0571 -0.4516  0.0039
 2813W        W 6864   6.853   0.141  11.111  0.0766  0.1791  0.1805
 2814W        W 6865   1.531   3.778   2.055 -0.0921 -0.0728 -0.1044
 2815W        W 6866   4.758  10.125  13.689 -0.1157  0.0512  0.2261
 2816W        W 6867   4.423   9.829  10.260  0.1323 -0.0905 -0.0733
 2817W        W 6868   2.854   2.604   0.040 -0.0524  0.2909 -0.0373
 2818W        W 6869   1.075   0.143   1.166 -0.1108  0.2235 -0.2787
 2819W        W 6870   9.973   9.708  13.753  0.2458 -0.1641  0.2576
 2820W        W 6871   6.625   2.096   2.881 -0.0709  0.2648 -0.0202
 2821W        W 6872  10.000   0.944   0.770  0.1594 -0.2057  0.0131
 2822W        W 6873   4.359   7.810  11.126 -0.0757 -0.0315  0.3009
 2823W        W 6874   8.726   2.738  13.594 -0.2155  0.1091  0.1508
 2824W        W 6875   2.342   3.180   3.459 -0.1617 -0.0936  0.2117
 2825W        W 6876   6.069   0.847   2.951  0.0077 -0.1567 -0.0247
 2826W        W 6877   9.019   9.665   2.605 -0.0458  0.0034 -0.0949
 2827W        W 6878   3.756   8.177   4.441  0.0562  0.5002 -0.1660
 2828W        W 6879   6.208   7.039   8.807 -0.2035 -0.1632 -0.1091
 2829W        W 6880   3.074   2.034   3.512 -0.2613  0.1667 -0.0504
 2830W        W 6881   8.030   3.808   3.013  0.1356  0.1452 -0.0646
 2831W        W 6882   2.020   8.901  10.110  0.1759  0.1474  0.1358
 2832W        W 6883   3.408   0.333   1.812 -0.2432 -0.0439  0.0376
 2833W        W 6884   1.083   2.492   9.204  0.2131  0.2268 -0.1894
 2834W        W 6885   2.037   5.334  12.752  0.2040  0.1231  0.0818
 2835W        W 6886   5.785   0.910  12.126 -0.1638 -0.0081 -0.1343
 2836W        W 6887   4.314   4.443   3.292  0.2339 -0.0831 -0.1137
 2837W        W 6888   8.527   1.835   2.851 -0.2374 -0.0981  0.3020
 2838W        W 6889   9.858   0.706   4.906  0.2530  0.1907 -0.4538
 2839W        W 6890   8.320   6.794   3.867 -0.2502 -0.1174 -0.1338
 2840W        W 6891   2.683   5.531  11.111  0.2197  0.1007 -0.0760
 2841W        W 6892   6.079   9.325   1.337 -0.2129  0.2339 -0.2569
 2842W        W 6893   7.305   5.700   4.723 -0.1982 -0.0690  0.1330
 2843W        W 6894   3.060   9.287  13.121  0.1282 -0.1100  0.2241
 2844W        W 6895   8.247   0.314  11.202  0.0854  0.1825  0.1167
 2845W        W 6896   1.515   9.302   9.808  0.3123 -0.0500  0.2315
 2846W        W 6897   0.951   5.507   9.903 -0.1842  0.0704 -0.1113
 2847W        W 6898   9.432   6.857   9.933 -0.1566  0.3933  0.1932
 2848W        W 6899   9.594   8.534  13.755  0.1968 -0.0620  0.1511
 2849W        W 6900   3.471   7.576  10.057 -0.1733 -0.2531 -0.0423
 2850W        W 6901   7.353   9.382  10.409 -0.1014 -0.2977  0.3064
 2851W        W 6902   7.715   7.300   2.264 -0.3835  0.1630 -0.0702
 2852W        W 6903   8.111   8.628   0.456 -0.1487 -0.0923 -0.0361
 2853W        W 6904   5.091   4.000   2.408 -0.2649  0.2220  0.0300
 2854W        W 6905   4.510   1.533   2.582 -0.0393 -0.1336 -0.0629
 2855W        W 6906   1.373   3.328   0.383 -0.2031  0.1059 -0.1325
 2856W        W 6907   9.783   1.262  11.933 -0.2287  0.0273  0.0027
 2857W        W 6908   0.925   6.893  13.853 -0.1710 -0.1801  0.2332
 2858W        W 6909   0.366   6.910  10.948  0.0248  0.0476 -0.0820
 2859W        W 6910   7.270   2.724  11.382  0.2396  0.0379  0.3448
 2860W        W 6911   8.721   1.159  13.984  0.2321 -0.1171 -0.0280
 2861W        W 6912   5.493   8.476   3.168 -0.0812  0.0550 -0.0959
 2862W        W 6913   3.195   1.472  13.338  0.0895  0.2105  0.3517
 2863W        W 6914   5.887   1.277   2.696  0.2579  0.1652  0.1565
 2864W        W 6915   4.908   7.701   9.643  0.2081 -0.1134  0.0502
 2865W        W 6916   7.611   8.743   8.790 -0.1244 -0.0729  0.3379
 2866W        W 6917   9.246   8.583  11.464  0.0633 -0.2502  0.1234
 2867W        W 6918   0.466   7.339   2.571 -0.0095 -0.1632  0.2377
 2868W        W 6919   4.395   0.255  11.954 -0.1570 -0.1722 -0.1469
 2869W        W 6920   3.024   4.910   1.450 -0.3531 -0.1083 -0.1311
 2870W        W 6921   6.316   5.109   2.147 -0.3330 -0.3716  0.1334
 2871W        W 6922   0.264   3.123  10.967  0.1633 -0.1115 -0.2691
 2872W        W 6923   1.646   8.431  13.970 -0.2101 -0.0492  0.2217
 2873W        W 6924   7.116   8.339   0.075  0.0691  0.3658  0.4066
 2874W        W 6925   0.967   6.538   4.530 -0.1225 -0.1736  0.2155
 2875W        W 6926   4.821   4.919   0.450 -0.1022 -0.0887 -0.1424
 2876W        W 6927   9.264   7.606   4.597  0.0567  0.3693  0.1602
 2877W        W 6928   0.385   1.555   2.627  0.0223  0.1744  0.2084
 2878W        W 6929   1.493   4.504   1.268  0.1291  0.1882  0.3183
 2879W        W 6930   0.834   8.822  10.789  0.1128 -0.1011  0.1700
 2880W        W 6931   7.768   9.227  13.113  0.2323  0.0435 -0.1769
 2881W        W 6932   7.611   6.945   4.387 -0.3006 -0.1764  0.1913
 2882W        W 6933   9.394   1.778  11.600 -0.1158 -0.0438  0.2648
 2883W        W 6934   8.993   8.844  13.144 -0.2812  0.0873  0.0631
 2884W        W 6935   2.907   4.462  11.832  0.0566 -0.4412  0.1947
 2885W        W 6936   1.734   5.797   3.616  0.1817 -0.1800 -0.1967
 2886W        W 6937   8.130   6.190   2.231  0.0404  0.0173 -0.2097
 2887W        W 6938   5.651   8.708  10.260 -0.0941 -0.2780  0.2560
 2888W        W 6939   1.054   0.352   0.006  0.0959 -0.0680 -0.4390
 2889W        W 6940   1.943   4.435   5.524  0.0261  0.1523  0.0006
 2890W        W 6941   7.756   2.306  11.336  0.1263 -0.1004 -0.0525
 2891W        W 6942   4.854   7.621  13.254  0.1216  0.2223  0.0889
 2892W        W 6943   9.688   9.384   8.451  0.0901  0.0538 -0.1589
 2893W        W 6944   9.392   3.617  11.304 -0.1845 -0.0002  0.2605
 2894W        W 6945   3.274   4.116   3.137  0.3214  0.0681 -0.0754
 2895W        W 6946   2.063   0.405  10.724  0.1525 -0.0570  0.0478
 2896W        W 6947   0.264   3.544  12.635 -0.2238 -0.0444 -0.0328
 2897W        W 6948   9.964   5.784   9.135 -0.2999  0.0771  0.0332
 2898W        W 6949   5.902   3.480  10.934 -0.1942  0.0048 -0.4514
 2899W        W 6950   5.089   7.728   3.666 -0.2090 -0.0965 -0.2077
 2900W        W 6951   7.148   5.724  11.337  0.0273 -0.0232 -0.2322
 2901W        W 6952   9.236   0.171  13.459  0.0978 -0.6585 -0.0602
 2902W        W 6953   4.467  10.020  11.090  0.1973 -0.1774  0.4192
 2903W        W 6954   2.463   1.864   9.985  0.0492 -0.1177 -0.1786
 2904W        W 6955   6.514   2.847   0.238  0.1163 -0.0763  0.1252
 2905W        W 6956   4.530   3.158  12.289  0.0241  0.0841  0.3082
 2906W        W 6957   6.310   6.199   2.387 -0.3588  0.0559 -0.2486
 2907W        W 6958   4.131   8.576   9.554 -0.0953  0.0617  0.2044
 2908W        W 6959   5.476   7.925   0.082  0.0808 -0.0915  0.0428
 2909W        W 6960   9.141   6.305   3.406  0.0960  0.3258  0.0333
 2910W        W 6961   7.011   3.503   1.118  0.0129  0.2129  0.2135
 2911W        W 6962   2.922   1.902   1.283  0.2645 -0.0656 -0.4116
 2912W        W 6963   0.575   1.442   9.917  0.0407  0.2053 -0.1162
 2913W        W 6964   6.021   3.086   2.645 -0.1636 -0.3112  0.1475
 2914W        W 6965   6.301   1.895   3.470  0.2221 -0.0012  0.0040
 2915W        W 6966   3.528   0.683   2.372 -0.2093 -0.1530  0.1130
 2916W        W 6967   0.236   2.342  10.989 -0.2348 -0.1813  0.0221
 2917W        W 6968   9.027   1.092  12.927 -0.1876 -0.3833  0.0791
 2918W        W 6969   1.177   6.070  11.793  0.2279 -0.0543 -0.3136
 2919W        W 6970   6.280   0.280   3.710  0.3055 -0.0272  0.2037
 2920W        W 6971   0.061   3.948   2.424 -0.1790  0.4514 -0.0261
 2921W        W 6972   0.436   5.557  10.746  0.1784 -0.3312 -0.4444
 2922W        W 6973   7.377   7.935  12.160  0.0123  0.1041 -0.1668
 2923W        W 6974   8.477   1.865   9.473  0.0217 -0.0255 -0.0796
 2924W        W 6975   1.549   3.470   3.431 -0.2542  0.0859 -0.2569
 2925W        W 6976   2.681   7.228   2.945 -0.4773 -0.2571 -0.0491
 2926W        W 6977   7.877   6.473  12.411  0.0292  0.3428  0.0870
 2927W        W 6978   3.109   9.912   4.393  0.2020  0.0297 -0.0075
 2928W        W 6979   0.304   8.199  12.085  0.0402 -0.0600 -0.0739
 2929W        W 6980   8.010   8.748  12.782 -0.1952 -0.2794 -0.0157
 2930W        W 6981   1.434   6.207   2.725  0.0675  0.1298 -0.3200
 2931W        W 6982  10.091   8.334   8.888 -0.4658  0.1268  0.0708
 2932W        W 6983   7.922   7.978  10.798  0.1564  0.0020  0.0875
 2933W        W 6984   2.618   1.982  11.228 -0.1912  0.0142  0.1764
 2934W        W 6985   9.423   6.351   0.665  0.0909 -0.2620  0.0324
 2935W        W 6986   0.247   8.445  13.527  0.2050  0.0295 -0.1324
 2936W        W 6987   1.138   3.513   2.444 -0.0238 -0.1775  0.0114
 2937W        W 6988   2.811   8.217  11.559  0.2087  0.0596 -0.0352
 2938W        W 6989   7.666   4.649   0.747 -0.0398  0.0420 -0.2435
 2939W        W 6990   2.653   0.886   0.261 -0.2951 -0.1754  0.0396
 2940W        W 6991   6.693   5.870  11.570  0.1809 -0.0446 -0.1557
 2941W        W 6992   3.926   6.109  13.447  0.1043  0.2799 -0.3252
 2942W        W 6993   0.423   1.054  11.386 -0.0783 -0.0040 -0.0298
 2943W        W 6994   3.888   5.618   0.469  0.2444 -0.1646 -0.2020
 2944W        W 6995   0.905   2.082   3.262  0.2573  0.1504 -0.2597
 2945W        W 6996   6.761   3.737  11.157  0.0692  0.1871 -0.1935
 2946W        W 6997   9.098  10.131   2.752  0.0645 -0.0663  0.2277
 2947W        W 6998   9.702   5.312   2.468 -0.0023  0.0742 -0.0305
 2948W        W 6999   7.841   7.380  11.632 -0.2502  0.1721  0.1890
 2949W        W 7000   4.871   2.420  12.103  0.1261 -0.1163 -0.1312
 2950W        W 7001   8.448   5.565   3.230 -0.0401  0.0068 -0.0917
 2951W        W 7002   3.704   3.023   0.955  0.0515  0.1366 -0.0617
 2952W        W 7003   1.486   4.213   9.011  0.1579 -0.0014 -0.0865
 2953W        W 7004   1.199   8.366  11.856 -0.1874  0.1559  0.2256
 2954W        W 7005   8.640   6.467  13.412  0.0220  0.2749  0.0733
 2955W        W 7006   5.157   8.652   1.304 -0.2263 -0.0069  0.2581
 2956W        W 7007  10.050   8.558   2.496  0.0171 -0.5176  0.2644
 2957W        W 7008   6.185   4.529   9.735 -0.2398  0.0190  0.2748
 2958W        W 7009   4.012   4.168   0.702  0.3399 -0.1282 -0.1249
 2959W        W 7010   4.538   9.675  13.769 -0.1722  0.1680  0.0809
 2960W        W 7011   4.510   4.929  11.202 -0.1061  0.2497  0.0099
 2961W        W 7012   0.610   3.224  11.294  0.1901  0.1356  0.0289
 2962W        W 7013   0.932   4.588   3.974 -0.0082  0.3626 -0.1299
 2963W        W 7014   3.854   5.184  13.243 -0.3079  0.0313 -0.1047
 2964W        W 7015   1.407   6.599   3.961 -0.2659 -0.2162  0.1149
 2965W        W 7016   6.482   3.954  10.764  0.2174  0.0034  0.1790
 2966W        W 7017   0.150   9.017   2.350  0.0807  0.1123  0.1487
 2967W        W 7018   0.709   6.380   4.957  0.0471 -0.1841  0.2181
 2968W        W 7019   8.911   3.125   3.112  0.1597 -0.0172 -0.2366
 2969W        W 7020   4.130   3.721  13.486  0.1838 -0.0420  0.1662
 2970W        W 7021   9.035   9.116  11.676 -0.0197  0.3878  0.2299
 2971W        W 7022   4.317   8.685   3.910  0.1924 -0.3032  0.2193
 2972W        W 7023   3.352   0.960  10.571 -0.0396  0.1956 -0.0627
 2973W        W 7024   9.295   4.947   2.447 -0.2559 -0.0914 -0.3264
 2974W        W 7025   2.819   8.736  12.564 -0.0526 -0.0892 -0.0090
 2975W        W 7026   4.377   8.305  11.313  0.1008  0.1521  0.0948
 2976W        W 7027   1.233   1.533   3.821  0.4157 -0.1212  0.1459
 2977W        W 7028   5.141   2.765   1.288 -0.2129  0.0836 -0.0066
 2978W        W 7029   3.267   6.233  13.758  0.3514 -0.2008 -0.2477
 2979W        W 7030   0.311   1.657   9.064  0.3104 -0.0315 -0.2132
 2980W        W 7031   0.411   5.191  10.371 -0.1519  0.1177 -0.0296
 2981W        W 7032   3.061   5.512   3.695 -0.1065 -0.0257 -0.1519
 2982W        W 7033   4.426   9.255  10.128 -0.2188  0.1429  0.0919
 2983W        W 7034   5.807   9.549  11.331 -0.0424 -0.0969 -0.1543
 2984W        W 7035   9.092   7.067   9.260  0.0096 -0.0667  0.0388
 2985W        W 7036   0.747   5.712  11.518 -0.1943 -0.0552  0.0791
 2986W        W 7037   9.379   8.918   9.288  0.1044 -0.3243  0.0861
 2987W        W 7038   1.986   5.422   2.668 -0.0913  0.0748 -0.0222
 2988W        W 7039   3.354   7.331  12.536 -0.0055  0.0973  0.4145
 2989W        W 7040   7.196   2.564   1.495 -0.2403  0.4669  0.1055
 2990W        W 7041   5.382   2.821  13.288 -0.1810 -0.1916 -0.1155
 2991W        W 7042   8.978   2.102  11.376 -0.2100 -0.1801  0.1574
 2992W        W 7043   2.433   7.389  12.529  0.0358  0.0523 -0.2274
 2993W        W 7044   9.608   1.797  11.152 -0.0113 -0.1498 -0.3348
 2994W        W 7045   5.159   6.899   1.736 -0.1355 -0.0970  0.1780
 2995W        W 7046   5.448   0.472   2.360  0.2921 -0.0900  0.1981
 2996W        W 7047   4.624   9.550   1.237 -0.2200 -0.1579  0.0665
 2997W        W 7048   0.938   9.962   8.182 -0.3249  0.3333  0.2260
 2998W        W 7049   2.524   6.342   3.800 -0.1933  0.0300  0.3731
 2999W        W 7050   3.487   4.642   4.992  0.0460 -0.2229 -0.0764
 3000W        W 7051   4.264   0.508   2.719 -0.2329 -0.0746  0.2864
 3001W        W 7052   1.113   7.687   4.605  0.0419 -0.1022 -0.0982
 3002W        W 7053   1.088   6.557   8.036  0.1227 -0.2134  0.3550
 3003W        W 7054   4.659   9.082  11.970 -0.0928 -0.2327 -0.0150
 3004W        W 7055   0.915   2.691  12.522  0.0094  0.1263  0.3167
 3005W        W 7056   5.080   3.282  10.520 -0.0852 -0.1620 -0.1403
 3006W        W 7057   4.914   2.424   2.742 -0.0971  0.1354 -0.0643
 3007W        W 7058   0.091   2.213  12.246  0.0266 -0.3282  0.0165
 3008W        W 7059   8.633   8.382   4.851  0.1428  0.1516 -0.0225
 3009W        W 7060   0.573  10.005   2.198  0.1077 -0.1693 -0.0470
 3010W        W 7061   2.915   6.686  13.229  0.3423  0.0303 -0.3057
 3011W        W 7062   9.516   8.100   3.049  0.3714 -0.4504  0.1441
 3012W        W 7063   2.228   8.201   4.060  0.2113 -0.2548 -0.1594
 3013W        W 7064   2.405   8.835   9.652 -0.2794  0.0341  0.3499
 3014W        W 7065   5.913   1.105   0.366 -0.1351  0.2995 -0.2930
 3015W        W 7066   0.542   8.779  10.315  0.0346  0.0642  0.2381
 3016W        W 7067   4.975   9.052  11.562  0.2280 -0.0355  0.0525
 3017W        W 7068   3.428   5.636   5.158 -0.0400  0.0679  0.1041
 3018W        W 7069   5.299   7.540  12.323  0.0115 -0.1234  0.1031
 3019W        W 7070   9.220   5.856   0.305  0.0141  0.0225  0.1823
 3020W        W 7071   6.693   7.568  13.569  0.0490  0.2392  0.2686
 3021W        W 7072   9.761   9.876  12.629 -0.1941  0.0061  0.0790
 3022W        W 7073   2.538   7.693  11.557 -0.1453 -0.1919 -0.0290
 3023W        W 7074   0.352   7.916  13.735 -0.1281 -0.0524  0.2409
 3024W        W 7075   0.247   8.875  13.835  0.2280  0.1363  0.1401
 3025W        W 7076   8.573   3.082   3.677  0.0774 -0.0351  0.0581
 3026W        W 7077   3.119   6.481   0.977 -0.5578  0.2524  0.1779
 3027W        W 7078   3.126   0.330  11.583  0.1716  0.2116  0.2683
 3028W        W 7079   1.930   5.711   1.198 -0.1212 -0.0261  0.0644
 3029W        W 7080  10.086   6.713   4.384  0.0335 -0.2932  0.0703
 3030W        W 7081   1.274   2.549  11.199 -0.0097  0.0249  0.2129
 3031W        W 7082   2.788   5.617  12.150  0.1914  0.0087  0.0508
 3032W        W 7083   5.502   5.696   1.816 -0.2099  0.4974 -0.2132
 3033W        W 7084   5.931   4.514  12.196 -0.1811 -0.1113  0.0156
 3034W        W 7085   5.687   2.448   0.190 -0.2751 -0.2452 -0.0081
 3035W        W 7086   5.513   3.260  13.533  0.6036 -0.0249 -0.0483
 3036W        W 7087   5.778   6.040   2.349 -0.0337 -0.0255  0.1354
 3037W        W 7088   4.105   9.534   0.588 -0.1590 -0.2650  0.1153
 3038W        W 7089  10.090   6.162   2.094 -0.2657 -0.2929  0.0696
 3039W        W 7090   6.400   1.157   3.988  0.3584 -0.0232 -0.2794
 3040W        W 7091   0.537   3.130   4.211  0.1052 -0.2293  0.0556
 3041W        W 7092   8.785   4.042   0.542 -0.3091 -0.0071  0.0670
 3042W        W 7093   2.871   0.592   9.707  0.2505 -0.2042 -0.0285
 3043W        W 7094   2.141   4.039  11.381  0.0506  0.0778 -0.1871
 3044W        W 7095   6.117  10.051  11.528 -0.0046 -0.2205  0.0043
 3045W        W 7096   7.500   4.944  11.035  0.2473 -0.3985 -0.2030
 3046W        W 7097   5.069   6.058  11.622  0.0795  0.1010 -0.4928
 3047W        W 7098   8.038   4.500   2.374 -0.3187  0.2553 -0.1312
 3048W        W 7099   6.452   6.912   0.567 -0.1337 -0.1255  0.0752
 3049W        W 7100   3.510   8.436   0.111 -0.2295  0.3520  0.1666
 3050W        W 7101   2.375   2.974  10.473 -0.1426  0.2057 -0.0863
 3051W        W 7102   1.092   5.614   0.468 -0.0703 -0.2609 -0.1753
 3052W        W 7103   6.785   7.317   0.558 -0.1892 -0.0351  0.0377
 3053W        W 7104   7.066   4.643   0.858  0.3118  0.2515  0.1678
 3054W        W 7105   8.790   4.404  11.082 -0.1460  0.0972 -0.0208
 3055W        W 7106   5.970   5.296   0.756 -0.3192 -0.0497 -0.0079
 3056W        W 7107   5.566   2.158  13.817  0.1968  0.2648  0.3065
 3057W        W 7108   8.573   5.084  10.167 -0.1014 -0.0384 -0.3280
 3058W        W 7109   3.876   7.062  13.684  0.3361  0.2547  0.3249
 3059W        W 7110   5.684   3.891  13.015  0.3139 -0.0099  0.2403
 3060W        W 7111   2.020   2.970   9.513  0.2222 -0.1500  0.0095
 3061W        W 7112   3.864   5.454  10.150  0.1539 -0.1951 -0.0607
 3062W        W 7113   0.277   3.607  10.781 -0.3874 -0.1275 -0.0623
 3063W        W 7114   7.982   2.706   0.653 -0.0348 -0.0596  0.1340
 3064W        W 7115   5.402   3.734  13.378 -0.0237  0.1378 -0.1733
 3065W        W 7116   4.220   3.296   9.580 -0.0184 -0.0146 -0.3738
 3066W        W 7117   1.947   6.179   2.490 -0.2965 -0.0904 -0.0755
 3067W        W 7118   6.740   6.975   0.152 -0.2725 -0.3037  0.1339
 3068W        W 7119   2.228   5.838   1.684  0.0308 -0.1989 -0.1090
 3069W        W 7120   3.318   4.581  10.859 -0.0880  0.0574  0.0215
 3070W        W 7121   1.540   6.472   1.752  0.2190  0.0532 -0.1445
 3071W        W 7122   6.207   3.221   0.474  0.1227  0.0247  0.0572
 3072W        W 7123   2.674   1.172   4.739 -0.0028  0.0185 -0.0662
 3073W        W 7124   0.263   2.552  12.945  0.1416  0.0943 -0.2769
 3074W        W 7125   1.502   2.151   1.041  0.4017 -0.1492 -0.2528
 3075W        W 7126   1.055   4.317  10.581  0.2704  0.2066  0.2934
 3076W        W 7127   6.968   5.418   3.788 -0.1943  0.3610  0.0317
 3077W        W 7128   2.300   4.076   3.009 -0.0685 -0.0666 -0.0499
 3078W        W 7129   7.290   7.184   4.993 -0.0373 -0.2082 -0.0340
 3079W        W 7130   8.959   5.246  11.692  0.1799  0.0567 -0.1580
 3080W        W 7131   2.058   1.560   9.333 -0.1043 -0.0758 -0.1484
 3081W        W 7132   8.658   5.126   2.887 -0.0932 -0.2670  0.0520
 3082W        W 7133   0.709   4.396   1.989 -0.2524  0.1526  0.0974
 3083W        W 7134   3.849   1.003  12.990  0.2051 -0.3101  0.1361
 3084W        W 7135   4.131   9.566   1.533 -0.1290 -0.2893 -0.3393
 3085W        W 7136   2.800   6.123   4.562  0.2398  0.3429  0.0034
 3086W        W 7137   4.392   2.544   0.546 -0.3281  0.0668 -0.0293
 3087W        W 7138   5.872   7.386  13.022 -0.0139  0.0672 -0.0475
 3088W        W 7139   7.415   0.285   9.318  0.0158 -0.0125  0.0233
 3089W        W 7140   5.389   6.871   0.104  0.0776 -0.0464 -0.1675
 3090W        W 7141   9.378   0.317   2.441 -0.1010 -0.1494  0.2766
 3091W        W 7142   9.439   7.348  12.502  0.1785 -0.1705  0.0356
 3092W        W 7143   3.431   3.195   2.213 -0.0865 -0.1445 -0.2934
 3093W        W 7144   4.231   7.780  10.170 -0.0495  0.3194 -0.0083
 3094W        W 7145   0.179   9.370  13.874  0.1021  0.1107  0.0302
 3095W        W 7146   8.554   2.532   9.653  0.0214  0.0794  0.3044
 3096W        W 7147   1.102   5.557  11.846 -0.2845  0.2539 -0.0682
 3097W        W 7148   6.563   1.348  11.607  0.3734  0.0277  0.2203
 3098W        W 7149   9.459   8.603   3.173 -0.2177 -0.2040 -0.0658
 3099W        W 7150   8.532   8.770  12.936  0.4113 -0.1175  0.1090
 3100W        W 7151   4.462   4.888  12.547 -0.1400  0.2522 -0.1154
 3101W        W 7152   2.102   7.254   4.207 -0.0441  0.1843 -0.0731
 3102W        W 7153   3.613   2.160   3.524  0.2016 -0.1764  0.1822
 3103W        W 7154   8.279   9.871   1.721  0.1393  0.2292 -0.0558
 3104W        W 7155   2.215   9.171   2.741 -0.1733 -0.3033  0.2856
 3105W        W 7156   5.736   4.502  11.703 -0.2174  0.0681  0.0809
 3106W        W 7157   5.099   7.855  12.708  0.0045 -0.2320 -0.2512
 3107W        W 7158   1.743   3.236   2.017  0.0444  0.2103 -0.2505
 3108W        W 7159   5.630   3.130  10.080  0.1212 -0.2450 -0.0632
 3109W        W 7160   3.264   6.708  13.611  0.2341 -0.2858  0.0306
 3110W        W 7161   2.661   9.777   9.831 -0.0779 -0.0476  0.4709
 3111W        W 7162   7.927   7.223   0.270 -0.1409 -0.1762 -0.3434
 3112W        W 7163   8.453   1.854   0.951  0.0874 -0.0898  0.0551
 3113W        W 7164   4.343   9.997  13.475  0.0041 -0.1747  0.0732
 3114W        W 7165   8.615   2.755  10.482 -0.1003  0.0962  0.1200
 3115W        W 7166   6.422   8.872  13.996  0.0960 -0.1347  0.0796
 3116W        W 7167   4.671   4.023  12.945 -0.1267  0.0505  0.1286
 3117W        W 7168   2.820   7.944  13.299 -0.0235  0.0197 -0.0773
 3118W        W 7169   4.078   6.317  13.903  0.0102  0.2794  0.1108
 3119W        W 7170   4.027   9.350   3.571  0.0535  0.0052  0.0231
 3120W        W 7171   6.860   1.857   7.882 -0.0791 -0.1028 -0.0713
 3121W        W 7172   7.006   6.653   3.650  0.1041  0.0231  0.1084
 3122W        W 7173   9.640   8.555   9.494  0.1267  0.0868  0.3041
 3123W        W 7174   3.336   2.373  13.348 -0.0176 -0.0126 -0.2585
 3124W        W 7175   2.953   8.542   2.654 -0.0362  0.0719 -0.0475
 3125W        W 7176   8.776   2.331   9.175 -0.2367 -0.0328 -0.0123
 3126W        W 7177   7.264   3.414  10.971  0.3278 -0.0202  0.0021
 3127W        W 7178   1.253   6.054   3.164 -0.1159  0.1817 -0.2386
 3128W        W 7179   3.788   8.149  13.724 -0.3315  0.0091  0.0396
 3129W        W 7180   3.021   2.792  11.351  0.3134  0.1640 -0.0445
 3130W        W 7181   2.331   9.507   9.434 -0.1160 -0.0423  0.0215
 3131W        W 7182   6.726   5.359   2.481  0.3416 -0.2451  0.2699
 3132W        W 7183   7.190   8.934   1.716  0.1309  0.0329 -0.1204
 3133W        W 7184   3.525   9.121   4.434 -0.1694  0.0079  0.0994
 3134W        W 7185   5.496   8.918   0.208 -0.0447 -0.0380 -0.0618
 3135W        W 7186   8.281   6.720   1.417 -0.0191  0.3191  0.1466
 3136W        W 7187   0.583   1.006   2.968 -0.0742 -0.2239 -0.2486
 3137W        W 7188   5.002   7.958  11.924  0.4375 -0.1784  0.0904
 3138W        W 7189   9.704   5.854   4.896  0.0167 -0.0145  0.2249
 3139W        W 7190   5.334   8.669  13.434  0.1052  0.2263 -0.2244
 3140W        W 7191  10.117   4.594  11.895  0.0140  0.2762  0.1132
 3141W        W 7192   2.506   0.161  11.471 -0.0310  0.0662 -0.1548
 3142W        W 7193   4.929   0.848   1.340  0.0561  0.0113  0.0249
 3143W        W 7194   6.656   5.844  10.440  0.0033 -0.1024 -0.0612
 3144W        W 7195   3.467   2.246   1.823 -0.2271  0.1105  0.1088
 3145W        W 7196   0.674   6.930  11.753 -0.0368  0.0980  0.0237
 3146W        W 7197   5.590   9.652  13.710  0.0863  0.1100  0.1797
 3147W        W 7198   3.441   6.328   3.621  0.3514  0.3514 -0.0531
 3148W        W 7199   9.533   3.003  13.375 -0.2140  0.3866  0.2929
 3149W        W 7200   8.647   1.713  10.312 -0.0972  0.1716 -0.1316
 3150W        W 7201   9.212   1.361  13.821 -0.0304 -0.0534 -0.1626
 3151W        W 7202   3.050   9.776   3.049  0.1664 -0.0274 -0.0694
 3152W        W 7203   2.878   3.974  10.045 -0.2449 -0.0113  0.1980
 3153W        W 7204   8.728   7.393   0.629 -0.1418  0.0511 -0.3627
 3154W        W 7205   6.079   2.578  12.646 -0.0183  0.2603 -0.0202
 3155W        W 7206   8.264   5.101  11.952 -0.2702  0.0186  0.3349
 3156W        W 7207   7.769  10.008   3.026 -0.0636 -0.2643 -0.0472
 3157W        W 7208   2.870   2.023   5.392  0.1730 -0.2321 -0.0731
 3158W        W 7209   5.912   5.647  10.695  0.1267  0.2029  0.0038
 3159W        W 7210   4.695   8.781   4.243  0.1595  0.0758  0.4753
 3160W        W 7211   6.692   5.943   0.429  0.1845 -0.4084 -0.3497
 3161W        W 7212   1.957   4.157   0.253 -0.1929  0.2647  0.1249
 3162W        W 7213   9.776   3.733   3.574 -0.1665  0.5566 -0.0141
 3163W        W 7214   0.072   9.440   0.685  0.0816 -0.3053  0.3781
 3164W        W 7215   3.084   0.415   4.287 -0.0929 -0.3373 -0.0585
 3165W        W 7216   3.864   4.961   1.706  0.2566 -0.1406 -0.1295
 3166W        W 7217   0.041   0.036   3.405  0.2213  0.2512 -0.1028
 3167W        W 7218   7.224   6.700  12.762 -0.0589 -0.1383 -0.2608
 3168W        W 7219   5.361   4.597   1.223  0.3428 -0.0354 -0.1267
 3169W        W 7220   8.772   4.630  10.642  0.0076  0.1171  0.0038
 3170W        W 7221  10.058   4.059  11.260  0.3313 -0.0647 -0.2096
 3171W        W 7222   1.369   7.693   2.919  0.4571 -0.0999  0.1127
 3172W        W 7223   4.228   1.698  14.065 -0.0630  0.1252  0.1200
 3173W        W 7224   4.447   4.894   0.108 -0.0580 -0.2837  0.2828
 3174W        W 7225   4.748   8.339   8.311  0.1233 -0.0246 -0.3093
 3175W        W 7226   6.763   6.014   3.329 -0.0771 -0.2182 -0.0050
 3176W        W 7227   0.913   0.255   0.531  0.1142  0.3659 -0.0260
 3177W        W 7228   6.721   1.380  10.250 -0.1983  0.1843 -0.0102
 3178W        W 7229   1.205   9.927   1.461 -0.0759  0.0218  0.2949
 3179W        W 7230   4.631   7.539   3.557  0.2760 -0.0094  0.1778
 3180W        W 7231   1.136   6.325  10.575  0.1321  0.0060  0.0255
 3181W        W 7232   6.371   3.419  11.086 -0.0389  0.1458  0.3248
 3182W        W 7233   3.414   5.037   3.498  0.1029  0.0091 -0.2686
 3183W        W 7234   5.857   0.679   1.670 -0.1271  0.1933 -0.0709
 3184W        W 7235   1.409   4.950  13.008  0.0515  0.1598  0.2875
 3185W        W 7236   7.601   7.523  12.396 -0.0331  0.0428 -0.0239
 3186W        W 7237   3.292   4.453  13.471  0.0493  0.0039 -0.1055
 3187W        W 7238   7.250   8.682   3.167  0.0603 -0.0785 -0.0792
 3188W        W 7239   3.064   4.635   3.164 -0.1465 -0.1135 -0.0251
 3189W        W 7240   2.344   3.837   1.888  0.0522 -0.1458 -0.0473
 3190W        W 7241   3.488   5.781   3.825  0.2864 -0.2350  0.0695
 3191W        W 7242   9.949   3.900   9.238  0.0571  0.0681 -0.2359
 3192W        W 7243   6.989   4.175  13.941  0.1347  0.1330  0.0561
 3193W        W 7244   8.327   0.318   9.467 -0.2016 -0.0786  0.1596
 3194W        W 7245   6.142   6.955  11.523 -0.4395 -0.0714  0.2619
 3195W        W 7246   9.542   4.570   9.754  0.0165 -0.2455  0.0854
 3196W        W 7247   2.056   0.644   1.111  0.0107 -0.1019  0.0274
 3197W        W 7248   9.849   6.110   0.977 -0.1796 -0.0960 -0.2185
 3198W        W 7249   2.330   7.686   4.345 -0.2269 -0.0765 -0.0389
 3199W        W 7250   8.987   9.378  13.044  0.2104  0.1244  0.0574
 3200W        W 7251   6.945   0.617   0.001 -0.1020  0.3238 -0.1175
 3201W        W 7252   4.312   7.790   3.169 -0.2477  0.1079 -0.0182
 3202W        W 7253   3.769   4.467   0.394  0.1818 -0.0377  0.3565
 3203W        W 7254   9.820   6.253  13.951  0.2284  0.1568 -0.1847
 3204W        W 7255   3.607   7.589   0.473  0.0437 -0.0300 -0.0611
 3205W        W 7256   7.681   3.939  12.789 -0.0795 -0.0151 -0.4636
 3206W        W 7257   1.071   9.395   2.371 -0.3425  0.0938  0.0599
 3207W        W 7258   1.081   9.422  10.146  0.2100 -0.1515 -0.0474
 3208W        W 7259   0.122   8.763  12.994 -0.0534  0.1742  0.1356
 3209W        W 7260   0.255   5.233  12.108  0.1181  0.0188 -0.1431
 3210W        W 7261   1.231   3.707  13.023  0.0930 -0.1602  0.2547
 3211W        W 7262   3.461   4.851  12.277  0.1055  0.2907 -0.0261
 3212W        W 7263   8.677   4.277  12.859  0.0387 -0.1861 -0.0462
 3213W        W 7264   1.225   1.644   0.982  0.0824 -0.1564  0.1194
 3214W        W 7265   1.769   0.809  13.487  0.0898  0.3864 -0.0478
 3215W        W 7266   8.404   8.994   4.440  0.1487 -0.2395 -0.2401
 3216W        W 7267   9.782   7.645   3.334 -0.0037  0.4686 -0.0318
 3217W        W 7268   2.594   9.183  12.341  0.0073 -0.0643 -0.1599
 3218W        W 7269   2.392   7.785   0.089 -0.0028 -0.1328 -0.1414
 3219W        W 7270   3.802   3.238   1.686  0.1853  0.1944  0.0724
 3220W        W 7271   3.592   8.420   3.248  0.1012  0.0663 -0.1851
 3221W        W 7272   8.511   7.788   1.845  0.0433 -0.3369 -0.4935
 3222W        W 7273   8.947   3.437  11.097 -0.0808  0.1415 -0.0224
 3223W        W 7274   8.786   0.227  11.368 -0.0633  0.1680  0.0365
 3224W        W 7275   6.192   7.327  10.743  0.3421  0.1368 -0.1577
 3225W        W 7276   0.711   6.914   3.280  0.1978 -0.1680  0.2631
 3226W        W 7277   7.885   9.395   0.409  0.1862  0.1512  0.0015
 3227W        W 7278   0.365   6.013   2.869 -0.2241  0.2162 -0.1468
 3228W        W 7279   4.929   7.116  12.594 -0.4197 -0.2147  0.1501
 3229W        W 7280   6.997   6.864   2.279 -0.3626  0.0550  0.1886
 3230W        W 7281   7.806   9.580   1.558 -0.1551 -0.3336 -0.0922
 3231W        W 7282   2.172   8.596   1.390 -0.2814  0.0510 -0.0743
 3232W        W 7283   2.291   2.632  12.298 -0.1243 -0.0094  0.3115
 3233W        W 7284   3.713   5.349   2.583  0.0550 -0.0131 -0.4806
 3234W        W 7285   1.629   1.518   9.557 -0.1283 -0.2668 -0.0827
 3235W        W 7286   1.409   7.944   9.964 -0.2003 -0.1265 -0.1656
 3236W        W 7287   2.851   9.740  12.217  0.1631  0.0490 -0.3745
 3237W        W 7288   8.798   1.109   2.820 -0.2674  0.2220  0.0421
 3238W        W 7289   1.216   2.786  10.214  0.0188 -0.1699  0.0388
 3239W        W 7290   9.132   0.466  13.922  0.3563  0.0043  0.2261
 3240W        W 7291   4.415   0.275   0.712 -0.0586  0.2002  0.1571
 3241W        W 7292   3.664   7.132  10.639 -0.0327 -0.4299 -0.1184
 3242W        W 7293   5.043   1.221   2.642 -0.0456 -0.1418  0.0912
 3243W        W 7294   3.166   5.068  10.704 -0.0712  0.1566 -0.3233
 3244W        W 7295   8.335   0.771   2.152  0.0328  0.2202 -0.1415
 3245W        W 7296   9.880   4.701   2.992 -0.0075 -0.1638  0.1084
 3246W        W 7297   3.411   5.842  10.934 -0.2646 -0.0604 -0.3470
 3247W        W 7298   2.422   6.875  12.436  0.1848 -0.1585  0.0766
 3248W        W 7299   2.944   3.113  12.961 -0.1688 -0.1146 -0.1072
 3249W        W 7300   3.380   8.500  13.668 -0.1793  0.2302 -0.2411
 3250W        W 7301   8.931   9.199   9.690 -0.2178 -0.1099  0.2563
 3251W        W 7302  10.038   4.521   9.801 -0.3400 -0.1924  0.2570
 3252W        W 7303   4.277   9.165   0.971  0.2235  0.0514  0.1553
 3253W        W 7304   6.793   7.678   9.829  0.4391 -0.0704 -0.0131
 3254W        W 7305   5.448   8.406  10.640  0.1092 -0.0040 -0.3263
 3255W        W 7306  10.112   1.995  11.284  0.0623 -0.2890 -0.2027
 3256W        W 7307   5.241   8.105   2.745  0.2288 -0.3088  0.1095
 3257W        W 7308   2.266   0.488  12.698  0.2408 -0.1307 -0.1722
 3258W        W 7309   6.630   9.887  13.198 -0.0545 -0.2260  0.0097
 3259W        W 7310   3.684   4.419  13.145 -0.2109  0.2800 -0.1658
 3260W        W 7311   0.345   7.984   0.373 -0.1402  0.1315 -0.1644
 3261W        W 7312   7.657   1.727   1.928  0.1721  0.1604 -0.3216
 3262W        W 7313   4.292   9.219   5.075  0.0944 -0.2715 -0.3503
 3263W        W 7314   0.255   2.016   0.562 -0.1555  0.0615 -0.0857
 3264W        W 7315   3.683   3.855   0.481  0.0373  0.0864 -0.1270
 3265W        W 7316   7.873   6.807   9.866  0.0851  0.3381  0.0026
 3266W        W 7317   2.839   7.540   0.365 -0.0791 -0.3008  0.0017
 3267W        W 7318   4.242   6.811  11.571 -0.4945  0.0328 -0.1254
 3268W        W 7319   1.433   9.790   4.227  0.2425 -0.1925 -0.1244
 3269W        W 7320   4.889   2.664   1.710  0.3503  0.0387 -0.1912
 3270W        W 7321   8.070   8.835  13.308  0.0999  0.0953  0.3247
 3271W        W 7322   1.438   5.621   8.833  0.1658  0.0242  0.1595
 3272W        W 7323   9.222   1.920   0.380 -0.0525  0.0493  0.1418
 3273W        W 7324   7.099   7.840   2.621 -0.2194 -0.0796  0.1200
 3274W        W 7325   1.429   5.791   9.931  0.0598  0.1046  0.2305
 3275W        W 7326   8.176   7.335  11.258 -0.2741 -0.4369 -0.1666
 3276W        W 7327   9.678   5.417   1.956 -0.0336 -0.2121 -0.3011
 3277W        W 7328   6.609   9.333  11.139 -0.1983 -0.2920 -0.0204
 3278W        W 7329   5.533   1.766   2.106 -0.1488  0.0842  0.2005
 3279W        W 7330   1.308   1.670  13.878  0.2122  0.0898 -0.0793
 3280W        W 7331   9.846   3.212  12.979  0.2762 -0.1581  0.0211
 3281W        W 7332   6.341   0.579   9.948 -0.0263 -0.1776 -0.0703
 3282W        W 7333   4.807   7.204  10.680 -0.0575  0.0354 -0.0257
 3283W        W 7334   7.491   7.568  10.460  0.2719  0.1939  0.1280
 3284W        W 7335   2.578   2.382   9.931 -0.1430 -0.1424 -0.2833
 3285W        W 7336   2.990   9.047   4.835  0.3569  0.1876  0.0351
 3286W        W 7337   1.793   8.407  10.182  0.1634  0.0267 -0.0606
 3287W        W 7338   3.186   0.726   1.035 -0.1113  0.1137 -0.1907
 3288W        W 7339   8.498   7.212   4.240  0.1388 -0.2594  0.2140
 3289W        W 7340   1.682   9.404  10.272  0.0481  0.3281 -0.2498
 3290W        W 7341  10.044   1.789   9.394 -0.0426 -0.2328  0.0748
 3291W        W 7342   5.276   0.281  12.087  0.1548  0.0899  0.0333
 3292W        W 7343   8.644   5.308   1.294 -0.0453 -0.4175 -0.1449
 3293W        W 7344   4.378   7.026   5.016 -0.1197  0.2405 -0.0060
 3294W        W 7345   5.716   0.500   2.751  0.3101 -0.0759 -0.1842
 3295W        W 7346   8.551   0.894   0.320 -0.1058  0.1658  0.0494
 3296W        W 7347   8.249   4.155  11.388 -0.2930  0.0656  0.0004
 3297W        W 7348   7.297  10.000   0.848 -0.0566 -0.2912 -0.1456
 3298W        W 7349   4.028   2.905  12.385 -0.1951  0.0590  0.1145
 3299W        W 7350   8.368   6.236   1.391  0.0835  0.0412 -0.3440
 3300W        W 7351   0.296   5.609  12.969 -0.1356  0.2554 -0.2129
 3301W        W 7352   6.347   3.156  11.813  0.1459 -0.1713  0.1864
 3302W        W 7353   0.956   1.115   1.832 -0.2600 -0.1053  0.1089
 3303W        W 7354   6.664   5.250  10.381 -0.3877  0.0768  0.1453
 3304W        W 7355   6.797   4.418   0.351 -0.0228  0.2077 -0.0702
 3305W        W 7356   1.206   9.175   1.364 -0.0816  0.0654  0.1280
 3306W        W 7357   2.884  10.142   3.673 -0.0870  0.0638 -0.2904
 3307W        W 7358   6.501   6.007  11.146  0.0218  0.0495  0.1328
 3308W        W 7359   6.499   0.100  12.059 -0.0799 -0.1049 -0.0285
 3309W        W 7360   6.614   2.238  10.779  0.0011 -0.0882  0.1463
 3310W        W 7361   1.357   6.981   1.909 -0.0676 -0.1223 -0.1197
 3311W        W 7362   9.995   1.065   5.309  0.0332 -0.0503 -0.0007
 3312W        W 7363   8.850   6.870   4.291  0.0157 -0.0774 -0.2690
 3313W        W 7364   0.313   5.389   1.783 -0.2613  0.4486 -0.0709
 3314W        W 7365   1.051   6.333   1.666 -0.0731  0.0526  0.0352
 3315W        W 7366   7.879   1.530   2.344  0.0005 -0.0903 -0.0872
 3316W        W 7367   3.808   3.013   9.831  0.0292  0.3027 -0.0056
 3317W        W 7368   6.688   2.387   2.483  0.2742  0.2765 -0.1877
 3318W        W 7369   2.243  10.106   9.750  0.0258 -0.1854  0.3217
 3319W        W 7370   4.784   5.000   1.743 -0.1785  0.1073  0.1949
 3320W        W 7371   1.085   7.443  13.104  0.1380  0.0259 -0.1459
 3321W        W 7372   7.298   9.782   2.925 -0.1346  0.1288  0.1931
 3322W        W 7373   4.427   6.208  10.012  0.0026  0.0005  0.0852
 3323W        W 7374   1.052   0.731  13.712  0.3304 -0.1843 -0.0723
 3324W        W 7375   3.266   5.698  13.869  0.0043  0.0877  0.2611
 3325W        W 7376   9.778   2.740   8.888  0.1316  0.0429 -0.2319
 3326W        W 7377   6.946   3.355  14.047 -0.2273  0.3604 -0.2333
 3327W        W 7378   4.651   5.194   4.828  0.1528 -0.3704 -0.1682
 3328W        W 7379   6.530   2.121  12.143  0.3496 -0.1076  0.0249
 3329W        W 7380   1.081   6.680  13.363  0.1228 -0.2972  0.2629
 3330W        W 7381   0.846   5.633  13.645  0.1908  0.0074 -0.0512
 3331W        W 7382   0.736   2.890   1.679 -0.0009  0.1182 -0.2559
 3332W        W 7383   1.554   9.521   3.827  0.4317  0.0511 -0.0018
 3333W        W 7384   8.966   2.821   3.554  0.0819  0.1083 -0.0759
 3334W        W 7385   5.872   0.040   0.903 -0.2031 -0.1127  0.2201
 3335W        W 7386   3.599   1.593   1.069 -0.2147 -0.1699  0.3389
 3336W        W 7387   9.202   4.188   9.604  0.2730  0.1609  0.2644
 3337W        W 7388   9.051   8.069   3.129 -0.0628  0.0378 -0.2121
 3338W        W 7389   1.628   3.868   3.162  0.1198 -0.1675  0.0804
 3339W        W 7390   8.729   3.490  13.574  0.0912 -0.1266 -0.2204
 3340W        W 7391   0.494   4.940  11.246 -0.0327  0.0848  0.0902
 3341W        W 7392   6.942   4.953   5.131 -0.1155  0.0445 -0.2464
 3342W        W 7393   2.421   9.579   8.947 -0.0281  0.0276 -0.4113
 3343W        W 7394   1.187   9.834  13.612  0.0381  0.2957  0.1278
 3344W        W 7395   4.416   4.940  11.795  0.0328 -0.1402  0.0826
 3345W        W 7396   7.259   4.464  12.128  0.0821 -0.0593 -0.0575
 3346W        W 7397   4.056   4.599  10.309  0.1734 -0.2784  0.1748
 3347W        W 7398   5.614   6.922   3.680 -0.2050 -0.1992 -0.1614
 3348W        W 7399   2.475   5.013  13.292 -0.1603 -0.1345 -0.0264
 3349W        W 7400   0.692   3.158  11.965 -0.1502 -0.3065 -0.0421
 3350W        W 7401   3.885   7.265   0.801 -0.0751 -0.0982 -0.0215
 3351W        W 7402   5.144   6.854  13.082  0.4569  0.0535  0.1292
 3352W        W 7403   2.506   5.553   3.019  0.1774 -0.2768  0.0756
 3353W        W 7404   6.047   6.248  10.229  0.1119 -0.2681  0.1676
 3354W        W 7405   9.414   3.173   0.015 -0.1376 -0.0569  0.2647
 3355W        W 7406   2.431  10.141  12.067  0.1352  0.1301  0.2316
 3356W        W 7407   3.128   9.321   0.502 -0.0105 -0.1042 -0.3166
 3357W        W 7408   0.534   8.073   3.762  0.2273  0.0843 -0.1702
 3358W        W 7409   4.436   3.289   2.230 -0.0731 -0.3583 -0.1517
 3359W        W 7410   3.133   0.864   8.998 -0.4502  0.2730 -0.1470
 3360W        W 7411   3.204   4.087   9.628 -0.1272 -0.2103 -0.1911
 3361W        W 7412   8.503   0.035  10.778  0.0563  0.2718  0.0015
 3362W        W 7413   3.407   3.211   0.175 -0.1553 -0.2257 -0.1538
 3363W        W 7414   0.566   5.917  13.937 -0.1484 -0.1238 -0.4987
 3364W        W 7415   6.089   8.747  13.649  0.3984  0.0745  0.3745
 3365W        W 7416   1.418   2.196  12.332  0.0307  0.0124  0.0567
 3366W        W 7417   2.634   1.123   3.864  0.1404  0.1143  0.1148
 3367W        W 7418   6.653   7.012  11.450 -0.1827  0.0294  0.0155
 3368W        W 7419   3.827   6.282   2.015 -0.1038 -0.2122  0.0389
 3369W        W 7420   7.651   9.678   4.226  0.2453  0.0962  0.0983
 3370W        W 7421   5.050   6.387  12.046 -0.0138  0.0849 -0.1331
 3371W        W 7422   0.650   2.838   9.520 -0.0000  0.0714 -0.1549
 3372W        W 7423   5.639   1.639  13.852  0.1329  0.0506 -0.1714
 3373W        W 7424   8.676   8.424   3.071  0.1598  0.1846  0.1487
 3374W        W 7425   4.701   7.754  11.500  0.1683 -0.1420  0.1967
 3375W        W 7426   7.497   7.888  12.821 -0.1578  0.0983  0.0207
 3376W        W 7427   5.324   5.849  13.296 -0.2121 -0.1139  0.2008
 3377W        W 7428   7.165   6.503   1.943 -0.0162  0.0760 -0.2630
 3378W        W 7429   8.701   6.740   1.165 -0.3589 -0.1922  0.3837
 3379W        W 7430   7.153   3.356   0.436 -0.1021  0.0017 -0.1882
 3380W        W 7431   1.424   5.974   3.989 -0.1029 -0.2555 -0.3643
 3381W        W 7432   6.840   2.636   2.957 -0.1915  0.1506 -0.1887
 3382W        W 7433   8.621   5.933  11.202  0.0434 -0.3082 -0.2289
 3383W        W 7434   6.126   7.678   0.948  0.1460  0.2341  0.0207
 3384W        W 7435   9.070   9.323   3.015  0.3845  0.2317  0.0131
 3385W        W 7436   7.317   7.796   9.991  0.0565  0.1012  0.1325
 3386W        W 7437   5.140   1.364   2.104  0.0204 -0.2282  0.0719
 3387W        W 7438   3.186   3.224  12.514  0.2078 -0.0089 -0.4997
 3388W        W 7439   4.927   2.456   2.171 -0.0344  0.0962 -0.2059
 3389W        W 7440   1.831   2.424  13.598 -0.2545 -0.2106  0.2223
 3390W        W 7441   0.784   5.719   3.118  0.2974  0.0827 -0.0906
 3391W        W 7442   7.846   5.146   0.348  0.0341  0.0457 -0.0372
 3392W        W 7443   6.695   8.877   3.796  0.2115  0.0228  0.4576
 3393W        W 7444   5.970   3.646  12.596  0.1185 -0.0451  0.2910
 3394W        W 7445   2.082   8.741  13.340  0.0894 -0.1099  0.2781
 3395W        W 7446   8.736   8.525   1.485 -0.1907  0.0954  0.0938
 3396W        W 7447   2.370   9.097  13.278  0.3030 -0.1118 -0.1970
 3397W        W 7448   1.756   9.089  11.128 -0.0037  0.0629  0.1129
 3398W        W 7449   7.647   6.039   2.101 -0.0662  0.0484  0.1884
 3399W        W 7450   8.182   5.014   1.320 -0.0916 -0.0287  0.0983
 3400W        W 7451   8.656   2.987   2.268  0.2722  0.0456  0.2791
 3401W        W 7452   3.611   3.174  12.721  0.0977 -0.0946  0.0515
 3402W        W 7453   5.009   5.147   2.178  0.0877 -0.0182  0.1898
 3403W        W 7454   4.302   1.945  10.942  0.3543  0.0465  0.1597
 3404W        W 7455   1.055   9.673  12.534 -0.0682 -0.1985  0.0090
 3405W        W 7456   8.772   7.897   2.794 -0.0240 -0.1177 -0.0067
 3406W        W 7457   4.857   4.439   3.678 -0.2879 -0.1832  0.1523
 3407W        W 7458   2.030   9.699   8.668 -0.0612  0.2047 -0.0563
 3408W        W 7459   9.660   6.776   4.203 -0.0249  0.1224 -0.0985
 3409W        W 7460   7.781   2.869   2.680 -0.4667 -0.2052  0.0767
 3410W        W 7461   2.059   0.787  13.052 -0.4107  0.2282  0.0783
 3411W        W 7462   5.758   6.114   9.786 -0.1745 -0.2420 -0.0824
 3412W        W 7463   3.211   7.548  11.469  0.1554 -0.0469  0.1374
 3413W        W 7464   0.647   9.274   5.221  0.2470 -0.0710 -0.0674
 3414W        W 7465   4.764   8.930   3.134  0.0467 -0.2767  0.1361
 3415W        W 7466   3.530   8.790  10.583  0.0866  0.1525  0.1616
 3416W        W 7467   4.830   1.713   1.690  0.1352  0.0872  0.2199
 3417W        W 7468   6.862   9.835   1.794 -0.3337  0.2845  0.0066
 3418W        W 7469   8.266   4.565   9.279  0.0272  0.0353 -0.0230
 3419W        W 7470   9.163   7.459   3.847 -0.1128  0.0585 -0.0634
 3420W        W 7471   0.261   9.710  13.453 -0.0373  0.3680 -0.3635
 3421W        W 7472   7.809   5.053  13.706 -0.1800 -0.0041 -0.0130
 3422W        W 7473   9.657   9.556   0.534  0.0499 -0.1928  0.0174
 3423W        W 7474   9.584   0.406  12.013 -0.2829  0.0815  0.3902
 3424W        W 7475   8.748   0.196  11.899 -0.1224  0.0233  0.0348
 3425W        W 7476   4.169   2.776  11.376  0.2480 -0.3517  0.0961
 3426W        W 7477   8.897   8.127  12.344 -0.0010  0.0114 -0.0258
 3427W        W 7478  10.006   9.215   3.449 -0.0991 -0.2048 -0.0835
 3428W        W 7479   6.255   9.154  12.709  0.2050 -0.1615  0.0271
 3429W        W 7480   3.838   6.603  10.740 -0.0584 -0.0271  0.2056
 3430W        W 7481   2.214   5.066  11.838  0.0138 -0.0274  0.1351
 3431W        W 7482   9.225   9.449  12.598 -0.1687  0.0064  0.0633
 3432W        W 7483   9.798   0.968   0.226  0.1771 -0.1962  0.0463
 3433W        W 7484   4.107   8.752  11.339  0.0039 -0.0705 -0.0887
 3434W        W 7485   0.667   7.437  12.782 -0.1479  0.1340 -0.1370
 3435W        W 7486   3.434   2.601   0.735 -0.1938  0.0401  0.0848
 3436W        W 7487   2.333   1.578  11.478  0.0233  0.1389  0.3002
 3437W        W 7488   8.901   5.344   3.305 -0.3062 -0.1268  0.1549
 3438W        W 7489   3.955   7.867   5.351 -0.4226  0.1490 -0.1226
 3439W        W 7490   4.423   7.315  11.056  0.1829  0.3799  0.0587
 3440W        W 7491   8.773   7.839   0.478  0.2659  0.2331 -0.0065
 3441W        W 7492   5.925   6.160   3.509  0.1474  0.1477  0.2037
 3442W        W 7493   5.428   6.521   0.472  0.0714 -0.1487 -0.0176
 3443W        W 7494   7.511   9.313  12.668 -0.1165 -0.1578 -0.1742
 3444W        W 7495   8.502   7.270  13.792  0.0454 -0.1526 -0.1788
 3445W        W 7496   2.571   4.659   3.902 -0.0339 -0.0886  0.0362
 3446W        W 7497   4.705   6.660  11.719 -0.0944 -0.0248  0.0109
 3447W        W 7498   3.083   8.478   3.150  0.0534  0.0604  0.0747
 3448W        W 7499   6.185   6.515  11.205 -0.0210 -0.2162  0.2408
 3449W        W 7500   1.697   0.324   0.972  0.2808 -0.0888  0.0383
 3450W        W 7501   2.150   2.441   1.108 -0.1395 -0.2868  0.0076
 3451W        W 7502   1.129   3.400  11.566 -0.1313  0.1575 -0.0216
 3452W        W 7503   6.285   1.007  11.997  0.1392  0.3581 -0.3631
 3453W        W 7504   1.213   5.151   9.658  0.2375  0.3508 -0.0966
 3454W        W 7505   5.605   7.963   2.112 -0.2089 -0.2468 -0.2211
 3455W        W 7506   7.386   4.367   1.141 -0.2048 -0.0477 -0.1640
 3456W        W 7507   9.797   9.897  11.740 -0.0765 -0.0929 -0.0205
 3457W        W 7508   1.550   5.519  11.137 -0.0387 -0.0721  0.0680
 3458W        W 7509   4.286   0.080  12.897 -0.0126 -0.1977 -0.1272
 3459W        W 7510   4.079   4.515   1.748  0.0627  0.3520  0.2630
 3460W        W 7511   8.375   5.291   2.185  0.1000  0.0157  0.1560
 3461W        W 7512   2.206   8.025   2.745  0.1055  0.1367  0.0296
 3462W        W 7513   6.558   6.210  13.758 -0.0847  0.0900 -0.0348
 3463W        W 7514   9.099   8.027  12.788  0.3317 -0.0231  0.2212
 3464W        W 7515   8.293   4.814   9.753 -0.2455 -0.1125  0.0409
 3465W        W 7516   2.973   8.801   1.697 -0.1188 -0.1539 -0.0024
 3466W        W 7517   8.398   1.632   1.412 -0.0044  0.1431 -0.1088
 3467W        W 7518   1.717   1.749   1.778 -0.0778  0.2654  0.2289
 3468W        W 7519   5.147   5.535   2.635  0.1425  0.0753 -0.0621
 3469W        W 7520   2.885   0.764  10.560  0.1801  0.0230  0.1365
 3470W        W 7521   5.984   2.362  12.169 -0.1437 -0.2645 -0.1264
 3471W        W 7522   5.221   0.791   0.861  0.2617  0.2565  0.0485
 3472W        W 7523   7.021   6.623  11.418 -0.0904  0.5139  0.0843
 3473W        W 7524   7.597   5.425  10.308  0.1347 -0.0726 -0.1247
 3474W        W 7525   8.096   7.871   1.552 -0.0210  0.2157  0.0786
 3475W        W 7526   0.980  10.058   4.420 -0.1500  0.0990 -0.0945
 3476W        W 7527   7.418   4.434  13.443 -0.3201 -0.1278 -0.0274
 3477W        W 7528   8.578   1.139   1.276  0.3433  0.2199 -0.1981
 3478W        W 7529   5.624   1.236   0.738  0.1905 -0.0112 -0.6332
 3479W        W 7530   1.886   6.203   1.362 -0.0825  0.3267  0.0658
 3480W        W 7531   1.878   0.341   4.640  0.0535 -0.0729  0.0313
 3481W        W 7532   2.854   0.083   2.951  0.1074 -0.1319  0.2759
 3482W        W 7533   4.924   0.560  11.253 -0.0990 -0.1830  0.1199
 3483W        W 7534   5.276   8.154  13.202 -0.1863 -0.0733  0.0041
 3484W        W 7535   0.719   2.723   0.638  0.0352  0.4541 -0.1555
 3485W        W 7536   3.295   2.131   4.685  0.2870  0.3483  0.1797
 3486W        W 7537   6.833   2.169   1.644  0.2399  0.4068  0.4126
 3487W        W 7538   2.162   3.077   2.960 -0.4663  0.2377  0.0079
 3488W        W 7539   0.526   8.537   0.696 -0.6538 -0.0241 -0.0581
 3489W        W 7540   4.845   5.495  10.528  0.1723  0.2533  0.1690
 3490W        W 7541   2.331   4.473  11.694 -0.2693  0.1751  0.1323
 3491W        W 7542   2.741   8.661  10.554 -0.2464 -0.2274 -0.1212
 3492W        W 7543   3.855   4.696  11.742 -0.0938  0.3405 -0.0689
 3493W        W 7544   9.585   7.136   9.390 -0.2011  0.2301  0.1072
 3494W        W 7545   3.884   4.098   1.943  0.0855  0.0264  0.3314
 3495W        W 7546   1.857   6.112   1.889  0.4609 -0.1790 -0.1761
 3496W        W 7547   6.018   6.616   9.011  0.2884 -0.0771  0.0454
 3497W        W 7548   2.000   8.772   0.923  0.1058  0.2491  0.1585
 3498W        W 7549   7.036   2.493  11.989 -0.1000 -0.1651 -0.0954
 3499W        W 7550   8.294   3.329  12.941  0.3145  0.2157 -0.1997
 3500W        W 7551   0.215   3.283   0.252 -0.0924 -0.1036  0.0166
 3501W        W 7552   8.695   9.497  11.571  0.0764  0.2758  0.1015
 3502W        W 7553   6.509   1.865  11.097  0.0756  0.2407 -0.3607
 3503W        W 7554   2.901   4.817   2.640 -0.1043  0.1567  0.1597
 3504W        W 7555   9.876   3.722  11.565 -0.3650  0.1761 -0.1182
 3505W        W 7556   4.329   9.699   9.789 -0.1301  0.3873 -0.1334
 3506W        W 7557   4.734   3.950   1.351 -0.1610  0.0161 -0.1426
 3507W        W 7558   4.181   8.920   2.420  0.1211  0.0390  0.2612
 3508W        W 7559   6.534   9.468   1.086 -0.4160  0.2518  0.2223
 3509W        W 7560  10.021   5.788  13.541 -0.0613  0.0108 -0.2209
 3510W        W 7561   9.407   0.020   4.594  0.0757 -0.0711 -0.3652
 3511W        W 7562   7.105   5.645  10.396  0.0817  0.2476  0.0760
 3512W        W 7563   3.612   9.839   9.486  0.0153  0.1297  0.0150
 3513W        W 7564   2.856   9.399   0.941 -0.0293 -0.3957 -0.2692
 3514W        W 7565   4.544   7.088   3.664 -0.0777  0.0740  0.4366
 3515W        W 7566   6.793   7.389  11.757  0.0678  0.3940 -0.0992
 3516W        W 7567   9.616   2.026  12.931 -0.0488 -0.3643  0.0965
 3517W        W 7568   2.123   2.696  13.847 -0.1776  0.0614  0.0228
 3518W        W 7569   6.790   9.150   0.230 -0.0693 -0.3249  0.2167
 3519W        W 7570   0.753   2.973   9.063 -0.0334 -0.1037  0.0423
 3520W        W 7571   7.766   5.693   1.747  0.2744  0.0160  0.0340
 3521W        W 7572   2.102   7.652  13.776 -0.0317  0.1955  0.2095
 3522W        W 7573   6.874   4.336   3.566 -0.1654 -0.2255  0.1338
 3523W        W 7574   2.827   2.883   4.124 -0.2173  0.0383 -0.3399
 3524W        W 7575   7.278   5.630   2.553  0.2199  0.3875  0.1826
 3525W        W 7576   6.839   2.265  13.668 -0.2961  0.0002 -0.1812
 3526W        W 7577   9.824   4.235   3.280 -0.1402  0.1039  0.3163
 3527W        W 7578   1.852   5.215   8.761  0.1937 -0.0707  0.1168
 3528W        W 7579   2.118   1.256   0.238  0.0275  0.0904 -0.1379
 3529W        W 7580   0.690   5.007  12.242  0.2285 -0.1922 -0.1986
 3530W        W 7581   4.129   3.111   0.561 -0.1394 -0.4702  0.0384
 3531W        W 7582   2.819   3.238   0.226  0.2014 -0.1337 -0.2489
 3532W        W 7583   8.028   9.089   1.674 -0.2042 -0.0837 -0.1508
 3533W        W 7584   0.446   0.561   0.506 -0.0051  0.0579  0.1412
 3534W        W 7585   6.329   6.446   9.435  0.0656  0.2152  0.1501
 3535W        W 7586   3.012   8.342   1.971  0.2372 -0.0299 -0.4362
 3536W        W 7587   2.792   9.237   2.151 -0.0205 -0.1080 -0.1948
 3537W        W 7588   6.766   1.530   3.284  0.0792 -0.1262  0.1179
 3538W        W 7589   7.098   7.145  10.493 -0.0882  0.1814 -0.3263
 3539W        W 7590   3.781   4.145  13.622 -0.0055 -0.0114  0.1976
 3540W        W 7591   4.591   9.599  10.825 -0.4117  0.1470 -0.1512
 3541W        W 7592   5.960   6.588   3.096 -0.3654 -0.2125 -0.2187
 3542W        W 7593   6.742   4.687  10.554  0.0955  0.1370  0.2487
 3543W        W 7594   0.200   9.268  13.100 -0.3504  0.0946  0.0050
 3544W        W 7595   3.920   9.938   9.854  0.3535 -0.1496 -0.3145
 3545W        W 7596   5.562   3.859   2.388 -0.3599  0.1518  0.2404
 3546W        W 7597  10.023   7.764  10.800  0.0776  0.1847  0.0677
 3547W        W 7598   0.054   6.316   3.485  0.1980  0.0582  0.3030
 3548W        W 7599   0.289   3.808  13.535  0.0795  0.1062 -0.0819
 3549W        W 7600   9.967   6.316   4.925 -0.1044  0.0366 -0.1485
 3550W        W 7601   1.407   9.293   4.741 -0.1645  0.1783  0.0592
 3551W        W 7602   7.316   1.214   0.777  0.0689  0.1737  0.1372
 3552W        W 7603   7.888   2.634  12.032  0.0920 -0.0749  0.3991
 3553W        W 7604   2.045   5.744   9.771  0.2092  0.4442  0.0529
 3554W        W 7605   6.318   8.953   3.406  0.1971 -0.5122  0.0422
 3555W        W 7606   7.283   3.463   3.639 -0.2785  0.0254  0.1596
 3556W        W 7607   0.414   2.618  12.456 -0.0916  0.1704  0.0713
 3557W        W 7608   2.640   5.790  10.533 -0.0977 -0.1401  0.0087
 3558W        W 7609   0.875   8.956  13.142 -0.1308 -0.1292  0.2261
 3559W        W 7610   6.894   4.633  13.808  0.1756  0.0804  0.0682
 3560W        W 7611   6.411   2.012  13.788  0.0862  0.0667  0.2003
 3561W        W 7612   3.501   6.008   0.554 -0.0201 -0.1510 -0.1164
 3562W        W 7613   0.677   0.007   8.583 -0.3024  0.1580  0.1023
 3563W        W 7614   5.910   7.574   2.205 -0.1520  0.1062  0.2885
 3564W        W 7615   5.388   7.297  12.821 -0.1572 -0.0893 -0.1273
 3565W        W 7616   2.026   4.843  12.694 -0.1800  0.3005  0.1663
 3566W        W 7617   1.879   1.122   9.209  0.2568 -0.2049  0.1014
 3567W        W 7618   3.535   1.406  13.697 -0.2388  0.0506  0.0281
 3568W        W 7619  10.130   0.686   9.883  0.0876 -0.1895  0.0843
 3569W        W 7620   8.225   2.675   2.944  0.2044 -0.0504  0.2965
 3570W        W 7621   9.600   2.700  13.778  0.0700  0.0685  0.2417
 3571W        W 7622   9.569   1.049  13.263  0.0472  0.0131 -0.1032
 3572W        W 7623   2.342   0.325  13.223  0.3237  0.2476  0.4583
 3573W        W 7624   9.931   8.216  11.163 -0.0599  0.3335 -0.2658
 3574W        W 7625   1.728  10.074   9.564  0.2134 -0.0030  0.3611
 3575W        W 7626   8.953   2.233  12.198 -0.0430  0.0167 -0.1018
 3576W        W 7627   9.311   1.431  11.959  0.1795  0.2310  0.0020
 3577W        W 7628   2.189   3.216  10.932 -0.1821 -0.0257 -0.0236
 3578W        W 7629   6.714   0.024   3.650 -0.0920 -0.2052 -0.1867
 3579W        W 7630   6.184   3.718   0.767 -0.0198  0.1396 -0.1333
 3580W        W 7631   1.118   3.552   3.687 -0.2844  0.2787 -0.3025
 3581W        W 7632   1.641   3.957   4.549  0.0916 -0.1578  0.1879
 3582W        W 7633   8.821   8.651   2.396 -0.1147  0.3106 -0.0596
 3583W        W 7634   9.492   4.707  11.911  0.1798  0.0515 -0.3408
 3584W        W 7635   2.988   8.414  13.352  0.0260 -0.1776 -0.2906
 3585W        W 7636   4.373   2.243   0.182 -0.1030 -0.0838  0.0592
 3586W        W 7637   9.578   8.137  14.032 -0.1832 -0.0510  0.0807
 3587W        W 7638   1.156   5.246   1.807  0.1304 -0.0863 -0.0388
 3588W        W 7639   5.315   6.034   3.744  0.0545  0.0483 -0.2931
 3589W        W 7640   7.006   3.134  13.051 -0.1163 -0.0317 -0.2812
 3590W        W 7641   6.675   6.703  12.847  0.2663 -0.3034 -0.4507
 3591W        W 7642   8.117   7.716   3.979  0.0023  0.0868  0.1349
 3592W        W 7643   3.771   8.216   1.178 -0.0838 -0.0478 -0.0486
 3593W        W 7644   1.226   4.766  13.980  0.0196  0.0516  0.0228
 3594W        W 7645   3.469   1.730   2.116  0.1757  0.0358 -0.0807
 3595W        W 7646   5.274   2.229   1.580 -0.2235 -0.1575 -0.2446
 3596W        W 7647   8.507   7.684   8.899 -0.0523  0.2945 -0.0237
 3597W        W 7648   1.622   8.637  11.366 -0.1829  0.5817  0.1715
 3598W        W 7649   6.711   5.892  12.344 -0.0069  0.1563  0.1643
 3599W        W 7650   9.900   4.995  12.059  0.0390  0.0206 -0.1680
 3600W        W 7651   4.584   6.070   3.510 -0.1776  0.0582  0.0003
 3601W        W 7652   2.807   6.113   2.320  0.0731 -0.2222  0.1094
 3602W        W 7653   9.362   3.164  11.017  0.0150  0.0823 -0.0937
 3603W        W 7654   7.415   8.477   1.770  0.1928  0.1485  0.2650
 3604W        W 7655   5.219   7.248   9.372 -0.0061 -0.1636  0.2109
 3605W        W 7656   5.046   9.385   2.462 -0.0263  0.1116  0.1818
 3606W        W 7657   8.886   8.021   9.016  0.0948 -0.1199 -0.0425
 3607W        W 7658   8.642   7.620   3.966  0.0412 -0.1402 -0.1209
 3608W        W 7659   1.393   2.495  10.688  0.2193 -0.1748 -0.1231
 3609W        W 7660   2.529   3.003  13.847 -0.0640  0.2917  0.2824
 3610W        W 7661   5.989   8.329   0.880  0.3188 -0.3382  0.1063
 3611W        W 7662   6.057   8.274   9.919 -0.0269 -0.1727  0.1792
 3612W        W 7663   4.420   2.949   0.945 -0.0886 -0.1629 -0.1877
 3613W        W 7664   8.258   7.636  11.717 -0.2271  0.0868  0.0904
 3614W        W 7665   0.319   7.617   1.127  0.0855 -0.3929 -0.0823
 3615W        W 7666   0.068   9.043   0.224 -0.1303 -0.3415  0.0371
 3616W        W 7667   8.731   2.417  13.120 -0.2866 -0.0623 -0.0145
 3617W        W 7668   1.542   0.330   9.254  0.0688  0.2605  0.1618
 3618W        W 7669   5.760   0.439  12.295  0.1125 -0.1279 -0.1599
 3619W        W 7670   6.011   7.566   5.733 -0.4495  0.1740 -0.1092
 3620W        W 7671   9.594   3.186   1.164  0.0507 -0.0233 -0.1465
 3621W        W 7672   9.428   1.584  10.615  0.2851  0.0106  0.0102
 3622W        W 7673   9.424   4.606  13.456  0.2900  0.0847  0.0795
 3623W        W 7674   1.840   8.450  10.700  0.1428  0.1071  0.2604
 3624W        W 7675   0.221   4.935   2.450 -0.2989  0.2012  0.0621
 3625W        W 7676   5.195   5.886   0.949 -0.1880 -0.1750  0.0200
 3626W        W 7677   2.310   3.350   0.834  0.3039 -0.0688  0.1945
 3627W        W 7678   9.408   6.667  12.907 -0.0665  0.0806 -0.0200
 3628W        W 7679   7.991   7.007   1.930  0.2420  0.0952  0.0491
 3629W        W 7680   5.411   7.456   0.318  0.0297 -0.0121 -0.0722
 3630W        W 7681   1.780   4.890   3.709  0.3127  0.1781 -0.3515
 3631W        W 7682   9.195   7.554   1.644  0.1540 -0.1591  0.1250
 3632W        W 7683   2.860   9.329   3.284 -0.2211 -0.0640  0.0924
 3633W        W 7684   2.558   9.034   9.222 -0.1603  0.1198  0.1361
 3634W        W 7685   1.816   7.966   3.066  0.4931  0.1064  0.2019
 3635W        W 7686   4.666   5.640   2.712  0.0412 -0.0524  0.0062
 3636W        W 7687   8.385   7.822  10.904  0.0660  0.0292 -0.2990
 3637W        W 7688   0.842   9.012   1.013  0.1751 -0.1137 -0.0602
 3638W        W 7689   2.421   9.749   0.765 -0.0209  0.1460  0.1457
 3639W        W 7690   1.657   2.286   0.534  0.1176 -0.0408  0.1183
 3640W        W 7691   0.475   6.508  11.712  0.0332  0.2251  0.1441
 3641W        W 7692   0.319   1.106   9.069  0.0114  0.1241  0.1946
 3642W        W 7693   8.461  10.109   4.106 -0.0687  0.2844 -0.1652
 3643W        W 7694   4.612   0.481  13.941  0.2636  0.1836  0.1281
 3644W        W 7695   0.819   7.325   3.819 -0.2695  0.0862  0.2213
 3645W        W 7696   6.733   9.181   2.679 -0.3925 -0.1091 -0.1427
 3646W        W 7697   2.359   7.630   9.984 -0.0156  0.0503 -0.0592
 3647W        W 7698   7.817   2.818   2.070 -0.2161 -0.1829  0.0570
 3648W        W 7699   4.729   3.224  14.011  0.3614 -0.0305 -0.3512
 3649W        W 7700   8.257   6.752   2.403 -0.1237 -0.2205 -0.1710
 3650W        W 7701   3.181   7.501  10.575 -0.0733  0.3238 -0.3074
 3651W        W 7702   7.738   9.039  10.324 -0.1221  0.1626  0.2436
 3652W        W 7703   9.071   3.089  13.578 -0.1550  0.0650  0.2577
 3653W        W 7704   5.304   2.478   3.066  0.0936  0.0406 -0.0956
 3654W        W 7705   2.283   9.963   5.383  0.2188  0.2130 -0.3083
 3655W        W 7706   0.291   1.466   0.636 -0.0794 -0.2815  0.0035
 3656W        W 7707   6.034   9.487  12.275 -0.3007  0.2194 -0.2903
 3657W        W 7708   4.927   6.874  10.236 -0.3683  0.1495  0.1620
 3658W        W 7709   3.603   5.239   9.763  0.0281 -0.0988 -0.2198
 3659W        W 7710   4.024   4.988   2.498  0.3150 -0.0439  0.1026
 3660W        W 7711   6.739   3.765  12.825 -0.0724 -0.2981 -0.1195
 3661W        W 7712   0.684   6.019   0.641  0.0783  0.1205 -0.3012
 3662W        W 7713   2.330   3.528   1.352  0.2217  0.3316 -0.2358
 3663W        W 7714   8.510   8.368   0.131  0.4540 -0.3089  0.0972
 3664W        W 7715   4.341   1.763  11.972 -0.1509  0.4526  0.1000
 3665W        W 7716   4.565   0.391  12.529  0.4054 -0.1699  0.0609
 3666W        W 7717   3.830   3.014   4.180  0.1125  0.0114 -0.0275
 3667W        W 7718   6.355  10.102  12.834  0.0741  0.1136  0.1006
 3668W        W 7719  10.024   8.241   9.396 -0.1439 -0.0064 -0.2187
 3669W        W 7720   5.091   0.633  10.681  0.1172 -0.0784  0.1558
 3670W        W 7721   8.742   5.165   0.282 -0.5935 -0.1364  0.1936
 3671W        W 7722   3.528   5.757   9.917 -0.2922  0.0547 -0.2132
 3672W        W 7723   7.676   4.867   1.213  0.0425  0.0028 -0.3052
 3673W        W 7724   3.923   7.057  12.718 -0.1240 -0.0723 -0.1008
 3674W        W 7725   7.682   7.130  11.192  0.3245  0.0219 -0.2712
 3675W        W 7726   2.131   1.630   4.248  0.2891 -0.0966  0.1058
 3676W        W 7727   3.860   9.766   2.852  0.0937 -0.1229  0.1446
 3677W        W 7728   0.759   8.294  11.510  0.0517 -0.0265  0.3140
 3678W        W 7729   1.774   5.870   9.277  0.1056  0.0053  0.2982
 3679W        W 7730   9.392   9.362   1.317 -0.1675 -0.3377  0.1611
 3680W        W 7731   6.278   9.649  11.227  0.0681 -0.1375  0.0997
 3681W        W 7732   1.708   2.280   1.937  0.1473 -0.0405  0.0103
 3682W        W 7733   1.741   9.362   4.334  0.1803  0.1319  0.0171
 3683W        W 7734   9.243   9.260   0.798 -0.2690  0.3059  0.0112
 3684W        W 7735   9.927   6.905   5.544  0.1785  0.1882 -0.0841
 3685W        W 7736   9.223   0.872  11.258  0.0826  0.3390  0.3331
 3686W        W 7737   4.725   6.450   9.123 -0.2050  0.1837  0.3962
 3687W        W 7738   3.118   4.859   4.792  0.1394 -0.2238 -0.2389
 3688W        W 7739   4.749   6.787  11.231  0.1339 -0.2854  0.0915
 3689W        W 7740   0.675   0.211  11.324 -0.0814  0.0951 -0.0536
 3690W        W 7741   0.083   6.002  12.829  0.0007 -0.0378  0.0243
 3691W        W 7742   5.150   4.783   0.802 -0.3982 -0.0696 -0.1678
 3692W        W 7743   3.470   1.802   1.571 -0.0001 -0.1006  0.1194
 3693W        W 7744   9.822   1.047  10.120  0.0190 -0.1747  0.0068
 3694W        W 7745   9.069   4.023   2.102  0.2138  0.2036  0.1988
 3695W        W 7746   8.352   3.159   2.641 -0.1373  0.1534  0.2410
 3696W        W 7747   2.234   1.635   2.354 -0.2266 -0.0671  0.0330
 3697W        W 7748   1.588   2.463   4.562  0.2687  0.3021  0.0209
 3698W        W 7749   1.020   2.193  11.846  0.1241 -0.0575 -0.0685
 3699W        W 7750   2.330   7.614   1.247  0.0075  0.3913  0.2623
 3700W        W 7751   3.326   2.711   3.279  0.0380 -0.1215  0.1195
 3701W        W 7752   9.027   7.096   1.431 -0.0225 -0.3166  0.0687
 3702W        W 7753   8.903   9.848  10.476  0.0695  0.4011  0.0199
 3703W        W 7754   7.739   7.543  10.913 -0.3845  0.0028  0.0803
 3704W        W 7755   3.342   7.113  10.181  0.3596 -0.3040  0.3612
 3705W        W 7756   9.184   8.150  10.882 -0.1185  0.3107 -0.1005
 3706W        W 7757   0.752   1.250   0.224  0.1379 -0.0932  0.2137
 3707W        W 7758   7.997   8.235   0.948  0.1043  0.1505  0.0280
 3708W        W 7759   1.745   1.309   4.155  0.3854 -0.0011  0.0452
 3709W        W 7760   6.170   5.711   1.093 -0.0680 -0.0588  0.0063
 3710W        W 7761   0.936   6.041   2.745  0.1009 -0.0679  0.2589
 3711W        W 7762   0.799   6.953   2.737  0.0054 -0.1641 -0.3411
 3712W        W 7763   6.064   8.985   5.464 -0.2208  0.0830 -0.1263
 3713W        W 7764   9.538   3.293   3.129  0.1028 -0.2412  0.2582
 3714W        W 7765   1.861   3.104   3.579  0.0800  0.1204 -0.2588
 3715W        W 7766   0.346   8.021   9.178 -0.0131 -0.3155 -0.0624
 3716W        W 7767   0.154   9.660   2.073  0.0266 -0.0810  0.2120
 3717W        W 7768   8.074   3.192  11.285 -0.1513 -0.1402  0.1042
 3718W        W 7769   9.275   5.819   3.573  0.1232 -0.0661  0.0910
 3719W        W 7770   6.478   2.528  13.901 -0.2515 -0.2550  0.0441
 3720W        W 7771   3.964   7.457  13.073  0.1568  0.0854 -0.2226
 3721W        W 7772   6.355   8.998  11.485  0.4834 -0.1488  0.2518
 3722W        W 7773   7.566   1.187  13.300 -0.2426  0.1449 -0.0981
 3723W        W 7774   9.772   4.116   0.140  0.0926  0.0805  0.0016
 3724W        W 7775   6.538   9.869   1.366 -0.1457  0.0082 -0.1767
 3725W        W 7776   5.360   4.779   3.680  0.0923 -0.0872  0.2751
 3726W        W 7777   3.249   7.264   0.357 -0.3320  0.0062 -0.1477
 3727W        W 7778   2.989   6.230  10.866 -0.0338 -0.1877 -0.0709
 3728W        W 7779   7.356   7.605   2.210  0.1674  0.0593  0.1495
 3729W        W 7780   6.692   2.239  10.255 -0.0031  0.0057 -0.3286
 3730W        W 7781   5.379   1.892   1.197  0.2106  0.2015 -0.0201
 3731W        W 7782   1.727   0.879   9.970 -0.1817 -0.2379 -0.1241
 3732W        W 7783   5.596   5.167  10.731 -0.0501 -0.4362 -0.1137
 3733W        W 7784   2.003  10.058   0.861  0.0356 -0.1241 -0.3157
 3734W        W 7785   3.995   8.473   0.636  0.1993  0.2153 -0.4708
 3735W        W 7786   5.664   9.208   1.723 -0.2736  0.0661 -0.0216
 3736W        W 7787   6.885   4.265   2.184  0.0482  0.0031 -0.1058
 3737W        W 7788   7.384   5.019   1.891 -0.1987  0.0391  0.3934
 3738W        W 7789   2.414  10.131  12.571 -0.1005  0.2908  0.1845
 3739W        W 7790   5.440   2.289   2.093 -0.1305  0.0314 -0.0966
 3740W        W 7791   4.758   9.634   9.156 -0.3809 -0.2128 -0.0163
 3741W        W 7792   6.110   1.998  11.919  0.0653 -0.0389  0.3324
 3742W        W 7793   4.022   5.008  12.337  0.2347  0.0596 -0.0781
 3743W        W 7794   3.625   4.772   3.939 -0.1457 -0.2340 -0.1924
 3744W        W 7795   1.469   6.506  11.977 -0.3411 -0.0823 -0.1755
 3745W        W 7796   9.241   2.107  10.070 -0.3218  0.1677  0.0376
 3746W        W 7797   6.336   4.849   2.566  0.0501  0.3429 -0.1278
 3747W        W 7798   1.543   8.798   4.971  0.0440 -0.1960 -0.1067
 3748W        W 7799  10.130   4.872   8.926  0.3148  0.1232  0.1778
 3749W        W 7800   1.584   0.251   3.566  0.1175  0.1312  0.1332
 3750W        W 7801   1.283   7.818   1.506 -0.0607  0.0141 -0.1637
 3751W        W 7802   4.933   6.131  12.522 -0.0942 -0.0967 -0.2301
 3752W        W 7803   1.117   8.968  11.701  0.0905  0.2236 -0.0582
 3753W        W 7804   3.733   7.654  11.458 -0.2758  0.0732 -0.1653
 3754W        W 7805   2.909   0.867  11.994 -0.1603  0.0233  0.0913
 3755W        W 7806   7.516   7.311  13.427  0.1538 -0.2370 -0.0394
 3756W        W 7807   1.806   0.549   1.532 -0.1102 -0.0810  0.3849
 3757W        W 7808   4.630   7.486   1.750 -0.3631 -0.2131 -0.1241
 3758W        W 7809   1.943   8.910   1.822 -0.3158  0.1272  0.0788
 3759W        W 7810   3.805   2.376  13.583  0.4361  0.0141 -0.0940
 3760W        W 7811   8.728   8.236  13.597  0.0696  0.0510  0.0070
 3761W        W 7812   2.468   7.041  12.959  0.3576 -0.0649 -0.0789
 3762W        W 7813   6.331   7.836   0.049 -0.1356 -0.0483 -0.1726
 3763W        W 7814   8.878   9.483   1.146  0.0703  0.1149  0.0806
 3764W        W 7815   9.765   2.669   3.086 -0.1851 -0.0143  0.3147
 3765W        W 7816   9.118   8.887   1.787 -0.1110 -0.1187  0.1016
 3766W        W 7817   5.345   0.145   4.616  0.1293  0.2511 -0.0122
 3767W        W 7818   7.075   9.476   2.553 -0.0912 -0.1316  0.1432
 3768W        W 7819   5.350   0.310   3.485  0.0060 -0.0791  0.2625
 3769W        W 7820   9.253   8.934   2.282 -0.0716 -0.3255 -0.1212
 3770W        W 7821   8.977   3.082   0.483 -0.1601 -0.0196  0.2934
 3771W        W 7822   8.765   5.850   9.517 -0.0570  0.0896 -0.1664
 3772W        W 7823   3.794   6.599   1.608  0.0602  0.2203  0.0895
 3773W        W 7824   1.717   1.551   4.645 -0.0406  0.1374  0.0404
 3774W        W 7825   3.090   1.689  13.823 -0.0852 -0.3056 -0.1150
 3775W        W 7826   1.718   6.967   3.552 -0.1285  0.1788 -0.0059
 3776W        W 7827   3.475   4.039  12.659 -0.0957  0.0983 -0.2073
 3777W        W 7828   4.643   7.154   8.820 -0.0260 -0.0383 -0.1732
 3778W        W 7829   2.672   4.923  11.767 -0.0306  0.0386  0.1690
 3779W        W 7830   9.619   5.800  13.968  0.0456 -0.2464  0.1069
 3780W        W 7831   2.307   2.361  11.208 -0.2159  0.2645  0.0546
 3781W        W 7832   7.714   5.940   2.665 -0.0626  0.1519  0.1363
 3782W        W 7833  10.057   1.398   8.992 -0.2247  0.4819  0.2347
 3783W        W 7834   4.412   4.403   0.134 -0.2061 -0.1153 -0.0409
 3784W        W 7835   4.380   9.111  11.545  0.1333 -0.1699  0.1051
 3785W        W 7836   6.988   9.101   1.112 -0.0091  0.1577 -0.1249
 3786W        W 7837   3.043   3.648   3.076  0.1105  0.1228 -0.0630
 3787W        W 7838   4.193   7.068   0.449  0.2676  0.1941  0.2180
 3788W        W 7839   4.308   8.305  13.581  0.1745  0.0237 -0.0545
 3789W        W 7840   1.919   5.807  13.590  0.0308 -0.0240 -0.2405
 3790W        W 7841   4.317   3.697  13.018  0.1244 -0.0967 -0.0400
 3791W        W 7842   8.385   1.383   0.245  0.3144  0.3218  0.0268
 3792W        W 7843   7.125   6.501   4.144  0.3003 -0.1433 -0.0647
 3793W        W 7844   7.175   9.421   2.084 -0.1781 -0.1275  0.1665
 3794W        W 7845   6.717   9.829  10.386 -0.0032 -0.1537 -0.0567
 3795W        W 7846   9.561   6.894   2.107 -0.2280 -0.1929  0.2006
 3796W        W 7847   9.995   1.375   0.481 -0.2324  0.2981  0.2008
 3797W        W 7848   6.190   2.377   0.231 -0.0948 -0.1683  0.0930
 3798W        W 7849   1.681   0.325  11.620  0.1078 -0.2860 -0.1760
 3799W        W 7850   9.036   5.979  12.514  0.1122 -0.2593 -0.0637
 3800W        W 7851   0.560   0.272   4.629  0.3253  0.1440 -0.0420
 3801W        W 7852   1.929   4.252   4.966 -0.1179  0.0915 -0.2065
 3802W        W 7853   4.157   7.057   2.621  0.0661 -0.2076  0.0310
 3803W        W 7854   3.842   6.785  11.923 -0.1369 -0.1433  0.1341
 3804W        W 7855   1.360   7.140  13.374  0.0587 -0.2763 -0.1561
 3805W        W 7856   9.523   0.157  12.507  0.0257  0.0859 -0.0081
 3806W        W 7857   7.459   0.254  13.227 -0.1607  0.0249  0.0905
 3807W        W 7858   5.693   5.806  10.288 -0.1618 -0.0061  0.2100
 3808W        W 7859   2.868   3.960   0.109  0.1802  0.0543  0.1353
 3809W        W 7860   4.357   1.052  13.182  0.3292 -0.2754 -0.0516
 3810W        W 7861   2.758   1.693   4.633  0.1015 -0.1243  0.0043
 3811W        W 7862   6.367   9.950   1.844  0.2144  0.1102 -0.0176
 3812W        W 7863   6.820   9.195  13.780  0.1260 -0.0872 -0.2708
 3813W        W 7864   0.231   6.618  10.554 -0.2299  0.1282  0.1833
 3814W        W 7865   8.720   6.821  12.988 -0.1693 -0.1108  0.1363
 3815W        W 7866   2.532   7.433  11.155 -0.1080  0.4636 -0.3612
 3816W        W 7867   1.076   6.897   8.617  0.2490  0.1089 -0.0376
 3817W        W 7868   4.492   3.443   1.321  0.1117 -0.0286  0.0603
 3818W        W 7869   1.295   9.243  10.565 -0.4284  0.1570 -0.0131
 3819W        W 7870   4.954   5.059  10.277  0.2877  0.4593 -0.0508
 3820W        W 7871   8.399   2.458   0.973  0.1351  0.1269  0.1044
 3821W        W 7872   6.443   0.139   1.155  0.1073  0.1045  0.1738
 3822W        W 7873   9.356   1.791   3.265  0.2554 -0.1358  0.1224
 3823W        W 7874   7.949   4.984   9.422  0.0227  0.2119 -0.0142
 3824W        W 7875   9.424   0.704  10.059  0.2074  0.2290  0.2973
 3825W        W 7876   1.497   8.197   5.208 -0.1071  0.0898 -0.3777
 3826W        W 7877   4.754   3.417  10.914 -0.0719  0.0527  0.0304
 3827W        W 7878   8.936   2.439   0.930 -0.0365  0.2347 -0.0109
 3828W        W 7879   3.221   9.387  13.992 -0.1421 -0.2219  0.2868
 3829W        W 7880   2.034   7.758  11.389 -0.2378  0.0271  0.0179
 3830W        W 7881   7.382   7.720   1.151 -0.0666 -0.1556  0.0980
 3831W        W 7882   2.030   6.344  11.865 -0.3021 -0.5204  0.1427
 3832W        W 7883   5.206   1.624  11.867  0.1989 -0.1262 -0.2757
 3833W        W 7884   7.932   7.350   9.577  0.1893  0.5155 -0.0647
 3834W        W 7885   3.493   9.091  10.085  0.3145 -0.0348  0.4222
 3835W        W 7886   6.715   8.180   2.310  0.0005  0.0441  0.1722
 3836W        W 7887   8.125   7.935   5.413  0.2881  0.0510 -0.2256
 3837W        W 7888   0.037  10.035  10.457 -0.1382  0.1486 -0.4319
 3838W        W 7889   8.987   3.690   1.693  0.2842  0.0260  0.0287
 3839W        W 7890   3.028   6.101  13.314 -0.0510  0.0153 -0.1834
 3840W        W 7891   8.469   6.644   9.227  0.1264 -0.1447 -0.1323
 3841W        W 7892   2.328   9.815  10.203 -0.1031 -0.1812 -0.1274
 3842W        W 7893   1.002   8.121   9.959  0.0979  0.2509 -0.2988
 3843W        W 7894   7.700   0.283   2.752  0.1038  0.4754  0.3518
 3844W        W 7895   1.550   3.287  13.525  0.1053  0.2234 -0.0920
 3845W        W 7896   8.761   5.633   0.712  0.0260  0.0016 -0.0527
 3846W        W 7897   1.456   5.244   0.566  0.0733  0.3907  0.2755
 3847W        W 7898   8.611   8.553   9.839  0.3277  0.0260  0.1726
 3848W        W 7899   0.897   1.978  10.523 -0.1665 -0.2520 -0.0708
 3849W        W 7900   1.699   9.148   1.081  0.0062  0.0969  0.0911
 3850W        W 7901   9.678   6.302  12.004 -0.0013  0.2208 -0.0754
 3851W        W 7902   2.300   6.538  13.307  0.0959 -0.2273  0.2121
 3852W        W 7903   3.421   2.063  13.775 -0.1436 -0.2830  0.2057
 3853W        W 7904   7.034   6.031  13.164 -0.0704  0.0403  0.0983
 3854W        W 7905  10.136   6.457   9.595 -0.0555  0.2928 -0.4463
 3855W        W 7906   5.308   0.029   0.399  0.2325  0.3566 -0.3469
 3856W        W 7907   5.551   7.899   3.693  0.0094 -0.2193 -0.2891
 3857W        W 7908   0.306   1.028   0.244 -0.0799 -0.2578  0.0848
 3858W        W 7909   8.150   0.617  13.244  0.0740 -0.3017  0.2875
 3859W        W 7910   4.315   2.258   3.164 -0.0910 -0.0742  0.1385
 3860W        W 7911   6.516   1.248  11.124 -0.1705  0.1579 -0.2660
 3861W        W 7912   1.721   9.904  13.624 -0.1278 -0.2154  0.0185
 3862W        W 7913   9.058   4.655   2.089 -0.3058 -0.0064  0.3786
 3863W        W 7914   8.410   5.750  13.937  0.0603  0.2726  0.1806
 3864W        W 7915   8.143   3.410   0.666 -0.3196 -0.0674  0.2923
 3865W        W 7916   0.925   1.210   2.701  0.0227 -0.4278 -0.1472
 3866W        W 7917   2.865   7.109  10.360  0.2634 -0.2266 -0.1249
 3867W        W 7918   0.016   7.465   0.378  0.1577 -0.0373 -0.0605
 3868W        W 7919   3.973   2.632   2.326  0.0810  0.2197  0.2055
 3869W        W 7920   8.636   0.846   3.733  0.0053 -0.1631  0.2303
 3870W        W 7921   6.313   3.674  11.680 -0.2503  0.1489  0.3396
 3871W        W 7922   3.106   9.460  10.858 -0.2761  0.1358 -0.3816
 3872W        W 7923   9.445   9.944   2.425 -0.3809  0.1438 -0.0744
 3873W        W 7924   8.586   7.337  10.878 -0.0845  0.2432 -0.0615
 3874W        W 7925   6.409   5.792  12.001  0.0595 -0.0034  0.0362
 3875W        W 7926   9.978   2.075   1.700  0.0482 -0.0435 -0.1797
 3876W        W 7927   0.785   5.359   9.447 -0.1367  0.0801  0.0907
 3877W        W 7928   1.449   3.559   1.613 -0.0476  0.1000  0.1602
 3878W        W 7929   4.013   5.039  11.090  0.2120  0.1526  0.0672
 3879W        W 7930   5.536   3.895  10.863  0.0769 -0.0326 -0.2740
 3880W        W 7931   9.891   8.313  13.446 -0.0743  0.0645  0.0473
 3881W        W 7932   8.777   9.657   9.453  0.2616 -0.0545 -0.0507
 3882W        W 7933   5.037   3.368  11.377  0.0646  0.1637  0.0209
 3883W        W 7934   8.989   6.531  12.390 -0.1351 -0.0783  0.1573
 3884W        W 7935   7.928   2.085   3.205  0.1887  0.2360 -0.0592
 3885W        W 7936   0.771   0.710  11.594 -0.2692 -0.1189 -0.2465
 3886W        W 7937   9.771   0.319   9.706 -0.2499 -0.2226  0.2135
 3887W        W 7938   2.330   4.423  12.527  0.0953  0.1282  0.1130
 3888W        W 7939   0.044   2.099   0.102  0.1673 -0.0266  0.1236
 3889W        W 7940   4.851   7.721   3.116  0.4601  0.1136 -0.0876
 3890W        W 7941   4.401   7.854  13.217 -0.0972  0.2232  0.0391
 3891W        W 7942   6.800   3.299  10.728  0.1918 -0.1556  0.1427
 3892W        W 7943   1.513   9.258   2.050 -0.2156  0.2435  0.0200
 3893W        W 7944   3.504   7.658   3.074  0.1758 -0.2397 -0.3584
 3894W        W 7945   4.871   1.965  11.647 -0.0020 -0.0294  0.2691
 3895W        W 7946   8.714   3.300  10.488  0.1267 -0.1077 -0.1304
 3896W        W 7947   7.155   8.616  12.024 -0.0185 -0.1283  0.4064
 3897W        W 7948   9.953   5.532   1.608 -0.0063  0.0832  0.0893
 3898W        W 7949   7.699   9.423   3.446  0.1017 -0.0522 -0.1693
 3899W        W 7950   3.901   3.153   2.249 -0.2248 -0.1375 -0.0528
 3900W        W 7951   9.282   6.136   2.512  0.1752 -0.0586  0.1247
 3901W        W 7952   1.687   7.004  12.174  0.0918  0.0547 -0.1133
 3902W        W 7953   9.872   8.912  10.236  0.1388 -0.0448 -0.0415
 3903W        W 7954   6.605   0.673   3.747  0.2363  0.3376  0.0226
 3904W        W 7955   6.983   5.333  13.989 -0.0088  0.0111 -0.0227
 3905W        W 7956   0.330   2.503   0.292 -0.3096 -0.0591  0.2609
 3906W        W 7957   6.531   8.084   2.821 -0.1316 -0.0087 -0.1020
 3907W        W 7958   9.979   0.075   0.995 -0.1999  0.0682 -0.0226
 3908W        W 7959   4.587   4.520  12.833  0.0523  0.1810  0.0423
 3909W        W 7960   8.388   2.160   3.281 -0.1764 -0.1225 -0.3013
 3910W        W 7961   7.741   8.419  10.576 -0.2405 -0.0023 -0.0311
 3911W        W 7962   0.734   5.476  13.198  0.0345  0.0047  0.1558
 3912W        W 7963   4.027   0.433   9.908 -0.0492 -0.1632 -0.0640
 3913W        W 7964   7.848   0.174   0.013  0.1036 -0.0005 -0.0453
 3914W        W 7965   4.279   6.450  11.993 -0.0340 -0.1581 -0.0004
 3915W        W 7966   5.066   3.907  11.327 -0.0057  0.0061 -0.0151
 3916W        W 7967   5.326   9.428   9.826 -0.0672 -0.1932  0.0599
 3917W        W 7968   9.752   0.041   0.567 -0.1475 -0.0182 -0.0437
 3918W        W 7969   9.061   4.842   9.859  0.0199 -0.2953 -0.0209
 3919W        W 7970   3.786   6.475   3.282 -0.0840  0.0888  0.0854
 3920W        W 7971   7.146   5.781   9.909 -0.2299  0.3149  0.2119
 3921W        W 7972   3.446   7.452   1.214 -0.4623 -0.2360  0.0449
 3922W        W 7973   6.368   7.763   2.101  0.0949 -0.0796  0.0686
 3923W        W 7974   4.867   6.918   9.178 -0.0074 -0.0801 -0.1736
 3924W        W 7975   6.638   9.995  11.423  0.2559 -0.0225 -0.1504
 3925W        W 7976   8.732   9.808   1.487 -0.2478 -0.1087 -0.1738
 3926W        W 7977   9.502   6.220  12.461 -0.1274 -0.0557  0.0546
 3927W        W 7978   2.253   4.188  10.001 -0.0266 -0.3788 -0.2824
 3928W        W 7979   2.222   0.790   9.192  0.0591 -0.0751  0.2027
 3929W        W 7980   3.858   7.577   9.714  0.2005  0.0551  0.0080
 3930W        W 7981   1.530   8.916  10.162 -0.0141 -0.0273  0.1191
 3931W        W 7982   3.652   3.272  10.277 -0.0601  0.0257  0.3133
 3932W        W 7983   2.099   5.066   9.712  0.0987 -0.2142  0.4860
 3933W        W 7984   7.037   0.080   1.227 -0.0538 -0.1368 -0.0488
 3934W        W 7985   1.014   2.055  14.079 -0.0316  0.2079 -0.0999
 3935W        W 7986  10.015   1.374  13.591  0.0812 -0.0801  0.0447
 3936W        W 7987   1.814   1.217  12.678 -0.0262 -0.5536 -0.1438
 3937W        W 7988   2.064   5.650   0.234  0.2194 -0.0905  0.0549
 3938W        W 7989   1.311   4.346  12.592  0.0942 -0.1565  0.1573
 3939W        W 7990   1.166   0.421  12.003 -0.1512  0.1418 -0.1958
 3940W        W 7991   1.619  10.065   8.441  0.0904  0.0197 -0.0282
 3941W        W 7992   0.494   2.442   2.366 -0.1773  0.3518  0.3818
 3942W        W 7993   2.561   6.373  10.501 -0.0712 -0.1416  0.1124
 3943W        W 7994   7.878   2.547  13.478 -0.2841  0.1782  0.0735
 3944W        W 7995   9.206   8.472   9.896  0.3697  0.0129  0.1226
 3945W        W 7996   8.278   3.556  13.389 -0.1203 -0.1002  0.3648
 3946W        W 7997   8.545   9.162   5.167  0.2844  0.0586  0.3547
 3947W        W 7998   8.980   5.840   3.153 -0.0064  0.2644  0.3016
 3948W        W 7999   7.833   1.466   0.271  0.0050 -0.0572  0.3068
 3949W        W 8000   3.710   4.625   2.068 -0.0790  0.1288 -0.2492
 3950W        W 8001   2.021   0.739   4.338 -0.0310 -0.1246  0.0069
 3951W        W 8002   7.202   7.650   0.578 -0.2982  0.2206 -0.3103
 3952W        W 8003   0.249   2.100   9.321 -0.1012  0.2948  0.1567
 3953W        W 8004   3.395   9.188   1.824  0.4535  0.1556  0.1148
 3954W        W 8005   4.988   6.452  10.002  0.2343 -0.0190 -0.1105
 3955W        W 8006   6.966   4.148   0.994  0.0968  0.0008 -0.1851
 3956W        W 8007   6.310   1.384   3.107  0.1673  0.1515 -0.0077
 3957W        W 8008  10.107   5.036   4.724  0.2041  0.0679  0.0481
 3958W        W 8009   6.728   2.412  11.601 -0.0845  0.0954 -0.2465
 3959W        W 8010   5.431   8.522   3.689  0.1230 -0.2145 -0.1316
 3960W        W 8011   1.814   0.698  12.570  0.3021  0.1627 -0.2176
 3961W        W 8012   0.760   6.209  11.486  0.0063  0.0553 -0.0617
 3962W        W 8013   0.729   6.704  11.271 -0.0290  0.0970 -0.1768
 3963W        W 8014   4.701  10.025  11.664 -0.1634  0.1952  0.1396
 3964W        W 8015   0.720   9.235  10.480 -0.2679  0.0062  0.0222
 3965W        W 8016   9.487   3.877  10.903 -0.0833 -0.0579  0.5549
 3966W        W 8017   9.047   5.735  11.394 -0.1451  0.1829  0.2777
 3967W        W 8018   5.991   4.696  12.673  0.2438 -0.0116 -0.1740
 3968W        W 8019   5.423   4.055   2.003 -0.0230 -0.3238  0.1039
 3969W        W 8020   3.410   5.840   1.450  0.4180 -0.0813 -0.1684
 3970W        W 8021   9.329   2.692  12.374 -0.0772 -0.3448  0.2669
 3971W        W 8022   8.955   6.526   4.732 -0.0387  0.1221  0.0712
 3972W        W 8023   9.246   6.185  10.531  0.0658 -0.0567 -0.0961
 3973W        W 8024   5.756   5.298   4.566  0.0606 -0.3025 -0.2286
 3974W        W 8025  10.148   4.451  10.891  0.0027  0.2667  0.2748
 3975W        W 8026   4.098   4.522  12.548  0.1842  0.0516 -0.0971
 3976W        W 8027   3.252   0.147  12.028  0.0774  0.1365  0.2589
 3977W        W 8028   9.387   6.771   2.586 -0.0092 -0.0323 -0.0657
 3978W        W 8029   0.674   6.427  10.826  0.0361 -0.2428 -0.0239
 3979W        W 8030   0.659   8.980   2.376 -0.1805  0.0097 -0.2914
 3980W        W 8031   9.010   6.354  12.910  0.1362 -0.0806 -0.1435
 3981W        W 8032   0.158   8.162  11.560  0.1082  0.3276  0.1787
 3982W        W 8033   4.274   9.915  12.038 -0.0267 -0.3584 -0.0895
 3983W        W 8034   0.726   2.242   0.504  0.2359  0.2386 -0.0585
 3984W        W 8035   0.925   6.062   4.513  0.1886 -0.0238 -0.0471
 3985W        W 8036   9.687   2.459  10.061 -0.4869 -0.0381  0.0071
 3986W        W 8037   7.283   4.263   0.605 -0.3046 -0.1205 -0.1574
 3987W        W 8038   7.121   1.472  13.106  0.0332 -0.0468  0.3730
 3988W        W 8039   5.657   1.799   2.910 -0.2329 -0.1593 -0.3864
 3989W        W 8040   3.056   8.254   0.983 -0.1135 -0.2615 -0.2500
 3990W        W 8041   4.966   5.800   3.112 -0.1541  0.3874 -0.0097
 3991W        W 8042   9.340   9.158  12.155 -0.1079  0.3083 -0.1607
 3992W        W 8043   9.509   9.203   1.831 -0.2070 -0.1516  0.0218
 3993W        W 8044   8.066   4.456   1.282 -0.1059 -0.0492 -0.0809
 3994W        W 8045  10.095   8.084   9.956  0.0423  0.1400 -0.1668
 3995W        W 8046   7.070   7.526   4.024 -0.2793 -0.1911 -0.1904
 3996W        W 8047   7.020   4.595  10.132 -0.2760  0.2114 -0.0110
 3997W        W 8048   8.633   4.809  12.987 -0.1388  0.0903 -0.1574
 3998W        W 8049   0.010   3.624  13.107 -0.2023  0.2995 -0.1205
 3999W        W 8050   8.429   7.183   0.269  0.0734 -0.0625 -0.0267
 4000W        W 8051   4.741   0.032  13.145  0.1099 -0.0457 -0.3077
 4001W        W 8052   7.400   5.532   1.443  0.0297  0.1782 -0.2725
 4002W        W 8053   7.143   7.012   1.444 -0.2193 -0.0674 -0.0266
 4003W        W 8054   1.702   1.950  13.793  0.2795  0.2671  0.2793
 4004W        W 8055   0.513   4.376  12.564 -0.3131 -0.0406  0.0316
 4005W        W 8056   3.219   7.133   1.481  0.0721  0.1487  0.0907
 4006W        W 8057   8.740   0.251   3.861  0.0367  0.0701  0.2142
 4007W        W 8058   9.770   2.845  12.638 -0.3569  0.3211  0.1068
 4008W        W 8059   5.570   2.692  10.989 -0.2315 -0.0995 -0.2611
 4009W        W 8060   3.020   8.334  12.396  0.1086 -0.0456  0.2861
 4010W        W 8061   8.991   0.753   0.633  0.0327  0.0934 -0.1533
 4011W        W 8062   8.535   3.685   0.990 -0.0796  0.1486 -0.1486
 4012W        W 8063   9.975   2.467  11.350 -0.1669  0.0383 -0.0112
 4013W        W 8064   9.817   9.700  10.704  0.1068 -0.2866 -0.3276
 4014W        W 8065   2.076   8.695  11.143  0.0681  0.2428  0.1954
 4015W        W 8066   1.893   6.046   0.463  0.2360  0.3514  0.5346
 4016W        W 8067   9.580   1.638   2.791  0.0242 -0.1053 -0.1492
 4017W        W 8068   0.044   7.232   2.254 -0.0097  0.4245  0.0331
 4018W        W 8069   1.152   4.356   2.944  0.1970  0.1349 -0.1892
 4019W        W 8070   0.202   9.371   3.831  0.0258  0.0354  0.0797
 4020W        W 8071   4.044   5.710  10.503  0.0510 -0.0953 -0.2991
 4021W        W 8072   7.992   1.360  12.578  0.1350 -0.0104  0.0297
 4022W        W 8073   6.957   8.415  11.587 -0.2234  0.3067 -0.0111
 4023W        W 8074   4.913   7.027  14.080  0.1742 -0.2627 -0.1757
 4024W        W 8075   6.782   7.126   8.893  0.3710  0.1361  0.5614
 4025W        W 8076   5.847   3.997   0.624  0.3646 -0.0550 -0.0224
 4026W        W 8077   3.450   6.263   9.967  0.0383  0.1141  0.1954
 4027W        W 8078   7.387   7.383   4.509 -0.0384  0.1032  0.0478
 4028W        W 8079   8.942   0.179  10.403 -0.1289 -0.0146 -0.0023
 4029W        W 8080  10.099   1.302   0.029 -0.1933 -0.2658  0.0999
 4030W        W 8081  10.004   6.531   3.047 -0.0682 -0.2364  0.0972
 4031W        W 8082   5.187   6.499   3.957  0.0582 -0.0030 -0.2238
 4032W        W 8083   4.175   2.038   2.567  0.0018  0.3882 -0.2100
 4033W        W 8084   5.715   5.000  12.981  0.3443 -0.4277 -0.2057
 4034W        W 8085   4.887   3.381   4.104 -0.0222  0.0218 -0.0717
 4035W        W 8086   5.801   6.080  12.824  0.0315  0.0410  0.5275
 4036W        W 8087   1.256   9.145   0.778  0.3314 -0.2700 -0.0248
 4037W        W 8088   0.494   0.957   1.899 -0.0629  0.3959  0.2914
 4038W        W 8089   2.049   3.560   3.385 -0.0004 -0.0218  0.0166
 4039W        W 8090   7.555   0.092  12.382  0.2417 -0.0541 -0.0948
 4040W        W 8091   9.309   2.440   2.740  0.0244  0.3676 -0.0869
 4041W        W 8092   7.393   8.038  10.429 -0.3289  0.0652  0.1218
 4042W        W 8093   9.321   1.200  10.916  0.0110 -0.0158  0.4168
 4043W        W 8094   6.563   9.893   0.148 -0.0905  0.1712 -0.1757
 4044W        W 8095   9.519   8.123  13.055  0.0971  0.1811 -0.0624
 4045W        W 8096   1.647   0.774   0.814 -0.0058 -0.0385 -0.1696
 4046W        W 8097   6.795   5.260  12.041 -0.1475  0.1592 -0.2611
 4047W        W 8098   3.926   1.157   0.814  0.0741  0.1353 -0.4457
 4048W        W 8099   2.187  10.034  13.575 -0.0549 -0.1998  0.0984
 4049W        W 8100   8.347   4.380  10.859  0.1112  0.1235 -0.0969
 4050W        W 8101  10.074   7.880   3.016  0.2615 -0.0458  0.1260
 4051W        W 8102   9.431   1.409   0.247 -0.1470 -0.0822  0.1528
 4052W        W 8103   7.271   5.263   9.457 -0.0985 -0.1637 -0.2765
 4053W        W 8104   2.001   6.248  10.167 -0.1835  0.2101  0.0453
 4054W        W 8105   8.243   8.386  11.571  0.4165 -0.2194 -0.1568
 4055W        W 8106   0.366   4.891   0.500 -0.2813 -0.2491  0.1342
 4056W        W 8107   2.718   0.034   1.535 -0.0639 -0.0292  0.3253
 4057W        W 8108   8.357   9.836  13.249 -0.0200 -0.1654 -0.2714
 4058W        W 8109   8.287   2.504   3.641 -0.0878 -0.0679 -0.1230
 4059W        W 8110   9.807  10.036   3.689 -0.2659 -0.2460  0.1340
 4060W        W 8111   6.006   4.409  11.280  0.0141 -0.1658 -0.1151
 4061W        W 8112   4.526   8.887   9.652  0.3123  0.0344 -0.1503
 4062W        W 8113   1.062   6.838  10.899  0.4191  0.2006  0.0949
 4063W        W 8114   1.774   3.238  11.809 -0.1872 -0.0223  0.0226
 4064W        W 8115   0.276   0.423  11.643 -0.1528  0.0052  0.1549
 4065W        W 8116  10.004   1.479   4.960 -0.1482  0.1732 -0.0708
 4066W        W 8117   2.059   7.869   0.915 -0.3215  0.1640  0.0297
 4067W        W 8118   2.980   8.233  11.025 -0.2669 -0.1157 -0.0983
 4068W        W 8119   6.036   2.762   0.540 -0.3056  0.2414  0.0768
 4069W        W 8120  10.041   7.240   3.439 -0.1820  0.4081  0.3253
 4070W        W 8121   9.664   6.510   1.255 -0.2313  0.2370 -0.1637
 4071W        W 8122   3.044   9.356   9.903 -0.0981  0.1120 -0.1285
 4072W        W 8123   0.523   2.133   0.017 -0.2418 -0.2161 -0.1642
 4073W        W 8124   9.800   8.603   0.213  0.0211  0.1067 -0.0398
 4074W        W 8125   4.666   8.505  10.443 -0.0633  0.2343 -0.3109
 4075W        W 8126   3.693   0.663  10.294 -0.3874 -0.2073 -0.1075
 4076W        W 8127   2.741   2.438   3.650 -0.0258  0.0164 -0.0945
 4077W        W 8128   8.766   2.391   4.541  0.1720 -0.3388 -0.0676
 4078W        W 8129   9.038   7.903  10.295 -0.2097 -0.3743  0.0677
 4079W        W 8130   1.558   5.044   1.478  0.0406  0.4465 -0.3009
 4080W        W 8131   7.774   8.754  11.556  0.2253 -0.0327  0.3594
 4081W        W 8132   7.542   4.648   2.205  0.0764 -0.0087  0.2410
 4082W        W 8133   3.311   6.088   0.133  0.0966  0.0337  0.0716
 4083W        W 8134  10.150   4.824   0.194  0.0065  0.4010  0.1838
 4084W        W 8135   7.361   1.667   7.147 -0.0011  0.0066 -0.2017
 4085W        W 8136   7.348   2.280  11.637  0.2468 -0.0714  0.0932
 4086W        W 8137   1.492   6.765   9.511  0.2323 -0.2183 -0.2272
 4087W        W 8138   3.566   6.701  11.517  0.0921 -0.1985  0.0970
 4088W        W 8139   6.980   5.103   1.577  0.3440  0.1729  0.1934
 4089W        W 8140   9.224   2.957  11.975 -0.0512 -0.2141  0.1359
 4090W        W 8141   8.281   4.242   9.746  0.0139 -0.0781  0.0834
 4091W        W 8142   9.605   2.386  13.373 -0.2061 -0.2720 -0.3035
 4092W        W 8143   9.637   4.764   9.277  0.2126 -0.0818 -0.0854
 4093W        W 8144   4.629   2.923   1.365 -0.0037  0.0171 -0.0720
 4094W        W 8145   3.542   9.122   2.756  0.2329 -0.1553  0.1409
 4095W        W 8146   1.795   5.656   5.246 -0.0772 -0.3734 -0.1991
 4096W        W 8147   6.311  10.009   2.778  0.0388 -0.0971  0.2114
 4097W        W 8148   9.881   5.871   4.215  0.1144  0.3177  0.1060
 4098W        W 8149   6.221  10.101   9.736 -0.1047 -0.0975 -0.0083
 4099W        W 8150   7.988   2.332  12.405 -0.1184  0.4183  0.0330
 4100W        W 8151   6.950   2.103  12.953  0.5035 -0.1549 -0.4208
 4101W        W 8152   0.224   0.294   2.431  0.1831 -0.1415 -0.0460
 4102W        W 8153   3.100   6.520   0.010 -0.0383  0.0359 -0.1010
 4103W        W 8154   3.677   4.400   4.265  0.0590  0.2147 -0.1399
 4104W        W 8155   0.934   4.798  10.603  0.1395 -0.2001 -0.1065
 4105W        W 8156   0.343   3.101   1.418 -0.2902 -0.1520 -0.0266
 4106W        W 8157   2.538   1.486  10.987 -0.0380 -0.0715  0.0688
 4107W        W 8158   6.459   7.875  10.104  0.0084  0.1167 -0.1628
 4108W        W 8159   3.187   1.479   4.830  0.2796 -0.1666  0.1493
 4109W        W 8160   6.946  10.048   3.224  0.0798  0.3686 -0.3546
 4110W        W 8161   2.855   6.241  11.926  0.2835 -0.0376  0.0094
 4111W        W 8162   3.110   5.614  11.296 -0.2362  0.2740 -0.0448
 4112W        W 8163  10.086   4.887  11.103 -0.2164 -0.1070 -0.0463
 4113W        W 8164   6.177   0.482  11.924  0.0091 -0.0475  0.0268
 4114W        W 8165   8.441   5.618  13.020  0.1534 -0.0294 -0.0210
 4115W        W 8166   5.493   9.192  10.422 -0.0668 -0.3481 -0.0354
 4116W        W 8167   2.531   5.024   3.098  0.1622 -0.2458  0.0574
 4117W        W 8168   8.107   2.970   3.431 -0.0155 -0.0664  0.1826
 4118W        W 8169   5.767   4.608   3.447 -0.0199  0.1690  0.0867
 4119W        W 8170   7.388   9.330   1.319 -0.0003 -0.5759 -0.0855
 4120W        W 8171   5.512   9.002   4.638  0.1424  0.0932 -0.2461
 4121W        W 8172   7.568   4.896   3.568 -0.0115  0.2778  0.2888
 4122W        W 8173   5.159   5.940  10.383  0.0671 -0.1978 -0.0761
 4123W        W 8174   9.784   6.297  13.428 -0.0041  0.0111 -0.0027
 4124W        W 8175   6.196   6.672   4.432  0.1298 -0.3722  0.0202
 4125W        W 8176   7.823   1.473  11.391  0.2319  0.0797  0.4502
 4126W        W 8177   9.094   0.188  12.947  0.4708  0.1155  0.1215
 4127W        W 8178   6.489   6.514   3.028  0.1121  0.1248 -0.3763
 4128W        W 8179   6.783   8.411   4.158  0.1182 -0.2238  0.0180
 4129W        W 8180   0.870   4.787   3.391 -0.2570 -0.1212  0.1179
 4130W        W 8181   9.246   1.281   2.975  0.0035 -0.3505  0.1054
 4131W        W 8182   9.181   4.067   2.798 -0.0503 -0.0255 -0.0727
 4132W        W 8183   0.401   2.644  13.885 -0.3660 -0.3777  0.0966
 4133W        W 8184   6.574   7.769  12.041  0.1868  0.0747  0.0346
 4134W        W 8185   0.282   8.808   9.817  0.0328  0.2315  0.2720
 4135W        W 8186  10.021   9.479  11.508  0.1118  0.2113 -0.0347
 4136W        W 8187   0.642   9.672   4.233  0.0473  0.1569 -0.4667
 4137W        W 8188   3.368   3.427   3.415  0.1745  0.1928  0.0640
 4138W        W 8189   8.788   5.031   1.729  0.0366  0.2519  0.1415
 4139W        W 8190   9.919   9.403   1.489 -0.0336  0.0375 -0.0308
 4140W        W 8191   0.210   3.570   2.125  0.2785  0.1696  0.2099
 4141W        W 8192   7.097   5.917   4.292 -0.2435  0.2451  0.1258
 4142W        W 8193   5.713   9.512   9.512  0.3680 -0.1313  0.0689
 4143W        W 8194   2.676   9.964  13.417  0.1333 -0.0813 -0.0584
 4144W        W 8195   5.916   1.480   1.352 -0.0523 -0.2037  0.1645
 4145W        W 8196   6.074   7.021   1.440  0.0527  0.0067 -0.2103
 4146W        W 8197   1.651   5.276   1.057  0.1753 -0.0349  0.0213
 4147W        W 8198   0.937   5.993   3.623 -0.3019  0.0291 -0.2680
 4148W        W 8199   0.793   3.930  10.724  0.2734 -0.0335 -0.2155
 4149W        W 8200   2.976   7.503   1.187  0.3960 -0.7022 -0.1228
 4150W        W 8201   8.109   1.064  10.985 -0.0995  0.0154  0.1232
 4151W        W 8202   4.609   8.261   4.191 -0.0793 -0.3619 -0.2142
 4152W        W 8203   1.078   4.980   8.269  0.0604 -0.0731 -0.0226
 4153W        W 8204   6.282   7.957  12.311  0.0304  0.0084  0.1267
 4154W        W 8205   2.469   3.925  10.358 -0.1041  0.0286 -0.0443
 4155W        W 8206   8.749   2.926  10.031 -0.2497  0.0857  0.0649
 4156W        W 8207   2.718   7.663   1.919  0.2157  0.0854  0.0662
 4157W        W 8208   1.610   0.494   8.398  0.1319  0.3590  0.0606
 4158W        W 8209   9.028   0.114   2.177  0.1022 -0.3123 -0.0412
 4159W        W 8210   8.334   7.462  13.104  0.2852  0.2757 -0.2221
 4160W        W 8211   0.218   0.019   8.501  0.3036 -0.1038  0.0650
 4161W        W 8212   3.804   8.507   8.606 -0.0400  0.2833  0.1724
 4162W        W 8213   1.581   7.823   8.614  0.1392  0.3579 -0.2640
 4163W        W 8214   9.163   4.383  11.642 -0.2268 -0.0197  0.3329
 4164W        W 8215   5.142   8.181   3.396 -0.2305  0.1308  0.0789
 4165W        W 8216   8.454   7.804   5.742 -0.1089 -0.0181 -0.1055
 4166W        W 8217  10.002   4.615   1.972  0.2388 -0.4173  0.0253
 4167W        W 8218   5.328   9.161  13.762  0.0306 -0.0832  0.2596
 4168W        W 8219   6.039   9.081  10.505  0.3054 -0.2196 -0.2121
 4169W        W 8220   9.474   1.855  13.817 -0.0302 -0.0586 -0.3279
 4170W        W 8221   6.160   0.493   4.636  0.0167 -0.1088 -0.2018
 4171W        W 8222   8.337   8.001  10.392 -0.0894 -0.1035 -0.1127
 4172W        W 8223   2.782   1.408  12.462  0.2777  0.1440  0.2877
 4173W        W 8224   3.844   7.754   1.085  0.1511  0.4170  0.0960
 4174W        W 8225   8.567   7.046   1.656  0.0167  0.0439  0.0180
 4175W        W 8226   0.282   9.013   0.701  0.0128 -0.3257 -0.0804
 4176W        W 8227   5.826   1.019   3.814 -0.1614 -0.0657 -0.0522
 4177W        W 8228   0.104   8.081  10.523  0.1042  0.0430  0.0763
 4178W        W 8229   7.819   8.059  10.209 -0.0453  0.2526  0.3014
 4179W        W 8230   3.893   7.374   0.131  0.1873 -0.2436  0.1675
 4180W        W 8231   7.231   6.429  10.910  0.0256  0.2915 -0.1098
 4181W        W 8232   8.580   0.920   1.687  0.1118 -0.0331 -0.1401
 4182W        W 8233   2.428   0.515  10.414  0.0466 -0.2005  0.0253
 4183W        W 8234   9.171   2.667   0.005 -0.2702  0.0086  0.3206
 4184W        W 8235   0.718   8.691   8.376  0.2253 -0.2632 -0.1704
 4185W        W 8236   9.865   4.465  12.342 -0.0037  0.0164 -0.1530
 4186W        W 8237   9.094   5.619   4.098 -0.0412  0.0779  0.1340
 4187W        W 8238   9.819   9.391  11.997 -0.2642  0.0365 -0.0220
 4188W        W 8239   6.691   0.235  12.659  0.1909  0.1155  0.4134
 4189W        W 8240   3.173   9.457   4.603 -0.0732  0.0677  0.0399
 4190W        W 8241   9.137   5.333   1.553  0.0542  0.0916  0.2482
 4191W        W 8242   9.715   5.046   0.289 -0.0122 -0.1512  0.0961
 4192W        W 8243   6.208   8.933   3.986  0.0954  0.0877  0.0727
 4193W        W 8244   3.810   6.884   2.012 -0.4088 -0.0105  0.0059
 4194W        W 8245   0.959   2.003  11.354  0.0004  0.0679  0.1195
 4195W        W 8246   9.222   1.298  11.463  0.0855  0.1278  0.1031
 4196W        W 8247   3.494   6.837   3.500 -0.1842  0.0252  0.1531
 4197W        W 8248   2.017   2.783  12.767  0.3407  0.3034 -0.1538
 4198W        W 8249   1.264   9.499   2.860 -0.4063  0.2459 -0.0133
 4199W        W 8250   4.778   7.132   9.648  0.0213  0.1443 -0.1628
 4200W        W 8251  10.059   8.123   0.138 -0.0129 -0.2478 -0.0053
 4201W        W 8252   1.607   0.143  10.640 -0.1277  0.1340  0.1455
 4202W        W 8253   9.658   2.592  10.577 -0.1221  0.1928  0.3494
 4203W        W 8254   1.280   5.570   9.381 -0.0420  0.2663 -0.1089
 4204W        W 8255   0.050   9.696   3.377  0.2129  0.2762  0.0105
 4205W        W 8256   3.664   0.529   0.082  0.0500  0.3524  0.1002
 4206W        W 8257   9.420   2.747   9.684 -0.0408  0.1496  0.0347
 4207W        W 8258   9.066   7.337   4.961 -0.0621 -0.0646  0.1591
 4208W        W 8259   4.563   7.209  12.225  0.2826  0.0464  0.0433
 4209W        W 8260   6.487   5.362   3.844  0.1173  0.2202 -0.6089
 4210W        W 8261   9.791   2.610   2.542 -0.0225 -0.1424 -0.0099
 4211W        W 8262   0.074   1.295  12.657 -0.1501  0.1160 -0.0766
 4212W        W 8263   0.364   7.124   0.260 -0.0061  0.3185  0.1242
 4213W        W 8264   2.428   9.674   2.942  0.2470 -0.0530 -0.1018
 4214W        W 8265   6.538   2.447  12.634  0.0990  0.0520  0.0914
 4215W        W 8266   8.509   8.497   3.623  0.1249  0.0237 -0.0589
 4216W        W 8267   0.804   3.689  11.235  0.1144 -0.3715 -0.3030
 4217W        W 8268   5.568   5.991   1.302  0.2645  0.1550  0.0402
 4218W        W 8269   6.570   5.595   2.037 -0.0932 -0.1502 -0.3264
 4219W        W 8270   4.587   9.341  13.400 -0.0102 -0.0977  0.4537
 4220W        W 8271   6.417   4.022   2.827  0.1438 -0.0721 -0.3016
 4221W        W 8272   8.262   1.059   2.537 -0.1826  0.3836  0.0970
 4222W        W 8273   7.051   7.878   3.692 -0.2766  0.0750  0.3243
 4223W        W 8274   5.467   5.326  12.203  0.1229  0.2927 -0.2872
 4224W        W 8275   8.918   1.280   0.306 -0.1122  0.1720 -0.1927
 4225W        W 8276   7.218   0.224  12.747 -0.2474  0.1562  0.0625
 4226W        W 8277   3.777   1.490   9.891  0.1518  0.2221 -0.0369
 4227W        W 8278   0.343   4.720   1.982  0.0466  0.1286  0.1873
 4228W        W 8279   5.062   7.073  13.559  0.0581  0.0167 -0.0816
 4229W        W 8280   5.456   6.047  11.378  0.3023 -0.0255 -0.0740
 4230W        W 8281   0.848   9.039  13.652 -0.0883 -0.0911  0.2668
 4231W        W 8282   7.686   3.559   3.224 -0.0154 -0.0269  0.2169
 4232W        W 8283   7.263   0.563   0.456  0.1142 -0.0937  0.0164
 4233W        W 8284   2.703   7.056   3.467  0.1688 -0.0974 -0.0075
 4234W        W 8285   7.720   4.261  10.844  0.2650  0.3558  0.0640
 4235W        W 8286   9.719   3.609  14.018 -0.2624  0.3759  0.0954
 4236W        W 8287   2.593   7.309   4.020 -0.0162 -0.2745 -0.0449
 4237W        W 8288   8.364   6.961  13.362  0.0278 -0.1050 -0.1375
 4238W        W 8289   8.171   6.561  13.109 -0.0041 -0.0934  0.2137
 4239W        W 8290   9.449   9.574  11.728  0.1288  0.1920 -0.0793
 4240W        W 8291   1.718   2.848   2.892  0.0318 -0.0186 -0.0774
 4241W        W 8292  10.135   4.852   1.189 -0.0722  0.0368  0.0604
 4242W        W 8293   4.921   8.614  11.885 -0.1132 -0.3527  0.0797
 4243W        W 8294   5.864   3.310   1.396 -0.2022 -0.0261  0.0117
 4244W        W 8295   3.079   1.448   1.535  0.0511  0.1211  0.1232
 4245W        W 8296   4.991   8.532   5.325 -0.0722  0.0254  0.1565
 4246W        W 8297   9.226   4.471   1.175  0.5475  0.1032 -0.1523
 4247W        W 8298   5.218   7.184   2.596 -0.1812 -0.1865 -0.0014
 4248W        W 8299   8.151   8.166   3.600 -0.0329  0.1707  0.0683
 4249W        W 8300   2.001   2.915  11.384  0.0893 -0.1552 -0.0213
 4250W        W 8301   1.322   6.301  10.041 -0.0800 -0.2172 -0.1843
 4251W        W 8302   3.406   6.322  11.127 -0.3078  0.1335  0.3557
 4252W        W 8303   0.647   8.883   3.062  0.0209  0.3326  0.0438
 4253W        W 8304   3.456   6.896   9.230  0.2586 -0.0765 -0.1253
 4254W        W 8305   9.332   2.910   2.436 -0.1379  0.4156  0.0984
 4255W        W 8306   3.449   9.696  12.714 -0.0130  0.1669 -0.3691
 4256W        W 8307   2.417   6.771  11.086  0.3248 -0.0908  0.1632
 4257W        W 8308   8.385   3.100   1.464  0.1150  0.1798  0.0674
 4258W        W 8309   7.032   6.413   3.153  0.2623  0.1191  0.2581
 4259W        W 8310   8.973   4.655   2.755 -0.0953 -0.1626  0.2017
 4260W        W 8311   4.248   2.925   2.584 -0.2096 -0.1705  0.0064
 4261W        W 8312   1.302   8.001   2.443 -0.1466 -0.1686 -0.4142
 4262W        W 8313   8.203   3.721  10.065 -0.0167 -0.1172  0.1817
 4263W        W 8314   7.115   0.821   1.012  0.4250 -0.0978 -0.0220
 4264W        W 8315   9.756   6.055   0.364  0.2154 -0.1966  0.3017
 4265W        W 8316   2.700   5.172   3.960  0.4820  0.0446  0.0761
 4266W        W 8317   6.238   1.002  10.765  0.2010 -0.1462 -0.1784
 4267W        W 8318   4.018   2.556   4.087 -0.1033  0.0155 -0.0727
 4268W        W 8319   2.217   9.190  12.791 -0.1990 -0.3166 -0.0179
 4269W        W 8320   1.533   8.856   8.985 -0.1361 -0.1345  0.1976
 4270W        W 8321   6.682   4.006  11.603 -0.0688 -0.3186 -0.0617
 4271W        W 8322   0.015   4.112   3.597 -0.2060  0.0987  0.1320
 4272W        W 8323   2.963   0.445  10.175  0.3044 -0.1039  0.1986
 4273W        W 8324   2.228   1.845   4.655  0.0289  0.2622 -0.2055
 4274W        W 8325   6.563   5.026  10.851  0.1266  0.2221 -0.0889
 4275W        W 8326   8.493   0.585  11.721  0.2798 -0.0523  0.0314
 4276W        W 8327   8.690   5.151   0.815  0.1948 -0.0810 -0.3742
 4277W        W 8328   5.123   9.690   0.551  0.3457 -0.2768 -0.2226
 4278W        W 8329   4.170   9.842  12.547 -0.2286 -0.0212  0.0543
 4279W        W 8330   1.849   8.692   4.114  0.1321  0.0816 -0.0062
 4280W        W 8331   3.004   6.732   8.677 -0.0046  0.1298  0.0389
 4281W        W 8332   6.945   0.658  10.779  0.3766  0.0643  0.3215
 4282W        W 8333   3.629   4.825  13.544  0.2595  0.0153 -0.5019
 4283W        W 8334   5.659   0.019  11.227  0.1785  0.1500 -0.3151
 4284W        W 8335   7.280   2.126  10.279  0.2733  0.3079 -0.2809
 4285W        W 8336   5.368   5.832   9.914  0.0478 -0.2729  0.0282
 4286W        W 8337   6.784   7.579  13.036 -0.0078 -0.0683 -0.1787
 4287W        W 8338   3.231   1.610  12.295 -0.0881  0.1424  0.1188
 4288W        W 8339   4.164   8.310   0.138  0.2379 -0.4377 -0.1632
 4289W        W 8340   5.038   0.452  13.138  0.2064  0.0002 -0.0218
 4290W        W 8341   9.108   7.346   9.652 -0.3592 -0.0110 -0.2123
 4291W        W 8342   3.696   4.384  10.512  0.4083  0.0126 -0.0402
 4292W        W 8343   1.490   8.482   3.720 -0.3671 -0.1249  0.0629
 4293W        W 8344   0.575   8.027   1.911  0.2298 -0.2368  0.1317
 4294W        W 8345   0.498   8.281   4.263 -0.0410  0.1373  0.0129
 4295W        W 8346   5.397   2.718  11.849 -0.0726 -0.0172  0.3167
 4296W        W 8347   9.439   0.110   0.981  0.0143  0.1502 -0.5173
 4297W        W 8348   7.024   0.461  13.129  0.1351  0.1696 -0.0804
 4298W        W 8349   2.831   4.332  10.442  0.0103 -0.0069  0.2036
 4299W        W 8350   0.301   6.066  10.662 -0.1434 -0.0373  0.0498
 4300W        W 8351   3.444   2.975   1.368  0.1023 -0.3058 -0.0635
 4301W        W 8352   3.665   2.885   2.695  0.1788 -0.0242  0.1182
 4302W        W 8353   7.414   4.897  12.280  0.1073  0.0586  0.0436
 4303W        W 8354   1.686   1.678   2.863  0.2004 -0.1558 -0.4159
 4304W        W 8355   8.567   8.640   8.237  0.1121  0.1423  0.1014
 4305W        W 8356   1.062   8.437  13.148  0.0976 -0.0328 -0.2980
 4306W        W 8357   6.457   1.769   0.646 -0.1272 -0.2739  0.2287
 4307W        W 8358   3.893   0.000   3.696 -0.1955  0.0265  0.2321
 4308W        W 8359   9.323   7.668  14.047  0.1382  0.2754 -0.1715
 4309W        W 8360   2.499   2.157  10.768 -0.2246 -0.1035 -0.1095
 4310W        W 8361   2.037   4.200   1.561 -0.2427  0.3234 -0.1356
 4311W        W 8362   9.227   5.334   0.957  0.1624  0.0054  0.1293
 4312W        W 8363   2.468   6.396   4.332 -0.2895 -0.1553 -0.0107
 4313W        W 8364   3.785   4.793   9.828  0.0701 -0.2307 -0.1303
 4314W        W 8365   8.914   9.064   4.328  0.0329  0.1083 -0.0152
 4315W        W 8366   0.838   1.943   1.732  0.2069  0.0354 -0.5010
 4316W        W 8367   9.569   8.928   1.024 -0.0526 -0.2926 -0.0544
 4317W        W 8368   0.567   5.285   3.390 -0.1421  0.1706  0.0160
 4318W        W 8369   7.870   4.418  11.644  0.2962  0.0683  0.0100
 4319W        W 8370   8.049   1.133   2.064  0.1715 -0.2106  0.0828
 4320W        W 8371   9.665   6.887   3.161 -0.0559  0.0305 -0.0269
 4321W        W 8372   4.469   7.594  10.589 -0.1619  0.2481  0.4958
 4322W        W 8373   2.395   7.252   1.954  0.0331 -0.0065  0.0788
 4323W        W 8374   0.104   1.332   4.525  0.0802  0.0013 -0.4019
 4324W        W 8375   6.758   1.214   0.718  0.0563 -0.0624 -0.1497
 4325W        W 8376   9.720   0.768  12.316 -0.1627  0.1237 -0.0527
 4326W        W 8377   4.295   1.809   1.820 -0.0602  0.1307 -0.1932
 4327W        W 8378   6.846   4.718  12.290 -0.1299  0.0998  0.0680
 4328W        W 8379   3.627   2.373   0.265 -0.2651  0.0889  0.1917
 4329W        W 8380   9.813   7.330  13.208 -0.0955 -0.0290  0.1261
 4330W        W 8381   5.380   7.044  10.496  0.0994  0.1437 -0.1590
 4331W        W 8382   0.167   4.497  13.504 -0.3618  0.0421  0.1578
 4332W        W 8383   9.519   5.365  13.844 -0.3226 -0.0889  0.0739
 4333W        W 8384   2.481   3.051  13.259  0.0128 -0.1204  0.1437
 4334W        W 8385   2.812   6.954  13.784  0.1512 -0.2950 -0.5497
 4335W        W 8386   7.061   1.827  13.560  0.3745  0.2381  0.0801
 4336W        W 8387   5.497  10.110   2.298 -0.2444  0.3044 -0.1086
 4337W        W 8388   8.099   0.246   1.552 -0.0191  0.1879  0.1211
 4338W        W 8389   3.920   1.523   0.375 -0.2140  0.0293 -0.3135
 4339W        W 8390   7.543   6.720   3.917  0.2210 -0.0479  0.0956
 4340W        W 8391   2.533   4.020  10.837 -0.0223 -0.1298 -0.2651
 4341W        W 8392   5.998   1.991  14.061 -0.1451 -0.0490  0.0273
 4342W        W 8393   2.968   6.167   1.860 -0.2175 -0.0879 -0.1107
 4343W        W 8394   1.107   0.038   9.610  0.3562 -0.1845 -0.0853
 4344W        W 8395   3.637   3.744  12.198 -0.0897 -0.0717 -0.2721
 4345W        W 8396   4.749   9.249   0.613 -0.4830  0.2336 -0.1474
 4346W        W 8397   5.786   9.719  13.180  0.0453 -0.0548 -0.1594
 4347W        W 8398   9.913   1.645  11.620  0.3162  0.2088  0.2736
 4348W        W 8399   7.413   4.952   2.833  0.3134 -0.2528 -0.2648
 4349W        W 8400   7.726   6.559   2.043  0.2195  0.0111  0.0190
 4350W        W 8401   6.769   7.926   0.315 -0.0838  0.0825  0.1146
 4351W        W 8402   9.504   8.671  11.912 -0.0857 -0.3279 -0.1373
 4352W        W 8403   9.265   8.384   2.293 -0.0714 -0.0812  0.0400
 4353W        W 8404   6.465   0.543  10.899  0.2421 -0.2053  0.2687
 4354W        W 8405   5.065   7.186   3.752  0.0598 -0.2223  0.1947
 4355W        W 8406   2.733   9.782   9.356 -0.0691  0.0959 -0.2696
 4356W        W 8407   2.463   5.096  11.287 -0.1643  0.0173  0.0608
 4357W        W 8408   9.212   8.513  10.511  0.1739 -0.1236 -0.0367
 4358W        W 8409   2.954   1.575   3.731 -0.0070 -0.1450  0.2218
 4359W        W 8410   8.275   1.374  10.588 -0.2268 -0.0798 -0.0985
 4360W        W 8411   7.430   9.444   0.819 -0.0107  0.2368 -0.1530
 4361W        W 8412   6.484   3.432   1.268  0.0569  0.1281 -0.2198
 4362W        W 8413   0.280   6.155  10.049  0.0334  0.2964  0.0132
 4363W        W 8414   8.682   2.340   2.866  0.0044  0.0664  0.0186
 4364W        W 8415   3.547   8.083  11.855 -0.0443 -0.0634  0.0140
 4365W        W 8416   7.759   4.384  13.121  0.2822  0.3908  0.2874
 4366W        W 8417   8.783   1.091   2.262  0.5143 -0.0204 -0.1315
 4367W        W 8418   9.255   1.751  12.341 -0.3774 -0.1796  0.5491
 4368W        W 8419   8.378   4.608  11.977 -0.0803 -0.1427  0.0572
 4369W        W 8420   5.583   7.398   3.885  0.1715 -0.0364 -0.1425
 4370W        W 8421   5.655   5.056  13.705  0.3448  0.0949 -0.1690
 4371W        W 8422   5.082   6.555   4.496 -0.1770  0.0676 -0.1385
 4372W        W 8423   4.846   2.022  11.106  0.2456  0.2134  0.0129
 4373W        W 8424   9.510   8.507  11.057 -0.2174 -0.2556 -0.1843
 4374W        W 8425   9.542   6.719  11.289  0.0384 -0.2818 -0.0300
 4375W        W 8426   6.348   6.957  10.071  0.2786  0.0984 -0.0642
 4376W        W 8427   0.218   8.920  10.772  0.1736  0.3042  0.1033
 4377W        W 8428   8.362   1.537  13.045  0.0463  0.1489  0.1689
 4378W        W 8429   6.386   2.356  11.204  0.2819 -0.2870  0.0467
 4379W        W 8430   7.103   8.464   2.360 -0.0683  0.0471  0.1691
 4380W        W 8431   1.560   0.243   0.196 -0.1377  0.2511 -0.0716
 4381W        W 8432   4.159   5.385   1.620 -0.2335  0.0243  0.1309
 4382W        W 8433   4.952   0.472  13.610 -0.1900 -0.3815  0.1274
 4383W        W 8434   3.076   1.994   2.825 -0.0312  0.1864 -0.0174
 4384W        W 8435   9.836   5.877  13.092 -0.0113  0.0503 -0.1192
 4385W        W 8436   2.592   4.486   3.202  0.1593  0.0293  0.2289
 4386W        W 8437   2.195   8.558  11.942 -0.0954  0.1723 -0.0288
 4387W        W 8438   2.951   5.723  10.070  0.0173  0.0525 -0.2147
 4388W        W 8439   1.854   9.854  10.439 -0.3286  0.1375  0.3023
 4389W        W 8440   1.233   3.171  12.379  0.2567  0.0545 -0.0280
 4390W        W 8441   9.450   8.662  13.204 -0.0319  0.1021 -0.0487
 4391W        W 8442   1.557   7.897   4.803 -0.1150  0.1301 -0.1314
 4392W        W 8443   3.460   2.205  10.289 -0.1975  0.1502 -0.3198
 4393W        W 8444   2.412   9.885   4.233  0.0066  0.1929 -0.2266
 4394W        W 8445   2.146   5.967  10.592 -0.3450 -0.1295  0.1500
 4395W        W 8446   2.017   8.160  11.086  0.0962  0.1799  0.2985
 4396W        W 8447   0.285   0.522   3.374 -0.0564  0.0853  0.2735
 4397W        W 8448   6.042   8.084   2.247 -0.3914  0.1186 -0.0216
 4398W        W 8449   9.701   9.657   3.414 -0.0782 -0.3334  0.0180
 4399W        W 8450   8.471   0.439   1.812 -0.3635 -0.0881 -0.1741
 4400W        W 8451   3.552   7.537  13.827 -0.1860  0.1027 -0.0188
 4401W        W 8452   8.633   2.141   0.599 -0.0334  0.0712 -0.1662
 4402W        W 8453   3.846   3.636   9.455 -0.0961 -0.2845 -0.1512
 4403W        W 8454   5.657   5.111   3.393  0.1625  0.2074 -0.0787
 4404W        W 8455   3.474   0.900   3.725 -0.0847  0.1444  0.1733
 4405W        W 8456   3.491   9.358   3.696  0.2926 -0.0432 -0.0876
 4406W        W 8457   4.498   6.242  12.678 -0.0115 -0.0709 -0.0990
 4407W        W 8458   3.109   2.319  12.320 -0.0505  0.1434 -0.1967
 4408W        W 8459   4.061   3.640   2.088 -0.1245  0.4829 -0.1761
 4409W        W 8460   7.134   8.757  13.496 -0.2682 -0.2128  0.1774
 4410W        W 8461   0.412   4.618   1.091 -0.1292 -0.0092  0.0138
 4411W        W 8462   7.522   7.831   4.351 -0.3013 -0.0566  0.0438
 4412W        W 8463   2.722   3.480  12.744 -0.1534 -0.2685 -0.1483
 4413W        W 8464   2.003   7.040  12.603 -0.3855  0.0542  0.0643
 4414W        W 8465   7.447   6.525   2.886 -0.2856  0.1344 -0.1909
 4415W        W 8466   6.507   2.840   2.665  0.0354 -0.2432 -0.0042
 4416W        W 8467   1.418  10.008   2.897 -0.3977  0.0898  0.0642
 4417W        W 8468   3.967   3.066  13.610 -0.0064 -0.3110 -0.1402
 4418W        W 8469   9.744   4.772   2.497 -0.1300 -0.0001 -0.0795
 4419W        W 8470   9.792   6.915  10.266  0.3024 -0.0213 -0.3380
 4420W        W 8471   4.576   3.647   1.777 -0.0010  0.0720  0.1808
 4421W        W 8472   1.096   7.960   1.929 -0.3316  0.1503  0.2254
 4422W        W 8473   6.574   2.557  12.060 -0.0908 -0.1964  0.0514
 4423W        W 8474   7.263   1.154  12.277 -0.0920  0.1551 -0.1923
 4424W        W 8475   7.354   8.270  12.543  0.2303  0.1002  0.1369
 4425W        W 8476   3.448   7.976  10.963 -0.0298  0.2883 -0.0329
 4426W        W 8477   5.131   9.339  10.828  0.1144  0.0972  0.2859
 4427W        W 8478   0.274   8.560   9.224 -0.0954  0.0198  0.1591
 4428W        W 8479   2.649   7.481  10.650  0.2256  0.0756  0.2884
 4429W        W 8480   4.103   0.628  13.255 -0.0627  0.0209 -0.1170
 4430W        W 8481   5.018   9.988  11.067  0.2036  0.1561  0.1314
 4431W        W 8482   7.698   4.221   2.000 -0.0015 -0.0671 -0.1259
 4432W        W 8483  10.035   1.050  13.077  0.2980  0.0809 -0.3286
 4433W        W 8484   1.746   1.022   4.676  0.0335  0.1153  0.0689
 4434W        W 8485   9.412   1.527  12.780 -0.3609  0.0967 -0.0123
 4435W        W 8486   3.119   2.452   4.339  0.3444  0.0676  0.1127
 4436W        W 8487   8.744   3.641  14.031 -0.0867 -0.1668 -0.0667
 4437W        W 8488   7.682   8.455   3.160 -0.0189 -0.1987  0.2012
 4438W        W 8489   2.493   6.887  10.641 -0.0009 -0.0127 -0.0984
 4439W        W 8490   3.279   1.486   0.630  0.3267 -0.1468  0.0037
 4440W        W 8491   8.353   2.734  13.229  0.2031 -0.1923  0.3597
 4441W        W 8492   0.017   1.381   3.000 -0.1636 -0.1150 -0.5912
 4442W        W 8493   3.816   8.002   3.205  0.0613 -0.2870 -0.1331
 4443W        W 8494   4.718   7.992   0.861 -0.0721  0.4075 -0.1608
 4444W        W 8495   5.117   1.982  12.247 -0.1678 -0.1640  0.0499
 4445W        W 8496   3.796   4.221   4.732  0.0312 -0.0873 -0.1548
 4446W        W 8497   8.593   1.384  13.558 -0.1117  0.1157  0.1968
 4447W        W 8498   1.134   4.677   1.718  0.0713  0.2662  0.1222
 4448W        W 8499   7.457   3.455  10.488 -0.2819  0.1130 -0.0023
 4449W        W 8500   0.147   4.068  12.431  0.0312  0.0066 -0.1701
 4450W        W 8501   7.942   0.055   4.037  0.2628 -0.0035  0.2070
 4451W        W 8502   0.281   2.454   1.362 -0.1501 -0.0451  0.0864
 4452W        W 8503   9.768   3.847   8.220  0.0796  0.4090 -0.3295
 4453W        W 8504   4.980   7.439  11.865 -0.0409 -0.4386  0.1910
 4454W        W 8505   5.686   6.410   3.934  0.1356  0.2515  0.2132
 4455W        W 8506   2.614   4.925  12.756 -0.0374  0.1572 -0.0901
 4456W        W 8507   3.773   3.859   0.994 -0.5178  0.0762 -0.2032
 4457W        W 8508   9.923   3.119   2.823  0.2235  0.3719  0.0877
 4458W        W 8509   1.932   5.132  12.297  0.1361  0.0461  0.1952
 4459W        W 8510   9.614   8.053   9.205  0.3374 -0.1399  0.2191
 4460W        W 8511   1.132   8.030  11.398 -0.3791 -0.2110  0.1032
 4461W        W 8512   7.866   2.667   4.015  0.0143 -0.1082  0.0904
 4462W        W 8513   2.786   2.910  11.807  0.1218  0.3178  0.3882
 4463W        W 8514   0.753   5.206  11.712  0.1051 -0.0734 -0.0048
 4464W        W 8515   8.960   1.238   4.771  0.0136  0.0353 -0.0723
 4465W        W 8516   0.976   7.281  11.852 -0.0587  0.1784 -0.2808
 4466W        W 8517   0.939   5.572  11.022 -0.0478 -0.2715  0.0352
 4467W        W 8518   2.107   8.056   4.571  0.1058  0.0440  0.1520
 4468W        W 8519   6.530   6.478  12.311  0.1488  0.0252 -0.2712
 4469W        W 8520   6.450   8.617   2.146  0.0437 -0.2683 -0.0753
 4470W        W 8521   8.110   8.657  12.074 -0.0922 -0.3133  0.4489
 4471W        W 8522   8.719   1.977  10.965  0.0023  0.3810 -0.4214
 4472W        W 8523   1.634   3.229  10.886 -0.0664 -0.1961  0.4475
 4473W        W 8524   6.450   8.053   1.195  0.0735 -0.1656  0.2715
 4474W        W 8525   0.415   2.728  10.717  0.0025  0.0452  0.2768
 4475W        W 8526   8.387   1.485  12.270  0.0096  0.0416  0.0907
 4476W        W 8527   0.918   1.251   3.537 -0.2206 -0.1398  0.1334
 4477W        W 8528   0.628   4.296   9.424 -0.1707  0.1875  0.1594
 4478W        W 8529   2.055   9.543   3.924 -0.1450  0.4612  0.3861
 4479W        W 8530   8.237   5.900   3.474  0.1506 -0.1424 -0.0196
 4480W        W 8531   6.811   1.065  12.157 -0.1907 -0.0962 -0.1004
 4481W        W 8532   8.130   1.766  13.472  0.1516 -0.1993 -0.1300
 4482W        W 8533   8.131   8.473   4.528  0.0393 -0.0011  0.1632
 4483W        W 8534   5.614   0.323  11.758 -0.0150 -0.1010  0.1602
 4484W        W 8535   5.114   7.995  10.405 -0.0816  0.0340  0.1632
 4485W        W 8536   9.852   1.500  13.023  0.1999 -0.1871  0.0338
 4486W        W 8537   5.589   9.984  11.686 -0.1080  0.0979 -0.3405
 4487W        W 8538   4.614   9.731   4.368 -0.2002 -0.2149  0.1204
 4488W        W 8539   2.553   0.750   3.350  0.0373 -0.0686 -0.0132
 4489W        W 8540   9.400   4.212  12.055  0.2893  0.1049 -0.1417
 4490W        W 8541   1.389   1.351   1.662 -0.0022  0.0881 -0.1626
 4491W        W 8542   5.788   4.943   3.881  0.2124  0.3067  0.2850
 4492W        W 8543   8.647   9.154   0.235 -0.1596 -0.1129  0.0953
 4493W        W 8544   4.003   7.544   4.261 -0.1679 -0.1718 -0.1940
 4494W        W 8545   1.956   5.239  10.115 -0.2646 -0.1981 -0.3360
 4495W        W 8546   6.307   2.481   2.973  0.0330  0.1842  0.3998
 4496W        W 8547   0.323   0.037  12.214  0.1942 -0.2866  0.1496
 4497W        W 8548   2.240  10.036   9.145  0.2708 -0.1834 -0.1502
 4498W        W 8549   3.686   9.051   2.222 -0.2358  0.5416 -0.0731
 4499W        W 8550   5.354   9.312  11.358 -0.4352  0.0018  0.1173
 4500W        W 8551   5.178   7.353   1.355 -0.3463 -0.0262 -0.0124
 4501W        W 8552   0.001   5.333   0.224 -0.0292 -0.0872 -0.0641
 4502W        W 8553   6.155   8.607   2.582  0.0819  0.0209  0.3346
 4503W        W 8554   9.960   1.754  13.919 -0.0404  0.0058  0.1194
 4504W        W 8555   2.361   4.407  11.185 -0.1118 -0.5012  0.0398
 4505W        W 8556   1.970   0.076  13.977 -0.1723  0.0062  0.2635
 4506W        W 8557   0.094   3.036   3.853  0.0354  0.1687 -0.2923
 4507W        W 8558   7.042   2.494   6.082 -0.1385  0.2311 -0.3275
 4508W        W 8559   6.187   1.490  11.962  0.0584  0.3635  0.0545
 4509W        W 8560   7.059   4.719  10.952 -0.0199 -0.0444 -0.0741
 4510W        W 8561   0.981   8.453  10.351  0.0511 -0.0469 -0.1775
 4511W        W 8562   5.719   9.250  12.518 -0.2990  0.2779  0.1979
 4512W        W 8563   8.180   3.127  10.550 -0.0330  0.4839  0.2841
 4513W        W 8564   4.493   8.400   0.592 -0.0944 -0.0312 -0.1239
 4514W        W 8565   0.713   1.273   2.237 -0.3441  0.1701 -0.1747
 4515W        W 8566   2.389  10.040   3.757 -0.3529 -0.1982  0.2307
 4516W        W 8567   3.106   7.868  12.417 -0.2664 -0.1575 -0.0994
 4517W        W 8568   8.042   2.127   1.670 -0.0785  0.2618  0.0196
 4518W        W 8569   8.447   9.433   9.699  0.0073 -0.0191  0.3664
 4519W        W 8570   8.174   8.641   1.372 -0.0679  0.3692  0.1889
 4520W        W 8571   6.918   7.428   4.876  0.0328  0.0216  0.2598
 4521W        W 8572   5.100   3.941   3.427 -0.1176  0.0923  0.1529
 4522W        W 8573   5.549  10.030   1.523  0.5264 -0.0686 -0.0957
 4523W        W 8574   0.967   4.799   2.840 -0.0102 -0.0729  0.0532
 4524W        W 8575   8.335   8.260   1.793  0.0304 -0.1359  0.1793
 4525W        W 8576   5.657   8.834   2.768 -0.0582  0.1783  0.0445
 4526W        W 8577   8.955   0.264   4.790  0.0404 -0.0096  0.1369
 4527W        W 8578   1.014   3.679   1.442  0.1033 -0.2817  0.0230
 4528W        W 8579   0.585   7.334   9.630 -0.1304  0.2013 -0.2106
 4529W        W 8580   4.878   9.516  11.739 -0.0276  0.2404  0.2137
 4530W        W 8581   9.876   2.276   1.175  0.1059 -0.1062  0.1642
 4531W        W 8582   1.737   8.918   4.524  0.1678 -0.2857 -0.2543
 4532W        W 8583   9.453   3.989  13.726  0.0736  0.0855  0.0005
 4533W        W 8584   2.037   5.168  11.055  0.0049 -0.0300 -0.1380
 4534W        W 8585   6.153   3.521  12.150 -0.0812  0.2664 -0.0566
 4535W        W 8586   6.952   8.333   2.898 -0.0730 -0.2705 -0.0444
 4536W        W 8587   2.431   7.509  13.276 -0.1489 -0.4276 -0.0860
 4537W        W 8588   6.204   8.769  10.142 -0.1649  0.0964 -0.2864
 4538W        W 8589   1.972   0.434   0.559  0.1612  0.1812  0.0780
 4539W        W 8590   8.930   0.714   4.625  0.1091  0.1416 -0.0580
 4540W        W 8591   0.799   8.605  11.987 -0.0548 -0.0196  0.1139
 4541W        W 8592   6.995   9.419  12.556 -0.0912  0.0415 -0.2598
 4542W        W 8593   2.624   3.672  12.224 -0.1438  0.0028  0.3039
 4543W        W 8594   1.291  10.001   3.767  0.1710  0.1635  0.0717
 4544W        W 8595   0.927   0.589   8.648  0.1181  0.1774 -0.0363
 4545W        W 8596   7.244   4.566  10.559  0.0984 -0.0547 -0.1762
 4546W        W 8597   6.621   3.930   1.341  0.2526  0.0859  0.1697
 4547W        W 8598   0.850   0.696   1.581 -0.4810  0.2653  0.1189
 4548W        W 8599   1.152   0.508  13.128 -0.1675 -0.0483 -0.0349
 4549W        W 8600   6.050   3.093  12.825  0.2023 -0.0712  0.0418
 4550W        W 8601   5.831   7.811  12.275  0.2029  0.0109  0.2030
 4551W        W 8602   0.273   3.883  10.316 -0.1189  0.0667  0.1433
 4552W        W 8603   1.459   8.622   0.292 -0.0399  0.4061 -0.2557
 4553W        W 8604   0.190   1.404   9.524 -0.0430 -0.0457  0.2037
 4554W        W 8605   8.531   5.767   4.141  0.0346  0.4068 -0.1572
 4555W        W 8606  10.038   6.669  10.906 -0.0562 -0.0414 -0.0998
 4556W        W 8607   5.217   9.622   9.345 -0.0845  0.1657  0.0381
 4557W        W 8608   5.360   8.750  12.963 -0.6258 -0.1684 -0.0862
 4558W        W 8609   6.818   5.490   4.283  0.1751 -0.0875 -0.2314
 4559W        W 8610   7.297   3.642   4.137 -0.1660  0.2570  0.0533
 4560W        W 8611   9.114   3.567   2.955  0.3033 -0.1437  0.1387
 4561W        W 8612   4.304   7.888   1.429  0.0544 -0.1065 -0.0458
 4562W        W 8613   7.521   6.072  12.171 -0.0189  0.1382 -0.2829
 4563W        W 8614   2.180   1.313   4.632  0.5323 -0.0831  0.2448
 4564W        W 8615   0.380   0.620  12.243  0.0340  0.0207 -0.0492
 4565W        W 8616   8.086   4.893   2.014  0.0186  0.1463 -0.0068
 4566W        W 8617   2.261   0.780   3.816 -0.1265  0.2700  0.1813
 4567W        W 8618   6.105   2.056  10.754  0.2158  0.0380  0.0779
 4568W        W 8619   5.183   2.452  13.623 -0.2704  0.2252  0.1349
 4569W        W 8620   9.523  10.004   9.633  0.0304 -0.1374 -0.1315
 4570W        W 8621   4.177   8.155   2.865  0.3289 -0.1497 -0.1173
 4571W        W 8622   0.269   3.316   3.047  0.0031 -0.2175 -0.0738
 4572W        W 8623   0.096   1.880   4.395  0.3916  0.0615  0.0857
 4573W        W 8624   1.989   9.547  11.793 -0.1462  0.1840  0.1705
 4574W        W 8625   9.494   3.528  12.752 -0.1437 -0.1150  0.4394
 4575W        W 8626   6.123   6.552   5.828  0.2388 -0.2643  0.2907
 4576W        W 8627   1.819   9.176  13.234  0.2014  0.0726  0.0109
 4577W        W 8628   2.356   6.097  13.652 -0.2753 -0.1092  0.1536
 4578W        W 8629   8.209   8.097   2.220 -0.1072  0.1207 -0.1225
 4579W        W 8630   0.023   6.780   8.896  0.0713  0.2634 -0.0018
 4580W        W 8631   5.444   0.787   0.389 -0.1775  0.2568 -0.2423
 4581W        W 8632   4.449   7.617  11.896  0.2763 -0.3496 -0.4235
 4582W        W 8633   5.374   8.830   5.363 -0.0302  0.1375 -0.1920
 4583W        W 8634   9.990   1.021   3.563  0.0954  0.0741 -0.1868
 4584W        W 8635   0.380   4.047  11.001  0.0797  0.2526  0.3339
 4585W        W 8636   0.630   8.214   5.168 -0.3273  0.5227  0.1732
 4586W        W 8637   5.647   4.214   2.831 -0.0272 -0.0102  0.1188
 4587W        W 8638   4.895   9.159  12.497  0.0949 -0.0889  0.0421
 4588W        W 8639   7.102   8.000  11.276  0.0996 -0.0162 -0.2267
 4589W        W 8640   9.237   0.996  10.421  0.0102  0.0472  0.2032
 4590W        W 8641   3.115   9.711   3.557 -0.1524 -0.1386 -0.0335
 4591W        W 8642   5.825   6.460  11.556 -0.2397 -0.0044  0.3251
 4592W        W 8643   4.818   9.134   1.635 -0.0807 -0.0604 -0.0825
 4593W        W 8644   1.133   9.003   9.764 -0.0301  0.1252 -0.0757
 4594W        W 8645   5.198   9.906   3.677 -0.3297 -0.0113 -0.3307
 4595W        W 8646   1.264   1.617   2.490  0.1963 -0.0810 -0.0571
 4596W        W 8647   9.176   3.910  12.856 -0.0299  0.1616 -0.2421
 4597W        W 8648   1.657   6.062  10.466 -0.0655 -0.2935 -0.0124
 4598W        W 8649   2.041   4.521   0.548 -0.0915  0.1663 -0.0116
 4599W        W 8650   4.236   0.613   1.184  0.1567 -0.3983  0.0173
 4600W        W 8651   1.304   3.675   4.140 -0.1438 -0.1572 -0.0293
 4601W        W 8652   0.315   1.849  10.835  0.0163  0.0146  0.0726
 4602W        W 8653   0.256   0.344  10.172 -0.1034  0.2510  0.0495
 4603W        W 8654   2.043   3.569   2.157 -0.0060 -0.0748 -0.0629
 4604W        W 8655   6.006   4.330   0.182 -0.0638  0.2334 -0.0913
 4605W        W 8656   7.370   0.147  10.806 -0.1241 -0.3321 -0.0624
 4606W        W 8657   5.591   1.879   0.735 -0.2500  0.0897  0.1057
 4607W        W 8658   9.414   6.197  11.542 -0.1799  0.3934  0.2721
 4608W        W 8659   6.317   8.981   2.861  0.1331 -0.0124 -0.1602
 4609W        W 8660   6.639   0.235  13.366  0.2086 -0.1760 -0.0504
 4610W        W 8661   0.408   7.250  10.593 -0.0845 -0.2915 -0.0774
 4611W        W 8662   9.609   8.202  10.695 -0.0665 -0.0444 -0.1396
 4612W        W 8663   3.519   4.792   0.785  0.0709 -0.2822  0.0603
 4613W        W 8664   4.484   1.020   0.008 -0.2412  0.0559  0.2207
 4614W        W 8665   7.839   3.990   2.561 -0.0023  0.0007  0.2829
 4615W        W 8666   9.367   2.167  10.958 -0.0462 -0.1500 -0.2311
 4616W        W 8667   2.704   7.297   1.559 -0.0617 -0.1844 -0.0038
 4617W        W 8668   8.708   3.570   3.568 -0.2314  0.0793 -0.1601
 4618W        W 8669   0.604   3.596  13.831  0.2500  0.4318 -0.0074
 4619W        W 8670   5.611   8.650  12.170  0.0512  0.3753  0.0262
 4620W        W 8671   4.086   7.981  10.715  0.0123 -0.1706 -0.0265
 4621W        W 8672   9.315   9.449   2.264  0.0032 -0.1711  0.0134
 4622W        W 8673   3.329   4.677   8.941 -0.1654  0.0429 -0.3765
 4623W        W 8674   5.813   5.545   1.435  0.0541  0.1679  0.0343
 4624W        W 8675   1.370   4.973   4.319 -0.0355  0.4178  0.1954
 4625W        W 8676   4.641   6.712   3.399 -0.3058  0.0138  0.2741
 4626W        W 8677   2.986   3.257   9.926  0.0944  0.1939 -0.0621
 4627W        W 8678   7.509   2.558   3.632  0.2747  0.1174  0.2548
 4628W        W 8679   2.158   2.600  10.743  0.0114  0.1740 -0.0924
 4629W        W 8680   5.825   8.760  12.692 -0.2157 -0.2695 -0.0764
 4630W        W 8681   9.476   8.500   5.508 -0.1690  0.0488  0.1486
 4631W        W 8682   3.872   2.891  10.917 -0.0246 -0.2204 -0.1078
 4632W        W 8683   3.595   3.430   4.424  0.2309 -0.1405 -0.1777
 4633W        W 8684  10.111   8.540  11.783 -0.0366  0.2104 -0.0805
 4634W        W 8685   7.429   3.345   9.975 -0.2202 -0.1215  0.1486
 4635W        W 8686  10.119   9.674  12.319  0.2254 -0.1243  0.1271
 4636W        W 8687   5.369   1.248  13.049  0.1116 -0.1227  0.0423
 4637W        W 8688   5.955   9.161   2.561 -0.0770 -0.1599  0.0136
 4638W        W 8689   7.980   4.987   2.581  0.1237  0.1630  0.1102
 4639W        W 8690   0.410   5.486   1.287 -0.0439  0.0260 -0.0590
 4640W        W 8691   0.225   3.626   5.001 -0.0612  0.0115  0.0977
 4641W        W 8692   1.374   1.855  10.426 -0.1271  0.1775  0.1162
 4642W        W 8693   7.294   8.019   1.547  0.1573  0.2242  0.1313
 4643W        W 8694   1.338   0.566   3.873 -0.0951 -0.3121  0.0862
 4644W        W 8695   4.210   4.197  12.945  0.1114  0.3158  0.0539
 4645W        W 8696   6.429   0.390   2.463  0.0147  0.2797 -0.0701
 4646W        W 8697   2.018   1.399   0.673 -0.1337 -0.0521  0.0504
 4647W        W 8698   9.724   6.444   2.338  0.1110 -0.0806  0.1899
 4648W        W 8699   9.786   1.540   0.975 -0.1079  0.4455 -0.0998
 4649W        W 8700   2.839   5.878  13.700 -0.2674  0.0739 -0.4198
 4650W        W 8701   2.832   0.175   4.683  0.1224 -0.0255  0.5079
 4651W        W 8702   7.500   7.457   2.698 -0.2365 -0.0993  0.0114
 4652W        W 8703   0.822   0.288   3.623 -0.3224 -0.4038  0.0671
 4653W        W 8704   7.244   9.750  10.068 -0.0494  0.0631  0.1603
 4654W        W 8705   4.672   6.668  12.215  0.2809 -0.1347 -0.1665
 4655W        W 8706   5.400   4.737  10.837 -0.2311  0.1610 -0.0853
 4656W        W 8707   5.296   6.997   1.026 -0.1127 -0.0673 -0.0069
 4657W        W 8708   4.885   7.785   1.326 -0.3120 -0.0676 -0.2045
 4658W        W 8709   7.988   9.390   9.457  0.0782 -0.2323  0.1803
 4659W        W 8710   1.533   4.945   4.820 -0.4371 -0.0202 -0.3018
 4660W        W 8711   8.577   7.256   1.101 -0.0701  0.1779  0.1204
 4661W        W 8712   8.512   0.565   2.775 -0.0088 -0.1645  0.1411
 4662W        W 8713   7.217   3.024  10.281 -0.0192 -0.0576 -0.6217
 4663W        W 8714   6.386   0.042   0.662 -0.3571  0.1899 -0.2492
 4664W        W 8715  10.088   7.420   0.861 -0.0785  0.0607  0.0887
 4665W        W 8716   7.784   3.100  13.918 -0.0468 -0.0007  0.1431
 4666W        W 8717   2.489   5.171   2.628 -0.0915 -0.4163  0.1319
 4667W        W 8718   5.933   3.895   1.164 -0.1091  0.2672 -0.2090
 4668W        W 8719   2.541   2.984   0.573 -0.2446  0.1279 -0.1043
 4669W        W 8720   0.018   6.466  12.037  0.0558 -0.0644 -0.2035
 4670W        W 8721   7.549   0.030   1.379 -0.1529  0.0497 -0.0133
 4671W        W 8722   1.960   4.765   4.688 -0.2197 -0.1978 -0.3663
 4672W        W 8723   6.161   3.709   1.618 -0.2124 -0.0171 -0.2382
 4673W        W 8724   7.916   2.886  12.484  0.2096  0.1820 -0.0209
 4674W        W 8725   5.690   7.305   2.539  0.0421 -0.1207  0.0325
 4675W        W 8726   4.994   6.542  13.965  0.3373  0.3360  0.2158
 4676W        W 8727   7.684   9.564  11.953  0.1783 -0.1170  0.2407
 4677W        W 8728   3.672   9.374   1.306 -0.0611  0.0466 -0.1539
 4678W        W 8729   7.823   6.230   5.147 -0.2625 -0.0040  0.1065
 4679W        W 8730   8.983   1.801  13.506 -0.0485 -0.0897 -0.0296
 4680W        W 8731   8.394   1.873   0.141  0.1015 -0.0403  0.0413
 4681W        W 8732   5.931   6.614   0.711 -0.1647  0.1321 -0.3632
 4682W        W 8733   0.272   4.910   3.277  0.0601 -0.2216 -0.0428
 4683W        W 8734   8.699   5.204  13.239  0.0377 -0.0512  0.2335
 4684W        W 8735   8.113   5.462   2.698  0.1751  0.2135  0.3484
 4685W        W 8736   6.778   6.664  10.079  0.0181  0.0873 -0.2399
 4686W        W 8737   3.495   8.377  10.020  0.1817 -0.0549 -0.0320
 4687W        W 8738   8.354   8.618  10.235 -0.0156  0.0482 -0.1988
 4688W        W 8739   7.529   5.706  12.582  0.0336  0.1134  0.0163
 4689W        W 8740  10.112   1.097  11.510 -0.0566 -0.0371 -0.0555
 4690W        W 8741   4.010   9.040  12.025  0.2039  0.1199 -0.1620
 4691W        W 8742   0.762   6.501   2.622  0.2064  0.3300 -0.3169
 4692W        W 8743   6.636   9.035   1.874 -0.0214 -0.0687  0.3217
 4693W        W 8744   7.598   7.420  12.936  0.1092  0.0416  0.0608
 4694W        W 8745   2.539   3.153   2.343  0.0577  0.0896 -0.1380
 4695W        W 8746   6.966   8.312   9.324  0.1397  0.0760 -0.0264
 4696W        W 8747   7.165   9.302  11.324 -0.4426 -0.0341  0.0436
 4697W        W 8748   9.965   6.912   9.717  0.3224  0.4771  0.0276
 4698W        W 8749   0.285  10.112   2.982  0.0192  0.1299  0.1097
 4699W        W 8750   7.155   9.313   3.067  0.1499 -0.2074  0.0850
 4700W        W 8751   9.966   5.707   0.718  0.1787  0.1351 -0.2820
 4701W        W 8752   4.212   6.165   0.723 -0.1385  0.2821  0.1773
 4702W        W 8753   9.167   8.590  12.272 -0.1199 -0.4183  0.0416
 4703W        W 8754   2.118   3.200  10.000  0.2537 -0.2769  0.0400
 4704W        W 8755   2.016   1.734   9.910 -0.2209 -0.0635  0.1061
 4705W        W 8756   9.333   2.759  10.157  0.1321  0.1525 -0.1044
 4706W        W 8757   3.919   3.220  11.289  0.2391 -0.0945 -0.1807
 4707W        W 8758   9.840   1.146   2.057  0.1548  0.1863  0.2061
 4708W        W 8759   0.749   8.663   3.538  0.2500  0.1537  0.0621
 4709W        W 8760   1.653   1.315   3.227 -0.3861 -0.1530  0.0642
 4710W        W 8761   7.380   9.800   1.655  0.1566 -0.1991 -0.1014
 4711W        W 8762   8.705   4.889   5.324 -0.3237 -0.0665 -0.3986
 4712W        W 8763   1.561   1.317  11.651  0.0021 -0.0589 -0.0810
 4713W        W 8764   4.462   7.260  13.524 -0.3826 -0.0268 -0.0589
 4714W        W 8765   4.804   3.826   0.550 -0.2749  0.0138 -0.0124
 4715W        W 8766   7.943   5.939   3.971  0.1359 -0.0840  0.1863
 4716W        W 8767   0.222   8.655   3.161  0.2657  0.1332  0.1430
 4717W        W 8768   4.927   9.503  10.120  0.1494 -0.0929 -0.0499
 4718W        W 8769   1.204   4.165   5.465 -0.0432 -0.1016 -0.3176
 4719W        W 8770   4.197   5.979   4.706 -0.2496 -0.0142  0.0286
 4720W        W 8771   4.268   5.362  12.647 -0.1734  0.0029  0.1971
 4721W        W 8772   2.482   4.118   0.393  0.1345  0.1265 -0.1643
 4722W        W 8773   3.210   0.061   1.465  0.0568  0.3062 -0.0031
 4723W        W 8774   4.277   6.341  10.510 -0.1154 -0.1310 -0.0630
 4724W        W 8775   8.311   6.165   4.892  0.0589 -0.0875  0.0092
 4725W        W 8776   4.155   3.678  13.982  0.2650 -0.1298  0.1403
 4726W        W 8777   8.702   2.651  11.392  0.0882  0.0451  0.0079
 4727W        W 8778   1.820   4.264  11.691 -0.1482 -0.1026  0.0536
 4728W        W 8779   2.440   1.588  11.970 -0.1829 -0.0647 -0.0299
 4729W        W 8780   5.658   8.048   9.570  0.0521  0.3106 -0.2647
 4730W        W 8781   6.814   8.917   3.113  0.0184  0.0101 -0.1518
 4731W        W 8782   9.450   7.798  12.079  0.0171  0.0603 -0.1008
 4732W        W 8783   7.774   6.140  10.876 -0.0181 -0.0146 -0.1281
 4733W        W 8784   7.282   6.154  12.655  0.1343 -0.0033  0.0314
 4734W        W 8785   2.225   4.005   3.992 -0.0061 -0.2384  0.4734
 4735W        W 8786   9.287   2.920  11.472  0.0295  0.1988 -0.0310
 4736W        W 8787   7.102   4.627   1.934  0.1059  0.1395 -0.0142
 4737W        W 8788   1.040   7.086   9.375 -0.1896 -0.3527  0.1431
 4738W        W 8789   6.221   4.150   3.321  0.0832  0.2787 -0.0460
 4739W        W 8790   1.967   8.379  11.526  0.3149 -0.1076  0.0321
 4740W        W 8791   0.753   1.111  10.287 -0.1697 -0.1295 -0.0763
 4741W        W 8792   6.926   8.141   1.138 -0.0620  0.2011  0.0754
 4742W        W 8793   5.691   8.350  12.965 -0.1155  0.2005 -0.0352
 4743W        W 8794   8.028   9.764   0.810  0.2101  0.1931 -0.2963
 4744W        W 8795   3.983   6.482   2.718 -0.2757  0.1429 -0.2650
 4745W        W 8796   5.607   7.406   0.851 -0.1457 -0.4087  0.0156
 4746W        W 8797   9.434   1.955   1.908  0.2153 -0.0970  0.3033
 4747W        W 8798   5.112   4.383  12.293  0.0359 -0.1520  0.1628
 4748W        W 8799   9.234   9.438   9.289 -0.0656 -0.1904 -0.0044
 4749W        W 8800   7.954   5.495  13.813  0.1203  0.2352  0.1021
 4750W        W 8801   1.023   6.009  13.271 -0.0170  0.1410 -0.1999
 4751W        W 8802   8.438   8.940   9.400  0.2167 -0.1530  0.0834
 4752W        W 8803   1.645   3.502   2.486 -0.1781  0.1099  0.0802
 4753W        W 8804   3.483   4.165   1.261  0.1741 -0.0192  0.1409
 4754W        W 8805   4.821   8.958   3.788 -0.0230 -0.0850  0.3252
 4755W        W 8806   1.222   9.083   5.192  0.3789 -0.1318 -0.1507
 4756W        W 8807  10.004   6.242   9.018  0.1493 -0.6417  0.0946
 4757W        W 8808   0.690   1.524  11.373 -0.0747  0.1549 -0.2047
 4758W        W 8809   6.982   1.264   1.257 -0.1334  0.1421  0.3657
 4759W        W 8810   2.651   2.387   1.432  0.1195  0.4250 -0.0678
 4760W        W 8811   2.994   0.110   1.922 -0.2806 -0.0308 -0.4459
 4761W        W 8812   8.134   7.128   1.208  0.1529  0.3567 -0.0566
 4762W        W 8813   1.270  10.056  11.833 -0.3269 -0.3135  0.0790
 4763W        W 8814   8.469   4.721   2.623  0.0880  0.0635  0.3628
 4764W        W 8815   2.821   1.102  11.179 -0.1493 -0.1223  0.4811
 4765W        W 8816   5.266   5.186  13.388 -0.1411  0.0845 -0.4118
 4766W        W 8817   2.120   3.311   4.710  0.1188  0.5354 -0.2169
 4767W        W 8818   9.349   5.084   9.588  0.2237  0.1586 -0.1221
 4768W        W 8819   5.134   4.508   4.125 -0.2050 -0.2910  0.2810
 4769W        W 8820   0.110   7.197  12.129 -0.2938 -0.1393  0.2660
 4770W        W 8821   6.180   2.465   1.050  0.0316  0.2895  0.2572
 4771W        W 8822   5.712   7.832   2.629  0.2183 -0.2317  0.2775
 4772W        W 8823   9.736   7.340   2.429  0.0827  0.2998 -0.2860
 4773W        W 8824   5.925   8.680   3.675 -0.0968 -0.1729  0.0792
 4774W        W 8825   5.465   1.367   3.067 -0.1069 -0.1328 -0.0411
 4775W        W 8826   5.020   0.094   2.502  0.2230 -0.2266 -0.0509
 4776W        W 8827   7.730   1.448   0.740 -0.1610 -0.1291  0.3571
 4777W        W 8828   8.496   4.818  11.043  0.0513 -0.0154  0.1558
 4778W        W 8829   6.476   4.993   1.572  0.1356  0.1841 -0.2294
 4779W        W 8830   8.832   7.114   3.847  0.2207  0.2778  0.4375
 4780W        W 8831   9.503   4.086  11.414  0.1213 -0.0785  0.1062
 4781W        W 8832   8.134   8.946   3.152 -0.1958  0.0975  0.2898
 4782W        W 8833   9.266   1.364   3.544 -0.0138  0.0249  0.0412
 4783W        W 8834   8.767   3.189   1.782 -0.0829 -0.2327  0.1537
 4784W        W 8835   6.990   5.657   1.684  0.2852 -0.0578 -0.0047
 4785W        W 8836   6.651   4.890   9.921 -0.5636 -0.1590  0.3981
 4786W        W 8837   1.054   6.249   0.988  0.0426  0.4502 -0.0244
 4787W        W 8838   2.040   4.304   4.379  0.0037 -0.0258  0.1210
 4788W        W 8839   7.400   8.574   9.459  0.1793 -0.1181 -0.0453
 4789W        W 8840   4.843   2.363   1.342 -0.1042 -0.0518  0.0593
 4790W        W 8841   3.090   8.228   4.357  0.0111 -0.1618  0.2352
 4791W        W 8842   3.252   0.890   9.497  0.1277  0.3071  0.0665
 4792W        W 8843   5.171   7.689   4.889  0.1876 -0.3614  0.0535
 4793W        W 8844   3.285   8.498   3.631 -0.3791  0.2200  0.0706
 4794W        W 8845   4.028   8.344  11.754 -0.0413 -0.1451  0.2269
 4795W        W 8846   3.382   3.688  10.677 -0.1953  0.1857  0.0183
 4796W        W 8847   5.629   9.294   9.000  0.4397 -0.0275 -0.1095
 4797W        W 8848   7.189  10.048   9.110 -0.0623 -0.0850 -0.1777
 4798W        W 8849   4.653   5.765   1.560  0.0382 -0.1285 -0.2584
 4799W        W 8850   7.935   9.588   9.027 -0.1284  0.3844  0.0676
 4800W        W 8851   0.458   5.671   9.194  0.0159 -0.1190  0.1428
 4801W        W 8852   9.690   9.923   1.304 -0.3503  0.3227  0.1434
 4802W        W 8853   4.419   0.777   1.830 -0.0980  0.0784  0.1269
 4803W        W 8854   2.019   1.788  11.907 -0.0933 -0.0532  0.3647
 4804W        W 8855   2.874   1.411  10.216 -0.0069  0.7148  0.0808
 4805W        W 8856   6.476   5.515   0.707  0.0172  0.0667  0.0033
 4806W        W 8857   5.201   1.526   0.900 -0.0410  0.1597  0.1039
 4807W        W 8858   6.761   7.192  10.048  0.1385 -0.3298 -0.0222
 4808W        W 8859   6.126   4.856   3.187 -0.2461 -0.3819  0.0525
 4809W        W 8860   8.886   6.532  10.423 -0.0147  0.1345 -0.2770
 4810W        W 8861   1.498   0.113  12.208  0.0061  0.2274  0.1083
 4811W        W 8862   1.314   2.668  12.207 -0.3184  0.2087 -0.1756
 4812W        W 8863   9.790   3.600   0.838 -0.4149  0.1791  0.1150
 4813W        W 8864   2.304   4.774   0.875  0.2909  0.1765  0.2028
 4814W        W 8865   5.986   2.419  13.834 -0.1127 -0.2389  0.0191
 4815W        W 8866   4.890   8.553   0.890  0.3600  0.2583  0.1853
 4816W        W 8867   0.289   0.582   2.877  0.1544 -0.1824  0.1093
 4817W        W 8868   2.133   9.048  11.504 -0.1944  0.1735 -0.0651
 4818W        W 8869   4.192   4.857   9.528  0.2343 -0.0443  0.0750
 4819W        W 8870   3.101   5.535  10.752  0.1412 -0.0688 -0.1653
 4820W        W 8871   9.841   3.379   0.352 -0.0225 -0.0935 -0.0282
 4821W        W 8872   1.606   7.542   8.172  0.2498 -0.3074  0.0105
 4822W        W 8873   9.965   9.869  11.174  0.3386  0.1790  0.2122
 4823W        W 8874   2.098   1.290  11.785 -0.0476  0.4551  0.0035
 4824W        W 8875   0.837   0.378  12.435 -0.3417 -0.0468  0.1696
 4825W        W 8876   2.872   8.063   9.529  0.3957  0.1749  0.1597
 4826W        W 8877   4.021   9.351   2.568  0.0543 -0.1974 -0.2961
 4827W        W 8878   6.499   1.148   0.317 -0.3560  0.4083  0.1827
 4828W        W 8879   7.469   2.014   3.449  0.0083 -0.0194  0.2046
 4829W        W 8880   7.464   5.792  11.736 -0.2625 -0.0718  0.1649
 4830W        W 8881   1.596   8.122   2.023  0.0616 -0.2084 -0.3734
 4831W        W 8882   7.957   5.044   4.222  0.1303  0.1104 -0.2441
 4832W        W 8883   7.626   7.899   3.817 -0.0670  0.0631 -0.1385
 4833W        W 8884   1.214   5.829  11.381 -0.2703  0.1831 -0.0674
 4834W        W 8885   3.642   9.844   1.547  0.0549  0.0060 -0.1574
 4835W        W 8886   8.648   2.086   2.411 -0.0895  0.1480 -0.0009
 4836W        W 8887   9.048   7.251   8.441  0.3230 -0.0227 -0.4601
 4837W        W 8888   6.956   1.522  10.890  0.1139 -0.0860 -0.1056
 4838W        W 8889   9.878   0.583   1.171  0.0654 -0.2963 -0.2604
 4839W        W 8890   9.265   5.235   0.458 -0.2792  0.1884 -0.0115
 4840W        W 8891   4.740   9.945   3.932 -0.1463 -0.0268 -0.0090
 4841W        W 8892   1.940   4.101  12.843 -0.1910  0.0159  0.0120
 4842W        W 8893   9.447   0.092  11.607  0.1425  0.0610  0.2350
 4843W        W 8894   0.836   8.611  12.567  0.1243 -0.3662  0.1394
 4844W        W 8895   0.592   2.515   9.061 -0.1837  0.1286  0.3579
 4845W        W 8896   2.504   1.986   5.042  0.1466 -0.2145  0.1270
 4846W        W 8897   1.752   5.073   0.165 -0.0030  0.1114 -0.1176
 4847W        W 8898   6.210   7.939   3.968 -0.0134  0.1256  0.0826
 4848W        W 8899   9.896   0.722   4.026 -0.1319  0.1393  0.0163
 4849W        W 8900   2.371   2.522  13.039  0.1726 -0.3418  0.1137
 4850W        W 8901   2.860   7.581  10.185  0.2769 -0.0208 -0.1733
 4851W        W 8902   1.960   0.465   9.790 -0.3668 -0.1154  0.2093
 4852W        W 8903   4.072   8.301   4.976  0.1356 -0.4376  0.1205
 4853W        W 8904   7.670   9.569   2.742 -0.1427  0.2152  0.2784
 4854W        W 8905   7.453   8.442  10.153 -0.1072  0.1606  0.4909
 4855W        W 8906   6.284   1.195   2.318 -0.0287 -0.1652  0.1300
 4856W        W 8907   9.288   8.108   0.794 -0.2746 -0.1940 -0.0368
 4857W        W 8908   2.808   4.309   2.773  0.0595 -0.3629 -0.0919
 4858W        W 8909   6.213   4.169  13.198 -0.1863  0.0616  0.1104
 4859W        W 8910   8.360   0.032  12.153  0.0831  0.1052 -0.0363
 4860W        W 8911   3.175   5.976   0.905 -0.1969 -0.2018 -0.2837
 4861W        W 8912   2.079   7.427  12.887 -0.0773 -0.1147  0.2844
 4862W        W 8913   8.886   6.724   5.589 -0.3353  0.4397  0.0056
 4863W        W 8914   7.435   3.137   2.442 -0.0558 -0.0419 -0.1790
 4864W        W 8915   4.671   1.051   2.252  0.0526  0.0482 -0.2163
 4865W        W 8916   4.934   8.546  13.171 -0.1428  0.0909 -0.1622
 4866W        W 8917   4.683   3.078   3.269 -0.0616 -0.0957 -0.1668
 4867W        W 8918   7.995   7.370  12.651 -0.1456 -0.0044  0.0042
 4868W        W 8919   6.629   9.041   0.743 -0.0410 -0.0709  0.0204
 4869W        W 8920   7.327   5.365   4.347 -0.1848  0.2690  0.2894
 4870W        W 8921   0.736   9.033  11.329 -0.3809 -0.0657 -0.0148
 4871W        W 8922   5.578   0.809   1.322  0.1195  0.1283  0.1084
 4872W        W 8923   8.651   1.703  11.468 -0.0227 -0.1438  0.0418
 4873W        W 8924   2.549   6.060  13.165 -0.0215  0.1561  0.0600
 4874W        W 8925   3.456   4.193   9.167 -0.1038  0.0161 -0.0620
 4875W        W 8926   8.122   0.911   3.058 -0.1226  0.1140 -0.2339
 4876W        W 8927   0.807   7.782   1.498 -0.1472  0.0815  0.0157
 4877W        W 8928   1.140   4.356   3.509 -0.1358 -0.1660  0.0864
 4878W        W 8929   7.845   8.392  12.386  0.1316  0.0926 -0.1164
 4879W        W 8930   1.562   4.189  10.583 -0.0027  0.1696  0.2253
 4880W        W 8931   7.474   5.280  11.458  0.1720 -0.1104  0.1066
 4881W        W 8932   7.722   7.274  10.047  0.2064 -0.1080  0.2066
 4882W        W 8933   0.358   1.913   3.119 -0.1274 -0.1553 -0.0632
 4883W        W 8934   4.103   6.531   9.857  0.1723  0.2171  0.1921
 4884W        W 8935   9.449   9.169  13.093  0.1456 -0.1964  0.0766
 4885W        W 8936   8.625   6.076  12.139  0.2864  0.2508 -0.2204
 4886W        W 8937   7.032   2.365   3.606 -0.0776  0.2840  0.0037
 4887W        W 8938  10.060   7.115  10.626 -0.3101  0.2549 -0.0387
 4888W        W 8939   3.223  10.129  10.331 -0.2304 -0.4070  0.1469
 4889W        W 8940   0.828   2.709  12.069 -0.3121  0.1839  0.2262
 4890W        W 8941   8.988   4.743  12.008  0.1925 -0.0652 -0.3470
 4891W        W 8942   7.888   6.864   3.506 -0.0401 -0.0292  0.0771
 4892W        W 8943   1.923   1.865  12.454  0.2069 -0.1375 -0.1633
 4893W        W 8944   4.206   4.192   4.383 -0.3228  0.0546 -0.0589
 4894W        W 8945   9.843   7.080   8.728 -0.3994 -0.1142  0.1388
 4895W        W 8946   0.315   3.087   1.983  0.3394 -0.0231 -0.0172
 4896W        W 8947   7.457   8.829   2.135 -0.1360 -0.0147 -0.3502
 4897W        W 8948   4.156   0.744  13.832  0.2140 -0.3287 -0.0729
 4898W        W 8949   8.441   4.698   1.673  0.0216  0.0162  0.1842
 4899W        W 8950   1.035   2.634   9.699 -0.3064  0.0128 -0.1897
 4900W        W 8951   4.845   1.877   1.174 -0.0609  0.0324  0.0176
 4901W        W 8952   0.461   9.899   1.679  0.0657  0.0734  0.0082
 4902W        W 8953   5.157   4.309  10.939 -0.2308  0.0146  0.0133
 4903W        W 8954   9.128   8.651  13.675  0.0824 -0.3579 -0.2210
 4904W        W 8955   8.751   5.695   0.196 -0.1749 -0.0116 -0.0489
 4905W        W 8956   1.890   2.886   0.159 -0.0014 -0.0460  0.0944
 4906W        W 8957   3.953   3.998  12.526 -0.0667 -0.1820 -0.1197
 4907W        W 8958   0.925   2.212  12.334  0.0111  0.0381  0.1147
 4908W        W 8959   7.385   8.101   9.592 -0.3426  0.1149  0.2616
 4909W        W 8960   6.865   5.192   2.038 -0.0191  0.3912 -0.0545
 4910W        W 8961   7.072   6.221   0.605 -0.1977 -0.0671 -0.0932
 4911W        W 8962   4.408   7.173   9.273  0.0876 -0.1498  0.2258
 4912W        W 8963   6.955   8.157   9.814  0.2574 -0.1833 -0.1118
 4913W        W 8964   5.172   1.580  14.024 -0.0296  0.0958  0.1397
 4914W        W 8965   4.584   5.095  10.640  0.0843  0.1239 -0.3203
 4915W        W 8966   9.749   3.707  10.441  0.0580  0.0114 -0.1894
 4916W        W 8967   3.285   5.519   0.774  0.1387  0.0167  0.0311
 4917W        W 8968   7.239   7.161   0.895 -0.1009  0.0044 -0.2936
 4918W        W 8969   5.282   6.894   4.797  0.1013  0.1265  0.1258
 4919W        W 8970   9.801   9.379   5.183  0.2239  0.2617 -0.1809
 4920W        W 8971   1.572   9.666   2.442  0.0639 -0.1904 -0.0744
 4921W        W 8972   1.352   3.556   1.141 -0.3258 -0.4088 -0.0377
 4922W        W 8973   6.623   1.668  12.070 -0.1623  0.1255  0.2224
 4923W        W 8974   4.726   6.566   2.172  0.0866  0.1735  0.1363
 4924W        W 8975   5.867   4.864  10.047 -0.1381  0.1063  0.3550
 4925W        W 8976   0.450   1.579   4.242  0.0173  0.2598 -0.2310
 4926W        W 8977   0.416   4.628   2.796  0.1758 -0.0816 -0.0504
 4927W        W 8978   1.372   0.073  13.264  0.3162  0.1181  0.0365
 4928W        W 8979   0.396   3.524   4.519 -0.1293 -0.2178  0.0471
 4929W        W 8980   9.986   8.155   5.063 -0.4408 -0.0020  0.0827
 4930W        W 8981   3.158   6.775   0.574  0.0828 -0.4365 -0.0180
 4931W        W 8982   5.197   3.250  12.305 -0.1927  0.1357  0.1863
 4932W        W 8983   9.305   5.299  11.229 -0.0889 -0.3983 -0.2619
 4933W        W 8984   5.446   4.712  13.352  0.1265 -0.0565 -0.1581
 4934W        W 8985   8.066   3.846   2.043  0.1857  0.2248  0.2401
 4935W        W 8986   7.619   4.881  13.235  0.0246 -0.0294 -0.0427
 4936W        W 8987   4.117   5.877  12.660 -0.0158  0.1207 -0.1106
 4937W        W 8988   6.260   4.934   3.863 -0.3880 -0.0196  0.0800
 4938W        W 8989   2.531   1.527   3.324  0.2703 -0.1077 -0.2044
 4939W        W 8990   2.677   0.999   1.935 -0.0851  0.1036  0.2883
 4940W        W 8991   2.836   9.507  11.653  0.0725 -0.1307  0.2612
 4941W        W 8992   6.912   2.171  11.201 -0.1781 -0.0352 -0.3573
 4942W        W 8993   6.842   4.844   3.815 -0.0426  0.1682 -0.4117
 4943W        W 8994   1.665   4.335   9.451  0.1238  0.0138 -0.1054
 4944W        W 8995   6.913   4.013   1.737 -0.0618 -0.1770  0.2872
 4945W        W 8996   2.345   9.328   9.878 -0.0729 -0.3261 -0.2209
 4946W        W 8997   8.328   1.438  11.716  0.0078  0.0832 -0.0233
 4947W        W 8998   5.507   1.940   0.207  0.0603  0.0733  0.3411
 4948W        W 8999   1.657   1.673   1.270  0.0619  0.1326  0.1847
 4949W        W 9000   7.925   6.509   4.273 -0.0446 -0.0987 -0.0631
 4950W        W 9001   5.850   1.062  13.000 -0.0333 -0.2732 -0.2884
 4951W        W 9002   4.798   4.189  13.772 -0.0792  0.0630  0.1633
 4952W        W 9003   0.263   9.012  11.226  0.2064 -0.1470 -0.0834
 4953W        W 9004   0.799   8.627   9.912  0.3000  0.1086  0.2038
 4954W        W 9005   9.112   3.327  13.091  0.1837 -0.0454 -0.4025
 4955W        W 9006   7.712   6.011   3.503 -0.1923  0.1726 -0.4529
 4956W        W 9007   0.838   7.121  13.420 -0.2532  0.2386  0.5018
 4957W        W 9008   4.050   3.329   4.472  0.0194  0.1101  0.3323
 4958W        W 9009   5.544   0.608   3.835 -0.5793  0.0486 -0.2383
 4959W        W 9010   4.125   1.121  10.917 -0.5374 -0.0814  0.0079
 4960W        W 9011   7.888   3.612  13.070 -0.0586 -0.3566  0.4495
 4961W        W 9012   0.916   4.979   1.293  0.1826  0.1932 -0.1151
 4962W        W 9013   0.802   8.337   1.131  0.0950 -0.2667 -0.0882
 4963W        W 9014   5.082   1.709   2.925  0.5386  0.1403 -0.0253
 4964W        W 9015   7.441   7.126   3.588  0.0895 -0.1371 -0.2133
 4965W        W 9016   5.418   3.998  12.557  0.3611 -0.1545  0.0944
 4966W        W 9017   4.487   2.276  11.293 -0.1058  0.0375  0.3781
 4967W        W 9018   0.816  10.005   3.863  0.0278  0.0975 -0.1979
 4968W        W 9019   7.052   1.759   2.776  0.1821 -0.0254  0.0108
 4969W        W 9020   9.283   5.276   3.616  0.1996 -0.1490  0.1298
 4970W        W 9021   5.460   4.561   1.700  0.3099  0.0815 -0.0612
 4971W        W 9022   9.117   0.507  11.672  0.1178 -0.1824 -0.3238
 4972W        W 9023   1.624   6.230  11.538 -0.1885 -0.2011 -0.0363
 4973W        W 9024   0.770   9.186  12.351  0.1083  0.1054  0.0207
 4974W        W 9025   0.484   8.979   1.935  0.1263 -0.2505 -0.1626
 4975W        W 9026   0.899   0.254  13.565 -0.0079  0.1404 -0.1001
 4976W        W 9027   7.924   1.034   9.855  0.0123 -0.0976  0.0907
 4977W        W 9028   2.662   3.174   1.150  0.1391  0.3915  0.1602
 4978W        W 9029   1.526   1.058   1.311 -0.3085 -0.0326 -0.4121
 4979W        W 9030   4.039   8.695   1.977 -0.2019  0.1677 -0.0660
 4980W        W 9031   7.138   4.081  12.955  0.4192 -0.3706  0.1265
 4981W        W 9032   9.715   9.260   9.182  0.0779 -0.1504  0.0667
 4982W        W 9033   0.355   7.218  11.355 -0.0182  0.1444 -0.0926
 4983W        W 9034   0.664   2.035  13.640 -0.0938 -0.0505 -0.2702
 4984W        W 9035   0.255   9.819  10.933  0.1107 -0.0504  0.1676
 4985W        W 9036   2.310   2.830   4.156  0.1302  0.1278 -0.1442
 4986W        W 9037   5.428   2.683   1.641 -0.1620  0.2284 -0.2658
 4987W        W 9038   7.414   8.894   0.924  0.1872  0.1038  0.1889
 4988W        W 9039   0.766   1.922   4.068 -0.1626 -0.3580  0.0690
 4989W        W 9040   0.487   4.906  13.426 -0.1259  0.1085  0.3325
 4990W        W 9041   9.652   5.290   0.752 -0.1480 -0.0534  0.0470
 4991W        W 9042   7.161   0.174   1.706 -0.2286 -0.1201 -0.0820
 4992W        W 9043   9.712   0.206   4.014 -0.0126  0.0851 -0.4362
 4993W        W 9044   4.970   3.972  13.346  0.0303  0.0885 -0.3583
 4994W        W 9045   4.379   6.231   1.258  0.3451  0.0403  0.0536
 4995W        W 9046   7.178   3.406  12.070  0.1161  0.0277  0.1190
 4996W        W 9047   1.907   0.091  12.718 -0.2076 -0.0274  0.0985
 4997W        W 9048   1.113   0.189   2.795 -0.0850 -0.0158 -0.2709
 4998W        W 9049  10.063   3.323   1.260  0.0460 -0.0268  0.2065
 4999W        W 9050   2.331   9.119   2.106 -0.0132  0.1292  0.0225
 5000W        W 9051   8.834   7.509   0.140  0.2634 -0.1140  0.0717
 5001W        W 9052   4.599   2.059  12.288 -0.1407 -0.0023  0.2502
 5002W        W 9053   4.749   8.914   2.590  0.0677 -0.0707 -0.0647
 5003W        W 9054   5.711   6.306   2.793  0.1455  0.1080  0.2404
 5004W        W 9055   8.619   6.424  11.045 -0.2030 -0.1343  0.1179
 5005W        W 9056   1.568   1.348  10.053 -0.0244  0.1692 -0.0980
 5006W        W 9057   6.052   7.831  10.923 -0.1936 -0.0943 -0.1387
 5007W        W 9058   7.542   2.670  13.806  0.3340 -0.1660  0.0849
 5008W        W 9059   0.399   1.686   4.828 -0.2117 -0.3357 -0.0410
 5009W        W 9060   0.686   8.925   9.540 -0.0764  0.0081  0.1927
 5010W        W 9061   6.991   5.731  11.941 -0.3428  0.0345 -0.2638
 5011W        W 9062   8.440   4.723   1.045 -0.0671 -0.1076  0.1559
 5012W        W 9063   4.066   1.273  11.810 -0.2469 -0.3853 -0.0776
 5013W        W 9064   3.376   4.588   9.563 -0.3793  0.0891 -0.2627
 5014W        W 9065   1.629   4.834   9.528 -0.1196  0.0138 -0.2480
 5015W        W 9066   4.496   8.742  13.254 -0.2102 -0.2711 -0.0589
 5016W        W 9067   3.541   9.410  12.332  0.1704  0.1689 -0.0277
 5017W        W 9068   3.365   6.169   2.274 -0.2961 -0.0856  0.2463
 5018W        W 9069   3.222   5.313  10.236 -0.1092 -0.2193 -0.0671
 5019W        W 9070   7.091   6.853   9.761  0.0720 -0.0383  0.0118
 5020W        W 9071   8.468   1.521   2.410  0.0545  0.0390 -0.0060
 5021W        W 9072   0.724   9.434   2.859 -0.0183 -0.1563 -0.2511
 5022W        W 9073   2.649   2.428   4.112 -0.1764 -0.1205 -0.1704
 5023W        W 9074   2.684   5.611   4.690 -0.0073 -0.3575  0.0605
 5024W        W 9075   3.211   9.981  12.405  0.3700  0.3123  0.1994
 5025W        W 9076   5.089   3.700  10.189 -0.0948 -0.0227 -0.0032
 5026W        W 9077   0.636   5.695   2.556  0.0368 -0.0337 -0.0609
 5027W        W 9078   6.505   7.034   4.808 -0.1243  0.0685 -0.1568
 5028W        W 9079   6.586   9.007  10.544 -0.3226 -0.0591 -0.1521
 5029W        W 9080   8.502   4.386  13.804 -0.1644 -0.0461  0.1004
 5030W        W 9081   5.321   5.109   2.628 -0.0627  0.1221  0.1770
 5031W        W 9082   5.313   4.582  11.341  0.1047 -0.2435  0.0107
 5032W        W 9083   4.883   1.336  13.415  0.0582  0.1247 -0.0217
 5033W        W 9084   0.012   2.879   0.430  0.2724 -0.2759  0.0517
 5034W        W 9085   2.486   7.169   0.471 -0.5312 -0.1725  0.0896
 5035W        W 9086   4.242   2.603  13.220 -0.0030 -0.1884  0.0950
 5036W        W 9087   7.492   3.526  14.084  0.0059  0.1748 -0.0578
 5037W        W 9088   9.959   8.900  13.452 -0.2150 -0.1156  0.4213
 5038W        W 9089   7.161   4.822   9.699 -0.1737  0.1659  0.1239
 5039W        W 9090   9.840   6.508   1.748 -0.2355 -0.1509 -0.1405
 5040W        W 9091   7.516   1.865  11.297 -0.3914 -0.1170 -0.0649
 5041W        W 9092   3.740  10.086  12.704 -0.1868 -0.0900  0.1567
 5042W        W 9093   2.777   4.634  13.159 -0.2463 -0.2215 -0.1949
 5043W        W 9094   2.145   2.697  10.026 -0.0191 -0.1651  0.1865
 5044W        W 9095   4.996   8.825   0.446  0.1350 -0.5203  0.0027
 5045W        W 9096   2.699   5.339  13.595  0.2631 -0.0205 -0.1037
 5046W        W 9097   9.454   0.655   2.895  0.1252  0.2507  0.0300
 5047W        W 9098   4.781   4.519   9.870 -0.1800  0.0577  0.1521
 5048W        W 9099   6.744   7.520  14.068 -0.1768 -0.2643  0.2676
 5049W        W 9100   0.646   7.668   0.091 -0.5841  0.0455  0.0575
 5050W        W 9101   7.685   4.326   3.637  0.0478 -0.7487  0.2161
 5051W        W 9102   3.435   6.233   1.740  0.1624  0.0449  0.2953
 5052W        W 9103   0.505   8.530   1.600  0.0810 -0.1811  0.1044
 5053W        W 9104   7.492   1.596  12.224  0.0458  0.0298  0.0454
 5054W        W 9105   5.720   9.175   1.060 -0.0600  0.0566 -0.4984
 5055W        W 9106   4.010  10.140   0.919  0.0511 -0.0446 -0.1070
 5056W        W 9107   2.254   5.669   4.005  0.1464  0.1979  0.0492
 5057W        W 9108   8.080   3.816  10.941  0.1186  0.1674  0.0257
 5058W        W 9109   3.094   6.863   3.057 -0.0074  0.0040  0.1198
 5059W        W 9110   0.917   4.163  12.840  0.1173 -0.0236 -0.1202
 5060W        W 9111   9.610   4.964   2.054 -0.2043  0.2591 -0.2026
 5061W        W 9112   7.569   0.175   2.182 -0.1001 -0.1530 -0.1999
 5062W        W 9113   7.430   4.041  13.863 -0.0278 -0.3389 -0.1631
 5063W        W 9114   0.525   3.099   3.442  0.1740 -0.2995  0.0457
 5064W        W 9115   8.591   6.673   0.049 -0.2003  0.1094 -0.2340
 5065W        W 9116   2.848   9.938  12.776  0.0073  0.1834 -0.0157
 5066W        W 9117   7.431   2.992   3.964  0.1730 -0.0868  0.2561
 5067W        W 9118   7.123   8.336   4.529 -0.0080 -0.0435 -0.1251
 5068W        W 9119   0.089   4.322   0.362  0.1835  0.2850 -0.0098
 5069W        W 9120  10.088   7.091   3.976  0.0659  0.0163 -0.1804
 5070W        W 9121   9.565   7.930  12.609 -0.1671  0.2781  0.0268
 5071W        W 9122   9.060   7.676   0.874 -0.2750  0.2881 -0.2530
 5072W        W 9123   2.450   0.457   2.898  0.2108 -0.0192  0.0272
 5073W        W 9124   2.303   7.575   8.911  0.0618 -0.1435 -0.2369
 5074W        W 9125   3.355   3.175  13.192  0.0903 -0.0180 -0.2407
 5075W        W 9126   9.677   8.385  10.235  0.1101 -0.0406  0.4204
 5076W        W 9127   3.044   1.325   9.355  0.2350  0.2089  0.3229
 5077W        W 9128   2.052   2.185  13.131 -0.0070 -0.3762  0.0418
 5078W        W 9129   0.201   1.409   2.107 -0.2610 -0.0327  0.0618
 5079W        W 9130   9.226   5.935   9.256  0.1170 -0.0559  0.3872
 5080W        W 9131   7.684   5.901   1.248 -0.1649  0.1660  0.1902
 5081W        W 9132   0.172   0.488   9.249  0.0146  0.0812  0.3140
 5082W        W 9133   8.095   6.089   5.546 -0.1180 -0.2960  0.1519
 5083W        W 9134   8.614   7.411  11.955 -0.2623  0.1512 -0.0910
 5084W        W 9135   1.752   2.738  11.882 -0.0017 -0.0384  0.3268
 5085W        W 9136   0.682   4.464  11.488  0.1575 -0.0436 -0.0434
 5086W        W 9137   9.520   2.281   0.103  0.2390 -0.3607 -0.1749
 5087W        W 9138   5.588   6.918  11.470  0.0457  0.1531  0.3485
 5088W        W 9139   2.958   6.644   1.622 -0.1465  0.3568 -0.2629
 5089W        W 9140   5.838   2.572   2.862  0.3740 -0.0111  0.3241
 5090W        W 9141   2.671   5.658   2.151 -0.1747  0.0160 -0.0653
 5091W        W 9142   3.450   8.095   0.704  0.0318  0.2079  0.0088
 5092W        W 9143   0.340   8.346  14.042  0.0361  0.2120 -0.2298
 5093W        W 9144   0.502   5.817   8.700 -0.2643 -0.0872  0.0753
 5094W        W 9145   4.891   4.627   0.020  0.1811 -0.1265 -0.2608
 5095W        W 9146   4.433   5.328   3.464 -0.0562 -0.4248 -0.4344
 5096W        W 9147   9.032   7.587   3.074  0.2492  0.2184 -0.0392
 5097W        W 9148   5.445   5.434   3.080  0.0422 -0.3967 -0.0553
 5098W        W 9149   0.803   6.827  12.587  0.1177  0.1456  0.1968
 5099W        W 9150   9.491   0.335   3.450 -0.0966 -0.0243  0.2375
 5100W        W 9151   9.776   4.889  10.566  0.2297 -0.2205  0.1275
 5101W        W 9152   1.204   9.081  11.085 -0.1588 -0.0193  0.0689
 5102W        W 9153   7.745   6.899   0.652  0.1545 -0.0828 -0.1334
 5103W        W 9154   8.342   6.419   2.920 -0.2544 -0.1853 -0.2649
 5104W        W 9155   1.817   6.621   0.014  0.0872 -0.2737  0.2138
 5105W        W 9156   5.813   7.375  11.708 -0.2694  0.1801 -0.0616
 5106W        W 9157   8.307   2.914   1.961  0.0983  0.2808  0.2537
 5107W        W 9158   0.227   4.747  12.295  0.2648 -0.2716  0.2851
 5108W        W 9159   2.815   0.532   3.814 -0.1978  0.1337 -0.0236
 5109W        W 9160   2.134   5.091  13.655 -0.3427 -0.0800  0.1417
 5110W        W 9161   0.099   8.579  11.261  0.0316  0.1092  0.1328
 5111W        W 9162   1.164   5.140   0.179 -0.0768  0.1912  0.4872
 5112W        W 9163   1.933   0.101   1.790  0.0411 -0.0437 -0.3757
 5113W        W 9164   4.948   5.595  11.775  0.0845 -0.0694  0.0934
 5114W        W 9165   4.202   5.885   1.826  0.2113  0.4775  0.4157
 5115W        W 9166   0.280   8.286   4.775 -0.2590  0.1762  0.2904
 5116W        W 9167   1.045   4.283  11.176 -0.3079  0.0812 -0.0061
 5117W        W 9168   0.919   9.952   0.754  0.2646 -0.3858  0.0754
 5118W        W 9169   4.969   1.865   0.512 -0.1060  0.0038 -0.1764
 5119W        W 9170   3.059   5.207   2.204  0.2697 -0.1816  0.0848
 5120W        W 9171   0.273   0.799   3.815 -0.0293  0.0096  0.1363
 5121W        W 9172   8.721  10.043   4.587 -0.0136 -0.2462 -0.2408
 5122W        W 9173   3.197   1.584   5.378 -0.0163  0.1232 -0.3930
 5123W        W 9174   9.958   3.304  12.477  0.0886 -0.0688 -0.1594
 5124W        W 9175   5.214   0.657  11.776  0.4366  0.1149 -0.4449
 5125W        W 9176   1.747   4.871   0.748 -0.2357  0.1586 -0.1194
 5126W        W 9177   4.172   3.126  11.933  0.2047 -0.0204 -0.0028
 5127W        W 9178   1.582   2.760   9.884 -0.1413 -0.0160  0.0304
 5128W        W 9179   3.263   8.214   2.375 -0.2970  0.0700 -0.0648
 5129W        W 9180   5.681   6.869  12.886 -0.0687 -0.0692 -0.1428
 5130W        W 9181   1.769   8.353  12.492 -0.2093  0.0068 -0.1542
 5131W        W 9182   9.611   6.393   3.342  0.2084 -0.1956 -0.1906
 5132W        W 9183   8.479   3.629   1.494  0.0011  0.3393 -0.0661
 5133W        W 9184   8.613   2.749   0.130  0.2556  0.1987 -0.0861
 5134W        W 9185   5.073   5.036   4.108  0.1896  0.0096  0.0916
 5135W        W 9186   4.762   4.300   2.549  0.1725 -0.0760  0.0747
 5136W        W 9187   9.978   8.908   2.871  0.3869 -0.2583  0.1547
 5137W        W 9188   2.492   5.951  11.333 -0.3149  0.1574 -0.1271
 5138W        W 9189   9.562   6.923  10.769 -0.0614 -0.4175 -0.1392
 5139W        W 9190   2.555   0.675   4.227  0.0107  0.3317 -0.1583
 5140W        W 9191   4.481   2.848  12.712 -0.1316 -0.0563  0.1050
 5141W        W 9192   2.777   5.185   8.969 -0.5119  0.0400 -0.0012
 5142W        W 9193   7.670   1.996   2.393  0.2279  0.0352  0.1718
 5143W        W 9194   9.503   1.910   0.883  0.0158 -0.0949 -0.0332
 5144W        W 9195   9.852   6.926  12.818 -0.1255 -0.2562 -0.0473
 5145W        W 9196   0.801   9.962  10.862  0.0011 -0.0425  0.1210
 5146W        W 9197   0.561   2.665   2.813  0.1770 -0.0882 -0.2385
 5147W        W 9198   9.380   2.167  11.931  0.1576 -0.1813  0.2117
 5148W        W 9199   8.654   5.212  12.682 -0.3462 -0.3574 -0.0995
 5149W        W 9200   6.967   9.598   0.051  0.1296  0.0867  0.2915
 5150W        W 9201   5.418   0.848   3.028 -0.2922 -0.0914  0.2047
 5151W        W 9202   8.158   9.589  11.988  0.0815 -0.1284 -0.3227
 5152W        W 9203   6.388   4.787  12.045  0.2083 -0.0753  0.0807
 5153W        W 9204   9.036   4.974  10.322 -0.1408  0.1629  0.1213
 5154W        W 9205   4.180   4.481   9.827 -0.0020  0.2622  0.0627
 5155W        W 9206   5.401   6.301   0.030 -0.3287  0.4330  0.1015
 5156W        W 9207   6.602   8.938  12.279 -0.1163  0.0161  0.3254
 5157W        W 9208   7.898   3.183   1.533 -0.5052 -0.1075 -0.2467
 5158W        W 9209   2.741   8.699   4.391  0.0808  0.1336  0.0622
 5159W        W 9210   0.088   8.178   1.745  0.2630  0.1295  0.0508
 5160W        W 9211   4.778   4.189  11.905  0.1302  0.2958 -0.1531
 5161W        W 9212   1.580   8.455  13.311 -0.0973 -0.0293 -0.0845
 5162W        W 9213   4.043   2.923   1.311 -0.0322 -0.2732 -0.5362
 5163W        W 9214   0.823   9.407   8.264  0.5005  0.1674 -0.4303
 5164W        W 9215   4.228   8.206   0.997 -0.4053  0.1129  0.0112
 5165W        W 9216   2.271   3.793   0.064 -0.2820  0.0804  0.3104
 5166W        W 9217   4.789   1.569   4.170 -0.0301  0.0301  0.0438
 5167W        W 9218   4.441   0.058   9.888  0.1618 -0.0453 -0.1901
 5168W        W 9219   7.071   3.275   2.101  0.3740  0.0797 -0.0655
 5169W        W 9220   2.821   4.088   2.307  0.3277  0.1119  0.3669
 5170W        W 9221   8.944   1.586   2.525  0.0643  0.2068 -0.1700
 5171W        W 9222   5.112   6.990  11.532  0.0347  0.0450  0.1160
 5172W        W 9223   1.053   9.413  13.852 -0.0065  0.1846 -0.2832
 5173W        W 9224   5.698   7.398  10.648  0.0275  0.2208  0.3818
 5174W        W 9225   0.336   0.993   0.784 -0.2178 -0.0866  0.1724
 5175W        W 9226   6.269   2.097   2.424  0.1350 -0.0663 -0.1400
 5176W        W 9227   4.550   9.252   0.135  0.0372  0.2882 -0.1779
 5177W        W 9228   7.732   9.176   3.848 -0.3377  0.0361  0.3275
 5178W        W 9229   5.921   5.487   2.185  0.0738 -0.0607  0.5532
 5179W        W 9230   5.134   7.112   0.509  0.2569 -0.1842 -0.2708
 5180W        W 9231   9.722   5.930   2.418  0.0631 -0.0325  0.0148
 5181W        W 9232   1.742   7.422   0.642 -0.1942 -0.0385 -0.1990
 5182W        W 9233   4.414   8.611   3.000  0.1368 -0.1579 -0.0967
 5183W        W 9234   8.012   0.568   2.504 -0.1407  0.0497 -0.0872
 5184W        W 9235   3.492   1.734   3.145 -0.0011 -0.1229  0.0258
 5185W        W 9236   4.270   6.452   1.800  0.1798 -0.0483  0.1332
 5186W        W 9237   6.713   0.015   2.172  0.1121 -0.0774  0.2242
 5187W        W 9238   6.886   5.665   2.887  0.1312 -0.0039 -0.3588
 5188W        W 9239   6.058   7.254   0.629 -0.0862  0.2101  0.3613
 5189W        W 9240   6.584   6.996   2.729  0.0562  0.1733  0.1842
 5190W        W 9241   1.001   5.818  12.326 -0.1793 -0.0372  0.1852
 5191W        W 9242   3.560   1.310  12.462  0.1415 -0.2833  0.1627
 5192W        W 9243   4.314   9.079   4.235  0.1370 -0.0888  0.0632
 5193W        W 9244   3.873   1.272   3.752  0.1135 -0.1885  0.5221
 5194W        W 9245   5.645   5.522  13.085 -0.3066  0.2106  0.2925
 5195W        W 9246   9.138   3.535   0.304  0.3342  0.0796  0.0478
 5196W        W 9247   5.688   2.433  13.376 -0.2001 -0.2098  0.4761
 5197W        W 9248   9.453   0.580   3.897 -0.0293  0.1816  0.0250
 5198W        W 9249  10.110   2.701   1.718 -0.0562  0.2307 -0.1732
 5199W        W 9250   7.535   6.625   5.017  0.1945 -0.0706 -0.0458
 5200W        W 9251   9.143   0.272   0.630 -0.1850  0.0419 -0.2872
 5201W        W 9252   1.206   0.411   5.177  0.0996  0.0812 -0.2549
 5202W        W 9253   2.880  10.011  11.707 -0.0278 -0.0720  0.0967
 5203W        W 9254   7.317   0.249   4.457 -0.0651  0.0679  0.0782
 5204W        W 9255   6.792   0.940   3.306 -0.1883  0.1345 -0.0803
 5205W        W 9256   5.345   1.826  11.371  0.0885 -0.2345 -0.0324
 5206W        W 9257   6.920   2.488   1.999  0.0948  0.2721 -0.1882
 5207W        W 9258   2.772   4.005   3.267 -0.0512 -0.1064 -0.4595
 5208W        W 9259   3.440   4.264   0.710  0.0328 -0.1890  0.0219
 5209W        W 9260   7.067   8.969  10.402  0.0735  0.0994 -0.2259
 5210W        W 9261   2.195   2.156  10.264 -0.1958 -0.1548 -0.1098
 5211W        W 9262   4.910   0.185   9.679 -0.0206  0.0680 -0.2015
 5212W        W 9263   0.837   4.776   0.294  0.1223 -0.1809  0.1211
 5213W        W 9264   7.222   6.343   9.988 -0.1392  0.1436  0.0401
 5214W        W 9265   3.239   3.610  10.222 -0.0984  0.0649 -0.0962
 5215W        W 9266   1.846   4.065   0.732 -0.1417 -0.1885  0.0061
 5216W        W 9267   6.854   3.230  11.242 -0.1569  0.0121 -0.1977
 5217W        W 9268   2.188   6.975   2.817  0.3066  0.0566 -0.0193
 5218W        W 9269   8.610   4.385   1.987 -0.0463 -0.2239 -0.2472
 5219W        W 9270   5.691   3.595   1.816  0.0835  0.0585 -0.0731
 5220W        W 9271   2.555   2.585  13.519  0.1157  0.0115  0.2064
 5221W        W 9272   4.922   9.521   3.756  0.1522  0.1155  0.1868
 5222W        W 9273   6.773   0.874   1.576  0.2281  0.3861 -0.0167
 5223W        W 9274   1.628   0.035  10.102  0.0491  0.1921  0.1266
 5224W        W 9275   6.257   5.792   3.737  0.0619  0.0513 -0.4086
 5225W        W 9276   3.340   9.999   3.937 -0.0403 -0.0103  0.0677
 5226W        W 9277   0.997   0.884  12.718 -0.0473 -0.1370  0.3567
 5227W        W 9278   0.910   5.917   9.432 -0.2336 -0.1061  0.1352
 5228W        W 9279   7.470   8.570   2.664  0.0280 -0.3230 -0.1199
 5229W        W 9280   0.420   5.314   9.786  0.0214 -0.1310  0.1027
 5230W        W 9281   6.903   7.477   1.243  0.1006  0.0344  0.0338
 5231W        W 9282   7.651   2.727   1.562  0.0907 -0.0732 -0.4484
 5232W        W 9283   0.468   4.591  13.985 -0.1548 -0.1651  0.0286
 5233W        W 9284  10.112   1.129   8.516 -0.0865  0.3224 -0.2273
 5234W        W 9285   5.887   9.430   0.260  0.1263  0.0775  0.0197
 5235W        W 9286   4.509   5.360   0.365  0.1217 -0.2820  0.0045
 5236W        W 9287   8.302   8.767   4.930  0.1475 -0.2561  0.2825
 5237W        W 9288   1.340   8.895  13.298 -0.1087 -0.0514  0.0937
 5238W        W 9289   3.931   9.276   3.058  0.1017  0.2642 -0.2793
 5239W        W 9290   7.712   2.127  13.620 -0.2116 -0.2119 -0.0445
 5240W        W 9291   2.711   5.368  12.679  0.1731  0.0077 -0.2699
 5241W        W 9292   3.597   7.133   9.751 -0.0199  0.2217  0.0615
 5242W        W 9293   4.392   2.439   1.043  0.2598 -0.0469 -0.0274
 5243W        W 9294   4.296   7.590   9.098 -0.2565  0.0704  0.0172
 5244W        W 9295   8.763   7.598   9.371  0.2312  0.0224 -0.1789
 5245W        W 9296   3.307   8.061  13.874 -0.1551 -0.0170  0.0761
 5246W        W 9297   7.251   4.703   1.463  0.0306  0.1768  0.0642
 5247W        W 9298   8.902   0.577   2.033  0.1858  0.0833  0.2445
 5248W        W 9299   2.686   2.142   0.331  0.0166  0.0706  0.0666
 5249W        W 9300   9.143   2.885   1.976 -0.1067 -0.2387  0.1012
 5250W        W 9301   2.750   9.881   2.590 -0.1061 -0.0536 -0.1197
 5251W        W 9302   1.285   6.304  13.678 -0.0055  0.3239 -0.1678
 5252W        W 9303   7.029   7.411   2.969 -0.0757 -0.0038 -0.2068
 5253W        W 9304   1.208  10.027   0.292 -0.0269 -0.3849 -0.0610
 5254W        W 9305   2.445   3.631   9.335  0.0241 -0.1764  0.1303
 5255W        W 9306   1.149   2.928  10.872 -0.0534  0.2058  0.1887
 5256W        W 9307   3.720   6.625  13.482 -0.2593  0.1312 -0.4255
 5257W        W 9308   2.565   4.224  12.117  0.0349  0.1716 -0.0248
 5258W        W 9309   7.204   6.869   4.639  0.1154 -0.3619  0.1457
 5259W        W 9310   1.108   3.627  12.517  0.2135  0.1293  0.0405
 5260W        W 9311   2.191   5.608   4.805  0.0635  0.3370 -0.0659
 5261W        W 9312   6.586   4.578   0.802 -0.1704 -0.1124  0.2946
 5262W        W 9313   1.078   7.618  13.565 -0.1106  0.0076 -0.2158
 5263W        W 9314   8.636   0.224  12.591 -0.0365  0.1909 -0.2659
 5264W        W 9315   2.138   6.617   4.996 -0.2921  0.0085  0.2947
 5265W        W 9316   7.918   1.816  11.761  0.2870  0.2044  0.3793
 5266W        W 9317   7.664   4.068   0.897 -0.1119 -0.0795 -0.2420
 5267W        W 9318   3.420   0.787   4.384  0.2233 -0.0855 -0.0241
 5268W        W 9319   8.861   7.834  13.192 -0.0968  0.1062 -0.1280
 5269W        W 9320   5.383   7.323   4.513 -0.0952 -0.3663 -0.1333
 5270W        W 9321   0.651   3.408   1.769 -0.0058 -0.3519 -0.0319
 5271W        W 9322   8.797   4.071   9.886 -0.2618 -0.1725 -0.1529
 5272W        W 9323   2.355   0.008   2.723  0.2037  0.1038  0.2554
 5273W        W 9324   0.326   9.519   0.243 -0.2963  0.0991 -0.1755
 5274W        W 9325   1.728   4.615   1.664 -0.2282  0.2315  0.0306
 5275W        W 9326   8.663   9.500   4.266 -0.4727 -0.1002 -0.1373
 5276W        W 9327   7.423   7.981   3.001  0.0875 -0.1039 -0.1367
 5277W        W 9328   6.299   6.831   1.053  0.0884 -0.0154 -0.0182
 5278W        W 9329   5.208   8.015  10.951 -0.0562 -0.2030 -0.4268
 5279W        W 9330   9.538   9.273  10.654  0.1474  0.1098  0.0983
 5280W        W 9331   2.993   6.295   9.790 -0.0101  0.0389  0.0109
 5281W        W 9332   4.830   8.630   1.668  0.1553  0.1599 -0.0332
 5282W        W 9333   0.129   4.929   9.940 -0.1699  0.2060  0.0588
 5283W        W 9334   1.245   2.039   3.868  0.0507 -0.0029 -0.1641
 5284W        W 9335   5.297   4.892   0.149  0.0363 -0.2463  0.2764
 5285W        W 9336   1.499   4.946  10.021 -0.2088 -0.1316  0.0764
 5286W        W 9337   1.780   2.566  12.381  0.1103  0.1515 -0.0116
 5287W        W 9338   6.458   8.260  13.674  0.1273 -0.0923  0.0773
 5288W        W 9339   0.649   7.825   3.292  0.0103 -0.1591  0.0985
 5289W        W 9340   6.573   7.086   1.417  0.1140 -0.2531  0.0858
 5290W        W 9341   8.754   9.689  11.096 -0.1593 -0.1811  0.3263
 5291W        W 9342   2.624   5.022   9.906  0.2498  0.1651 -0.1700
 5292W        W 9343   7.729   0.646   0.151  0.1771  0.3722 -0.0753
 5293W        W 9344   1.302   0.832  11.772  0.1209  0.2850  0.0871
 5294W        W 9345   2.776   8.538   9.784 -0.0001  0.0201 -0.2163
 5295W        W 9346   4.228   5.189   3.945 -0.0271 -0.0338 -0.1342
 5296W        W 9347   3.246   3.860   2.605  0.0285 -0.3540  0.2862
 5297W        W 9348   0.720   3.576   3.264 -0.2011 -0.0032  0.5723
 5298W        W 9349   9.559   9.128   3.219  0.1474 -0.0929  0.0563
 5299W        W 9350   8.641   7.136   2.326  0.0815 -0.1260  0.1034
 5300W        W 9351   8.581   7.850  12.770  0.1496  0.0708  0.0016
 5301W        W 9352   2.898   1.336   0.076  0.3063 -0.0166  0.2329
 5302W        W 9353   3.070   9.756   5.457 -0.0729  0.0302  0.1739
 5303W        W 9354   4.108   4.711   4.051  0.1518 -0.0862  0.1755
 5304W        W 9355   6.973   7.945  12.436  0.2040 -0.0011 -0.0298
 5305W        W 9356   2.285   2.082  12.180 -0.0540  0.2345 -0.1193
 5306W        W 9357   9.934   3.734  12.686  0.1657 -0.1016 -0.0359
 5307W        W 9358   6.028   0.034  11.977  0.2587  0.0953 -0.4629
 5308W        W 9359   3.498   9.013   4.930  0.0094  0.0038 -0.1142
 5309W        W 9360   4.631   6.078  11.924 -0.2607  0.1518 -0.1521
 5310W        W 9361   2.427   4.215   3.607 -0.0178 -0.1228  0.3288
 5311W        W 9362   1.505   1.978  11.413 -0.0854  0.0799  0.3070
 5312W        W 9363   9.695   0.652   5.469 -0.1255 -0.0999  0.1613
 5313W        W 9364   9.826   4.216  11.802 -0.0470  0.3118 -0.2627
 5314W        W 9365   2.527   6.587   2.639 -0.1395 -0.0990 -0.1045
 5315W        W 9366   2.313   0.371   9.386  0.2702 -0.3140  0.1399
 5316W        W 9367   3.192   0.622  13.704 -0.2826 -0.2355  0.0206
 5317W        W 9368   6.233   8.912  13.168 -0.1826  0.0079  0.3865
 5318W        W 9369   0.691   0.219   3.152  0.0626 -0.0581  0.0555
 5319W        W 9370   5.991   0.175   2.458  0.0170 -0.2729  0.1314
 5320W        W 9371   8.729   9.863  12.770  0.2622  0.0243  0.1475
 5321W        W 9372   9.571   0.300   8.800  0.2141  0.1675  0.1453
 5322W        W 9373   4.718   8.035   3.629 -0.2179  0.2247 -0.0132
 5323W        W 9374   8.522   3.819  10.611  0.2548 -0.0902  0.2790
 5324W        W 9375   5.326  10.040   0.895  0.1058 -0.0723  0.0783
 5325W        W 9376   2.036   5.348   3.204 -0.0770  0.3859  0.1424
 5326W        W 9377   5.822   6.180  10.955 -0.0079  0.1063  0.1637
 5327W        W 9378   4.557   8.180  12.349  0.2150  0.1316  0.0971
 5328W        W 9379   1.352   1.051  10.931 -0.0315 -0.2424 -0.1808
 5329W        W 9380   5.925   7.350  11.186  0.0685  0.0010  0.1284
 5330W        W 9381   2.450   9.744   8.356  0.1796 -0.1962  0.0248
 5331W        W 9382   0.885   9.101   4.826  0.2667  0.2581 -0.3487
 5332W        W 9383   2.276   6.883   4.478 -0.1717 -0.2167  0.0949
 5333W        W 9384   6.358   0.859  13.371 -0.3171  0.1251  0.1947
 5334W        W 9385   7.672   0.905   3.889 -0.0693  0.3476  0.0789
 5335W        W 9386   6.406   3.680   3.264 -0.0454 -0.0334  0.1923
 5336W        W 9387   0.273   6.013  11.557 -0.0516 -0.0678  0.1684
 5337W        W 9388   8.175   7.002   4.545 -0.0571  0.2969 -0.1151
 5338W        W 9389   1.327   9.992   9.193 -0.0303  0.0393  0.1623
 5339W        W 9390   2.688   1.598  12.950  0.0522  0.0085  0.1935
 5340W        W 9391   5.040   0.256   0.028 -0.2834 -0.1559  0.2904
 5341W        W 9392   1.947   9.887   2.750  0.2411  0.1248  0.0661
 5342W        W 9393   1.021   3.217   4.117  0.1474 -0.0709  0.2916
 5343W        W 9394   8.990  10.102  10.953 -0.0014  0.1467  0.0609
 5344W        W 9395   0.121   2.762   2.321  0.0478  0.1656  0.0957
 5345W        W 9396   6.635   5.700  13.925  0.2268  0.0772 -0.1345
 5346W        W 9397   4.780   5.202  12.877  0.0234  0.1485  0.1494
 5347W        W 9398   4.184   8.354   2.382  0.4418 -0.0146 -0.1865
 5348W        W 9399   3.389   9.440   2.257 -0.0843 -0.1624  0.2168
 5349W        W 9400   1.780   3.118  13.083  0.2395 -0.2196 -0.0950
 5350W        W 9401   0.914   0.895   4.439 -0.0660 -0.2995  0.1653
 5351W        W 9402   9.009   2.374   9.683 -0.3849  0.2009 -0.2471
 5352W        W 9403   5.786   0.734   3.413 -0.1067  0.2065  0.0071
 5353W        W 9404   0.077   4.956  13.058  0.1817  0.1837  0.2875
 5354W        W 9405   4.596   7.942   0.353 -0.0586 -0.0194  0.0516
 5355W        W 9406   6.925  10.051  11.856 -0.1727  0.2537 -0.0921
 5356W        W 9407   9.052   8.588   0.857 -0.1708 -0.5736  0.0458
 5357W        W 9408   5.608   5.397  11.194  0.4119  0.2116 -0.2800
 5358W        W 9409   8.114   7.505   4.796  0.0992  0.4378  0.0693
 5359W        W 9410   9.148   7.531  13.536  0.2545  0.1970 -0.1729
 5360W        W 9411   5.294   6.147  10.903 -0.0970 -0.0021 -0.2014
 5361W        W 9412   1.525   3.325  12.758 -0.2123 -0.1392 -0.0659
 5362W        W 9413   2.664   1.712   2.695  0.0757  0.1581  0.0663
 5363W        W 9414   0.281   7.576  10.998  0.0578 -0.1289  0.0537
 5364W        W 9415   4.032   1.536  11.208  0.0698 -0.0859 -0.1035
 5365W        W 9416   9.195   3.851   9.205  0.1444 -0.1314 -0.0502
 5366W        W 9417   2.747   0.094   4.160 -0.1196 -0.0224  0.1546
 5367W        W 9418   9.722   1.242   3.167  0.0085 -0.4608  0.1252
 5368W        W 9419   0.725   7.916  12.893 -0.2526 -0.0436 -0.0923
 5369W        W 9420   5.746   8.238   3.978  0.0911  0.0397 -0.1501
 5370W        W 9421   2.835   1.824  10.779  0.1949  0.2230  0.0191
 5371W        W 9422   2.119   8.060   2.216  0.0860  0.2292 -0.0840
 5372W        W 9423   4.576   9.717   0.336 -0.2430 -0.0825  0.0530
 5373W        W 9424   4.916   6.825   1.262  0.0903  0.2320 -0.1991
 5374W        W 9425   5.740   2.205   1.193  0.1385 -0.0329  0.2747
 5375W        W 9426   3.454   1.121   0.915 -0.0721 -0.0244  0.1680
 5376W        W 9427  10.056   1.601  10.906 -0.0002  0.0118 -0.0802
 5377W        W 9428   3.914   4.518   9.315 -0.1785 -0.0050 -0.0454
 5378W        W 9429   0.265   0.500   1.646  0.3347  0.1734 -0.1002
 5379W        W 9430   1.602   6.966   0.951  0.2150 -0.0094  0.3371
 5380W        W 9431   3.527   3.799   1.669  0.0598  0.0361  0.2660
 5381W        W 9432   7.946   4.771  10.987 -0.1289 -0.0637  0.0380
 5382W        W 9433   4.829   5.124   2.705 -0.0826  0.2811 -0.2062
 5383W        W 9434   5.978   7.009   2.170  0.0248  0.1586 -0.0019
 5384W        W 9435   3.482   2.919  10.624 -0.0663  0.1516 -0.2653
 5385W        W 9436   7.844   3.655  13.722  0.2888 -0.1538 -0.0626
 5386W        W 9437   4.615   0.494   2.282 -0.2886  0.0866  0.0888
 5387W        W 9438   0.518   1.320  12.216  0.1640  0.1882  0.3321
 5388W        W 9439   2.999   6.172   1.335  0.0250 -0.2400  0.1156
 5389W        W 9440   2.080   6.743   1.291 -0.1175 -0.1703  0.1295
 5390W        W 9441   9.828   3.250   2.358  0.0418 -0.0127 -0.4109
 5391W        W 9442   6.671   8.653   2.601 -0.2405  0.0477 -0.1126
 5392W        W 9443   8.647   8.730   0.564  0.0938  0.1864  0.1599
 5393W        W 9444   8.669   7.663  10.554  0.3155 -0.1041  0.1892
 5394W        W 9445   2.154   0.280  11.838  0.5086 -0.4727  0.3252
 5395W        W 9446   0.228   3.150  12.212  0.1603  0.0473 -0.0045
 5396W        W 9447   2.332   7.945  10.358 -0.1387 -0.0450 -0.0132
 5397W        W 9448   9.677   8.424   1.010 -0.0295 -0.0845  0.1598
 5398W        W 9449   3.070   1.911   1.861 -0.3390  0.1111  0.2984
 5399W        W 9450   4.826   2.526  10.981  0.2117 -0.0766  0.0896
 5400W        W 9451   7.636   0.903  12.024 -0.0684  0.0293  0.0324
 5401W        W 9452   5.185   9.978  12.463  0.0193 -0.0633 -0.0748
 5402W        W 9453   2.729   5.576  13.164 -0.3235 -0.2283  0.0638
 5403W        W 9454   4.475   9.277   3.462  0.1483 -0.0648  0.0072
 5404W        W 9455   0.841   3.034  10.495  0.0600  0.0272  0.0084
 5405W        W 9456   9.297   8.005  13.556  0.2015  0.2770 -0.1439
 5406W        W 9457   9.078   5.478  12.466  0.1537 -0.0912  0.5304
 5407W        W 9458   8.729   8.129  10.717  0.1938 -0.3822  0.3104
 5408W        W 9459   2.196   1.458  12.413 -0.1460  0.1570 -0.2577
 5409W        W 9460   5.651   8.300   4.487 -0.1808  0.3721 -0.1042
 5410W        W 9461   6.587   6.961  10.558 -0.0792 -0.0642  0.2956
 5411W        W 9462   6.322  10.085  13.727  0.1669 -0.0620 -0.2191
 5412W        W 9463   9.791   8.676  11.468 -0.1311 -0.0979  0.0777
 5413W        W 9464   3.579   3.401   0.633 -0.1248 -0.1974 -0.0720
 5414W        W 9465   6.781   1.410   2.412 -0.0662  0.0016 -0.0398
 5415W        W 9466   9.927   2.434   5.051 -0.0163  0.2376 -0.0241
 5416W        W 9467   8.724   0.378   9.880 -0.1148  0.0629 -0.0715
 5417W        W 9468   4.596   6.453   8.597  0.0277 -0.0489 -0.1192
 5418W        W 9469   5.311   2.698   0.600  0.2615  0.2465 -0.2407
 5419W        W 9470   8.859   6.149  11.565  0.3476 -0.0433 -0.0654
 5420W        W 9471   3.766   5.911   3.401 -0.0472 -0.1238  0.2967
 5421W        W 9472   3.670   7.738   2.076 -0.0435  0.0175  0.0874
 5422W        W 9473  10.096   5.416   4.145 -0.0245 -0.1350  0.1204
 5423W        W 9474   0.059   5.213   3.624  0.0634  0.1430 -0.0272
 5424W        W 9475   0.097   4.476  12.791 -0.0936  0.0587 -0.2928
 5425W        W 9476   9.321   7.709   9.940 -0.2577  0.5100 -0.1552
 5426W        W 9477   2.356  10.033   1.201 -0.0266 -0.1891 -0.1541
 5427W        W 9478   9.209   4.316  12.522 -0.1437  0.0035  0.3637
 5428W        W 9479   7.015   2.316  12.463  0.1506  0.3448  0.0456
 5429W        W 9480   0.905   7.228   0.403  0.0206  0.0705  0.2124
 5430W        W 9481   3.076   5.300   4.980  0.2087 -0.1838 -0.0067
 5431W        W 9482   3.632   4.592  12.671  0.0440 -0.2432  0.2019
 5432W        W 9483   2.933   7.513   9.213  0.1433 -0.0604  0.2603
 5433W        W 9484   3.733   7.243  12.202  0.4563  0.0752  0.2174
 5434W        W 9485   4.279   5.973   5.240  0.1959  0.1399 -0.1212
 5435W        W 9486   7.468   2.531   2.344  0.3315 -0.1261 -0.4485
 5436W        W 9487   6.467   5.448  12.664  0.0446  0.1871 -0.2728
 5437W        W 9488   4.379   1.189  10.513  0.0868  0.1344  0.1701
 5438W        W 9489   4.332   7.833   4.012  0.1524  0.0059  0.0437
 5439W        W 9490   3.077   7.819   2.641 -0.1612 -0.1536  0.2923
 5440W        W 9491   5.281   2.224  11.851 -0.2005 -0.1994  0.2524
 5441W        W 9492   9.823   3.555  11.060 -0.1948  0.1500  0.1920
 5442W        W 9493   0.197   5.853   1.668  0.0522 -0.0745 -0.0826
 5443W        W 9494   0.373   0.933  11.885  0.1365 -0.1615 -0.0894
 5444W        W 9495   4.392   2.048  13.751 -0.0578 -0.3215  0.0188
 5445W        W 9496   4.968   9.607  12.773  0.3786 -0.1771 -0.1359
 5446W        W 9497   2.095   9.228   0.285 -0.2084  0.6553  0.2683
 5447W        W 9498   4.563   2.814   0.109 -0.0837  0.1232  0.0346
 5448W        W 9499   9.942   2.362  12.757 -0.1161  0.2854 -0.2969
 5449W        W 9500   8.416   7.903   0.122 -0.0042  0.2369 -0.2505
 5450W        W 9501   4.528   4.157   0.759  0.3112 -0.2003 -0.0570
 5451W        W 9502   8.115   0.005  12.619 -0.1156  0.0245  0.2980
 5452W        W 9503   4.099   3.106  10.410 -0.1284  0.1782  0.1359
 5453W        W 9504   6.013   3.295  11.408  0.2024  0.3489  0.1152
 5454W        W 9505   3.846   1.482   1.781 -0.0485  0.2055  0.0369
 5455W        W 9506   5.836   7.537   3.004  0.0411 -0.1441 -0.0756
 5456W        W 9507   6.887   1.644   0.921  0.1570  0.1372  0.1263
 5457W        W 9508   9.164   0.677  10.775 -0.0979  0.1124 -0.2195
 5458W        W 9509   4.239   6.427  13.133 -0.1621 -0.0735  0.1621
 5459W        W 9510   0.784   4.770   9.326 -0.2526 -0.1922 -0.0425
 5460W        W 9511   6.794   1.793  12.532  0.2647 -0.0162  0.0605
 5461W        W 9512   6.109   1.626  13.677  0.1720  0.1394  0.0079
 5462W        W 9513   8.774   1.294  11.968  0.2950  0.0087  0.1761
 5463W        W 9514   3.447   7.820   4.505  0.1209  0.1964  0.1159
 5464W        W 9515   5.824   4.462  13.114 -0.1655  0.0425 -0.0416
 5465W        W 9516   7.997   7.779  11.328 -0.3389  0.2658  0.1624
 5466W        W 9517   7.762   5.181  11.981 -0.0367  0.2336  0.0770
 5467W        W 9518   4.620   3.939   3.447 -0.1264  0.1010 -0.1226
 5468W        W 9519   4.192   8.266   9.996  0.1354  0.1510  0.3482
 5469W        W 9520   7.587   9.076   2.963 -0.2595 -0.2587 -0.3496
 5470W        W 9521   5.786   6.632   0.145  0.6005 -0.0725 -0.0182
 5471W        W 9522   1.799   2.925  10.479  0.3570 -0.0681  0.2081
 5472W        W 9523   3.429   2.076  11.823 -0.1798  0.1306 -0.0994
 5473W        W 9524   8.007   2.415   2.364  0.0329  0.1746  0.0951
 5474W        W 9525   3.546   5.175   2.036 -0.4077  0.0724  0.0501
 5475W        W 9526   5.810   5.934  13.336 -0.1911  0.3046  0.1804
 5476W        W 9527   7.460   3.441   1.410  0.2634  0.0386 -0.1178
 5477W        W 9528   0.760   8.117  13.411 -0.3122 -0.1179  0.0160
 5478W        W 9529   3.427   7.608  12.091  0.0731 -0.0978 -0.2000
 5479W        W 9530   1.732   9.736   1.694  0.3821 -0.3436  0.1728
 5480W        W 9531   6.021   4.942   4.322 -0.0876 -0.1066 -0.1413
 5481W        W 9532   3.394   3.722   9.339  0.2806  0.3163 -0.0774
 5482W        W 9533   1.868   1.271   3.677  0.0709 -0.0888 -0.1439
 5483W        W 9534   4.166  10.017  11.543 -0.2836  0.2083  0.2679
 5484W        W 9535   5.985   0.843  12.612 -0.2275 -0.2578 -0.2351
 5485W        W 9536   1.203   2.389  12.805 -0.0729 -0.0305 -0.1026
 5486W        W 9537   9.273   3.777  12.341 -0.2212 -0.1951 -0.0947
 5487W        W 9538   4.731   0.438   2.797  0.1342 -0.0426  0.0861
 5488W        W 9539   1.400   2.330   9.553  0.0688  0.0728 -0.2712
 5489W        W 9540   1.907   7.682  11.888  0.0781 -0.1636  0.0769
 5490W        W 9541   5.425   6.985  12.407 -0.0305 -0.0399 -0.2966
 5491W        W 9542   4.067   3.362   1.094 -0.0516 -0.0701  0.2338
 5492W        W 9543   2.827   4.913   3.506  0.1621 -0.1344  0.3157
 5493W        W 9544   0.795   6.237  12.551 -0.0673 -0.1504 -0.0075
 5494W        W 9545   6.046   7.380   4.720  0.0737  0.2421 -0.2262
 5495W        W 9546   4.372   2.550   1.624  0.1656  0.2080  0.2827
 5496W        W 9547   9.849   7.641   9.489  0.0482  0.1289 -0.1430
 5497W        W 9548   6.268   3.105   1.707  0.0977  0.1190 -0.0033
 5498W        W 9549   4.897   0.623  12.137  0.0472  0.0596 -0.2759
 5499W        W 9550   0.742   5.171  10.849  0.2952  0.3108  0.1416
 5500W        W 9551   5.335   3.247  14.052  0.0354 -0.2161 -0.0270
 5501W        W 9552   0.209   2.207   9.882 -0.2469  0.1629 -0.0283
 5502W        W 9553   9.886   0.162   1.587  0.2461  0.2126  0.0343
 5503W        W 9554   1.885   1.006  13.942  0.1824  0.0579 -0.1126
 5504W        W 9555   4.683   7.998  10.098  0.2660  0.3580 -0.0455
 5505W        W 9556   8.566   9.363   2.778 -0.0413 -0.0815 -0.0897
 5506W        W 9557   4.593   8.628   3.447  0.2886 -0.1309 -0.1614
 5507W        W 9558   7.167   5.964   1.169 -0.1789  0.0667  0.0686
 5508W        W 9559   4.778   0.318   3.986  0.1133  0.0395 -0.0671
 5509W        W 9560   2.173   7.699  10.844 -0.0549 -0.0020  0.0824
 5510W        W 9561   9.633   9.874   0.106  0.0654 -0.1448  0.1040
 5511W        W 9562   8.989   8.867   2.971 -0.2631 -0.1372  0.3172
 5512W        W 9563   4.696   1.490  11.750  0.1210 -0.1410 -0.0493
 5513W        W 9564   9.301   0.163   5.195  0.5680 -0.2274  0.0686
 5514W        W 9565   4.832   4.093   1.847 -0.0532 -0.2548  0.3626
 5515W        W 9566   4.936   4.426   0.545 -0.1881 -0.1129 -0.1483
 5516W        W 9567   5.651   5.608  12.589 -0.0094  0.0561  0.1972
 5517W        W 9568   3.638   0.190  10.249 -0.2781 -0.1383  0.1020
 5518W        W 9569   0.845   6.172   2.211 -0.0506 -0.3205  0.1223
 5519W        W 9570   1.801   2.221   3.024 -0.1868 -0.2935 -0.0243
 5520W        W 9571   4.533   1.717  10.500 -0.3716  0.1460 -0.0538
 5521W        W 9572   5.972   6.111   4.388  0.0631 -0.2883  0.2540
 5522W        W 9573   0.659   0.622   1.147  0.0986  0.0372 -0.1267
 5523W        W 9574   2.792   9.807   2.084 -0.0766  0.1239  0.1362
 5524W        W 9575   0.220   6.613   0.548 -0.0920  0.2083 -0.0053
 5525W        W 9576   7.817   2.641  12.957 -0.0169 -0.2334 -0.2756
 5526W        W 9577   2.738   1.227   2.903  0.1815  0.1803  0.1950
 5527W        W 9578   3.645   2.550   1.188  0.0139  0.0748  0.0503
 5528W        W 9579   7.837   2.830  11.578  0.0591  0.0530  0.0096
 5529W        W 9580  10.075   5.149   2.150 -0.2089  0.3447  0.3342
 5530W        W 9581   7.962   8.893   9.565  0.0510 -0.1451 -0.7244
 5531W        W 9582   9.644   7.777   0.910  0.0178 -0.0990 -0.0193
 5532W        W 9583   6.598   2.327  13.209  0.1539  0.2236  0.0117
 5533W        W 9584   2.693   9.783   4.619  0.0847  0.0854  0.2866
 5534W        W 9585   4.345   5.873   0.286  0.1914  0.3633  0.0496
 5535W        W 9586   1.854   6.308  13.631  0.2876  0.1848 -0.1897
 5536W        W 9587   2.338   4.558   4.999  0.1703 -0.1726  0.0425
 5537W        W 9588   4.850   8.169  11.292  0.5931  0.0449  0.1298
 5538W        W 9589   6.611   7.615   4.100  0.2176  0.1862 -0.0123
 5539W        W 9590   2.745   0.322  11.877 -0.3974 -0.4918  0.1346
 5540W        W 9591   5.195   0.307   2.971 -0.0471  0.0603  0.1867
 5541W        W 9592   3.532   4.201   2.316 -0.2482 -0.3244  0.0218
 5542W        W 9593   9.062   3.378  11.604 -0.0360  0.0018  0.1791
 5543W        W 9594   7.551   5.971  13.998 -0.1147 -0.0723  0.1889
 5544W        W 9595   7.721   7.416   0.736 -0.0830  0.0984  0.0993
 5545W        W 9596   2.376   8.922   0.045 -0.1288 -0.0184 -0.1831
 5546W        W 9597   2.333   3.211   0.133  0.1118 -0.1523  0.2270
 5547W        W 9598   3.727   8.627   4.642  0.0436 -0.0531 -0.2368
 5548W        W 9599   6.034   0.366  11.417  0.5440 -0.0471  0.3404
 5549W        W 9600   6.950   3.235   3.422 -0.0830 -0.0720  0.1827
 5550W        W 9601   8.029   8.159   0.343  0.0079  0.0515  0.1476
 5551W        W 9602   9.778   1.827  13.469 -0.0779 -0.2614  0.2600
 5552W        W 9603   4.153   5.508  13.544 -0.1254  0.3390 -0.3843
 5553W        W 9604   4.402   7.269   3.125 -0.0154 -0.4294 -0.0680
 5554W        W 9605   0.595   9.595  12.056  0.0263  0.1756  0.4376
 5555W        W 9606   8.950   1.282   1.582 -0.2230 -0.2511  0.1313
 5556W        W 9607   7.541   5.989  10.372 -0.1351  0.2239 -0.2104
 5557W        W 9608   2.634   3.578  13.297 -0.1502  0.1084  0.1333
 5558W        W 9609   5.759   6.975   4.604  0.0821 -0.0494  0.0519
 5559W        W 9610   9.000   8.532   3.469  0.1056  0.0705  0.3877
 5560W        W 9611   9.691   0.916   9.646 -0.2210  0.0635  0.1292
 5561W        W 9612   7.362   0.800   9.692 -0.2068  0.0586 -0.0526
 5562W        W 9613   5.503   6.437   3.442 -0.0614 -0.1657  0.0915
 5563W        W 9614   2.220   1.147   4.169  0.0966 -0.1128  0.1616
 5564W        W 9615   5.199   3.911   2.869 -0.0027  0.1425  0.3856
 5565W        W 9616   3.185   3.553  13.993 -0.1593  0.1294  0.1638
 5566W        W 9617   4.727   7.904   2.704  0.4229 -0.1399 -0.0845
 5567W        W 9618   0.847   1.292   8.375 -0.3532  0.0085 -0.1878
 5568W        W 9619   0.821   0.603   2.812 -0.4796 -0.1456  0.0444
 5569W        W 9620   0.207   8.059  11.030 -0.1537 -0.1955  0.0693
 5570W        W 9621   4.578   1.727  13.347 -0.2044  0.1593  0.1817
 5571W        W 9622   3.471   5.314  11.036 -0.2225 -0.0116 -0.0221
 5572W        W 9623   5.659   4.647   9.642 -0.0988  0.3159 -0.1412
 5573W        W 9624   9.375   0.648   0.950 -0.0064  0.0000  0.2932
 5574W        W 9625   5.834   9.428  10.044 -0.1476  0.0711 -0.0636
 5575W        W 9626   2.370   2.445   1.871 -0.1179 -0.2710  0.0035
 5576W        W 9627   9.983   0.707   2.583  0.1997  0.2885  0.2301
 5577W        W 9628   6.041   8.925  12.319  0.0193  0.1560 -0.2756
 5578W        W 9629   0.827   5.056  13.916  0.1897 -0.2277  0.3431
 5579W        W 9630   3.087   9.008   2.455 -0.1574 -0.2165 -0.0305
 5580W        W 9631   5.500   0.786   1.976  0.0860 -0.1282  0.2928
 5581W        W 9632   6.764   4.956   0.214  0.0663 -0.1411 -0.0422
 5582W        W 9633   5.591   9.920  12.157 -0.0847 -0.0298  0.0921
 5583W        W 9634   6.090   3.765   0.259 -0.2935  0.0123  0.0918
 5584W        W 9635   2.813   4.509   1.629  0.2835 -0.2105 -0.0929
 5585W        W 9636   8.214   9.346   0.076  0.0127 -0.0506  0.1684
 5586W        W 9637   9.837   4.163   4.526 -0.1108 -0.0992  0.2087
 5587W        W 9638   8.338   7.044  12.846 -0.1201 -0.1270 -0.2035
 5588W        W 9639   2.562   8.511   0.844 -0.1272 -0.2160 -0.0320
 5589W        W 9640   0.889   2.174   2.282 -0.2753  0.0954  0.1493
 5590W        W 9641   4.030   6.458   4.240  0.3369  0.0488  0.0831
 5591W        W 9642   1.018   2.114   9.812 -0.0956 -0.0041 -0.0999
 5592W        W 9643   9.895   7.149  13.642  0.0248  0.0136 -0.1817
 5593W        W 9644   9.076   8.411   2.746  0.0880 -0.1449 -0.0440
 5594W        W 9645   8.704   1.674   0.532  0.1046 -0.2823 -0.0227
 5595W        W 9646   2.160   5.859   3.295  0.0211 -0.1767 -0.4609
 5596W        W 9647   5.044   1.727   2.422 -0.0422  0.2718  0.4363
 5597W        W 9648   6.585   8.486  10.537 -0.5732  0.3457 -0.0019
 5598W        W 9649   9.299   7.678   3.456  0.0900 -0.4569  0.0319
 5599W        W 9650   4.804   5.345  11.056 -0.2772  0.0822 -0.0692
 5600W        W 9651   6.812   8.510  12.527 -0.0149 -0.1320 -0.1007
 5601W        W 9652   4.160   0.631  10.420  0.3791  0.2169 -0.0505
 5602W        W 9653   5.638   9.834   4.717  0.4265 -0.3804 -0.0991
 5603W        W 9654   3.945   6.787   9.409  0.0089 -0.0579  0.0241
 5604W        W 9655   8.261   8.450   9.484  0.1732 -0.2076  0.2293
 5605W        W 9656   1.647   4.530   0.106  0.2678 -0.1433 -0.2210
 5606W        W 9657   7.264   5.124   2.359  0.0238 -0.0413 -0.0744
 5607W        W 9658   1.721   7.092  10.205 -0.2828 -0.3194  0.3177
 5608W        W 9659   1.116   5.729   2.347 -0.4464 -0.4264  0.1252
 5609W        W 9660   1.057   9.041   2.827  0.3889 -0.3215  0.1300
 5610W        W 9661   4.735   9.806   3.418 -0.2543  0.1877  0.0687
 5611W        W 9662   2.034   9.898  12.383  0.0438  0.4264  0.1819
 5612W        W 9663   2.522   7.886   4.836 -0.2409  0.2143 -0.1405
 5613W        W 9664   1.448   1.662  12.498 -0.0108  0.0312  0.1599
 5614W        W 9665   9.301   5.118  12.144  0.3105 -0.1683 -0.1340
 5615W        W 9666   3.409   1.049  11.050 -0.2269 -0.1563 -0.0527
 5616W        W 9667   1.478   4.217   2.432  0.1639  0.1561  0.1403
 5617W        W 9668   5.027   5.530  13.763  0.0604  0.0063 -0.1018
 5618W        W 9669  10.104   0.770  12.645 -0.1414  0.0417  0.1485
 5619W        W 9670   5.001   2.906   2.897 -0.0961 -0.1016  0.0944
 5620W        W 9671   2.759   3.678   1.128  0.2527  0.5082  0.2057
 5621W        W 9672   5.121   6.004   1.642  0.0505  0.1316  0.0861
 5622W        W 9673   2.624   2.659   4.567  0.2425  0.0272 -0.1705
 5623W        W 9674   2.521   3.283   3.967 -0.1197  0.0623  0.1677
 5624W        W 9675   0.803   7.595   9.265 -0.0112 -0.2319  0.1804
 5625W        W 9676   8.945   5.754   2.513 -0.0182 -0.0517 -0.0630
 5626W        W 9677   9.493   2.283  11.447  0.1669 -0.2644 -0.0677
 5627W        W 9678   9.914   7.619   3.821 -0.0708 -0.0038  0.0618
 5628W        W 9679   6.361   2.855  11.369 -0.1343 -0.1996  0.3214
 5629W        W 9680   8.437   7.755  12.273 -0.0353 -0.0653  0.3710
 5630W        W 9681   0.612   0.237   9.354 -0.0128  0.0793 -0.0820
 5631W        W 9682   7.894   4.703  12.166 -0.2305 -0.1671  0.0838
 5632W        W 9683   3.258   2.668   0.253 -0.0836 -0.1060  0.0170
 5633W        W 9684   0.612   8.395   3.086 -0.1267 -0.0278 -0.1587
 5634W        W 9685   0.599   6.826   1.215 -0.2051 -0.0365 -0.0639
 5635W        W 9686   7.228   1.139  10.643 -0.0900 -0.0247 -0.1181
 5636W        W 9687   2.782   0.468  13.413 -0.0054  0.2688  0.1079
 5637W        W 9688   5.009   5.494   9.976 -0.2903 -0.1784 -0.1263
 5638W        W 9689   1.681   8.765   1.364 -0.0856  0.0164  0.0124
 5639W        W 9690   7.672   6.435  12.940  0.0175  0.2845 -0.0627
 5640W        W 9691   3.384   9.281   9.528  0.0287 -0.0434 -0.0700
 5641W        W 9692   0.118   5.958   3.883  0.0198 -0.2005 -0.0506
 5642W        W 9693   3.108   9.094  10.366 -0.2896 -0.2330  0.0297
 5643W        W 9694   2.906   6.880   4.452 -0.1792 -0.2414 -0.0710
 5644W        W 9695   8.703   2.683   1.753  0.1086 -0.1590 -0.0472
 5645W        W 9696   0.488   7.306   3.487  0.1144 -0.0218  0.1198
 5646W        W 9697   8.571   2.601   3.274 -0.0253  0.3110  0.0140
 5647W        W 9698   4.534   5.235  12.154 -0.1708  0.0347 -0.0446
 5648W        W 9699   4.695   2.134  13.086 -0.0848 -0.0385  0.0929
 5649W        W 9700   0.333   2.798  11.845  0.0579 -0.2419 -0.1785
 5650W        W 9701  10.101   9.848   1.588  0.0433 -0.1156 -0.3353
 5651W        W 9702   8.967   8.119   0.022 -0.0815 -0.2355 -0.3511
 5652W        W 9703   9.410   9.139   2.731 -0.2434 -0.0491  0.2480
 5653W        W 9704   3.012   7.006   2.522  0.1245  0.0157 -0.0611
 5654W        W 9705   9.743   5.340  10.867  0.1086 -0.0542  0.2635
 5655W        W 9706   3.943   1.785   1.391 -0.4176  0.2849 -0.2214
 5656W        W 9707   5.285   2.980   3.754  0.3211  0.0523 -0.0573
 5657W        W 9708   6.943   9.990  12.853 -0.0087 -0.2000 -0.2696
 5658W        W 9709   4.571   4.357  13.336 -0.1863  0.0019  0.0155
 5659W        W 9710   8.777   5.162  10.694 -0.2461  0.1678  0.2414
 5660W        W 9711   0.126   4.554   4.566 -0.1679  0.1052 -0.0974
 5661W        W 9712   6.571   0.746   2.913  0.3871 -0.3956  0.0807
 5662W        W 9713   7.814   2.592  10.957 -0.0044 -0.1691  0.1047
 5663W        W 9714   2.278   3.774  13.041  0.3158 -0.0602  0.3024
 5664W        W 9715   0.809   0.999   3.956 -0.2120  0.1690  0.1310
 5665W        W 9716   8.468   2.770   9.033  0.2326 -0.0516  0.1565
 5666W        W 9717   8.400   8.115   1.292 -0.0384  0.0922 -0.0311
 5667W        W 9718   3.440   3.418   9.808  0.2497 -0.0596  0.1366
 5668W        W 9719   1.474   9.818  13.994 -0.0735  0.2052 -0.0451
 5669W        W 9720   8.812   1.456  10.701 -0.0165  0.0715 -0.2446
 5670W        W 9721   1.247   7.001  12.946 -0.1254  0.3448 -0.3150
 5671W        W 9722   7.100   3.949  11.955  0.2145 -0.2478 -0.3050
 5672W        W 9723   9.489   3.654  11.856  0.1218 -0.1603  0.0041
 5673W        W 9724   3.515   2.067  12.385  0.2827 -0.0396 -0.0966
 5674W        W 9725   3.846   2.029   3.057 -0.0377  0.0581 -0.0695
 5675W        W 9726   2.028   1.633   3.376 -0.2994  0.0961  0.0693
 5676W        W 9727   8.352   4.458   0.387  0.2206  0.1096 -0.2783
 5677W        W 9728   6.081   8.731  11.869 -0.3750  0.0064  0.0208
 5678W        W 9729   2.745   3.558   1.663  0.2899 -0.0004  0.0246
 5679W        W 9730   6.912   8.721   9.616 -0.2051 -0.0939  0.1377
 5680W        W 9731   9.032   1.919   0.935  0.4061  0.0247  0.0669
 5681W        W 9732   8.638   0.461   3.335  0.0410 -0.0017 -0.1929
 5682W        W 9733   1.397   4.515  10.240 -0.0211 -0.0120  0.3804
 5683W        W 9734   0.710   4.066  10.218  0.2069 -0.0296 -0.3985
 5684W        W 9735   5.284   5.334   3.622 -0.3873  0.0668  0.1477
 5685W        W 9736   1.596   2.817   0.596 -0.1012 -0.0274  0.0457
 5686W        W 9737   6.674   8.436   1.506 -0.1205 -0.0874 -0.3504
 5687W        W 9738   8.182   6.094  13.013  0.0984 -0.4245 -0.5648
 5688W        W 9739   5.485   3.771   3.712 -0.0944  0.1448  0.3579
 5689W        W 9740   7.736   8.469   3.691 -0.0681 -0.3653  0.1073
 5690W        W 9741   3.727   7.888   0.064 -0.2792  0.0322  0.2559
 5691W        W 9742   6.192   6.618   2.635  0.3324  0.0508 -0.2500
 5692W        W 9743   0.186   8.228  12.769  0.2612 -0.1277  0.1222
 5693W        W 9744   9.283   8.503   1.327  0.0521  0.2018  0.1541
 5694W        W 9745   2.614   4.905   1.968  0.0745  0.2658 -0.0987
 5695W        W 9746   0.512   0.022   4.236 -0.0775  0.1115 -0.0214
 5696W        W 9747   6.218   1.295  13.281  0.3319  0.0110  0.0290
 5697W        W 9748   3.152   9.795   9.686  0.2027  0.0352  0.1764
 5698W        W 9749   6.432   6.777   3.931 -0.0596 -0.2359 -0.4629
 5699W        W 9750   0.807   0.878   0.673 -0.0887  0.0983 -0.0163
 5700W        W 9751   8.554   0.108   1.428 -0.3675  0.2332  0.0656
 5701W        W 9752   6.380   3.100   8.139  0.1238 -0.0394  0.0013
 5702W        W 9753   6.582   6.884   9.628 -0.2182 -0.1058 -0.2827
 5703W        W 9754   9.658   6.229   2.824 -0.2541  0.3372 -0.1368
 5704W        W 9755   4.686   7.633   4.658  0.0297  0.0745  0.0210
 5705W        W 9756   7.037   6.217  12.173 -0.0103  0.4065  0.0877
 5706W        W 9757   8.957   0.278   1.656  0.0372 -0.2770 -0.0238
 5707W        W 9758   8.913   0.755  12.612  0.2263 -0.1777 -0.1889
 5708W        W 9759   8.108   1.230  13.329  0.4306  0.1018  0.2604
 5709W        W 9760   5.822   2.262  11.131 -0.0965 -0.0846  0.2009
 5710W        W 9761   4.076   0.651   0.685  0.1065 -0.1799 -0.2618
 5711W        W 9762   0.625   0.325  10.790  0.0180  0.0937 -0.4040
 5712W        W 9763   3.965   8.611  13.861 -0.0048 -0.2934 -0.0327
 5713W        W 9764   2.249   7.317  11.647 -0.0089  0.0028  0.2300
 5714W        W 9765   6.903   1.280  12.609 -0.2065  0.1594 -0.0917
 5715W        W 9766   7.449   8.862   4.578  0.0518 -0.0714 -0.2057
 5716W        W 9767   2.453   7.968   8.592 -0.3239  0.1710  0.1032
 5717W        W 9768   1.284   4.627   9.197 -0.0997 -0.0239 -0.0835
 5718W        W 9769   8.146   3.941   1.238 -0.1906  0.2802 -0.1956
 5719W        W 9770   1.765   2.248  11.910 -0.0314  0.1882  0.2697
 5720W        W 9771   4.227   4.542  12.067 -0.6793  0.2125  0.1589
 5721W        W 9772   9.004   0.785   1.464  0.1321  0.2316  0.2965
 5722W        W 9773   7.330   0.922  13.879  0.0181 -0.1784  0.2158
 5723W        W 9774   5.498   6.456   2.384  0.0369  0.2498  0.2404
 5724W        W 9775   1.226   1.350  12.841  0.0195  0.1847  0.2150
 5725W        W 9776   9.932   4.195   1.647  0.0926  0.1110 -0.1734
 5726W        W 9777   1.680   1.756   3.799 -0.2054 -0.3197  0.0928
 5727W        W 9778   4.812   6.138   2.448 -0.4841 -0.0193  0.0976
 5728W        W 9779   2.243   0.644   2.432 -0.1529  0.1577  0.2642
 5729W        W 9780   5.481   4.217   0.238  0.1281  0.0071  0.0274
 5730W        W 9781   2.014   3.974  10.507  0.1513  0.4518  0.1651
 5731W        W 9782   6.118   5.572   0.277  0.4195 -0.5910  0.3111
 5732W        W 9783   1.931   1.293   1.506 -0.3758 -0.1385  0.2263
 5733W        W 9784   6.136   4.505   2.842 -0.1354 -0.1686 -0.1590
 5734W        W 9785   9.143   7.928  11.456  0.2984  0.1527  0.0163
 5735W        W 9786   3.625   2.999   4.660 -0.0450  0.0771 -0.0135
 5736W        W 9787   7.690   5.581   9.443  0.1486 -0.0386 -0.1743
 5737W        W 9788   4.297   9.818   2.417 -0.1230  0.1814  0.0599
 5738W        W 9789   0.104   9.971   2.497  0.1921  0.0468 -0.0207
 5739W        W 9790   5.178   7.668   0.927  0.0458 -0.0262 -0.1121
 5740W        W 9791   5.270   1.432   0.403  0.0255  0.1973 -0.0217
 5741W        W 9792   0.678   1.779   3.548 -0.2020  0.3097 -0.0081
 5742W        W 9793   1.715  10.035   0.443  0.0393 -0.2880 -0.3333
 5743W        W 9794   0.396   5.818   2.157  0.3547 -0.2639 -0.0321
 5744W        W 9795   4.792   0.937  11.628  0.3683  0.4422  0.0274
 5745W        W 9796   4.031   4.637  14.007  0.1052  0.1116  0.0463
 5746W        W 9797   0.277   5.744   4.369 -0.0599  0.0420  0.0006
 5747W        W 9798   2.022   4.247  13.877 -0.0197  0.1695 -0.1607
 5748W        W 9799   2.767   0.695   2.434 -0.0761  0.0339  0.0856
 5749W        W 9800   8.107   5.852   9.418 -0.0505  0.0315  0.1176
 5750W        W 9801   2.433   6.147   2.845 -0.1320  0.1071  0.1721
 5751W        W 9802   7.700   1.305   3.036 -0.1922 -0.1147  0.0965
 5752W        W 9803   1.277   9.738   9.687  0.1796 -0.0966 -0.1314
 5753W        W 9804   0.942   7.835   1.033  0.1487  0.2477  0.0001
 5754W        W 9805   7.116   8.517  10.673  0.1739  0.3419  0.1576
 5755W        W 9806   6.449   4.662  12.971 -0.1958  0.1253 -0.1658
 5756W        W 9807   7.211   1.115   1.742 -0.1033 -0.2852  0.0909
 5757W        W 9808   3.532   0.342  11.085 -0.2223  0.0091  0.2161
 5758W        W 9809   4.076   9.526  10.260 -0.0502 -0.1223 -0.1964
 5759W        W 9810   5.799   0.085   0.398 -0.1094  0.1061  0.1085
 5760W        W 9811   6.140   7.802  11.814 -0.0668 -0.0157  0.2784
 5761W        W 9812   2.086   8.542   3.663  0.1937 -0.0933 -0.1768
 5762W        W 9813   3.677   4.057   2.833 -0.1400 -0.2035 -0.2694
 5763W        W 9814   6.763   5.870   2.436 -0.1956 -0.0292 -0.5142
 5764W        W 9815   0.736   6.839   9.643  0.2616 -0.1766  0.1271
 5765W        W 9816   9.683   9.267  12.520 -0.1673  0.4530  0.0314
 5766W        W 9817   6.683   6.587  11.019  0.0890 -0.0180  0.2489
 5767W        W 9818   3.446   0.181  13.480  0.1635  0.3451 -0.3506
 5768W        W 9819   4.626   0.864  13.513 -0.0522 -0.1799  0.0178
 5769W        W 9820   1.747   8.423   9.084 -0.0340  0.1136 -0.0298
 5770W        W 9821   6.482   9.802   3.496  0.1055  0.1465  0.1271
 5771W        W 9822   7.898   9.223  12.338 -0.0869 -0.2425 -0.0405
 5772W        W 9823   6.845   0.637  11.276  0.0548 -0.0976 -0.0426
 5773W        W 9824   5.232   1.738  13.579  0.1739  0.3466 -0.2878
 5774W        W 9825   4.240   2.135  13.304 -0.0984 -0.2515  0.2039
 5775W        W 9826   2.972   9.738  11.275 -0.1663 -0.0060  0.2129
 5776W        W 9827   4.800   0.896  10.286  0.1255 -0.2224  0.0864
 5777W        W 9828   7.884   7.845   9.708  0.1998  0.2181 -0.4991
 5778W        W 9829   8.498   7.471   3.028  0.1504  0.1459  0.1127
 5779W        W 9830   5.316   3.222   0.645  0.1186  0.0380 -0.0661
 5780W        W 9831   8.719   0.544  13.012  0.0708 -0.1275 -0.1948
 5781W        W 9832   3.887   0.706   3.814  0.0106  0.2445  0.2177
 5782W        W 9833   0.697   9.160  11.819 -0.1864 -0.0278  0.1477
 5783W        W 9834   2.493   7.932  13.622  0.1703  0.3365 -0.1454
 5784W        W 9835   4.754   7.608   2.233  0.0524  0.2276 -0.0438
 5785W        W 9836   3.927   7.970  13.283 -0.2322 -0.0301 -0.1030
 5786W        W 9837   8.974   3.479  12.587 -0.0239 -0.1821  0.4223
 5787W        W 9838   9.670   7.425  10.508  0.0647 -0.1626 -0.1105
 5788W        W 9839   2.829   5.778  11.658  0.1368 -0.0120  0.2450
 5789W        W 9840   4.935   8.110   5.043  0.0842  0.2544 -0.2147
 5790W        W 9841   2.927   6.969   5.402  0.0174 -0.0159 -0.1285
 5791W        W 9842   0.573   6.182   3.333 -0.2498 -0.0710 -0.0531
 5792W        W 9843   4.535   2.673   2.929  0.2020  0.0239 -0.0484
 5793W        W 9844   2.932   5.841   9.561  0.1369  0.2680  0.2028
 5794W        W 9845   3.424   8.592   0.958  0.0674  0.2396  0.1895
 5795W        W 9846   1.555   7.334   3.269 -0.2207  0.1639  0.1116
 5796W        W 9847   9.232   1.465   0.699 -0.1703  0.0667 -0.1641
 5797W        W 9848   8.130   4.634   3.441 -0.1742 -0.1212  0.0526
 5798W        W 9849   0.558   2.291   1.038 -0.3091 -0.1218  0.1402
 5799W        W 9850   1.074   7.201   1.539  0.0428  0.2225 -0.2382
 5800W        W 9851   6.502   3.601   9.890  0.1025 -0.3264  0.1788
 5801W        W 9852   9.323   7.654   9.264 -0.1426 -0.0263 -0.2721
 5802W        W 9853   4.211   9.760   3.454 -0.0946 -0.2655  0.3924
 5803W        W 9854   2.874   6.958   0.197 -0.0996 -0.2027  0.0884
 5804W        W 9855   0.760   5.718   1.024 -0.0427 -0.2527  0.0796
 5805W        W 9856   5.616   8.416   1.176  0.0933  0.2125  0.2484
 5806W        W 9857   5.694   2.337  10.603  0.3102  0.1382  0.1736
 5807W        W 9858   0.165   1.143  10.000  0.0621  0.0662 -0.1773
 5808W        W 9859   1.149   5.701   4.875 -0.1129  0.1132 -0.3055
 5809W        W 9860   9.877   2.181  11.774  0.1525  0.0573  0.2809
 5810W        W 9861   9.708   1.095   2.690 -0.2132 -0.2698 -0.0476
 5811W        W 9862   4.806   9.112  13.830 -0.0175 -0.0297  0.2712
 5812W        W 9863   3.079   1.313  10.767 -0.1884  0.1290  0.0885
 5813W        W 9864   2.621   6.655   4.754  0.2428  0.1136 -0.1347
 5814W        W 9865   7.410   1.755  11.736 -0.0008 -0.1426 -0.1935
 5815W        W 9866  10.128   0.985  10.902  0.0716 -0.3681  0.1164
 5816W        W 9867   4.090   7.549   1.835  0.0193 -0.2253 -0.0620
 5817W        W 9868   8.869   0.017   3.383  0.0146  0.0409  0.3898
 5818W        W 9869   9.669   8.460   4.488 -0.1810  0.0780 -0.2478
 5819W        W 9870   2.815   6.727   9.591  0.2247 -0.1100 -0.0030
 5820W        W 9871   1.486   6.820  13.771 -0.0323 -0.0084  0.0684
 5821W        W 9872   7.505   3.366  13.257 -0.0343 -0.0130 -0.1273
 5822W        W 9873   9.350   5.525   8.995 -0.0352  0.0543  0.0679
 5823W        W 9874   0.381   1.273  13.884 -0.5675  0.1714  0.1187
 5824W        W 9875   3.013   1.317   1.018 -0.1871 -0.0124  0.1533
 5825W        W 9876   7.183   7.630   5.727  0.0066  0.0859  0.0922
 5826W        W 9877   7.831   0.685   9.452  0.0968  0.1998  0.1316
 5827W        W 9878   8.484   3.463  10.961  0.0406  0.1637  0.3123
 5828W        W 9879   9.970   6.418  11.512  0.1017 -0.2402  0.2280
 5829W        W 9880   7.501   1.338  10.154 -0.0471  0.2071 -0.1023
 5830W        W 9881   7.522   2.410   0.478  0.0108  0.0213 -0.2104
 5831W        W 9882   3.133   3.375   1.157 -0.1696  0.0630 -0.1198
 5832W        W 9883   1.242   6.833  10.417 -0.0351 -0.0732  0.0227
 5833W        W 9884   0.445   3.407   8.996  0.0665 -0.0699 -0.0452
 5834W        W 9885   3.288   0.137   0.488 -0.0212 -0.2349  0.2063
 5835W        W 9886   8.427   6.553  11.533 -0.0502 -0.0237  0.2041
 5836W        W 9887   8.868   6.015   4.913  0.3461  0.1816  0.1199
 5837W        W 9888   3.309   9.535   4.134  0.3747 -0.0335  0.2676
 5838W        W 9889   0.272   7.491   3.932 -0.0694  0.0981  0.0056
 5839W        W 9890   8.926   2.545   2.338  0.0005  0.0200  0.1036
 5840W        W 9891   9.706   2.781   1.462  0.0668 -0.0051 -0.0315
 5841W        W 9892   4.859   0.283   3.456 -0.2081 -0.2838 -0.1769
 5842W        W 9893   2.011   8.340   1.807 -0.0108 -0.2556 -0.0133
 5843W        W 9894   7.704   8.051   1.974 -0.0834 -0.1164 -0.0790
 5844W        W 9895   9.210   3.614  13.887 -0.3836 -0.3043  0.2409
 5845W        W 9896   5.458   1.443  10.643 -0.3931  0.3803  0.0226
 5846W        W 9897   7.673   1.314  13.929  0.0378 -0.0536 -0.0554
 5847W        W 9898   9.297   5.695   2.188 -0.2676 -0.2962  0.3062
 5848W        W 9899   1.907   7.467   4.696 -0.0360  0.1707 -0.0945
 5849W        W 9900   8.874   2.791   2.766  0.0792 -0.1919 -0.1685
 5850W        W 9901   3.627   1.248  11.471 -0.2072  0.2674  0.1207
 5851W        W 9902   0.792   6.731   9.015  0.2035 -0.0515  0.0806
 5852W        W 9903   0.767   9.157   0.506 -0.2681  0.2542 -0.1419
 5853W        W 9904   1.979   0.913  10.518 -0.1909  0.1759  0.2430
 5854W        W 9905   7.518   5.536   2.998 -0.1042 -0.0531 -0.1030
 5855W        W 9906   8.274   5.280  10.523 -0.1299 -0.1737  0.0431
 5856W        W 9907   7.818   0.433  10.381  0.2439  0.1532 -0.0955
 5857W        W 9908   7.812   4.703   3.961 -0.0538 -0.0739 -0.3283
 5858W        W 9909   7.845   0.091  10.920  0.1100  0.1073 -0.0847
 5859W        W 9910   8.987   1.717  14.057 -0.2571 -0.0399 -0.0066
 5860W        W 9911   1.928   9.330   2.274 -0.1704  0.0753  0.1336
 5861W        W 9912   4.395   0.965  12.677 -0.1623  0.2011  0.0523
 5862W        W 9913   1.150   4.194   9.401  0.1110 -0.0961 -0.2594
 5863W        W 9914   5.613   7.708   4.721 -0.3389 -0.0708  0.2042
 5864W        W 9915   8.952   1.759   3.790 -0.1504 -0.1811  0.2443
 5865W        W 9916   9.383   6.771  12.344  0.2559  0.1119  0.0707
 5866W        W 9917   7.151  10.134  11.425 -0.1314  0.0684 -0.0259
 5867W        W 9918   9.890   6.982   0.959  0.1965  0.0543 -0.1357
 5868W        W 9919   1.667   2.193  12.733 -0.2247 -0.0500 -0.2026
 5869W        W 9920   2.892   2.409   2.287  0.0926 -0.2699 -0.0733
 5870W        W 9921   9.813   8.923   1.492  0.2966  0.0169  0.0353
 5871W        W 9922   3.550   8.642  11.537 -0.1311 -0.1303 -0.3198
 5872W        W 9923   3.574   5.037   2.984 -0.3674  0.2526 -0.0857
 5873W        W 9924   0.537   7.352   1.562  0.2165  0.0974  0.1927
 5874W        W 9925   3.490   6.516   0.425 -0.0923 -0.0787 -0.1507
 5875W        W 9926   9.728   4.819   5.140 -0.0596 -0.0732  0.1901
 5876W        W 9927   4.073   3.655   1.574 -0.0005 -0.1442  0.2657
 5877W        W 9928   4.636   4.722   4.061  0.1523 -0.0108 -0.3402
 5878W        W 9929   4.913   9.761  13.320 -0.0309  0.0564 -0.1288
 5879W        W 9930   8.800   6.162   2.807  0.0621  0.1007  0.2034
 5880W        W 9931   8.231   3.390   1.859 -0.0769 -0.0493  0.1399
 5881W        W 9932   4.940   5.717   3.642 -0.1400 -0.0109 -0.2980
 5882W        W 9933   1.316   8.471   4.229  0.0915  0.1572 -0.0023
 5883W        W 9934   6.961   5.496   1.139 -0.0600  0.0574 -0.0989
 5884W        W 9935   3.459   1.186  11.970  0.0560  0.2183  0.2593
 5885W        W 9936   9.822   8.975  12.934 -0.0618  0.0985 -0.2366
 5886W        W 9937   9.933  10.124   9.334 -0.0001 -0.0108  0.1390
 5887W        W 9938   2.544   2.779  10.936  0.0683  0.0021  0.1952
 5888W        W 9939   6.563   7.073  13.202  0.1280  0.1105  0.0007
 5889W        W 9940   9.216   0.631  13.186  0.0242 -0.0211 -0.0304
 5890W        W 9941   7.862   6.797  10.357  0.0534  0.2454  0.0233
 5891W        W 9942   1.473   0.127   4.510 -0.2529 -0.1455  0.0509
 5892W        W 9943   7.818   2.572   3.273 -0.3202  0.0879  0.4043
 5893W        W 9944   6.973   7.336   2.448  0.1295 -0.1925 -0.0862
 5894W        W 9945   8.754   5.645  10.393 -0.0269 -0.1223  0.3185
 5895W        W 9946   8.100   7.249   3.203 -0.0786  0.1246  0.0421
 5896W        W 9947   5.301   9.682   1.230 -0.1980 -0.0046  0.2307
 5897W        W 9948   9.971   5.897   9.803  0.1054  0.0588 -0.0153
 5898W        W 9949   0.906   8.072   2.874  0.0914 -0.1463  0.1979
 5899W        W 9950   0.736   2.708  11.076 -0.1095 -0.0745  0.2402
 5900W        W 9951   6.486   5.511  11.313  0.1843  0.0400  0.1698
 5901W        W 9952   0.418   0.901  10.674  0.0452 -0.1406  0.0475
 5902W        W 9953   2.995   6.932   1.107 -0.4431 -0.4389  0.4252
 5903W        W 9954   9.578   9.667  13.010  0.0919 -0.0539 -0.0250
 5904W        W 9955  10.044   7.730   2.165  0.1135  0.0661 -0.2086
 5905W        W 9956   1.598   7.899  12.294  0.1055  0.0852  0.1437
 5906W        W 9957   3.811   6.760   5.101 -0.0436  0.0218  0.2120
 5907W        W 9958   1.846   9.631   9.312 -0.1266 -0.1786 -0.0561
 5908W        W 9959   6.034   5.217  12.676 -0.1362  0.2304  0.0394
 5909W        W 9960   8.239   9.595  10.182 -0.0559 -0.0757  0.4062
 5910W        W 9961   4.716   0.708   0.881  0.0334  0.0411 -0.5347
 5911W        W 9962   4.030   0.453   3.367 -0.2474  0.1462 -0.2116
 5912W        W 9963   9.924   8.939   9.548  0.0016  0.1059  0.0429
 5913W        W 9964   8.415   1.494  11.087  0.1721 -0.2025  0.1172
 5914W        W 9965   4.533   6.398  10.980 -0.2530  0.0971 -0.0392
 5915W        W 9966   0.543   6.543   3.735  0.3083  0.0993  0.0919
 5916W        W 9967   8.737   5.307  11.180 -0.1378 -0.0234 -0.3722
 5917W        W 9968   5.274   5.639  10.857 -0.1926  0.0338  0.2538
 5918W        W 9969   5.888   0.301   4.034 -0.0175 -0.3694 -0.1102
 5919W        W 9970   3.908   5.205  11.759 -0.2453 -0.2464 -0.3335
 5920W        W 9971   7.257   5.420  12.250 -0.1000  0.2135 -0.1639
 5921W        W 9972   8.333   1.006  11.979  0.2079  0.1003  0.0429
 5922W        W 9973   2.424   2.002   4.209 -0.0126 -0.2341 -0.1552
 5923W        W 9974   0.552   6.011  11.118  0.0079  0.4223  0.1879
 5924W        W 9975   3.454   3.679   5.308  0.1825  0.1861 -0.3797
 5925W        W 9976   4.105   7.369   1.374 -0.3284  0.0870 -0.1673
 5926W        W 9977   1.159   7.545   9.686 -0.2780 -0.2351  0.2701
 5927W        W 9978   1.411   7.999   3.481 -0.1148  0.2340 -0.2837
 5928W        W 9979   4.391   2.329  12.700  0.0943 -0.2956 -0.1163
 5929W        W 9980   1.524   9.016   3.096 -0.3163  0.0429 -0.1673
 5930W        W 9981   7.420   5.434  10.821  0.0782  0.0400 -0.1495
 5931W        W 9982   8.386   5.651   4.767 -0.0052 -0.1488 -0.1110
 5932W        W 9983   2.443   2.675   3.231  0.0957  0.2678  0.1514
 5933W        W 9984   8.990   4.049   3.865  0.0871  0.1248 -0.1711
 5934W        W 9985   2.714   3.536  13.884  0.1832  0.1778 -0.0307
 5935W        W 9986   2.485   6.108   0.463 -0.0104 -0.1457 -0.1480
 5936W        W 9987   5.078   9.754  10.533  0.2020  0.0710 -0.4520
 5937W        W 9988   1.265   4.867   0.986 -0.0455  0.0979  0.0833
 5938W        W 9989   2.862   4.681   9.623  0.0506  0.2891  0.0949
 5939W        W 9990   8.401   4.867  13.611 -0.4900  0.0418 -0.1543
 5940W        W 9991   6.388   1.194  13.758 -0.1393 -0.1650 -0.2855
 5941W        W 9992   9.210   6.384   2.942  0.2270 -0.0056 -0.0116
 5942W        W 9993   6.344   2.970   1.191  0.0006 -0.0371 -0.1092
 5943W        W 9994   7.624   5.762   4.390 -0.1219 -0.1688  0.1976
 5944W        W 9995   7.781   7.872  13.246  0.1574  0.1894  0.0430
 5945W        W 9996   7.709   9.417  11.411  0.1380 -0.0319  0.0994
 5946W        W 9997   6.117   4.722  10.876  0.1907 -0.2759 -0.1001
 5947W        W 9998   1.502   7.446   1.737 -0.1515  0.0802  0.0477
 5948W        W 9999   8.813   5.992  10.733  0.0582 -0.0516 -0.1461
 5949W        W10000   9.553   8.297  12.249  0.1768  0.3332 -0.1448
 5950W        W10001   6.418   5.850   4.186  0.2172 -0.0953  0.1053
 5951W        W10002   2.929   2.049   4.087 -0.3320  0.2600  0.0056
 5952W        W10003   5.047   3.542  13.675 -0.1940 -0.0053 -0.3390
 5953W        W10004   4.258   8.311   5.427 -0.1492  0.0100  0.1161
 5954W        W10005   4.053   2.692   0.229  0.1027  0.1479  0.1644
 5955W        W10006   1.533   5.879   1.467  0.0939 -0.0154 -0.3662
 5956W        W10007   7.436   8.191  13.264  0.1240 -0.3422  0.5084
 5957W        W10008   0.876   4.413   8.447 -0.2136  0.1004  0.0339
 5958W        W10009   8.434   1.588   3.484  0.1209  0.2211  0.0899
 5959W        W10010   2.728   3.848   2.756 -0.2348  0.3054 -0.0517
 5960W        W10011   3.907   2.104  11.976  0.0348 -0.1422 -0.1472
 5961W        W10012   3.053   0.644  13.076 -0.0484  0.2128 -0.2533
 5962W        W10013   9.055   1.886   2.878 -0.3285 -0.0980 -0.1868
 5963W        W10014   9.706   4.300   3.755  0.0565  0.0942 -0.0289
 5964W        W10015   1.815   5.740  12.464 -0.2459  0.0395 -0.3819
 5965W        W10016   7.172   6.144   3.610  0.1212 -0.4655  0.1939
 5966W        W10017   7.532   1.083   0.262  0.0412 -0.2664 -0.3641
 5967W        W10018   7.031   2.030   3.193  0.0934 -0.3225 -0.0694
 5968W        W10019   7.186   5.932   2.146  0.3521 -0.0399  0.0221
 5969W        W10020   5.401  10.060  13.921 -0.2341 -0.0553 -0.1249
 5970W        W10021   3.335   1.621  11.693  0.2161  0.1818 -0.0324
 5971W        W10022   1.045   9.869  12.997 -0.1877  0.1682  0.0449
 5972W        W10023   8.571   9.540   3.770  0.1959  0.0401  0.1391
 5973W        W10024   3.102   6.964   3.776 -0.0052  0.1243  0.1477
 5974W        W10025   1.002   9.128   1.829 -0.1294  0.3113  0.1422
 5975W        W10026   8.398   2.673   2.470  0.3535 -0.0125  0.0720
 5976W        W10027   0.102   8.575  10.271 -0.1475 -0.0122 -0.1368
 5977W        W10028   0.085   7.243   1.746 -0.0205  0.3715 -0.0148
 5978W        W10029   1.793  10.077   1.310  0.0812 -0.2038  0.1284
 5979W        W10030   9.755   6.062   1.492  0.0784  0.3438  0.2372
 5980W        W10031   8.648   2.290  11.828 -0.0410  0.1716  0.0786
 5981W        W10032   6.486   5.256   2.881 -0.0925 -0.0330 -0.1615
 5982W        W10033   5.678   1.904  12.174  0.2517 -0.0095 -0.0377
 5983W        W10034   6.271   6.444   0.439  0.1767 -0.2793 -0.0428
 5984W        W10035   3.776   6.030   4.406  0.1578  0.1173 -0.2269
 5985W        W10036   3.473   0.854   1.861 -0.1639  0.1125  0.3317
 5986W        W10037   3.714   5.820  14.045  0.2381  0.0922 -0.5484
 5987W        W10038   4.570   5.795  13.586 -0.0541  0.0283 -0.2955
 5988W        W10039   7.239   2.356   0.104  0.2761  0.1525 -0.1665
 5989W        W10040   0.701   7.653   5.197 -0.1248  0.1044  0.2401
 5990W        W10041   5.587   0.288   1.877  0.0700  0.1932  0.0532
 5991W        W10042   0.828   5.461   1.543 -0.0246 -0.1494 -0.1119
 5992W        W10043   4.351   8.333  13.080 -0.0604 -0.0199  0.2229
 5993W        W10044   1.931   3.979  13.370 -0.4180 -0.4963 -0.2283
 5994W        W10045   4.630   2.139   1.852 -0.1936  0.0403  0.1377
 5995W        W10046   1.099   3.187   1.450 -0.0509  0.0974  0.0667
 5996W        W10047   6.551   5.674  13.413  0.0391  0.2238 -0.1503
 5997W        W10048   2.120   0.378   8.904 -0.3726  0.0589  0.1807
 5998W        W10049   9.740   6.786  13.260 -0.2845 -0.1311  0.1850
 5999W        W10050   4.370   8.738  10.112  0.2452  0.2274 -0.2598
 6000W        W10051   8.432   2.168  12.327 -0.0885 -0.1315  0.2386
 6001W        W10052   3.730   9.442  13.172 -0.2559  0.1171  0.2390
 6002W        W10053   3.002   4.528   0.527 -0.0948 -0.4416 -0.0989
 6003W        W10054   8.003   4.232  13.945 -0.2187 -0.0706 -0.0521
 6004W        W10055   5.795   6.985   1.047 -0.3767 -0.0289  0.1172
 6005W        W10056   3.525   7.611  13.313 -0.1903 -0.2453  0.0844
 6006W        W10057   3.451   0.605   1.431 -0.3125  0.1016  0.3185
 6007W        W10058   8.902   1.780   1.379  0.2203  0.0092  0.2504
 6008W        W10059   9.780   7.365   1.946 -0.1706  0.0423  0.4480
 6009W        W10060   2.520   9.142  11.831  0.3033  0.0085 -0.2220
 6010W        W10061   9.771   1.253   4.446  0.0344 -0.1504  0.1837
 6011W        W10062   2.873   4.856   0.119  0.2998 -0.1459 -0.2735
 6012W        W10063   7.668   2.985  10.590 -0.1146 -0.1027 -0.0945
 6013W        W10064   5.069   5.676   4.129  0.0832  0.2201  0.0523
 6014W        W10065   0.394   4.328   8.637  0.1941 -0.1501 -0.2763
 6015W        W10066   4.846   9.000   5.088 -0.1662  0.2001 -0.0289
 6016W        W10067   2.189   1.960   2.854 -0.1399  0.1746  0.2692
 6017W        W10068   1.422   2.405   4.100  0.3112  0.0517 -0.1563
 6018W        W10069   9.344   0.126   0.128  0.1574 -0.1715 -0.3735
 6019W        W10070   9.389   9.419   4.196 -0.0775 -0.1274 -0.0273
 6020W        W10071   1.340   1.029   3.661 -0.2880  0.1187 -0.3757
 6021W        W10072   2.345   6.209   2.132  0.2235  0.0049 -0.0955
 6022W        W10073   1.049   0.345  10.525  0.4383  0.0367  0.3112
 6023W        W10074   0.552   6.376   4.241  0.1178 -0.2294 -0.1852
 6024W        W10075   3.772   8.149  11.361 -0.0268 -0.0139 -0.2354
 6025W        W10076   0.680   9.864   1.221  0.0350  0.0992 -0.3563
 6026W        W10077   3.832  10.051   4.253  0.2837  0.1633  0.3570
 6027W        W10078   6.078   3.964  11.092 -0.2526 -0.0021 -0.1409
 6028W        W10079   8.343   2.275  12.865 -0.1363  0.0726 -0.2661
 6029W        W10080   4.984   4.611  13.513 -0.0618 -0.0571  0.0188
 6030W        W10081   1.057   8.927  10.272 -0.4054 -0.0839 -0.0971
 6031W        W10082   5.295   3.842   0.475  0.2408  0.1088 -0.3169
 6032W        W10083   3.862  10.123  11.166  0.0172 -0.0415 -0.0550
 6033W        W10084   8.658   4.260   0.992  0.0206  0.2191  0.0938
 6034W        W10085   6.184   5.418   1.755  0.2088 -0.1232 -0.1082
 6035W        W10086   7.065   1.488  11.930  0.2255  0.2506 -0.1772
 6036W        W10087   6.671   0.538   2.009 -0.1136 -0.1463  0.4032
 6037W        W10088   7.919   7.107  13.131 -0.1254 -0.0533 -0.1738
 6038W        W10089   5.981   8.560   9.501 -0.0737  0.5598 -0.0394
 6039W        W10090   0.019   9.600  10.086 -0.2751 -0.3579  0.0766
 6040W        W10091   9.948   8.900  12.134  0.1222 -0.5067  0.0705
 6041W        W10092   7.873   2.409   1.128 -0.0518 -0.0717 -0.0801
 6042W        W10093   0.607   3.720   0.633 -0.0733  0.1840 -0.2549
 6043W        W10094   4.956   1.204  10.661 -0.1855 -0.1063 -0.1660
 6044W        W10095   9.325   7.358   2.104  0.0421  0.0743 -0.3530
 6045W        W10096   2.132   0.340   5.098  0.1670  0.3183 -0.2503
 6046W        W10097   8.265   2.560   1.480 -0.2579  0.1040 -0.0468
 6047W        W10098   2.291   8.417  10.175  0.1813 -0.1948  0.3059
 6048W        W10099   2.163   4.851   1.696 -0.1593 -0.1576 -0.0206
 6049W        W10100   8.171   5.772   1.377 -0.1138  0.0202 -0.1278
 6050W        W10101   7.789   1.869   0.932 -0.1189 -0.1865  0.1516
 6051W        W10102   0.539   9.145   8.595  0.0781 -0.0467  0.2622
 6052W        W10103   0.857   0.293   9.954 -0.1142 -0.0444  0.0478
 6053W        W10104   5.560   7.092  13.327 -0.0388  0.0751  0.3515
 6054W        W10105   8.830   2.054   4.186  0.0369 -0.0523 -0.1624
 6055W        W10106   3.900   0.825  11.322 -0.0638  0.1513 -0.2626
 6056W        W10107   8.727   5.502   3.708 -0.1055  0.3337  0.1211
 6057W        W10108   0.042   2.400   4.585  0.2162  0.0626  0.0917
 6058W        W10109   5.976   1.580  10.430 -0.0974  0.0851 -0.1869
 6059W        W10110   1.210   7.586   5.258 -0.3443 -0.1737  0.2477
 6060W        W10111   0.685   3.991   4.698 -0.0572 -0.3460  0.0290
 6061W        W10112   8.473   1.075   3.308  0.0299  0.2770  0.3519
 6062W        W10113   9.086   9.017   3.456 -0.0329 -0.3117 -0.1269
 6063W        W10114   2.529   6.311   1.633  0.0971  0.0553  0.0606
 6064W        W10115   6.963   8.266  13.511  0.1347 -0.3580  0.0951
 6065W        W10116   6.224   0.476   0.731  0.2288 -0.2784 -0.1843
 6066W        W10117   2.549   0.507   1.873 -0.1821  0.1656 -0.2345
 6067W        W10118   6.627   8.748  13.543  0.1259 -0.1032  0.2063
 6068W        W10119   9.790   3.445   4.101  0.1278  0.3536  0.2850
 6069W        W10120   1.709   5.021   2.018  0.0077  0.2791 -0.1166
 6070W        W10121   3.129   8.958   3.500 -0.0068 -0.0141 -0.0447
 6071W        W10122   5.868   0.256  10.811  0.0897 -0.2725  0.1115
 6072W        W10123   1.734   0.818   3.393  0.0130  0.0319  0.0189
 6073W        W10124   7.535   6.227   4.038  0.0155  0.3124  0.1760
 6074W        W10125   8.706   7.469  11.416 -0.0731 -0.1781 -0.0602
 6075W        W10126   8.585   0.135   2.985  0.3067  0.0176  0.1237
 6076W        W10127  10.144   1.802  10.447 -0.3498 -0.4684 -0.3462
 6077W        W10128   2.849   1.625   9.706 -0.0691 -0.0357 -0.2512
 6078W        W10129   3.972   0.491  12.756 -0.0239 -0.1966  0.0972
 6079W        W10130   6.711   1.605  13.874  0.1800 -0.1630 -0.0032
 6080W        W10131   1.097   1.464  10.607 -0.1736 -0.3693  0.2517
 6081W        W10132   1.308   6.044   9.125 -0.1468 -0.0245  0.0359
 6082W        W10133   5.760   5.889   4.029 -0.0519  0.2307 -0.1639
 6083W        W10134   5.633   2.511  12.867 -0.4173  0.1202 -0.0676
 6084W        W10135   1.408   7.271  10.595  0.0315  0.1028  0.0197
 6085W        W10136   9.423   6.123  13.052 -0.2445  0.1062  0.1553
 6086W        W10137   4.407   1.473  12.411 -0.1899 -0.0549 -0.0724
 6087W        W10138   3.421   2.116   1.030 -0.1480  0.0265 -0.1982
 6088W        W10139   0.191   3.014  12.792 -0.0983  0.4277  0.1630
 6089W        W10140   4.420   4.852   3.605  0.0175 -0.1856  0.1120
 6090W        W10141   1.241   5.284  11.439  0.3201  0.0310 -0.0736
 6091W        W10142   7.647   4.692   9.818  0.1829 -0.0875 -0.1086
 6092W        W10143   1.292   8.955  13.852  0.0828 -0.0288 -0.3300
 6093W        W10144   9.335   1.539   1.169 -0.0980 -0.2118 -0.3141
 6094W        W10145   7.038   4.102  13.427 -0.1753  0.0012 -0.1384
 6095W        W10146   9.091   4.263  13.316  0.1988  0.4599  0.0357
 6096W        W10147   7.654   5.726  11.156 -0.0864  0.2261 -0.1036
 6097W        W10148   7.354   1.993   0.765  0.1614 -0.3549 -0.0011
 6098W        W10149   2.709   6.624   0.714  0.1322  0.0963 -0.2530
 6099W        W10150   6.439   7.360   2.399 -0.0110 -0.2926 -0.2581
 6100W        W10151   3.215   1.294   1.974 -0.2630 -0.1119  0.4217
 6101W        W10152   2.704   5.780   1.609 -0.0878  0.1774  0.0764
 6102W        W10153   0.468   8.907  13.360  0.0816 -0.0290 -0.3135
 6103W        W10154  10.118   6.330   2.588 -0.1496  0.0238 -0.0653
 6104W        W10155   6.914   8.733  13.943  0.4216  0.1307  0.1400
 6105W        W10156   2.906   2.464  13.079  0.2100 -0.2123 -0.2388
 6106W        W10157   1.243   7.257  13.955  0.0382  0.1950  0.0159
 6107W        W10158   6.083   7.768  12.733  0.0953 -0.1902 -0.2930
 6108W        W10159   0.274   6.479  11.165 -0.0703  0.0342 -0.1876
 6109W        W10160   9.437   0.389   1.402  0.2839 -0.2181  0.2378
 6110W        W10161   0.072   9.310   9.646  0.1468 -0.2343 -0.1078
 6111W        W10162   5.759   6.403   9.377  0.2713  0.2779  0.1215
 6112W        W10163   6.385   4.447   3.664  0.0880 -0.0922 -0.1284
 6113W        W10164   7.303   4.249   1.689  0.3224  0.0893 -0.1841
 6114W        W10165   9.858   8.939  10.988 -0.0427  0.0820 -0.1083
 6115W        W10166   3.288   7.843   8.986 -0.0517 -0.0734  0.2529
 6116W        W10167   1.088   3.916   8.972 -0.1287 -0.0573 -0.0200
 6117W        W10168   2.443   8.484   2.596 -0.2824  0.0469 -0.3171
 6118W        W10169   9.239   7.048   4.563 -0.4369  0.3276 -0.1673
 6119W        W10170   4.627   5.878  11.425  0.1566  0.0115  0.1676
 6120W        W10171   0.224   7.807   5.012 -0.1360 -0.1166 -0.0826
 6121W        W10172   8.401   8.976   9.903 -0.1486 -0.1176 -0.1164
 6122W        W10173   5.380   5.466   2.225  0.1773  0.0750 -0.0531
 6123W        W10174   3.017   3.475   4.557 -0.1794 -0.1813  0.1830
 6124W        W10175   6.278   0.996   0.733 -0.1092  0.0320 -0.2577
 6125W        W10176   6.285   3.469  13.993  0.1227 -0.1551  0.1094
 6126W        W10177   9.060   2.441   3.162  0.2557 -0.3054  0.1949
 6127W        W10178   9.190   2.594  13.514 -0.2665  0.1458 -0.3377
 6128W        W10179   2.173   9.090   4.356  0.1594  0.1476  0.0294
 6129W        W10180   8.292   6.035  10.816  0.0050 -0.0080  0.0152
 6130W        W10181   9.673   5.591   1.151  0.0697 -0.2171 -0.0136
 6131W        W10182   5.818   3.415   0.009  0.0471  0.1118  0.2316
 6132W        W10183   3.811   6.631  12.984 -0.2459  0.0138 -0.1635
 6133W        W10184   7.811   5.622  12.121 -0.0100  0.0350 -0.0180
 6134W        W10185   9.491   3.288   2.027  0.1153  0.0373  0.3263
 6135W        W10186   8.360   0.099  13.599 -0.1468  0.1473  0.0778
 6136W        W10187   2.725   5.801   9.110  0.2734 -0.0646 -0.2001
 6137W        W10188   0.093   0.780   2.100 -0.1172  0.0129  0.1041
 6138W        W10189   7.159   9.139   3.749 -0.2201  0.0711  0.0214
 6139W        W10190   2.002   9.642  12.833 -0.0123 -0.1978  0.0071
 6140W        W10191   6.569   3.836   2.360  0.0840  0.0083  0.4642
 6141W        W10192   9.673   1.789  12.018 -0.0347 -0.2437  0.0773
 6142W        W10193   6.889   6.621  11.888 -0.0068 -0.1875  0.1955
 6143W        W10194   1.930   7.062   5.134 -0.1084 -0.0250  0.1030
 6144W        W10195   1.777   9.459   2.900  0.0123  0.1904  0.0808
 6145W        W10196   8.961  10.050   0.980 -0.0362  0.0505  0.2023
 6146W        W10197   9.178   6.843   3.084 -0.3948 -0.1083 -0.0021
 6147W        W10198   2.549   4.220   9.108 -0.0592 -0.1516  0.2555
 6148W        W10199   1.823   7.670   2.051  0.0573  0.2251 -0.0237
 6149W        W10200   5.782   3.441   0.497 -0.0902 -0.2583  0.2265
 6150W        W10201   0.955   5.319   3.732  0.4231  0.0045  0.2398
 6151W        W10202   6.247   6.563  13.452 -0.0726 -0.0399 -0.1038
 6152W        W10203   6.381   9.380   3.777 -0.2058  0.4078  0.2783
 6153W        W10204   4.361   7.560   9.656 -0.1740  0.1379 -0.2625
 6154W        W10205   0.632   9.951  12.570  0.1249 -0.0732 -0.0921
 6155W        W10206   2.387   7.952  13.036  0.0067  0.0111  0.0056
 6156W        W10207   6.568   4.503   1.789  0.0133 -0.1141 -0.1005
 6157W        W10208   3.958   3.343   2.697  0.1852 -0.1227 -0.0163
 6158W        W10209   1.727   4.883  13.774 -0.0603  0.1265 -0.2143
 6159W        W10210   6.604   1.836  13.355 -0.0670  0.0719 -0.1501
 6160W        W10211   7.026   5.694  12.652  0.0880 -0.1448  0.1726
 6161W        W10212   6.996   7.392   3.462  0.3834  0.1874 -0.2688
 6162W        W10213   4.723   6.210   4.916 -0.0591  0.1626 -0.3871
 6163W        W10214   8.936   0.983   3.260 -0.1006 -0.2809  0.0164
 6164W        W10215  10.108   7.333  11.686  0.1391 -0.0945 -0.0800
 6165W        W10216   1.039   3.362  13.511 -0.4435  0.0879  0.0229
 6166W        W10217   4.702   0.456   1.534 -0.1420 -0.0929 -0.0765
 6167W        W10218   4.506   2.941  13.621 -0.1137  0.0429 -0.0002
 6168W        W10219   1.340   7.541   9.213 -0.0140  0.3572 -0.1382
 6169W        W10220   7.538   6.884  10.764 -0.1474 -0.0738 -0.0286
 6170W        W10221   0.116   8.575   0.391 -0.0850  0.2968 -0.0324
 6171W        W10222   2.143   3.709   4.446  0.1476  0.0796 -0.0745
 6172W        W10223   2.656   9.872   3.321  0.0454 -0.0046  0.0410
 6173W        W10224   1.063   7.239   8.232 -0.2336 -0.0593 -0.0623
 6174W        W10225   1.322   1.921   1.592 -0.1745 -0.0758 -0.3917
 6175W        W10226   6.155   8.436   4.128  0.0755 -0.1630  0.4665
 6176W        W10227   1.704   3.484   4.497 -0.3581  0.1252  0.0505
 6177W        W10228   7.008   7.820  10.818 -0.2939  0.3217 -0.1006
 6178W        W10229   9.661   7.306   0.633 -0.5936  0.0218 -0.1303
 6179W        W10230   8.836   8.690   0.014  0.1679  0.0500  0.2151
 6180W        W10231   6.295   5.668   2.581  0.0272 -0.0817  0.2138
 6181W        W10232   0.761   7.825   4.207 -0.1947  0.1187 -0.0304
 6182W        W10233   3.526   5.171   4.725  0.0596  0.0897 -0.2085
 6183W        W10234   8.205   4.127  11.926 -0.0824  0.2079  0.0067
 6184W        W10235   9.674   6.687  13.781  0.0326 -0.2641  0.1749
 6185W        W10236   3.695   9.360   9.103  0.2445  0.2257  0.1112
 6186W        W10237   2.491   6.158   9.539 -0.1160 -0.1625 -0.1440
 6187W        W10238   0.316   4.170   2.813 -0.1883  0.2782  0.0740
 6188W        W10239   3.913   9.572   4.386 -0.2856  0.3646  0.2910
 6189W        W10240   7.697   7.389   1.300 -0.0912  0.0003 -0.1412
 6190W        W10241   1.977   9.315   4.831  0.0699  0.2414 -0.1699
 6191W        W10242   8.445   3.136   3.132  0.2177 -0.0937  0.0554
 6192W        W10243   2.707   8.665  12.048 -0.2365 -0.5016 -0.0584
 6193W        W10244   0.464   1.970  11.328  0.1456 -0.1764 -0.1342
 6194W        W10245   4.059   5.308   9.632  0.0727  0.0507  0.0132
 6195W        W10246   2.240   8.223   0.440 -0.0342 -0.1172  0.0703
 6196W        W10247   3.410   6.142   2.756  0.0630  0.2621  0.0035
 6197W        W10248   0.753   0.749   3.396 -0.0331 -0.1185  0.1507
 6198W        W10249   0.337   4.023   9.032  0.0397  0.0608 -0.1028
 6199W        W10250   2.674   2.793   2.716 -0.1130  0.1541 -0.0175
 6200W        W10251  10.087   8.643   4.852  0.0069  0.1159  0.0562
 6201W        W10252   5.425   5.392   9.742  0.1994 -0.2223  0.3011
 6202W        W10253   4.787   4.422   1.499  0.0954  0.2403  0.1394
 6203W        W10254   9.248   2.811   3.966 -0.1599 -0.0531 -0.1882
 6204W        W10255   5.062   4.595   2.076  0.5779  0.0404 -0.1618
 6205W        W10256   9.523   1.956   3.714  0.0922 -0.0260  0.0793
 6206W        W10257   2.135   5.257   0.932  0.1241 -0.0750 -0.2601
 6207W        W10258   9.095   5.720  13.826 -0.3576 -0.1763  0.0868
 6208W        W10259   5.300   2.247   0.485  0.0475 -0.0331  0.0679
 6209W        W10260   0.980   8.211   3.358 -0.0004  0.0441  0.1911
 6210W        W10261   1.677   4.389   2.970  0.0705  0.0857  0.1088
 6211W        W10262   9.239   9.597   9.761  0.0483 -0.2131 -0.0965
 6212W        W10263   7.187   0.566   1.396 -0.0615 -0.2659 -0.1335
 6213W        W10264   9.849   5.071   9.698 -0.1029 -0.3010 -0.1425
 6214W        W10265   2.446   2.291  13.951 -0.2046  0.0548 -0.1433
 6215W        W10266   7.480   8.740   4.068 -0.4480  0.0093  0.1493
 6216W        W10267   4.320   6.574   3.738  0.0184  0.0944 -0.0537
 6217W        W10268   3.694   7.029   0.416 -0.3803 -0.0574 -0.1079
 6218W        W10269   9.251   2.780   0.731  0.2606 -0.2075 -0.3936
 6219W        W10270   4.649  10.096   2.058 -0.1461  0.1128 -0.1615
 6220W        W10271   0.132   3.645  14.003  0.2772  0.1237  0.0445
 6221W        W10272   0.480   1.923  12.319  0.1215 -0.2152 -0.2619
 6222W        W10273   7.589   0.712   2.991 -0.1380 -0.0823 -0.0581
 6223W        W10274   8.263   5.846   1.878 -0.0152  0.1656 -0.3071
 6224W        W10275   9.403   0.461   4.439 -0.0561 -0.2069 -0.0803
 6225W        W10276   2.003   4.868   1.239 -0.2015 -0.2146  0.0757
 6226W        W10277   1.883   9.496  10.758 -0.1922  0.1894  0.0207
 6227W        W10278   1.476   5.388  12.708  0.3293 -0.1334  0.1188
 6228W        W10279   8.408   9.117   2.344  0.3934  0.1210  0.1426
 6229W        W10280   2.842   4.075   3.951  0.2104  0.0535 -0.1726
 6230W        W10281   8.308   4.687   3.928 -0.2368 -0.1066  0.0534
 6231W        W10282  10.128   5.795   3.423 -0.3942  0.1011 -0.0665
 6232W        W10283   8.704   8.137   2.325  0.0344  0.2110  0.1218
 6233W        W10284   9.134   9.745   4.531 -0.0140 -0.0651 -0.0650
 6234W        W10285   4.816   7.415   2.749  0.3039  0.0702  0.1742
 6235W        W10286   1.175   8.445  13.691 -0.0963  0.1188 -0.2986
 6236W        W10287   5.177   5.059  11.281 -0.3409 -0.3924  0.0578
 6237W        W10288   7.234   1.950  10.826  0.0516 -0.1664  0.1864
 6238W        W10289   9.468   7.055   0.071 -0.1472 -0.1355  0.5154
 6239W        W10290   6.924   7.558  11.266  0.1775  0.0294 -0.2212
 6240W        W10291   8.582   9.886  11.857 -0.0075  0.1982  0.3575
 6241W        W10292   4.886   1.079  13.840  0.2036  0.2600 -0.0039
 6242W        W10293   5.062   6.639  12.582  0.1399  0.0289  0.3331
 6243W        W10294   8.734   2.269  13.599  0.3176  0.1237  0.0324
 6244W        W10295   9.159   9.604  10.846  0.0050  0.3497  0.4068
 6245W        W10296   3.299   4.250   0.212 -0.0204  0.1940  0.1005
 6246W        W10297   9.833   7.457  14.008 -0.0392  0.2511 -0.2006
 6247W        W10298   8.430   8.599   4.141  0.0039  0.3343  0.1103
 6248W        W10299   0.575   8.240  12.471  0.2519  0.0181 -0.0231
 6249W        W10300   6.208   0.310   2.013  0.1992 -0.0497  0.0509
 6250W        W10301   5.991   5.386   4.027 -0.0267  0.1311  0.0532
 6251W        W10302  10.018   9.217  10.566 -0.2056  0.0137 -0.0108
 6252W        W10303   4.752   1.024  11.098 -0.0435  0.1550  0.2065
 6253W        W10304   6.981   2.838   2.450  0.2076 -0.1758 -0.0120
 6254W        W10305   9.001   0.593   4.139  0.1343  0.0846 -0.1399
 6255W        W10306   6.665   9.679  13.661 -0.0395 -0.0473  0.1419
 6256W        W10307   6.186   6.190  13.137 -0.2011 -0.0890  0.0253
 6257W        W10308  10.026   5.982  10.306 -0.0595 -0.0071  0.1481
 6258W        W10309   6.913   1.988   0.506 -0.1162  0.1007 -0.2810
 6259W        W10310   1.479   1.838   9.923 -0.0201  0.2405  0.2948
 6260W        W10311   8.123   6.302  11.222 -0.1606  0.0902 -0.0314
 6261W        W10312   1.659   6.570  10.326 -0.0345 -0.0632  0.0352
 6262W        W10313   6.187   6.069  11.612 -0.0602 -0.2867 -0.0710
 6263W        W10314   1.117   8.669  11.285  0.3033  0.3575  0.1424
 6264W        W10315   5.273   3.441   2.320 -0.0744 -0.1131 -0.0957
 6265W        W10316   0.260   9.742   9.545 -0.0348  0.0416 -0.0170
 6266W        W10317   9.598   1.125   4.002  0.0090  0.1961 -0.0357
 6267W        W10318   1.592   1.275   0.918 -0.0630 -0.0373  0.0313
 6268W        W10319   8.739   0.689  11.208 -0.1886 -0.1994 -0.1617
 6269W        W10320   1.683   2.691   3.792  0.3174  0.0613 -0.0121
 6270W        W10321   2.560   8.298  13.921  0.1619  0.1947  0.2372
 6271W        W10322   6.200   9.769  10.203 -0.0007 -0.2643 -0.1960
 6272W        W10323   5.455   6.320  10.167 -0.0915 -0.1972 -0.0638
 6273W        W10324   2.486   1.155  10.488  0.1783 -0.1524 -0.2760
 6274W        W10325   5.249   9.933   9.739  0.1733  0.0887 -0.1413
 6275W        W10326   8.441   2.708  12.689  0.0123 -0.0048 -0.0377
 6276W        W10327   8.956   3.507  12.079 -0.0228 -0.1774 -0.0990
 6277W        W10328   3.601   1.853   0.613 -0.0873  0.1289  0.1540
 6278W        W10329   7.909   8.163   2.742  0.1214  0.1938 -0.1011
 6279W        W10330   5.072   0.737   3.853 -0.2984 -0.0742 -0.1547
 6280W        W10331   8.993   6.956  12.621 -0.0975  0.1509  0.3015
 6281W        W10332   9.456   9.689   0.967  0.1216  0.0885  0.0524
 6282W        W10333   3.293   4.137  10.397 -0.3276  0.3767 -0.3869
 6283W        W10334   3.870   7.799   4.832  0.1707  0.0819  0.0152
 6284W        W10335   1.718   6.995  13.046  0.1530  0.0408 -0.1490
 6285W        W10336   0.488   6.306   1.873 -0.0471  0.2653 -0.2444
 6286W        W10337   1.122   3.214  13.001  0.0055  0.1588 -0.0413
 6287W        W10338  10.079   0.104   0.079  0.1231  0.1160  0.1629
 6288W        W10339   0.250   7.114  13.594 -0.0130  0.0048  0.0393
 6289W        W10340   1.354   4.271  13.091 -0.1689 -0.1679  0.1224
 6290W        W10341   7.852   8.187   4.934 -0.0993 -0.3761 -0.1278
 6291W        W10342   1.924   3.617   3.913 -0.1481  0.1412  0.0306
 6292W        W10343   6.767   6.424   2.356  0.3647  0.2729  0.0534
 6293W        W10344   4.920   1.543   3.448  0.0212 -0.0258 -0.0451
 6294W        W10345   9.010  10.001   9.979 -0.2270 -0.0253 -0.0418
 6295W        W10346   1.630   1.761  10.877 -0.3455 -0.3123 -0.2148
 6296W        W10347   6.020   0.386  12.931  0.3442  0.0973 -0.1833
 6297W        W10348   3.950   4.984  12.796 -0.2130 -0.3511  0.0712
 6298W        W10349   8.082   0.196   3.617  0.3292 -0.0803  0.2123
 6299W        W10350   5.870   9.156  11.609 -0.0195 -0.0972 -0.0477
 6300W        W10351   0.850   3.942  11.723 -0.1775  0.1552  0.4270
 6301W        W10352   8.253   7.806  13.540  0.0729  0.4190 -0.0510
 6302W        W10353   2.433   6.951   0.038  0.0782  0.3680 -0.0007
 6303W        W10354   1.600   7.677   4.387  0.0597  0.1992  0.3925
 6304W        W10355   7.143   9.268   9.817  0.0553 -0.2160  0.2219
 6305W        W10356   2.943   2.385  11.045  0.0938 -0.0234 -0.1553
 6306W        W10357   1.776   4.532  13.103 -0.0317  0.1844  0.2694
 6307W        W10358   3.896   1.746  13.690 -0.0692 -0.1788  0.0251
 6308W        W10359   7.557   3.259   1.919  0.1607  0.1488  0.2661
 6309W        W10360   0.522   5.301   2.261 -0.0252  0.1515 -0.2913
 6310W        W10361   9.040   5.739   1.201  0.0019  0.3523  0.0184
 6311W        W10362   4.179   0.997   3.522 -0.0213 -0.1843  0.0474
 6312W        W10363   1.715   8.998   0.526  0.1241  0.2467  0.2139
 6313W        W10364   2.197   9.554   4.490 -0.1265  0.0960 -0.2351
 6314W        W10365   5.908   2.837  13.201  0.0569 -0.0599 -0.0665
 6315W        W10366  10.114   5.703  10.764  0.1352  0.2419 -0.1125
 6316W        W10367   4.057   5.185   1.152 -0.0625 -0.3727 -0.1192
 6317W        W10368   0.509   7.100   2.004 -0.1413 -0.1993 -0.1321
 6318W        W10369   0.673   2.798  12.944 -0.2443 -0.2397  0.0658
 6319W        W10370   3.352   1.603  11.180 -0.1242  0.1180  0.2008
 6320W        W10371   1.322   5.291  13.814  0.0236 -0.0231  0.1704
 6321W        W10372   0.703   7.902  11.090  0.0875 -0.0028  0.3186
 6322W        W10373   4.554   7.232  11.545 -0.1097  0.0357  0.1631
 6323W        W10374   2.435   7.594   0.760 -0.0967 -0.2812  0.0261
 6324W        W10375   1.736   5.344   9.213 -0.0740  0.1702 -0.0581
 6325W        W10376   4.682   8.445   9.886 -0.1333  0.0662  0.4086
 6326W        W10377   8.238   9.256   4.048  0.0187 -0.2740 -0.0425
 6327W        W10378   1.066   4.222  13.498 -0.0697 -0.0498 -0.0780
 6328W        W10379   7.791   5.377   4.605 -0.0679  0.1000 -0.0550
 6329W        W10380   8.040   0.889   1.117  0.1990  0.2887 -0.1593
 6330W        W10381   0.968   8.700   0.454  0.1906  0.1401  0.2521
 6331W        W10382   1.591   7.235   9.637 -0.1401  0.2604 -0.1076
 6332W        W10383   1.854   8.772   8.149 -0.1250 -0.1536 -0.3925
 6333W        W10384   2.739   8.112   2.409 -0.1367  0.0617 -0.2827
 6334W        W10385   2.425   2.001   1.208 -0.1891 -0.3224  0.3930
 6335W        W10386   7.485   0.857  10.213  0.0538 -0.2475  0.3138
 6336W        W10387   0.845   4.046   8.117 -0.0465  0.1747 -0.2165
 6337W        W10388   5.662   9.093  12.024 -0.3721  0.0085  0.1163
 6338W        W10389   0.908   2.483  13.773  0.0825 -0.1079  0.1092
 6339W        W10390   0.665   2.297   9.556  0.2462 -0.0662  0.1570
 6340W        W10391   1.603   3.113   1.276 -0.2704  0.1191 -0.1339
 6341W        W10392   8.358   7.277   3.776  0.0349 -0.0031 -0.1125
 6342W        W10393   8.845   9.140  11.131 -0.1411 -0.0000  0.0523
 6343W        W10394   4.907   2.804  12.437 -0.0257 -0.0194  0.2187
 6344W        W10395   1.184   3.144   9.328  0.0682  0.2643  0.1535
 6345W        W10396   7.861   4.247   3.178 -0.0988  0.0598 -0.1875
 6346W        W10397   2.546   1.256   0.605  0.0432 -0.0366 -0.1916
 6347W        W10398   2.330   3.786  13.631 -0.2995  0.0575 -0.1205
 6348W        W10399   1.191   0.966   3.123 -0.2524  0.1066 -0.0080
 6349W        W10400   7.926   6.400   2.635 -0.0547 -0.1744 -0.0119
 6350W        W10401   6.417   0.971  10.309  0.2788 -0.2634  0.0451
 6351W        W10402   3.049   3.390   2.456 -0.1844  0.0713 -0.0428
 6352W        W10403   0.978   8.329   3.870 -0.0733  0.2155  0.1155
 6353W        W10404   9.865  10.001   2.142  0.0903 -0.2019 -0.1998
 6354W        W10405   0.856   5.649  12.738 -0.2965 -0.1978  0.1600
 6355W        W10406   1.290   2.087   8.844  0.5430  0.1174  0.6269
 6356W        W10407   0.434   3.907   3.945 -0.0289  0.0085 -0.1090
 6357W        W10408   0.885   4.865   8.741 -0.0423 -0.1636 -0.2620
 6358W        W10409   4.408   6.331  11.487 -0.1747 -0.0098  0.1088
 6359W        W10410   0.509   4.943   3.763  0.1008  0.0722  0.0418
 6360W        W10411   8.932   6.620   1.645 -0.0323 -0.3441  0.0334
 6361W        W10412   7.415   1.160   2.189  0.2498  0.3001 -0.0624
 6362W        W10413   2.535   7.920  11.066 -0.0710 -0.1726 -0.2292
 6363W        W10414   5.121   6.771   9.591 -0.1186 -0.0146 -0.0199
 6364W        W10415   5.567   7.786   4.236  0.0846  0.0513 -0.0856
 6365W        W10416   6.099   5.655  12.941  0.0253 -0.4106 -0.3325
 6366W        W10417   1.485   4.483   5.152 -0.1316 -0.0828 -0.1066
 6367W        W10418   9.445   4.444   2.972 -0.0105  0.2486 -0.2429
 6368W        W10419   5.250  10.145  13.460 -0.2580 -0.4682 -0.2184
 6369W        W10420   3.846   2.402  12.941  0.2970 -0.2204  0.1084
 6370W        W10421   2.561   9.163   1.705 -0.1817 -0.4119 -0.0202
 6371W        W10422   1.995   5.562  12.021  0.0736  0.0669  0.0182
 6372W        W10423   1.450   9.040   4.095  0.0309 -0.3719 -0.1511
 6373W        W10424   9.811   2.239  13.801  0.0404 -0.3498  0.0786
 6374W        W10425   2.153   8.608   2.200  0.1872  0.0366 -0.2810
 6375W        W10426   2.234   9.126  10.909  0.1166 -0.0425 -0.0055
 6376W        W10427   2.398   6.206   4.836  0.2200 -0.0461  0.2484
 6377W        W10428   7.883   3.561   1.169  0.1812  0.1723  0.4517
 6378W        W10429   3.597   4.857  11.284  0.0051 -0.1184  0.2988
 6379W        W10430   5.047   9.251   0.162  0.0822 -0.1980  0.0569
 6380W        W10431   8.093   3.630  12.008 -0.0721  0.3215 -0.0809
 6381W        W10432   6.946   2.822   0.437 -0.0748 -0.1795  0.1198
 6382W        W10433   1.727   1.514   2.207 -0.0499 -0.0765 -0.1908
 6383W        W10434   0.001   5.797   1.255 -0.0212  0.3447  0.0338
 6384W        W10435   4.790   3.739   2.696  0.0753 -0.3138  0.1533
 6385W        W10436   8.903   7.519   2.492  0.1061 -0.0161  0.3611
 6386W        W10437   4.647   9.522   1.987  0.0374  0.0157  0.0707
 6387W        W10438   6.700   6.370   3.917 -0.0357  0.0952  0.0786
 6388W        W10439   3.838   6.045   1.476 -0.0870  0.0792 -0.3186
 6389W        W10440   6.451   5.234  13.993 -0.5829 -0.0156 -0.0391
 6390W        W10441  10.002   9.924   9.745  0.4058  0.1248  0.1119
 6391W        W10442   6.375   0.053  10.549  0.5661 -0.0677 -0.1726
 6392W        W10443   1.212   7.495   4.135  0.0914  0.1051  0.2415
 6393W        W10444   7.612   5.218   9.842 -0.1437  0.0542 -0.1628
 6394W        W10445   4.977   8.343   0.357  0.3641  0.2831  0.0309
 6395W        W10446   9.180   9.473  11.323  0.0164 -0.1162 -0.0295
 6396W        W10447   8.689   4.556   9.593  0.1348 -0.1116  0.0149
 6397W        W10448   4.001   1.679   2.263  0.0803 -0.0033 -0.3437
 6398W        W10449   9.390   9.698   2.955  0.1120  0.0118 -0.3268
 6399W        W10450   2.453   4.631  13.831  0.0036  0.0453  0.4027
 6400W        W10451   7.656   8.413   0.604 -0.2291  0.0870  0.1954
 6401W        W10452   6.433   2.960  10.817 -0.0304  0.0408 -0.0319
 6402W        W10453   5.353   2.406  12.392 -0.0022  0.0105  0.2480
 6403W        W10454   6.750   3.622   2.871 -0.0358 -0.1365 -0.2645
 6404W        W10455   8.431   9.151  11.943 -0.3287  0.6016 -0.1777
 6405W        W10456   5.465   4.870   2.185 -0.2036  0.3004  0.1140
 6406W        W10457   7.138   6.742   0.002  0.3902 -0.0417 -0.0360
 6407W        W10458   7.610   9.814   0.528 -0.0067 -0.1221  0.0721
 6408W        W10459   9.728   7.982   8.710  0.0653  0.2082 -0.1308
 6409W        W10460   8.006   8.002  13.916  0.1706  0.0173 -0.0794
 6410W        W10461   4.894   2.311  12.643  0.2263  0.1472 -0.2284
 6411W        W10462   7.714   0.295   3.294 -0.0217  0.1128 -0.0404
 6412W        W10463   2.576   2.081  13.149 -0.1916  0.2842 -0.0532
 6413W        W10464   4.166   1.593   2.915  0.0728  0.0352 -0.0343
 6414W        W10465   6.532   4.534  11.033  0.2165  0.1195  0.0065
 6415W        W10466   7.928   9.247   4.421  0.0182 -0.0128  0.1119
 6416W        W10467   7.685   2.163  11.967 -0.1247  0.0297 -0.0817
 6417W        W10468   8.284   4.070   9.262 -0.4212  0.3400  0.0882
 6418W        W10469   4.148   9.273   2.048  0.2470  0.2010  0.2979
 6419W        W10470   3.526   1.280   5.137 -0.1851  0.4459 -0.0320
 6420W        W10471   2.215   3.830   1.009  0.2918 -0.0606  0.1003
 6421W        W10472   7.584   6.012   0.473 -0.0982  0.0730  0.2732
 6422W        W10473   0.568   0.795  13.932 -0.1861 -0.2353  0.1666
 6423W        W10474   7.376   8.026   4.832 -0.1141 -0.3264 -0.0451
 6424W        W10475   5.211   1.073   1.655  0.1759  0.3046 -0.3387
 6425W        W10476   7.512   7.754  11.321  0.0869  0.4031  0.2553
 6426W        W10477   8.560   5.339   5.135  0.2195 -0.2006 -0.1932
 6427W        W10478   7.599   0.172  11.544 -0.0154  0.0737  0.0669
 6428W        W10479   7.062   5.245   3.054 -0.2216  0.0374 -0.0183
 6429W        W10480   0.409   3.959   3.233 -0.0695  0.0063 -0.0118
 6430W        W10481   8.467  10.001  11.348  0.2229  0.0963 -0.1167
 6431W        W10482   9.813   6.524   8.568  0.3146 -0.0332 -0.0509
 6432W        W10483   8.928   6.007  10.057  0.1553  0.1304 -0.1435
 6433W        W10484   7.913   7.107   3.949 -0.2514 -0.2259 -0.3351
 6434W        W10485   0.095   8.295   0.841  0.0697  0.1602  0.1034
 6435W        W10486   6.188   6.217   1.043 -0.0105 -0.2040 -0.2311
 6436W        W10487   0.007   7.601  13.457 -0.0029  0.1928 -0.2074
 6437W        W10488   6.081   9.836   0.596 -0.2085  0.3740  0.1512
 6438W        W10489   3.504   5.426   0.276  0.0418  0.2297  0.0553
 6439W        W10490   9.074   7.049   0.862  0.1823  0.0133 -0.0130
 6440W        W10491   9.416   2.441   2.220 -0.0419 -0.3330 -0.0314
 6441W        W10492   2.953   7.468  12.113  0.1086 -0.1592 -0.2438
 6442W        W10493   1.678   3.872  11.019  0.2950 -0.0434 -0.1725
 6443W        W10494   7.814   1.629   3.359 -0.2225 -0.1238  0.0079
 6444W        W10495   1.288   1.826  12.954 -0.2045  0.0168 -0.3775
 6445W        W10496   4.977   0.738   1.967  0.0761 -0.1037 -0.4395
 6446W        W10497   4.176   0.399   0.254 -0.0164 -0.0380  0.0917
 6447W        W10498   3.026   2.729  13.586 -0.0686  0.2595  0.3305
 6448W        W10499   6.678   5.501   5.254 -0.0388 -0.1290  0.2773
 6449W        W10500   3.552   7.055   2.594  0.2185 -0.1356  0.1813
 6450W        W10501   4.074   7.943   0.511 -0.2582 -0.2235 -0.2640
 6451W        W10502   7.902   1.058  11.595  0.0981 -0.1710  0.1003
 6452W        W10503   3.095   9.754  13.279  0.1566 -0.0752 -0.1573
 6453W        W10504   3.783   7.968  10.066 -0.4790  0.3044  0.1455
 6454W        W10505   5.143   4.960   9.836 -0.0232  0.2312  0.4334
 6455W        W10506   9.531   6.120   1.986 -0.0851 -0.0582 -0.2480
 6456W        W10507   6.927   4.404  11.464 -0.1523  0.0480  0.4191
 6457W        W10508   3.476   2.939  11.322 -0.2602 -0.1511  0.0721
 6458W        W10509   0.322   2.121   1.767  0.0195 -0.3265 -0.0896
 6459W        W10510   7.302   4.150   3.404 -0.2080  0.0161  0.5091
 6460W        W10511   3.003   5.104  13.087 -0.3756  0.1495  0.2336
 6461W        W10512   0.152   4.548   1.587 -0.1018 -0.3573 -0.0226
 6462W        W10513   3.887   6.211  10.190  0.2851  0.1474  0.0233
 6463W        W10514   9.872   6.980  12.279 -0.1199 -0.2149  0.3964
 6464W        W10515   9.100   6.154  11.124 -0.0340 -0.2640 -0.1303
 6465W        W10516   8.897   4.605   0.698 -0.2630  0.1393  0.2191
 6466W        W10517   9.318   9.476  13.430 -0.1812 -0.2044  0.1814
 6467W        W10518   4.500   5.901  10.361  0.0298  0.1433  0.0844
 6468W        W10519   0.699   3.539   2.231  0.0053  0.1373 -0.1259
 6469W        W10520   7.361   1.220   3.570  0.1414  0.0495 -0.1326
 6470W        W10521   1.557   7.518  13.124  0.0553  0.0062  0.1850
 6471W        W10522   4.610   5.770   9.600  0.1236  0.1475  0.2002
 6472W        W10523   3.071   0.869   4.024  0.3494 -0.0546  0.1363
 6473W        W10524   0.121   3.689   1.600 -0.4284 -0.1518  0.2331
 6474W        W10525  10.082   3.318  10.141  0.1774 -0.1552 -0.4583
 6475W        W10526   3.097   9.333  12.066  0.3468  0.1398  0.0454
 6476W        W10527   0.595   0.624  12.928  0.5937  0.2844  0.1019
 6477W        W10528   4.528   8.162  11.851  0.0869  0.0964 -0.1052
 6478W        W10529   7.802   5.350   1.179 -0.1569 -0.1308 -0.2005
 6479W        W10530   1.708   8.850  13.600  0.1650 -0.0036 -0.1023
 6480W        W10531   3.991   4.084   2.438 -0.0081 -0.3318  0.4292
 6481W        W10532   4.348   4.096   1.795 -0.0706 -0.1551 -0.1004
 6482W        W10533   7.298   0.222   3.115 -0.0416  0.1593  0.1745
 6483W        W10534   3.322   5.678   2.362  0.0643 -0.0418  0.0983
 6484W        W10535   8.721   5.128  12.223 -0.1532 -0.3587  0.0686
 6485W        W10536   0.055   2.518   8.987 -0.1657 -0.1210  0.2684
 6486W        W10537   9.637   5.889   3.230  0.0028 -0.1574 -0.1350
 6487W        W10538   0.547   9.340  10.948 -0.0149  0.2116  0.4366
 6488W        W10539   8.108   0.523  13.873  0.0243 -0.1577 -0.2225
 6489W        W10540   0.600   4.686  10.251  0.0866 -0.1800 -0.2141
 6490W        W10541   3.428   8.133  13.312  0.4131 -0.0109 -0.0785
 6491W        W10542   0.267   9.983   8.974  0.2755  0.1247 -0.1730
 6492W        W10543   2.744   8.026   0.372 -0.0190  0.0240  0.4434
 6493W        W10544   5.458   7.894  13.625 -0.3345  0.1238  0.1176
 6494W        W10545   3.947   7.689  11.957  0.1757 -0.4493 -0.1126
 6495W        W10546   0.585   2.499  13.366  0.3257 -0.1664  0.0211
 6496W        W10547   7.418   7.182   0.427 -0.1360 -0.2195 -0.0287
 6497W        W10548   5.073   3.577   9.695 -0.0441 -0.1066  0.1308
 6498W        W10549   7.204   7.192  11.421 -0.0383 -0.3335  0.1040
 6499W        W10550   8.261   0.233   1.025 -0.0846  0.1789 -0.1520
 6500W        W10551   8.452   2.894   4.198  0.0783 -0.1078  0.1269
 6501W        W10552   2.292   8.036  11.777  0.0488  0.2384  0.1876
 6502W        W10553   6.084   6.200   4.859  0.0718  0.1703  0.0485
 6503W        W10554   0.907   2.079   5.047 -0.0364 -0.0383 -0.2984
 6504W        W10555   0.436   6.701  13.980  0.0557  0.0844 -0.2055
 6505W        W10556   3.815   9.706  11.670  0.0747 -0.1724  0.1369
 6506W        W10557   1.340   6.933   0.280  0.0549  0.0473  0.0854
 6507W        W10558   6.650   8.057   8.487 -0.1022 -0.4255  0.0851
 6508W        W10559   2.185   0.801  10.095 -0.4465  0.0150 -0.0745
 6509W        W10560   0.058   1.710   1.536 -0.2444  0.2961  0.0205
 6510W        W10561   9.049   3.241   3.770  0.3120 -0.2097 -0.1233
 6511W        W10562   9.489   2.312   0.630  0.1051  0.0483 -0.1544
 6512W        W10563   2.510   3.990   1.418 -0.5376  0.1568 -0.1584
 6513W        W10564   4.930   8.950  11.055 -0.1318  0.0146 -0.0689
 6514W        W10565   0.352   7.751  11.420  0.2213  0.3030  0.0381
 6515W        W10566   1.015  10.018   1.935 -0.3146  0.0446  0.0569
 6516W        W10567   0.567   2.091   4.613  0.3295  0.1132  0.1447
 6517W        W10568   4.910   6.217   1.172  0.1290  0.1713  0.0144
 6518W        W10569   6.418   9.479   1.679 -0.1623  0.2363 -0.0425
 6519W        W10570   8.100   6.973  13.965 -0.0750 -0.1117 -0.1115
 6520W        W10571   7.337   6.848  13.635  0.1817  0.0715  0.0400
 6521W        W10572   3.816   0.202  10.711 -0.2255  0.0183  0.1946
 6522W        W10573   8.723   5.301  13.803  0.0458 -0.3813 -0.0727
 6523W        W10574  10.094   7.869  12.411  0.0833  0.1538 -0.0539
 6524W        W10575   1.224   8.202   0.104  0.0626 -0.0162  0.0011
 6525W        W10576   5.405   0.765  12.929  0.2274 -0.1851 -0.2316
 6526W        W10577   3.718   2.726   1.677 -0.0338 -0.2504  0.0163
 6527W        W10578   8.973   0.885   9.825 -0.0340  0.2525 -0.0926
 6528W        W10579   7.710   7.859  11.783  0.0560 -0.2167 -0.2407
 6529W        W10580   8.986   7.012   0.330  0.0937  0.1348  0.0648
 6530W        W10581   9.470   4.254   4.948 -0.2153 -0.2331 -0.1515
 6531W        W10582   0.540   5.796   9.712  0.0834  0.0671  0.2795
 6532W        W10583   8.625   6.977  11.211  0.2967 -0.0810  0.3211
 6533W        W10584   8.651   8.215   8.622 -0.0406  0.0416 -0.2757
 6534W        W10585   7.056   6.923  10.990  0.0215 -0.1711  0.2908
 6535W        W10586   7.354   2.732   7.243  0.1456  0.2066 -0.5677
 6536W        W10587   4.395   1.825  11.463  0.3741  0.2435 -0.2913
 6537W        W10588   0.058   9.710   4.294 -0.1302  0.2128 -0.4076
 6538W        W10589   0.218   3.547   0.864  0.0119 -0.1066  0.1565
 6539W        W10590   4.109   1.621  13.293 -0.0900  0.2058  0.1653
 6540W        W10591   1.406   2.966   2.414 -0.0083 -0.2053 -0.0275
 6541W        W10592   6.805   6.784   1.768 -0.1650  0.3414  0.2958
 6542W        W10593   7.820   7.747   2.379 -0.2071 -0.0849  0.0404
 6543W        W10594   4.343   9.011   1.532  0.2264 -0.0623 -0.1314
 6544W        W10595   2.665   7.098  12.021 -0.0280  0.0388 -0.0721
 6545W        W10596   2.871   3.400   0.724  0.0338 -0.1003  0.1009
 6546W        W10597   0.520   6.251   0.240 -0.0015  0.3133  0.0255
 6547W        W10598   4.901   2.058  13.548 -0.0742 -0.2626  0.2390
 6548W        W10599   9.439   3.235   0.605  0.1913  0.1223 -0.3267
 6549W        W10600   0.087   1.665   9.936  0.0823 -0.0266 -0.0210
 6550W        W10601   3.857   3.345  10.778 -0.0942  0.0056  0.2220
 6551W        W10602   3.670   1.488  13.066 -0.0526  0.1350 -0.2544
 6552W        W10603   8.916   7.378   8.936 -0.0938 -0.2996 -0.0794
 6553W        W10604   0.889   3.567   9.969 -0.1509  0.2370  0.4400
 6554W        W10605   8.291   9.945   4.880  0.0131 -0.0489 -0.2126
 6555W        W10606   8.367   1.039  11.416 -0.1148 -0.0415 -0.0696
 6556W        W10607   4.548   8.042   2.257  0.3569 -0.1373 -0.2858
 6557W        W10608   9.863   9.967   2.986  0.1126  0.1534  0.0009
 6558W        W10609   3.770  10.119   0.066 -0.1482  0.1480  0.0057
 6559W        W10610   1.645   4.554   2.147 -0.3637 -0.0442 -0.1315
 6560W        W10611   8.768   1.800  12.286  0.0336  0.4236  0.3432
 6561W        W10612   6.143   0.335   2.898 -0.0133  0.3388  0.0756
 6562W        W10613   8.078   0.902  10.311 -0.1410 -0.1690 -0.0979
 6563W        W10614   5.894   7.343   9.477 -0.1786 -0.0096 -0.0921
 6564W        W10615   0.965   1.117   8.985 -0.1166 -0.1394 -0.1346
 6565W        W10616   0.547   3.893   1.782 -0.1425 -0.1341 -0.2101
 6566W        W10617   0.689   5.303   0.520 -0.2010 -0.1495  0.1297
 6567W        W10618   3.244   6.408   3.144  0.2526  0.0059  0.1215
 6568W        W10619   8.208   0.518   0.319 -0.1700 -0.2347 -0.1726
 6569W        W10620   7.211   4.064  11.088 -0.0279  0.2924  0.1025
 6570W        W10621   3.566   6.256   1.099 -0.0916  0.1125  0.0229
 6571W        W10622   1.996   7.320  13.384  0.1523 -0.2448 -0.3125
 6572W        W10623   3.038   6.311   0.498  0.3189  0.0284 -0.2130
 6573W        W10624   2.489   1.117  12.104 -0.1111 -0.1401  0.1377
 6574W        W10625   0.763   9.558   1.961 -0.1452 -0.1504  0.1098
 6575W        W10626   4.933   6.660   0.323  0.1125  0.0957 -0.0652
 6576W        W10627   0.196   5.775  12.100  0.1480 -0.0802  0.2067
 6577W        W10628   9.902   8.558   3.457 -0.0864  0.1862 -0.0722
 6578W        W10629   4.712   2.160   0.797 -0.0484 -0.1825 -0.1701
 6579W        W10630   2.226   5.449  10.597  0.1276 -0.0106  0.0866
 6580W        W10631   4.671   2.262  10.641  0.2248  0.3925  0.0104
 6581W        W10632   2.266   4.803   3.502  0.2325  0.0839 -0.0761
 6582W        W10633   6.555   2.369   3.370 -0.0486  0.0753  0.1631
 6583W        W10634   2.899   6.952   9.126 -0.2400  0.1546  0.1348
 6584W        W10635   6.974   3.390  12.548 -0.0081  0.1146 -0.1155
 6585W        W10636   1.414   0.190   1.630 -0.0718 -0.0065  0.0636
 6586W        W10637   4.408   9.598  11.653  0.1246  0.0623 -0.1806
 6587W        W10638   2.551   7.629   3.294  0.1346 -0.0039 -0.4965
 6588W        W10639   0.060   6.446   0.068 -0.2456  0.0788 -0.0499
 6589W        W10640   6.413   1.513   1.182  0.0847  0.0522  0.3015
 6590W        W10641   8.118   9.715   3.893 -0.0773  0.1463 -0.0013
 6591W        W10642  10.104   5.522   9.513 -0.0940  0.0020 -0.1010
 6592W        W10643   2.031   7.992   8.895 -0.3216  0.0404 -0.1579
 6593W        W10644   1.993   7.651   3.431  0.0607  0.0270  0.0868
 6594W        W10645   4.594   1.569  11.022  0.0568 -0.0732 -0.3346
 6595W        W10646   2.395   7.641   2.286 -0.2232 -0.2282  0.1162
 6596W        W10647   7.157   3.694  11.439  0.1040 -0.0966  0.0968
 6597W        W10648   8.984   6.074   2.099  0.2610 -0.5418  0.1717
 6598W        W10649   3.860   6.347  11.645 -0.0444  0.0438 -0.1155
 6599W        W10650   3.901   4.491   3.605  0.0332 -0.0213  0.0013
 6600W        W10651   7.822   9.776  12.362  0.3875 -0.1020 -0.2189
 6601W        W10652   3.627   3.682   2.334  0.0115 -0.0086 -0.3340
 6602W        W10653   1.399   3.839  11.659 -0.2996  0.0509 -0.2679
 6603W        W10654   7.260   1.770  12.688  0.0866 -0.0215 -0.0837
 6604W        W10655   0.810   9.655   0.305  0.0181 -0.1863 -0.1917
 6605W        W10656   5.447   9.768  10.238 -0.2306  0.0812  0.1170
 6606W        W10657   2.027   5.918  11.587  0.0082 -0.3844 -0.1089
 6607W        W10658   9.040   6.992   1.988 -0.2707  0.1192  0.3611
 6608W        W10659   1.326   5.880  12.809 -0.2316  0.2120 -0.2934
 6609W        W10660   2.004   6.184   4.031  0.0182 -0.1710  0.2396
 6610W        W10661   9.004   9.901  11.517  0.0993  0.2189 -0.1151
 6611W        W10662   1.250   7.274   2.710  0.1635  0.0505 -0.0864
 6612W        W10663   0.837   6.784   1.728  0.1602  0.3010 -0.2168
 6613W        W10664   3.931   8.528  13.345  0.0733 -0.0488  0.0228
 6614W        W10665   8.735   0.432   0.262 -0.3035 -0.1830 -0.0221
 6615W        W10666   6.985   7.725   4.485  0.3265  0.2077  0.0832
 6616W        W10667   9.585   7.318   1.381 -0.1732  0.1512 -0.0383
 6617W        W10668   7.589   3.594  12.268 -0.0735 -0.0150  0.0864
 6618W        W10669   7.987   3.438  12.518  0.0651 -0.2713  0.0608
 6619W        W10670   0.810   3.930   1.055 -0.4055 -0.3182 -0.2630
 6620W        W10671   1.000   0.615  11.136  0.2498 -0.2624  0.2215
 6621W        W10672   8.007   4.737   2.978  0.1692 -0.2323 -0.2775
 6622W        W10673   5.513  10.092   3.215  0.0075 -0.3834  0.0900
 6623W        W10674   9.175   7.471  10.703 -0.1375  0.2530 -0.2054
 6624W        W10675   7.800   4.978   4.928 -0.1458  0.3038  0.2276
 6625W        W10676   4.311   6.182   9.525 -0.1822 -0.0567 -0.1067
 6626W        W10677   8.436   3.630  12.583 -0.2978  0.2775 -0.2135
 6627W        W10678   4.767   9.413   2.934  0.0099  0.1585  0.0346
 6628W        W10679   6.393   8.793  10.945  0.0299  0.3209  0.1602
 6629W        W10680   7.539   1.684   3.853 -0.2487 -0.0787  0.1585
 6630W        W10681   5.929   2.156   2.095 -0.1198  0.1710 -0.0805
 6631W        W10682   7.742   4.746  12.726  0.1178  0.1929  0.1275
 6632W        W10683   6.395   0.855  11.543 -0.1924  0.1193 -0.1732
 6633W        W10684   2.998   6.196  10.288 -0.0062 -0.0628  0.4583
 6634W        W10685   4.239   4.513   2.276  0.1188  0.1117  0.0087
 6635W        W10686   5.346   4.264  13.212  0.0313  0.0299  0.1647
 6636W        W10687   9.499   2.265   3.328 -0.3842 -0.0467 -0.2671
 6637W        W10688   7.315   0.443  11.210  0.3848 -0.1768  0.0113
 6638W        W10689   1.078   8.191  12.688 -0.0229 -0.0311  0.0551
 6639W        W10690   8.626   8.820  10.618  0.0501 -0.2799  0.3024
 6640W        W10691   3.095   3.709  12.425 -0.2882  0.0286  0.0183
 6641W        W10692   0.167   3.582  11.263 -0.0089  0.3099  0.3939
 6642W        W10693   6.694   4.219  13.071 -0.1628 -0.2413  0.0612
 6643W        W10694   9.652   4.604  13.977 -0.2871  0.0686  0.1547
 6644W        W10695   2.918   7.098   2.011  0.4086  0.3344  0.0623
 6645W        W10696   6.766   4.456   1.347  0.1667 -0.0780 -0.0733
 6646W        W10697   6.101   3.716   2.164 -0.0577 -0.0933  0.1928
 6647W        W10698   4.082   6.539  12.554  0.1572  0.1067 -0.2065
 6648W        W10699   8.865   4.043  13.792  0.0231  0.0276  0.0310
 6649W        W10700   3.614   6.530  13.990 -0.1473  0.1657 -0.1088
 6650W        W10701   5.942   1.649   5.986 -0.0377 -0.2042 -0.3709
 6651W        W10702   2.484   9.981  14.041  0.1021 -0.0066 -0.0755
 6652W        W10703   9.654   7.648  13.613 -0.2539  0.1273 -0.1197
 6653W        W10704   7.404   6.460   1.441  0.0411 -0.0700 -0.1246
 6654W        W10705   8.413   9.975   3.534  0.1934 -0.1500  0.1132
 6655W        W10706   6.767   1.234   2.877 -0.1388  0.0156 -0.0067
 6656W        W10707   3.326   0.209  12.754  0.1622 -0.2398  0.3128
 6657W        W10708   0.521   0.739   2.427 -0.0058  0.0753  0.3755
 6658W        W10709   2.377   9.173   5.129 -0.1492 -0.3232  0.0780
 6659W        W10710   7.139   8.262   0.618  0.2239 -0.1300 -0.1845
 6660W        W10711   2.087   1.112   1.044 -0.2935  0.2180  0.0515
 6661W        W10712   6.649   6.553   1.313  0.3188 -0.1454 -0.1847
 6662W        W10713   8.736   0.453  10.818  0.3448  0.1969 -0.1829
 6663W        W10714   6.959   6.138  11.216 -0.1763  0.2634  0.0675
 6664W        W10715   7.383   1.661   1.149 -0.2680 -0.0209  0.2207
 6665W        W10716   8.302   0.474   4.004 -0.3493 -0.3197  0.0466
 6666W        W10717   1.961   5.810   5.691  0.2395  0.0610  0.2154
 6667W        W10718   2.011   9.094   9.653 -0.3737  0.0035 -0.0850
 6668W        W10719   5.396   8.073  12.332  0.1957  0.1805  0.0787
 6669W        W10720   7.751   0.724   2.111  0.0723 -0.0871  0.1360
 6670W        W10721   9.017   3.957  11.280  0.0534  0.0607 -0.0408
 6671W        W10722   3.040   0.106  13.145  0.0738  0.0906  0.0486
 6672W        W10723   8.365   6.301   3.968  0.5050 -0.0944  0.1837
 6673W        W10724   3.481   9.990  13.106 -0.1243  0.0755  0.0095
 6674W        W10725   3.378   3.938  11.384  0.1458  0.1692 -0.3156
 6675W        W10726   9.739   1.817   1.362 -0.0706 -0.0364 -0.2907
 6676W        W10727   9.609   9.845   4.228 -0.1833  0.0354 -0.0553
 6677W        W10728  10.091   5.308   1.143  0.1233 -0.0263 -0.0353
 6678W        W10729   2.242   6.362   0.803 -0.0662  0.3974 -0.1047
 6679W        W10730   5.464   4.981  11.658 -0.1285  0.1466  0.1362
 6680W        W10731   7.750   5.199   1.669  0.0482  0.0341  0.0607
 6681W        W10732   9.811   4.612  13.117 -0.1069  0.0870  0.1076
 6682W        W10733   3.432   5.655   2.987  0.1154  0.2892  0.2569
 6683W        W10734   3.700   8.240  10.500 -0.0175 -0.2284  0.0001
 6684W        W10735   2.084   4.452   9.120  0.1076  0.0329  0.0555
 6685W        W10736   5.317   2.573   2.531  0.0596 -0.0316 -0.1332
 6686W        W10737   5.123   8.737  14.047  0.2931 -0.1142 -0.2327
 6687W        W10738   9.588   1.065   1.095  0.2789  0.1559 -0.0172
 6688W        W10739   7.207   7.772   0.080  0.1052 -0.0446  0.1183
 6689W        W10740   7.786   8.257  13.568  0.0346 -0.3680 -0.0888
 6690W        W10741   9.677   3.226   4.523  0.0845 -0.3048  0.2087
 6691W        W10742   7.528   9.112  13.569 -0.1967  0.1425 -0.4015
 6692W        W10743  10.088   2.625   9.875  0.2126 -0.0980  0.0324
 6693W        W10744   7.576   0.844   1.428  0.1574  0.1301 -0.1788
 6694W        W10745   4.648   7.001   0.549  0.0989  0.1530  0.1668
 6695W        W10746   5.980   7.430   4.196 -0.0140  0.2858 -0.1323
 6696W        W10747   4.670  10.032  10.630 -0.3365  0.0199 -0.0037
 6697W        W10748   9.718   8.973   4.573  0.0652  0.0154 -0.2661
 6698W        W10749   8.842   9.776   3.044 -0.0223  0.1751  0.0385
 6699W        W10750   1.236   3.058   0.907 -0.1964  0.0893 -0.1521
 6700W        W10751   2.018   2.714   8.964  0.0908  0.0926  0.0919
 6701W        W10752   7.981   6.183  10.453  0.1482 -0.3260  0.1785
 6702W        W10753   8.972   7.187  13.909 -0.1821  0.1483  0.0506
 6703W        W10754   2.075   4.640  13.523 -0.1085  0.1190  0.0302
 6704W        W10755   7.469   3.087  12.354 -0.1884  0.3047 -0.0587
 6705W        W10756   1.573   2.825   9.205  0.0289  0.0199  0.2210
 6706W        W10757   5.928   8.821  11.281 -0.1414 -0.0083 -0.1547
 6707W        W10758   9.320   0.927   0.046  0.4046 -0.0706 -0.0590
 6708W        W10759   1.660   2.776  11.009  0.0746  0.4308 -0.1809
 6709W        W10760   0.695   3.568  10.413 -0.2501 -0.2149 -0.0889
 6710W        W10761   4.191   6.892  12.283 -0.0260 -0.2987  0.2065
 6711W        W10762   4.463   6.934   8.427  0.0594  0.0940  0.4232
 6712W        W10763   2.701   0.759  12.474 -0.1203  0.0994  0.0802
 6713W        W10764   1.074   3.885  13.870 -0.2582 -0.0572  0.1026
 6714W        W10765   3.591   9.613  11.005  0.2598  0.0042 -0.0022
 6715W        W10766   4.372   0.057   3.101 -0.1721  0.2980 -0.0997
 6716W        W10767   6.189   7.448  12.164  0.0715  0.0068 -0.0964
 6717W        W10768   6.551   5.920   1.502 -0.0638  0.1723  0.2074
 6718W        W10769   9.295   6.380   0.185  0.0450 -0.0523 -0.1280
 6719W        W10770   6.708   7.356  10.817  0.0402 -0.0516  0.1029
 6720W        W10771   2.599   0.558   8.946  0.2186  0.2885  0.1485
 6721W        W10772   2.043   8.633   0.246 -0.1927 -0.0391  0.0366
 6722W        W10773   0.712   3.817   9.328 -0.0693  0.0725  0.4780
 6723W        W10774   3.166   7.795   2.110 -0.1299  0.2755 -0.2238
 6724W        W10775   9.908   7.294   2.976  0.0360  0.3226  0.0368
 6725W        W10776   6.621   4.208  13.586  0.3331  0.1588  0.0691
 6726W        W10777   5.468   1.047   4.170  0.0346  0.3244  0.0416
 6727W        W10778   4.468   2.457   2.459  0.1891  0.0201 -0.0579
 6728W        W10779   3.442   6.860  12.299  0.0238  0.2000  0.1604
 6729W        W10780   6.119   8.411  13.275 -0.0012  0.1042  0.1807
 6730W        W10781   2.925   7.028  12.583  0.1899  0.2046 -0.0344
 6731W        W10782   8.605   3.590   2.986  0.0014  0.0451  0.0818
 6732W        W10783   2.891   1.735   0.735  0.2595 -0.4187 -0.4487
 6733W        W10784   2.321   5.660  12.367  0.1117 -0.0080 -0.0970
 6734W        W10785   1.147   2.695   3.844  0.0685 -0.1299  0.3218
 6735W        W10786   9.045   3.913  11.796 -0.1332  0.2160 -0.1766
 6736W        W10787   7.008   6.647  10.523 -0.0098 -0.2169  0.0780
 6737W        W10788   2.621   3.704   4.232 -0.1316 -0.1141  0.0498
 6738W        W10789   2.278   9.338  10.405 -0.2016 -0.1033  0.1661
 6739W        W10790   7.052   6.835   9.285  0.3351 -0.0319 -0.0458
 6740W        W10791  10.038   0.158  11.693  0.0934 -0.1969  0.2266
 6741W        W10792   6.785   3.445  11.698 -0.2594 -0.0880 -0.0889
 6742W        W10793   1.999   2.171   3.984 -0.0968 -0.1555 -0.0929
 6743W        W10794   5.728   3.238   3.585 -0.0894 -0.1824 -0.0057
 6744W        W10795   9.243   3.839  10.067 -0.0852 -0.0071 -0.1469
 6745W        W10796   3.761   8.449   1.590 -0.2390  0.0212  0.1701
 6746W        W10797   3.777   2.508  10.561  0.0838 -0.1678 -0.4198
 6747W        W10798   4.988   6.161   0.223 -0.0013 -0.0003  0.1266
 6748W        W10799   6.568   1.006   1.119  0.2045 -0.2549  0.0283
 6749W        W10800   6.412   3.961   3.749 -0.0190 -0.1585  0.0077
 6750W        W10801   3.199   2.151   0.561 -0.1754 -0.1683  0.0414
 6751W        W10802   4.411   1.078   0.887  0.0379  0.0355  0.1129
 6752W        W10803   8.155   9.587   2.484  0.0587 -0.0934 -0.0763
 6753W        W10804   8.142  10.148   0.544 -0.0067 -0.1302  0.0709
 6754W        W10805   1.153   3.853  10.383 -0.0832  0.2839  0.2079
 6755W        W10806   0.617   0.419   2.026 -0.3080  0.1118 -0.0597
 6756W        W10807   1.321   7.895  11.870  0.0656  0.1596 -0.2637
 6757W        W10808   5.878   8.259  12.474  0.2067  0.1774  0.1775
 6758W        W10809   0.233   2.577   9.513 -0.1749  0.1536  0.2063
 6759W        W10810   6.020   1.539   1.861 -0.0331 -0.1072 -0.1389
 6760W        W10811   1.770   6.215  12.657  0.1020 -0.0374  0.0388
 6761W        W10812   1.155   5.288   4.674  0.1665  0.0619  0.2143
 6762W        W10813   6.891   9.692   3.899  0.3663  0.1907  0.1794
 6763W        W10814   6.697   3.765  13.848 -0.1141 -0.1830 -0.2344
 6764W        W10815   6.523   7.790  10.638 -0.4075 -0.0524  0.1567
 6765W        W10816   7.951   0.382  12.341  0.2692  0.0364  0.0325
 6766W        W10817   1.829   9.335   3.384  0.2669  0.1830  0.1007
 6767W        W10818   4.841   3.636   2.201 -0.2316  0.1047  0.2803
 6768W        W10819   6.413   9.936   4.008  0.1486 -0.1540 -0.2056
 6769W        W10820   2.285   8.315  12.613  0.0124 -0.2204  0.0102
 6770W        W10821   5.228   3.785  14.052 -0.0231  0.2554  0.0463
 6771W        W10822   5.893   9.669   1.600  0.1955 -0.0479  0.3985
 6772W        W10823   7.565   0.805   0.927 -0.3128 -0.0567 -0.1948
 6773W        W10824   1.675   7.459   3.751  0.0117 -0.0418  0.1118
 6774W        W10825   2.078   0.314   3.674  0.1188 -0.0703 -0.2840
 6775W        W10826   6.535   5.785   4.722  0.3891  0.0466  0.0189
 6776W        W10827   9.282   9.474   0.265  0.1652 -0.2460 -0.1337
 6777W        W10828   6.805   1.040   2.057  0.3203  0.0667 -0.1559
 6778W        W10829   9.501   4.355   1.905  0.2213 -0.1219 -0.1695
 6779W        W10830   7.480   7.529   9.591  0.0411 -0.1027 -0.2390
 6780W        W10831   9.239   7.075  13.101 -0.0371  0.0787  0.2006
 6781W        W10832   6.675   9.496   2.150 -0.0268  0.1559 -0.0855
 6782W        W10833   5.092   9.715   4.208 -0.0133  0.1325  0.3758
 6783W        W10834   2.730   6.177   3.282  0.4069  0.1490 -0.1948
 6784W        W10835   1.124   1.169   9.899  0.0837  0.0282  0.2928
 6785W        W10836   1.003   0.605   9.546  0.1666 -0.1403 -0.0126
 6786W        W10837   8.905   6.902  10.074  0.3318 -0.0784  0.0415
 6787W        W10838  10.107   0.925   9.446  0.0588  0.0328 -0.3703
 6788W        W10839   1.481   0.393   9.723  0.0946 -0.0209 -0.0110
 6789W        W10840   0.382   8.608   2.646 -0.3054  0.1680 -0.0786
 6790W        W10841   1.278   3.313  10.558  0.1244  0.3320 -0.3423
 6791W        W10842   9.955   2.703  13.137  0.1819  0.2741  0.0157
 6792W        W10843   8.025   5.035   0.840  0.1052 -0.1461  0.1780
 6793W        W10844   1.953   7.000   9.369 -0.0711  0.1743  0.0293
 6794W        W10845   6.219   8.015  11.365 -0.3974  0.3541 -0.3199
 6795W        W10846   3.354   9.898  13.740  0.0722 -0.0861 -0.1017
 6796W        W10847   2.044   9.698   0.344 -0.2100 -0.0734  0.0470
 6797W        W10848   0.525   1.344   3.777 -0.1713 -0.0760  0.1667
 6798W        W10849   4.015   3.760  11.254 -0.2243 -0.2197  0.0663
 6799W        W10850   0.255   9.963   0.850 -0.1691 -0.1544  0.3923
 6800W        W10851   2.109   4.681   0.073 -0.0666  0.2636  0.1469
 6801W        W10852   4.223   6.641  13.564 -0.0206  0.0033  0.3111
 6802W        W10853   0.395   5.828  13.419  0.2456 -0.1527 -0.4471
 6803W        W10854   7.784   2.353  14.067 -0.3335 -0.1203 -0.0568
 6804W        W10855   9.899   4.046   0.702 -0.3493  0.1671  0.2581
 6805W        W10856   4.070   1.227   2.521 -0.1140 -0.1720  0.0003
 6806W        W10857   0.970   3.889   0.291  0.0693 -0.2499 -0.0782
 6807W        W10858   0.742   8.281   0.281 -0.3635  0.0810  0.2472
 6808W        W10859   2.770   4.657  11.307 -0.0402 -0.1566  0.0877
 6809W        W10860   2.674   6.682   5.690 -0.0537  0.1191  0.3442
 6810W        W10861   1.311   5.902  10.844 -0.1601 -0.0104  0.2495
 6811W        W10862   5.700   5.644   2.718  0.0832  0.2078 -0.1379
 6812W        W10863   9.355   8.467  12.714  0.0475 -0.0242  0.2088
 6813W        W10864   6.136   6.466  11.968 -0.3368  0.0912 -0.2027
 6814W        W10865   3.692   5.031  14.008  0.5781  0.0217 -0.3215
 6815W        W10866   0.485  10.012   0.406  0.2108  0.2355  0.0836
 6816W        W10867   0.159   7.694   1.690 -0.1109 -0.0597 -0.0053
 6817W        W10868   9.131   9.850  13.145 -0.0802 -0.1858  0.0812
 6818W        W10869   1.798   2.481  11.434 -0.1187  0.2584  0.0285
 6819W        W10870   2.068   4.449   3.829  0.0024  0.1601 -0.1307
 6820W        W10871   1.494   2.853  12.681  0.3526  0.1111  0.2396
 6821W        W10872   9.967   1.966   0.776 -0.1033  0.0247  0.0472
 6822W        W10873   6.031   0.015   1.545 -0.2742 -0.1576  0.3502
 6823W        W10874   5.037   3.460   0.310 -0.2761  0.1446  0.2050
 6824W        W10875   4.338   7.284  12.773  0.0715 -0.0812 -0.3785
 6825W        W10876   3.607   9.786   3.413 -0.0152 -0.2086  0.0438
 6826W        W10877   8.265   8.928   0.884 -0.3493  0.1109  0.1118
 6827W        W10878   5.334   8.026   0.570  0.1474  0.0537  0.0392
 6828W        W10879   8.046   3.103  12.029 -0.3811 -0.2725 -0.0662
 6829W        W10880   6.504   6.834   3.415  0.1004 -0.0070 -0.0345
 6830W        W10881   4.806   7.825   4.128 -0.2244 -0.0234 -0.0009
 6831W        W10882   5.776   5.828   0.012 -0.0858  0.0170  0.2977
 6832W        W10883   4.525   6.859  12.676 -0.1157 -0.1561  0.2313
 6833W        W10884   3.166   9.807   0.724 -0.4729 -0.1228 -0.2134
 6834W        W10885   8.971   5.742  12.946  0.0856  0.0996  0.1939
 6835W        W10886   5.856   0.822  11.610  0.0920 -0.1838 -0.2998
 6836W        W10887   4.671   3.780  10.380  0.1562  0.2590 -0.1174
 6837W        W10888   1.971   0.259  12.288  0.0747 -0.0124 -0.0034
 6838W        W10889   3.253   2.103   2.347  0.3426 -0.2491 -0.1355
 6839W        W10890  10.116   9.874   0.410  0.0721  0.0644 -0.2148
 6840W        W10891   0.813   7.330   1.094  0.1059  0.1584 -0.2007
 6841W        W10892   7.084   1.105   0.344  0.4492  0.1460  0.1984
 6842W        W10893   1.595   9.749  12.186  0.1052 -0.2098 -0.4303
 6843W        W10894   9.555   7.211  11.929 -0.0056 -0.0639 -0.0776
 6844W        W10895   9.059   2.460   0.455 -0.0698  0.1802 -0.0449
 6845W        W10896   6.542   9.014   1.321  0.3451 -0.3028  0.1533
 6846W        W10897   2.364   3.285   1.879  0.0448 -0.0892  0.1224
 6847W        W10898   4.431   3.571   3.202 -0.1285  0.0891 -0.0301
 6848W        W10899   4.348   7.551   2.612  0.0336 -0.0343 -0.3091
 6849W        W10900   6.341   8.593   8.558  0.0042  0.0310  0.0385
 6850W        W10901   4.210   8.930   3.353 -0.0172 -0.0537 -0.1107
 6851W        W10902   4.983   6.648  10.826 -0.2615  0.0334  0.1954
 6852W        W10903   5.346   5.433  10.369 -0.1936  0.2989 -0.4775
 6853W        W10904   5.788   3.670  11.780 -0.0019 -0.1111  0.1588
 6854W        W10905   8.979   1.867  11.868  0.0494  0.1739 -0.1751
 6855W        W10906  10.114   7.605  10.260 -0.0564  0.1891  0.1717
 6856W        W10907   3.207   4.254   1.787 -0.0553 -0.4763 -0.0326
 6857W        W10908   9.956   5.503   4.588 -0.2032  0.3327  0.2469
 6858W        W10909   2.162   6.694  10.218  0.0464 -0.2091 -0.3765
 6859W        W10910   5.952   8.217   3.424 -0.0217 -0.0897 -0.1527
 6860W        W10911   9.516   5.595  11.644  0.0442  0.0980 -0.1576
 6861W        W10912   9.496   2.424   1.750 -0.0837 -0.0745 -0.1644
 6862W        W10913   7.596   9.762   1.160  0.2783  0.1876  0.2743
 6863W        W10914   7.743  10.057   4.535 -0.2008 -0.3280  0.2141
 6864W        W10915   5.460   3.053   2.527  0.1999  0.3684  0.1175
 6865W        W10916   5.629   8.660  13.838  0.1653 -0.0811 -0.1915
 6866W        W10917   9.581   1.088   4.867 -0.0736  0.0756  0.0140
 6867W        W10918   3.605   1.983  11.336  0.0827 -0.1348  0.1114
 6868W        W10919   3.846   3.576  12.698  0.1842  0.1872  0.0940
 6869W        W10920   3.361   4.015  13.194  0.1892 -0.1835  0.0201
 6870W        W10921   9.388   6.062   3.987 -0.0190 -0.2663  0.1417
 6871W        W10922   1.524   8.143  12.936  0.0541  0.3187  0.3355
 6872W        W10923   1.349   6.170   2.154 -0.0077  0.2247  0.0095
 6873W        W10924   2.969   7.720  11.010 -0.2792  0.1543 -0.0810
 6874W        W10925   4.242   7.755   0.083  0.0147  0.3054  0.1798
 6875W        W10926   2.556   5.832   3.695 -0.0581 -0.0038 -0.0520
 6876W        W10927   0.281   2.219   4.069  0.1039 -0.1455  0.1662
 6877W        W10928   7.041   9.581   3.441 -0.0402  0.1797  0.0318
 6878W        W10929   1.493   3.955   3.638  0.2552 -0.0855  0.0944
 6879W        W10930   2.087   0.115   2.316  0.1403 -0.4878  0.0591
 6880W        W10931   9.416   7.109  13.607 -0.0595 -0.3303 -0.0153
 6881W        W10932   2.456   9.610  10.797  0.1068 -0.0299 -0.0551
 6882W        W10933   7.977   5.001  10.112  0.2311 -0.0501 -0.2163
 6883W        W10934   1.067   6.329   5.256 -0.3152  0.0717  0.0149
 6884W        W10935   3.186   1.418   2.702 -0.0444  0.1116 -0.3442
 6885W        W10936   6.985   6.309   4.688  0.1746  0.0049 -0.1842
 6886W        W10937   0.238   9.670   1.275  0.1577  0.0506 -0.0213
 6887W        W10938   5.075   4.618  10.482  0.3405  0.1015  0.0752
 6888W        W10939   8.496   7.265  12.392 -0.1634  0.0424  0.3195
 6889W        W10940   4.172   9.982  10.709  0.0098  0.0435  0.0753
 6890W        W10941   2.403   5.887  11.901 -0.3412 -0.0832  0.2639
 6891W        W10942   7.433   9.851  14.081 -0.1981  0.0938  0.1083
 6892W        W10943   8.807   1.266   4.244 -0.0268 -0.2013  0.3380
 6893W        W10944   8.180   0.684   3.506 -0.0824  0.2461 -0.0417
 6894W        W10945   2.601   9.272   4.620  0.3069 -0.1477 -0.0826
 6895W        W10946   1.697   8.800   2.258  0.3329 -0.1823 -0.0655
 6896W        W10947   9.670   9.709   1.804  0.1446  0.0730 -0.3111
 6897W        W10948   9.959   8.074   3.573 -0.1702 -0.1920 -0.3025
 6898W        W10949   3.619   3.279  12.187 -0.0120  0.3895 -0.1745
 6899W        W10950   4.264   8.445   1.509 -0.0905  0.0782  0.2230
 6900W        W10951   8.861  10.034  12.325 -0.1260 -0.3461  0.1776
 6901W        W10952   8.060   1.858  12.698  0.1997 -0.1730 -0.1647
 6902W        W10953   1.892   3.798  11.789 -0.2863 -0.1048 -0.1112
 6903W        W10954   6.484   8.481   9.337  0.4282 -0.3343 -0.2025
 6904W        W10955   1.660   3.468  11.353  0.2526 -0.1650 -0.0906
 6905W        W10956   4.898   3.284  12.715 -0.1913 -0.1591 -0.3062
 6906W        W10957   2.394   4.353   1.848  0.1030 -0.0475  0.2763
 6907W        W10958   5.179   2.350  13.135  0.0586  0.1325  0.4255
 6908W        W10959   6.804   5.378  13.008  0.1699  0.0289 -0.2442
 6909W        W10960   8.937   7.598  12.411  0.0507 -0.1331  0.0152
 6910W        W10961   7.323   3.732   0.762 -0.2832  0.2183  0.3646
 6911W        W10962   1.359   5.784  13.725  0.0214  0.1712 -0.0174
 6912W        W10963   4.928   5.259   3.212 -0.1916 -0.3125  0.1481
 6913W        W10964   3.731   0.664  13.580  0.1896 -0.1845 -0.1069
 6914W        W10965   0.131   2.493   2.747 -0.2970  0.0803  0.3673
 6915W        W10966   1.255   1.242   4.559  0.1613 -0.3013  0.0320
 6916W        W10967   5.929   9.899   0.006  0.2560  0.2672 -0.2280
 6917W        W10968   5.641   6.524   4.439 -0.1160  0.2589  0.2473
 6918W        W10969   1.850   7.091  13.949  0.1875 -0.0913 -0.0711
 6919W        W10970   1.650   6.658   2.220  0.1530 -0.1659 -0.0291
 6920W        W10971   8.158   2.194   2.781 -0.0669 -0.1736  0.0679
 6921W        W10972   5.837   7.407  13.556  0.2318 -0.5577  0.1264
 6922W        W10973   7.019   4.047   2.673 -0.1283 -0.0490 -0.2870
 6923W        W10974   3.339   8.198   4.819  0.1442  0.1785 -0.0950
 6924W        W10975   2.990   0.114  11.098 -0.0437 -0.1644  0.1867
 6925W        W10976   8.881   1.004   9.157 -0.4262 -0.1652 -0.1174
 6926W        W10977   5.893   7.848  13.281  0.1834  0.0808 -0.1389
 6927W        W10978   2.238   1.651  13.217  0.0398  0.2449  0.1220
 6928W        W10979   2.156   9.576  13.347  0.0912 -0.1202  0.2153
 6929W        W10980   8.107   6.847  11.241 -0.0512  0.3345 -0.1081
 6930W        W10981   0.547   1.826   1.393 -0.2506  0.0631  0.3281
 6931W        W10982   7.597   1.999  12.471  0.2476  0.0832 -0.0910
 6932W        W10983   7.204  10.065   0.351 -0.1295  0.1564 -0.2028
 6933W        W10984   6.220   9.951  12.394  0.2085 -0.2948 -0.1086
 6934W        W10985   0.310   0.048  13.245 -0.0788 -0.0672 -0.1749
 6935W        W10986   0.792   6.447  12.089  0.1582  0.0572  0.2328
 6936W        W10987   7.414   5.382  13.712 -0.1152  0.0826 -0.1712
 6937W        W10988   4.338   1.815  12.879 -0.1065  0.0958  0.1045
 6938W        W10989   6.644   3.767   0.875  0.3860  0.0988  0.0839
 6939W        W10990   5.049   4.826  12.567  0.1126 -0.1298 -0.3582
 6940W        W10991   3.086   2.882  10.255  0.0481  0.0142  0.1827
 6941W        W10992   9.040   5.546  10.875  0.1983 -0.1343 -0.0111
 6942W        W10993   7.133   3.058   1.456 -0.1148  0.6949  0.1125
 6943W        W10994   5.059   0.684   3.348  0.2644  0.0113  0.2724
 6944W        W10995   8.984   4.944   1.091  0.0692  0.1347  0.1064
 6945W        W10996   9.735   7.416  10.999 -0.0857 -0.2988  0.2543
 6946W        W10997   0.152   6.143  13.785  0.0988  0.0118 -0.0402
 6947W        W10998   1.492   0.904  12.892 -0.3225 -0.1496 -0.0534
 6948W        W10999   3.014   2.014  11.505  0.0137 -0.1185  0.0357
 6949W        W11000   1.609   4.718  11.600  0.1440  0.3651 -0.2969
 6950W        W11001   8.583   5.661  12.492 -0.0385  0.1261  0.1061
 6951W        W11002   5.386   7.814   1.382 -0.0278 -0.1578  0.0471
 6952W        W11003   7.988   1.512  10.241  0.0276 -0.1661  0.0009
 6953W        W11004   6.027   4.068  11.641  0.1574  0.0206  0.0830
 6954W        W11005   1.961   3.978   3.581 -0.1252 -0.0674  0.0686
 6955W        W11006   9.979   9.443  12.814  0.0658  0.1151 -0.3877
 6956W        W11007   9.737   8.377   1.559  0.1460  0.1360  0.1413
 6957W        W11008   2.100   8.002  12.238 -0.3219 -0.1071 -0.1029
 6958W        W11009   9.558   3.689   9.503  0.0668 -0.0243 -0.0041
 6959W        W11010   2.477   7.755   3.883 -0.2120 -0.1070 -0.1489
 6960W        W11011   3.399   0.705  11.430 -0.0070 -0.1492  0.0810
 6961W        W11012   4.791   9.013   1.167  0.0402 -0.3456  0.1472
 6962W        W11013   5.385   7.050  11.028 -0.2998  0.0199  0.0321
 6963W        W11014   1.680   5.735   3.061 -0.1802 -0.0244 -0.1627
 6964W        W11015   9.598   5.604   5.311 -0.0499  0.4002  0.0548
 6965W        W11016   8.486   2.133   1.427 -0.3148 -0.0021 -0.1323
 6966W        W11017   1.981   6.629  12.298  0.1525 -0.0964 -0.0082
 6967W        W11018   3.783   1.334   3.159 -0.0779  0.1478 -0.2103
 6968W        W11019   6.745   7.334   1.844  0.0167 -0.3022 -0.1770
 6969W        W11020   5.379   6.025   0.484 -0.1187  0.0896  0.2106
 6970W        W11021   9.809   9.474   2.837 -0.1037 -0.0452 -0.1529
 6971W        W11022   1.725   0.332  11.102 -0.3287  0.2890  0.0676
 6972W        W11023   2.932   3.651   9.573 -0.0860  0.5472 -0.0282
 6973W        W11024   5.161   8.782  10.510 -0.2116 -0.2753  0.1425
 6974W        W11025   6.511   5.425   1.396 -0.4129 -0.3558 -0.0445
 6975W        W11026   7.996   3.188   3.001  0.3867 -0.0310  0.0971
 6976W        W11027   2.413   0.033   1.915 -0.0747 -0.2167  0.2661
 6977W        W11028   8.219   9.852   2.938  0.3039  0.0623 -0.1853
 6978W        W11029   4.241   5.030   2.030  0.0251 -0.0651 -0.3762
 6979W        W11030  10.107   5.878   0.058 -0.1352 -0.1837 -0.3390
 6980W        W11031   0.589   7.569  13.288 -0.0509  0.1688 -0.0386
 6981W        W11032   2.310   8.108   1.411  0.2243 -0.0766 -0.0542
 6982W        W11033   2.311   6.304   5.665  0.0859  0.0909 -0.3075
 6983W        W11034   2.016   2.004  11.457  0.4638 -0.1236  0.1525
 6984W        W11035   0.745   2.786   1.168 -0.1534  0.1657 -0.1588
 6985W        W11036   2.557   3.221   9.655  0.1168 -0.2131 -0.0771
 6986W        W11037   0.988   7.089   2.296 -0.0134  0.0441  0.0543
 6987W        W11038   5.454   1.099  11.698  0.1767 -0.1186  0.4813
 6988W        W11039   9.747   9.362  10.081 -0.0494  0.3815 -0.0713
 6989W        W11040   4.556   0.671   3.209 -0.0867 -0.1268 -0.1749
 6990W        W11041   0.966   5.667   9.021  0.0537 -0.1361  0.2125
 6991W        W11042   9.877   0.262   4.511  0.2855 -0.0270 -0.0489
 6992W        W11043   1.704   8.454   3.275 -0.1968 -0.0855  0.3815
 6993W        W11044   2.956   0.647   1.622  0.0225  0.1028  0.0148
 6994W        W11045   4.960   5.404  12.412  0.0552  0.2383  0.0347
 6995W        W11046   5.047   5.068  11.972 -0.2102  0.2580 -0.0283
 6996W        W11047   2.161   2.202   3.374  0.1010 -0.3827 -0.2235
 6997W        W11048   2.680   1.648  13.498  0.0273  0.0194 -0.0087
 6998W        W11049   9.400   1.491  13.359 -0.1701  0.1058 -0.3112
 6999W        W11050   9.485   2.620  12.968 -0.1693  0.1113 -0.0483
 7000W        W11051   6.505   1.949   0.205  0.2150 -0.2327 -0.2075
 7001W        W11052   1.094   4.761   5.137 -0.5037 -0.3600 -0.0656
 7002W        W11053   0.385   6.285   2.338 -0.1450  0.0020  0.0660
 7003W        W11054   2.181   2.473   2.807 -0.2316  0.0541 -0.1318
 7004W        W11055   9.505   2.168   9.578 -0.1976 -0.0899  0.1415
 7005W        W11056   6.398   7.943  13.141 -0.2023 -0.4201  0.1153
 7006W        W11057   3.590   0.134  11.637  0.0946 -0.3128  0.1277
 7007W        W11058   3.391   1.024  12.810  0.2302  0.0364 -0.1953
 7008W        W11059   4.531   3.641  11.981  0.0496 -0.1934 -0.1503
 7009W        W11060   7.198   9.538  13.561 -0.0456  0.1898 -0.0268
 7010W        W11061   3.856   1.697  11.639 -0.0228 -0.0217  0.1045
 7011W        W11062   7.875   5.515   3.433  0.0158 -0.0597 -0.1412
 7012W        W11063   8.087   4.329   0.797  0.0217 -0.0543 -0.3947
 7013W        W11064   1.809   5.382  13.850  0.1219  0.0113  0.2856
 7014W        W11065   2.984   9.406  12.599 -0.2513 -0.1507  0.1057
 7015W        W11066   8.903   1.383   9.757  0.0701 -0.1314 -0.0260
 7016W        W11067   9.537   0.007  13.002  0.0992  0.3052 -0.1675
 7017W        W11068   6.922   3.959   0.521 -0.1808  0.1051  0.3515
 7018W        W11069   8.305   9.413   0.657 -0.1226  0.1153  0.0724
 7019W        W11070   5.667   4.734   2.861 -0.0135  0.2863  0.0400
 7020W        W11071   7.618   7.106   3.124  0.1271 -0.3499  0.1760
 7021W        W11072   5.696   1.533   3.792  0.1688  0.1885  0.2343
 7022W        W11073   4.746   4.248   4.207  0.0685  0.1692  0.2948
 7023W        W11074   1.280   5.730   0.911  0.1551  0.0225  0.1098
 7024W        W11075   4.467   1.859   3.430 -0.1447  0.1401 -0.1932
 7025W        W11076   6.391   5.202  11.762 -0.1335  0.2577  0.0878
 7026W        W11077   9.618   4.658   3.416 -0.1429  0.2721 -0.2280
 7027W        W11078   3.530   2.768  12.486 -0.1002  0.0328  0.0913
 7028W        W11079   9.957   3.330   9.579 -0.3517 -0.1305 -0.1399
 7029W        W11080   7.289   5.012   4.009  0.0090  0.2932  0.1865
 7030W        W11081   0.582   9.247   9.885 -0.1150 -0.0828  0.3487
 7031W        W11082   7.453   8.612  13.879 -0.0398  0.1719  0.1088
 7032W        W11083   2.499   9.567  12.641 -0.1367  0.1251  0.4347
 7033W        W11084   7.340   6.397  13.323  0.0353 -0.1473  0.3074
 7034W        W11085   5.041   9.604  13.770 -0.2132 -0.0282  0.1548
 7035W        W11086   0.415   9.468   2.428  0.0109  0.4232 -0.0677
 7036W        W11087   8.894   9.591  14.049  0.3540  0.1509  0.1499
 7037W        W11088   3.339   7.964   3.435 -0.0450  0.2683 -0.2820
 7038W        W11089   3.790   0.197   0.522 -0.0560 -0.0532  0.1194
 7039W        W11090   1.037   9.685   3.406 -0.0458 -0.2891  0.0669
 7040W        W11091   0.716   6.558  13.044  0.1089  0.1620 -0.0942
 7041W        W11092   9.739   2.277   9.030 -0.2491 -0.2023 -0.2754
 7042W        W11093   2.416   6.563  12.039 -0.3820 -0.2037 -0.2750
 7043W        W11094   0.866   6.739   0.333 -0.1888  0.4127 -0.0445
 7044W        W11095   8.699   9.998   2.461 -0.0774  0.3216  0.2132
 7045W        W11096   3.013   7.722   3.124 -0.1092 -0.0248 -0.0435
 7046W        W11097   5.108   5.566   1.282 -0.0828  0.2181  0.2433
 7047W        W11098   2.876   3.400   3.575 -0.4198  0.1543 -0.0637
 7048W        W11099   2.025   9.047  11.990 -0.1859 -0.0500  0.0185
 7049W        W11100   9.478   5.799  13.461 -0.0390 -0.2810 -0.2420
 7050W        W11101   8.207   9.391  11.278  0.0994  0.0408 -0.6037
 7051W        W11102   9.088   2.541  11.138  0.1624 -0.2300 -0.3332
 7052W        W11103   2.437   9.521   2.398  0.3033  0.2537 -0.2313
 7053W        W11104   5.096   0.063   1.527 -0.0166  0.3209  0.1683
 7054W        W11105  10.011   9.230   1.936 -0.2002 -0.1161  0.0639
 7055W        W11106   1.228   8.830   4.575  0.3677 -0.2617  0.3787
 7056W        W11107   2.567   8.018   1.016  0.0064 -0.5244 -0.1168
 7057W        W11108   5.461   4.514  12.806 -0.0213 -0.3153  0.1091
 7058W        W11109   5.936   2.795   1.485 -0.1341 -0.0156 -0.1771
 7059W        W11110   1.968   2.042   0.843  0.0562 -0.1562 -0.1299
 7060W        W11111   2.237   6.817   3.603 -0.2181 -0.1576 -0.0623
 7061W        W11112   1.399   0.678   1.828 -0.1201  0.1131  0.3301
 7062W        W11113   4.686   5.240  11.521  0.1122 -0.3697  0.2703
 7063W        W11114   6.252   0.309  12.458  0.1363 -0.5602  0.1128
 7064W        W11115   1.889   3.441   1.073 -0.1977 -0.4597 -0.0003
 7065W        W11116   0.619   4.337  13.244  0.1030 -0.0253  0.0077
 7066W        W11117   4.866   1.582  12.209  0.1112 -0.0149 -0.2076
 7067W        W11118   2.517   2.926  12.743 -0.1577 -0.0283 -0.2031
 7068W        W11119   3.297   4.927   5.396 -0.0539  0.1651  0.2505
 7069W        W11120   9.897   1.872   3.307  0.1479  0.3025  0.2095
 7070W        W11121   9.643   5.525   0.278  0.1707  0.0485 -0.0688
 7071W        W11122   4.498   8.489   1.985  0.0514  0.0356 -0.1357
 7072W        W11123   4.420   0.115   3.626 -0.1739 -0.1980 -0.1440
 7073W        W11124   4.311   9.055  12.427 -0.0458 -0.0134 -0.0274
 7074W        W11125   1.131   9.763  10.488 -0.1573  0.2616 -0.2043
 7075W        W11126   3.774   9.859   2.371 -0.0127 -0.1052  0.0647
 7076W        W11127   1.374   4.713   3.218 -0.1172 -0.0943  0.0637
 7077W        W11128   8.662   8.287  12.995 -0.2762  0.0877 -0.2877
 7078W        W11129   9.752   1.927   0.333  0.1507 -0.1607 -0.1893
 7079W        W11130   7.038   0.571   9.420 -0.1206 -0.1264 -0.1424
 7080W        W11131   1.442   3.952   5.078  0.1397  0.2232 -0.1565
 7081W        W11132   9.406   0.895  11.835 -0.1716  0.2588 -0.0050
 7082W        W11133   1.615   9.302  12.803  0.1470  0.0349  0.2237
 7083W        W11134   0.753   6.816  10.511  0.1564  0.1126  0.2047
 7084W        W11135   8.219   3.872   0.629  0.0429 -0.2613  0.2170
 7085W        W11136   3.905   0.919   0.310  0.1721 -0.0715  0.0108
 7086W        W11137   7.322   4.841   0.472 -0.0411  0.1986 -0.1323
 7087W        W11138   9.079   8.344   5.131 -0.3321  0.0774 -0.1716
 7088W        W11139   7.704   4.618  13.881  0.0713 -0.1597  0.2547
 7089W        W11140   3.559   3.498  11.687  0.4571 -0.1286  0.1302
 7090W        W11141   7.204   9.610  12.981  0.2818  0.0617 -0.1872
 7091W        W11142   3.067   3.002  13.955 -0.2259  0.0058  0.2062
 7092W        W11143   9.769   6.088   3.682  0.0717 -0.0832 -0.0835
 7093W        W11144   0.208   0.432   4.347  0.2076 -0.1508 -0.1553
 7094W        W11145  10.101   0.203   8.914 -0.0207 -0.0388  0.1592
 7095W        W11146   5.234   7.996   9.941 -0.1022  0.0212  0.1466
 7096W        W11147   3.390   4.184   3.873 -0.0512 -0.3826 -0.0204
 7097W        W11148   2.227   6.718   0.389  0.4831 -0.1232 -0.0491
 7098W        W11149   5.061   2.939   0.238 -0.2801  0.1910 -0.0427
 7099W        W11150   2.000   5.358   1.550  0.1582  0.6454 -0.0601
 7100W        W11151   9.203   8.957  12.673 -0.2097 -0.1446 -0.0877
 7101W        W11152   9.587   5.119  13.344  0.1853 -0.1782  0.0163
 7102W        W11153   2.891   7.257   0.767 -0.4134 -0.0221 -0.1788
 7103W        W11154   0.682   4.476   4.708 -0.2888 -0.3311  0.1271
 7104W        W11155   4.527   0.272  11.402 -0.0756  0.1835  0.1268
 7105W        W11156   7.419  10.015  11.948  0.1324 -0.2175  0.0497
 7106W        W11157   0.449   4.866  11.805 -0.2033 -0.0497  0.0341
 7107W        W11158   5.955   8.694   0.089 -0.0243  0.1003  0.1636
 7108W        W11159   3.680   4.451   3.103 -0.1756  0.0643 -0.0441
 7109W        W11160   9.300   4.582   8.822 -0.2169 -0.4711  0.2842
 7110W        W11161   9.951   2.184  10.820  0.3758  0.1254 -0.0493
 7111W        W11162   9.974   2.308   9.478  0.0933  0.0238 -0.3837
 7112W        W11163   0.121   6.822  11.636  0.0704 -0.0068  0.0786
 7113W        W11164   1.755   1.456  13.890  0.0133  0.1257  0.1573
 7114W        W11165   0.643   3.009   9.984 -0.0546 -0.0456 -0.0599
 7115W        W11166   5.558   2.722   3.430  0.1204  0.1605  0.1418
 7116W        W11167   4.368   5.967  13.171  0.4605  0.0949 -0.2481
 7117W        W11168   6.128   8.498   1.405  0.2015 -0.4221 -0.0731
 7118W        W11169   5.513   8.480   9.810  0.1937  0.0070  0.1692
 7119W        W11170   7.421   4.912  10.228 -0.2041 -0.0067  0.0690
 7120W        W11171   0.966   1.339  12.431 -0.3507  0.1907 -0.2337
 7121W        W11172   7.492   6.443  11.730 -0.1081 -0.1649  0.0895
 7122W        W11173   4.826   6.185   0.711 -0.2016  0.1373  0.1556
 7123W        W11174   1.163   8.314   0.686  0.1867  0.1409  0.0467
 7124W        W11175   7.790   6.823   1.462 -0.0966 -0.1581  0.0929
 7125W        W11176   1.784   7.289  11.422 -0.0238 -0.2742  0.2618
 7126W        W11177   1.116   9.935   8.714  0.2181  0.0292  0.0707
 7127W        W11178   3.415  10.020  10.826 -0.0348 -0.2825  0.1793
 7128W        W11179   1.685   5.394   9.718 -0.0278  0.0168  0.2583
 7129W        W11180   6.190   7.213   3.683  0.1463 -0.1131  0.0610
 7130W        W11181   9.229   7.286  10.241  0.2674 -0.4393 -0.1826
 7131W        W11182   9.990   6.428  12.987  0.0209 -0.0062 -0.1256
 7132W        W11183   0.991   4.435   1.083 -0.1719 -0.1138 -0.6368
 7133W        W11184   6.453   4.980  12.532 -0.0434  0.1590  0.0720
 7134W        W11185   5.550   9.303   0.604  0.0604 -0.1158  0.0615
 7135W        W11186   5.334   0.938  10.384 -0.1575  0.1507  0.2953
 7136W        W11187   1.113   1.066  11.362  0.3582 -0.1835 -0.1582
 7137W        W11188   1.930   3.184  13.877 -0.2624  0.0281 -0.0080
 7138W        W11189   9.519   0.972   1.615  0.1927  0.1506  0.0588
 7139W        W11190   8.886   4.250  12.110 -0.0570  0.0733  0.0297
 7140W        W11191   5.644  10.100   3.711 -0.0670  0.0526 -0.3944
 7141W        W11192   0.696   6.168   9.018  0.0355 -0.2598 -0.2324
 7142W        W11193   6.033   1.938   0.479  0.2415  0.1710  0.2061
 7143W        W11194   1.159   5.832  10.363 -0.2181  0.0135  0.0862
 7144W        W11195   3.153   2.547   2.681 -0.1870  0.1739 -0.0063
 7145W        W11196   1.693   1.444  12.093 -0.3559  0.1715 -0.3078
 7146W        W11197   4.173   3.123   0.009 -0.0350 -0.0134  0.1568
 7147W        W11198   0.849   2.170  13.106 -0.1298 -0.0413  0.0940
 7148W        W11199   4.791   1.938   7.139  0.3321 -0.2349  0.1479
 7149W        W11200   7.848   0.942  13.646 -0.1330 -0.1812 -0.2308
 7150W        W11201   4.583   4.228  12.386  0.1723 -0.2611 -0.0315
 7151W        W11202   6.516   0.295  11.589  0.2651  0.0161  0.0170
 7152W        W11203   3.012   5.780   0.392  0.4145 -0.1236 -0.0188
 7153W        W11204   0.986   8.084  12.226 -0.2061 -0.0482 -0.2329
 7154W        W11205   5.858   8.968   9.772  0.0562 -0.1235 -0.1958
 7155W        W11206   2.473   0.404   9.930 -0.0496  0.0411 -0.0073
 7156W        W11207   3.020   4.035  12.082  0.0556 -0.0573  0.0472
 7157W        W11208   8.138   3.612   2.570 -0.2951 -0.3187  0.1048
 7158W        W11209   5.451   5.118   1.176  0.0613  0.4004  0.1987
 7159W        W11210   0.447   7.984   2.746  0.1029 -0.1925  0.1139
 7160W        W11211   7.581   3.704   2.204 -0.0529 -0.2520 -0.2181
 7161W        W11212   5.802   6.193   0.340  0.2021  0.0897 -0.1010
 7162W        W11213   0.702   1.152  13.015 -0.1650  0.0377  0.3663
 7163W        W11214   2.703   6.136   0.934  0.1385  0.1044  0.2121
 7164W        W11215   2.336   5.741   2.571 -0.1969  0.0271 -0.0027
 7165W        W11216   8.993   0.386   1.121  0.0031 -0.2290 -0.0611
 7166W        W11217   4.255   5.710   1.261  0.0640  0.2693 -0.1387
 7167W        W11218   1.547   5.360   5.606 -0.0883 -0.4306  0.1477
 7168W        W11219   4.316   4.156  11.145  0.1569 -0.3333  0.2662
 7169W        W11220   7.039   8.855   4.175 -0.1525  0.1555 -0.3760
 7170W        W11221   0.821   0.164  13.061  0.1204  0.0815 -0.2007
 7171W        W11222   5.943   1.685   2.395  0.2688 -0.0550 -0.2669
 7172W        W11223   2.409   2.335   0.722 -0.2061 -0.1233  0.2188
 7173W        W11224   1.174   8.024   9.446 -0.0076  0.0033 -0.0273
 7174W        W11225   9.556   5.013  10.083  0.0332 -0.0434  0.0490
 7175W        W11226   0.938   8.683  14.057  0.1456  0.2241 -0.3419
 7176W        W11227   1.128   8.619   3.136  0.0761  0.0196 -0.0690
 7177W        W11228   2.021   4.951   9.206 -0.0617  0.0801 -0.0465
 7178W        W11229   1.491   2.296   5.289  0.1093  0.1032 -0.1213
 7179W        W11230   8.851   3.170   0.020  0.1890  0.1377  0.1116
 7180W        W11231   5.859   8.258  11.959 -0.0766  0.0219 -0.0999
 7181W        W11232   3.909   7.493  10.964  0.2903  0.1498 -0.2314
 7182W        W11233   0.577   6.041  12.999 -0.2656  0.3061 -0.2271
 7183W        W11234   6.345   9.205  11.932  0.0296 -0.0108  0.1243
 7184W        W11235   0.777   3.674   4.226 -0.1264 -0.3899  0.1792
 7185W        W11236   0.286   9.093   2.811  0.1816  0.0292 -0.0254
 7186W        W11237   1.015   4.810  11.092  0.4189 -0.1122  0.0712
 7187W        W11238   4.052   3.547  11.716  0.0812 -0.2239 -0.3316
 7188W        W11239   4.828   6.459   1.693  0.0139  0.0143  0.1378
 7189W        W11240   1.332   4.790   0.478 -0.1015  0.1742  0.2852
 7190W        W11241   6.116   7.148   2.781 -0.0419  0.0324 -0.0605
 7191W        W11242   5.496   7.753  11.911  0.0519 -0.0576 -0.1985
 7192W        W11243   9.897   9.948   4.714 -0.4100 -0.3472 -0.1397
 7193W        W11244   1.253   2.036  10.914 -0.1351  0.0227  0.0077
 7194W        W11245   9.336   7.268   2.666  0.0173 -0.1550 -0.0633
 7195W        W11246   3.684   2.894   0.416  0.1168  0.3560  0.1931
 7196W        W11247   0.817   7.469   2.938 -0.0887  0.1883 -0.0004
 7197W        W11248   5.339   8.862   2.387  0.2917  0.3005 -0.0555
 7198W        W11249   1.794   4.459  12.496  0.2088 -0.2757  0.0848
 7199W        W11250   7.945   9.884  13.708 -0.3947  0.0248  0.0322
 7200W        W11251   9.209   6.441  10.027  0.0080  0.0827 -0.1065
 7201W        W11252   9.693   4.959   1.103  0.2077  0.1983  0.0492
 7202W        W11253   3.553   6.639   2.883 -0.2203  0.2088 -0.2002
 7203W        W11254   7.964   9.840   3.443  0.1651  0.0021 -0.0043
 7204W        W11255   6.674   3.731  13.295 -0.1337 -0.0728 -0.0106
 7205W        W11256   9.242   8.396   3.986 -0.1066  0.1990  0.0028
 7206W        W11257   2.466   0.241   3.343  0.1680  0.1710 -0.0123
 7207W        W11258   4.099   3.619   0.640 -0.1814  0.0650 -0.1284
 7208W        W11259   3.121   3.258  11.529  0.0820 -0.0943 -0.3394
 7209W        W11260   8.477   5.584  10.840 -0.1448  0.1058  0.1966
 7210W        W11261   2.647   5.162   0.675  0.1178 -0.1674  0.1419
 7211W        W11262   3.601   0.181   2.322  0.2699 -0.0825  0.0145
 7212W        W11263   9.251   5.594  10.330 -0.0681  0.0222 -0.1841
 7213W        W11264   7.383   4.266  11.666  0.0703  0.0429  0.0803
 7214W        W11265   1.118   1.608  11.630  0.1388 -0.0189 -0.1381
 7215W        W11266   5.857   9.601  10.515 -0.2455  0.3493 -0.1499
 7216W        W11267   8.808   6.489  11.918  0.1074 -0.1514 -0.1167
 7217W        W11268   3.110   2.460  10.540 -0.4692 -0.0624  0.2553
 7218W        W11269   2.187   3.320  12.900 -0.0740  0.3124 -0.0804
 7219W        W11270   7.500   2.525  12.291 -0.1963 -0.2712 -0.0148
 7220W        W11271   5.246   0.273  11.025 -0.3010 -0.0807 -0.1904
 7221W        W11272   1.251   3.464  11.096  0.2080 -0.3975 -0.1566
 7222W        W11273   0.862   6.564  10.016 -0.0997 -0.0318 -0.0973
 7223W        W11274   8.299   6.594   3.408  0.1209  0.0822 -0.0167
 7224W        W11275   7.273   4.662   4.861  0.2633 -0.0628  0.0302
 7225W        W11276   6.896   7.204   4.410  0.0375  0.0401 -0.1804
 7226W        W11277   9.268   1.141   9.457 -0.2379  0.0727  0.0360
 7227W        W11278   7.690   5.362   3.937 -0.1043 -0.0128 -0.1929
 7228W        W11279   2.385   6.644   9.329 -0.1549  0.0387 -0.1030
 7229W        W11280   5.007   3.187  10.034  0.0415 -0.0058  0.2038
 7230W        W11281   3.284   6.525  11.886 -0.0678  0.0256 -0.0702
 7231W        W11282   9.944   3.932   4.022  0.0541 -0.1537 -0.3367
 7232W        W11283   7.474   1.307  12.691 -0.2128 -0.0776  0.0783
 7233W        W11284   7.061   7.206  13.181  0.0218  0.2537  0.0869
 7234W        W11285   6.061   5.941   9.444 -0.2518  0.0694  0.1582
 7235W        W11286   3.730   7.826   1.588 -0.0219 -0.0152 -0.0588
 7236W        W11287   8.851   3.392   1.277 -0.1470 -0.0964 -0.0840
 7237W        W11288   6.290   7.487  13.291 -0.0600  0.0048  0.1160
 7238W        W11289   2.303   0.687  13.547  0.1789 -0.0815  0.0526
 7239W        W11290   5.594   5.568   1.025  0.1528  0.1500  0.5277
 7240W        W11291   8.600   6.126   3.295 -0.0851 -0.1334  0.0236
 7241W        W11292   1.302   1.972   2.905  0.0128 -0.2127  0.1642
 7242W        W11293   9.321   2.092   1.447 -0.2596 -0.0218 -0.1592
 7243W        W11294  10.025   7.706  11.327  0.1540 -0.0718 -0.0005
 7244W        W11295   6.428   3.485  12.607 -0.2254  0.2350  0.1436
 7245W        W11296   7.852   6.332   0.087 -0.1789 -0.2218  0.0805
 7246W        W11297   7.463   1.426   2.591  0.0744  0.2679 -0.1630
 7247W        W11298   6.859   7.918   3.199 -0.3210  0.0807 -0.0173
 7248W        W11299   9.268   9.920  12.644  0.2786  0.2810 -0.0343
 7249W        W11300  10.115   2.295   3.146 -0.3176 -0.1810  0.0856
 7250W        W11301   7.653   5.323   2.609  0.2911  0.4408  0.1902
 7251W        W11302   3.011   5.052  12.130 -0.1493  0.5380 -0.1777
 7252W        W11303   3.277   9.854   0.192  0.3426  0.0037 -0.2710
 7253W        W11304   8.158   5.685  11.194  0.0339  0.0960 -0.4695
 7254W        W11305   0.571   9.608   0.774  0.1968  0.0409 -0.0448
 7255W        W11306   6.959   7.183  13.656 -0.0088 -0.0757 -0.0321
 7256W        W11307   7.709   4.217  12.084  0.0104 -0.0374  0.2403
 7257W        W11308   3.181   7.388  13.021 -0.0912 -0.2162 -0.0427
 7258W        W11309   5.115   8.753   3.408 -0.1490  0.1133  0.0084
 7259W        W11310   9.250   5.275   4.437 -0.2520 -0.2580  0.0384
 7260W        W11311   3.899   6.161   3.782  0.1431 -0.1093 -0.2831
 7261W        W11312   5.819   3.045   5.960 -0.0387  0.0548 -0.2532
 7262W        W11313   7.016   8.057  12.914  0.2173 -0.5673  0.1020
 7263W        W11314   6.616   0.839   2.458  0.0799 -0.0645 -0.0284
 7264W        W11315   8.796   7.412   1.882  0.0603  0.0255 -0.1329
 7265W        W11316   5.349   3.707  12.110  0.2354 -0.2339  0.1370
 7266W        W11317   6.138   2.335  13.066 -0.0246 -0.0164  0.0121
 7267W        W11318   9.987   5.226  13.898 -0.1392 -0.1215  0.0575
 7268W        W11319   6.341   7.875   3.232  0.2681 -0.0133  0.1195
 7269W        W11320   3.964   4.109   1.418  0.1288 -0.2650 -0.0442
 7270W        W11321   8.091   5.140  12.873  0.2552 -0.2025 -0.1298
 7271W        W11322   2.976   5.390   5.464 -0.1586 -0.0088 -0.1331
 7272W        W11323   4.474   6.539   2.641 -0.0388 -0.0640 -0.2130
 7273W        W11324   3.726   4.874  10.735  0.0777 -0.1003  0.4333
 7274W        W11325   5.968   7.995   1.321  0.1064 -0.2959 -0.2269
 7275W        W11326   9.244   9.955  13.823 -0.1107  0.1425  0.0232
 7276W        W11327   8.991   9.647  12.003 -0.2115 -0.1982 -0.3073
 7277W        W11328   5.993   9.971  10.890 -0.0837  0.3169 -0.0011
 7278W        W11329   6.354   0.898   1.860 -0.2674 -0.0223  0.1076
 7279W        W11330   8.572   5.811   5.372  0.0848  0.0996 -0.1271
 7280W        W11331   0.643   6.008  11.918 -0.4317  0.1666 -0.2206
 7281W        W11332   4.117   3.974  12.077 -0.1661  0.2959  0.1554
 7282W        W11333   2.365   5.590  13.889 -0.1111  0.3172 -0.2351
 7283W        W11334   3.238   8.357   5.498 -0.0047 -0.0349  0.2527
 7284W        W11335   4.075   2.187   2.109 -0.1537 -0.1074  0.1438
 7285W        W11336   4.842   2.018   0.017 -0.2006 -0.0249 -0.1533
 7286W        W11337   0.583   5.158   2.861  0.1805  0.1167  0.0900
 7287W        W11338   7.145   9.033   0.526 -0.0904 -0.2964 -0.0650
 7288W        W11339   2.893   9.051   0.156 -0.0883  0.1515  0.1086
 7289W        W11340   5.754   1.559   0.304  0.1305 -0.1903 -0.2742
 7290W        W11341   6.817   8.232  12.076 -0.0535  0.0970  0.0333
 7291W        W11342  10.009   7.960  13.761 -0.2319 -0.1253 -0.0034
 7292W        W11343   4.018   6.582   1.118  0.0426 -0.2497 -0.1002
 7293W        W11344   9.288   0.339  11.185  0.1473  0.0044  0.1104
 7294W        W11345   2.145   2.038  13.571  0.1112  0.0916 -0.0302
 7295W        W11346   3.863   5.979   2.392  0.2480 -0.0285  0.1075
 7296W        W11347   2.711   9.195  10.700  0.1140 -0.1227  0.0299
 7297W        W11348   1.499   5.214  11.899  0.0175  0.1991  0.0313
 7298W        W11349   3.673   5.420  10.614 -0.2377  0.1144  0.0887
 7299W        W11350   5.982   1.282  12.349 -0.0866 -0.0553 -0.0804
 7300W        W11351   9.500   7.983   4.349  0.0405 -0.1064 -0.1093
 7301W        W11352   7.393   1.966  13.931 -0.0782  0.1077 -0.2711
 7302W        W11353   2.674   0.427   1.240  0.0801  0.0313  0.2842
 7303W        W11354   6.573   0.540  10.427  0.2470  0.0995 -0.0781
 7304W        W11355   0.526   8.789   0.231 -0.1145 -0.0556 -0.1044
 7305W        W11356   7.081   0.212  12.200 -0.1405  0.0311  0.0627
 7306W        W11357   6.374   9.421  14.061 -0.0605  0.1130 -0.0860
 7307W        W11358   1.985   9.662   9.844  0.1740 -0.1824  0.0661
 7308W        W11359   4.261  10.088  14.007  0.0626 -0.0982 -0.1189
 7309W        W11360   9.098   9.144  14.000 -0.1616 -0.1365 -0.2043
 7310W        W11361   1.586   3.657   0.677  0.1104 -0.3130  0.0386
 7311W        W11362   3.751   5.050   5.203 -0.2296  0.1183 -0.1086
 7312W        W11363   9.986   0.431   3.614  0.1953 -0.1314  0.1659
 7313W        W11364   5.839   8.334  11.498  0.0766  0.1483  0.2804
 7314W        W11365   1.485   5.390  10.218 -0.0643 -0.1694 -0.2268
 7315W        W11366   6.123   4.859  13.842  0.0303 -0.1102  0.1732
 7316W        W11367   9.630   5.241   4.856  0.2092 -0.0993 -0.2170
 7317W        W11368   8.321   4.939   0.430 -0.3299  0.0714  0.0178
 7318W        W11369   7.385   2.828  11.864  0.1197 -0.0251 -0.1360
 7319W        W11370   7.281   4.891  13.688  0.0160 -0.1814  0.0305
 7320W        W11371   2.291   1.617   1.650  0.2857  0.0811  0.1825
 7321W        W11372   1.392   6.043   0.519 -0.3890  0.2146 -0.0428
 7322W        W11373   9.625   0.793  10.934  0.0176  0.1801 -0.2254
 7323W        W11374   0.616   0.634  10.262  0.1321  0.0809 -0.0785
 7324W        W11375   3.737   6.132  13.001  0.0178  0.0874 -0.0983
 7325W        W11376   8.732   7.930   9.927 -0.2602  0.0768  0.0561
 7326W        W11377   3.103   6.415   9.323 -0.0493  0.0533 -0.0742
 7327W        W11378  10.139   2.672  12.153  0.1657  0.0659  0.1061
 7328W        W11379   9.175   4.633   9.355  0.1567 -0.2734  0.2002
 7329W        W11380   2.055   0.041  11.404  0.0218  0.3321  0.3049
 7330W        W11381   2.215   0.268   1.445 -0.3189 -0.0261 -0.2071
 7331W        W11382   3.961   6.837   0.027  0.0714  0.1089  0.1109
 7332W        W11383   6.501   1.861  11.615  0.2930  0.3940 -0.0759
 7333W        W11384   9.626   9.391  11.136 -0.3691  0.0541  0.2652
 7334W        W11385   1.665   2.568  13.074  0.0769  0.2561 -0.0116
 7335W        W11386   2.404   5.392   1.827  0.2835 -0.1758  0.0940
 7336W        W11387   9.840   0.215  13.319  0.0631  0.1025 -0.1022
 7337W        W11388   5.302   9.129   1.386  0.2425  0.1487 -0.0692
 7338W        W11389   5.582   9.105  10.926 -0.1340  0.2550 -0.1873
 7339W        W11390   7.730   7.572   1.801  0.1781  0.0717 -0.0257
 7340W        W11391   0.812   1.708  10.952 -0.0965  0.0204 -0.0009
 7341W        W11392   7.152   6.144   2.718 -0.1622  0.0025 -0.1861
 7342W        W11393   1.632   6.148   0.919 -0.1569 -0.0614  0.0636
 7343W        W11394   3.851   9.048  13.497 -0.4515  0.0763 -0.1151
 7344W        W11395   6.082   6.818   5.011  0.1629 -0.2929 -0.0891
 7345W        W11396   4.812   6.881   2.908 -0.5182  0.0445 -0.0483
 7346W        W11397   5.594   7.784  12.795 -0.0447  0.2392 -0.0940
 7347W        W11398   2.334   5.920   4.412  0.0273  0.0167 -0.1817
 7348W        W11399   1.464   8.044  13.577 -0.1387  0.1133  0.4452
 7349W        W11400   8.459   5.965   0.551  0.0136  0.3933 -0.0721
 7350W        W11401   8.799   2.584   3.955 -0.1081  0.0695 -0.0685
 7351W        W11402   5.952   1.262   4.258 -0.0589 -0.1190 -0.2237
 7352W        W11403  10.017   8.374   2.966  0.0456  0.2172  0.0727
 7353W        W11404   6.935   6.651   2.749  0.2333 -0.0450 -0.2447
 7354W        W11405   5.011   0.649  12.650  0.0783  0.0363  0.2020
 7355W        W11406   7.051   4.529   2.980  0.1564  0.2208  0.0182
 7356W        W11407   3.817   9.047   0.716 -0.3323  0.0068  0.1006
 7357W        W11408   7.908   6.766  13.517 -0.0375 -0.0053  0.1273
 7358W        W11409   2.204   5.031   0.430  0.0669  0.1041 -0.4097
 7359W        W11410   2.629   9.483  13.570  0.0993 -0.0613  0.0243
 7360W        W11411   2.314   6.045   1.234 -0.2031  0.0144  0.1438
 7361W        W11412   4.513   0.777   0.417 -0.1407  0.0135  0.0473
 7362W        W11413   3.352   4.852   4.366  0.1554 -0.0381 -0.0372
 7363W        W11414   6.908   8.534   1.937  0.1042  0.0659  0.0700
 7364W        W11415   2.529   4.159  13.899 -0.2443  0.0451 -0.0674
 7365W        W11416   2.942   3.749  11.696  0.2127  0.0521 -0.2033
 7366W        W11417   4.173   4.106  10.620  0.2154 -0.0142 -0.2594
 7367W        W11418   8.472   6.335   0.885 -0.1514  0.0739 -0.0023
 7368W        W11419   9.910   6.492   0.718  0.0106 -0.0100  0.0211
 7369W        W11420   9.001   5.097   3.954  0.0406  0.0532 -0.1971
 7370W        W11421   2.544   6.661   2.120  0.1954 -0.1412 -0.0818
 7371W        W11422   2.195   3.092  12.395 -0.1819  0.1027 -0.1693
 7372W        W11423   8.816   1.902   9.916 -0.0049  0.1005 -0.0113
 7373W        W11424   8.815   7.619   3.523 -0.2527  0.0656  0.1353
 7374W        W11425   9.347   4.315   0.513  0.0242 -0.2833  0.2723
 7375W        W11426   1.992   8.593   9.722  0.1026 -0.1256 -0.0782
 7376W        W11427   2.441   5.525   1.276  0.0595  0.2096  0.0621
 7377W        W11428   9.889   3.891   4.935  0.0954  0.0872  0.3332
 7378W        W11429   8.890   0.763  12.054 -0.1722 -0.0874  0.1709
 7379W        W11430   0.415   8.763  12.317  0.1000  0.1693  0.1580
 7380W        W11431   7.694   3.299  11.795 -0.1729 -0.1661  0.0941
 7381W        W11432   9.774   8.108   2.579  0.0464 -0.0567 -0.0769
 7382W        W11433   8.144   2.282  11.718  0.0038 -0.0925 -0.0624
 7383W        W11434   8.257   3.297  13.848 -0.0327  0.0610  0.2244
 7384W        W11435   7.810   0.572  11.310  0.1081  0.0437  0.0905
 7385W        W11436   6.981   6.932   3.227  0.4853 -0.1881  0.2320
 7386W        W11437   0.731   1.659  13.966  0.3417  0.0063 -0.1727
 7387W        W11438   7.659   8.341  11.927 -0.0203 -0.0779  0.2511
 7388W        W11439   2.802   8.309   4.780 -0.1740  0.0145  0.0534
 7389W        W11440   8.175   6.350  10.049 -0.0941  0.3221  0.0151
 7390W        W11441   4.458   6.977   4.516  0.2692 -0.1784 -0.0593
 7391W        W11442   4.802   7.467   9.181  0.1916  0.0705 -0.2464
 7392W        W11443   8.629   8.519  11.947 -0.0235 -0.1673  0.0146
 7393W        W11444   4.605   6.227  13.983 -0.0008 -0.1141 -0.1053
 7394W        W11445   9.377   6.233   4.866  0.1158  0.0663  0.3835
 7395W        W11446   3.749   8.131   2.590  0.1186 -0.1827  0.2828
 7396W        W11447   5.641   8.130   1.671 -0.4891 -0.1258  0.0231
 7397W        W11448   1.038   1.559   2.003 -0.1145  0.0612 -0.1228
 7398W        W11449   3.014   5.093  11.222 -0.0236 -0.0302  0.1211
 7399W        W11450   3.710   0.975   2.774 -0.2297 -0.2093  0.1302
 7400W        W11451   9.472   8.236   3.545 -0.0267  0.3456  0.0673
 7401W        W11452   0.497   8.003   0.847 -0.1337  0.1666 -0.3438
 7402W        W11453   6.859   8.425   3.407 -0.5278 -0.1192 -0.0319
 7403W        W11454   3.880   9.387  12.676  0.0579 -0.0832  0.1001
 7404W        W11455   6.662   8.091   3.818 -0.0253  0.0198  0.1218
 7405W        W11456   0.680   6.234  13.516  0.1464  0.0603  0.0013
 7406W        W11457   6.887   5.321  11.555  0.1845  0.0831  0.0291
 7407W        W11458   7.964   9.140  11.816 -0.0925  0.0959 -0.0587
 7408W        W11459   0.186   9.617   2.869  0.1843 -0.0061 -0.0245
 7409W        W11460   7.750   5.010  10.592 -0.1794  0.3697  0.2061
 7410W        W11461   5.183   9.019  11.987  0.0758  0.0007  0.0891
 7411W        W11462   2.491   5.335   3.520  0.4619  0.1209 -0.1247
 7412W        W11463   2.993   9.125   4.306 -0.0523  0.2551 -0.0046
 7413W        W11464   7.721   4.652   1.706 -0.2186  0.0909 -0.1439
 7414W        W11465   0.988   4.681  13.122  0.2221  0.1976  0.0261
 7415W        W11466   8.654   6.158   4.531  0.3199  0.0003  0.0688
 7416W        W11467   3.779   0.801   1.114  0.1730 -0.1148 -0.2225
 7417W        W11468   6.860   4.248  12.512  0.2037  0.0820  0.3931
 7418W        W11469   3.848   2.623   3.359 -0.0504  0.2632 -0.0258
 7419W        W11470   8.074  10.079  10.394  0.0887  0.1110 -0.0337
 7420W        W11471   9.505   0.197   2.978 -0.0205  0.0748 -0.0015
 7421W        W11472   0.646   1.435  13.474 -0.2346 -0.2738 -0.1419
 7422W        W11473   2.249   4.879  10.341 -0.1797 -0.0572  0.1300
 7423W        W11474   1.170   3.095   9.828 -0.0977  0.1866  0.0898
 7424W        W11475   5.372   8.499   0.669  0.3071 -0.0549 -0.3872
 7425W        W11476   4.647   5.728  12.250 -0.2011 -0.0477  0.0981
 7426W        W11477   1.196   2.559   0.798  0.0647  0.0424 -0.1006
 7427W        W11478   0.969   2.887  11.538 -0.0012 -0.0227 -0.2463
 7428W        W11479   2.850   7.958  13.983 -0.1227 -0.1316 -0.2551
 7429W        W11480   4.924   3.158   0.977  0.1644 -0.3054  0.1450
 7430W        W11481   1.767   0.880   0.320 -0.2342 -0.0657 -0.0283
 7431W        W11482   1.132   0.503   4.656  0.0613  0.2212 -0.1666
 7432W        W11483   4.157   8.545  12.244 -0.1792 -0.2019 -0.0797
 7433W        W11484   8.498   4.403  13.280  0.0406 -0.1442 -0.1932
 7434W        W11485   5.677   9.656   2.999 -0.0527 -0.4007  0.0175
 7435W        W11486   1.415   7.793  10.561 -0.2100  0.0030  0.2082
 7436W        W11487   2.178   2.506  11.674 -0.4212  0.1292 -0.1553
 7437W        W11488   3.264   1.095   3.108  0.2014  0.2286  0.0103
 7438W        W11489   8.781   2.870  11.865 -0.1383 -0.1907 -0.0018
 7439W        W11490   6.300   2.831  13.508  0.2925 -0.1482 -0.2024
 7440W        W11491   5.699   4.133   1.521 -0.0782 -0.2567 -0.2441
 7441W        W11492   4.135   1.264   9.567 -0.0914  0.1117 -0.1290
 7442W        W11493   4.037   5.511  12.252  0.1012  0.1019  0.1215
 7443W        W11494   8.664   7.214   4.707 -0.0089  0.3062  0.0160
 7444W        W11495   0.767   4.394   2.539 -0.1013 -0.1272 -0.0185
 7445W        W11496   2.516   4.204  12.955 -0.0569 -0.2358 -0.1854
 7446W        W11497   7.453   4.484  11.242 -0.0469 -0.2169 -0.2547
 7447W        W11498   5.670   2.959   1.931  0.1881 -0.1732 -0.1077
 7448W        W11499   1.758   3.631   0.177 -0.0858 -0.2898 -0.3247
 7449W        W11500   9.114   3.755  13.398  0.4288  0.0051 -0.1546
 7450W        W11501   7.094   4.850   3.383 -0.0713 -0.0680 -0.4493
 7451W        W11502   5.117   3.758  12.901 -0.4049  0.3728  0.2671
 7452W        W11503   8.654   4.199  11.641 -0.1480  0.0539  0.2741
 7453W        W11504   1.439   6.710   4.462  0.2571  0.0184  0.1631
 7454W        W11505   6.143   8.168   8.748 -0.2764  0.0222  0.1689
 7455W        W11506   0.227   2.343  11.631 -0.1100  0.3547 -0.0560
 7456W        W11507   0.130   1.424   1.161  0.0752  0.0914  0.1445
 7457W        W11508   5.348   3.220   1.661 -0.1691  0.0964  0.0966
 7458W        W11509   7.559   4.214   4.155  0.0192 -0.2154  0.0663
 7459W        W11510   0.270   1.088  13.478 -0.0206  0.0092 -0.2104
 7460W        W11511   1.133   6.893  12.176  0.2524 -0.0374 -0.0742
 7461W        W11512   1.307   1.922   9.295 -0.2576 -0.0204  0.0017
 7462W        W11513   5.401   4.686  12.054 -0.1123 -0.1285  0.1252
 7463W        W11514   7.303   9.696  11.610 -0.0530  0.1672 -0.1764
 7464W        W11515   8.760   8.861   4.770 -0.1231 -0.1474  0.3077
 7465W        W11516   1.927   3.708   1.612  0.0270  0.1698  0.0211
 7466W        W11517   7.975   9.829  11.576  0.0415  0.1950 -0.2382
 7467W        W11518   7.403   6.676  12.231 -0.1644  0.3041  0.1937
 7468W        W11519   8.350   9.702  10.635  0.6181  0.0806  0.2121
 7469W        W11520   8.894   2.921   4.412 -0.1787  0.0421  0.0181
 7470W        W11521   4.564   0.163   1.138 -0.0731  0.1589 -0.0562
 7471W        W11522   0.177   7.225   4.387  0.2026  0.2127 -0.1649
 7472W        W11523   9.541   7.857  11.132 -0.0609  0.1506 -0.1621
 7473W        W11524   7.510   8.777  12.760 -0.0591  0.1097  0.2141
 7474W        W11525   4.424   5.797   2.293 -0.0797 -0.5889 -0.2086
 7475W        W11526   2.918   5.994   2.821  0.0963 -0.2096  0.1023
 7476W        W11527   8.092   3.681  11.546 -0.3105  0.0270  0.3280
 7477W        W11528   6.285   7.309   0.175 -0.2911 -0.1253 -0.3829
 7478W        W11529   6.645   0.671  11.909 -0.0679 -0.1523 -0.3804
 7479W        W11530   7.051  10.031  13.825 -0.4086 -0.1429  0.1883
 7480W        W11531   0.298   9.455  12.639  0.0677  0.1737  0.0060
 7481W        W11532   4.685   5.757   1.035  0.2052 -0.1309 -0.0287
 7482W        W11533   8.858   1.521   3.212  0.0715  0.3260 -0.2202
 7483W        W11534   9.073   8.214   4.630  0.1018 -0.2080 -0.1122
 7484W        W11535   8.741   6.177  13.805 -0.2675 -0.0091 -0.0124
 7485W        W11536   9.712   2.197   2.860 -0.0562 -0.0053  0.1292
 7486W        W11537   3.375   6.454  13.161  0.3545 -0.0049 -0.2648
 7487W        W11538   9.386   4.798   4.174  0.0038 -0.1373 -0.1150
 7488W        W11539   6.822   9.411  10.212  0.3296 -0.0931 -0.0742
 7489W        W11540   9.200   0.131   3.776  0.0293 -0.4015  0.2000
 7490W        W11541   3.667   4.088   3.495  0.0248 -0.0965  0.0369
 7491W        W11542   7.572   0.694  10.795  0.2449  0.1661 -0.0240
 7492W        W11543   1.146   1.017  13.231  0.2200 -0.1603 -0.2100
 7493W        W11544   8.230   1.369   0.977 -0.1521  0.0489 -0.1593
 7494W        W11545   7.089   8.932  12.504  0.2428  0.3949  0.0485
 7495W        W11546   3.591   7.269  11.725  0.4754 -0.1634  0.0576
 7496W        W11547   0.936   8.624   1.972  0.0211 -0.3529  0.2766
 7497W        W11548   5.481   9.529   3.954 -0.2726 -0.0801  0.0855
 7498W        W11549   0.380   3.156  13.828  0.0017  0.1905  0.0200
 7499W        W11550   2.099   6.123  12.311  0.4500 -0.0563  0.2142
 7500W        W11551   7.369   3.762   1.800 -0.0748  0.2215 -0.0491
 7501W        W11552   0.631   3.477   3.785 -0.1358 -0.0077  0.1443
 7502W        W11553   3.910   2.423  12.407  0.0024  0.1729 -0.0108
 7503W        W11554   1.375   3.546  13.969  0.2131 -0.0752  0.0720
 7504W        W11555   9.859   5.182   5.398  0.1909 -0.1945 -0.1182
 7505W        W11556   9.340   6.298   1.560  0.2608 -0.1642  0.1384
 7506W        W11557   4.865   4.776  11.593 -0.0260  0.3205 -0.2286
 7507W        W11558   0.310   6.160   1.028  0.4565  0.3208  0.0759
 7508W        W11559   8.655   7.113   3.356 -0.2492 -0.0969  0.2255
 7509W        W11560   4.625   5.308   1.250  0.2851 -0.1205  0.2919
 7510W        W11561   4.984   2.643   3.364 -0.3196  0.0305 -0.1006
 7511W        W11562   7.924   6.443   3.760 -0.3500  0.3780 -0.2600
 7512W        W11563   1.177   7.907  13.182  0.4659 -0.0452  0.1585
 7513W        W11564   9.316   0.970   4.433 -0.0099 -0.0633  0.1032
 7514W        W11565   6.928   7.378  12.230 -0.3106  0.0170  0.0878
 7515W        W11566   4.076   8.916  13.048  0.3655  0.1413 -0.0105
 7516W        W11567   2.962   3.267  10.552  0.0186  0.0115  0.3549
 7517W        W11568   6.849   0.215   0.321  0.0534  0.0620 -0.0068
 7518W        W11569   0.393   6.546   3.027  0.2489 -0.0538  0.0706
 7519W        W11570   9.808   8.219   2.085  0.0848  0.1357 -0.2075
 7520W        W11571   6.378   8.455   3.637 -0.0546  0.1013 -0.0895
 7521W        W11572   3.217   4.484  12.924  0.0112 -0.1797 -0.3462
 7522W        W11573   6.856   7.987  13.901  0.1883  0.3299  0.3359
 7523W        W11574   9.374   9.805   3.816  0.2513 -0.0033 -0.0872
 7524W        W11575   5.578   5.614  13.663 -0.1040 -0.0867  0.3699
 7525W        W11576   0.331   5.623   0.796  0.2995  0.2512 -0.2558
 7526W        W11577   0.818   4.558  11.998 -0.1783  0.1670  0.2128
 7527W        W11578   5.440   9.102   3.692 -0.0945  0.1063 -0.1941
 7528W        W11579   6.251   6.576  10.635  0.4325  0.2148  0.4247
 7529W        W11580   1.790   0.849   3.932 -0.0125 -0.2123 -0.1125
 7530W        W11581   8.469   5.167   4.088 -0.1118  0.1573  0.1397
 7531W        W11582   8.742   7.579   1.413 -0.0469 -0.1546  0.3640
 7532W        W11583   0.228   5.510   3.124 -0.0615  0.1343  0.0350
 7533W        W11584   6.291   7.391  11.657 -0.2695 -0.1748 -0.2793
 7534W        W11585   0.868   2.697   2.137 -0.1307  0.1032 -0.2185
 7535W        W11586   4.267   6.770   2.241 -0.0285  0.2493  0.2371
 7536W        W11587   8.226   5.323  12.390  0.1051 -0.0417  0.0237
 7537W        W11588   2.104   3.682   0.524 -0.0215 -0.0687 -0.1919
 7538W        W11589   9.171   3.128   1.045  0.3072 -0.1879 -0.0708
 7539W        W11590   5.284   5.746   0.081 -0.1626  0.2160 -0.1962
 7540W        W11591   5.128   8.689   2.885 -0.0208  0.2204 -0.1011
 7541W        W11592   5.073   1.344  11.456  0.1233 -0.0042  0.0258
 7542W        W11593   1.667   2.093   2.512 -0.1392  0.0912  0.3486
 7543W        W11594   7.181   5.778   0.209  0.0384  0.1993  0.1613
 7544W        W11595   5.598   5.063   0.532 -0.3126 -0.2061 -0.2361
 7545W        W11596   1.004   9.434  11.482  0.1754  0.1265 -0.1418
 7546W        W11597   8.496   0.604   1.260  0.2478  0.6096 -0.0545
 7547W        W11598   9.895   7.546  12.113 -0.3025  0.4659  0.0004
 7548W        W11599   2.568   3.623   0.394  0.2500  0.1255  0.1434
 7549W        W11600   2.014   6.124  13.166 -0.1340  0.1020 -0.2023
 7550W        W11601   4.047   8.930   9.243 -0.3075 -0.3167 -0.1755
 7551W        W11602   7.155   9.912   2.213 -0.1126 -0.1570  0.0945
 7552W        W11603   2.120   7.234   1.498  0.3231  0.2159 -0.1271
 7553W        W11604   3.564   2.477  12.045 -0.1602 -0.6146  0.3005
 7554W        W11605   8.397   3.257  10.014  0.3575  0.1417 -0.1424
 7555W        W11606   1.475   6.474   3.197 -0.0392  0.3238  0.1011
 7556W        W11607   9.068   2.511  11.646 -0.1867  0.1037 -0.1833
 7557W        W11608   2.446   1.320   9.942 -0.0134 -0.0002 -0.1869
 7558W        W11609   4.636   4.617   0.884  0.3819  0.0447 -0.2222
 7559W        W11610   8.164   9.324   3.570 -0.1562  0.0082 -0.1082
 7560W        W11611   1.774   7.336   1.183 -0.3484  0.2735  0.0115
 7561W        W11612   6.606   5.918   9.480  0.0514 -0.0370 -0.1636
 7562W        W11613   2.573   5.053   9.432  0.2321 -0.0892  0.2582
 7563W        W11614   8.291   8.231   9.930  0.1435 -0.0220  0.0669
 7564W        W11615   8.931   8.748   9.504  0.0669  0.2722  0.2532
 7565W        W11616   2.910   2.828   5.115 -0.3805  0.1410  0.2357
 7566W        W11617   8.094   7.722   0.572  0.1376  0.1929 -0.0040
 7567W        W11618   3.648   8.894   8.893 -0.2156 -0.1373 -0.0824
 7568W        W11619   4.518   1.159  12.048  0.2103  0.2297  0.2508
 7569W        W11620   6.089   2.437   3.502  0.2661  0.1141 -0.0383
 7570W        W11621   3.409   2.398   9.689 -0.0270  0.0706  0.1589
 7571W        W11622   5.188   8.445  10.168 -0.0810 -0.5112 -0.0311
 7572W        W11623   4.216   6.769   3.041  0.0319 -0.0325  0.1087
 7573W        W11624   7.955   0.510   0.724 -0.0089 -0.0726  0.3644
 7574W        W11625   2.472   4.271   0.845 -0.0345  0.1228 -0.2332
 7575W        W11626   7.561   6.672   1.053 -0.1422  0.0556 -0.1621
 7576W        W11627   1.565   7.215  12.632  0.0675 -0.0430  0.1510
 7577W        W11628   0.679   3.337   9.464  0.1681 -0.1667 -0.1277
 7578W        W11629   3.452   6.817  10.952 -0.1035  0.0973 -0.3236
 7579W        W11630   1.806   2.407   0.030 -0.1813 -0.1985 -0.0760
 7580W        W11631   2.620   7.257   9.811  0.3314 -0.1520  0.0109
 7581W        W11632   8.003   4.588  13.520 -0.3104 -0.0480 -0.1475
 7582W        W11633   7.636   6.493  13.791  0.1925 -0.0085  0.1767
 7583W        W11634   9.248   4.045   0.103  0.3343  0.0982  0.1307
 7584W        W11635   5.435   7.116   3.051 -0.2955  0.1087  0.1657
 7585W        W11636   0.311   3.146  10.387 -0.2022 -0.1403  0.0165
 7586W        W11637   9.925   6.922   1.446 -0.1093 -0.3807 -0.1407
 7587W        W11638   2.916   3.256   1.986 -0.2196  0.0553 -0.1397
 7588W        W11639   6.969   2.426   0.714 -0.0624 -0.2442  0.1813
 7589W        W11640  10.098   0.595  11.297 -0.0156  0.1543 -0.1903
 7590W        W11641   1.878   0.877  11.019  0.0595 -0.1961  0.1402
 7591W        W11642   0.147   3.175  11.553  0.1253  0.2548  0.2106
 7592W        W11643   7.656   8.359   4.476 -0.0642 -0.1755  0.0441
 7593W        W11644   3.474   5.903  13.412  0.3391  0.1372  0.0337
 7594W        W11645   3.179  10.088   2.432  0.5399  0.5222 -0.0853
 7595W        W11646   7.156   5.728   3.385  0.1720  0.2038  0.2846
 7596W        W11647   8.612   1.930  13.223  0.2375 -0.0941 -0.0413
 7597W        W11648   9.909   3.055  11.177 -0.0262 -0.0373 -0.0113
 7598W        W11649   4.505   8.689  10.927 -0.1220  0.0476 -0.2201
 7599W        W11650   1.160   8.928   2.327 -0.1310  0.1618  0.0076
 7600W        W11651   6.156   2.566   2.461 -0.0986 -0.2580 -0.0144
 7601W        W11652   8.221   0.222   9.993  0.3913 -0.1693  0.2513
 7602W        W11653   3.892   6.167   0.295  0.0285  0.0094 -0.1439
 7603W        W11654   4.820   9.299   4.231  0.0429 -0.4246  0.3912
 7604W        W11655   2.644   6.545   1.178 -0.1534  0.0912 -0.4693
 7605W        W11656   1.470   6.692  11.359 -0.0248 -0.0414 -0.0037
 7606W        W11657   5.824   5.641  12.001 -0.0431  0.0250 -0.0135
 7607W        W11658   0.687   0.252  11.918  0.3763 -0.3140 -0.1086
 7608W        W11659   6.444   1.305  12.461  0.2270  0.1297 -0.0036
 7609W        W11660   5.098   1.575  10.996  0.2223  0.1985 -0.1672
 7610W        W11661   9.725   2.008  10.378 -0.0205  0.1815 -0.3813
 7611W        W11662   2.103   1.365  10.766  0.0398 -0.0709 -0.1416
 7612W        W11663   0.253   1.513  13.188 -0.4459  0.2274  0.1829
 7613W        W11664   6.056   7.861   4.444 -0.2983 -0.0224 -0.1825
 7614W        W11665   7.048   1.535  11.394  0.1640  0.2485 -0.0168
 7615W        W11666   9.168   4.932   3.182  0.0505 -0.1903  0.0762
 7616W        W11667   3.264   8.063   3.917 -0.2675  0.1401 -0.2081
 7617W        W11668   7.531   6.443  10.538 -0.3325  0.0081  0.0668
 7618W        W11669   4.036   9.466  10.788 -0.1025  0.1946  0.1928
 7619W        W11670   0.571   2.725   8.567  0.1417 -0.1182  0.2195
 7620W        W11671   0.090   6.262   4.314  0.0382  0.0186 -0.3229
 7621W        W11672   4.940   8.437  10.907 -0.0625  0.0265  0.3029
 7622W        W11673   7.871   8.428  11.075 -0.0117 -0.0107 -0.2798
 7623W        W11674   5.581   4.140  11.330 -0.1128 -0.0553  0.1144
 7624W        W11675   9.486   0.876   3.463  0.0678 -0.0838 -0.1277
 7625W        W11676   3.767   5.605   4.745  0.0956 -0.0768  0.2230
 7626W        W11677   0.001   9.061  11.676  0.2244 -0.2632 -0.3276
 7627W        W11678   6.148   8.946   1.675  0.2383 -0.1008  0.1493
 7628W        W11679   6.939   9.016   2.253 -0.3153  0.3106  0.1712
 7629W        W11680   5.443   7.600  10.211 -0.0423 -0.0240 -0.0376
 7630W        W11681   7.139   3.652  13.637 -0.1591 -0.2765  0.0527
 7631W        W11682   3.039   7.868  11.875 -0.2294  0.0417  0.0275
 7632W        W11683   9.804   7.157   4.482 -0.1347  0.2338 -0.1449
 7633W        W11684   0.040   0.531   8.447  0.0822 -0.0804  0.1150
 7634W        W11685   1.820   8.108   3.731  0.2388  0.2571 -0.1838
 7635W        W11686   6.382   1.874   1.576  0.1125 -0.0430  0.0427
 7636W        W11687   1.987   6.435  10.718  0.1817  0.1902 -0.1860
 7637W        W11688   3.280   2.259  12.811 -0.0279  0.0793  0.0631
 7638W        W11689   9.683   0.700  10.468  0.0543  0.0376  0.2362
 7639W        W11690   7.582   3.021   1.166 -0.2602  0.0878 -0.0135
 7640W        W11691   2.872   0.726   2.950 -0.1402  0.0486 -0.0195
 7641W        W11692   7.362   8.106  13.802  0.2058 -0.1101 -0.1210
 7642W        W11693   4.570   6.803  10.581 -0.2439 -0.0645  0.3914
 7643W        W11694   0.733   4.936   9.827 -0.0151  0.2217 -0.3227
 7644W        W11695   0.562   1.522  12.689  0.1364 -0.2279  0.1567
 7645W        W11696   4.879   4.746  10.950  0.1126  0.0467 -0.1678
 7646W        W11697   4.085   9.663   0.058 -0.2286  0.1088  0.1655
 7647W        W11698   7.392   0.561   2.491  0.3253  0.0210  0.1199
 7648W        W11699   6.849   1.940   2.301  0.0477 -0.0930  0.0896
 7649W        W11700   1.747   8.987  10.597  0.0223  0.0421 -0.3610
 7650W        W11701   0.520   8.480  11.096 -0.0293  0.3908 -0.2891
 7651W        W11702   0.095   5.562  10.046  0.0800  0.1141 -0.0148
 7652W        W11703   7.565   5.823  13.537  0.0895  0.0691  0.1245
 7653W        W11704   4.647   3.456   9.882  0.4919 -0.0514  0.0282
 7654W        W11705   8.440   9.198  13.719  0.1745 -0.0152  0.0294
 7655W        W11706   6.641   5.852  12.936 -0.2377  0.1941  0.1561
 7656W        W11707   8.046   9.496   2.017  0.0390 -0.2309  0.2287
 7657W        W11708   7.164   9.088  13.129 -0.1018 -0.1023 -0.1758
 7658W        W11709   7.892  10.144  13.278 -0.0782 -0.0672  0.0428
 7659W        W11710   5.108   6.670   2.461  0.0257  0.0160  0.0662
 7660W        W11711   8.831   5.028   9.419  0.1788  0.1963 -0.1243
 7661W        W11712   1.893   3.518  12.540 -0.0473 -0.3065  0.0566
 7662W        W11713   1.621   3.691  10.451  0.1543  0.3509  0.0445
 7663W        W11714   2.719   9.506  10.285  0.0356  0.3173  0.3850
 7664W        W11715   2.390  10.130  10.597  0.1632  0.1120  0.0507
 7665W        W11716   1.274   4.299  11.680 -0.0029 -0.0859 -0.2548
 7666W        W11717   9.054   6.646  13.896  0.1629  0.2577  0.0713
 7667W        W11718   5.316   2.856  10.394 -0.1391  0.1199  0.3474
 7668W        W11719   5.270   5.929   5.277 -0.0307 -0.0863  0.1683
 7669W        W11720   1.954   2.681   3.288  0.2010  0.2453  0.3927
 7670W        W11721   1.726   3.088  12.290  0.0817  0.1681 -0.0884
 7671W        W11722   6.182   5.714  12.442  0.1055 -0.0404  0.4235
 7672W        W11723   0.089   5.487   2.535  0.0324 -0.0886  0.2288
 7673W        W11724   9.452   6.802   1.557 -0.0749 -0.2146  0.0054
 7674W        W11725   4.230   6.951   4.090 -0.4285  0.1313  0.4212
 7675W        W11726   8.578  10.086  10.239 -0.0721  0.0626  0.1761
 7676W        W11727   9.615   9.814  10.080  0.2174 -0.0320 -0.4521
 7677W        W11728   6.264   5.911   9.884 -0.1926 -0.0719  0.0144
 7678W        W11729   2.459   5.362   5.246 -0.2582 -0.1116  0.1432
 7679W        W11730   9.297   7.586  12.985 -0.0977 -0.3021 -0.1350
 7680W        W11731   3.209   4.404  12.432 -0.0700 -0.2703  0.2753
 7681W        W11732   4.455   9.904   0.865 -0.0102 -0.0645  0.3901
 7682W        W11733   4.440   0.602   3.738  0.1360 -0.1483 -0.0921
 7683W        W11734   0.274   9.514  10.520 -0.0068 -0.3490 -0.4354
 7684W        W11735   1.218   5.520  13.160 -0.1262 -0.0798 -0.1165
 7685W        W11736   2.404   2.660   0.236  0.4867  0.1562  0.1318
 7686W        W11737   1.496   4.896  12.478 -0.0261 -0.0951 -0.1343
 7687W        W11738   1.569   8.787   9.524  0.1373 -0.1062 -0.3263
 7688W        W11739   1.855   5.306  11.526  0.1297 -0.3167 -0.0933
 7689W        W11740   2.441   5.307   4.374 -0.1315  0.0602  0.1532
 7690W        W11741   0.888   1.827   2.729  0.1722 -0.0254 -0.2684
 7691W        W11742   6.377   2.792  13.046  0.1562  0.0154  0.2334
 7692W        W11743   1.309   8.482   9.874 -0.2181  0.0694  0.5371
 7693W        W11744   4.451   9.473   3.911 -0.4581  0.2835 -0.1364
 7694W        W11745   5.324   3.245  11.805 -0.1368  0.0542  0.0527
 7695W        W11746   2.826   2.564   0.525 -0.0370 -0.2592 -0.1199
 7696W        W11747   3.009   6.500   2.701  0.1618  0.0602 -0.2036
 7697W        W11748   0.889  10.024  12.183  0.1060  0.2648  0.1016
 7698W        W11749   7.906   5.670   2.264  0.2118 -0.3155 -0.5658
 7699W        W11750   9.331   5.170  10.668  0.2179  0.1907 -0.1143
 7700W        W11751   5.039   6.935  12.083  0.0021  0.1177 -0.2364
 7701W        W11752   6.010   0.767  11.170 -0.2302 -0.1409  0.1646
 7702W        W11753   3.631   7.278   1.724 -0.0619 -0.2079  0.1761
 7703W        W11754   4.697   2.455  13.908  0.3168 -0.2751 -0.1316
 7704W        W11755   3.402   2.530  13.847  0.2108  0.0274  0.0488
 7705W        W11756   3.915   5.018   0.411 -0.1471 -0.1267  0.0628
 7706W        W11757   2.071   0.672   1.970 -0.0895 -0.0596  0.4354
 7707W        W11758   6.346   9.447  10.609  0.0147 -0.0104 -0.1499
 7708W        W11759   3.678   8.596  12.071  0.2222 -0.1929 -0.2120
 7709W        W11760   9.435   6.023  10.106  0.1109 -0.0670 -0.1456
 7710W        W11761   8.846   8.536  12.638 -0.1299 -0.0327  0.1090
 7711W        W11762   1.857   9.987   3.761 -0.1681  0.1338 -0.0281
 7712W        W11763   0.507   4.682   4.218  0.1648  0.3082  0.0737
 7713W        W11764   8.340   6.010  13.494  0.0008 -0.1767  0.0628
 7714W        W11765   2.375   8.730  12.940 -0.3102  0.4026 -0.2992
 7715W        W11766   9.125   5.008  13.082 -0.4790 -0.4399  0.0988
 7716W        W11767   0.372   7.039   0.746  0.4279  0.2605  0.0627
 7717W        W11768   6.824   8.419  11.112  0.1464  0.1412  0.2779
 7718W        W11769  10.131   2.301  10.328 -0.2178 -0.1894 -0.3005
 7719W        W11770   9.405   0.550   1.865 -0.1768 -0.2731 -0.0443
 7720W        W11771   8.492   2.177  11.372  0.0917 -0.2095 -0.0561
 7721W        W11772   9.998   0.689  11.832 -0.0729  0.0195 -0.1091
 7722W        W11773   7.595   5.884  13.034  0.1568  0.1703  0.1688
 7723W        W11774   1.058   8.994   9.202 -0.1256  0.0863 -0.1247
 7724W        W11775   5.333   8.928  12.446 -0.4132  0.1773  0.1275
 7725W        W11776   4.665   8.263  14.011  0.0440  0.0648  0.0130
 7726W        W11777   6.107   9.771   1.155 -0.2416 -0.2573  0.0321
 7727W        W11778   0.441   9.449  11.465 -0.1329  0.0412  0.0840
 7728W        W11779   9.706   7.888  10.334  0.1390  0.2359  0.3752
 7729W        W11780   5.159   7.648   1.882 -0.1910 -0.0757 -0.0413
 7730W        W11781   3.959   8.417  12.653  0.1745 -0.0815  0.3288
 7731W        W11782   6.168   2.561  10.756  0.0972  0.1506 -0.1308
 7732W        W11783   3.521   5.489   3.436 -0.0167  0.1943 -0.0501
 7733W        W11784   7.957   9.244   9.954  0.1197 -0.0117  0.3846
 7734W        W11785   4.762   4.705  12.112  0.0776 -0.1886 -0.0364
 7735W        W11786   6.233   5.093   0.374 -0.6832  0.0742 -0.0891
 7736W        W11787   8.514   3.314  11.890  0.0688 -0.0245  0.0991
 7737W        W11788   7.934   1.630  10.920 -0.1811  0.1826  0.2986
 7738W        W11789   6.726   8.968  12.900  0.2461  0.1829 -0.1325
 7739W        W11790   9.748   5.519   3.623 -0.2773 -0.2278 -0.3781
 7740W        W11791   2.669   0.680  13.864  0.0349  0.0179  0.0179
 7741W        W11792   1.369   3.632  10.007 -0.1218  0.2980  0.1868
 7742W        W11793   9.370   5.444   3.192 -0.0297  0.0486  0.0437
 7743W        W11794   5.536   8.786  11.617  0.0044 -0.1612  0.1272
 7744W        W11795   6.888   3.387  10.165  0.0583  0.0162 -0.1851
 7745W        W11796   6.254   5.115  10.007 -0.2057 -0.0886  0.1434
 7746W        W11797   6.265   4.507   4.131 -0.0838  0.0843 -0.0530
 7747W        W11798   9.212   7.949   0.365 -0.2306  0.3315 -0.2760
 7748W        W11799   6.733   0.609   0.675 -0.0236 -0.0515  0.1383
 7749W        W11800   2.368   8.697   4.035 -0.1967  0.0633 -0.1119
 7750W        W11801  10.090   7.862   0.723  0.0309  0.0952  0.0878
 7751W        W11802   7.324   5.180  12.729  0.3424 -0.0671 -0.1544
 7752W        W11803   7.510  10.069  13.629 -0.0140 -0.3546  0.0923
 7753W        W11804   7.727   1.954   0.362 -0.1085 -0.1313 -0.0460
 7754W        W11805   5.546   9.692   1.918 -0.1039 -0.3075 -0.1727
 7755W        W11806   0.589   1.155   1.332  0.0579 -0.1000  0.0307
 7756W        W11807   2.912   7.817   4.180  0.1472  0.3847 -0.2039
 7757W        W11808   1.559   0.137   2.490  0.5062  0.2444 -0.1536
 7758W        W11809   0.581   9.954   3.358 -0.0663 -0.3539 -0.0221
 7759W        W11810   6.511   6.826   2.254  0.1228  0.0198  0.0922
 7760W        W11811   4.346   8.934   0.521  0.0014  0.1367 -0.0614
 7761W        W11812   3.516   9.298  10.554  0.0879 -0.0098 -0.1378
 7762W        W11813   6.012   7.786   1.745 -0.0607  0.0646 -0.0529
 7763W        W11814   4.775   5.932  10.904  0.1991  0.0944 -0.2612
 7764W        W11815   6.451   9.814  11.938  0.2751  0.0196  0.2684
 7765W        W11816  10.142   0.625   0.323 -0.3051  0.3590 -0.1377
 7766W        W11817   8.947   8.553  11.039 -0.1139 -0.0819 -0.2463
 7767W        W11818   1.970   3.103   2.461  0.1027  0.1052 -0.0472
 7768W        W11819   5.828   9.198  12.993 -0.0237 -0.1000  0.1739
 7769W        W11820  10.064   4.726   5.497 -0.0046  0.1097 -0.0793
 7770W        W11821   7.891   8.648  10.120  0.0834  0.0840  0.1768
 7771W        W11822   2.839   0.993  13.398  0.0199  0.1087 -0.1095
 7772W        W11823   3.738   0.461   2.773 -0.0550 -0.0435 -0.2934
 7773W        W11824   8.432   9.768  13.838  0.0164 -0.2505 -0.0556
 7774W        W11825   8.498   9.197  13.240  0.2764  0.5851 -0.2517
 7775W        W11826   1.212   6.659   2.754  0.2394  0.0282 -0.0728
 7776W        W11827   0.161   7.709   3.466 -0.0490 -0.2001 -0.4263
 7777W        W11828   5.782   2.067  12.663 -0.3983  0.0417 -0.1698
 7778W        W11829   8.324   9.519   1.197 -0.3035 -0.0824 -0.0145
 7779W        W11830   0.724   3.217   0.560  0.2903 -0.1739  0.1524
 7780W        W11831   0.718   5.475   0.056  0.0438  0.0062 -0.2858
 7781W        W11832   0.058   0.836  13.940  0.0554 -0.1017 -0.0711
 7782W        W11833   0.183   1.542  11.306 -0.0392  0.0217 -0.3208
 7783W        W11834   6.185   5.298   3.469 -0.0980 -0.0530  0.0977
 7784W        W11835   2.990   1.909  11.995  0.0033 -0.3763 -0.3238
 7785W        W11836   6.953   8.680   0.881  0.1481  0.0572 -0.1450
 7786W        W11837   8.876   2.421  10.139  0.0202 -0.0989 -0.1130
 7787W        W11838   9.687   2.806   2.022  0.0203  0.1623 -0.1961
 7788W        W11839   7.101   8.598  12.940 -0.0922  0.0636  0.1991
 7789W        W11840   3.818   8.096   9.600 -0.0224 -0.1771 -0.2635
 7790W        W11841   7.604   6.595  11.240 -0.0476  0.0552 -0.0009
 7791W        W11842   8.158   1.961   2.256  0.1202  0.1020 -0.2751
 7792W        W11843   4.362   7.232  14.079 -0.0591  0.0137  0.4738
 7793W        W11844   2.940   9.101  11.169 -0.1011  0.0713  0.1014
 7794W        W11845   9.539   7.643  11.601  0.2169  0.0557  0.1819
 7795W        W11846   2.913   3.808  10.542  0.0969 -0.0462 -0.3759
 7796W        W11847   6.314   8.515  11.359 -0.1554 -0.0219  0.0378
 7797W        W11848   4.971   1.935   3.745  0.3534 -0.0522 -0.1062
 7798W        W11849   6.349   0.485   1.562 -0.2874 -0.0460 -0.3991
 7799W        W11850   8.003   6.004  13.819 -0.0316 -0.2606 -0.3731
 7800W        W11851   8.871   9.074  12.178 -0.0876 -0.0888 -0.0376
 7801W        W11852   7.898   7.917  12.256 -0.5136  0.0437 -0.1059
 7802W        W11853   1.780   9.763   4.757  0.1145 -0.2973  0.2174
 7803W        W11854   6.225   4.407  13.748  0.2592 -0.1017 -0.1774
 7804W        W11855   2.841   9.412   2.752 -0.1523  0.0810  0.4175
 7805W        W11856   3.554   9.850   4.656 -0.2585 -0.2176 -0.0198
 7806W        W11857   9.285  10.012   8.802  0.0741  0.2409 -0.4454
 7807W        W11858   7.925   8.948   2.168  0.0250  0.0867  0.1408
 7808W        W11859   1.040   5.311   0.883  0.1642 -0.2492  0.0384
 7809W        W11860   7.468   6.398   2.425 -0.0242  0.0786  0.1822
 7810W        W11861   6.596   2.844   3.351  0.2636  0.1218  0.3601
 7811W        W11862   7.277   2.856   1.892  0.2365 -0.0755 -0.0699
 7812W        W11863   9.313   9.947   0.573  0.2079 -0.1313  0.0510
 7813W        W11864   1.594   0.549  13.913  0.0406  0.0861  0.0283
 7814W        W11865   6.694   1.317  13.402 -0.1310 -0.1709 -0.0617
 7815W        W11866   5.592   2.934   0.241  0.0993 -0.2170 -0.3132
 7816W        W11867   4.843  10.037   3.011 -0.1546 -0.0863  0.0392
 7817W        W11868   4.295   6.240   2.260  0.2566 -0.1225 -0.3545
 7818W        W11869   4.625   8.679  12.288 -0.0186  0.1619  0.2474
 7819W        W11870   5.365   6.322  12.886  0.0948 -0.1327  0.0211
 7820W        W11871   7.914   6.424   9.592 -0.1435  0.1982  0.0488
 7821W        W11872   1.024   1.588   9.565 -0.1217 -0.3651  0.0370
 7822W        W11873   3.684   0.852   3.301 -0.3108  0.0083 -0.0916
 7823W        W11874   3.794   6.664   3.858  0.1101  0.2501  0.0719
 7824W        W11875   3.503  10.035   1.050  0.0067 -0.3197 -0.2253
 7825W        W11876   7.628   0.435  13.669 -0.2134  0.2216  0.1115
 7826W        W11877   0.617   7.145  12.233  0.0138 -0.2400 -0.3269
 7827W        W11878   6.740   0.256   2.868 -0.2314 -0.0914 -0.0304
 7828W        W11879   6.906   6.292   1.605 -0.1491  0.0362  0.0145
 7829W        W11880   5.395   6.694  13.695  0.1266 -0.1712  0.1963
 7830W        W11881   1.174   2.051   0.524  0.2253 -0.2892 -0.1449
 7831W        W11882   0.114   2.811   3.130 -0.3656  0.0440  0.1846
 7832W        W11883   7.875   8.470   2.340  0.2892 -0.0391 -0.1826
 7833W        W11884   7.455   8.090  10.937 -0.0296  0.1816  0.1198
 7834W        W11885   9.984   6.256  10.694  0.1366 -0.4108  0.0991
 7835W        W11886   1.924   3.916   9.130  0.1519  0.2940  0.1958
 7836W        W11887   9.849   5.493   3.005 -0.0367 -0.0804  0.0913
 7837W        W11888   7.286   8.265   4.045 -0.3302  0.0302 -0.1761
 7838W        W11889   9.413   4.413   2.429 -0.0889  0.2957  0.1940
 7839W        W11890   2.909   3.884  12.964  0.1811 -0.1854  0.0164
 7840W        W11891   6.753   2.406   0.200 -0.0823 -0.1336 -0.1496
 7841W        W11892   1.315   2.488   2.355  0.2033  0.2737 -0.1662
 7842W        W11893   2.805   4.027   1.847 -0.0012  0.0303  0.1071
 7843W        W11894   3.400  10.067   2.890  0.1284 -0.0702  0.3190
 7844W        W11895   7.394   7.463  11.924  0.0011  0.1064  0.2819
 7845W        W11896   8.890   8.858  10.139 -0.0447 -0.0560 -0.0396
 7846W        W11897   7.791   4.653   0.285 -0.1505 -0.3822  0.2208
 7847W        W11898   8.220   2.581  11.356 -0.0627 -0.3508  0.2032
 7848W        W11899   2.639   2.368  12.648  0.2414 -0.3394  0.1340
 7849W        W11900  10.059   7.418   4.850  0.1213 -0.1017  0.0189
 7850W        W11901   8.027   5.644  12.676  0.1475  0.0426 -0.0793
 7851W        W11902   2.703   4.127   9.569 -0.0333 -0.0578 -0.4951
 7852W        W11903   8.993   7.910   4.218 -0.1091 -0.0105  0.1930
 7853W        W11904   4.577   3.472   0.813 -0.1067  0.0723  0.0354
 7854W        W11905   0.676   9.348   9.051  0.0135  0.1788 -0.2231
 7855W        W11906   8.007   9.755  12.942 -0.0686 -0.0932 -0.0773
 7856W        W11907   1.978   6.269   9.568 -0.1432  0.0051  0.0974
 7857W        W11908   4.011   2.652   0.820  0.1359  0.0629 -0.0829
 7858W        W11909   9.355   6.708   9.491  0.0146  0.0513  0.1670
 7859W        W11910   3.830   0.748  10.774  0.0164 -0.4077  0.2096
 7860W        W11911   2.854   1.125   9.711 -0.0092 -0.1866  0.5044
 7861W        W11912   1.268   4.884   3.770 -0.3180 -0.0039 -0.0241
 7862W        W11913   9.031   8.634   5.637 -0.1826 -0.0547 -0.1288
 7863W        W11914   9.746   4.544  11.366 -0.1496  0.0493 -0.1444
 7864W        W11915   3.054   5.295   3.170  0.0663  0.2333 -0.0775
 7865W        W11916   3.299   4.328   4.631  0.0425 -0.0839 -0.0990
 7866W        W11917   7.365   3.931   0.261  0.0471 -0.0925 -0.1249
 7867W        W11918   4.759   9.702  12.183  0.4544  0.0527  0.0452
 7868W        W11919   1.968   7.727   4.066 -0.2521 -0.0343  0.1053
 7869W        W11920   3.296   1.732  10.557 -0.0756 -0.1351  0.2412
 7870W        W11921   4.962   6.365  11.253 -0.0726  0.3830 -0.2897
 7871W        W11922   3.444   4.126  11.843 -0.0766 -0.1004 -0.2442
 7872W        W11923   7.741   9.476  13.895 -0.1755  0.4695 -0.0998
 7873W        W11924   2.959   5.333  11.696  0.3059  0.2430  0.1953
 7874W        W11925   2.995   9.290   3.838  0.1093  0.2235 -0.0528
 7875W        W11926   3.265   5.587   4.634  0.1293 -0.3420 -0.2723
 7876W        W11927   0.609   4.172  13.795 -0.0525 -0.2706  0.1303
 7877W        W11928   6.723   8.950  10.022 -0.2173  0.3237 -0.2530
 7878W        W11929   5.780   2.661  11.479  0.0310 -0.0243 -0.1824
 7879W        W11930   5.900   1.236  13.932  0.0233  0.1947  0.1982
 7880W        W11931   1.566   7.148   2.340  0.3399 -0.2684 -0.1364
 7881W        W11932   4.057   1.385  12.751  0.3313  0.1012 -0.0121
 7882W        W11933   6.462   2.294   2.045  0.0224  0.0772 -0.0266
 7883W        W11934   2.153   2.200   2.406  0.1662 -0.0903  0.0454
 7884W        W11935   2.571   8.999   3.583 -0.1909 -0.1306  0.1077
 7885W        W11936   3.919   2.131   1.045  0.0015  0.0170 -0.3805
 7886W        W11937   9.020   4.360   1.694 -0.0395  0.2547 -0.1382
 7887W        W11938   1.120   5.137   9.090 -0.0102  0.0834 -0.1658
 7888W        W11939   9.801   0.500   0.727 -0.1383  0.2107 -0.1367
 7889W        W11940   0.450   7.557  10.156 -0.1101 -0.6175 -0.0695
 7890W        W11941   7.191   1.299  13.584 -0.2433  0.0601 -0.0070
 7891W        W11942   9.157   6.147  11.982 -0.0398 -0.1159 -0.0216
 7892W        W11943   3.088   3.345  12.065  0.1587 -0.0432  0.3116
 7893W        W11944   8.296   2.905  10.961 -0.1300 -0.3039 -0.3046
 7894W        W11945   3.330   4.856  11.713 -0.0477 -0.2904 -0.0138
 7895W        W11946   6.094   1.985   2.929 -0.2228  0.0458 -0.2079
 7896W        W11947   3.213   7.259   3.311  0.1516  0.1212  0.0841
 7897W        W11948   7.393   0.750  11.593 -0.3644 -0.1381 -0.1085
 7898W        W11949   6.934   9.448  10.711 -0.2209 -0.1738 -0.0621
 7899W        W11950   8.799   9.572  10.041  0.0543 -0.1216  0.0169
 7900W        W11951   1.231   3.990   8.414 -0.1632  0.1007  0.1294
 7901W        W11952   4.509   7.266  10.115  0.3493  0.1787  0.1142
 7902W        W11953   1.349   7.530  11.522  0.1821  0.2845  0.0365
 7903W        W11954   4.226   9.923   1.900  0.0246 -0.1627 -0.1444
 7904W        W11955   2.241   2.328   4.535  0.3826 -0.1051  0.0214
 7905W        W11956   5.438   0.340  12.672  0.0568 -0.2368  0.1363
 7906W        W11957   2.751   2.206   4.518 -0.0994 -0.2240 -0.0663
 7907W        W11958   9.018   4.402   3.212  0.1314  0.1244  0.0471
 7908W        W11959   2.770   2.025  10.346 -0.0217  0.0046  0.0394
 7909W        W11960   7.139   9.423   5.136 -0.1247 -0.2730 -0.2188
 7910W        W11961   9.141   2.506  10.641  0.2439  0.1337 -0.2554
 7911W        W11962   6.555   4.935  11.367 -0.0417  0.1772  0.1188
 7912W        W11963   3.197   4.082  13.804 -0.0208  0.2201  0.4663
 7913W        W11964   4.633   2.955  11.253 -0.3702 -0.0704 -0.3930
 7914W        W11965   5.060   8.561   8.983 -0.0856 -0.3175 -0.0561
 7915W        W11966   3.111   3.844   1.440 -0.1390  0.0678 -0.0346
 7916W        W11967   4.627   3.503   3.676 -0.0752 -0.2810 -0.4394
 7917W        W11968   1.310   2.455   0.244 -0.0870  0.2301  0.1327
 7918W        W11969   8.897   6.719   2.571  0.1201 -0.3537  0.0724
 7919W        W11970   6.661   8.398  13.077  0.0163  0.2274  0.0802
 7920W        W11971   5.622   7.008   9.672 -0.0788  0.1236  0.2489
 7921W        W11972   8.501   0.604   0.709  0.1866  0.0664  0.1005
 7922W        W11973   9.105   7.545  11.883  0.1722  0.1699 -0.0198
 7923W        W11974   1.766   2.268  10.489 -0.0271  0.3067 -0.0875
 7924W        W11975   9.404   3.746   3.855  0.1722  0.0754 -0.0810
 7925W        W11976   9.047   3.623   9.650  0.1557  0.1081 -0.1930
 7926W        W11977   3.396   2.234   3.068 -0.0459 -0.0152 -0.0325
 7927W        W11978   4.862   2.458   0.338  0.1461 -0.0759  0.1237
 7928W        W11979   5.629   6.344   5.391 -0.0582  0.0039 -0.1656
 7929W        W11980   5.888   4.193  12.634 -0.2727 -0.0955 -0.0128
 7930W        W11981   9.544   9.112  11.544  0.0126 -0.0487 -0.0046
 7931W        W11982   6.034   8.243   2.890 -0.1577  0.1839  0.1327
 7932W        W11983   3.149   0.750   0.099 -0.2345  0.0161  0.0201
 7933W        W11984   2.556   9.402   4.165 -0.0365  0.2863 -0.0110
 7934W        W11985   9.994   2.817  11.701 -0.0862 -0.2285 -0.5389
 7935W        W11986   0.706   1.745   0.423  0.1493  0.4426  0.0648
 7936W        W11987   5.274   9.247   2.874  0.0466 -0.1276  0.1059
 7937W        W11988   8.559   6.864   0.685  0.1833  0.1902  0.2825
 7938W        W11989   1.911   6.794   4.046 -0.3913  0.0570 -0.0533
 7939W        W11990   0.991   5.180  13.423  0.0869  0.0871  0.0579
 7940W        W11991   8.494   8.408  11.143 -0.1159  0.0045 -0.0431
 7941W        W11992   5.223   2.881   2.106 -0.0316  0.3321  0.0352
 7942W        W11993   8.746   4.784  11.588  0.0042 -0.1046  0.1057
 7943W        W11994   4.220   2.585  13.850  0.0735 -0.1876 -0.2046
 7944W        W11995   2.615   6.241  12.336 -0.0080 -0.1145 -0.1224
 7945W        W11996   4.915   9.192   9.646  0.3561 -0.2457 -0.1194
 7946W        W11997   6.013   9.933   3.204 -0.0805 -0.2549 -0.1766
 7947W        W11998   8.113   2.572  10.587 -0.1030  0.0848 -0.3489
 7948W        W11999   2.475   7.154   2.467 -0.0318  0.1201  0.2570
 7949W        W12000   2.423   0.844  10.903  0.0581 -0.2026 -0.3757
 7950W        W12001   0.229   5.566  13.828  0.2343  0.1559 -0.0823
 7951W        W12002   0.631   7.582   8.423 -0.0368 -0.2129  0.2528
 7952W        W12003   8.139   7.527  13.999  0.0775  0.1178 -0.1715
 7953W        W12004   9.613   7.656   2.802  0.1210 -0.4591 -0.1289
 7954W        W12005   2.647   0.707   5.123 -0.0176  0.1115  0.0121
 7955W        W12006   7.660   9.476   5.296  0.0088 -0.1221 -0.0609
 7956W        W12007   7.409   7.615   3.379 -0.3261 -0.2259 -0.0041
 7957W        W12008   1.840   8.259   1.189 -0.2180 -0.1151  0.1078
 7958W        W12009   5.227   5.947   2.109  0.0876  0.0495 -0.0064
 7959W        W12010   1.739   7.718   2.537  0.0337 -0.3458 -0.0814
 7960W        W12011   0.833   4.618  13.623  0.3764  0.3682 -0.1444
 7961W        W12012   3.230   5.758  12.021  0.0800  0.2641 -0.0966
 7962W        W12013   6.841   8.081  10.368 -0.3862 -0.1167 -0.1990
 7963W        W12014   1.201   4.284   2.012 -0.1691 -0.0454 -0.1501
 7964W        W12015   4.711  10.059  12.628 -0.3418 -0.1258  0.0696
 7965W        W12016   9.694   5.005   3.817  0.2381 -0.2100  0.0759
 7966W        W12017   4.587   6.263  13.478 -0.0092 -0.0343 -0.0994
 7967W        W12018   1.059   9.539   3.916 -0.1455 -0.2984 -0.0771
 7968W        W12019   2.118   6.368  11.311 -0.0181 -0.0518 -0.0831
 7969W        W12020   5.784   8.785   0.618  0.1201 -0.1508 -0.0877
 7970W        W12021   8.188   0.490  10.733  0.0777 -0.1018 -0.0741
 7971W        W12022   2.569   3.376  10.261  0.0909  0.2710 -0.0514
 7972W        W12023   0.701   4.170   4.242 -0.2696  0.0556 -0.0856
 7973W        W12024   9.203   6.919   5.156  0.1892  0.1383  0.3785
 7974W        W12025   4.318   3.146  13.200 -0.3175 -0.0819  0.2582
 7975W        W12026   9.721   7.777   0.310 -0.3030 -0.0153  0.1661
 7976W        W12027   3.120   8.596  11.386  0.0666  0.2400  0.1281
 7977W        W12028   4.268   6.556   4.792 -0.0256 -0.0678 -0.1667
 7978W        W12029   6.945   9.160  11.909 -0.2227 -0.0757 -0.1631
 7979W        W12030   2.967   0.971   3.498  0.1043  0.0649  0.0935
 7980W        W12031   7.832   8.378   9.692  0.2337 -0.2257 -0.0958
 7981W        W12032   8.351   6.227   0.078 -0.1258  0.0946 -0.0464
 7982W        W12033   9.095   2.323   3.627 -0.0963 -0.2731 -0.0910
 7983W        W12034   2.030   5.409   3.693 -0.0711 -0.1359 -0.1556
 7984W        W12035   1.592   9.181  11.599 -0.1905 -0.2439 -0.2186
 7985W        W12036   6.137   8.896   0.944  0.2830  0.0720  0.3788
 7986W        W12037   5.913   6.840  13.739  0.2550 -0.1553 -0.1056
 7987W        W12038   5.419   7.600  13.245 -0.1929  0.0019  0.1000
 7988W        W12039   5.320   4.213  13.763  0.0598  0.0634 -0.0436
 7989W        W12040   9.092   0.362  12.295  0.1928 -0.1131 -0.3903
 7990W        W12041   0.486   6.722  13.441  0.0912  0.1094 -0.0581
 7991W        W12042   5.454   4.277  10.465 -0.2187 -0.3866  0.1273
 7992W        W12043   6.806   4.947   2.721 -0.1669 -0.2864  0.1434
 7993W        W12044   0.860   9.495   1.482  0.0537 -0.1754 -0.2910
 7994W        W12045   1.014   4.807  11.594 -0.0617 -0.0487 -0.1177
 7995W        W12046   7.869   0.938  12.828 -0.1578  0.0224 -0.0838
 7996W        W12047   0.471   8.518   2.122 -0.0765 -0.1542  0.3292
 7997W        W12048   8.872   2.006   3.315 -0.0174 -0.0415  0.1230
 7998W        W12049   5.452   1.546   2.597  0.1980  0.3330 -0.2941
 7999W        W12050   1.728   2.266   9.919  0.0670  0.0089  0.1362
 8000W        W12051   5.201   0.872  13.383  0.0073 -0.0082 -0.0947
 8001W        W12052   1.491   1.978   0.196 -0.1596  0.1060  0.2582
 8002W        W12053   4.537   7.724  13.728 -0.0446  0.1265  0.1794
 8003W        W12054   4.950   4.141   0.184 -0.0763 -0.2007 -0.1040
 8004W        W12055   5.078   0.527  10.114  0.1205  0.0854 -0.0782
 8005W        W12056   0.167   4.640   5.097 -0.0106 -0.0020  0.1005
 8006W        W12057   8.053   4.266   4.078 -0.1300  0.1884 -0.0538
 8007W        W12058   1.000   0.804   2.286 -0.2717  0.3058  0.3451
 8008W        W12059   2.615   6.468   0.142  0.0537  0.3482  0.0347
 8009W        W12060   7.732   0.338  12.814 -0.3170  0.1710 -0.3838
 8010W        W12061   8.737   7.031   5.214  0.1293 -0.2669  0.1158
 8011W        W12062   0.185   6.316  13.290  0.0668  0.3560  0.1508
 8012W        W12063   7.961   6.524  11.633  0.0592  0.2640  0.0205
 8013W        W12064   9.674   4.087   9.824 -0.0583  0.2063 -0.0345
 8014W        W12065   0.729   2.236  10.906  0.1783  0.1104  0.0389
 8015W        W12066   7.992   1.022   4.325  0.1014  0.1176 -0.2801
 8016W        W12067   7.039   2.944   0.932 -0.0785 -0.1230  0.0444
 8017W        W12068   8.380   1.882  11.896 -0.2052  0.0188  0.3062
 8018W        W12069  10.033   7.086  11.173 -0.0678  0.1768 -0.2043
 8019W        W12070   0.334   4.841  10.692 -0.1854  0.2780  0.1219
 8020W        W12071   1.255   5.402   1.341  0.0319 -0.1328  0.0372
 8021W        W12072   5.370   4.260   3.662  0.0622 -0.0140  0.1860
 8022W        W12073   8.587   0.821   5.020 -0.0583 -0.1272  0.0106
 8023W        W12074   8.634   6.871  12.203  0.1862  0.1289 -0.1714
 8024W        W12075   5.202  10.078  12.972  0.0097 -0.1678  0.0551
 8025W        W12076   0.843   2.540   0.158  0.2869  0.3285  0.1579
 8026W        W12077   7.899   6.265   3.165 -0.1913 -0.0477  0.2652
 8027W        W12078   2.577   3.567   4.764  0.1498  0.0348 -0.1276
 8028W        W12079   6.655   3.222  12.175 -0.2222 -0.0953  0.4056
 8029W        W12080   9.544   8.654   2.616 -0.2163  0.1126 -0.1725
 8030W        W12081   5.886   9.726   2.508  0.4109  0.1058 -0.0120
 8031W        W12082   6.703   6.083   2.018 -0.0660 -0.2965 -0.1637
 8032W        W12083   7.292   3.159  13.746 -0.3988 -0.1220  0.4579
 8033W        W12084   3.411   1.437   0.081 -0.1548  0.0048 -0.3860
 8034W        W12085   6.605   3.526   1.956  0.2756  0.0892  0.1124
 8035W        W12086   1.025   5.309  12.457 -0.2720  0.3166 -0.0092
 8036W        W12087   6.811   1.549   0.300  0.1070 -0.1635 -0.1104
 8037W        W12088   7.434   5.608   0.920  0.3198  0.1129  0.1009
 8038W        W12089   3.296   2.956   4.259  0.1246 -0.0649  0.1489
 8039W        W12090   6.778   7.873   1.631  0.0081 -0.1446  0.0567
 8040W        W12091   8.872   9.173   2.083  0.0491  0.1132 -0.1270
 8041W        W12092   2.030   6.572   1.734  0.5978 -0.4705  0.1484
 8042W        W12093   2.776   4.533   4.675  0.1368 -0.0441 -0.0116
 8043W        W12094   9.357   4.085   3.456  0.0289  0.0600  0.1731
 8044W        W12095   3.863   7.302   2.317  0.1009 -0.1953 -0.0063
 8045W        W12096   4.501   2.485   3.956 -0.0015 -0.1381  0.2481
 8046W        W12097   4.207   8.552   4.537  0.2040  0.1119  0.2359
 8047W        W12098   8.823   1.213  11.160  0.0151 -0.2747  0.2048
 8048W        W12099   1.599  10.021  11.359 -0.2773 -0.0391  0.0017
 8049W        W12100   9.346   5.415  12.943  0.1953 -0.1848 -0.0082
 8050W        W12101   4.829   2.894   2.396  0.0838 -0.1353 -0.1521
 8051W        W12102   2.072   4.680  12.142  0.0057 -0.1733  0.4785
 8052W        W12103   9.924   0.280  10.221 -0.0325 -0.0157  0.0457
 8053W        W12104   2.394   6.968  13.480  0.3928 -0.3076  0.0865
 8054W        W12105   5.991   0.462   1.205  0.1827 -0.2014 -0.1126
 8055W        W12106   4.463   5.295   2.427 -0.1401 -0.0112 -0.1589
 8056W        W12107   7.094   6.483   0.998  0.2458 -0.2311 -0.0223
 8057W        W12108   3.467   1.058  13.323 -0.2700  0.1685  0.0795
 8058W        W12109   6.181   4.348  10.605  0.0783  0.4553  0.0787
 8059W        W12110   2.232   9.263   0.907 -0.4987 -0.0216 -0.2752
 8060W        W12111   8.590   3.965  13.394 -0.2927  0.1979  0.0910
 8061W        W12112   1.304   8.456   2.222 -0.2525  0.1112  0.1457
 8062W        W12113   0.678   1.385   9.282  0.1123  0.0163 -0.0597
 8063W        W12114   0.104   0.513  10.757 -0.0707 -0.1299 -0.1150
 8064W        W12115   3.282   0.072   3.427  0.2579  0.4159  0.3629
 8065W        W12116   7.943   5.278  10.993 -0.1799  0.0838 -0.1258
 8066W        W12117   2.287   0.024   0.457 -0.1439 -0.0655  0.1677
 8067W        W12118   9.913   4.368   5.217 -0.1345  0.3047  0.0187
 8068W        W12119   4.754   8.127  12.903 -0.0309 -0.2042  0.1795
 8069W        W12120   2.769  10.132   0.633 -0.0576  0.1138 -0.0737
 8070W        W12121   7.044   2.913  12.310  0.3615 -0.2497  0.3139
 8071W        W12122   5.112   5.809   9.502  0.0579  0.0331 -0.1449
 8072W        W12123   4.719   4.792   3.104 -0.1961  0.2401 -0.0257
 8073W        W12124   0.459   7.102  13.124 -0.1075 -0.1356  0.0163
 8074W        W12125   5.481   3.490  12.627 -0.1631 -0.3756 -0.0799
 8075W        W12126  10.059   6.788   5.040  0.2650 -0.1531  0.0109
 8076W        W12127   4.446   0.631   4.255 -0.0006 -0.1282 -0.0708
 8077W        W12128   8.475   9.541   3.267 -0.2882  0.2290  0.0799
 8078W        W12129   3.903   5.682  11.016 -0.2260  0.0044 -0.0307
 8079W        W12130   6.048   9.660  12.789  0.2073  0.1356 -0.4805
 8080W        W12131   2.468   8.686   1.771 -0.1051  0.0150 -0.2047
 8081W        W12132   6.796   6.929   0.942  0.3979  0.0691 -0.1972
 8082W        W12133   3.807   0.845  11.848 -0.2073 -0.0689  0.0184
 8083W        W12134   6.053   2.836   0.006  0.0746  0.1702  0.0615
 8084W        W12135   5.224   7.236   9.902  0.2203 -0.0256 -0.1129
 8085W        W12136   0.806   4.459   9.891 -0.0256 -0.1465  0.1224
 8086W        W12137   3.941   0.705   9.529  0.0893 -0.0226 -0.1243
 8087W        W12138   3.447   8.883   1.392 -0.0919 -0.1569  0.0287
 8088W        W12139   6.358   6.491   9.946 -0.1920 -0.0126  0.0331
 8089W        W12140   0.234   8.919   3.588  0.2750 -0.2459 -0.0365
 8090W        W12141   6.682   0.128   1.648 -0.0262 -0.0105  0.2957
 8091W        W12142   5.266   0.710  13.896  0.0743  0.2909  0.0638
 8092W        W12143   0.197   3.625   9.412 -0.3807 -0.2267  0.2026
 8093W        W12144   5.303   9.856   2.665 -0.3157  0.4899 -0.0004
 8094W        W12145   4.623   0.909   2.746 -0.1522 -0.0682 -0.1570
 8095W        W12146   3.003   3.655  11.202  0.1586 -0.4172 -0.0539
 8096W        W12147   7.789   8.679   1.055 -0.3779  0.1440 -0.3116
 8097W        W12148   3.803   8.768   0.283  0.1661  0.1276 -0.0016
 8098W        W12149   8.257   7.704   3.453 -0.2315 -0.1014  0.0739
 8099W        W12150   1.803   6.724   9.854 -0.1224 -0.0953 -0.4145
 8100W        W12151   2.530   8.718  11.568  0.1609 -0.0635  0.2725
 8101W        W12152   7.254   2.059   1.918 -0.0917 -0.0741 -0.1832
 8102W        W12153   0.705   5.017   1.861 -0.1153  0.1320 -0.0612
 8103W        W12154   0.908   7.686  10.089 -0.1902  0.0443 -0.2248
 8104W        W12155   7.436   5.063   0.009  0.1683  0.0465  0.1842
 8105W        W12156   9.817   1.960   9.894  0.0334  0.1445  0.1706
 8106W        W12157   7.804   4.551  10.435  0.3751  0.1348 -0.0625
 8107W        W12158   4.663   5.741  12.729 -0.2488  0.3393  0.1374
 8108W        W12159   1.843   3.485   8.611 -0.0140  0.0307 -0.0941
 8109W        W12160   9.062   5.318   9.973 -0.3413 -0.2334  0.3205
 8110W        W12161   4.097   1.966  12.442 -0.0298 -0.1209  0.2590
 8111W        W12162   0.945   1.634   8.993  0.0970 -0.2468  0.1796
 8112W        W12163   5.905   2.033  13.465  0.0126  0.2272 -0.1248
 8113W        W12164   8.219   5.275  13.431  0.0280  0.0201  0.0866
 8114W        W12165   9.606   0.763   2.329  0.2461 -0.2221 -0.0292
 8115W        W12166   0.024   4.438   2.518  0.0289  0.1437  0.3189
 8116W        W12167   3.472   7.430   3.644 -0.2023 -0.0241 -0.1020
 8117W        W12168   9.185   5.791   1.678 -0.0573 -0.1702 -0.1008
 8118W        W12169   5.769   9.190   4.232 -0.0756 -0.0569  0.0113
 8119W        W12170   4.070   2.170  11.537 -0.1013 -0.0388 -0.1309
 8120W        W12171   1.458   0.676  11.355 -0.1111 -0.0949  0.0562
 8121W        W12172   7.674   1.845  10.543  0.0925 -0.1510 -0.0993
 8122W        W12173   3.666   7.663  10.508 -0.1137  0.0646  0.0247
 8123W        W12174   6.292   4.115  12.134  0.0439  0.0207 -0.0243
 8124W        W12175   2.454   8.389   9.431 -0.1472  0.0923  0.0936
 8125W        W12176   6.539   7.982  12.683  0.0976 -0.1135  0.0465
 8126W        W12177   4.301   0.227   1.771  0.0876 -0.2107 -0.2321
 8127W        W12178  10.015   7.484   1.345 -0.3678  0.2674 -0.2037
 8128W        W12179   1.705   3.445   4.974  0.0441  0.2346 -0.0929
 8129W        W12180   7.167   2.941  10.793  0.1229  0.1386 -0.2453
 8130W        W12181   5.340   2.346  11.313 -0.2148  0.3123  0.0001
 8131W        W12182   1.605   6.582  13.253  0.3096  0.2281 -0.1785
 8132W        W12183   2.948   0.536   0.510 -0.0329  0.6677 -0.0772
 8133W        W12184   0.438   9.337   4.782  0.0300 -0.3948 -0.0608
 8134W        W12185   1.387   8.836   1.733 -0.2151 -0.3224  0.0694
 8135W        W12186   0.690   8.775   9.039  0.0870 -0.0947  0.0703
 8136W        W12187   2.156   3.459  12.035  0.3032  0.0114  0.4053
 8137W        W12188   3.119   3.736   2.053 -0.1530  0.0187 -0.0584
 8138W        W12189   1.494   7.116  11.057 -0.1882 -0.1319  0.1823
 8139W        W12190   8.908   7.138   2.842  0.1248  0.0186  0.0356
 8140W        W12191   1.540   9.794  12.717 -0.4935  0.0023  0.1221
 8141W        W12192   1.457   3.834  13.530 -0.2540  0.3046  0.1884
 8142W        W12193   1.090   5.986   0.056  0.0284  0.2449  0.1181
 8143W        W12194   8.619   6.292   5.280 -0.1156  0.1373 -0.2026
 8144W        W12195   6.027   5.995   1.464 -0.2193 -0.0319  0.1176
 8145W        W12196   5.515   6.242  13.577 -0.0257  0.0671  0.0998
 8146W        W12197   5.605   7.947   3.174  0.0057 -0.3622  0.0275
 8147W        W12198   2.638   2.520  10.416  0.2049  0.1390  0.1762
 8148W        W12199   7.603   7.926   0.663 -0.1213 -0.1056 -0.1450
 8149W        W12200   7.402   5.500   1.974 -0.1325  0.0268 -0.0208
 8150W        W12201   5.254   6.531  11.646  0.1147  0.1976 -0.5473
 8151W        W12202   9.187   6.533   2.089 -0.0186  0.0805  0.0477
 8152W        W12203   6.150   8.363   4.727 -0.0359 -0.0456 -0.0830
 8153W        W12204   7.952   6.155  11.978  0.2027 -0.0488  0.0877
 8154W        W12205   2.032   9.742   8.110  0.3493 -0.1497 -0.0545
 8155W        W12206   1.898   3.690  10.034  0.2861  0.1936  0.2675
 8156W        W12207  10.031   4.145  10.235 -0.0253  0.4802 -0.2279
 8157W        W12208   7.094   6.177  10.409 -0.2785 -0.0695  0.0313
 8158W        W12209   8.751  10.137  13.332  0.0438  0.2327 -0.0245
 8159W        W12210   3.893   4.538   1.146  0.2180 -0.0736 -0.1823
 8160W        W12211   1.481   5.603   0.173 -0.1752  0.0629 -0.1574
 8161W        W12212   3.027   1.687   2.326  0.2165  0.0449 -0.3437
 8162W        W12213   2.504   5.126  13.992  0.0432  0.1787 -0.2255
 8163W        W12214   5.043   9.383   0.970 -0.1402  0.0068 -0.0838
 8164W        W12215   9.956   5.462  12.042 -0.1618 -0.2759 -0.1853
 8165W        W12216   3.920   7.541   3.295  0.0986  0.4993 -0.3245
 8166W        W12217   4.111   3.152   9.118 -0.1225 -0.0742  0.1671
 8167W        W12218   2.780   5.664   0.814  0.2543  0.3173  0.1846
 8168W        W12219   2.113   0.191  10.205 -0.1918  0.0817  0.1787
 8169W        W12220   7.699   2.306   1.998 -0.1204  0.0520 -0.0077
 8170W        W12221   7.645   0.000  10.017  0.1923  0.3968 -0.4736
 8171W        W12222  10.061   8.813   4.314  0.1164 -0.3966  0.0970
 8172W        W12223   7.175   2.241   2.649  0.0323 -0.0569  0.0430
 8173W        W12224   2.552   0.743  13.015 -0.2379 -0.0912  0.4118
 8174W        W12225   1.222   4.886   2.205  0.1039  0.1721  0.0767
 8175W        W12226   2.414   8.339  11.268  0.0837 -0.1303  0.1076
 8176W        W12227   7.989   1.548   9.658 -0.1359 -0.3845 -0.0231
 8177W        W12228   3.340   8.135   2.905 -0.0158 -0.0979 -0.0937
 8178W        W12229   3.338   1.324   4.047  0.0974  0.0497  0.2987
 8179W        W12230   5.743   4.544  13.897 -0.0100 -0.0718 -0.1565
 8180W        W12231   9.569   5.497   9.440 -0.0205  0.1852 -0.2390
 8181W        W12232   5.563   8.971   3.231 -0.2381  0.1257  0.1333
 8182W        W12233   0.293  10.036  11.487 -0.3872  0.2412  0.0473
 8183W        W12234   4.551   4.656  13.732  0.2758  0.2142 -0.1209
 8184W        W12235   3.369   6.662   1.332  0.2393  0.0289  0.1061
 8185W        W12236   1.664   1.370   0.357 -0.1849  0.1104  0.0918
 8186W        W12237   9.042   6.109  13.370 -0.1758 -0.1159  0.2213
 8187W        W12238   7.169   3.670   3.128 -0.0418 -0.1033  0.1781
 8188W        W12239   6.397   4.122   0.488  0.0407  0.1333 -0.0036
 8189W        W12240   1.933   4.119   2.068 -0.0832 -0.0341  0.0724
 8190W        W12241   6.891   3.136   2.958  0.1696 -0.2416  0.0212
 8191W        W12242   8.994   2.304   1.873  0.1479  0.1957 -0.1378
 8192W        W12243   6.659   5.495   3.279  0.2324 -0.1956 -0.0475
 8193W        W12244   6.726   9.278   4.091  0.0674  0.3143 -0.2672
 8194W        W12245   5.147   6.775   3.520  0.0246  0.2366 -0.4041
 8195W        W12246   8.654   3.123  13.298 -0.0802  0.1148  0.0686
 8196W        W12247   1.559   6.121   5.319  0.1095  0.3420 -0.0106
 8197W        W12248   4.669   6.593  13.085 -0.2269  0.1549  0.1057
 8198W        W12249   6.861   1.011  13.046  0.1458  0.0926  0.0739
 8199W        W12250   2.842   4.902  13.599 -0.2274  0.0966 -0.1592
 8200W        W12251   3.229   7.902  12.925  0.1064  0.0468  0.2293
 8201W        W12252   6.772   9.981   2.611 -0.1517  0.0026  0.3579
 8202W        W12253   0.463   3.246   8.537  0.2259 -0.0286 -0.0692
 8203W        W12254   6.060   7.765  10.382  0.1890  0.0648  0.0185
 8204W        W12255   5.458   0.602  11.365 -0.1768  0.0008  0.0904
 8205W        W12256   0.695   2.461  11.536 -0.0686 -0.1710  0.0336
 8206W        W12257   5.866   6.514   1.339  0.0842 -0.0610 -0.2267
 8207W        W12258   2.984   4.478  13.916 -0.1737  0.0476  0.3199
 8208W        W12259   6.507   6.504   4.960 -0.0311 -0.0461  0.1521
 8209W        W12260   2.164   6.178   0.036 -0.0685 -0.0556  0.0426
 8210W        W12261   0.391   0.297   0.046 -0.1799  0.0058 -0.1987
 8211W        W12262   7.481   2.108   1.429 -0.2034 -0.3975  0.1818
 8212W        W12263   9.494   4.726  12.438  0.0168 -0.2415 -0.0829
 8213W        W12264   7.419   8.675   0.280  0.0843 -0.1224 -0.0819
 8214W        W12265   3.825   0.211  13.180  0.0133  0.1026 -0.1439
 8215W        W12266  10.045   2.602   0.022 -0.0814 -0.0204 -0.2321
 8216W        W12267   4.849   8.941  10.088  0.5092 -0.0098  0.0739
 8217W        W12268   3.338   0.648  11.921  0.4805 -0.0525 -0.1112
 8218W        W12269   0.739   4.866   2.317  0.0693  0.1922 -0.0796
 8219W        W12270   4.774   6.256   9.588  0.3313 -0.4103 -0.1489
 8220W        W12271   8.898   2.966  12.360  0.0019  0.1028 -0.2463
 8221W        W12272   0.083   6.826  13.147  0.0288 -0.1558 -0.1570
 8222W        W12273   2.025   9.978  10.905  0.3204  0.3113 -0.1365
 8223W        W12274   7.461   6.131  11.338  0.0415  0.2220  0.1861
 8224W        W12275   2.882   6.596   3.495  0.2319  0.2659  0.2638
 8225W        W12276   3.224   3.269  10.965  0.2490 -0.2306  0.0297
 8226W        W12277   5.765   0.831  13.503  0.1139 -0.0949  0.0571
 8227W        W12278   6.690   3.771  12.184 -0.0319  0.0354  0.1310
 8228W        W12279   3.554   8.438   4.112  0.2967 -0.3806 -0.0738
 8229W        W12280   4.770   6.347  10.430  0.0188 -0.0738 -0.1993
 8230W        W12281   7.467   2.914   0.603  0.2068  0.3121  0.0279
 8231W        W12282   8.452   7.974  11.409 -0.1187  0.4338  0.1626
 8232W        W12283   7.503   6.514   0.484  0.1733  0.0019  0.1183
 8233W        W12284   4.453   0.406  13.489  0.0788  0.0627 -0.1239
 8234W        W12285   0.690   6.337   1.370 -0.0664  0.1037  0.1840
 8235W        W12286   0.176   3.186   2.519 -0.3140 -0.1410 -0.1486
 8236W        W12287   6.646   7.884  11.562  0.0662  0.0800 -0.2170
 8237W        W12288   9.232   0.316   9.726 -0.2241 -0.0130  0.3295
 8238W        W12289   2.126   1.892  10.936 -0.0735  0.1317  0.1479
 8239W        W12290   1.066   6.668   3.588 -0.0220  0.2312 -0.1316
 8240W        W12291   3.585   2.965  11.817  0.0120  0.0804 -0.0895
 8241W        W12292   2.565   8.119   4.412 -0.0892  0.4190 -0.0123
 8242W        W12293   9.880   5.934  11.748 -0.0101  0.3818  0.2383
 8243W        W12294  10.038   6.483  10.100  0.0815  0.3526 -0.2892
 8244W        W12295   8.208   4.245   2.818 -0.0760 -0.1401 -0.0911
 8245W        W12296   4.764   5.767   0.510 -0.2662 -0.2078 -0.0135
 8246W        W12297   8.987   6.050   0.790  0.2744 -0.1018  0.1197
 8247W        W12298   4.170   0.110  10.304  0.3595  0.2045  0.1502
 8248W        W12299   6.005   8.297  10.426  0.0379  0.0047 -0.1396
 8249W        W12300   6.221   0.730  13.869  0.1539  0.2131 -0.1097
 8250W        W12301   6.647   8.278   0.731 -0.1050  0.1276 -0.0576
 8251W        W12302   9.814   8.918   8.461  0.1190  0.1218  0.1189
 8252W        W12303   3.614   2.506  11.512  0.0815 -0.2635 -0.0596
 8253W        W12304   5.074   3.831  10.668 -0.0201  0.2453 -0.2462
 8254W        W12305   7.072  10.073  13.304  0.1390  0.0035 -0.3413
 8255W        W12306   0.060   6.611   3.941 -0.1214  0.1436 -0.0470
 8256W        W12307   3.252   2.054  10.907  0.0280  0.3015  0.0881
 8257W        W12308   4.633   1.505   2.106  0.1430 -0.0346 -0.0789
 8258W        W12309   4.286   3.748   2.610  0.0854  0.1119 -0.0033
 8259W        W12310   2.769   3.187  11.160  0.0880  0.1338  0.3983
 8260W        W12311   3.535   5.515  11.637  0.0211  0.0239 -0.1836
 8261W        W12312   4.025   9.683   1.074 -0.4497  0.1542 -0.0750
 8262W        W12313   7.510   3.802  11.791 -0.3315 -0.1674 -0.2722
 8263W        W12314   7.223   7.300   9.991  0.2398  0.4516  0.0601
 8264W        W12315   2.703   3.149  12.254  0.1298  0.1014 -0.0527
 8265W        W12316   3.603   6.231  12.163  0.0696 -0.6853  0.2124
 8266W        W12317   0.450   4.174   1.369 -0.1947 -0.0545 -0.0259
 8267W        W12318   2.501   1.768   9.401 -0.0569 -0.0981 -0.1565
 8268W        W12319   0.826   7.576  12.312  0.1485 -0.1725  0.3933
 8269W        W12320   6.363   6.322   1.751  0.0083  0.0670  0.4654
 8270W        W12321   0.160   9.147  10.155  0.1051 -0.2190 -0.2518
 8271W        W12322   4.293   4.136  13.735  0.0367 -0.1150 -0.3042
 8272W        W12323   5.552   9.360   2.365  0.0062 -0.2529 -0.1739
 8273W        W12324   8.358   2.687  12.194 -0.1263  0.0269 -0.0611
 8274W        W12325   5.659   6.675   1.807 -0.1565  0.2143  0.0696
 8275W        W12326   1.414   4.449   4.019  0.0748  0.1940  0.0023
 8276W        W12327   5.537   2.846  13.842  0.0852 -0.0754  0.0496
 8277W        W12328   2.291   6.787   9.759 -0.1349  0.1511 -0.1920
 8278W        W12329   1.507   9.650  11.682  0.0743 -0.0077  0.0559
 8279W        W12330   9.655   6.132   9.377 -0.0204 -0.0218  0.1131
 8280W        W12331   7.954   5.467  11.615 -0.0159 -0.0891 -0.2769
 8281W        W12332  10.051   6.951   0.508  0.1610 -0.1886  0.0957
 8282W        W12333   2.130   5.632  11.077  0.0088  0.1737 -0.4761
 8283W        W12334   5.517   1.447  12.214  0.1507 -0.0563 -0.4287
 8284W        W12335   5.135   4.512   9.502  0.0324 -0.1377  0.3067
 8285W        W12336   1.924   4.915   2.674 -0.0712 -0.1260 -0.1373
 8286W        W12337   3.591   3.706   3.887 -0.2152  0.1405  0.1784
 8287W        W12338   3.346   9.149   0.966  0.2335  0.3307 -0.0762
 8288W        W12339  10.037   9.152   1.102 -0.3348  0.0948  0.1628
 8289W        W12340   0.949   1.811  12.598 -0.4849 -0.1039 -0.0746
 8290W        W12341   5.231   7.532  10.701 -0.0442 -0.2618  0.1392
 8291W        W12342   9.966   2.285   3.636 -0.0866  0.1311  0.1832
 8292W        W12343   4.946   3.650  11.782 -0.0798  0.0984 -0.0830
 8293W        W12344   3.364   8.884  13.332  0.0651  0.3444  0.2921
 8294W        W12345   2.211   7.361   3.726  0.0777 -0.0960 -0.2311
 8295W        W12346   6.552   3.280   0.816 -0.2969  0.1534 -0.0716
 8296W        W12347   1.210   1.274  12.011 -0.1343 -0.2276 -0.2501
 8297W        W12348   3.387   4.880   0.313  0.0142  0.1505  0.1361
 8298W        W12349   4.638   9.115  12.907 -0.1967  0.1055 -0.1548
 8299W        W12350   7.892   9.274   1.086  0.1152  0.0143  0.0063
 8300W        W12351   5.831   4.799   0.210  0.1679  0.0443 -0.2719
 8301W        W12352   2.096   8.010   9.411 -0.0742 -0.2713  0.0021
 8302W        W12353   3.209   3.897   3.532  0.0685 -0.0193  0.0318
 8303W        W12354   1.360   7.410  12.179 -0.0271 -0.1724 -0.1983
 8304W        W12355   7.980   8.648   2.799 -0.0016 -0.1137  0.3507
 8305W        W12356   2.555   5.564   9.692 -0.1161 -0.0893  0.2284
 8306W        W12357   6.112   1.023   1.352 -0.0975 -0.2678 -0.4686
 8307W        W12358   5.853   9.339   4.696 -0.1043  0.3412  0.2410
 8308W        W12359   2.129   7.096  12.099 -0.1400 -0.3866  0.0324
 8309W        W12360   2.074   4.389   3.284  0.0423 -0.3403 -0.2661
 8310W        W12361   1.337   8.658  12.753 -0.0345  0.1301  0.0596
 8311W        W12362   4.082   3.483  12.269 -0.0069 -0.1872 -0.0138
 8312W        W12363   3.091   7.474  14.036 -0.0537 -0.2424  0.1825
 8313W        W12364   7.085   5.248  11.083 -0.1270  0.2061 -0.1988
 8314W        W12365   1.155   3.639   9.495 -0.1153 -0.0443 -0.2676
 8315W        W12366   4.518   3.445  13.636  0.0238 -0.1053 -0.0643
 8316W        W12367   3.770   1.943  10.792  0.2552 -0.1980 -0.1415
 8317W        W12368   5.860   5.056   1.939 -0.2460  0.0209  0.2128
 8318W        W12369   5.239   6.076   2.766  0.1149 -0.0980 -0.0422
 8319W        W12370   5.338   7.513  11.519  0.1255  0.2878 -0.2463
 8320W        W12371   4.072   0.339  11.569 -0.0531 -0.1806 -0.1396
 8321W        W12372   6.354   3.404  13.527  0.1729  0.1436  0.1690
 8322W        W12373   4.412   5.457  13.122  0.1912  0.3612 -0.1331
 8323W        W12374   0.274   1.642   0.164  0.0604  0.1987 -0.0130
 8324W        W12375   4.252   3.547  10.195  0.2571 -0.2140  0.0767
 8325W        W12376   0.616   2.793   3.833  0.1298 -0.1994  0.3630
 8326W        W12377   8.141   4.686  13.050  0.0396  0.0257  0.2482
 8327W        W12378   9.657   6.385   9.805 -0.1707  0.1523 -0.1388
 8328W        W12379   9.375   8.960  10.160 -0.1174 -0.1047  0.1211
 8329W        W12380   3.789   3.877  13.078  0.0638  0.1204 -0.1336
 8330W        W12381   0.145   2.504   0.847  0.3219 -0.2616  0.0034
 8331W        W12382   6.338   4.059  12.685 -0.4213 -0.2997  0.0793
 8332W        W12383   4.510   5.402  10.155  0.1178  0.4291 -0.0888
 8333W        W12384   5.013   9.056  13.326  0.0490 -0.1105 -0.1853
 8334W        W12385   1.083   5.891   1.352  0.0918  0.2975 -0.0170
 8335W        W12386   8.693   7.947  11.822 -0.2028  0.1957 -0.3632
 8336W        W12387   5.050   8.129   2.189 -0.0427  0.0928  0.0741
 8337W        W12388   3.592   3.847  14.027 -0.1633 -0.1143 -0.0164
 8338W        W12389   5.919   9.982   2.063 -0.1327  0.1579 -0.2764
 8339W        W12390   4.799   9.787   2.598 -0.0256  0.0749  0.1341
 8340W        W12391   3.705   8.589   2.394 -0.0937 -0.2146 -0.0755
 8341W        W12392   5.577   7.731  11.059  0.3277 -0.3954  0.0311
 8342W        W12393  10.129   2.108  13.179  0.1626 -0.3813  0.1615
 8343W        W12394   7.271   0.183   3.608 -0.0792  0.1892  0.0989
 8344W        W12395   9.406   3.313  12.240 -0.0102 -0.2753  0.0250
 8345W        W12396   0.086   7.989   3.975 -0.2024 -0.0207  0.0129
 8346W        W12397   2.244   5.462  13.403  0.1711 -0.1804  0.1002
 8347W        W12398   6.377   7.347   9.754  0.1642  0.2197 -0.0657
 8348W        W12399   2.882   7.472   2.371  0.0479  0.1996 -0.0878
 8349W        W12400   2.105   3.719  10.956  0.1275  0.2026 -0.2836
 8350W        W12401   1.902   0.295  13.513  0.2129 -0.1034 -0.3634
 8351W        W12402   8.622   8.736  13.434 -0.0189  0.1030  0.2744
 8352W        W12403  10.118   5.131   0.656  0.2885 -0.0779 -0.1171
 8353W        W12404   3.446   3.220  13.699  0.0069  0.0513 -0.0087
 8354W        W12405   5.391   9.434  13.328  0.0788  0.0773 -0.1310
 8355W        W12406   9.620   8.045   9.727  0.0216 -0.1404 -0.1448
 8356W        W12407   9.416   2.236  12.562  0.4779 -0.0491 -0.1904
 8357W        W12408   3.629   0.324  12.394  0.0039  0.0637 -0.1301
 8358W        W12409  10.124   6.605  13.622 -0.0902  0.1449 -0.2238
 8359W        W12410   0.033   1.615  12.249 -0.1107  0.0247  0.0774
 8360W        W12411   2.630   6.402  11.510  0.0215  0.2988 -0.0843
 8361W        W12412   9.933   6.485  12.483 -0.1039  0.0781  0.0131
 8362W        W12413   8.617   3.168   0.816 -0.1581 -0.2546 -0.0318
 8363W        W12414   0.623   3.869  12.494  0.1096 -0.0702  0.0506
 8364W        W12415   7.518   9.960  12.977 -0.0921  0.0558  0.0226
 8365W        W12416   3.084   2.444  10.064 -0.1061 -0.0005 -0.0478
 8366W        W12417   2.258   8.803  10.568  0.0531  0.3917 -0.1972
 8367W        W12418   3.328   6.713   9.740  0.0686 -0.0411  0.0599
 8368W        W12419  10.086   4.630   3.627 -0.3467 -0.1027  0.0120
 8369W        W12420   8.068   0.900  12.374  0.0164  0.1204  0.1594
 8370W        W12421   6.759   4.950   1.150 -0.2181 -0.2000  0.2813
 8371W        W12422   8.328   2.820  11.740 -0.2093  0.0921  0.0581
 8372W        W12423   1.931  10.064   4.378  0.0594 -0.3388 -0.0582
 8373W        W12424   8.293   7.661   2.602 -0.2346  0.0975  0.4905
 8374W        W12425   2.633   2.896   3.711 -0.0318  0.3434  0.0000
 8375W        W12426   3.103   3.670  13.483 -0.0509 -0.0918  0.1420
 8376W        W12427   9.415   3.348   2.646 -0.2797 -0.3803  0.0981
 8377W        W12428   6.883   0.379   3.347 -0.2513 -0.1226  0.0253
 8378W        W12429   6.430   7.306   0.992  0.1165 -0.1238  0.5167
 8379W        W12430   3.831   0.266   1.425  0.2042  0.1003 -0.5795
 8380W        W12431   3.008   7.846   4.718  0.0365  0.1492  0.3420
 8381W        W12432   3.030   2.724  12.581  0.2787  0.0926 -0.0084
 8382W        W12433   1.031   7.697   8.807  0.1282 -0.1831  0.2891
 8383W        W12434   4.612   4.272  10.461  0.2718 -0.1803 -0.0905
 8384W        W12435   5.990   8.660   3.160  0.0419 -0.0488 -0.2872
 8385W        W12436   2.800   9.703   0.323  0.0733 -0.0325  0.1146
 8386W        W12437   2.111   7.020   0.807 -0.2158  0.4458 -0.0480
 8387W        W12438   4.902   4.945   3.593  0.1453 -0.2977 -0.3380
 8388W        W12439  10.120   3.526   8.981  0.2458  0.0259 -0.4346
 8389W        W12440   8.973   7.373   4.292  0.0081  0.0790  0.1425
 8390W        W12441   1.152   1.543   0.261 -0.1347 -0.0444  0.2838
 8391W        W12442   8.246   0.061   2.609  0.2486 -0.0077  0.1729
 8392W        W12443   0.830   2.318   3.721  0.0876  0.0277  0.3493
 8393W        W12444   0.184   8.952   1.511 -0.0820  0.1162  0.1244
 8394W        W12445   4.212   0.662  12.251 -0.0649 -0.1105  0.0793
 8395W        W12446   9.189   4.408  10.089  0.5129 -0.0577  0.0149
 8396W        W12447   0.725   2.034   9.152 -0.1683  0.2410  0.1022
 8397W        W12448   9.365   8.942   4.164  0.0749  0.0753  0.2152
 8398W        W12449   7.273   0.683   3.553  0.1052  0.1304 -0.2971
 8399W        W12450   2.301   8.113   3.497  0.0842  0.1543 -0.1397
 8400W        W12451   1.079   5.583   4.088  0.0662  0.0725  0.0836
 8401W        W12452   4.910   5.329   9.517  0.1973 -0.0323 -0.4343
 8402W        W12453   0.784   7.200  10.160 -0.0789 -0.2245  0.0168
 8403W        W12454  10.091   2.635   4.095 -0.3170  0.0718  0.0126
 8404W        W12455   7.658   4.524   2.690 -0.0015 -0.1577  0.1938
 8405W        W12456   7.758   3.720   0.489  0.1485 -0.1677  0.0250
 8406W        W12457   3.238   8.402   9.606 -0.4486  0.1212 -0.1839
 8407W        W12458   2.459   9.447  14.062 -0.1489  0.1282 -0.1611
 8408W        W12459   0.730   3.582  12.860  0.2017  0.3081  0.0533
 8409W        W12460   1.049   9.979  10.073 -0.2059 -0.1107  0.0251
 8410W        W12461   0.972   4.363   0.065 -0.2796  0.3587  0.0971
 8411W        W12462   1.091   6.980   0.888  0.0196 -0.0827 -0.0490
 8412W        W12463   8.077   2.871   1.089 -0.4190  0.0226 -0.3546
 8413W        W12464   4.732   2.498  13.386  0.1031  0.0889  0.2656
 8414W        W12465   8.067   9.969   1.284 -0.0749  0.0766  0.3128
 8415W        W12466   3.031   6.409  12.781 -0.2063  0.4017  0.0207
 8416W        W12467   5.566   3.128  11.260 -0.2384 -0.0684  0.4320
 8417W        W12468   8.514   4.285  10.359 -0.2342 -0.0397 -0.3908
 8418W        W12469   6.830   7.731   2.158  0.0132  0.0323 -0.2471
 8419W        W12470   8.238   3.970  12.880  0.0266 -0.0620  0.2945
 8420W        W12471   1.059   7.042  11.419  0.2931 -0.1017 -0.1595
 8421W        W12472   9.208   3.504   3.403 -0.0839  0.0844  0.1274
 8422W        W12473   6.176   6.279   3.988  0.0027 -0.1585 -0.0502
 8423W        W12474   6.251   9.090   0.355  0.1238  0.0686 -0.1296
 8424W        W12475   0.296   2.731  11.341 -0.1703  0.4178  0.0974
 8425W        W12476   1.090   5.049  10.206  0.1899  0.0779 -0.3684
 8426W        W12477   6.936   1.976  11.768 -0.1427 -0.1129 -0.4822
 8427W        W12478   2.566   2.697   1.019  0.1274  0.0103  0.1420
 8428W        W12479   9.378   0.168  10.743 -0.1326  0.0009 -0.0343
 8429W        W12480   4.050   7.587  13.703 -0.0866 -0.0678 -0.1874
 8430W        W12481   4.340   4.482  11.514  0.0947 -0.0399  0.0749
 8431W        W12482   1.527   9.155   2.565  0.2634  0.1343 -0.2141
 8432W        W12483   8.679   3.250   9.593 -0.0318  0.3741 -0.2431
 8433W        W12484   9.562   5.863   8.675  0.0563  0.1344 -0.3298
 8434W        W12485   4.021   0.651   4.531 -0.1077  0.0609  0.1430
 8435W        W12486   5.794   7.856  11.449  0.0560 -0.1533 -0.1495
 8436W        W12487   5.173   8.243   1.614  0.1912  0.0057  0.1409
 8437W        W12488   6.809   5.710  10.962 -0.1821  0.3245 -0.0228
 8438W        W12489   4.843   2.637   0.849 -0.0625  0.0537 -0.1026
 8439W        W12490   0.115   6.102   0.509 -0.0653 -0.1625  0.2131
 8440W        W12491   5.470   4.441  10.014 -0.1138  0.5056 -0.0975
 8441W        W12492   8.267   6.449  13.755 -0.1633  0.3117  0.0553
 8442W        W12493   4.635   5.037   9.811  0.0011  0.0097 -0.2592
 8443W        W12494   5.439   6.961   4.149 -0.0817  0.4194 -0.3218
 8444W        W12495   7.454   6.575   3.394  0.1120 -0.0761  0.0563
 8445W        W12496   0.425   5.000   1.419 -0.0374  0.2208 -0.0668
 8446W        W12497   7.106   1.401   7.586  0.2783 -0.0783 -0.0001
 8447W        W12498   1.092   7.290  12.586 -0.1545  0.0492 -0.1891
 8448ION    NA+12499   6.086   9.596  13.710 -0.0989 -0.0401  0.0247
 8449ION    NA+12500   7.461   0.604  12.455  0.1723 -0.0115  0.1409
 8450ION    NA+12501   8.274   1.851   9.974 -0.0858 -0.2375 -0.1813
 8451ION    NA+12502   8.199   6.534   1.841  0.1906  0.1760  0.1573
 8452ION    NA+12503   6.050   9.352   3.187 -0.1244 -0.1678  0.1090
 8453ION    NA+12504   8.739   5.708  13.468 -0.0564  0.2720  0.1558
 8454ION    NA+12505   8.719   3.126  12.782  0.3553 -0.1005  0.0497
 8455ION    NA+12506   0.321   7.581   2.998  0.2370  0.0423 -0.2650
 8456ION    NA+12507   1.677   7.895   0.005 -0.0160  0.0343  0.0371
 8457ION    NA+12508   0.438   0.624  11.143 -0.0826 -0.0189  0.0698
 8458ION    NA+12509   6.404   7.277   3.166  0.2072 -0.0977 -0.1397
 8459ION    NA+12510   4.154   3.432   3.985 -0.1356  0.0180 -0.0057
 8460ION    NA+12511   4.064   0.189   9.507 -0.1119  0.2774  0.2274
 8461ION    NA+12512   4.182   0.935  10.041 -0.2170 -0.0558  0.0824
 8462ION    NA+12513   1.523   4.118   1.597 -0.0145  0.0529  0.2106
 8463ION    NA+12514   6.456   3.996   1.875  0.3139 -0.1185  0.0220
 8464ION    NA+12515   1.754   7.522   5.179  0.0233 -0.0755  0.1329
 8465ION    NA+12516   6.627   2.997  12.641  0.1059  0.5467 -0.0958
 8466ION    NA+12517   6.387   7.188   4.229  0.0423  0.1929 -0.2357
 8467ION    NA+12518   6.240   3.609   2.651 -0.0523 -0.1471  0.0226
 8468ION    NA+12519   9.074   3.477   2.193  0.2634 -0.0201  0.3267
 8469ION    NA+12520   0.302   2.250   4.985  0.3032  0.0106 -0.2289
 8470ION    NA+12521   0.740   9.860   5.227 -0.4458 -0.1983  0.0282
 8471ION    NA+12522   0.892   7.476  10.609 -0.1309  0.3797  0.0113
 8472ION    NA+12523   3.659   1.401  10.820 -0.0234  0.2057 -0.0889
 8473ION    NA+12524   3.284   8.025  11.406 -0.1180 -0.2033 -0.1462
 8474ION    NA+12525   1.567   2.369   1.451 -0.0671  0.1370 -0.2156
 8475ION    NA+12526   2.534   5.095   4.775  0.3819 -0.0080 -0.0337
 8476ION    NA+12527   9.023   3.867   4.340  0.1769 -0.0376  0.1026
 8477ION    NA+12528   5.025   6.667   8.741 -0.3792 -0.0455 -0.1448
 8478ION    NA+12529   9.063   8.931   0.402  0.0202 -0.0071 -0.1677
 8479ION    NA+12530   5.629   7.285   5.616 -0.3495 -0.1453  0.1473
 8480ION    NA+12531   6.411   5.524  10.786  0.0805 -0.1919 -0.1259
 8481ION    NA+12532   0.684   4.633   1.530 -0.1595  0.0276 -0.0269
 8482ION    NA+12533   0.079   4.135  13.886  0.2651  0.2325  0.1092
 8483ION    NA+12534   2.609   2.012   2.284  0.0512  0.1588  0.1699
 8484ION    NA+12535   8.759   6.497   3.663 -0.1520  0.1835 -0.1982
 8485ION    NA+12536   8.050   8.800  10.713 -0.1081 -0.0129  0.2970
 8486ION    NA+12537   0.577   5.916   4.802  0.4118  0.1400  0.1479
 8487ION    NA+12538   3.929   1.065  13.535  0.1694 -0.1445  0.0097
 8488ION    NA+12539   4.981   7.024   4.420 -0.0774  0.1334  0.0331
 8489ION    NA+12540   2.674   6.339   8.927 -0.1760 -0.1613  0.0852
 8490ION    NA+12541   7.155   7.050  11.889 -0.1824 -0.0174 -0.0972
 8491ION    NA+12542   7.959   3.622  10.487 -0.1735  0.1553  0.0900
 8492ION    NA+12543   7.236   1.043   3.100  0.0130 -0.0156  0.1403
 8493ION    NA+12544   5.870   4.401   1.137 -0.0187  0.2927 -0.0456
 8494ION    NA+12545   0.532   5.780  10.257  0.1888  0.0505  0.0615
 8495ION    NA+12546   2.259   4.615   2.847 -0.1256 -0.1476 -0.1227
 8496ION    NA+12547   0.455   5.386   3.923  0.1427 -0.0377  0.2457
 8497ION    NA+12548   0.113   1.090   2.616  0.2248 -0.0779  0.0048
 8498ION    NA+12549   4.938   7.348  11.213  0.0713  0.1626  0.0952
 8499ION    NA+12550   1.822   7.008   0.410 -0.1566 -0.3321  0.1304
 8500ION    NA+12551   8.655   3.664  11.530 -0.2448  0.0371  0.0002
 8501ION    NA+12552   1.869   7.990  10.447  0.2108  0.1911 -0.0074
 8502ION    NA+12553   7.820   8.263   8.783 -0.0534 -0.2537  0.0602
 8503ION    NA+12554   3.544   5.311   3.889  0.2255  0.3718  0.3265
 8504ION    NA+12555   7.218   0.782  13.427 -0.1761 -0.2600  0.1691
 8505ION    NA+12556   7.880   5.691  10.739 -0.1782 -0.0472 -0.0879
 8506ION    NA+12557   5.037   3.682   1.003  0.1268  0.2757 -0.0098
 8507ION    NA+12558   2.361   4.595   9.517 -0.2234  0.0624  0.1757
 8508ION    NA+12559   9.486   9.030   8.798  0.1452 -0.0082  0.3376
 8509ION    NA+12560   8.926   0.301   9.362  0.3983 -0.2356 -0.2914
 8510ION    NA+12561   5.371   0.107  10.064 -0.1762 -0.1986  0.4142
 8511ION    NA+12562   5.462   6.949   2.212  0.2878 -0.1119  0.1852
 8512ION    NA+12563   9.071   9.830   1.965 -0.0191 -0.0089 -0.0961
 8513ION    NA+12564   0.148   8.487   3.770  0.0811  0.0816  0.1573
 8514ION    NA+12565   7.545   9.256   2.410 -0.1620  0.0297 -0.3334
 8515ION    NA+12566   0.871   9.225   3.327 -0.0581  0.1022  0.2608
 8516ION    NA+12567   5.358   3.982   9.712  0.0002  0.2153 -0.1207
 8517ION    NA+12568   3.850   5.939   2.870 -0.0062  0.1606 -0.3147
 8518ION    NA+12569   7.155   7.010   4.039 -0.0604 -0.0308  0.0031
 8519ION    NA+12570   6.399   3.261   2.968  0.0622  0.2418 -0.1024
 8520ION    NA+12571   5.898   4.628   2.364  0.1659  0.3603  0.1282
 8521ION    NA+12572   8.985   5.260   4.854  0.2741 -0.1489  0.1576
 8522ION    NA+12573   2.636   3.609   2.276  0.2954 -0.3083  0.1507
 8523ION    NA+12574   9.026   3.519   0.802  0.4410  0.1717 -0.2324
 8524ION    NA+12575   7.380   0.309   0.945  0.4549 -0.6287 -0.1472
 8525ION    NA+12576   1.369   0.473  12.496 -0.1267 -0.1799  0.0488
 8526ION    NA+12577   4.636   8.296   8.799  0.0387  0.1868 -0.0714
 8527ION    NA+12578   1.572   4.501   4.612 -0.2769  0.1474 -0.4029
 8528ION    NA+12579   9.249   9.411   5.140 -0.0195 -0.1253 -0.0754
 8529ION    NA+12580   4.207   0.764   2.293  0.0449  0.2578  0.3339
 8530ION    NA+12581   6.422   7.239   9.278 -0.2004  0.0702  0.1346
 8531ION    NA+12582   2.343   8.776   5.440  0.0290 -0.1715 -0.0448
 8532ION    NA+12583   0.780   2.264   8.672  0.0555 -0.0162 -0.1761
 8533ION    NA+12584   8.706   4.183   2.877 -0.2390 -0.5361  0.0514
 8534ION    NA+12585   4.113   7.927   3.587 -0.2720 -0.2578 -0.1423
 8535ION    NA+12586   3.230   8.417  12.891  0.3792 -0.0822 -0.2833
 8536ION    NA+12587   9.137   9.031  10.609 -0.1362  0.0784 -0.0012
 8537ION    CL-12588   0.123   4.326   4.113 -0.0586  0.0552 -0.0613
 8538ION    CL-12589   0.397   5.218   4.370  0.4472  0.0041 -0.2384
 8539ION    CL-12590   6.224   5.588  10.263 -0.0932 -0.0476  0.2194
 8540ION    CL-12591   1.732   8.223  11.941 -0.2657  0.0361  0.0034
 8541ION    CL-12592   9.141   3.551  10.590 -0.0136 -0.1886  0.0010
 8542ION    CL-12593   3.698   0.968   9.891 -0.0491 -0.1351 -0.3176
 8543ION    CL-12594   6.708   6.676   4.484 -0.0427 -0.0561  0.0898
 8544ION    CL-12595   3.156   8.443  11.845  0.0881 -0.2565  0.0665
 8545ION    CL-12596   6.371   8.890   9.630  0.0108 -0.0767 -0.3312
 8546ION    CL-12597   9.278   6.638  11.826  0.1122  0.0208  0.0057
 8547ION    CL-12598   4.124   8.396   3.356  0.2273 -0.1255 -0.1898
 8548ION    CL-12599   8.016   9.448   3.064  0.0701 -0.0828 -0.0631
 8549ION    CL-12600   4.345   4.297   1.219 -0.2781 -0.3128  0.0154
 8550ION    CL-12601   8.510   9.785   0.283  0.0263 -0.1765 -0.3090
 8551ION    CL-12602   1.576   4.340  13.640  0.0242  0.1409  0.3710
 8552ION    CL-12603   7.654   0.697  13.226  0.1899 -0.2997  0.0655
 8553ION    CL-12604   8.235   9.124  10.393 -0.0958  0.1277 -0.2535
 8554ION    CL-12605   8.817   5.529   1.913  0.1712  0.1676 -0.1316
 8555ION    CL-12606   1.526   4.540  12.083 -0.3402  0.0529 -0.1799
 8556ION    CL-12607   0.922   6.044   9.954  0.0054 -0.1590 -0.0136
 8557ION    CL-12608  10.145   0.033   4.153 -0.1472 -0.2304  0.0656
 8558ION    CL-12609   3.635   5.587   4.263 -0.0416 -0.0325 -0.0116
 8559ION    CL-12610   8.199   9.966   2.205 -0.0651  0.0079 -0.0668
 8560ION    CL-12611   1.340   8.709  10.730 -0.1379 -0.1774 -0.0860
 8561ION    CL-12612   0.138   7.755  11.904 -0.1176  0.0520 -0.0795
 8562ION    CL-12613   4.606   7.385   4.177  0.2802 -0.0591 -0.2695
 8563ION    CL-12614   8.177   2.183  10.959  0.0976  0.1733 -0.0426
 8564ION    CL-12615   8.574   3.949  11.084  0.0998 -0.0720 -0.0610
 8565ION    CL-12616   3.269   9.741  11.845  0.0957  0.1424 -0.2405
 8566ION    CL-12617   4.523   9.002   4.661 -0.0919  0.0095 -0.1122
 8567ION    CL-12618   7.497   4.574   3.161  0.3972  0.2858 -0.1119
 8568ION    CL-12619   3.459   2.463  10.950 -0.2858 -0.3244 -0.1960
 8569ION    CL-12620   6.534   6.323  10.356 -0.1513  0.0794  0.0214
 8570ION    CL-12621   6.224   4.248   1.488  0.3421 -0.0537 -0.1954
 8571ION    CL-12622   0.087   3.788   0.406  0.0589  0.1668 -0.1057
 8572ION    CL-12623   9.486   9.131   9.716 -0.1717  0.1671 -0.1808
 8573ION    CL-12624   7.897   6.137   1.640  0.2707 -0.2079 -0.1146
 8574ION    CL-12625   6.835   3.289  13.513  0.0716 -0.0789 -0.1902
 8575ION    CL-12626   1.935   4.413   2.529  0.1211 -0.0558  0.4739
 8576ION    CL-12627   8.548   4.569   3.158 -0.0049  0.0316  0.1442
 8577ION    CL-12628   3.377   4.546   3.517  0.0208 -0.2389  0.2541
 8578ION    CL-12629   6.973   7.295   9.557 -0.1108 -0.1629 -0.1047
 8579ION    CL-12630   6.730   7.167   3.828 -0.1821 -0.2384  0.0854
 8580ION    CL-12631   4.099   1.539  10.636  0.1450 -0.0661 -0.2352
 8581ION    CL-12632   1.635   7.619  11.017 -0.0035  0.5355  0.2459
 8582ION    CL-12633   3.037   1.011   0.609 -0.1729 -0.0322 -0.1440
 8583ION    CL-12634   0.648   5.525  12.077 -0.5947 -0.0308 -0.0827
 8584ION    CL-12635   6.007   4.069   2.501 -0.1020  0.1839 -0.0462
 8585ION    CL-12636  10.110   0.850   4.465  0.0609  0.2202  0.1597
 8586ION    CL-12637   7.726   4.131   1.455 -0.0249  0.3112 -0.0993
 8587ION    CL-12638   9.083   8.038   9.514  0.1686 -0.0086 -0.0732
 8588ION    CL-12639   2.451   4.794   4.377 -0.3101 -0.0204 -0.0869
 8589ION    CL-12640   9.095   1.489  10.237 -0.0771 -0.2216 -0.0647
 8590ION    CL-12641   7.048   0.663   2.922  0.0538  0.3347 -0.2219
 8591ION    CL-12642   6.526   8.791   4.396  0.0425 -0.1725  0.4821
 8592ION    CL-12643   9.989   9.912  13.144 -0.3903 -0.2325 -0.0494
 8593ION    CL-12644   5.426   4.895  10.238 -0.1623 -0.2005 -0.1248
 8594ION    CL-12645   5.359   1.048   3.487  0.0823 -0.1192 -0.0697
 8595ION    CL-12646   1.027   4.194   1.591  0.2940 -0.0358  0.1338
 8596ION    CL-12647   9.125   0.972   3.838 -0.3108 -0.2351 -0.0453
 8597ION    CL-12648  10.127   8.212   4.400 -0.0269  0.4548 -0.1609
 8598ION    CL-12649   1.636   7.438   0.165  0.0758 -0.2133  0.1273
 8599ION    CL-12650   4.205   0.269   2.266 -0.1043 -0.2375  0.1616
 8600ION    CL-12651   9.463   2.780   3.503  0.0833  0.0226 -0.2604
 8601ION    CL-12652   5.830   9.149  13.952 -0.0795 -0.3148 -0.1225
 8602ION    CL-12653   8.209   7.629  10.057  0.0184  0.0439  0.1651
 8603ION    CL-12654   6.187   3.011  12.354  0.1347 -0.3893  0.2794
 8604ION    CL-12655   8.985   9.441   1.682 -0.0456  0.0022 -0.2612
 8605ION    CL-12656   3.187   7.075  11.948 -0.1396 -0.3778  0.0696
 8606ION    CL-12657   0.288   7.039   3.033  0.0048  0.3321  0.1025
 8607ION    CL-12658   7.915   5.881   9.984 -0.0107 -0.0905  0.3247
 8608ION    CL-12659   5.598   3.543  10.428 -0.1618  0.0529  0.1443
 8609ION    CL-12660   9.485   3.929   2.433 -0.0715  0.1126 -0.3239
 8610ION    CL-12661   6.631   7.625   2.877 -0.0152 -0.0343  0.1410
 8611ION    CL-12662   9.508   9.043   0.243  0.5266  0.2031  0.3180
 8612ION    CL-12663   0.370   1.362  10.931  0.3528  0.1363  0.0375
 8613ION    CL-12664   8.397   7.657   4.373 -0.0839  0.3201 -0.0477
 8614ION    CL-12665   5.721   5.692   0.511 -0.2356  0.2340  0.2560
 8615ION    CL-12666   2.600   6.769   3.972  0.3617 -0.0182  0.4097
 8616ION    CL-12667   5.822   4.870   0.934  0.0706  0.0919  0.2001
 8617ION    CL-12668   4.901   2.447  11.599 -0.2880  0.1070  0.1290
 8618ION    CL-12669   3.102   8.868   9.645 -0.0978  0.2934 -0.0235
 8619ION    CL-12670   7.355   0.266   0.041 -0.0430  0.0606 -0.0283
 8620ION    CL-12671   6.595   9.329   3.279 -0.0352 -0.0468 -0.0641
 8621ION    CL-12672   5.399   3.164   1.163 -0.1285  0.0297  0.1740
 8622ION    CL-12673   1.321   9.282   3.459 -0.1703  0.1409  0.1284
 8623ION    CL-12674   2.578   3.173   4.451  0.0823 -0.2582  0.2199
 8624ION    CL-12675   6.634   3.289   2.514 -0.2341 -0.1021 -0.1381
 8625ION    CL-12676   3.581   2.798  13.373  0.1125 -0.1272 -0.0447
  10.15163  10.15163  14.08493
