Protein in INSANE! Membrane UpperLeaflet>POPC=1.0 LowerLeaflet>POPC=1.0
11125
   22AUC    AUC    1   5.250   5.304   6.000
   23AUC    AUC    2   5.496   5.304   5.848
   24AUC    AUC    3   5.496   5.304   6.151
   25AUC    AUC    4   5.005   5.304   5.848
   26AUC    AUC    5   5.005   5.304   6.151
   27AUC    AUC    6   5.099   5.549   6.000
   28AUC    AUC    7   5.402   5.549   6.000
   29AUC    AUC    8   5.099   5.058   6.000
   30AUC    AUC    9   5.402   5.058   6.000
   31AUC    AUC   10   5.250   5.152   6.245
   32AUC    AUC   11   5.250   5.455   6.245
   33AUC    AUC   12   5.250   5.152   5.754
   34AUC    AUC   13   5.250   5.455   5.754
   35AUC    AUC   14   5.741   5.304   5.696
   36AUC    AUC   15   5.741   5.304   6.000
   37AUC    AUC   16   5.741   5.304   6.303
   38AUC    AUC   17   4.759   5.304   5.696
   39AUC    AUC   18   4.759   5.304   6.000
   40AUC    AUC   19   4.759   5.304   6.303
   41AUC    AUC   20   4.947   5.794   6.000
   42AUC    AUC   21   5.250   5.794   6.000
   43AUC    AUC   22   5.554   5.794   6.000
   44AUC    AUC   23   4.947   4.813   6.000
   45AUC    AUC   24   5.250   4.813   6.000
   46AUC    AUC   25   5.554   4.813   6.000
   47AUC    AUC   26   5.250   5.000   6.491
   48AUC    AUC   27   5.250   5.304   6.491
   49AUC    AUC   28   5.250   5.607   6.491
   50AUC    AUC   29   5.250   5.000   5.509
   51AUC    AUC   30   5.250   5.304   5.509
   52AUC    AUC   31   5.250   5.607   5.509
   53AUC    AUC   32   5.496   5.152   6.397
   54AUC    AUC   33   5.496   5.455   6.397
   55AUC    AUC   34   5.496   5.152   5.603
   56AUC    AUC   35   5.496   5.455   5.603
   57AUC    AUC   36   5.005   5.152   6.397
   58AUC    AUC   37   5.005   5.455   6.397
   59AUC    AUC   38   5.005   5.152   5.603
   60AUC    AUC   39   5.005   5.455   5.603
   61AUC    AUC   40   5.647   5.549   5.848
   62AUC    AUC   41   5.647   5.549   6.151
   63AUC    AUC   42   4.853   5.549   5.848
   64AUC    AUC   43   4.853   5.549   6.151
   65AUC    AUC   44   5.647   5.058   5.848
   66AUC    AUC   45   5.647   5.058   6.151
   67AUC    AUC   46   4.853   5.058   5.848
   68AUC    AUC   47   4.853   5.058   6.151
   69AUC    AUC   48   5.099   5.701   6.245
   70AUC    AUC   49   5.402   5.701   6.245
   71AUC    AUC   50   5.099   4.906   6.245
   72AUC    AUC   51   5.402   4.906   6.245
   73AUC    AUC   52   5.099   5.701   5.754
   74AUC    AUC   53   5.402   5.701   5.754
   75AUC    AUC   54   5.099   4.906   5.754
   76AUC    AUC   55   5.402   4.906   5.754
    1AUSL   AUS   56   5.659   5.304   6.580
    2AUSL   AUS   57   5.515   4.887   6.510
    3AUL    AUL   58   5.741   5.000   6.794
    4THSLK  S     59   5.633   4.699   6.656
    5ETHY   C1    60   5.729   4.331   6.911
    7ETHY   C1    61   5.907   3.948   7.253
    9ETHY   C1    62   6.149   3.648   7.630
   11ETHY   C1    63   6.445   3.429   8.034
   13THSLK  S     64   5.758   5.257   6.827
   14ETHY   C1    65   5.985   5.107   7.194
   16ETHY   C1    66   6.269   5.019   7.648
   18ETHY   C1    67   6.553   5.041   8.107
   20ETHY   C1    68   6.830   5.163   8.561
    1AUSL   AUS   69   5.414   5.152   6.673
    2AUSL   AUS   70   5.087   5.455   6.673
    3AUL    AUL   71   5.250   5.304   6.981
    4THSLK  S     72   5.495   5.101   6.918
    5ETHY   C1    73   5.585   4.883   7.310
    7ETHY   C1    74   5.713   4.709   7.808
    9ETHY   C1    75   5.859   4.644   8.323
   11ETHY   C1    76   6.016   4.678   8.846
   13THSLK  S     77   5.000   5.415   6.932
   14ETHY   C1    78   4.911   5.341   7.374
   16ETHY   C1    79   4.787   5.343   7.903
   18ETHY   C1    80   4.642   5.452   8.412
   20ETHY   C1    81   4.479   5.656   8.892
    1AUSL   AUS   82   5.414   5.455   6.673
    2AUSL   AUS   83   5.760   5.568   6.416
    3AUL    AUL   84   5.741   5.607   6.794
    4THSLK  S     85   5.501   5.507   6.916
    5ETHY   C1    86   5.589   5.724   7.309
    7ETHY   C1    87   5.714   5.897   7.808
    9ETHY   C1    88   5.859   5.963   8.323
   11ETHY   C1    89   6.022   5.930   8.845
   13THSLK  S     90   5.936   5.674   6.579
   14ETHY   C1    91   6.298   5.724   6.855
   16ETHY   C1    92   6.705   5.873   7.181
   18ETHY   C1    93   7.067   6.122   7.495
   20ETHY   C1    94   7.379   6.458   7.792
    1AUSL   AUS   95   5.659   5.304   5.420
    2AUSL   AUS   96   5.515   5.720   5.490
    3AUL    AUL   97   5.741   5.607   5.206
    4THSLK  S     98   5.763   5.257   5.176
    5ETHY   C1    99   5.990   5.107   4.808
    7ETHY   C1   100   6.269   5.019   4.351
    9ETHY   C1   101   6.553   5.041   3.893
   11ETHY   C1   102   6.835   5.163   3.441
   13THSLK  S    103   5.692   5.839   5.320
   14ETHY   C1   104   5.964   5.980   4.980
   16ETHY   C1   105   6.242   6.227   4.585
   18ETHY   C1   106   6.458   6.560   4.220
   20ETHY   C1   107   6.615   6.967   3.891
    1AUSL   AUS  108   5.414   5.152   5.326
    2AUSL   AUS  109   5.760   5.039   5.583
    3AUL    AUL  110   5.741   5.000   5.206
    4THSLK  S    111   5.900   4.848   5.439
    5ETHY   C1   112   6.133   4.531   5.207
    7ETHY   C1   113   6.463   4.224   4.903
    9ETHY   C1   114   6.843   4.015   4.583
   11ETHY   C1   115   7.264   3.898   4.254
   13THSLK  S    116   5.501   5.100   5.083
   14ETHY   C1   117   5.589   4.883   4.691
   16ETHY   C1   118   5.714   4.710   4.192
   18ETHY   C1   119   5.859   4.644   3.676
   20ETHY   C1   120   6.022   4.677   3.156
    1AUSL   AUS  121   5.414   5.455   5.326
    2AUSL   AUS  122   5.087   5.152   5.326
    3AUL    AUL  123   5.250   5.304   5.018
    4THSLK  S    124   4.991   5.100   5.086
    5ETHY   C1   125   4.852   4.885   4.706
    7ETHY   C1   126   4.695   4.714   4.217
    9ETHY   C1   127   4.556   4.648   3.699
   11ETHY   C1   128   4.440   4.679   3.166
   13THSLK  S    129   5.516   5.416   5.072
   14ETHY   C1   130   5.653   5.339   4.642
   16ETHY   C1   131   5.806   5.339   4.122
   18ETHY   C1   132   5.944   5.448   3.612
   20ETHY   C1   133   6.067   5.655   3.121
    1AUSL   AUS  134   4.841   5.304   6.580
    2AUSL   AUS  135   4.986   5.720   6.510
    3AUL    AUL  136   4.759   5.607   6.794
    4THSLK  S    137   4.737   5.257   6.824
    5ETHY   C1   138   4.511   5.107   7.191
    7ETHY   C1   139   4.231   5.019   7.648
    9ETHY   C1   140   3.948   5.041   8.107
   11ETHY   C1   141   3.665   5.163   8.558
   13THSLK  S    142   4.863   5.853   6.701
   14ETHY   C1   143   4.767   6.048   7.104
   16ETHY   C1   144   4.594   6.329   7.534
   18ETHY   C1   145   4.351   6.655   7.890
   20ETHY   C1   146   4.050   7.014   8.171
    1AUSL   AUS  147   5.087   5.152   6.673
    2AUSL   AUS  148   4.740   5.039   6.416
    3AUL    AUL  149   4.759   5.000   6.794
    4THSLK  S    150   4.561   4.873   6.532
    5ETHY   C1   151   4.200   4.626   6.666
    7ETHY   C1   152   3.795   4.360   6.910
    9ETHY   C1   153   3.434   4.140   7.245
   11ETHY   C1   154   3.118   3.967   7.656
   13THSLK  S    155   4.985   5.102   6.913
   14ETHY   C1   156   4.847   4.887   7.292
   16ETHY   C1   157   4.694   4.714   7.783
   18ETHY   C1   158   4.557   4.648   8.300
   20ETHY   C1   159   4.433   4.680   8.832
    1AUSL   AUS  160   4.841   5.304   5.420
    2AUSL   AUS  161   4.986   4.887   5.490
    3AUL    AUL  162   4.759   5.000   5.206
    4THSLK  S    163   4.742   5.257   5.173
    5ETHY   C1   164   4.515   5.107   4.805
    7ETHY   C1   165   4.232   5.019   4.351
    9ETHY   C1   166   3.948   5.041   3.893
   11ETHY   C1   167   3.671   5.163   3.438
   13THSLK  S    168   4.812   4.712   5.365
   14ETHY   C1   169   4.540   4.399   5.173
   16ETHY   C1   170   4.259   4.051   4.867
   18ETHY   C1   171   4.042   3.743   4.480
   20ETHY   C1   172   3.890   3.476   4.028
    1AUSL   AUS  173   5.087   5.455   5.326
    2AUSL   AUS  174   4.740   5.568   5.583
    3AUL    AUL  175   4.759   5.607   5.206
    4THSLK  S    176   4.604   5.699   5.393
    5ETHY   C1   177   4.370   5.820   5.018
    7ETHY   C1   178   4.038   6.008   4.632
    9ETHY   C1   179   3.658   6.247   4.333
   11ETHY   C1   180   3.241   6.527   4.118
   13THSLK  S    181   5.006   5.417   5.066
   14ETHY   C1   182   4.916   5.342   4.624
   16ETHY   C1   183   4.788   5.343   4.097
   18ETHY   C1   184   4.642   5.452   3.589
   20ETHY   C1   185   4.485   5.658   3.108
    1AUSL   AUS  186   5.830   5.713   6.000
    2AUSL   AUS  187   5.760   5.568   5.583
    3AUL    AUL  188   6.044   5.794   5.696
    4THSLK  S    189   5.940   5.675   5.425
    5ETHY   C1   190   6.301   5.725   5.148
    7ETHY   C1   191   6.705   5.873   4.819
    9ETHY   C1   192   7.067   6.122   4.505
   11ETHY   C1   193   7.383   6.459   4.213
   13THSLK  S    194   6.100   5.774   6.003
   14ETHY   C1   195   6.547   5.874   6.002
   16ETHY   C1   196   7.049   6.080   6.000
   18ETHY   C1   197   7.496   6.382   6.000
   20ETHY   C1   198   7.884   6.766   6.003
    1AUSL   AUS  199   5.924   5.467   5.848
    2AUSL   AUS  200   5.924   5.140   6.151
    3AUL    AUL  201   6.232   5.304   6.000
    4THSLK  S    202   6.186   5.514   5.845
    5ETHY   C1   203   6.636   5.483   5.770
    7ETHY   C1   204   7.168   5.538   5.679
    9ETHY   C1   205   7.675   5.701   5.591
   11ETHY   C1   206   8.150   5.959   5.511
   13THSLK  S    207   6.161   5.003   6.159
   14ETHY   C1   208   6.532   4.745   6.226
   16ETHY   C1   209   7.018   4.519   6.308
   18ETHY   C1   210   7.537   4.399   6.396
   20ETHY   C1   211   8.075   4.377   6.489
    1AUSL   AUS  212   5.924   5.467   6.151
    2AUSL   AUS  213   5.667   5.814   6.264
    3AUL    AUL  214   6.044   5.794   6.303
    4THSLK  S    215   5.852   5.938   6.424
    5ETHY   C1   216   6.209   6.130   6.635
    7ETHY   C1   217   6.586   6.437   6.877
    9ETHY   C1   218   6.887   6.824   7.102
   11ETHY   C1   219   7.114   7.275   7.309
   13THSLK  S    220   6.185   5.513   6.161
   14ETHY   C1   221   6.636   5.483   6.234
   16ETHY   C1   222   7.169   5.538   6.321
   18ETHY   C1   223   7.675   5.701   6.408
   20ETHY   C1   224   8.149   5.959   6.495
    1AUSL   AUS  225   4.670   5.713   6.000
    2AUSL   AUS  226   4.740   5.568   6.416
    3AUL    AUL  227   4.456   5.794   6.303
    4THSLK  S    228   4.600   5.694   6.607
    5ETHY   C1   229   4.367   5.815   6.981
    7ETHY   C1   230   4.038   6.008   7.368
    9ETHY   C1   231   3.658   6.247   7.666
   11ETHY   C1   232   3.237   6.522   7.881
   13THSLK  S    233   4.449   5.853   6.003
   14ETHY   C1   234   4.160   6.208   6.002
   16ETHY   C1   235   3.752   6.565   6.000
   18ETHY   C1   236   3.282   6.829   6.000
   20ETHY   C1   237   2.764   7.005   6.003
    1AUSL   AUS  238   4.577   5.467   5.848
    2AUSL   AUS  239   4.834   5.814   5.736
    3AUL    AUL  240   4.456   5.794   5.696
    4THSLK  S    241   4.340   5.581   5.803
    5ETHY   C1   242   3.968   5.755   5.601
    7ETHY   C1   243   3.482   5.931   5.436
    9ETHY   C1   244   2.964   6.063   5.368
   11ETHY   C1   245   2.426   6.155   5.390
   13THSLK  S    246   4.714   5.981   5.556
   14ETHY   C1   247   4.562   6.300   5.265
   16ETHY   C1   248   4.308   6.680   4.973
   18ETHY   C1   249   3.975   7.048   4.760
   20ETHY   C1   250   3.579   7.398   4.622
    1AUSL   AUS  251   4.577   5.467   6.151
    2AUSL   AUS  252   4.577   5.140   5.848
    3AUL    AUL  253   4.269   5.304   6.000
    4THSLK  S    254   4.315   5.065   5.884
    5ETHY   C1   255   3.865   5.014   5.946
    7ETHY   C1   256   3.332   4.911   5.934
    9ETHY   C1   257   2.825   4.761   5.827
   11ETHY   C1   258   2.352   4.568   5.635
   13THSLK  S    259   4.339   5.575   6.199
   14ETHY   C1   260   3.968   5.751   6.401
   16ETHY   C1   261   3.482   5.930   6.563
   18ETHY   C1   262   2.964   6.063   6.632
   20ETHY   C1   263   2.425   6.149   6.613
    1AUSL   AUS  264   5.830   4.894   6.000
    2AUSL   AUS  265   5.760   5.039   6.416
    3AUL    AUL  266   6.044   4.813   6.303
    4THSLK  S    267   6.051   4.754   6.003
    5ETHY   C1   268   6.340   4.399   6.002
    7ETHY   C1   269   6.749   4.042   6.000
    9ETHY   C1   270   7.219   3.778   6.000
   11ETHY   C1   271   7.736   3.602   6.003
   13THSLK  S    272   5.897   4.849   6.566
   14ETHY   C1   273   6.130   4.532   6.797
   16ETHY   C1   274   6.463   4.225   7.097
   18ETHY   C1   275   6.843   4.015   7.417
   20ETHY   C1   276   7.260   3.899   7.750
    1AUSL   AUS  277   5.924   5.140   5.848
    2AUSL   AUS  278   5.667   4.793   5.736
    3AUL    AUL  279   6.044   4.813   5.696
    4THSLK  S    280   6.162   5.003   5.846
    5ETHY   C1   281   6.533   4.745   5.779
    7ETHY   C1   282   7.018   4.519   5.692
    9ETHY   C1   283   7.537   4.399   5.603
   11ETHY   C1   284   8.076   4.377   5.518
   13THSLK  S    285   5.790   4.602   5.599
   14ETHY   C1   286   5.940   4.200   5.442
   16ETHY   C1   287   6.193   3.770   5.228
   18ETHY   C1   288   6.525   3.414   4.995
   20ETHY   C1   289   6.924   3.133   4.749
    1AUSL   AUS  290   4.670   4.894   6.000
    2AUSL   AUS  291   4.740   5.039   5.583
    3AUL    AUL  292   4.456   4.813   5.696
    4THSLK  S    293   4.565   4.868   5.466
    5ETHY   C1   294   4.203   4.622   5.333
    7ETHY   C1   295   3.795   4.359   5.089
    9ETHY   C1   296   3.434   4.140   4.755
   11ETHY   C1   297   3.122   3.962   4.343
   13THSLK  S    298   4.400   4.833   6.003
   14ETHY   C1   299   3.954   4.733   6.002
   16ETHY   C1   300   3.452   4.527   6.000
   18ETHY   C1   301   3.005   4.225   6.000
   20ETHY   C1   302   2.617   3.841   6.003
    1AUSL   AUS  303   4.577   5.140   6.151
    2AUSL   AUS  304   4.834   4.793   6.264
    3AUL    AUL  305   4.456   4.813   6.303
    4THSLK  S    306   4.646   4.645   6.381
    5ETHY   C1   307   4.290   4.369   6.458
    7ETHY   C1   308   3.915   4.012   6.622
    9ETHY   C1   309   3.614   3.638   6.866
   11ETHY   C1   310   3.383   3.256   7.182
   13THSLK  S    311   4.314   5.070   6.118
   14ETHY   C1   312   3.864   5.018   6.057
   16ETHY   C1   313   3.332   4.912   6.066
   18ETHY   C1   314   2.825   4.761   6.173
   20ETHY   C1   315   2.351   4.573   6.367
    1AUSL   AUS  316   5.250   5.884   6.409
    2AUSL   AUS  317   4.834   5.814   6.264
    3AUL    AUL  318   4.947   6.098   6.491
    4THSLK  S    319   4.711   5.976   6.448
    5ETHY   C1   320   4.560   6.296   6.737
    7ETHY   C1   321   4.307   6.679   7.027
    9ETHY   C1   322   3.975   7.047   7.240
   11ETHY   C1   323   3.576   7.393   7.381
   13THSLK  S    324   5.288   6.115   6.534
   14ETHY   C1   325   5.416   6.441   6.827
   16ETHY   C1   326   5.493   6.873   7.146
   18ETHY   C1   327   5.474   7.338   7.420
   20ETHY   C1   328   5.368   7.823   7.647
    1AUSL   AUS  329   5.099   5.977   6.163
    2AUSL   AUS  330   5.402   5.977   5.836
    3AUL    AUL  331   5.250   6.285   6.000
    4THSLK  S    332   5.136   6.229   6.272
    5ETHY   C1   333   5.209   6.653   6.429
    7ETHY   C1   334   5.206   7.169   6.595
    9ETHY   C1   335   5.098   7.680   6.729
   11ETHY   C1   336   4.894   8.176   6.836
   13THSLK  S    337   5.453   6.217   5.737
   14ETHY   C1   338   5.666   6.594   5.591
   16ETHY   C1   339   5.836   7.083   5.429
   18ETHY   C1   340   5.903   7.601   5.292
   20ETHY   C1   341   5.874   8.135   5.182
    1AUSL   AUS  342   5.402   5.977   6.163
    2AUSL   AUS  343   5.515   5.720   6.510
    3AUL    AUL  344   5.554   6.098   6.491
    4THSLK  S    345   5.688   5.837   6.683
    5ETHY   C1   346   5.961   5.978   7.022
    7ETHY   C1   347   6.242   6.227   7.415
    9ETHY   C1   348   6.458   6.560   7.779
   11ETHY   C1   349   6.610   6.965   8.114
   13THSLK  S    350   5.452   6.215   6.268
   14ETHY   C1   351   5.665   6.594   6.413
   16ETHY   C1   352   5.836   7.083   6.571
   18ETHY   C1   353   5.903   7.601   6.707
   20ETHY   C1   354   5.872   8.134   6.824
    1AUSL   AUS  355   5.250   4.723   6.409
    2AUSL   AUS  356   5.667   4.793   6.264
    3AUL    AUL  357   5.554   4.509   6.491
    4THSLK  S    358   5.209   4.466   6.492
    5ETHY   C1   359   5.082   4.057   6.651
    7ETHY   C1   360   5.008   3.576   6.891
    9ETHY   C1   361   5.027   3.124   7.184
   11ETHY   C1   362   5.129   2.706   7.521
   13THSLK  S    363   5.787   4.603   6.407
   14ETHY   C1   364   5.938   4.201   6.562
   16ETHY   C1   365   6.193   3.770   6.772
   18ETHY   C1   366   6.525   3.414   7.005
   20ETHY   C1   367   6.921   3.135   7.257
    1AUSL   AUS  368   5.099   4.630   6.163
    2AUSL   AUS  369   4.986   4.887   6.510
    3AUL    AUL  370   4.947   4.509   6.491
    4THSLK  S    371   5.048   4.385   6.244
    5ETHY   C1   372   4.835   3.986   6.312
    7ETHY   C1   373   4.664   3.483   6.425
    9ETHY   C1   374   4.598   2.969   6.572
   11ETHY   C1   375   4.627   2.454   6.752
   13THSLK  S    376   4.808   4.717   6.635
   14ETHY   C1   377   4.536   4.402   6.827
   16ETHY   C1   378   4.258   4.051   7.133
   18ETHY   C1   379   4.042   3.743   7.519
   20ETHY   C1   380   3.886   3.481   7.973
    1AUSL   AUS  381   5.402   4.630   6.163
    2AUSL   AUS  382   5.099   4.630   5.836
    3AUL    AUL  383   5.250   4.322   6.000
    4THSLK  S    384   5.049   4.383   5.761
    5ETHY   C1   385   4.836   3.985   5.692
    7ETHY   C1   386   4.664   3.483   5.576
    9ETHY   C1   387   4.598   2.969   5.427
   11ETHY   C1   388   4.629   2.452   5.254
   13THSLK  S    389   5.363   4.371   6.248
   14ETHY   C1   390   5.291   3.926   6.329
   16ETHY   C1   391   5.294   3.397   6.448
   18ETHY   C1   392   5.403   2.889   6.595
   20ETHY   C1   393   5.605   2.411   6.764
    1AUSL   AUS  394   5.250   5.884   5.591
    2AUSL   AUS  395   5.667   5.814   5.736
    3AUL    AUL  396   5.554   6.098   5.509
    4THSLK  S    397   5.292   6.118   5.471
    5ETHY   C1   398   5.419   6.443   5.176
    7ETHY   C1   399   5.493   6.873   4.853
    9ETHY   C1   400   5.474   7.338   4.580
   11ETHY   C1   401   5.371   7.826   4.357
   13THSLK  S    402   5.854   5.939   5.581
   14ETHY   C1   403   6.211   6.131   5.369
   16ETHY   C1   404   6.586   6.437   5.123
   18ETHY   C1   405   6.887   6.824   4.898
   20ETHY   C1   406   7.117   7.276   4.697
    1AUSL   AUS  407   5.099   5.977   5.836
    2AUSL   AUS  408   4.986   5.720   5.490
    3AUL    AUL  409   4.947   6.098   5.509
    4THSLK  S    410   5.138   6.231   5.733
    5ETHY   C1   411   5.210   6.654   5.574
    7ETHY   C1   412   5.207   7.170   5.406
    9ETHY   C1   413   5.098   7.680   5.270
   11ETHY   C1   414   4.896   8.178   5.170
   13THSLK  S    415   4.867   5.857   5.300
   14ETHY   C1   416   4.771   6.051   4.896
   16ETHY   C1   417   4.594   6.329   4.466
   18ETHY   C1   418   4.351   6.654   4.111
   20ETHY   C1   419   4.055   7.019   3.830
    1AUSL   AUS  420   5.250   4.723   5.591
    2AUSL   AUS  421   4.834   4.793   5.736
    3AUL    AUL  422   4.947   4.509   5.509
    4THSLK  S    423   4.649   4.640   5.622
    5ETHY   C1   424   4.292   4.366   5.544
    7ETHY   C1   425   3.915   4.012   5.378
    9ETHY   C1   426   3.613   3.638   5.133
   11ETHY   C1   427   3.386   3.251   4.821
   13THSLK  S    428   5.212   4.463   5.513
   14ETHY   C1   429   5.084   4.055   5.352
   16ETHY   C1   430   5.008   3.576   5.109
   18ETHY   C1   431   5.027   3.124   4.815
   20ETHY   C1   432   5.133   2.703   4.483
    1AUSL   AUS  433   5.402   4.630   5.836
    2AUSL   AUS  434   5.515   4.887   5.490
    3AUL    AUL  435   5.554   4.509   5.509
    4THSLK  S    436   5.365   4.370   5.758
    5ETHY   C1   437   5.292   3.925   5.675
    7ETHY   C1   438   5.294   3.397   5.552
    9ETHY   C1   439   5.402   2.889   5.405
   11ETHY   C1   440   5.607   2.410   5.242
   13THSLK  S    441   5.638   4.697   5.347
   14ETHY   C1   442   5.733   4.329   5.092
   16ETHY   C1   443   5.907   3.948   4.747
   18ETHY   C1   444   6.149   3.648   4.370
   20ETHY   C1   445   6.450   3.427   3.971
   21POPC   NC3  446  10.255   5.560   7.950
   21POPC   PO4  447  10.255   5.522   7.650
   21POPC   GL1  448  10.348   5.507   7.350
   21POPC   GL2  449  10.153   5.697   7.350
   21POPC   C1A  450  10.272   5.577   7.050
   21POPC   D2A  451  10.349   5.512   6.750
   21POPC   C3A  452  10.293   5.512   6.450
   21POPC   C4A  453  10.299   5.517   6.150
   21POPC   C1B  454  10.015   5.761   7.050
   21POPC   C2B  455  10.029   5.747   6.750
   21POPC   C3B  456  10.007   5.770   6.450
   21POPC   C4B  457  10.023   5.754   6.150
   22POPC   NC3  458   0.404   9.630   7.950
   22POPC   PO4  459   0.411   9.612   7.650
   22POPC   GL1  460   0.364   9.556   7.350
   22POPC   GL2  461   0.466   9.465   7.350
   22POPC   C1A  462   0.339   9.601   7.050
   22POPC   D2A  463   0.384   9.622   6.750
   22POPC   C3A  464   0.342   9.632   6.450
   22POPC   C4A  465   0.387   9.545   6.150
   22POPC   C1B  466   0.519   9.245   7.050
   22POPC   C2B  467   0.519   9.291   6.750
   22POPC   C3B  468   0.526   9.237   6.450
   22POPC   C4B  469   0.487   9.230   6.150
   23POPC   NC3  470   9.214   7.122   7.950
   23POPC   PO4  471   9.262   7.151   7.650
   23POPC   GL1  472   9.304   7.079   7.350
   23POPC   GL2  473   9.378   7.138   7.350
   23POPC   C1A  474   9.249   7.141   7.050
   23POPC   D2A  475   9.299   7.134   6.750
   23POPC   C3A  476   9.295   7.141   6.450
   23POPC   C4A  477   9.269   7.094   6.150
   23POPC   C1B  478   9.553   7.278   7.050
   23POPC   C2B  479   9.558   7.224   6.750
   23POPC   C3B  480   9.621   7.268   6.450
   23POPC   C4B  481   9.554   7.250   6.150
   24POPC   NC3  482   5.814   8.813   7.950
   24POPC   PO4  483   5.771   8.835   7.650
   24POPC   GL1  484   5.811   8.866   7.350
   24POPC   GL2  485   5.662   8.723   7.350
   24POPC   C1A  486   5.814   8.793   7.050
   24POPC   D2A  487   5.787   8.826   6.750
   24POPC   C3A  488   5.782   8.816   6.450
   24POPC   C4A  489   5.741   8.853   6.150
   24POPC   C1B  490   5.576   8.577   7.050
   24POPC   C2B  491   5.621   8.569   6.750
   24POPC   C3B  492   5.569   8.481   6.450
   24POPC   C4B  493   5.544   8.488   6.150
   25POPC   NC3  494   6.391   2.085   7.950
   25POPC   PO4  495   6.318   2.133   7.650
   25POPC   GL1  496   6.404   2.051   7.350
   25POPC   GL2  497   6.401   1.890   7.350
   25POPC   C1A  498   6.368   2.120   7.050
   25POPC   D2A  499   6.349   2.052   6.750
   25POPC   C3A  500   6.350   2.051   6.450
   25POPC   C4A  501   6.354   2.093   6.150
   25POPC   C1B  502   6.479   1.755   7.050
   25POPC   C2B  503   6.531   1.726   6.750
   25POPC   C3B  504   6.514   1.746   6.450
   25POPC   C4B  505   6.449   1.789   6.150
   26POPC   NC3  506   8.838   5.699   7.950
   26POPC   PO4  507   8.857   5.640   7.650
   26POPC   GL1  508   8.808   5.629   7.350
   26POPC   GL2  509   8.700   5.635   7.350
   26POPC   C1A  510   8.839   5.609   7.050
   26POPC   D2A  511   8.860   5.631   6.750
   26POPC   C3A  512   8.894   5.632   6.450
   26POPC   C4A  513   8.802   5.657   6.150
   26POPC   C1B  514   8.543   5.673   7.050
   26POPC   C2B  515   8.547   5.655   6.750
   26POPC   C3B  516   8.476   5.738   6.450
   26POPC   C4B  517   8.498   5.676   6.150
   27POPC   NC3  518   3.396   9.593   7.950
   27POPC   PO4  519   3.360   9.623   7.650
   27POPC   GL1  520   3.330   9.558   7.350
   27POPC   GL2  521   3.419   9.425   7.350
   27POPC   C1A  522   3.362   9.600   7.050
   27POPC   D2A  523   3.331   9.626   6.750
   27POPC   C3A  524   3.357   9.622   6.450
   27POPC   C4A  525   3.366   9.577   6.150
   27POPC   C1B  526   3.453   9.242   7.050
   27POPC   C2B  527   3.478   9.315   6.750
   27POPC   C3B  528   3.457   9.253   6.450
   27POPC   C4B  529   3.541   9.270   6.150
   28POPC   NC3  530   2.560   7.836   7.950
   28POPC   PO4  531   2.535   7.823   7.650
   28POPC   GL1  532   2.507   7.775   7.350
   28POPC   GL2  533   2.669   7.917   7.350
   28POPC   C1A  534   2.539   7.791   7.050
   28POPC   D2A  535   2.521   7.778   6.750
   28POPC   C3A  536   2.497   7.813   6.450
   28POPC   C4A  537   2.519   7.782   6.150
   28POPC   C1B  538   2.777   7.984   7.050
   28POPC   C2B  539   2.842   8.004   6.750
   28POPC   C3B  540   2.865   7.986   6.450
   28POPC   C4B  541   2.806   8.062   6.150
   29POPC   NC3  542   8.496   7.332   7.950
   29POPC   PO4  543   8.527   7.301   7.650
   29POPC   GL1  544   8.526   7.332   7.350
   29POPC   GL2  545   8.642   7.168   7.350
   29POPC   C1A  546   8.589   7.330   7.050
   29POPC   D2A  547   8.553   7.331   6.750
   29POPC   C3A  548   8.539   7.309   6.450
   29POPC   C4A  549   8.512   7.320   6.150
   29POPC   C1B  550   8.772   7.031   7.050
   29POPC   C2B  551   8.836   7.102   6.750
   29POPC   C3B  552   8.812   7.045   6.450
   29POPC   C4B  553   8.811   7.096   6.150
   30POPC   NC3  554   6.427   8.487   7.950
   30POPC   PO4  555   6.497   8.518   7.650
   30POPC   GL1  556   6.420   8.469   7.350
   30POPC   GL2  557   6.455   8.637   7.350
   30POPC   C1A  558   6.476   8.491   7.050
   30POPC   D2A  559   6.505   8.514   6.750
   30POPC   C3A  560   6.421   8.554   6.450
   30POPC   C4A  561   6.499   8.508   6.150
   30POPC   C1B  562   6.431   8.885   7.050
   30POPC   C2B  563   6.416   8.879   6.750
   30POPC   C3B  564   6.427   8.895   6.450
   30POPC   C4B  565   6.376   8.828   6.150
   31POPC   NC3  566   4.968   1.324   7.950
   31POPC   PO4  567   4.955   1.376   7.650
   31POPC   GL1  568   4.976   1.384   7.350
   31POPC   GL2  569   4.898   1.188   7.350
   31POPC   C1A  570   4.909   1.327   7.050
   31POPC   D2A  571   4.970   1.334   6.750
   31POPC   C3A  572   4.949   1.305   6.450
   31POPC   C4A  573   4.954   1.399   6.150
   31POPC   C1B  574   4.885   0.989   7.050
   31POPC   C2B  575   4.877   0.962   6.750
   31POPC   C3B  576   4.933   0.986   6.450
   31POPC   C4B  577   4.907   1.040   6.150
   32POPC   NC3  578  10.308   9.527   7.950
   32POPC   PO4  579  10.230   9.593   7.650
   32POPC   GL1  580  10.242   9.542   7.350
   32POPC   GL2  581  10.125   9.424   7.350
   32POPC   C1A  582  10.269   9.563   7.050
   32POPC   D2A  583  10.266   9.554   6.750
   32POPC   C3A  584  10.269   9.613   6.450
   32POPC   C4A  585  10.221   9.573   6.150
   32POPC   C1B  586  10.111   9.271   7.050
   32POPC   C2B  587  10.117   9.236   6.750
   32POPC   C3B  588  10.115   9.239   6.450
   32POPC   C4B  589  10.072   9.259   6.150
   33POPC   NC3  590   1.319   5.796   7.950
   33POPC   PO4  591   1.239   5.866   7.650
   33POPC   GL1  592   1.303   5.820   7.350
   33POPC   GL2  593   1.217   5.665   7.350
   33POPC   C1A  594   1.232   5.855   7.050
   33POPC   D2A  595   1.239   5.774   6.750
   33POPC   C3A  596   1.231   5.771   6.450
   33POPC   C4A  597   1.287   5.868   6.150
   33POPC   C1B  598   1.089   5.562   7.050
   33POPC   C2B  599   1.061   5.562   6.750
   33POPC   C3B  600   1.039   5.573   6.450
   33POPC   C4B  601   1.041   5.510   6.150
   34POPC   NC3  602   8.827   3.568   7.950
   34POPC   PO4  603   8.806   3.566   7.650
   34POPC   GL1  604   8.835   3.555   7.350
   34POPC   GL2  605   8.654   3.395   7.350
   34POPC   C1A  606   8.796   3.556   7.050
   34POPC   D2A  607   8.778   3.541   6.750
   34POPC   C3A  608   8.826   3.550   6.450
   34POPC   C4A  609   8.800   3.545   6.150
   34POPC   C1B  610   8.518   3.355   7.050
   34POPC   C2B  611   8.506   3.370   6.750
   34POPC   C3B  612   8.540   3.309   6.450
   34POPC   C4B  613   8.578   3.358   6.150
   35POPC   NC3  614   0.431   2.522   7.950
   35POPC   PO4  615   0.450   2.469   7.650
   35POPC   GL1  616   0.438   2.485   7.350
   35POPC   GL2  617   0.377   2.676   7.350
   35POPC   C1A  618   0.411   2.463   7.050
   35POPC   D2A  619   0.390   2.548   6.750
   35POPC   C3A  620   0.481   2.482   6.450
   35POPC   C4A  621   0.391   2.464   6.150
   35POPC   C1B  622   0.397   2.822   7.050
   35POPC   C2B  623   0.458   2.855   6.750
   35POPC   C3B  624   0.400   2.888   6.450
   35POPC   C4B  625   0.407   2.855   6.150
   36POPC   NC3  626   8.479   7.983   7.950
   36POPC   PO4  627   8.517   7.997   7.650
   36POPC   GL1  628   8.534   7.959   7.350
   36POPC   GL2  629   8.716   7.948   7.350
   36POPC   C1A  630   8.518   7.962   7.050
   36POPC   D2A  631   8.536   7.986   6.750
   36POPC   C3A  632   8.509   7.962   6.450
   36POPC   C4A  633   8.495   8.016   6.150
   36POPC   C1B  634   8.794   7.872   7.050
   36POPC   C2B  635   8.846   7.907   6.750
   36POPC   C3B  636   8.880   7.922   6.450
   36POPC   C4B  637   8.869   7.865   6.150
   37POPC   NC3  638   3.352  10.305   7.950
   37POPC   PO4  639   3.325  10.289   7.650
   37POPC   GL1  640   3.311  10.302   7.350
   37POPC   GL2  641   3.472  10.209   7.350
   37POPC   C1A  642   3.356  10.285   7.050
   37POPC   D2A  643   3.334  10.352   6.750
   37POPC   C3A  644   3.347  10.323   6.450
   37POPC   C4A  645   3.329  10.267   6.150
   37POPC   C1B  646   3.524   9.994   7.050
   37POPC   C2B  647   3.547  10.060   6.750
   37POPC   C3B  648   3.577   9.997   6.450
   37POPC   C4B  649   3.502  10.007   6.150
   38POPC   NC3  650   9.332   7.810   7.950
   38POPC   PO4  651   9.280   7.781   7.650
   38POPC   GL1  652   9.292   7.762   7.350
   38POPC   GL2  653   9.425   7.975   7.350
   38POPC   C1A  654   9.308   7.793   7.050
   38POPC   D2A  655   9.306   7.788   6.750
   38POPC   C3A  656   9.264   7.784   6.450
   38POPC   C4A  657   9.313   7.805   6.150
   38POPC   C1B  658   9.559   8.098   7.050
   38POPC   C2B  659   9.507   8.017   6.750
   38POPC   C3B  660   9.579   8.038   6.450
   38POPC   C4B  661   9.526   8.047   6.150
   39POPC   NC3  662   8.586   9.210   7.950
   39POPC   PO4  663   8.600   9.219   7.650
   39POPC   GL1  664   8.623   9.261   7.350
   39POPC   GL2  665   8.693   9.449   7.350
   39POPC   C1A  666   8.667   9.305   7.050
   39POPC   D2A  667   8.633   9.217   6.750
   39POPC   C3A  668   8.626   9.299   6.450
   39POPC   C4A  669   8.640   9.224   6.150
   39POPC   C1B  670   8.757   9.558   7.050
   39POPC   C2B  671   8.726   9.593   6.750
   39POPC   C3B  672   8.692   9.614   6.450
   39POPC   C4B  673   8.740   9.555   6.150
   40POPC   NC3  674   9.364   4.751   7.950
   40POPC   PO4  675   9.339   4.763   7.650
   40POPC   GL1  676   9.314   4.786   7.350
   40POPC   GL2  677   9.423   4.888   7.350
   40POPC   C1A  678   9.303   4.784   7.050
   40POPC   D2A  679   9.325   4.821   6.750
   40POPC   C3A  680   9.351   4.769   6.450
   40POPC   C4A  681   9.292   4.760   6.150
   40POPC   C1B  682   9.476   5.045   7.050
   40POPC   C2B  683   9.534   5.061   6.750
   40POPC   C3B  684   9.473   5.066   6.450
   40POPC   C4B  685   9.544   5.080   6.150
   41POPC   NC3  686   1.234   0.982   7.950
   41POPC   PO4  687   1.200   0.965   7.650
   41POPC   GL1  688   1.171   0.974   7.350
   41POPC   GL2  689   1.180   1.154   7.350
   41POPC   C1A  690   1.153   1.014   7.050
   41POPC   D2A  691   1.185   0.998   6.750
   41POPC   C3A  692   1.183   0.961   6.450
   41POPC   C4A  693   1.186   0.985   6.150
   41POPC   C1B  694   1.148   1.321   7.050
   41POPC   C2B  695   1.169   1.332   6.750
   41POPC   C3B  696   1.198   1.310   6.450
   41POPC   C4B  697   1.113   1.319   6.150
   42POPC   NC3  698   7.246   8.831   7.950
   42POPC   PO4  699   7.228   8.802   7.650
   42POPC   GL1  700   7.207   8.878   7.350
   42POPC   GL2  701   7.172   8.687   7.350
   42POPC   C1A  702   7.240   8.885   7.050
   42POPC   D2A  703   7.189   8.885   6.750
   42POPC   C3A  704   7.190   8.816   6.450
   42POPC   C4A  705   7.169   8.809   6.150
   42POPC   C1B  706   7.116   8.550   7.050
   42POPC   C2B  707   7.092   8.522   6.750
   42POPC   C3B  708   7.168   8.525   6.450
   42POPC   C4B  709   7.114   8.494   6.150
   43POPC   NC3  710   9.972   6.401   7.950
   43POPC   PO4  711   9.995   6.390   7.650
   43POPC   GL1  712   9.962   6.428   7.350
   43POPC   GL2  713  10.148   6.386   7.350
   43POPC   C1A  714  10.007   6.387   7.050
   43POPC   D2A  715   9.998   6.435   6.750
   43POPC   C3A  716  10.020   6.370   6.450
   43POPC   C4A  717  10.042   6.369   6.150
   43POPC   C1B  718  10.329   6.425   7.050
   43POPC   C2B  719  10.359   6.405   6.750
   43POPC   C3B  720  10.337   6.453   6.450
   43POPC   C4B  721  10.346   6.474   6.150
   44POPC   NC3  722   4.986   0.265   7.950
   44POPC   PO4  723   4.976   0.236   7.650
   44POPC   GL1  724   4.947   0.271   7.350
   44POPC   GL2  725   4.941   0.444   7.350
   44POPC   C1A  726   4.969   0.275   7.050
   44POPC   D2A  727   5.037   0.294   6.750
   44POPC   C3A  728   4.967   0.265   6.450
   44POPC   C4A  729   5.036   0.298   6.150
   44POPC   C1B  730   4.820   0.564   7.050
   44POPC   C2B  731   4.867   0.557   6.750
   44POPC   C3B  732   4.881   0.618   6.450
   44POPC   C4B  733   4.875   0.600   6.150
   45POPC   NC3  734   5.703   1.012   7.950
   45POPC   PO4  735   5.615   0.990   7.650
   45POPC   GL1  736   5.618   1.018   7.350
   45POPC   GL2  737   5.628   1.200   7.350
   45POPC   C1A  738   5.609   0.983   7.050
   45POPC   D2A  739   5.665   0.967   6.750
   45POPC   C3A  740   5.631   1.001   6.450
   45POPC   C4A  741   5.697   0.986   6.150
   45POPC   C1B  742   5.745   1.396   7.050
   45POPC   C2B  743   5.701   1.382   6.750
   45POPC   C3B  744   5.705   1.384   6.450
   45POPC   C4B  745   5.653   1.357   6.150
   46POPC   NC3  746   9.261   5.665   7.950
   46POPC   PO4  747   9.269   5.693   7.650
   46POPC   GL1  748   9.239   5.687   7.350
   46POPC   GL2  749   9.430   5.681   7.350
   46POPC   C1A  750   9.225   5.722   7.050
   46POPC   D2A  751   9.222   5.714   6.750
   46POPC   C3A  752   9.292   5.700   6.450
   46POPC   C4A  753   9.230   5.737   6.150
   46POPC   C1B  754   9.630   5.627   7.050
   46POPC   C2B  755   9.585   5.655   6.750
   46POPC   C3B  756   9.569   5.600   6.450
   46POPC   C4B  757   9.554   5.677   6.150
   47POPC   NC3  758   5.498   9.356   7.950
   47POPC   PO4  759   5.559   9.369   7.650
   47POPC   GL1  760   5.502   9.411   7.350
   47POPC   GL2  761   5.655   9.407   7.350
   47POPC   C1A  762   5.543   9.348   7.050
   47POPC   D2A  763   5.520   9.341   6.750
   47POPC   C3A  764   5.554   9.338   6.450
   47POPC   C4A  765   5.546   9.359   6.150
   47POPC   C1B  766   5.806   9.479   7.050
   47POPC   C2B  767   5.803   9.509   6.750
   47POPC   C3B  768   5.856   9.480   6.450
   47POPC   C4B  769   5.810   9.492   6.150
   48POPC   NC3  770   9.533   2.773   7.950
   48POPC   PO4  771   9.523   2.821   7.650
   48POPC   GL1  772   9.525   2.819   7.350
   48POPC   GL2  773   9.458   2.708   7.350
   48POPC   C1A  774   9.482   2.787   7.050
   48POPC   D2A  775   9.483   2.776   6.750
   48POPC   C3A  776   9.517   2.815   6.450
   48POPC   C4A  777   9.563   2.814   6.150
   48POPC   C1B  778   9.303   2.579   7.050
   48POPC   C2B  779   9.302   2.521   6.750
   48POPC   C3B  780   9.334   2.507   6.450
   48POPC   C4B  781   9.340   2.520   6.150
   49POPC   NC3  782   2.602   3.531   7.950
   49POPC   PO4  783   2.522   3.557   7.650
   49POPC   GL1  784   2.541   3.522   7.350
   49POPC   GL2  785   2.632   3.390   7.350
   49POPC   C1A  786   2.535   3.529   7.050
   49POPC   D2A  787   2.520   3.584   6.750
   49POPC   C3A  788   2.519   3.575   6.450
   49POPC   C4A  789   2.595   3.542   6.150
   49POPC   C1B  790   2.750   3.301   7.050
   49POPC   C2B  791   2.827   3.297   6.750
   49POPC   C3B  792   2.847   3.303   6.450
   49POPC   C4B  793   2.811   3.309   6.150
   50POPC   NC3  794   4.266  10.020   7.950
   50POPC   PO4  795   4.292  10.060   7.650
   50POPC   GL1  796   4.268  10.073   7.350
   50POPC   GL2  797   4.186  10.145   7.350
   50POPC   C1A  798   4.254  10.055   7.050
   50POPC   D2A  799   4.276  10.019   6.750
   50POPC   C3A  800   4.311  10.025   6.450
   50POPC   C4A  801   4.260  10.032   6.150
   50POPC   C1B  802   4.049  10.333   7.050
   50POPC   C2B  803   4.058  10.313   6.750
   50POPC   C3B  804   4.123  10.328   6.450
   50POPC   C4B  805   4.063  10.302   6.150
   51POPC   NC3  806   2.797   5.565   7.950
   51POPC   PO4  807   2.750   5.490   7.650
   51POPC   GL1  808   2.724   5.549   7.350
   51POPC   GL2  809   2.701   5.709   7.350
   51POPC   C1A  810   2.787   5.512   7.050
   51POPC   D2A  811   2.806   5.545   6.750
   51POPC   C3A  812   2.732   5.494   6.450
   51POPC   C4A  813   2.800   5.572   6.150
   51POPC   C1B  814   2.533   5.807   7.050
   51POPC   C2B  815   2.549   5.789   6.750
   51POPC   C3B  816   2.578   5.779   6.450
   51POPC   C4B  817   2.629   5.807   6.150
   52POPC   NC3  818   5.820  10.081   7.950
   52POPC   PO4  819   5.888  10.151   7.650
   52POPC   GL1  820   5.889  10.107   7.350
   52POPC   GL2  821   5.698  10.188   7.350
   52POPC   C1A  822   5.861  10.073   7.050
   52POPC   D2A  823   5.794  10.129   6.750
   52POPC   C3A  824   5.874  10.112   6.450
   52POPC   C4A  825   5.864  10.166   6.150
   52POPC   C1B  826   5.523  10.242   7.050
   52POPC   C2B  827   5.511  10.239   6.750
   52POPC   C3B  828   5.534  10.212   6.450
   52POPC   C4B  829   5.476  10.208   6.150
   53POPC   NC3  830   6.301   9.299   7.950
   53POPC   PO4  831   6.351   9.259   7.650
   53POPC   GL1  832   6.341   9.312   7.350
   53POPC   GL2  833   6.403   9.379   7.350
   53POPC   C1A  834   6.292   9.300   7.050
   53POPC   D2A  835   6.287   9.284   6.750
   53POPC   C3A  836   6.303   9.250   6.450
   53POPC   C4A  837   6.364   9.314   6.150
   53POPC   C1B  838   6.474   9.619   7.050
   53POPC   C2B  839   6.551   9.527   6.750
   53POPC   C3B  840   6.565   9.588   6.450
   53POPC   C4B  841   6.517   9.607   6.150
   54POPC   NC3  842   0.353   1.742   7.950
   54POPC   PO4  843   0.361   1.708   7.650
   54POPC   GL1  844   0.437   1.741   7.350
   54POPC   GL2  845   0.421   1.891   7.350
   54POPC   C1A  846   0.396   1.759   7.050
   54POPC   D2A  847   0.438   1.770   6.750
   54POPC   C3A  848   0.433   1.705   6.450
   54POPC   C4A  849   0.416   1.802   6.150
   54POPC   C1B  850   0.479   2.060   7.050
   54POPC   C2B  851   0.476   2.084   6.750
   54POPC   C3B  852   0.421   2.118   6.450
   54POPC   C4B  853   0.403   2.069   6.150
   55POPC   NC3  854   3.251   1.267   7.950
   55POPC   PO4  855   3.307   1.270   7.650
   55POPC   GL1  856   3.314   1.273   7.350
   55POPC   GL2  857   3.419   1.130   7.350
   55POPC   C1A  858   3.326   1.308   7.050
   55POPC   D2A  859   3.272   1.245   6.750
   55POPC   C3A  860   3.243   1.299   6.450
   55POPC   C4A  861   3.302   1.306   6.150
   55POPC   C1B  862   3.594   1.090   7.050
   55POPC   C2B  863   3.584   1.110   6.750
   55POPC   C3B  864   3.549   1.063   6.450
   55POPC   C4B  865   3.530   1.034   6.150
   56POPC   NC3  866  10.327   4.281   7.950
   56POPC   PO4  867  10.345   4.309   7.650
   56POPC   GL1  868  10.278   4.227   7.350
   56POPC   GL2  869  10.176   4.219   7.350
   56POPC   C1A  870  10.354   4.304   7.050
   56POPC   D2A  871  10.325   4.239   6.750
   56POPC   C3A  872  10.317   4.265   6.450
   56POPC   C4A  873  10.302   4.281   6.150
   56POPC   C1B  874   9.993   4.093   7.050
   56POPC   C2B  875  10.042   4.088   6.750
   56POPC   C3B  876  10.069   4.084   6.450
   56POPC   C4B  877  10.050   4.103   6.150
   57POPC   NC3  878   7.838   0.522   7.950
   57POPC   PO4  879   7.865   0.585   7.650
   57POPC   GL1  880   7.877   0.537   7.350
   57POPC   GL2  881   7.971   0.384   7.350
   57POPC   C1A  882   7.841   0.552   7.050
   57POPC   D2A  883   7.866   0.598   6.750
   57POPC   C3A  884   7.835   0.584   6.450
   57POPC   C4A  885   7.832   0.616   6.150
   57POPC   C1B  886   7.985   0.237   7.050
   57POPC   C2B  887   7.972   0.286   6.750
   57POPC   C3B  888   7.996   0.311   6.450
   57POPC   C4B  889   8.008   0.312   6.150
   58POPC   NC3  890   7.883   1.797   7.950
   58POPC   PO4  891   7.849   1.711   7.650
   58POPC   GL1  892   7.917   1.761   7.350
   58POPC   GL2  893   7.949   1.962   7.350
   58POPC   C1A  894   7.863   1.721   7.050
   58POPC   D2A  895   7.906   1.734   6.750
   58POPC   C3A  896   7.854   1.782   6.450
   58POPC   C4A  897   7.882   1.784   6.150
   58POPC   C1B  898   7.952   2.094   7.050
   58POPC   C2B  899   7.982   2.047   6.750
   58POPC   C3B  900   7.977   2.045   6.450
   58POPC   C4B  901   7.949   2.103   6.150
   59POPC   NC3  902  10.093   7.741   7.950
   59POPC   PO4  903  10.059   7.738   7.650
   59POPC   GL1  904  10.097   7.748   7.350
   59POPC   GL2  905  10.167   7.952   7.350
   59POPC   C1A  906  10.074   7.786   7.050
   59POPC   D2A  907  10.063   7.820   6.750
   59POPC   C3A  908  10.101   7.733   6.450
   59POPC   C4A  909  10.114   7.754   6.150
   59POPC   C1B  910  10.299   8.092   7.050
   59POPC   C2B  911  10.297   8.101   6.750
   59POPC   C3B  912  10.258   8.109   6.450
   59POPC   C4B  913  10.224   8.072   6.150
   60POPC   NC3  914   2.127   5.008   7.950
   60POPC   PO4  915   2.061   5.015   7.650
   60POPC   GL1  916   2.090   4.940   7.350
   60POPC   GL2  917   1.892   4.930   7.350
   60POPC   C1A  918   2.119   5.008   7.050
   60POPC   D2A  919   2.105   4.998   6.750
   60POPC   C3A  920   2.048   4.978   6.450
   60POPC   C4A  921   2.123   4.963   6.150
   60POPC   C1B  922   1.767   4.875   7.050
   60POPC   C2B  923   1.802   4.835   6.750
   60POPC   C3B  924   1.718   4.859   6.450
   60POPC   C4B  925   1.739   4.846   6.150
   61POPC   NC3  926   8.120   8.601   7.950
   61POPC   PO4  927   8.097   8.658   7.650
   61POPC   GL1  928   8.058   8.618   7.350
   61POPC   GL2  929   7.933   8.651   7.350
   61POPC   C1A  930   8.108   8.575   7.050
   61POPC   D2A  931   8.096   8.634   6.750
   61POPC   C3A  932   8.096   8.634   6.450
   61POPC   C4A  933   8.117   8.642   6.150
   61POPC   C1B  934   7.811   8.693   7.050
   61POPC   C2B  935   7.801   8.786   6.750
   61POPC   C3B  936   7.786   8.757   6.450
   61POPC   C4B  937   7.747   8.729   6.150
   62POPC   NC3  938   1.242   6.234   7.950
   62POPC   PO4  939   1.236   6.239   7.650
   62POPC   GL1  940   1.246   6.319   7.350
   62POPC   GL2  941   1.140   6.422   7.350
   62POPC   C1A  942   1.280   6.273   7.050
   62POPC   D2A  943   1.243   6.244   6.750
   62POPC   C3A  944   1.274   6.298   6.450
   62POPC   C4A  945   1.268   6.262   6.150
   62POPC   C1B  946   1.059   6.597   7.050
   62POPC   C2B  947   1.100   6.531   6.750
   62POPC   C3B  948   1.045   6.520   6.450
   62POPC   C4B  949   1.034   6.546   6.150
   63POPC   NC3  950   1.035   3.341   7.950
   63POPC   PO4  951   1.019   3.327   7.650
   63POPC   GL1  952   1.009   3.307   7.350
   63POPC   GL2  953   1.184   3.428   7.350
   63POPC   C1A  954   0.991   3.324   7.050
   63POPC   D2A  955   0.992   3.359   6.750
   63POPC   C3A  956   1.019   3.295   6.450
   63POPC   C4A  957   1.024   3.335   6.150
   63POPC   C1B  958   1.334   3.518   7.050
   63POPC   C2B  959   1.293   3.544   6.750
   63POPC   C3B  960   1.287   3.487   6.450
   63POPC   C4B  961   1.312   3.486   6.150
   64POPC   NC3  962   1.132   9.267   7.950
   64POPC   PO4  963   1.105   9.222   7.650
   64POPC   GL1  964   1.094   9.257   7.350
   64POPC   GL2  965   1.193   9.464   7.350
   64POPC   C1A  966   1.085   9.269   7.050
   64POPC   D2A  967   1.121   9.285   6.750
   64POPC   C3A  968   1.112   9.308   6.450
   64POPC   C4A  969   1.096   9.230   6.150
   64POPC   C1B  970   1.232   9.621   7.050
   64POPC   C2B  971   1.280   9.610   6.750
   64POPC   C3B  972   1.255   9.594   6.450
   64POPC   C4B  973   1.243   9.557   6.150
   65POPC   NC3  974   8.562   2.764   7.950
   65POPC   PO4  975   8.566   2.806   7.650
   65POPC   GL1  976   8.545   2.818   7.350
   65POPC   GL2  977   8.701   2.698   7.350
   65POPC   C1A  978   8.566   2.814   7.050
   65POPC   D2A  979   8.574   2.855   6.750
   65POPC   C3A  980   8.535   2.818   6.450
   65POPC   C4A  981   8.589   2.834   6.150
   65POPC   C1B  982   8.793   2.572   7.050
   65POPC   C2B  983   8.766   2.543   6.750
   65POPC   C3B  984   8.773   2.540   6.450
   65POPC   C4B  985   8.745   2.524   6.150
   66POPC   NC3  986   0.223   8.663   7.950
   66POPC   PO4  987   0.278   8.690   7.650
   66POPC   GL1  988   0.291   8.699   7.350
   66POPC   GL2  989   0.401   8.680   7.350
   66POPC   C1A  990   0.260   8.655   7.050
   66POPC   D2A  991   0.249   8.669   6.750
   66POPC   C3A  992   0.298   8.614   6.450
   66POPC   C4A  993   0.207   8.671   6.150
   66POPC   C1B  994   0.628   8.643   7.050
   66POPC   C2B  995   0.568   8.669   6.750
   66POPC   C3B  996   0.607   8.720   6.450
   66POPC   C4B  997   0.581   8.694   6.150
   67POPC   NC3  998   2.528   0.317   7.950
   67POPC   PO4  999   2.555   0.270   7.650
   67POPC   GL1 1000   2.580   0.290   7.350
   67POPC   GL2 1001   2.672   0.463   7.350
   67POPC   C1A 1002   2.577   0.246   7.050
   67POPC   D2A 1003   2.549   0.262   6.750
   67POPC   C3A 1004   2.608   0.308   6.450
   67POPC   C4A 1005   2.519   0.301   6.150
   67POPC   C1B 1006   2.834   0.576   7.050
   67POPC   C2B 1007   2.760   0.598   6.750
   67POPC   C3B 1008   2.754   0.605   6.450
   67POPC   C4B 1009   2.810   0.581   6.150
   68POPC   NC3 1010   9.643   0.356   7.950
   68POPC   PO4 1011   9.570   0.425   7.650
   68POPC   GL1 1012   9.605   0.353   7.350
   68POPC   GL2 1013   9.375   0.378   7.350
   68POPC   C1A 1014   9.643   0.422   7.050
   68POPC   D2A 1015   9.605   0.390   6.750
   68POPC   C3A 1016   9.564   0.428   6.450
   68POPC   C4A 1017   9.616   0.384   6.150
   68POPC   C1B 1018   9.296   0.498   7.050
   68POPC   C2B 1019   9.288   0.462   6.750
   68POPC   C3B 1020   9.274   0.479   6.450
   68POPC   C4B 1021   9.273   0.500   6.150
   69POPC   NC3 1022   4.274   1.291   7.950
   69POPC   PO4 1023   4.353   1.295   7.650
   69POPC   GL1 1024   4.346   1.310   7.350
   69POPC   GL2 1025   4.154   1.179   7.350
   69POPC   C1A 1026   4.315   1.240   7.050
   69POPC   D2A 1027   4.262   1.317   6.750
   69POPC   C3A 1028   4.261   1.294   6.450
   69POPC   C4A 1029   4.300   1.243   6.150
   69POPC   C1B 1030   3.996   1.061   7.050
   69POPC   C2B 1031   4.053   1.055   6.750
   69POPC   C3B 1032   4.038   1.020   6.450
   69POPC   C4B 1033   4.084   1.030   6.150
   70POPC   NC3 1034   3.451   2.826   7.950
   70POPC   PO4 1035   3.471   2.875   7.650
   70POPC   GL1 1036   3.453   2.830   7.350
   70POPC   GL2 1037   3.411   2.695   7.350
   70POPC   C1A 1038   3.455   2.878   7.050
   70POPC   D2A 1039   3.437   2.844   6.750
   70POPC   C3A 1040   3.473   2.827   6.450
   70POPC   C4A 1041   3.444   2.817   6.150
   70POPC   C1B 1042   3.409   2.502   7.050
   70POPC   C2B 1043   3.320   2.543   6.750
   70POPC   C3B 1044   3.382   2.557   6.450
   70POPC   C4B 1045   3.321   2.550   6.150
   71POPC   NC3 1046   2.762   1.369   7.950
   71POPC   PO4 1047   2.728   1.340   7.650
   71POPC   GL1 1048   2.808   1.274   7.350
   71POPC   GL2 1049   2.696   1.177   7.350
   71POPC   C1A 1050   2.797   1.323   7.050
   71POPC   D2A 1051   2.777   1.341   6.750
   71POPC   C3A 1052   2.787   1.290   6.450
   71POPC   C4A 1053   2.783   1.355   6.150
   71POPC   C1B 1054   2.554   0.985   7.050
   71POPC   C2B 1055   2.544   0.987   6.750
   71POPC   C3B 1056   2.589   1.032   6.450
   71POPC   C4B 1057   2.564   1.053   6.150
   72POPC   NC3 1058   3.455   8.087   7.950
   72POPC   PO4 1059   3.535   8.133   7.650
   72POPC   GL1 1060   3.527   8.084   7.350
   72POPC   GL2 1061   3.427   7.914   7.350
   72POPC   C1A 1062   3.522   8.095   7.050
   72POPC   D2A 1063   3.493   8.103   6.750
   72POPC   C3A 1064   3.462   8.041   6.450
   72POPC   C4A 1065   3.486   8.126   6.150
   72POPC   C1B 1066   3.374   7.741   7.050
   72POPC   C2B 1067   3.379   7.730   6.750
   72POPC   C3B 1068   3.319   7.718   6.450
   72POPC   C4B 1069   3.324   7.743   6.150
   73POPC   NC3 1070   3.370   8.863   7.950
   73POPC   PO4 1071   3.326   8.825   7.650
   73POPC   GL1 1072   3.388   8.784   7.350
   73POPC   GL2 1073   3.388   8.638   7.350
   73POPC   C1A 1074   3.343   8.802   7.050
   73POPC   D2A 1075   3.359   8.842   6.750
   73POPC   C3A 1076   3.321   8.781   6.450
   73POPC   C4A 1077   3.302   8.831   6.150
   73POPC   C1B 1078   3.468   8.480   7.050
   73POPC   C2B 1079   3.556   8.525   6.750
   73POPC   C3B 1080   3.531   8.533   6.450
   73POPC   C4B 1081   3.515   8.552   6.150
   74POPC   NC3 1082   1.150   4.297   7.950
   74POPC   PO4 1083   1.076   4.382   7.650
   74POPC   GL1 1084   1.103   4.350   7.350
   74POPC   GL2 1085   1.223   4.203   7.350
   74POPC   C1A 1086   1.126   4.322   7.050
   74POPC   D2A 1087   1.127   4.387   6.750
   74POPC   C3A 1088   1.121   4.360   6.450
   74POPC   C4A 1089   1.125   4.305   6.150
   74POPC   C1B 1090   1.236   3.985   7.050
   74POPC   C2B 1091   1.199   3.986   6.750
   74POPC   C3B 1092   1.236   4.056   6.450
   74POPC   C4B 1093   1.242   4.008   6.150
   75POPC   NC3 1094   9.497   8.529   7.950
   75POPC   PO4 1095   9.522   8.584   7.650
   75POPC   GL1 1096   9.526   8.554   7.350
   75POPC   GL2 1097   9.391   8.662   7.350
   75POPC   C1A 1098   9.580   8.515   7.050
   75POPC   D2A 1099   9.543   8.520   6.750
   75POPC   C3A 1100   9.537   8.582   6.450
   75POPC   C4A 1101   9.534   8.525   6.150
   75POPC   C1B 1102   9.336   8.841   7.050
   75POPC   C2B 1103   9.325   8.814   6.750
   75POPC   C3B 1104   9.308   8.834   6.450
   75POPC   C4B 1105   9.316   8.847   6.150
   76POPC   NC3 1106   1.358   7.905   7.950
   76POPC   PO4 1107   1.383   7.946   7.650
   76POPC   GL1 1108   1.350   7.943   7.350
   76POPC   GL2 1109   1.148   7.971   7.350
   76POPC   C1A 1110   1.325   7.981   7.050
   76POPC   D2A 1111   1.389   7.935   6.750
   76POPC   C3A 1112   1.303   7.983   6.450
   76POPC   C4A 1113   1.317   7.910   6.150
   76POPC   C1B 1114   0.973   7.912   7.050
   76POPC   C2B 1115   0.977   7.942   6.750
   76POPC   C3B 1116   0.960   7.881   6.450
   76POPC   C4B 1117   0.971   7.907   6.150
   77POPC   NC3 1118   1.747   7.141   7.950
   77POPC   PO4 1119   1.741   7.187   7.650
   77POPC   GL1 1120   1.761   7.182   7.350
   77POPC   GL2 1121   1.921   7.173   7.350
   77POPC   C1A 1122   1.769   7.118   7.050
   77POPC   D2A 1123   1.792   7.207   6.750
   77POPC   C3A 1124   1.733   7.196   6.450
   77POPC   C4A 1125   1.713   7.149   6.150
   77POPC   C1B 1126   2.102   7.209   7.050
   77POPC   C2B 1127   2.107   7.182   6.750
   77POPC   C3B 1128   2.059   7.183   6.450
   77POPC   C4B 1129   2.072   7.164   6.150
   78POPC   NC3 1130   7.035   9.384   7.950
   78POPC   PO4 1131   7.047   9.451   7.650
   78POPC   GL1 1132   7.028   9.407   7.350
   78POPC   GL2 1133   7.127   9.421   7.350
   78POPC   C1A 1134   6.956   9.444   7.050
   78POPC   D2A 1135   7.042   9.408   6.750
   78POPC   C3A 1136   7.028   9.419   6.450
   78POPC   C4A 1137   6.995   9.381   6.150
   78POPC   C1B 1138   7.385   9.489   7.050
   78POPC   C2B 1139   7.354   9.476   6.750
   78POPC   C3B 1140   7.314   9.430   6.450
   78POPC   C4B 1141   7.365   9.431   6.150
   79POPC   NC3 1142   0.388   8.129   7.950
   79POPC   PO4 1143   0.401   8.123   7.650
   79POPC   GL1 1144   0.393   8.081   7.350
   79POPC   GL2 1145   0.391   7.952   7.350
   79POPC   C1A 1146   0.394   8.100   7.050
   79POPC   D2A 1147   0.417   8.102   6.750
   79POPC   C3A 1148   0.376   8.098   6.450
   79POPC   C4A 1149   0.449   8.128   6.150
   79POPC   C1B 1150   0.455   7.794   7.050
   79POPC   C2B 1151   0.468   7.734   6.750
   79POPC   C3B 1152   0.451   7.746   6.450
   79POPC   C4B 1153   0.418   7.723   6.150
   80POPC   NC3 1154   2.598   2.047   7.950
   80POPC   PO4 1155   2.537   2.045   7.650
   80POPC   GL1 1156   2.569   2.022   7.350
   80POPC   GL2 1157   2.681   1.925   7.350
   80POPC   C1A 1158   2.600   2.083   7.050
   80POPC   D2A 1159   2.588   2.057   6.750
   80POPC   C3A 1160   2.614   2.044   6.450
   80POPC   C4A 1161   2.518   2.045   6.150
   80POPC   C1B 1162   2.739   1.805   7.050
   80POPC   C2B 1163   2.822   1.824   6.750
   80POPC   C3B 1164   2.790   1.760   6.450
   80POPC   C4B 1165   2.757   1.751   6.150
   81POPC   NC3 1166   4.180   2.845   7.950
   81POPC   PO4 1167   4.197   2.829   7.650
   81POPC   GL1 1168   4.148   2.819   7.350
   81POPC   GL2 1169   4.220   2.703   7.350
   81POPC   C1A 1170   4.209   2.802   7.050
   81POPC   D2A 1171   4.157   2.867   6.750
   81POPC   C3A 1172   4.179   2.868   6.450
   81POPC   C4A 1173   4.143   2.800   6.150
   81POPC   C1B 1174   4.173   2.529   7.050
   81POPC   C2B 1175   4.149   2.535   6.750
   81POPC   C3B 1176   4.185   2.497   6.450
   81POPC   C4B 1177   4.164   2.509   6.150
   82POPC   NC3 1178   2.691   8.849   7.950
   82POPC   PO4 1179   2.697   8.800   7.650
   82POPC   GL1 1180   2.666   8.838   7.350
   82POPC   GL2 1181   2.670   8.721   7.350
   82POPC   C1A 1182   2.674   8.893   7.050
   82POPC   D2A 1183   2.638   8.871   6.750
   82POPC   C3A 1184   2.708   8.858   6.450
   82POPC   C4A 1185   2.637   8.808   6.150
   82POPC   C1B 1186   2.652   8.543   7.050
   82POPC   C2B 1187   2.655   8.544   6.750
   82POPC   C3B 1188   2.708   8.460   6.450
   82POPC   C4B 1189   2.707   8.518   6.150
   83POPC   NC3 1190   5.715   0.293   7.950
   83POPC   PO4 1191   5.656   0.250   7.650
   83POPC   GL1 1192   5.734   0.253   7.350
   83POPC   GL2 1193   5.688   0.383   7.350
   83POPC   C1A 1194   5.708   0.249   7.050
   83POPC   D2A 1195   5.704   0.241   6.750
   83POPC   C3A 1196   5.724   0.274   6.450
   83POPC   C4A 1197   5.711   0.241   6.150
   83POPC   C1B 1198   5.652   0.621   7.050
   83POPC   C2B 1199   5.704   0.633   6.750
   83POPC   C3B 1200   5.637   0.593   6.450
   83POPC   C4B 1201   5.679   0.576   6.150
   84POPC   NC3 1202   9.250   4.248   7.950
   84POPC   PO4 1203   9.302   4.270   7.650
   84POPC   GL1 1204   9.264   4.176   7.350
   84POPC   GL2 1205   9.457   4.137   7.350
   84POPC   C1A 1206   9.208   4.205   7.050
   84POPC   D2A 1207   9.263   4.239   6.750
   84POPC   C3A 1208   9.304   4.225   6.450
   84POPC   C4A 1209   9.271   4.177   6.150
   84POPC   C1B 1210   9.580   4.119   7.050
   84POPC   C2B 1211   9.611   4.105   6.750
   84POPC   C3B 1212   9.551   4.087   6.450
   84POPC   C4B 1213   9.568   4.171   6.150
   85POPC   NC3 1214   1.268  10.285   7.950
   85POPC   PO4 1215   1.254  10.280   7.650
   85POPC   GL1 1216   1.305  10.286   7.350
   85POPC   GL2 1217   1.207  10.203   7.350
   85POPC   C1A 1218   1.273  10.286   7.050
   85POPC   D2A 1219   1.292  10.311   6.750
   85POPC   C3A 1220   1.287  10.349   6.450
   85POPC   C4A 1221   1.281  10.262   6.150
   85POPC   C1B 1222   1.079  10.083   7.050
   85POPC   C2B 1223   1.103  10.001   6.750
   85POPC   C3B 1224   1.012  10.086   6.450
   85POPC   C4B 1225   1.065  10.049   6.150
   86POPC   NC3 1226   0.231   1.090   7.950
   86POPC   PO4 1227   0.288   1.072   7.650
   86POPC   GL1 1228   0.217   1.079   7.350
   86POPC   GL2 1229   0.438   1.128   7.350
   86POPC   C1A 1230   0.223   1.125   7.050
   86POPC   D2A 1231   0.258   1.120   6.750
   86POPC   C3A 1232   0.264   1.087   6.450
   86POPC   C4A 1233   0.290   1.104   6.150
   86POPC   C1B 1234   0.556   1.216   7.050
   86POPC   C2B 1235   0.574   1.270   6.750
   86POPC   C3B 1236   0.594   1.185   6.450
   86POPC   C4B 1237   0.561   1.283   6.150
   87POPC   NC3 1238   8.747   6.269   7.950
   87POPC   PO4 1239   8.770   6.223   7.650
   87POPC   GL1 1240   8.769   6.220   7.350
   87POPC   GL2 1241   8.697   6.391   7.350
   87POPC   C1A 1242   8.755   6.238   7.050
   87POPC   D2A 1243   8.748   6.253   6.750
   87POPC   C3A 1244   8.708   6.261   6.450
   87POPC   C4A 1245   8.789   6.244   6.150
   87POPC   C1B 1246   8.574   6.563   7.050
   87POPC   C2B 1247   8.605   6.603   6.750
   87POPC   C3B 1248   8.617   6.551   6.450
   87POPC   C4B 1249   8.573   6.568   6.150
   88POPC   NC3 1250   7.963   9.285   7.950
   88POPC   PO4 1251   7.973   9.211   7.650
   88POPC   GL1 1252   7.934   9.295   7.350
   88POPC   GL2 1253   7.879   9.451   7.350
   88POPC   C1A 1254   8.009   9.303   7.050
   88POPC   D2A 1255   7.987   9.208   6.750
   88POPC   C3A 1256   7.938   9.242   6.450
   88POPC   C4A 1257   8.020   9.223   6.150
   88POPC   C1B 1258   7.925   9.616   7.050
   88POPC   C2B 1259   7.900   9.560   6.750
   88POPC   C3B 1260   7.889   9.628   6.450
   88POPC   C4B 1261   7.912   9.567   6.150
   89POPC   NC3 1262   1.379   4.916   7.950
   89POPC   PO4 1263   1.318   4.875   7.650
   89POPC   GL1 1264   1.371   4.847   7.350
   89POPC   GL2 1265   1.220   4.876   7.350
   89POPC   C1A 1266   1.359   4.844   7.050
   89POPC   D2A 1267   1.321   4.926   6.750
   89POPC   C3A 1268   1.383   4.916   6.450
   89POPC   C4A 1269   1.387   4.877   6.150
   89POPC   C1B 1270   1.041   4.963   7.050
   89POPC   C2B 1271   1.037   4.944   6.750
   89POPC   C3B 1272   1.001   4.993   6.450
   89POPC   C4B 1273   1.042   4.964   6.150
   90POPC   NC3 1274  10.099   2.041   7.950
   90POPC   PO4 1275  10.060   2.014   7.650
   90POPC   GL1 1276  10.030   2.073   7.350
   90POPC   GL2 1277  10.130   1.973   7.350
   90POPC   C1A 1278  10.023   2.046   7.050
   90POPC   D2A 1279  10.099   2.048   6.750
   90POPC   C3A 1280  10.016   2.082   6.450
   90POPC   C4A 1281  10.063   2.010   6.150
   90POPC   C1B 1282  10.311   1.785   7.050
   90POPC   C2B 1283  10.322   1.783   6.750
   90POPC   C3B 1284  10.303   1.845   6.450
   90POPC   C4B 1285  10.270   1.749   6.150
   91POPC   NC3 1286   7.077   1.036   7.950
   91POPC   PO4 1287   7.095   1.027   7.650
   91POPC   GL1 1288   7.068   1.001   7.350
   91POPC   GL2 1289   7.190   1.178   7.350
   91POPC   C1A 1290   7.056   1.065   7.050
   91POPC   D2A 1291   7.063   0.988   6.750
   91POPC   C3A 1292   7.115   0.997   6.450
   91POPC   C4A 1293   7.037   1.052   6.150
   91POPC   C1B 1294   7.297   1.314   7.050
   91POPC   C2B 1295   7.254   1.354   6.750
   91POPC   C3B 1296   7.231   1.267   6.450
   91POPC   C4B 1297   7.283   1.272   6.150
   92POPC   NC3 1298   0.333   4.009   7.950
   92POPC   PO4 1299   0.361   4.080   7.650
   92POPC   GL1 1300   0.277   4.061   7.350
   92POPC   GL2 1301   0.388   4.127   7.350
   92POPC   C1A 1302   0.358   4.025   7.050
   92POPC   D2A 1303   0.302   4.085   6.750
   92POPC   C3A 1304   0.324   4.003   6.450
   92POPC   C4A 1305   0.311   4.002   6.150
   92POPC   C1B 1306   0.552   4.264   7.050
   92POPC   C2B 1307   0.565   4.295   6.750
   92POPC   C3B 1308   0.485   4.289   6.450
   92POPC   C4B 1309   0.498   4.356   6.150
   93POPC   NC3 1310   1.887   6.605   7.950
   93POPC   PO4 1311   1.928   6.624   7.650
   93POPC   GL1 1312   1.911   6.554   7.350
   93POPC   GL2 1313   1.927   6.450   7.350
   93POPC   C1A 1314   1.941   6.595   7.050
   93POPC   D2A 1315   1.865   6.612   6.750
   93POPC   C3A 1316   1.942   6.582   6.450
   93POPC   C4A 1317   1.906   6.572   6.150
   93POPC   C1B 1318   1.957   6.238   7.050
   93POPC   C2B 1319   1.980   6.254   6.750
   93POPC   C3B 1320   1.902   6.292   6.450
   93POPC   C4B 1321   1.909   6.266   6.150
   94POPC   NC3 1322   9.967   0.374   7.950
   94POPC   PO4 1323  10.007   0.452   7.650
   94POPC   GL1 1324  10.034   0.461   7.350
   94POPC   GL2 1325  10.135   0.390   7.350
   94POPC   C1A 1326  10.017   0.397   7.050
   94POPC   D2A 1327   9.976   0.397   6.750
   94POPC   C3A 1328  10.000   0.447   6.450
   94POPC   C4A 1329   9.953   0.441   6.150
   94POPC   C1B 1330  10.399   0.426   7.050
   94POPC   C2B 1331  10.381   0.432   6.750
   94POPC   C3B 1332  10.334   0.443   6.450
   94POPC   C4B 1333  10.356   0.419   6.150
   95POPC   NC3 1334   6.475   8.070   7.950
   95POPC   PO4 1335   6.556   8.034   7.650
   95POPC   GL1 1336   6.543   8.066   7.350
   95POPC   GL2 1337   6.441   7.935   7.350
   95POPC   C1A 1338   6.499   8.090   7.050
   95POPC   D2A 1339   6.464   8.079   6.750
   95POPC   C3A 1340   6.474   8.079   6.450
   95POPC   C4A 1341   6.553   8.093   6.150
   95POPC   C1B 1342   6.380   7.808   7.050
   95POPC   C2B 1343   6.367   7.729   6.750
   95POPC   C3B 1344   6.386   7.750   6.450
   95POPC   C4B 1345   6.365   7.797   6.150
   96POPC   NC3 1346   1.739   8.702   7.950
   96POPC   PO4 1347   1.725   8.662   7.650
   96POPC   GL1 1348   1.784   8.627   7.350
   96POPC   GL2 1349   1.943   8.659   7.350
   96POPC   C1A 1350   1.719   8.647   7.050
   96POPC   D2A 1351   1.713   8.701   6.750
   96POPC   C3A 1352   1.728   8.629   6.450
   96POPC   C4A 1353   1.709   8.636   6.150
   96POPC   C1B 1354   2.134   8.700   7.050
   96POPC   C2B 1355   2.086   8.669   6.750
   96POPC   C3B 1356   2.078   8.667   6.450
   96POPC   C4B 1357   2.069   8.724   6.150
   97POPC   NC3 1358   1.743  10.105   7.950
   97POPC   PO4 1359   1.794  10.153   7.650
   97POPC   GL1 1360   1.772  10.108   7.350
   97POPC   GL2 1361   1.937  10.136   7.350
   97POPC   C1A 1362   1.785  10.140   7.050
   97POPC   D2A 1363   1.712  10.176   6.750
   97POPC   C3A 1364   1.783  10.101   6.450
   97POPC   C4A 1365   1.803  10.186   6.150
   97POPC   C1B 1366   2.070  10.229   7.050
   97POPC   C2B 1367   2.144  10.253   6.750
   97POPC   C3B 1368   2.049  10.216   6.450
   97POPC   C4B 1369   2.122  10.176   6.150
   98POPC   NC3 1370   0.410   7.343   7.950
   98POPC   PO4 1371   0.375   7.307   7.650
   98POPC   GL1 1372   0.366   7.371   7.350
   98POPC   GL2 1373   0.424   7.171   7.350
   98POPC   C1A 1374   0.406   7.353   7.050
   98POPC   D2A 1375   0.324   7.378   6.750
   98POPC   C3A 1376   0.413   7.308   6.450
   98POPC   C4A 1377   0.420   7.341   6.150
   98POPC   C1B 1378   0.478   7.010   7.050
   98POPC   C2B 1379   0.491   7.021   6.750
   98POPC   C3B 1380   0.452   6.979   6.450
   98POPC   C4B 1381   0.505   7.019   6.150
   99POPC   NC3 1382   2.018   1.309   7.950
   99POPC   PO4 1383   2.070   1.314   7.650
   99POPC   GL1 1384   2.075   1.277   7.350
   99POPC   GL2 1385   1.932   1.204   7.350
   99POPC   C1A 1386   2.034   1.259   7.050
   99POPC   D2A 1387   2.100   1.275   6.750
   99POPC   C3A 1388   2.089   1.261   6.450
   99POPC   C4A 1389   2.050   1.247   6.150
   99POPC   C1B 1390   1.766   1.008   7.050
   99POPC   C2B 1391   1.825   1.072   6.750
   99POPC   C3B 1392   1.827   1.099   6.450
   99POPC   C4B 1393   1.793   1.009   6.150
  100POPC   NC3 1394   2.520  10.130   7.950
  100POPC   PO4 1395   2.504  10.195   7.650
  100POPC   GL1 1396   2.532  10.193   7.350
  100POPC   GL2 1397   2.673  10.205   7.350
  100POPC   C1A 1398   2.517  10.114   7.050
  100POPC   D2A 1399   2.474  10.114   6.750
  100POPC   C3A 1400   2.540  10.136   6.450
  100POPC   C4A 1401   2.468  10.166   6.150
  100POPC   C1B 1402   2.866  10.246   7.050
  100POPC   C2B 1403   2.818  10.245   6.750
  100POPC   C3B 1404   2.876  10.230   6.450
  100POPC   C4B 1405   2.894  10.228   6.150
  101POPC   NC3 1406   8.115  10.090   7.950
  101POPC   PO4 1407   8.089  10.076   7.650
  101POPC   GL1 1408   8.093  10.031   7.350
  101POPC   GL2 1409   7.973  10.160   7.350
  101POPC   C1A 1410   8.018  10.075   7.050
  101POPC   D2A 1411   8.106  10.028   6.750
  101POPC   C3A 1412   8.062  10.124   6.450
  101POPC   C4A 1413   8.032  10.084   6.150
  101POPC   C1B 1414   7.788  10.320   7.050
  101POPC   C2B 1415   7.769  10.239   6.750
  101POPC   C3B 1416   7.774  10.276   6.450
  101POPC   C4B 1417   7.809  10.316   6.150
  102POPC   NC3 1418   1.356   7.205   7.950
  102POPC   PO4 1419   1.374   7.277   7.650
  102POPC   GL1 1420   1.362   7.271   7.350
  102POPC   GL2 1421   1.205   7.208   7.350
  102POPC   C1A 1422   1.303   7.289   7.050
  102POPC   D2A 1423   1.286   7.281   6.750
  102POPC   C3A 1424   1.338   7.234   6.450
  102POPC   C4A 1425   1.287   7.294   6.150
  102POPC   C1B 1426   1.000   7.054   7.050
  102POPC   C2B 1427   1.004   7.108   6.750
  102POPC   C3B 1428   1.006   7.060   6.450
  102POPC   C4B 1429   1.016   7.062   6.150
  103POPC   NC3 1430   7.032  10.182   7.950
  103POPC   PO4 1431   7.002  10.228   7.650
  103POPC   GL1 1432   7.003  10.253   7.350
  103POPC   GL2 1433   7.161  10.132   7.350
  103POPC   C1A 1434   7.045  10.253   7.050
  103POPC   D2A 1435   6.963  10.198   6.750
  103POPC   C3A 1436   7.014  10.226   6.450
  103POPC   C4A 1437   7.008  10.245   6.150
  103POPC   C1B 1438   7.372  10.137   7.050
  103POPC   C2B 1439   7.321  10.115   6.750
  103POPC   C3B 1440   7.381  10.160   6.450
  103POPC   C4B 1441   7.323  10.093   6.150
  104POPC   NC3 1442   4.046   0.476   7.950
  104POPC   PO4 1443   3.989   0.458   7.650
  104POPC   GL1 1444   3.990   0.484   7.350
  104POPC   GL2 1445   4.140   0.399   7.350
  104POPC   C1A 1446   3.983   0.429   7.050
  104POPC   D2A 1447   4.052   0.474   6.750
  104POPC   C3A 1448   4.019   0.480   6.450
  104POPC   C4A 1449   4.038   0.424   6.150
  104POPC   C1B 1450   4.310   0.368   7.050
  104POPC   C2B 1451   4.358   0.384   6.750
  104POPC   C3B 1452   4.371   0.420   6.450
  104POPC   C4B 1453   4.368   0.431   6.150
  105POPC   NC3 1454   1.780   2.747   7.950
  105POPC   PO4 1455   1.782   2.790   7.650
  105POPC   GL1 1456   1.794   2.785   7.350
  105POPC   GL2 1457   1.903   2.696   7.350
  105POPC   C1A 1458   1.812   2.777   7.050
  105POPC   D2A 1459   1.781   2.697   6.750
  105POPC   C3A 1460   1.745   2.711   6.450
  105POPC   C4A 1461   1.747   2.751   6.150
  105POPC   C1B 1462   2.049   2.606   7.050
  105POPC   C2B 1463   2.130   2.603   6.750
  105POPC   C3B 1464   2.053   2.653   6.450
  105POPC   C4B 1465   2.127   2.623   6.150
  106POPC   NC3 1466   8.726   5.095   7.950
  106POPC   PO4 1467   8.750   5.027   7.650
  106POPC   GL1 1468   8.784   5.062   7.350
  106POPC   GL2 1469   8.703   4.903   7.350
  106POPC   C1A 1470   8.802   5.064   7.050
  106POPC   D2A 1471   8.755   5.063   6.750
  106POPC   C3A 1472   8.755   5.035   6.450
  106POPC   C4A 1473   8.748   5.088   6.150
  106POPC   C1B 1474   8.546   4.811   7.050
  106POPC   C2B 1475   8.627   4.814   6.750
  106POPC   C3B 1476   8.558   4.739   6.450
  106POPC   C4B 1477   8.593   4.741   6.150
  107POPC   NC3 1478   9.955  10.167   7.950
  107POPC   PO4 1479  10.017  10.160   7.650
  107POPC   GL1 1480   9.981  10.131   7.350
  107POPC   GL2 1481  10.220  10.136   7.350
  107POPC   C1A 1482  10.046  10.185   7.050
  107POPC   D2A 1483   9.952  10.213   6.750
  107POPC   C3A 1484  10.024  10.169   6.450
  107POPC   C4A 1485   9.981  10.135   6.150
  107POPC   C1B 1486  10.304  10.200   7.050
  107POPC   C2B 1487  10.330  10.213   6.750
  107POPC   C3B 1488  10.358  10.163   6.450
  107POPC   C4B 1489  10.304  10.158   6.150
  108POPC   NC3 1490   1.356   1.983   7.950
  108POPC   PO4 1491   1.321   2.003   7.650
  108POPC   GL1 1492   1.363   1.950   7.350
  108POPC   GL2 1493   1.137   1.941   7.350
  108POPC   C1A 1494   1.383   1.926   7.050
  108POPC   D2A 1495   1.371   2.001   6.750
  108POPC   C3A 1496   1.340   1.938   6.450
  108POPC   C4A 1497   1.380   2.015   6.150
  108POPC   C1B 1498   1.029   1.909   7.050
  108POPC   C2B 1499   0.966   1.840   6.750
  108POPC   C3B 1500   0.979   1.851   6.450
  108POPC   C4B 1501   0.966   1.882   6.150
  109POPC   NC3 1502   8.095   4.977   7.950
  109POPC   PO4 1503   8.106   4.988   7.650
  109POPC   GL1 1504   8.066   4.956   7.350
  109POPC   GL2 1505   7.903   4.921   7.350
  109POPC   C1A 1506   8.054   4.988   7.050
  109POPC   D2A 1507   8.094   4.951   6.750
  109POPC   C3A 1508   8.117   4.971   6.450
  109POPC   C4A 1509   8.060   5.009   6.150
  109POPC   C1B 1510   7.786   4.835   7.050
  109POPC   C2B 1511   7.790   4.890   6.750
  109POPC   C3B 1512   7.734   4.895   6.450
  109POPC   C4B 1513   7.753   4.897   6.150
  110POPC   NC3 1514   5.544   1.872   7.950
  110POPC   PO4 1515   5.525   1.946   7.650
  110POPC   GL1 1516   5.509   1.967   7.350
  110POPC   GL2 1517   5.687   1.964   7.350
  110POPC   C1A 1518   5.503   1.962   7.050
  110POPC   D2A 1519   5.462   1.905   6.750
  110POPC   C3A 1520   5.478   1.926   6.450
  110POPC   C4A 1521   5.503   1.876   6.150
  110POPC   C1B 1522   5.833   1.959   7.050
  110POPC   C2B 1523   5.813   1.924   6.750
  110POPC   C3B 1524   5.853   1.897   6.450
  110POPC   C4B 1525   5.831   1.972   6.150
  111POPC   NC3 1526   2.068   7.907   7.950
  111POPC   PO4 1527   2.094   7.841   7.650
  111POPC   GL1 1528   2.128   7.888   7.350
  111POPC   GL2 1529   1.929   7.898   7.350
  111POPC   C1A 1530   2.100   7.823   7.050
  111POPC   D2A 1531   2.134   7.877   6.750
  111POPC   C3A 1532   2.111   7.897   6.450
  111POPC   C4A 1533   2.057   7.848   6.150
  111POPC   C1B 1534   1.743   8.029   7.050
  111POPC   C2B 1535   1.762   7.956   6.750
  111POPC   C3B 1536   1.796   7.950   6.450
  111POPC   C4B 1537   1.742   8.011   6.150
  112POPC   NC3 1538   9.265   3.590   7.950
  112POPC   PO4 1539   9.302   3.516   7.650
  112POPC   GL1 1540   9.357   3.547   7.350
  112POPC   GL2 1541   9.407   3.430   7.350
  112POPC   C1A 1542   9.345   3.534   7.050
  112POPC   D2A 1543   9.274   3.601   6.750
  112POPC   C3A 1544   9.266   3.583   6.450
  112POPC   C4A 1545   9.260   3.555   6.150
  112POPC   C1B 1546   9.581   3.254   7.050
  112POPC   C2B 1547   9.552   3.291   6.750
  112POPC   C3B 1548   9.569   3.330   6.450
  112POPC   C4B 1549   9.561   3.319   6.150
  113POPC   NC3 1550   0.226   4.850   7.950
  113POPC   PO4 1551   0.257   4.891   7.650
  113POPC   GL1 1552   0.250   4.920   7.350
  113POPC   GL2 1553   0.445   4.941   7.350
  113POPC   C1A 1554   0.294   4.869   7.050
  113POPC   D2A 1555   0.288   4.829   6.750
  113POPC   C3A 1556   0.239   4.875   6.450
  113POPC   C4A 1557   0.257   4.831   6.150
  113POPC   C1B 1558   0.616   5.015   7.050
  113POPC   C2B 1559   0.558   4.940   6.750
  113POPC   C3B 1560   0.594   4.979   6.450
  113POPC   C4B 1561   0.567   4.961   6.150
  114POPC   NC3 1562   1.309   8.867   7.950
  114POPC   PO4 1563   1.283   8.862   7.650
  114POPC   GL1 1564   1.294   8.825   7.350
  114POPC   GL2 1565   1.130   8.636   7.350
  114POPC   C1A 1566   1.217   8.854   7.050
  114POPC   D2A 1567   1.267   8.830   6.750
  114POPC   C3A 1568   1.271   8.841   6.450
  114POPC   C4A 1569   1.222   8.807   6.150
  114POPC   C1B 1570   1.116   8.479   7.050
  114POPC   C2B 1571   1.097   8.534   6.750
  114POPC   C3B 1572   1.137   8.539   6.450
  114POPC   C4B 1573   1.072   8.521   6.150
  115POPC   NC3 1574   6.371   0.971   7.950
  115POPC   PO4 1575   6.378   0.971   7.650
  115POPC   GL1 1576   6.418   1.037   7.350
  115POPC   GL2 1577   6.409   1.189   7.350
  115POPC   C1A 1578   6.436   1.040   7.050
  115POPC   D2A 1579   6.442   0.971   6.750
  115POPC   C3A 1580   6.373   1.043   6.450
  115POPC   C4A 1581   6.428   1.023   6.150
  115POPC   C1B 1582   6.411   1.396   7.050
  115POPC   C2B 1583   6.481   1.340   6.750
  115POPC   C3B 1584   6.406   1.386   6.450
  115POPC   C4B 1585   6.470   1.358   6.150
  116POPC   NC3 1586   3.362   1.792   7.950
  116POPC   PO4 1587   3.429   1.782   7.650
  116POPC   GL1 1588   3.373   1.766   7.350
  116POPC   GL2 1589   3.389   1.893   7.350
  116POPC   C1A 1590   3.432   1.795   7.050
  116POPC   D2A 1591   3.364   1.718   6.750
  116POPC   C3A 1592   3.353   1.779   6.450
  116POPC   C4A 1593   3.352   1.740   6.150
  116POPC   C1B 1594   3.437   2.062   7.050
  116POPC   C2B 1595   3.484   2.131   6.750
  116POPC   C3B 1596   3.435   2.094   6.450
  116POPC   C4B 1597   3.477   2.060   6.150
  117POPC   NC3 1598   6.327   0.282   7.950
  117POPC   PO4 1599   6.392   0.269   7.650
  117POPC   GL1 1600   6.373   0.236   7.350
  117POPC   GL2 1601   6.470   0.413   7.350
  117POPC   C1A 1602   6.343   0.258   7.050
  117POPC   D2A 1603   6.316   0.276   6.750
  117POPC   C3A 1604   6.357   0.279   6.450
  117POPC   C4A 1605   6.388   0.275   6.150
  117POPC   C1B 1606   6.453   0.557   7.050
  117POPC   C2B 1607   6.462   0.576   6.750
  117POPC   C3B 1608   6.476   0.604   6.450
  117POPC   C4B 1609   6.483   0.558   6.150
  118POPC   NC3 1610   1.000   2.561   7.950
  118POPC   PO4 1611   0.999   2.548   7.650
  118POPC   GL1 1612   1.060   2.598   7.350
  118POPC   GL2 1613   1.181   2.687   7.350
  118POPC   C1A 1614   1.043   2.559   7.050
  118POPC   D2A 1615   1.072   2.556   6.750
  118POPC   C3A 1616   1.059   2.532   6.450
  118POPC   C4A 1617   0.991   2.558   6.150
  118POPC   C1B 1618   1.353   2.763   7.050
  118POPC   C2B 1619   1.269   2.805   6.750
  118POPC   C3B 1620   1.276   2.799   6.450
  118POPC   C4B 1621   1.287   2.829   6.150
  119POPC   NC3 1622   1.929   4.380   7.950
  119POPC   PO4 1623   1.945   4.349   7.650
  119POPC   GL1 1624   1.909   4.382   7.350
  119POPC   GL2 1625   1.898   4.173   7.350
  119POPC   C1A 1626   1.894   4.335   7.050
  119POPC   D2A 1627   1.880   4.374   6.750
  119POPC   C3A 1628   1.862   4.369   6.450
  119POPC   C4A 1629   1.925   4.332   6.150
  119POPC   C1B 1630   1.952   4.012   7.050
  119POPC   C2B 1631   1.912   3.977   6.750
  119POPC   C3B 1632   1.910   3.952   6.450
  119POPC   C4B 1633   1.912   4.045   6.150
  120POPC   NC3 1634   7.830   2.882   7.950
  120POPC   PO4 1635   7.852   2.841   7.650
  120POPC   GL1 1636   7.899   2.846   7.350
  120POPC   GL2 1637   7.936   2.634   7.350
  120POPC   C1A 1638   7.820   2.845   7.050
  120POPC   D2A 1639   7.898   2.880   6.750
  120POPC   C3A 1640   7.869   2.855   6.450
  120POPC   C4A 1641   7.818   2.842   6.150
  120POPC   C1B 1642   7.940   2.519   7.050
  120POPC   C2B 1643   7.997   2.535   6.750
  120POPC   C3B 1644   7.983   2.521   6.450
  120POPC   C4B 1645   7.970   2.515   6.150
  121POPC   NC3 1646   1.042   0.265   7.950
  121POPC   PO4 1647   1.019   0.312   7.650
  121POPC   GL1 1648   1.107   0.289   7.350
  121POPC   GL2 1649   1.170   0.454   7.350
  121POPC   C1A 1650   1.085   0.329   7.050
  121POPC   D2A 1651   1.026   0.287   6.750
  121POPC   C3A 1652   1.034   0.321   6.450
  121POPC   C4A 1653   1.028   0.290   6.150
  121POPC   C1B 1654   1.245   0.559   7.050
  121POPC   C2B 1655   1.256   0.528   6.750
  121POPC   C3B 1656   1.248   0.531   6.450
  121POPC   C4B 1657   1.240   0.596   6.150
  122POPC   NC3 1658  10.019   4.873   7.950
  122POPC   PO4 1659  10.049   4.834   7.650
  122POPC   GL1 1660   9.988   4.841   7.350
  122POPC   GL2 1661  10.182   4.970   7.350
  122POPC   C1A 1662   9.994   4.851   7.050
  122POPC   D2A 1663   9.966   4.931   6.750
  122POPC   C3A 1664  10.037   4.873   6.450
  122POPC   C4A 1665  10.052   4.926   6.150
  122POPC   C1B 1666  10.331   4.986   7.050
  122POPC   C2B 1667  10.384   4.940   6.750
  122POPC   C3B 1668  10.346   5.003   6.450
  122POPC   C4B 1669  10.297   4.949   6.150
  123POPC   NC3 1670  10.253   7.028   7.950
  123POPC   PO4 1671  10.246   6.997   7.650
  123POPC   GL1 1672  10.238   7.043   7.350
  123POPC   GL2 1673  10.172   7.146   7.350
  123POPC   C1A 1674  10.286   7.013   7.050
  123POPC   D2A 1675  10.221   7.047   6.750
  123POPC   C3A 1676  10.266   6.978   6.450
  123POPC   C4A 1677  10.223   7.030   6.150
  123POPC   C1B 1678  10.084   7.311   7.050
  123POPC   C2B 1679  10.083   7.361   6.750
  123POPC   C3B 1680  10.156   7.354   6.450
  123POPC   C4B 1681  10.065   7.365   6.150
  124POPC   NC3 1682   8.030   6.308   7.950
  124POPC   PO4 1683   8.118   6.372   7.650
  124POPC   GL1 1684   8.092   6.313   7.350
  124POPC   GL2 1685   7.885   6.378   7.350
  124POPC   C1A 1686   8.074   6.294   7.050
  124POPC   D2A 1687   8.117   6.337   6.750
  124POPC   C3A 1688   8.083   6.363   6.450
  124POPC   C4A 1689   8.091   6.337   6.150
  124POPC   C1B 1690   7.801   6.476   7.050
  124POPC   C2B 1691   7.793   6.496   6.750
  124POPC   C3B 1692   7.730   6.502   6.450
  124POPC   C4B 1693   7.735   6.548   6.150
  125POPC   NC3 1694   1.985   2.109   7.950
  125POPC   PO4 1695   1.978   2.123   7.650
  125POPC   GL1 1696   1.916   2.115   7.350
  125POPC   GL2 1697   1.922   1.928   7.350
  125POPC   C1A 1698   1.956   2.123   7.050
  125POPC   D2A 1699   1.994   2.088   6.750
  125POPC   C3A 1700   1.970   2.067   6.450
  125POPC   C4A 1701   1.978   2.121   6.150
  125POPC   C1B 1702   1.852   1.704   7.050
  125POPC   C2B 1703   1.935   1.713   6.750
  125POPC   C3B 1704   1.923   1.709   6.450
  125POPC   C4B 1705   1.905   1.710   6.150
  126POPC   NC3 1706   9.366   6.323   7.950
  126POPC   PO4 1707   9.365   6.268   7.650
  126POPC   GL1 1708   9.301   6.245   7.350
  126POPC   GL2 1709   9.461   6.440   7.350
  126POPC   C1A 1710   9.337   6.293   7.050
  126POPC   D2A 1711   9.299   6.277   6.750
  126POPC   C3A 1712   9.351   6.326   6.450
  126POPC   C4A 1713   9.312   6.287   6.150
  126POPC   C1B 1714   9.517   6.539   7.050
  126POPC   C2B 1715   9.503   6.520   6.750
  126POPC   C3B 1716   9.503   6.545   6.450
  126POPC   C4B 1717   9.546   6.550   6.150
  127POPC   NC3 1718   2.742   2.510   7.950
  127POPC   PO4 1719   2.761   2.540   7.650
  127POPC   GL1 1720   2.795   2.550   7.350
  127POPC   GL2 1721   2.689   2.627   7.350
  127POPC   C1A 1722   2.808   2.497   7.050
  127POPC   D2A 1723   2.806   2.530   6.750
  127POPC   C3A 1724   2.763   2.535   6.450
  127POPC   C4A 1725   2.745   2.530   6.150
  127POPC   C1B 1726   2.529   2.765   7.050
  127POPC   C2B 1727   2.552   2.837   6.750
  127POPC   C3B 1728   2.529   2.824   6.450
  127POPC   C4B 1729   2.561   2.846   6.150
  128POPC   NC3 1730   6.285  10.053   7.950
  128POPC   PO4 1731   6.256  10.063   7.650
  128POPC   GL1 1732   6.246  10.110   7.350
  128POPC   GL2 1733   6.448  10.140   7.350
  128POPC   C1A 1734   6.279  10.098   7.050
  128POPC   D2A 1735   6.315  10.081   6.750
  128POPC   C3A 1736   6.284  10.038   6.450
  128POPC   C4A 1737   6.268  10.088   6.150
  128POPC   C1B 1738   6.541  10.301   7.050
  128POPC   C2B 1739   6.567  10.285   6.750
  128POPC   C3B 1740   6.527  10.241   6.450
  128POPC   C4B 1741   6.549  10.251   6.150
  129POPC   NC3 1742   1.834   5.813   7.950
  129POPC   PO4 1743   1.784   5.826   7.650
  129POPC   GL1 1744   1.824   5.746   7.350
  129POPC   GL2 1745   1.898   5.716   7.350
  129POPC   C1A 1746   1.769   5.747   7.050
  129POPC   D2A 1747   1.805   5.763   6.750
  129POPC   C3A 1748   1.759   5.819   6.450
  129POPC   C4A 1749   1.807   5.834   6.150
  129POPC   C1B 1750   2.011   5.529   7.050
  129POPC   C2B 1751   2.090   5.576   6.750
  129POPC   C3B 1752   2.007   5.513   6.450
  129POPC   C4B 1753   2.026   5.576   6.150
  130POPC   NC3 1754   0.555   3.316   7.950
  130POPC   PO4 1755   0.568   3.295   7.650
  130POPC   GL1 1756   0.582   3.315   7.350
  130POPC   GL2 1757   0.398   3.434   7.350
  130POPC   C1A 1758   0.569   3.302   7.050
  130POPC   D2A 1759   0.603   3.291   6.750
  130POPC   C3A 1760   0.518   3.312   6.450
  130POPC   C4A 1761   0.552   3.331   6.150
  130POPC   C1B 1762   0.272   3.521   7.050
  130POPC   C2B 1763   0.246   3.524   6.750
  130POPC   C3B 1764   0.313   3.572   6.450
  130POPC   C4B 1765   0.297   3.512   6.150
  131POPC   NC3 1766   6.497   2.795   7.950
  131POPC   PO4 1767   6.472   2.887   7.650
  131POPC   GL1 1768   6.476   2.810   7.350
  131POPC   GL2 1769   6.418   2.702   7.350
  131POPC   C1A 1770   6.466   2.810   7.050
  131POPC   D2A 1771   6.463   2.794   6.750
  131POPC   C3A 1772   6.516   2.808   6.450
  131POPC   C4A 1773   6.511   2.824   6.150
  131POPC   C1B 1774   6.396   2.457   7.050
  131POPC   C2B 1775   6.388   2.500   6.750
  131POPC   C3B 1776   6.395   2.516   6.450
  131POPC   C4B 1777   6.347   2.554   6.150
  132POPC   NC3 1778  10.087   8.548   7.950
  132POPC   PO4 1779  10.081   8.511   7.650
  132POPC   GL1 1780  10.048   8.505   7.350
  132POPC   GL2 1781  10.144   8.672   7.350
  132POPC   C1A 1782  10.024   8.562   7.050
  132POPC   D2A 1783  10.053   8.578   6.750
  132POPC   C3A 1784  10.076   8.561   6.450
  132POPC   C4A 1785  10.067   8.583   6.150
  132POPC   C1B 1786  10.275   8.799   7.050
  132POPC   C2B 1787  10.251   8.792   6.750
  132POPC   C3B 1788  10.299   8.840   6.450
  132POPC   C4B 1789  10.333   8.800   6.150
  133POPC   NC3 1790  10.056   3.329   7.950
  133POPC   PO4 1791  10.034   3.315   7.650
  133POPC   GL1 1792   9.978   3.325   7.350
  133POPC   GL2 1793  10.167   3.383   7.350
  133POPC   C1A 1794   9.966   3.391   7.050
  133POPC   D2A 1795   9.988   3.353   6.750
  133POPC   C3A 1796  10.034   3.315   6.450
  133POPC   C4A 1797  10.040   3.389   6.150
  133POPC   C1B 1798  10.315   3.487   7.050
  133POPC   C2B 1799  10.297   3.528   6.750
  133POPC   C3B 1800  10.301   3.509   6.450
  133POPC   C4B 1801  10.293   3.526   6.150
  134POPC   NC3 1802   7.028   0.317   7.950
  134POPC   PO4 1803   7.005   0.315   7.650
  134POPC   GL1 1804   7.001   0.316   7.350
  134POPC   GL2 1805   7.212   0.429   7.350
  134POPC   C1A 1806   7.071   0.289   7.050
  134POPC   D2A 1807   7.010   0.337   6.750
  134POPC   C3A 1808   7.037   0.283   6.450
  134POPC   C4A 1809   7.055   0.317   6.150
  134POPC   C1B 1810   7.276   0.516   7.050
  134POPC   C2B 1811   7.335   0.588   6.750
  134POPC   C3B 1812   7.304   0.556   6.450
  134POPC   C4B 1813   7.298   0.495   6.150
  135POPC   NC3 1814   9.343  10.335   7.950
  135POPC   PO4 1815   9.339  10.351   7.650
  135POPC   GL1 1816   9.279  10.317   7.350
  135POPC   GL2 1817   9.397  10.156   7.350
  135POPC   C1A 1818   9.348  10.309   7.050
  135POPC   D2A 1819   9.314  10.355   6.750
  135POPC   C3A 1820   9.278  10.347   6.450
  135POPC   C4A 1821   9.324  10.305   6.150
  135POPC   C1B 1822   9.523  10.057   7.050
  135POPC   C2B 1823   9.557  10.087   6.750
  135POPC   C3B 1824   9.553  10.087   6.450
  135POPC   C4B 1825   9.580  10.091   6.150
  136POPC   NC3 1826   8.121   1.163   7.950
  136POPC   PO4 1827   8.106   1.178   7.650
  136POPC   GL1 1828   8.064   1.239   7.350
  136POPC   GL2 1829   7.884   1.144   7.350
  136POPC   C1A 1830   8.078   1.178   7.050
  136POPC   D2A 1831   8.086   1.181   6.750
  136POPC   C3A 1832   8.135   1.224   6.450
  136POPC   C4A 1833   8.111   1.236   6.150
  136POPC   C1B 1834   7.743   1.176   7.050
  136POPC   C2B 1835   7.708   1.199   6.750
  136POPC   C3B 1836   7.745   1.142   6.450
  136POPC   C4B 1837   7.782   1.147   6.150
  137POPC   NC3 1838   9.292   9.576   7.950
  137POPC   PO4 1839   9.320   9.541   7.650
  137POPC   GL1 1840   9.299   9.575   7.350
  137POPC   GL2 1841   9.398   9.458   7.350
  137POPC   C1A 1842   9.270   9.553   7.050
  137POPC   D2A 1843   9.276   9.576   6.750
  137POPC   C3A 1844   9.317   9.480   6.450
  137POPC   C4A 1845   9.259   9.546   6.150
  137POPC   C1B 1846   9.579   9.301   7.050
  137POPC   C2B 1847   9.553   9.318   6.750
  137POPC   C3B 1848   9.615   9.298   6.450
  137POPC   C4B 1849   9.577   9.279   6.150
  138POPC   NC3 1850   0.615   5.729   7.950
  138POPC   PO4 1851   0.541   5.778   7.650
  138POPC   GL1 1852   0.595   5.781   7.350
  138POPC   GL2 1853   0.446   5.698   7.350
  138POPC   C1A 1854   0.551   5.734   7.050
  138POPC   D2A 1855   0.617   5.784   6.750
  138POPC   C3A 1856   0.611   5.722   6.450
  138POPC   C4A 1857   0.576   5.768   6.150
  138POPC   C1B 1858   0.294   5.562   7.050
  138POPC   C2B 1859   0.273   5.597   6.750
  138POPC   C3B 1860   0.242   5.644   6.450
  138POPC   C4B 1861   0.245   5.643   6.150
  139POPC   NC3 1862   4.248   2.128   7.950
  139POPC   PO4 1863   4.241   2.128   7.650
  139POPC   GL1 1864   4.283   2.077   7.350
  139POPC   GL2 1865   4.207   1.882   7.350
  139POPC   C1A 1866   4.259   2.039   7.050
  139POPC   D2A 1867   4.259   2.054   6.750
  139POPC   C3A 1868   4.218   2.104   6.450
  139POPC   C4A 1869   4.289   2.109   6.150
  139POPC   C1B 1870   4.075   1.798   7.050
  139POPC   C2B 1871   4.137   1.788   6.750
  139POPC   C3B 1872   4.115   1.755   6.450
  139POPC   C4B 1873   4.101   1.794   6.150
  140POPC   NC3 1874   1.815   9.539   7.950
  140POPC   PO4 1875   1.725   9.484   7.650
  140POPC   GL1 1876   1.791   9.508   7.350
  140POPC   GL2 1877   1.929   9.438   7.350
  140POPC   C1A 1878   1.815   9.517   7.050
  140POPC   D2A 1879   1.817   9.533   6.750
  140POPC   C3A 1880   1.720   9.520   6.450
  140POPC   C4A 1881   1.735   9.458   6.150
  140POPC   C1B 1882   2.088   9.389   7.050
  140POPC   C2B 1883   2.125   9.313   6.750
  140POPC   C3B 1884   2.097   9.324   6.450
  140POPC   C4B 1885   2.126   9.311   6.150
  141POPC   NC3 1886   8.487   1.791   7.950
  141POPC   PO4 1887   8.571   1.789   7.650
  141POPC   GL1 1888   8.560   1.851   7.350
  141POPC   GL2 1889   8.642   1.943   7.350
  141POPC   C1A 1890   8.557   1.779   7.050
  141POPC   D2A 1891   8.516   1.794   6.750
  141POPC   C3A 1892   8.506   1.831   6.450
  141POPC   C4A 1893   8.553   1.782   6.150
  141POPC   C1B 1894   8.773   2.046   7.050
  141POPC   C2B 1895   8.825   2.027   6.750
  141POPC   C3B 1896   8.821   2.060   6.450
  141POPC   C4B 1897   8.768   2.061   6.150
  142POPC   NC3 1898   8.733  10.371   7.950
  142POPC   PO4 1899   8.715  10.302   7.650
  142POPC   GL1 1900   8.702  10.354   7.350
  142POPC   GL2 1901   8.638  10.186   7.350
  142POPC   C1A 1902   8.716  10.354   7.050
  142POPC   D2A 1903   8.649  10.302   6.750
  142POPC   C3A 1904   8.673  10.320   6.450
  142POPC   C4A 1905   8.637  10.390   6.150
  142POPC   C1B 1906   8.634   9.970   7.050
  142POPC   C2B 1907   8.648   9.958   6.750
  142POPC   C3B 1908   8.677   9.965   6.450
  142POPC   C4B 1909   8.640   9.970   6.150
  143POPC   NC3 1910   1.945   3.547   7.950
  143POPC   PO4 1911   1.997   3.604   7.650
  143POPC   GL1 1912   1.966   3.565   7.350
  143POPC   GL2 1913   1.890   3.405   7.350
  143POPC   C1A 1914   1.982   3.606   7.050
  143POPC   D2A 1915   2.021   3.576   6.750
  143POPC   C3A 1916   1.966   3.630   6.450
  143POPC   C4A 1917   1.942   3.601   6.150
  143POPC   C1B 1918   1.901   3.276   7.050
  143POPC   C2B 1919   1.909   3.253   6.750
  143POPC   C3B 1920   1.866   3.263   6.450
  143POPC   C4B 1921   1.879   3.251   6.150
  144POPC   NC3 1922   5.112   1.920   7.950
  144POPC   PO4 1923   5.079   1.906   7.650
  144POPC   GL1 1924   5.124   1.917   7.350
  144POPC   GL2 1925   4.888   1.899   7.350
  144POPC   C1A 1926   5.132   1.891   7.050
  144POPC   D2A 1927   5.112   1.873   6.750
  144POPC   C3A 1928   5.133   1.855   6.450
  144POPC   C4A 1929   5.074   1.870   6.150
  144POPC   C1B 1930   4.759   1.951   7.050
  144POPC   C2B 1931   4.800   1.943   6.750
  144POPC   C3B 1932   4.708   1.969   6.450
  144POPC   C4B 1933   4.789   1.946   6.150
  145POPC   NC3 1934   2.560   9.548   7.950
  145POPC   PO4 1935   2.606   9.592   7.650
  145POPC   GL1 1936   2.622   9.546   7.350
  145POPC   GL2 1937   2.700   9.446   7.350
  145POPC   C1A 1938   2.556   9.618   7.050
  145POPC   D2A 1939   2.580   9.584   6.750
  145POPC   C3A 1940   2.612   9.569   6.450
  145POPC   C4A 1941   2.563   9.545   6.150
  145POPC   C1B 1942   2.789   9.313   7.050
  145POPC   C2B 1943   2.771   9.294   6.750
  145POPC   C3B 1944   2.727   9.236   6.450
  145POPC   C4B 1945   2.723   9.249   6.150
  146POPC   NC3 1946   7.241   2.107   7.950
  146POPC   PO4 1947   7.253   2.086   7.650
  146POPC   GL1 1948   7.267   2.103   7.350
  146POPC   GL2 1949   7.210   1.942   7.350
  146POPC   C1A 1950   7.244   2.084   7.050
  146POPC   D2A 1951   7.320   2.108   6.750
  146POPC   C3A 1952   7.241   2.043   6.450
  146POPC   C4A 1953   7.290   2.087   6.150
  146POPC   C1B 1954   7.016   1.804   7.050
  146POPC   C2B 1955   7.036   1.795   6.750
  146POPC   C3B 1956   7.047   1.834   6.450
  146POPC   C4B 1957   7.048   1.771   6.150
  147POPC   NC3 1958   3.351   0.326   7.950
  147POPC   PO4 1959   3.289   0.327   7.650
  147POPC   GL1 1960   3.281   0.252   7.350
  147POPC   GL2 1961   3.425   0.405   7.350
  147POPC   C1A 1962   3.285   0.346   7.050
  147POPC   D2A 1963   3.283   0.257   6.750
  147POPC   C3A 1964   3.317   0.258   6.450
  147POPC   C4A 1965   3.311   0.274   6.150
  147POPC   C1B 1966   3.509   0.546   7.050
  147POPC   C2B 1967   3.502   0.578   6.750
  147POPC   C3B 1968   3.593   0.602   6.450
  147POPC   C4B 1969   3.530   0.550   6.150
  148POPC   NC3 1970   8.468   1.230   7.950
  148POPC   PO4 1971   8.524   1.226   7.650
  148POPC   GL1 1972   8.493   1.198   7.350
  148POPC   GL2 1973   8.665   1.164   7.350
  148POPC   C1A 1974   8.521   1.238   7.050
  148POPC   D2A 1975   8.516   1.190   6.750
  148POPC   C3A 1976   8.482   1.199   6.450
  148POPC   C4A 1977   8.521   1.210   6.150
  148POPC   C1B 1978   8.856   1.148   7.050
  148POPC   C2B 1979   8.843   1.155   6.750
  148POPC   C3B 1980   8.832   1.167   6.450
  148POPC   C4B 1981   8.812   1.163   6.150
  149POPC   NC3 1982   7.799   7.965   7.950
  149POPC   PO4 1983   7.763   7.967   7.650
  149POPC   GL1 1984   7.713   8.022   7.350
  149POPC   GL2 1985   7.959   7.974   7.350
  149POPC   C1A 1986   7.769   7.943   7.050
  149POPC   D2A 1987   7.737   8.032   6.750
  149POPC   C3A 1988   7.789   7.949   6.450
  149POPC   C4A 1989   7.786   7.986   6.150
  149POPC   C1B 1990   8.060   7.885   7.050
  149POPC   C2B 1991   8.103   7.834   6.750
  149POPC   C3B 1992   8.041   7.870   6.450
  149POPC   C4B 1993   8.092   7.892   6.150
  150POPC   NC3 1994   7.354   7.843   7.950
  150POPC   PO4 1995   7.299   7.890   7.650
  150POPC   GL1 1996   7.295   7.912   7.350
  150POPC   GL2 1997   7.145   7.925   7.350
  150POPC   C1A 1998   7.314   7.853   7.050
  150POPC   D2A 1999   7.393   7.871   6.750
  150POPC   C3A 2000   7.324   7.834   6.450
  150POPC   C4A 2001   7.383   7.852   6.150
  150POPC   C1B 2002   7.006   7.939   7.050
  150POPC   C2B 2003   6.988   7.960   6.750
  150POPC   C3B 2004   7.024   8.010   6.450
  150POPC   C4B 2005   7.030   7.945   6.150
  151POPC   NC3 2006   0.261   0.488   7.950
  151POPC   PO4 2007   0.259   0.454   7.650
  151POPC   GL1 2008   0.252   0.431   7.350
  151POPC   GL2 2009   0.384   0.426   7.350
  151POPC   C1A 2010   0.204   0.395   7.050
  151POPC   D2A 2011   0.244   0.476   6.750
  151POPC   C3A 2012   0.275   0.444   6.450
  151POPC   C4A 2013   0.293   0.447   6.150
  151POPC   C1B 2014   0.557   0.421   7.050
  151POPC   C2B 2015   0.615   0.407   6.750
  151POPC   C3B 2016   0.578   0.440   6.450
  151POPC   C4B 2017   0.600   0.438   6.150
  152POPC   NC3 2018   4.037   7.925   7.950
  152POPC   PO4 2019   3.979   7.965   7.650
  152POPC   GL1 2020   4.036   7.915   7.350
  152POPC   GL2 2021   4.139   7.886   7.350
  152POPC   C1A 2022   3.981   7.905   7.050
  152POPC   D2A 2023   3.991   7.961   6.750
  152POPC   C3A 2024   3.989   7.962   6.450
  152POPC   C4A 2025   3.995   7.901   6.150
  152POPC   C1B 2026   4.355   7.951   7.050
  152POPC   C2B 2027   4.338   7.899   6.750
  152POPC   C3B 2028   4.310   7.966   6.450
  152POPC   C4B 2029   4.347   7.921   6.150
  153POPC   NC3 2030   8.865   8.599   7.950
  153POPC   PO4 2031   8.862   8.607   7.650
  153POPC   GL1 2032   8.857   8.598   7.350
  153POPC   GL2 2033   8.645   8.714   7.350
  153POPC   C1A 2034   8.813   8.615   7.050
  153POPC   D2A 2035   8.791   8.629   6.750
  153POPC   C3A 2036   8.818   8.547   6.450
  153POPC   C4A 2037   8.798   8.565   6.150
  153POPC   C1B 2038   8.491   8.735   7.050
  153POPC   C2B 2039   8.481   8.765   6.750
  153POPC   C3B 2040   8.482   8.772   6.450
  153POPC   C4B 2041   8.571   8.745   6.150
  154POPC   NC3 2042   0.268  10.263   7.950
  154POPC   PO4 2043   0.295  10.191   7.650
  154POPC   GL1 2044   0.308  10.255   7.350
  154POPC   GL2 2045   0.467  10.212   7.350
  154POPC   C1A 2046   0.222  10.253   7.050
  154POPC   D2A 2047   0.211  10.217   6.750
  154POPC   C3A 2048   0.246  10.247   6.450
  154POPC   C4A 2049   0.211  10.257   6.150
  154POPC   C1B 2050   0.581  10.139   7.050
  154POPC   C2B 2051   0.561  10.086   6.750
  154POPC   C3B 2052   0.626  10.116   6.450
  154POPC   C4B 2053   0.637  10.115   6.150
  155POPC   NC3 2054  10.007   1.314   7.950
  155POPC   PO4 2055  10.014   1.288   7.650
  155POPC   GL1 2056  10.031   1.294   7.350
  155POPC   GL2 2057  10.196   1.184   7.350
  155POPC   C1A 2058  10.101   1.305   7.050
  155POPC   D2A 2059  10.102   1.262   6.750
  155POPC   C3A 2060  10.050   1.254   6.450
  155POPC   C4A 2061  10.083   1.277   6.150
  155POPC   C1B 2062  10.339   1.034   7.050
  155POPC   C2B 2063  10.260   1.071   6.750
  155POPC   C3B 2064  10.301   1.058   6.450
  155POPC   C4B 2065  10.328   1.062   6.150
  156POPC   NC3 2066   0.312   6.392   7.950
  156POPC   PO4 2067   0.278   6.384   7.650
  156POPC   GL1 2068   0.307   6.354   7.350
  156POPC   GL2 2069   0.434   6.393   7.350
  156POPC   C1A 2070   0.231   6.375   7.050
  156POPC   D2A 2071   0.313   6.365   6.750
  156POPC   C3A 2072   0.270   6.359   6.450
  156POPC   C4A 2073   0.274   6.349   6.150
  156POPC   C1B 2074   0.538   6.547   7.050
  156POPC   C2B 2075   0.536   6.498   6.750
  156POPC   C3B 2076   0.578   6.487   6.450
  156POPC   C4B 2077   0.582   6.518   6.150
  157POPC   NC3 2078   9.226   1.230   7.950
  157POPC   PO4 2079   9.301   1.270   7.650
  157POPC   GL1 2080   9.275   1.239   7.350
  157POPC   GL2 2081   9.403   1.224   7.350
  157POPC   C1A 2082   9.246   1.211   7.050
  157POPC   D2A 2083   9.218   1.202   6.750
  157POPC   C3A 2084   9.294   1.177   6.450
  157POPC   C4A 2085   9.211   1.200   6.150
  157POPC   C1B 2086   9.597   1.163   7.050
  157POPC   C2B 2087   9.588   1.106   6.750
  157POPC   C3B 2088   9.561   1.094   6.450
  157POPC   C4B 2089   9.579   1.120   6.150
  158POPC   NC3 2090   2.071   0.530   7.950
  158POPC   PO4 2091   2.107   0.537   7.650
  158POPC   GL1 2092   2.069   0.499   7.350
  158POPC   GL2 2093   1.961   0.423   7.350
  158POPC   C1A 2094   2.109   0.515   7.050
  158POPC   D2A 2095   2.067   0.514   6.750
  158POPC   C3A 2096   2.056   0.558   6.450
  158POPC   C4A 2097   2.122   0.494   6.150
  158POPC   C1B 2098   1.735   0.371   7.050
  158POPC   C2B 2099   1.732   0.293   6.750
  158POPC   C3B 2100   1.762   0.318   6.450
  158POPC   C4B 2101   1.814   0.298   6.150
  159POPC   NC3 2102   4.942   9.289   7.950
  159POPC   PO4 2103   4.940   9.225   7.650
  159POPC   GL1 2104   4.970   9.216   7.350
  159POPC   GL2 2105   4.966   9.458   7.350
  159POPC   C1A 2106   4.938   9.221   7.050
  159POPC   D2A 2107   4.935   9.250   6.750
  159POPC   C3A 2108   4.934   9.266   6.450
  159POPC   C4A 2109   4.918   9.292   6.150
  159POPC   C1B 2110   4.898   9.558   7.050
  159POPC   C2B 2111   4.898   9.590   6.750
  159POPC   C3B 2112   4.877   9.559   6.450
  159POPC   C4B 2113   4.929   9.643   6.150
  160POPC   NC3 2114   9.586   2.030   7.950
  160POPC   PO4 2115   9.541   2.027   7.650
  160POPC   GL1 2116   9.631   1.944   7.350
  160POPC   GL2 2117   9.451   1.903   7.350
  160POPC   C1A 2118   9.573   2.022   7.050
  160POPC   D2A 2119   9.555   1.982   6.750
  160POPC   C3A 2120   9.598   2.009   6.450
  160POPC   C4A 2121   9.627   1.975   6.150
  160POPC   C1B 2122   9.228   1.873   7.050
  160POPC   C2B 2123   9.236   1.858   6.750
  160POPC   C3B 2124   9.312   1.812   6.450
  160POPC   C4B 2125   9.268   1.876   6.150
  161POPC   NC3 2126  10.109   2.485   7.950
  161POPC   PO4 2127  10.085   2.546   7.650
  161POPC   GL1 2128  10.045   2.544   7.350
  161POPC   GL2 2129  10.137   2.703   7.350
  161POPC   C1A 2130  10.111   2.541   7.050
  161POPC   D2A 2131  10.092   2.499   6.750
  161POPC   C3A 2132  10.093   2.488   6.450
  161POPC   C4A 2133  10.024   2.579   6.150
  161POPC   C1B 2134  10.290   2.793   7.050
  161POPC   C2B 2135  10.238   2.838   6.750
  161POPC   C3B 2136  10.287   2.863   6.450
  161POPC   C4B 2137  10.265   2.788   6.150
  162POPC   NC3 2138   4.318   9.296   7.950
  162POPC   PO4 2139   4.281   9.305   7.650
  162POPC   GL1 2140   4.348   9.287   7.350
  162POPC   GL2 2141   4.185   9.414   7.350
  162POPC   C1A 2142   4.280   9.351   7.050
  162POPC   D2A 2143   4.277   9.288   6.750
  162POPC   C3A 2144   4.302   9.276   6.450
  162POPC   C4A 2145   4.279   9.353   6.150
  162POPC   C1B 2146   4.051   9.524   7.050
  162POPC   C2B 2147   3.988   9.499   6.750
  162POPC   C3B 2148   4.065   9.515   6.450
  162POPC   C4B 2149   4.056   9.478   6.150
  163POPC   NC3 2150   5.060   8.738   7.950
  163POPC   PO4 2151   5.079   8.688   7.650
  163POPC   GL1 2152   5.058   8.732   7.350
  163POPC   GL2 2153   4.884   8.697   7.350
  163POPC   C1A 2154   5.120   8.699   7.050
  163POPC   D2A 2155   5.125   8.746   6.750
  163POPC   C3A 2156   5.101   8.742   6.450
  163POPC   C4A 2157   5.075   8.703   6.150
  163POPC   C1B 2158   4.785   8.592   7.050
  163POPC   C2B 2159   4.752   8.652   6.750
  163POPC   C3B 2160   4.719   8.611   6.450
  163POPC   C4B 2161   4.712   8.637   6.150
  164POPC   NC3 2162   8.513   4.161   7.950
  164POPC   PO4 2163   8.482   4.207   7.650
  164POPC   GL1 2164   8.537   4.159   7.350
  164POPC   GL2 2165   8.642   4.200   7.350
  164POPC   C1A 2166   8.490   4.166   7.050
  164POPC   D2A 2167   8.464   4.230   6.750
  164POPC   C3A 2168   8.507   4.161   6.450
  164POPC   C4A 2169   8.461   4.144   6.150
  164POPC   C1B 2170   8.850   4.139   7.050
  164POPC   C2B 2171   8.881   4.179   6.750
  164POPC   C3B 2172   8.834   4.131   6.450
  164POPC   C4B 2173   8.804   4.125   6.150
  165POPC   NC3 2174   7.338   2.715   7.950
  165POPC   PO4 2175   7.373   2.708   7.650
  165POPC   GL1 2176   7.313   2.755   7.350
  165POPC   GL2 2177   7.224   2.713   7.350
  165POPC   C1A 2178   7.314   2.754   7.050
  165POPC   D2A 2179   7.310   2.721   6.750
  165POPC   C3A 2180   7.356   2.782   6.450
  165POPC   C4A 2181   7.319   2.783   6.150
  165POPC   C1B 2182   7.054   2.643   7.050
  165POPC   C2B 2183   7.023   2.583   6.750
  165POPC   C3B 2184   6.997   2.620   6.450
  165POPC   C4B 2185   6.990   2.600   6.150
  166POPC   NC3 2186   5.066  10.057   7.950
  166POPC   PO4 2187   4.996  10.073   7.650
  166POPC   GL1 2188   5.046  10.047   7.350
  166POPC   GL2 2189   4.933  10.163   7.350
  166POPC   C1A 2190   5.000  10.072   7.050
  166POPC   D2A 2191   5.042  10.063   6.750
  166POPC   C3A 2192   4.994  10.027   6.450
  166POPC   C4A 2193   5.016  10.084   6.150
  166POPC   C1B 2194   4.803  10.262   7.050
  166POPC   C2B 2195   4.800  10.337   6.750
  166POPC   C3B 2196   4.824  10.309   6.450
  166POPC   C4B 2197   4.833  10.285   6.150
  167POPC   NC3 2198   8.490   0.363   7.950
  167POPC   PO4 2199   8.495   0.402   7.650
  167POPC   GL1 2200   8.540   0.370   7.350
  167POPC   GL2 2201   8.707   0.401   7.350
  167POPC   C1A 2202   8.476   0.377   7.050
  167POPC   D2A 2203   8.488   0.345   6.750
  167POPC   C3A 2204   8.462   0.408   6.450
  167POPC   C4A 2205   8.498   0.327   6.150
  167POPC   C1B 2206   8.827   0.452   7.050
  167POPC   C2B 2207   8.825   0.483   6.750
  167POPC   C3B 2208   8.860   0.496   6.450
  167POPC   C4B 2209   8.890   0.476   6.150
  168POPC   NC3 2210   4.292   8.796   7.950
  168POPC   PO4 2211   4.331   8.827   7.650
  168POPC   GL1 2212   4.321   8.834   7.350
  168POPC   GL2 2213   4.141   8.665   7.350
  168POPC   C1A 2214   4.273   8.762   7.050
  168POPC   D2A 2215   4.330   8.830   6.750
  168POPC   C3A 2216   4.297   8.752   6.450
  168POPC   C4A 2217   4.330   8.844   6.150
  168POPC   C1B 2218   4.091   8.552   7.050
  168POPC   C2B 2219   4.091   8.513   6.750
  168POPC   C3B 2220   4.030   8.521   6.450
  168POPC   C4B 2221   4.063   8.561   6.150
  169POPC   NC3 2222   9.275  10.180   4.050
  169POPC   PO4 2223   9.250  10.111   4.350
  169POPC   GL1 2224   9.285  10.149   4.650
  169POPC   GL2 2225   9.390  10.167   4.650
  169POPC   C1A 2226   9.257  10.157   4.950
  169POPC   D2A 2227   9.239  10.170   5.250
  169POPC   C3A 2228   9.226  10.109   5.550
  169POPC   C4A 2229   9.210  10.100   5.850
  169POPC   C1B 2230   9.635  10.201   4.950
  169POPC   C2B 2231   9.581  10.153   5.250
  169POPC   C3B 2232   9.559  10.235   5.550
  169POPC   C4B 2233   9.644  10.177   5.850
  170POPC   NC3 2234   6.511   9.998   4.050
  170POPC   PO4 2235   6.538  10.015   4.350
  170POPC   GL1 2236   6.537   9.976   4.650
  170POPC   GL2 2237   6.446  10.179   4.650
  170POPC   C1A 2238   6.452  10.019   4.950
  170POPC   D2A 2239   6.457  10.045   5.250
  170POPC   C3A 2240   6.511   9.982   5.550
  170POPC   C4A 2241   6.455   9.999   5.850
  170POPC   C1B 2242   6.344  10.338   4.950
  170POPC   C2B 2243   6.384  10.376   5.250
  170POPC   C3B 2244   6.363  10.374   5.550
  170POPC   C4B 2245   6.391  10.296   5.850
  171POPC   NC3 2246   1.040   9.356   4.050
  171POPC   PO4 2247   1.083   9.279   4.350
  171POPC   GL1 2248   0.987   9.320   4.650
  171POPC   GL2 2249   1.198   9.415   4.650
  171POPC   C1A 2250   1.083   9.349   4.950
  171POPC   D2A 2251   1.035   9.354   5.250
  171POPC   C3A 2252   1.008   9.324   5.550
  171POPC   C4A 2253   1.063   9.365   5.850
  171POPC   C1B 2254   1.326   9.578   4.950
  171POPC   C2B 2255   1.311   9.483   5.250
  171POPC   C3B 2256   1.363   9.485   5.550
  171POPC   C4B 2257   1.342   9.557   5.850
  172POPC   NC3 2258   1.139  10.301   4.050
  172POPC   PO4 2259   1.112  10.336   4.350
  172POPC   GL1 2260   1.168  10.351   4.650
  172POPC   GL2 2261   1.203  10.134   4.650
  172POPC   C1A 2262   1.154  10.351   4.950
  172POPC   D2A 2263   1.102  10.349   5.250
  172POPC   C3A 2264   1.117  10.301   5.550
  172POPC   C4A 2265   1.123  10.296   5.850
  172POPC   C1B 2266   1.186  10.002   4.950
  172POPC   C2B 2267   1.257   9.989   5.250
  172POPC   C3B 2268   1.214  10.027   5.550
  172POPC   C4B 2269   1.255   9.998   5.850
  173POPC   NC3 2270   1.280   1.109   4.050
  173POPC   PO4 2271   1.306   1.110   4.350
  173POPC   GL1 2272   1.308   1.095   4.650
  173POPC   GL2 2273   1.199   1.169   4.650
  173POPC   C1A 2274   1.364   1.041   4.950
  173POPC   D2A 2275   1.325   1.085   5.250
  173POPC   C3A 2276   1.329   1.128   5.550
  173POPC   C4A 2277   1.359   1.092   5.850
  173POPC   C1B 2278   1.058   1.308   4.950
  173POPC   C2B 2279   1.070   1.277   5.250
  173POPC   C3B 2280   0.993   1.238   5.550
  173POPC   C4B 2281   1.058   1.219   5.850
  174POPC   NC3 2282   8.512   8.006   4.050
  174POPC   PO4 2283   8.564   7.984   4.350
  174POPC   GL1 2284   8.552   7.962   4.650
  174POPC   GL2 2285   8.650   7.911   4.650
  174POPC   C1A 2286   8.551   7.990   4.950
  174POPC   D2A 2287   8.489   7.998   5.250
  174POPC   C3A 2288   8.472   7.971   5.550
  174POPC   C4A 2289   8.517   8.027   5.850
  174POPC   C1B 2290   8.881   7.883   4.950
  174POPC   C2B 2291   8.823   7.822   5.250
  174POPC   C3B 2292   8.857   7.869   5.550
  174POPC   C4B 2293   8.833   7.887   5.850
  175POPC   NC3 2294   2.839   1.053   4.050
  175POPC   PO4 2295   2.792   1.129   4.350
  175POPC   GL1 2296   2.844   1.140   4.650
  175POPC   GL2 2297   2.712   1.169   4.650
  175POPC   C1A 2298   2.805   1.123   4.950
  175POPC   D2A 2299   2.801   1.096   5.250
  175POPC   C3A 2300   2.831   1.114   5.550
  175POPC   C4A 2301   2.790   1.114   5.850
  175POPC   C1B 2302   2.494   1.269   4.950
  175POPC   C2B 2303   2.473   1.300   5.250
  175POPC   C3B 2304   2.541   1.280   5.550
  175POPC   C4B 2305   2.545   1.285   5.850
  176POPC   NC3 2306   0.235   3.393   4.050
  176POPC   PO4 2307   0.229   3.338   4.350
  176POPC   GL1 2308   0.256   3.417   4.650
  176POPC   GL2 2309   0.447   3.402   4.650
  176POPC   C1A 2310   0.295   3.343   4.950
  176POPC   D2A 2311   0.298   3.337   5.250
  176POPC   C3A 2312   0.241   3.402   5.550
  176POPC   C4A 2313   0.251   3.342   5.850
  176POPC   C1B 2314   0.602   3.459   4.950
  176POPC   C2B 2315   0.561   3.490   5.250
  176POPC   C3B 2316   0.623   3.433   5.550
  176POPC   C4B 2317   0.634   3.451   5.850
  177POPC   NC3 2318   8.800   5.508   4.050
  177POPC   PO4 2319   8.732   5.507   4.350
  177POPC   GL1 2320   8.759   5.562   4.650
  177POPC   GL2 2321   8.666   5.638   4.650
  177POPC   C1A 2322   8.804   5.561   4.950
  177POPC   D2A 2323   8.817   5.536   5.250
  177POPC   C3A 2324   8.820   5.544   5.550
  177POPC   C4A 2325   8.751   5.544   5.850
  177POPC   C1B 2326   8.567   5.834   4.950
  177POPC   C2B 2327   8.538   5.810   5.250
  177POPC   C3B 2328   8.542   5.833   5.550
  177POPC   C4B 2329   8.528   5.825   5.850
  178POPC   NC3 2330   8.052   4.832   4.050
  178POPC   PO4 2331   8.081   4.800   4.350
  178POPC   GL1 2332   8.021   4.800   4.650
  178POPC   GL2 2333   7.926   4.888   4.650
  178POPC   C1A 2334   8.082   4.862   4.950
  178POPC   D2A 2335   8.017   4.827   5.250
  178POPC   C3A 2336   8.052   4.827   5.550
  178POPC   C4A 2337   8.055   4.838   5.850
  178POPC   C1B 2338   7.797   5.052   4.950
  178POPC   C2B 2339   7.764   5.077   5.250
  178POPC   C3B 2340   7.771   5.076   5.550
  178POPC   C4B 2341   7.820   5.048   5.850
  179POPC   NC3 2342   1.985  10.324   4.050
  179POPC   PO4 2343   1.950  10.387   4.350
  179POPC   GL1 2344   1.937  10.328   4.650
  179POPC   GL2 2345   1.908  10.201   4.650
  179POPC   C1A 2346   1.920  10.395   4.950
  179POPC   D2A 2347   1.956  10.341   5.250
  179POPC   C3A 2348   2.005  10.366   5.550
  179POPC   C4A 2349   1.935  10.372   5.850
  179POPC   C1B 2350   1.932  10.027   4.950
  179POPC   C2B 2351   1.847  10.026   5.250
  179POPC   C3B 2352   1.934  10.045   5.550
  179POPC   C4B 2353   1.876  10.024   5.850
  180POPC   NC3 2354   2.011   4.043   4.050
  180POPC   PO4 2355   1.927   4.034   4.350
  180POPC   GL1 2356   1.983   3.986   4.650
  180POPC   GL2 2357   1.933   4.135   4.650
  180POPC   C1A 2358   1.994   3.966   4.950
  180POPC   D2A 2359   1.946   4.007   5.250
  180POPC   C3A 2360   1.939   4.036   5.550
  180POPC   C4A 2361   1.957   4.015   5.850
  180POPC   C1B 2362   1.900   4.306   4.950
  180POPC   C2B 2363   1.863   4.347   5.250
  180POPC   C3B 2364   1.865   4.296   5.550
  180POPC   C4B 2365   1.901   4.359   5.850
  181POPC   NC3 2366   7.303   0.612   4.050
  181POPC   PO4 2367   7.297   0.551   4.350
  181POPC   GL1 2368   7.246   0.586   4.650
  181POPC   GL2 2369   7.217   0.398   4.650
  181POPC   C1A 2370   7.266   0.564   4.950
  181POPC   D2A 2371   7.322   0.590   5.250
  181POPC   C3A 2372   7.301   0.573   5.550
  181POPC   C4A 2373   7.254   0.585   5.850
  181POPC   C1B 2374   7.050   0.280   4.950
  181POPC   C2B 2375   7.091   0.276   5.250
  181POPC   C3B 2376   7.084   0.336   5.550
  181POPC   C4B 2377   7.097   0.292   5.850
  182POPC   NC3 2378   7.792   0.255   4.050
  182POPC   PO4 2379   7.832   0.283   4.350
  182POPC   GL1 2380   7.858   0.246   4.650
  182POPC   GL2 2381   7.879   0.427   4.650
  182POPC   C1A 2382   7.824   0.279   4.950
  182POPC   D2A 2383   7.773   0.277   5.250
  182POPC   C3A 2384   7.803   0.284   5.550
  182POPC   C4A 2385   7.823   0.273   5.850
  182POPC   C1B 2386   8.080   0.531   4.950
  182POPC   C2B 2387   8.048   0.509   5.250
  182POPC   C3B 2388   8.024   0.570   5.550
  182POPC   C4B 2389   7.999   0.558   5.850
  183POPC   NC3 2390   8.805  10.052   4.050
  183POPC   PO4 2391   8.790  10.026   4.350
  183POPC   GL1 2392   8.824   9.986   4.650
  183POPC   GL2 2393   8.654  10.151   4.650
  183POPC   C1A 2394   8.785   9.986   4.950
  183POPC   D2A 2395   8.770  10.030   5.250
  183POPC   C3A 2396   8.828   9.998   5.550
  183POPC   C4A 2397   8.828  10.042   5.850
  183POPC   C1B 2398   8.609  10.338   4.950
  183POPC   C2B 2399   8.539  10.341   5.250
  183POPC   C3B 2400   8.616  10.336   5.550
  183POPC   C4B 2401   8.562  10.270   5.850
  184POPC   NC3 2402   1.806   2.755   4.050
  184POPC   PO4 2403   1.803   2.795   4.350
  184POPC   GL1 2404   1.785   2.753   4.650
  184POPC   GL2 2405   1.966   2.687   4.650
  184POPC   C1A 2406   1.840   2.763   4.950
  184POPC   D2A 2407   1.823   2.758   5.250
  184POPC   C3A 2408   1.786   2.811   5.550
  184POPC   C4A 2409   1.818   2.783   5.850
  184POPC   C1B 2410   2.086   2.527   4.950
  184POPC   C2B 2411   2.086   2.515   5.250
  184POPC   C3B 2412   2.028   2.518   5.550
  184POPC   C4B 2413   2.017   2.574   5.850
  185POPC   NC3 2414   6.416   8.483   4.050
  185POPC   PO4 2415   6.351   8.462   4.350
  185POPC   GL1 2416   6.350   8.493   4.650
  185POPC   GL2 2417   6.426   8.715   4.650
  185POPC   C1A 2418   6.354   8.504   4.950
  185POPC   D2A 2419   6.372   8.482   5.250
  185POPC   C3A 2420   6.365   8.497   5.550
  185POPC   C4A 2421   6.382   8.533   5.850
  185POPC   C1B 2422   6.472   8.796   4.950
  185POPC   C2B 2423   6.455   8.889   5.250
  185POPC   C3B 2424   6.504   8.819   5.550
  185POPC   C4B 2425   6.416   8.814   5.850
  186POPC   NC3 2426  10.049   7.177   4.050
  186POPC   PO4 2427  10.019   7.169   4.350
  186POPC   GL1 2428  10.008   7.176   4.650
  186POPC   GL2 2429  10.136   7.127   4.650
  186POPC   C1A 2430   9.976   7.143   4.950
  186POPC   D2A 2431   9.978   7.139   5.250
  186POPC   C3A 2432  10.050   7.229   5.550
  186POPC   C4A 2433  10.050   7.178   5.850
  186POPC   C1B 2434  10.359   7.184   4.950
  186POPC   C2B 2435  10.311   7.203   5.250
  186POPC   C3B 2436  10.311   7.213   5.550
  186POPC   C4B 2437  10.364   7.192   5.850
  187POPC   NC3 2438   8.140   1.164   4.050
  187POPC   PO4 2439   8.044   1.152   4.350
  187POPC   GL1 2440   8.119   1.143   4.650
  187POPC   GL2 2441   7.917   1.182   4.650
  187POPC   C1A 2442   8.050   1.173   4.950
  187POPC   D2A 2443   8.068   1.100   5.250
  187POPC   C3A 2444   8.089   1.107   5.550
  187POPC   C4A 2445   8.062   1.153   5.850
  187POPC   C1B 2446   7.787   1.241   4.950
  187POPC   C2B 2447   7.798   1.251   5.250
  187POPC   C3B 2448   7.732   1.220   5.550
  187POPC   C4B 2449   7.800   1.199   5.850
  188POPC   NC3 2450   4.880   8.851   4.050
  188POPC   PO4 2451   4.938   8.829   4.350
  188POPC   GL1 2452   4.891   8.811   4.650
  188POPC   GL2 2453   4.894   8.724   4.650
  188POPC   C1A 2454   4.952   8.807   4.950
  188POPC   D2A 2455   4.872   8.827   5.250
  188POPC   C3A 2456   4.888   8.847   5.550
  188POPC   C4A 2457   4.913   8.870   5.850
  188POPC   C1B 2458   4.958   8.463   4.950
  188POPC   C2B 2459   4.910   8.473   5.250
  188POPC   C3B 2460   4.963   8.510   5.550
  188POPC   C4B 2461   4.972   8.466   5.850
  189POPC   NC3 2462   7.897   6.628   4.050
  189POPC   PO4 2463   7.874   6.569   4.350
  189POPC   GL1 2464   7.822   6.618   4.650
  189POPC   GL2 2465   7.968   6.455   4.650
  189POPC   C1A 2466   7.894   6.563   4.950
  189POPC   D2A 2467   7.822   6.592   5.250
  189POPC   C3A 2468   7.818   6.544   5.550
  189POPC   C4A 2469   7.816   6.593   5.850
  189POPC   C1B 2470   8.017   6.239   4.950
  189POPC   C2B 2471   7.981   6.229   5.250
  189POPC   C3B 2472   8.010   6.308   5.550
  189POPC   C4B 2473   8.034   6.292   5.850
  190POPC   NC3 2474   5.592   1.771   4.050
  190POPC   PO4 2475   5.580   1.752   4.350
  190POPC   GL1 2476   5.577   1.781   4.650
  190POPC   GL2 2477   5.713   1.945   4.650
  190POPC   C1A 2478   5.592   1.764   4.950
  190POPC   D2A 2479   5.558   1.772   5.250
  190POPC   C3A 2480   5.561   1.839   5.550
  190POPC   C4A 2481   5.539   1.798   5.850
  190POPC   C1B 2482   5.772   2.075   4.950
  190POPC   C2B 2483   5.764   2.003   5.250
  190POPC   C3B 2484   5.835   2.095   5.550
  190POPC   C4B 2485   5.814   2.051   5.850
  191POPC   NC3 2486   1.149   3.610   4.050
  191POPC   PO4 2487   1.185   3.570   4.350
  191POPC   GL1 2488   1.130   3.624   4.650
  191POPC   GL2 2489   1.177   3.416   4.650
  191POPC   C1A 2490   1.097   3.566   4.950
  191POPC   D2A 2491   1.138   3.631   5.250
  191POPC   C3A 2492   1.098   3.627   5.550
  191POPC   C4A 2493   1.148   3.628   5.850
  191POPC   C1B 2494   1.190   3.263   4.950
  191POPC   C2B 2495   1.206   3.235   5.250
  191POPC   C3B 2496   1.239   3.275   5.550
  191POPC   C4B 2497   1.197   3.272   5.850
  192POPC   NC3 2498   0.545   2.598   4.050
  192POPC   PO4 2499   0.585   2.626   4.350
  192POPC   GL1 2500   0.551   2.612   4.650
  192POPC   GL2 2501   0.400   2.650   4.650
  192POPC   C1A 2502   0.624   2.615   4.950
  192POPC   D2A 2503   0.594   2.642   5.250
  192POPC   C3A 2504   0.617   2.670   5.550
  192POPC   C4A 2505   0.571   2.593   5.850
  192POPC   C1B 2506   0.244   2.752   4.950
  192POPC   C2B 2507   0.213   2.754   5.250
  192POPC   C3B 2508   0.211   2.680   5.550
  192POPC   C4B 2509   0.216   2.775   5.850
  193POPC   NC3 2510   2.107   7.172   4.050
  193POPC   PO4 2511   2.119   7.199   4.350
  193POPC   GL1 2512   2.091   7.181   4.650
  193POPC   GL2 2513   1.929   7.204   4.650
  193POPC   C1A 2514   2.114   7.189   4.950
  193POPC   D2A 2515   2.053   7.226   5.250
  193POPC   C3A 2516   2.109   7.155   5.550
  193POPC   C4A 2517   2.061   7.183   5.850
  193POPC   C1B 2518   1.780   7.210   4.950
  193POPC   C2B 2519   1.746   7.145   5.250
  193POPC   C3B 2520   1.733   7.178   5.550
  193POPC   C4B 2521   1.720   7.215   5.850
  194POPC   NC3 2522   7.014   7.775   4.050
  194POPC   PO4 2523   7.018   7.853   4.350
  194POPC   GL1 2524   7.061   7.794   4.650
  194POPC   GL2 2525   7.151   7.973   4.650
  194POPC   C1A 2526   7.028   7.848   4.950
  194POPC   D2A 2527   7.036   7.822   5.250
  194POPC   C3A 2528   7.059   7.847   5.550
  194POPC   C4A 2529   7.064   7.789   5.850
  194POPC   C1B 2530   7.322   8.036   4.950
  194POPC   C2B 2531   7.322   8.023   5.250
  194POPC   C3B 2532   7.322   8.029   5.550
  194POPC   C4B 2533   7.344   8.079   5.850
  195POPC   NC3 2534   1.344   1.895   4.050
  195POPC   PO4 2535   1.284   1.816   4.350
  195POPC   GL1 2536   1.334   1.888   4.650
  195POPC   GL2 2537   1.127   1.920   4.650
  195POPC   C1A 2538   1.353   1.868   4.950
  195POPC   D2A 2539   1.351   1.860   5.250
  195POPC   C3A 2540   1.284   1.858   5.550
  195POPC   C4A 2541   1.296   1.827   5.850
  195POPC   C1B 2542   0.995   1.959   4.950
  195POPC   C2B 2543   1.029   1.983   5.250
  195POPC   C3B 2544   1.042   2.047   5.550
  195POPC   C4B 2545   1.031   2.009   5.850
  196POPC   NC3 2546   4.741   0.402   4.050
  196POPC   PO4 2547   4.742   0.400   4.350
  196POPC   GL1 2548   4.795   0.468   4.650
  196POPC   GL2 2549   4.899   0.383   4.650
  196POPC   C1A 2550   4.714   0.480   4.950
  196POPC   D2A 2551   4.705   0.407   5.250
  196POPC   C3A 2552   4.718   0.423   5.550
  196POPC   C4A 2553   4.740   0.443   5.850
  196POPC   C1B 2554   5.069   0.425   4.950
  196POPC   C2B 2555   5.098   0.449   5.250
  196POPC   C3B 2556   5.067   0.397   5.550
  196POPC   C4B 2557   5.076   0.453   5.850
  197POPC   NC3 2558   3.377   1.710   4.050
  197POPC   PO4 2559   3.368   1.751   4.350
  197POPC   GL1 2560   3.376   1.791   4.650
  197POPC   GL2 2561   3.416   1.896   4.650
  197POPC   C1A 2562   3.351   1.708   4.950
  197POPC   D2A 2563   3.380   1.791   5.250
  197POPC   C3A 2564   3.422   1.722   5.550
  197POPC   C4A 2565   3.356   1.733   5.850
  197POPC   C1B 2566   3.407   2.112   4.950
  197POPC   C2B 2567   3.428   2.105   5.250
  197POPC   C3B 2568   3.465   2.063   5.550
  197POPC   C4B 2569   3.452   2.077   5.850
  198POPC   NC3 2570   6.559   2.008   4.050
  198POPC   PO4 2571   6.628   1.976   4.350
  198POPC   GL1 2572   6.622   1.963   4.650
  198POPC   GL2 2573   6.416   1.957   4.650
  198POPC   C1A 2574   6.606   1.990   4.950
  198POPC   D2A 2575   6.587   1.976   5.250
  198POPC   C3A 2576   6.551   2.035   5.550
  198POPC   C4A 2577   6.538   1.964   5.850
  198POPC   C1B 2578   6.270   1.853   4.950
  198POPC   C2B 2579   6.257   1.879   5.250
  198POPC   C3B 2580   6.245   1.829   5.550
  198POPC   C4B 2581   6.220   1.867   5.850
  199POPC   NC3 2582   8.806   0.245   4.050
  199POPC   PO4 2583   8.797   0.230   4.350
  199POPC   GL1 2584   8.726   0.240   4.650
  199POPC   GL2 2585   8.643   0.379   4.650
  199POPC   C1A 2586   8.736   0.318   4.950
  199POPC   D2A 2587   8.782   0.270   5.250
  199POPC   C3A 2588   8.747   0.232   5.550
  199POPC   C4A 2589   8.751   0.324   5.850
  199POPC   C1B 2590   8.609   0.530   4.950
  199POPC   C2B 2591   8.539   0.616   5.250
  199POPC   C3B 2592   8.578   0.583   5.550
  199POPC   C4B 2593   8.540   0.612   5.850
  200POPC   NC3 2594  10.041   0.392   4.050
  200POPC   PO4 2595  10.022   0.342   4.350
  200POPC   GL1 2596  10.006   0.347   4.650
  200POPC   GL2 2597  10.127   0.434   4.650
  200POPC   C1A 2598  10.017   0.329   4.950
  200POPC   D2A 2599  10.010   0.332   5.250
  200POPC   C3A 2600  10.030   0.413   5.550
  200POPC   C4A 2601  10.030   0.377   5.850
  200POPC   C1B 2602  10.359   0.467   4.950
  200POPC   C2B 2603  10.367   0.505   5.250
  200POPC   C3B 2604  10.318   0.527   5.550
  200POPC   C4B 2605  10.339   0.479   5.850
  201POPC   NC3 2606   8.857   2.736   4.050
  201POPC   PO4 2607   8.862   2.744   4.350
  201POPC   GL1 2608   8.856   2.753   4.650
  201POPC   GL2 2609   8.688   2.710   4.650
  201POPC   C1A 2610   8.797   2.703   4.950
  201POPC   D2A 2611   8.806   2.765   5.250
  201POPC   C3A 2612   8.872   2.701   5.550
  201POPC   C4A 2613   8.823   2.745   5.850
  201POPC   C1B 2614   8.563   2.652   4.950
  201POPC   C2B 2615   8.511   2.635   5.250
  201POPC   C3B 2616   8.519   2.617   5.550
  201POPC   C4B 2617   8.527   2.624   5.850
  202POPC   NC3 2618   5.038  10.290   4.050
  202POPC   PO4 2619   5.008  10.289   4.350
  202POPC   GL1 2620   5.008  10.340   4.650
  202POPC   GL2 2621   4.945  10.219   4.650
  202POPC   C1A 2622   4.984  10.273   4.950
  202POPC   D2A 2623   5.034  10.292   5.250
  202POPC   C3A 2624   5.034  10.325   5.550
  202POPC   C4A 2625   5.054  10.312   5.850
  202POPC   C1B 2626   4.785  10.050   4.950
  202POPC   C2B 2627   4.836  10.011   5.250
  202POPC   C3B 2628   4.843  10.018   5.550
  202POPC   C4B 2629   4.857  10.062   5.850
  203POPC   NC3 2630   9.551   1.097   4.050
  203POPC   PO4 2631   9.544   1.093   4.350
  203POPC   GL1 2632   9.593   1.140   4.650
  203POPC   GL2 2633   9.452   1.158   4.650
  203POPC   C1A 2634   9.622   1.112   4.950
  203POPC   D2A 2635   9.561   1.092   5.250
  203POPC   C3A 2636   9.547   1.109   5.550
  203POPC   C4A 2637   9.538   1.116   5.850
  203POPC   C1B 2638   9.298   1.232   4.950
  203POPC   C2B 2639   9.236   1.232   5.250
  203POPC   C3B 2640   9.228   1.228   5.550
  203POPC   C4B 2641   9.266   1.249   5.850
  204POPC   NC3 2642   2.898   8.715   4.050
  204POPC   PO4 2643   2.820   8.680   4.350
  204POPC   GL1 2644   2.860   8.665   4.650
  204POPC   GL2 2645   2.680   8.659   4.650
  204POPC   C1A 2646   2.844   8.697   4.950
  204POPC   D2A 2647   2.896   8.693   5.250
  204POPC   C3A 2648   2.827   8.709   5.550
  204POPC   C4A 2649   2.859   8.685   5.850
  204POPC   C1B 2650   2.484   8.639   4.950
  204POPC   C2B 2651   2.491   8.616   5.250
  204POPC   C3B 2652   2.522   8.631   5.550
  204POPC   C4B 2653   2.527   8.688   5.850
  205POPC   NC3 2654   7.025  10.304   4.050
  205POPC   PO4 2655   7.020  10.321   4.350
  205POPC   GL1 2656   7.072  10.289   4.650
  205POPC   GL2 2657   7.166  10.141   4.650
  205POPC   C1A 2658   7.095  10.297   4.950
  205POPC   D2A 2659   7.095  10.270   5.250
  205POPC   C3A 2660   7.043  10.274   5.550
  205POPC   C4A 2661   7.068  10.303   5.850
  205POPC   C1B 2662   7.323  10.026   4.950
  205POPC   C2B 2663   7.265  10.049   5.250
  205POPC   C3B 2664   7.323  10.008   5.550
  205POPC   C4B 2665   7.312  10.036   5.850
  206POPC   NC3 2666   7.321   9.408   4.050
  206POPC   PO4 2667   7.315   9.395   4.350
  206POPC   GL1 2668   7.381   9.401   4.650
  206POPC   GL2 2669   7.158   9.391   4.650
  206POPC   C1A 2670   7.330   9.448   4.950
  206POPC   D2A 2671   7.394   9.435   5.250
  206POPC   C3A 2672   7.340   9.441   5.550
  206POPC   C4A 2673   7.339   9.438   5.850
  206POPC   C1B 2674   6.997   9.444   4.950
  206POPC   C2B 2675   6.985   9.434   5.250
  206POPC   C3B 2676   7.020   9.411   5.550
  206POPC   C4B 2677   7.007   9.372   5.850
  207POPC   NC3 2678   9.605   8.697   4.050
  207POPC   PO4 2679   9.577   8.680   4.350
  207POPC   GL1 2680   9.609   8.754   4.650
  207POPC   GL2 2681   9.415   8.707   4.650
  207POPC   C1A 2682   9.561   8.717   4.950
  207POPC   D2A 2683   9.570   8.699   5.250
  207POPC   C3A 2684   9.586   8.754   5.550
  207POPC   C4A 2685   9.605   8.734   5.850
  207POPC   C1B 2686   9.217   8.663   4.950
  207POPC   C2B 2687   9.282   8.627   5.250
  207POPC   C3B 2688   9.281   8.611   5.550
  207POPC   C4B 2689   9.299   8.695   5.850
  208POPC   NC3 2690   3.303  10.135   4.050
  208POPC   PO4 2691   3.247  10.056   4.350
  208POPC   GL1 2692   3.239  10.094   4.650
  208POPC   GL2 2693   3.406  10.127   4.650
  208POPC   C1A 2694   3.274  10.093   4.950
  208POPC   D2A 2695   3.259  10.103   5.250
  208POPC   C3A 2696   3.249  10.078   5.550
  208POPC   C4A 2697   3.295  10.054   5.850
  208POPC   C1B 2698   3.536  10.263   4.950
  208POPC   C2B 2699   3.619  10.208   5.250
  208POPC   C3B 2700   3.592  10.212   5.550
  208POPC   C4B 2701   3.570  10.214   5.850
  209POPC   NC3 2702   8.471   9.388   4.050
  209POPC   PO4 2703   8.514   9.432   4.350
  209POPC   GL1 2704   8.510   9.404   4.650
  209POPC   GL2 2705   8.646   9.401   4.650
  209POPC   C1A 2706   8.549   9.400   4.950
  209POPC   D2A 2707   8.460   9.355   5.250
  209POPC   C3A 2708   8.498   9.431   5.550
  209POPC   C4A 2709   8.532   9.411   5.850
  209POPC   C1B 2710   8.828   9.408   4.950
  209POPC   C2B 2711   8.798   9.412   5.250
  209POPC   C3B 2712   8.876   9.446   5.550
  209POPC   C4B 2713   8.838   9.473   5.850
  210POPC   NC3 2714   2.743   0.589   4.050
  210POPC   PO4 2715   2.757   0.559   4.350
  210POPC   GL1 2716   2.726   0.583   4.650
  210POPC   GL2 2717   2.668   0.390   4.650
  210POPC   C1A 2718   2.728   0.626   4.950
  210POPC   D2A 2719   2.699   0.549   5.250
  210POPC   C3A 2720   2.723   0.587   5.550
  210POPC   C4A 2721   2.756   0.549   5.850
  210POPC   C1B 2722   2.602   0.311   4.950
  210POPC   C2B 2723   2.571   0.215   5.250
  210POPC   C3B 2724   2.625   0.257   5.550
  210POPC   C4B 2725   2.607   0.248   5.850
  211POPC   NC3 2726   8.745   6.550   4.050
  211POPC   PO4 2727   8.711   6.552   4.350
  211POPC   GL1 2728   8.726   6.633   4.650
  211POPC   GL2 2729   8.693   6.468   4.650
  211POPC   C1A 2730   8.688   6.634   4.950
  211POPC   D2A 2731   8.754   6.569   5.250
  211POPC   C3A 2732   8.694   6.592   5.550
  211POPC   C4A 2733   8.778   6.564   5.850
  211POPC   C1B 2734   8.641   6.284   4.950
  211POPC   C2B 2735   8.638   6.296   5.250
  211POPC   C3B 2736   8.630   6.302   5.550
  211POPC   C4B 2737   8.659   6.248   5.850
  212POPC   NC3 2738   9.408   8.118   4.050
  212POPC   PO4 2739   9.347   8.077   4.350
  212POPC   GL1 2740   9.394   8.083   4.650
  212POPC   GL2 2741   9.471   7.909   4.650
  212POPC   C1A 2742   9.371   8.085   4.950
  212POPC   D2A 2743   9.423   8.110   5.250
  212POPC   C3A 2744   9.424   8.068   5.550
  212POPC   C4A 2745   9.426   8.082   5.850
  212POPC   C1B 2746   9.503   7.754   4.950
  212POPC   C2B 2747   9.424   7.717   5.250
  212POPC   C3B 2748   9.482   7.791   5.550
  212POPC   C4B 2749   9.424   7.786   5.850
  213POPC   NC3 2750   1.247   2.506   4.050
  213POPC   PO4 2751   1.179   2.537   4.350
  213POPC   GL1 2752   1.234   2.530   4.650
  213POPC   GL2 2753   1.195   2.686   4.650
  213POPC   C1A 2754   1.185   2.459   4.950
  213POPC   D2A 2755   1.227   2.517   5.250
  213POPC   C3A 2756   1.165   2.526   5.550
  213POPC   C4A 2757   1.260   2.465   5.850
  213POPC   C1B 2758   1.185   2.822   4.950
  213POPC   C2B 2759   1.105   2.796   5.250
  213POPC   C3B 2760   1.133   2.862   5.550
  213POPC   C4B 2761   1.141   2.841   5.850
  214POPC   NC3 2762   7.003   1.101   4.050
  214POPC   PO4 2763   7.050   1.184   4.350
  214POPC   GL1 2764   7.034   1.154   4.650
  214POPC   GL2 2765   7.130   1.210   4.650
  214POPC   C1A 2766   6.977   1.117   4.950
  214POPC   D2A 2767   6.994   1.158   5.250
  214POPC   C3A 2768   7.032   1.144   5.550
  214POPC   C4A 2769   6.993   1.096   5.850
  214POPC   C1B 2770   7.393   1.205   4.950
  214POPC   C2B 2771   7.360   1.171   5.250
  214POPC   C3B 2772   7.307   1.203   5.550
  214POPC   C4B 2773   7.322   1.252   5.850
  215POPC   NC3 2774   2.061   1.288   4.050
  215POPC   PO4 2775   1.981   1.358   4.350
  215POPC   GL1 2776   2.014   1.349   4.650
  215POPC   GL2 2777   1.926   1.126   4.650
  215POPC   C1A 2778   2.015   1.272   4.950
  215POPC   D2A 2779   2.064   1.333   5.250
  215POPC   C3A 2780   1.973   1.312   5.550
  215POPC   C4A 2781   2.027   1.346   5.850
  215POPC   C1B 2782   1.866   1.063   4.950
  215POPC   C2B 2783   1.822   0.996   5.250
  215POPC   C3B 2784   1.829   0.986   5.550
  215POPC   C4B 2785   1.862   1.015   5.850
  216POPC   NC3 2786   3.629   9.362   4.050
  216POPC   PO4 2787   3.549   9.385   4.350
  216POPC   GL1 2788   3.556   9.379   4.650
  216POPC   GL2 2789   3.399   9.443   4.650
  216POPC   C1A 2790   3.564   9.372   4.950
  216POPC   D2A 2791   3.606   9.358   5.250
  216POPC   C3A 2792   3.632   9.437   5.550
  216POPC   C4A 2793   3.646   9.427   5.850
  216POPC   C1B 2794   3.212   9.467   4.950
  216POPC   C2B 2795   3.243   9.453   5.250
  216POPC   C3B 2796   3.277   9.412   5.550
  216POPC   C4B 2797   3.284   9.400   5.850
  217POPC   NC3 2798   8.097  10.207   4.050
  217POPC   PO4 2799   8.086  10.184   4.350
  217POPC   GL1 2800   8.062  10.160   4.650
  217POPC   GL2 2801   7.942  10.203   4.650
  217POPC   C1A 2802   8.104  10.190   4.950
  217POPC   D2A 2803   8.143  10.193   5.250
  217POPC   C3A 2804   8.091  10.192   5.550
  217POPC   C4A 2805   8.138  10.239   5.850
  217POPC   C1B 2806   7.726  10.170   4.950
  217POPC   C2B 2807   7.799  10.127   5.250
  217POPC   C3B 2808   7.771  10.114   5.550
  217POPC   C4B 2809   7.734  10.137   5.850
  218POPC   NC3 2810   4.784   1.843   4.050
  218POPC   PO4 2811   4.735   1.909   4.350
  218POPC   GL1 2812   4.730   1.881   4.650
  218POPC   GL2 2813   4.921   1.958   4.650
  218POPC   C1A 2814   4.724   1.840   4.950
  218POPC   D2A 2815   4.781   1.910   5.250
  218POPC   C3A 2816   4.785   1.856   5.550
  218POPC   C4A 2817   4.808   1.860   5.850
  218POPC   C1B 2818   5.138   2.009   4.950
  218POPC   C2B 2819   5.115   1.937   5.250
  218POPC   C3B 2820   5.132   1.966   5.550
  218POPC   C4B 2821   5.109   1.935   5.850
  219POPC   NC3 2822   1.963   2.121   4.050
  219POPC   PO4 2823   1.941   2.111   4.350
  219POPC   GL1 2824   1.912   2.093   4.650
  219POPC   GL2 2825   1.882   1.931   4.650
  219POPC   C1A 2826   1.957   2.121   4.950
  219POPC   D2A 2827   1.957   2.137   5.250
  219POPC   C3A 2828   1.939   2.109   5.550
  219POPC   C4A 2829   1.928   2.092   5.850
  219POPC   C1B 2830   1.926   1.794   4.950
  219POPC   C2B 2831   1.957   1.727   5.250
  219POPC   C3B 2832   1.964   1.758   5.550
  219POPC   C4B 2833   1.889   1.797   5.850
  220POPC   NC3 2834   2.594   3.290   4.050
  220POPC   PO4 2835   2.632   3.300   4.350
  220POPC   GL1 2836   2.615   3.218   4.650
  220POPC   GL2 2837   2.707   3.416   4.650
  220POPC   C1A 2838   2.650   3.297   4.950
  220POPC   D2A 2839   2.671   3.224   5.250
  220POPC   C3A 2840   2.588   3.224   5.550
  220POPC   C4A 2841   2.673   3.252   5.850
  220POPC   C1B 2842   2.773   3.583   4.950
  220POPC   C2B 2843   2.766   3.615   5.250
  220POPC   C3B 2844   2.720   3.610   5.550
  220POPC   C4B 2845   2.754   3.559   5.850
  221POPC   NC3 2846   4.875   9.535   4.050
  221POPC   PO4 2847   4.873   9.620   4.350
  221POPC   GL1 2848   4.860   9.562   4.650
  221POPC   GL2 2849   4.940   9.383   4.650
  221POPC   C1A 2850   4.876   9.576   4.950
  221POPC   D2A 2851   4.836   9.612   5.250
  221POPC   C3A 2852   4.843   9.539   5.550
  221POPC   C4A 2853   4.823   9.550   5.850
  221POPC   C1B 2854   4.987   9.250   4.950
  221POPC   C2B 2855   5.011   9.257   5.250
  221POPC   C3B 2856   4.972   9.298   5.550
  221POPC   C4B 2857   5.033   9.237   5.850
  222POPC   NC3 2858   9.478   2.487   4.050
  222POPC   PO4 2859   9.499   2.489   4.350
  222POPC   GL1 2860   9.419   2.496   4.650
  222POPC   GL2 2861   9.417   2.632   4.650
  222POPC   C1A 2862   9.444   2.526   4.950
  222POPC   D2A 2863   9.426   2.479   5.250
  222POPC   C3A 2864   9.509   2.530   5.550
  222POPC   C4A 2865   9.419   2.525   5.850
  222POPC   C1B 2866   9.394   2.858   4.950
  222POPC   C2B 2867   9.346   2.839   5.250
  222POPC   C3B 2868   9.341   2.854   5.550
  222POPC   C4B 2869   9.359   2.862   5.850
  223POPC   NC3 2870   1.848   5.072   4.050
  223POPC   PO4 2871   1.859   5.078   4.350
  223POPC   GL1 2872   1.845   5.126   4.650
  223POPC   GL2 2873   1.975   4.906   4.650
  223POPC   C1A 2874   1.867   5.113   4.950
  223POPC   D2A 2875   1.820   5.102   5.250
  223POPC   C3A 2876   1.830   5.035   5.550
  223POPC   C4A 2877   1.830   5.043   5.850
  223POPC   C1B 2878   1.984   4.770   4.950
  223POPC   C2B 2879   2.012   4.759   5.250
  223POPC   C3B 2880   1.975   4.799   5.550
  223POPC   C4B 2881   1.998   4.731   5.850
  224POPC   NC3 2882   2.064   5.504   4.050
  224POPC   PO4 2883   2.002   5.541   4.350
  224POPC   GL1 2884   2.037   5.506   4.650
  224POPC   GL2 2885   1.959   5.629   4.650
  224POPC   C1A 2886   2.083   5.507   4.950
  224POPC   D2A 2887   2.019   5.574   5.250
  224POPC   C3A 2888   1.994   5.490   5.550
  224POPC   C4A 2889   2.055   5.579   5.850
  224POPC   C1B 2890   1.856   5.802   4.950
  224POPC   C2B 2891   1.865   5.844   5.250
  224POPC   C3B 2892   1.801   5.833   5.550
  224POPC   C4B 2893   1.795   5.794   5.850
  225POPC   NC3 2894   5.744   0.272   4.050
  225POPC   PO4 2895   5.756   0.265   4.350
  225POPC   GL1 2896   5.820   0.283   4.650
  225POPC   GL2 2897   5.684   0.463   4.650
  225POPC   C1A 2898   5.830   0.316   4.950
  225POPC   D2A 2899   5.759   0.322   5.250
  225POPC   C3A 2900   5.790   0.267   5.550
  225POPC   C4A 2901   5.803   0.303   5.850
  225POPC   C1B 2902   5.550   0.522   4.950
  225POPC   C2B 2903   5.597   0.556   5.250
  225POPC   C3B 2904   5.565   0.560   5.550
  225POPC   C4B 2905   5.611   0.510   5.850
  226POPC   NC3 2906   6.570   1.204   4.050
  226POPC   PO4 2907   6.619   1.161   4.350
  226POPC   GL1 2908   6.649   1.214   4.650
  226POPC   GL2 2909   6.446   1.137   4.650
  226POPC   C1A 2910   6.616   1.210   4.950
  226POPC   D2A 2911   6.553   1.167   5.250
  226POPC   C3A 2912   6.649   1.163   5.550
  226POPC   C4A 2913   6.557   1.159   5.850
  226POPC   C1B 2914   6.204   1.191   4.950
  226POPC   C2B 2915   6.202   1.210   5.250
  226POPC   C3B 2916   6.238   1.198   5.550
  226POPC   C4B 2917   6.282   1.171   5.850
  227POPC   NC3 2918   7.181   2.888   4.050
  227POPC   PO4 2919   7.122   2.844   4.350
  227POPC   GL1 2920   7.165   2.896   4.650
  227POPC   GL2 2921   7.195   2.694   4.650
  227POPC   C1A 2922   7.169   2.844   4.950
  227POPC   D2A 2923   7.160   2.862   5.250
  227POPC   C3A 2924   7.199   2.845   5.550
  227POPC   C4A 2925   7.206   2.865   5.850
  227POPC   C1B 2926   7.190   2.467   4.950
  227POPC   C2B 2927   7.141   2.544   5.250
  227POPC   C3B 2928   7.172   2.484   5.550
  227POPC   C4B 2929   7.158   2.509   5.850
  228POPC   NC3 2930   9.988   4.086   4.050
  228POPC   PO4 2931  10.022   4.051   4.350
  228POPC   GL1 2932   9.987   4.101   4.650
  228POPC   GL2 2933  10.135   4.189   4.650
  228POPC   C1A 2934  10.026   4.073   4.950
  228POPC   D2A 2935   9.979   4.061   5.250
  228POPC   C3A 2936  10.003   4.133   5.550
  228POPC   C4A 2937  10.023   4.145   5.850
  228POPC   C1B 2938  10.305   4.268   4.950
  228POPC   C2B 2939  10.380   4.207   5.250
  228POPC   C3B 2940  10.312   4.217   5.550
  228POPC   C4B 2941  10.338   4.256   5.850
  229POPC   NC3 2942   8.090   3.427   4.050
  229POPC   PO4 2943   8.046   3.487   4.350
  229POPC   GL1 2944   8.142   3.450   4.650
  229POPC   GL2 2945   7.897   3.412   4.650
  229POPC   C1A 2946   8.077   3.484   4.950
  229POPC   D2A 2947   8.066   3.464   5.250
  229POPC   C3A 2948   8.135   3.463   5.550
  229POPC   C4A 2949   8.120   3.481   5.850
  229POPC   C1B 2950   7.754   3.429   4.950
  229POPC   C2B 2951   7.741   3.428   5.250
  229POPC   C3B 2952   7.767   3.348   5.550
  229POPC   C4B 2953   7.749   3.372   5.850
  230POPC   NC3 2954   0.460   8.462   4.050
  230POPC   PO4 2955   0.468   8.504   4.350
  230POPC   GL1 2956   0.448   8.493   4.650
  230POPC   GL2 2957   0.452   8.645   4.650
  230POPC   C1A 2958   0.477   8.471   4.950
  230POPC   D2A 2959   0.427   8.523   5.250
  230POPC   C3A 2960   0.454   8.488   5.550
  230POPC   C4A 2961   0.439   8.545   5.850
  230POPC   C1B 2962   0.421   8.863   4.950
  230POPC   C2B 2963   0.380   8.860   5.250
  230POPC   C3B 2964   0.369   8.832   5.550
  230POPC   C4B 2965   0.365   8.887   5.850
  231POPC   NC3 2966   1.788   6.536   4.050
  231POPC   PO4 2967   1.740   6.503   4.350
  231POPC   GL1 2968   1.822   6.561   4.650
  231POPC   GL2 2969   1.910   6.459   4.650
  231POPC   C1A 2970   1.779   6.502   4.950
  231POPC   D2A 2971   1.732   6.521   5.250
  231POPC   C3A 2972   1.802   6.544   5.550
  231POPC   C4A 2973   1.778   6.483   5.850
  231POPC   C1B 2974   2.030   6.326   4.950
  231POPC   C2B 2975   2.054   6.314   5.250
  231POPC   C3B 2976   2.060   6.310   5.550
  231POPC   C4B 2977   2.098   6.299   5.850
  232POPC   NC3 2978   9.977   4.816   4.050
  232POPC   PO4 2979  10.034   4.877   4.350
  232POPC   GL1 2980  10.026   4.860   4.650
  232POPC   GL2 2981  10.155   4.944   4.650
  232POPC   C1A 2982  10.010   4.878   4.950
  232POPC   D2A 2983  10.064   4.797   5.250
  232POPC   C3A 2984  10.049   4.881   5.550
  232POPC   C4A 2985   9.999   4.884   5.850
  232POPC   C1B 2986  10.354   5.041   4.950
  232POPC   C2B 2987  10.356   5.053   5.250
  232POPC   C3B 2988  10.347   5.012   5.550
  232POPC   C4B 2989  10.302   4.987   5.850
  233POPC   NC3 2990   3.580   2.746   4.050
  233POPC   PO4 2991   3.635   2.736   4.350
  233POPC   GL1 2992   3.580   2.738   4.650
  233POPC   GL2 2993   3.465   2.632   4.650
  233POPC   C1A 2994   3.642   2.658   4.950
  233POPC   D2A 2995   3.569   2.712   5.250
  233POPC   C3A 2996   3.626   2.663   5.550
  233POPC   C4A 2997   3.551   2.664   5.850
  233POPC   C1B 2998   3.281   2.671   4.950
  233POPC   C2B 2999   3.297   2.601   5.250
  233POPC   C3B 3000   3.265   2.644   5.550
  233POPC   C4B 3001   3.272   2.653   5.850
  234POPC   NC3 3002   1.950   8.852   4.050
  234POPC   PO4 3003   1.993   8.841   4.350
  234POPC   GL1 3004   1.955   8.795   4.650
  234POPC   GL2 3005   1.906   8.703   4.650
  234POPC   C1A 3006   2.021   8.799   4.950
  234POPC   D2A 3007   1.955   8.810   5.250
  234POPC   C3A 3008   1.953   8.883   5.550
  234POPC   C4A 3009   2.012   8.862   5.850
  234POPC   C1B 3010   1.879   8.487   4.950
  234POPC   C2B 3011   1.867   8.475   5.250
  234POPC   C3B 3012   1.910   8.465   5.550
  234POPC   C4B 3013   1.882   8.552   5.850
  235POPC   NC3 3014   0.254   9.317   4.050
  235POPC   PO4 3015   0.259   9.337   4.350
  235POPC   GL1 3016   0.284   9.321   4.650
  235POPC   GL2 3017   0.464   9.428   4.650
  235POPC   C1A 3018   0.323   9.267   4.950
  235POPC   D2A 3019   0.341   9.326   5.250
  235POPC   C3A 3020   0.322   9.265   5.550
  235POPC   C4A 3021   0.342   9.321   5.850
  235POPC   C1B 3022   0.513   9.580   4.950
  235POPC   C2B 3023   0.559   9.597   5.250
  235POPC   C3B 3024   0.540   9.580   5.550
  235POPC   C4B 3025   0.553   9.556   5.850
  236POPC   NC3 3026   4.017   7.906   4.050
  236POPC   PO4 3027   4.035   8.002   4.350
  236POPC   GL1 3028   3.960   7.995   4.650
  236POPC   GL2 3029   4.165   7.951   4.650
  236POPC   C1A 3030   3.997   7.947   4.950
  236POPC   D2A 3031   3.987   7.951   5.250
  236POPC   C3A 3032   4.010   7.923   5.550
  236POPC   C4A 3033   4.010   7.963   5.850
  236POPC   C1B 3034   4.356   7.872   4.950
  236POPC   C2B 3035   4.308   7.930   5.250
  236POPC   C3B 3036   4.343   7.886   5.550
  236POPC   C4B 3037   4.381   7.877   5.850
  237POPC   NC3 3038   0.261   7.200   4.050
  237POPC   PO4 3039   0.278   7.175   4.350
  237POPC   GL1 3040   0.244   7.187   4.650
  237POPC   GL2 3041   0.434   7.225   4.650
  237POPC   C1A 3042   0.205   7.157   4.950
  237POPC   D2A 3043   0.219   7.213   5.250
  237POPC   C3A 3044   0.300   7.195   5.550
  237POPC   C4A 3045   0.216   7.242   5.850
  237POPC   C1B 3046   0.601   7.157   4.950
  237POPC   C2B 3047   0.556   7.108   5.250
  237POPC   C3B 3048   0.591   7.181   5.550
  237POPC   C4B 3049   0.564   7.154   5.850
  238POPC   NC3 3050   0.643   0.511   4.050
  238POPC   PO4 3051   0.631   0.487   4.350
  238POPC   GL1 3052   0.620   0.426   4.650
  238POPC   GL2 3053   0.376   0.380   4.650
  238POPC   C1A 3054   0.599   0.503   4.950
  238POPC   D2A 3055   0.614   0.436   5.250
  238POPC   C3A 3056   0.624   0.473   5.550
  238POPC   C4A 3057   0.551   0.475   5.850
  238POPC   C1B 3058   0.249   0.330   4.950
  238POPC   C2B 3059   0.264   0.346   5.250
  238POPC   C3B 3060   0.285   0.416   5.550
  238POPC   C4B 3061   0.267   0.365   5.850
  239POPC   NC3 3062   6.271   2.685   4.050
  239POPC   PO4 3063   6.225   2.658   4.350
  239POPC   GL1 3064   6.290   2.685   4.650
  239POPC   GL2 3065   6.389   2.698   4.650
  239POPC   C1A 3066   6.271   2.675   4.950
  239POPC   D2A 3067   6.265   2.703   5.250
  239POPC   C3A 3068   6.232   2.705   5.550
  239POPC   C4A 3069   6.289   2.699   5.850
  239POPC   C1B 3070   6.614   2.682   4.950
  239POPC   C2B 3071   6.559   2.648   5.250
  239POPC   C3B 3072   6.625   2.708   5.550
  239POPC   C4B 3073   6.637   2.626   5.850
  240POPC   NC3 3074   1.992   7.729   4.050
  240POPC   PO4 3075   1.998   7.752   4.350
  240POPC   GL1 3076   2.036   7.756   4.650
  240POPC   GL2 3077   1.969   7.886   4.650
  240POPC   C1A 3078   2.002   7.772   4.950
  240POPC   D2A 3079   2.049   7.768   5.250
  240POPC   C3A 3080   2.005   7.821   5.550
  240POPC   C4A 3081   1.985   7.754   5.850
  240POPC   C1B 3082   1.798   8.106   4.950
  240POPC   C2B 3083   1.820   8.119   5.250
  240POPC   C3B 3084   1.845   8.119   5.550
  240POPC   C4B 3085   1.801   8.122   5.850
  241POPC   NC3 3086   1.202   8.077   4.050
  241POPC   PO4 3087   1.274   8.131   4.350
  241POPC   GL1 3088   1.285   8.114   4.650
  241POPC   GL2 3089   1.206   7.892   4.650
  241POPC   C1A 3090   1.282   8.043   4.950
  241POPC   D2A 3091   1.195   8.080   5.250
  241POPC   C3A 3092   1.283   8.097   5.550
  241POPC   C4A 3093   1.278   8.064   5.850
  241POPC   C1B 3094   1.112   7.774   4.950
  241POPC   C2B 3095   1.131   7.792   5.250
  241POPC   C3B 3096   1.093   7.727   5.550
  241POPC   C4B 3097   1.101   7.803   5.850
  242POPC   NC3 3098   0.553   7.922   4.050
  242POPC   PO4 3099   0.558   7.917   4.350
  242POPC   GL1 3100   0.579   7.929   4.650
  242POPC   GL2 3101   0.393   7.945   4.650
  242POPC   C1A 3102   0.568   7.986   4.950
  242POPC   D2A 3103   0.627   7.927   5.250
  242POPC   C3A 3104   0.638   7.963   5.550
  242POPC   C4A 3105   0.632   7.976   5.850
  242POPC   C1B 3106   0.298   7.878   4.950
  242POPC   C2B 3107   0.291   7.913   5.250
  242POPC   C3B 3108   0.244   7.892   5.550
  242POPC   C4B 3109   0.300   7.894   5.850
  243POPC   NC3 3110  10.120   3.581   4.050
  243POPC   PO4 3111  10.084   3.561   4.350
  243POPC   GL1 3112  10.045   3.590   4.650
  243POPC   GL2 3113  10.184   3.415   4.650
  243POPC   C1A 3114  10.035   3.543   4.950
  243POPC   D2A 3115  10.095   3.621   5.250
  243POPC   C3A 3116  10.120   3.534   5.550
  243POPC   C4A 3117  10.053   3.539   5.850
  243POPC   C1B 3118  10.279   3.257   4.950
  243POPC   C2B 3119  10.286   3.260   5.250
  243POPC   C3B 3120  10.244   3.323   5.550
  243POPC   C4B 3121  10.298   3.302   5.850
  244POPC   NC3 3122   2.046   0.440   4.050
  244POPC   PO4 3123   2.133   0.465   4.350
  244POPC   GL1 3124   2.045   0.521   4.650
  244POPC   GL2 3125   1.914   0.469   4.650
  244POPC   C1A 3126   2.103   0.502   4.950
  244POPC   D2A 3127   2.092   0.495   5.250
  244POPC   C3A 3128   2.105   0.440   5.550
  244POPC   C4A 3129   2.087   0.440   5.850
  244POPC   C1B 3130   1.727   0.410   4.950
  244POPC   C2B 3131   1.726   0.321   5.250
  244POPC   C3B 3132   1.790   0.347   5.550
  244POPC   C4B 3133   1.794   0.348   5.850
  245POPC   NC3 3134   7.254   1.728   4.050
  245POPC   PO4 3135   7.227   1.761   4.350
  245POPC   GL1 3136   7.291   1.797   4.650
  245POPC   GL2 3137   7.161   1.916   4.650
  245POPC   C1A 3138   7.279   1.773   4.950
  245POPC   D2A 3139   7.292   1.817   5.250
  245POPC   C3A 3140   7.295   1.759   5.550
  245POPC   C4A 3141   7.282   1.775   5.850
  245POPC   C1B 3142   7.136   2.061   4.950
  245POPC   C2B 3143   7.049   2.128   5.250
  245POPC   C3B 3144   7.088   2.121   5.550
  245POPC   C4B 3145   7.068   2.110   5.850
  246POPC   NC3 3146   8.043   7.849   4.050
  246POPC   PO4 3147   8.048   7.796   4.350
  246POPC   GL1 3148   8.033   7.842   4.650
  246POPC   GL2 3149   7.889   7.910   4.650
  246POPC   C1A 3150   8.053   7.792   4.950
  246POPC   D2A 3151   8.106   7.795   5.250
  246POPC   C3A 3152   8.027   7.833   5.550
  246POPC   C4A 3153   8.101   7.774   5.850
  246POPC   C1B 3154   7.820   8.016   4.950
  246POPC   C2B 3155   7.835   8.030   5.250
  246POPC   C3B 3156   7.795   8.056   5.550
  246POPC   C4B 3157   7.814   8.019   5.850
  247POPC   NC3 3158   4.081   2.525   4.050
  247POPC   PO4 3159   4.080   2.569   4.350
  247POPC   GL1 3160   4.078   2.563   4.650
  247POPC   GL2 3161   4.131   2.636   4.650
  247POPC   C1A 3162   4.100   2.545   4.950
  247POPC   D2A 3163   4.057   2.574   5.250
  247POPC   C3A 3164   4.076   2.547   5.550
  247POPC   C4A 3165   4.062   2.585   5.850
  247POPC   C1B 3166   4.341   2.797   4.950
  247POPC   C2B 3167   4.273   2.760   5.250
  247POPC   C3B 3168   4.271   2.809   5.550
  247POPC   C4B 3169   4.326   2.826   5.850
  248POPC   NC3 3170   9.295   5.027   4.050
  248POPC   PO4 3171   9.243   4.964   4.350
  248POPC   GL1 3172   9.282   4.981   4.650
  248POPC   GL2 3173   9.425   4.933   4.650
  248POPC   C1A 3174   9.308   4.963   4.950
  248POPC   D2A 3175   9.260   4.975   5.250
  248POPC   C3A 3176   9.302   4.966   5.550
  248POPC   C4A 3177   9.252   5.041   5.850
  248POPC   C1B 3178   9.576   4.897   4.950
  248POPC   C2B 3179   9.627   4.854   5.250
  248POPC   C3B 3180   9.566   4.853   5.550
  248POPC   C4B 3181   9.626   4.886   5.850
  249POPC   NC3 3182   7.756   7.231   4.050
  249POPC   PO4 3183   7.770   7.249   4.350
  249POPC   GL1 3184   7.723   7.179   4.650
  249POPC   GL2 3185   7.908   7.161   4.650
  249POPC   C1A 3186   7.736   7.232   4.950
  249POPC   D2A 3187   7.802   7.228   5.250
  249POPC   C3A 3188   7.769   7.248   5.550
  249POPC   C4A 3189   7.766   7.251   5.850
  249POPC   C1B 3190   8.051   7.179   4.950
  249POPC   C2B 3191   8.068   7.099   5.250
  249POPC   C3B 3192   8.095   7.184   5.550
  249POPC   C4B 3193   8.089   7.107   5.850
  250POPC   NC3 3194  10.104   6.223   4.050
  250POPC   PO4 3195  10.122   6.302   4.350
  250POPC   GL1 3196  10.113   6.261   4.650
  250POPC   GL2 3197  10.152   6.467   4.650
  250POPC   C1A 3198  10.167   6.220   4.950
  250POPC   D2A 3199  10.123   6.208   5.250
  250POPC   C3A 3200  10.193   6.214   5.550
  250POPC   C4A 3201  10.110   6.212   5.850
  250POPC   C1B 3202  10.214   6.637   4.950
  250POPC   C2B 3203  10.156   6.590   5.250
  250POPC   C3B 3204  10.184   6.646   5.550
  250POPC   C4B 3205  10.158   6.584   5.850
  251POPC   NC3 3206   5.848  10.280   4.050
  251POPC   PO4 3207   5.782  10.239   4.350
  251POPC   GL1 3208   5.857  10.245   4.650
  251POPC   GL2 3209   5.692  10.157   4.650
  251POPC   C1A 3210   5.768  10.268   4.950
  251POPC   D2A 3211   5.794  10.286   5.250
  251POPC   C3A 3212   5.811  10.236   5.550
  251POPC   C4A 3213   5.804  10.278   5.850
  251POPC   C1B 3214   5.568  10.106   4.950
  251POPC   C2B 3215   5.507  10.064   5.250
  251POPC   C3B 3216   5.567  10.072   5.550
  251POPC   C4B 3217   5.517  10.102   5.850
  252POPC   NC3 3218   0.475  10.019   4.050
  252POPC   PO4 3219   0.468   9.952   4.350
  252POPC   GL1 3220   0.458   9.992   4.650
  252POPC   GL2 3221   0.452  10.220   4.650
  252POPC   C1A 3222   0.440   9.968   4.950
  252POPC   D2A 3223   0.446  10.022   5.250
  252POPC   C3A 3224   0.428   9.989   5.550
  252POPC   C4A 3225   0.405   9.994   5.850
  252POPC   C1B 3226   0.440  10.330   4.950
  252POPC   C2B 3227   0.406  10.329   5.250
  252POPC   C3B 3228   0.404  10.300   5.550
  252POPC   C4B 3229   0.393  10.386   5.850
  253POPC   NC3 3230  10.237  10.307   4.050
  253POPC   PO4 3231  10.201  10.315   4.350
  253POPC   GL1 3232  10.162  10.312   4.650
  253POPC   GL2 3233  10.150  10.150   4.650
  253POPC   C1A 3234  10.154  10.378   4.950
  253POPC   D2A 3235  10.175  10.348   5.250
  253POPC   C3A 3236  10.227  10.369   5.550
  253POPC   C4A 3237  10.198  10.348   5.850
  253POPC   C1B 3238  10.191  10.031   4.950
  253POPC   C2B 3239  10.185   9.985   5.250
  253POPC   C3B 3240  10.103  10.030   5.550
  253POPC   C4B 3241  10.129   9.977   5.850
  254POPC   NC3 3242   3.592   0.366   4.050
  254POPC   PO4 3243   3.535   0.326   4.350
  254POPC   GL1 3244   3.604   0.326   4.650
  254POPC   GL2 3245   3.425   0.411   4.650
  254POPC   C1A 3246   3.526   0.340   4.950
  254POPC   D2A 3247   3.533   0.300   5.250
  254POPC   C3A 3248   3.591   0.330   5.550
  254POPC   C4A 3249   3.603   0.336   5.850
  254POPC   C1B 3250   3.277   0.490   4.950
  254POPC   C2B 3251   3.301   0.563   5.250
  254POPC   C3B 3252   3.236   0.506   5.550
  254POPC   C4B 3253   3.280   0.556   5.850
  255POPC   NC3 3254   9.506   6.556   4.050
  255POPC   PO4 3255   9.496   6.610   4.350
  255POPC   GL1 3256   9.539   6.611   4.650
  255POPC   GL2 3257   9.387   6.400   4.650
  255POPC   C1A 3258   9.564   6.544   4.950
  255POPC   D2A 3259   9.502   6.544   5.250
  255POPC   C3A 3260   9.553   6.553   5.550
  255POPC   C4A 3261   9.548   6.583   5.850
  255POPC   C1B 3262   9.346   6.259   4.950
  255POPC   C2B 3263   9.296   6.262   5.250
  255POPC   C3B 3264   9.348   6.330   5.550
  255POPC   C4B 3265   9.339   6.248   5.850
  256POPC   NC3 3266   0.960   4.940   4.050
  256POPC   PO4 3267   0.982   4.966   4.350
  256POPC   GL1 3268   1.025   4.914   4.650
  256POPC   GL2 3269   1.222   4.884   4.650
  256POPC   C1A 3270   0.985   4.923   4.950
  256POPC   D2A 3271   1.039   4.975   5.250
  256POPC   C3A 3272   1.040   4.925   5.550
  256POPC   C4A 3273   1.031   4.966   5.850
  256POPC   C1B 3274   1.320   4.933   4.950
  256POPC   C2B 3275   1.352   4.935   5.250
  256POPC   C3B 3276   1.354   4.947   5.550
  256POPC   C4B 3277   1.323   4.872   5.850
  257POPC   NC3 3278   8.585   8.749   4.050
  257POPC   PO4 3279   8.530   8.836   4.350
  257POPC   GL1 3280   8.537   8.819   4.650
  257POPC   GL2 3281   8.722   8.705   4.650
  257POPC   C1A 3282   8.522   8.810   4.950
  257POPC   D2A 3283   8.516   8.780   5.250
  257POPC   C3A 3284   8.548   8.759   5.550
  257POPC   C4A 3285   8.503   8.811   5.850
  257POPC   C1B 3286   8.796   8.558   4.950
  257POPC   C2B 3287   8.827   8.571   5.250
  257POPC   C3B 3288   8.843   8.527   5.550
  257POPC   C4B 3289   8.782   8.549   5.850
  258POPC   NC3 3290   6.982   8.764   4.050
  258POPC   PO4 3291   7.018   8.763   4.350
  258POPC   GL1 3292   7.021   8.751   4.650
  258POPC   GL2 3293   7.222   8.625   4.650
  258POPC   C1A 3294   7.005   8.734   4.950
  258POPC   D2A 3295   7.037   8.737   5.250
  258POPC   C3A 3296   6.993   8.692   5.550
  258POPC   C4A 3297   7.005   8.736   5.850
  258POPC   C1B 3298   7.352   8.631   4.950
  258POPC   C2B 3299   7.377   8.633   5.250
  258POPC   C3B 3300   7.322   8.620   5.550
  258POPC   C4B 3301   7.371   8.644   5.850
  259POPC   NC3 3302   4.010   1.322   4.050
  259POPC   PO4 3303   4.029   1.322   4.350
  259POPC   GL1 3304   4.061   1.289   4.650
  259POPC   GL2 3305   4.171   1.145   4.650
  259POPC   C1A 3306   4.003   1.266   4.950
  259POPC   D2A 3307   4.083   1.326   5.250
  259POPC   C3A 3308   4.087   1.334   5.550
  259POPC   C4A 3309   4.036   1.279   5.850
  259POPC   C1B 3310   4.332   1.105   4.950
  259POPC   C2B 3311   4.260   1.090   5.250
  259POPC   C3B 3312   4.346   1.016   5.550
  259POPC   C4B 3313   4.324   1.071   5.850
  260POPC   NC3 3314  10.197   9.630   4.050
  260POPC   PO4 3315  10.178   9.585   4.350
  260POPC   GL1 3316  10.170   9.627   4.650
  260POPC   GL2 3317  10.222   9.443   4.650
  260POPC   C1A 3318  10.154   9.622   4.950
  260POPC   D2A 3319  10.165   9.636   5.250
  260POPC   C3A 3320  10.177   9.583   5.550
  260POPC   C4A 3321  10.147   9.583   5.850
  260POPC   C1B 3322  10.210   9.248   4.950
  260POPC   C2B 3323  10.184   9.217   5.250
  260POPC   C3B 3324  10.217   9.274   5.550
  260POPC   C4B 3325  10.172   9.245   5.850
  261POPC   NC3 3326   6.555   8.101   4.050
  261POPC   PO4 3327   6.484   8.092   4.350
  261POPC   GL1 3328   6.482   8.076   4.650
  261POPC   GL2 3329   6.468   7.878   4.650
  261POPC   C1A 3330   6.513   8.057   4.950
  261POPC   D2A 3331   6.524   8.082   5.250
  261POPC   C3A 3332   6.500   8.070   5.550
  261POPC   C4A 3333   6.525   8.029   5.850
  261POPC   C1B 3334   6.320   7.802   4.950
  261POPC   C2B 3335   6.367   7.768   5.250
  261POPC   C3B 3336   6.336   7.802   5.550
  261POPC   C4B 3337   6.332   7.777   5.850
  262POPC   NC3 3338   8.508   1.030   4.050
  262POPC   PO4 3339   8.575   1.030   4.350
  262POPC   GL1 3340   8.562   1.029   4.650
  262POPC   GL2 3341   8.661   1.166   4.650
  262POPC   C1A 3342   8.519   1.041   4.950
  262POPC   D2A 3343   8.589   1.059   5.250
  262POPC   C3A 3344   8.578   1.016   5.550
  262POPC   C4A 3345   8.575   1.004   5.850
  262POPC   C1B 3346   8.750   1.332   4.950
  262POPC   C2B 3347   8.842   1.290   5.250
  262POPC   C3B 3348   8.802   1.267   5.550
  262POPC   C4B 3349   8.755   1.336   5.850
  263POPC   NC3 3350   2.479   9.395   4.050
  263POPC   PO4 3351   2.550   9.394   4.350
  263POPC   GL1 3352   2.477   9.406   4.650
  263POPC   GL2 3353   2.680   9.459   4.650
  263POPC   C1A 3354   2.464   9.352   4.950
  263POPC   D2A 3355   2.530   9.380   5.250
  263POPC   C3A 3356   2.520   9.373   5.550
  263POPC   C4A 3357   2.509   9.352   5.850
  263POPC   C1B 3358   2.831   9.427   4.950
  263POPC   C2B 3359   2.857   9.501   5.250
  263POPC   C3B 3360   2.820   9.429   5.550
  263POPC   C4B 3361   2.870   9.484   5.850
  264POPC   NC3 3362   5.506   8.681   4.050
  264POPC   PO4 3363   5.466   8.682   4.350
  264POPC   GL1 3364   5.469   8.686   4.650
  264POPC   GL2 3365   5.655   8.676   4.650
  264POPC   C1A 3366   5.463   8.695   4.950
  264POPC   D2A 3367   5.486   8.683   5.250
  264POPC   C3A 3368   5.527   8.666   5.550
  264POPC   C4A 3369   5.491   8.717   5.850
  264POPC   C1B 3370   5.809   8.604   4.950
  264POPC   C2B 3371   5.881   8.676   5.250
  264POPC   C3B 3372   5.891   8.590   5.550
  264POPC   C4B 3373   5.825   8.656   5.850
  265POPC   NC3 3374   9.452   3.547   4.050
  265POPC   PO4 3375   9.491   3.604   4.350
  265POPC   GL1 3376   9.482   3.561   4.650
  265POPC   GL2 3377   9.395   3.442   4.650
  265POPC   C1A 3378   9.527   3.617   4.950
  265POPC   D2A 3379   9.459   3.606   5.250
  265POPC   C3A 3380   9.455   3.560   5.550
  265POPC   C4A 3381   9.471   3.613   5.850
  265POPC   C1B 3382   9.387   3.260   4.950
  265POPC   C2B 3383   9.389   3.249   5.250
  265POPC   C3B 3384   9.311   3.252   5.550
  265POPC   C4B 3385   9.334   3.221   5.850
  266POPC   NC3 3386   0.601   1.828   4.050
  266POPC   PO4 3387   0.547   1.896   4.350
  266POPC   GL1 3388   0.566   1.858   4.650
  266POPC   GL2 3389   0.443   1.889   4.650
  266POPC   C1A 3390   0.584   1.853   4.950
  266POPC   D2A 3391   0.541   1.809   5.250
  266POPC   C3A 3392   0.594   1.837   5.550
  266POPC   C4A 3393   0.627   1.825   5.850
  266POPC   C1B 3394   0.244   1.981   4.950
  266POPC   C2B 3395   0.251   2.031   5.250
  266POPC   C3B 3396   0.231   2.014   5.550
  266POPC   C4B 3397   0.269   1.973   5.850
  267POPC   NC3 3398   9.477   0.562   4.050
  267POPC   PO4 3399   9.460   0.568   4.350
  267POPC   GL1 3400   9.439   0.602   4.650
  267POPC   GL2 3401   9.450   0.399   4.650
  267POPC   C1A 3402   9.454   0.618   4.950
  267POPC   D2A 3403   9.433   0.595   5.250
  267POPC   C3A 3404   9.489   0.643   5.550
  267POPC   C4A 3405   9.456   0.595   5.850
  267POPC   C1B 3406   9.356   0.223   4.950
  267POPC   C2B 3407   9.437   0.288   5.250
  267POPC   C3B 3408   9.384   0.283   5.550
  267POPC   C4B 3409   9.377   0.238   5.850
  268POPC   NC3 3410   8.520   3.456   4.050
  268POPC   PO4 3411   8.523   3.503   4.350
  268POPC   GL1 3412   8.547   3.476   4.650
  268POPC   GL2 3413   8.712   3.458   4.650
  268POPC   C1A 3414   8.487   3.453   4.950
  268POPC   D2A 3415   8.539   3.437   5.250
  268POPC   C3A 3416   8.483   3.499   5.550
  268POPC   C4A 3417   8.488   3.525   5.850
  268POPC   C1B 3418   8.868   3.330   4.950
  268POPC   C2B 3419   8.882   3.391   5.250
  268POPC   C3B 3420   8.827   3.412   5.550
  268POPC   C4B 3421   8.847   3.366   5.850
  269POPC   NC3 3422  10.319   5.581   4.050
  269POPC   PO4 3423  10.307   5.511   4.350
  269POPC   GL1 3424  10.285   5.585   4.650
  269POPC   GL2 3425  10.155   5.722   4.650
  269POPC   C1A 3426  10.347   5.544   4.950
  269POPC   D2A 3427  10.285   5.584   5.250
  269POPC   C3A 3428  10.264   5.603   5.550
  269POPC   C4A 3429  10.290   5.532   5.850
  269POPC   C1B 3430  10.012   5.817   4.950
  269POPC   C2B 3431  10.000   5.789   5.250
  269POPC   C3B 3432  10.013   5.775   5.550
  269POPC   C4B 3433  10.012   5.794   5.850
  270POPC   NC3 3434   9.292   9.592   4.050
  270POPC   PO4 3435   9.321   9.605   4.350
  270POPC   GL1 3436   9.312   9.572   4.650
  270POPC   GL2 3437   9.382   9.408   4.650
  270POPC   C1A 3438   9.268   9.602   4.950
  270POPC   D2A 3439   9.296   9.520   5.250
  270POPC   C3A 3440   9.359   9.523   5.550
  270POPC   C4A 3441   9.284   9.553   5.850
  270POPC   C1B 3442   9.498   9.269   4.950
  270POPC   C2B 3443   9.564   9.278   5.250
  270POPC   C3B 3444   9.546   9.323   5.550
  270POPC   C4B 3445   9.540   9.281   5.850
  271POPC   NC3 3446   2.640   5.525   4.050
  271POPC   PO4 3447   2.632   5.549   4.350
  271POPC   GL1 3448   2.592   5.560   4.650
  271POPC   GL2 3449   2.707   5.642   4.650
  271POPC   C1A 3450   2.598   5.565   4.950
  271POPC   D2A 3451   2.622   5.520   5.250
  271POPC   C3A 3452   2.643   5.539   5.550
  271POPC   C4A 3453   2.608   5.473   5.850
  271POPC   C1B 3454   2.785   5.881   4.950
  271POPC   C2B 3455   2.781   5.857   5.250
  271POPC   C3B 3456   2.743   5.835   5.550
  271POPC   C4B 3457   2.761   5.850   5.850
  272POPC   NC3 3458   1.977   3.245   4.050
  272POPC   PO4 3459   1.889   3.251   4.350
  272POPC   GL1 3460   1.970   3.290   4.650
  272POPC   GL2 3461   1.957   3.436   4.650
  272POPC   C1A 3462   1.920   3.283   4.950
  272POPC   D2A 3463   1.924   3.286   5.250
  272POPC   C3A 3464   1.931   3.281   5.550
  272POPC   C4A 3465   1.968   3.247   5.850
  272POPC   C1B 3466   1.908   3.645   4.950
  272POPC   C2B 3467   1.960   3.574   5.250
  272POPC   C3B 3468   1.867   3.603   5.550
  272POPC   C4B 3469   1.916   3.565   5.850
  273POPC   NC3 3470   0.545   4.282   4.050
  273POPC   PO4 3471   0.606   4.219   4.350
  273POPC   GL1 3472   0.544   4.258   4.650
  273POPC   GL2 3473   0.380   4.214   4.650
  273POPC   C1A 3474   0.584   4.266   4.950
  273POPC   D2A 3475   0.546   4.263   5.250
  273POPC   C3A 3476   0.621   4.289   5.550
  273POPC   C4A 3477   0.591   4.236   5.850
  273POPC   C1B 3478   0.315   4.062   4.950
  273POPC   C2B 3479   0.257   4.087   5.250
  273POPC   C3B 3480   0.276   4.059   5.550
  273POPC   C4B 3481   0.308   4.077   5.850
  274POPC   NC3 3482   4.788   1.208   4.050
  274POPC   PO4 3483   4.756   1.152   4.350
  274POPC   GL1 3484   4.738   1.152   4.650
  274POPC   GL2 3485   4.966   1.148   4.650
  274POPC   C1A 3486   4.714   1.127   4.950
  274POPC   D2A 3487   4.746   1.122   5.250
  274POPC   C3A 3488   4.751   1.132   5.550
  274POPC   C4A 3489   4.799   1.131   5.850
  274POPC   C1B 3490   5.054   1.153   4.950
  274POPC   C2B 3491   5.142   1.175   5.250
  274POPC   C3B 3492   5.100   1.205   5.550
  274POPC   C4B 3493   5.120   1.147   5.850
  275POPC   NC3 3494   7.786   8.546   4.050
  275POPC   PO4 3495   7.841   8.594   4.350
  275POPC   GL1 3496   7.762   8.522   4.650
  275POPC   GL2 3497   7.878   8.715   4.650
  275POPC   C1A 3498   7.813   8.554   4.950
  275POPC   D2A 3499   7.810   8.496   5.250
  275POPC   C3A 3500   7.788   8.531   5.550
  275POPC   C4A 3501   7.761   8.562   5.850
  275POPC   C1B 3502   8.007   8.756   4.950
  275POPC   C2B 3503   8.050   8.852   5.250
  275POPC   C3B 3504   8.009   8.765   5.550
  275POPC   C4B 3505   8.070   8.830   5.850
  276POPC   NC3 3506   2.527   4.323   4.050
  276POPC   PO4 3507   2.495   4.330   4.350
  276POPC   GL1 3508   2.556   4.242   4.650
  276POPC   GL2 3509   2.673   4.194   4.650
  276POPC   C1A 3510   2.574   4.278   4.950
  276POPC   D2A 3511   2.574   4.334   5.250
  276POPC   C3A 3512   2.531   4.327   5.550
  276POPC   C4A 3513   2.569   4.253   5.850
  276POPC   C1B 3514   2.801   4.089   4.950
  276POPC   C2B 3515   2.846   4.109   5.250
  276POPC   C3B 3516   2.816   4.069   5.550
  276POPC   C4B 3517   2.859   4.026   5.850
  277POPC   NC3 3518   5.459   1.228   4.050
  277POPC   PO4 3519   5.499   1.216   4.350
  277POPC   GL1 3520   5.546   1.179   4.650
  277POPC   GL2 3521   5.641   1.211   4.650
  277POPC   C1A 3522   5.482   1.218   4.950
  277POPC   D2A 3523   5.473   1.201   5.250
  277POPC   C3A 3524   5.548   1.220   5.550
  277POPC   C4A 3525   5.519   1.225   5.850
  277POPC   C1B 3526   5.860   1.144   4.950
  277POPC   C2B 3527   5.800   1.198   5.250
  277POPC   C3B 3528   5.895   1.204   5.550
  277POPC   C4B 3529   5.831   1.194   5.850
  278POPC   NC3 3530   9.550   5.697   4.050
  278POPC   PO4 3531   9.610   5.671   4.350
  278POPC   GL1 3532   9.592   5.651   4.650
  278POPC   GL2 3533   9.455   5.650   4.650
  278POPC   C1A 3534   9.609   5.697   4.950
  278POPC   D2A 3535   9.593   5.645   5.250
  278POPC   C3A 3536   9.596   5.664   5.550
  278POPC   C4A 3537   9.587   5.648   5.850
  278POPC   C1B 3538   9.222   5.690   4.950
  278POPC   C2B 3539   9.300   5.626   5.250
  278POPC   C3B 3540   9.288   5.624   5.550
  278POPC   C4B 3541   9.251   5.661   5.850
  279POPC   NC3 3542   5.801   9.252   4.050
  279POPC   PO4 3543   5.768   9.284   4.350
  279POPC   GL1 3544   5.813   9.300   4.650
  279POPC   GL2 3545   5.654   9.398   4.650
  279POPC   C1A 3546   5.809   9.240   4.950
  279POPC   D2A 3547   5.734   9.296   5.250
  279POPC   C3A 3548   5.782   9.278   5.550
  279POPC   C4A 3549   5.746   9.243   5.850
  279POPC   C1B 3550   5.625   9.526   4.950
  279POPC   C2B 3551   5.560   9.594   5.250
  279POPC   C3B 3552   5.566   9.547   5.550
  279POPC   C4B 3553   5.629   9.578   5.850
  280POPC   NC3 3554   9.611   7.194   4.050
  280POPC   PO4 3555   9.618   7.240   4.350
  280POPC   GL1 3556   9.548   7.243   4.650
  280POPC   GL2 3557   9.440   7.145   4.650
  280POPC   C1A 3558   9.618   7.184   4.950
  280POPC   D2A 3559   9.576   7.210   5.250
  280POPC   C3A 3560   9.600   7.164   5.550
  280POPC   C4A 3561   9.608   7.195   5.850
  280POPC   C1B 3562   9.299   7.176   4.950
  280POPC   C2B 3563   9.220   7.188   5.250
  280POPC   C3B 3564   9.257   7.109   5.550
  280POPC   C4B 3565   9.294   7.142   5.850
  281POPC   NC3 3566   2.716   2.056   4.050
  281POPC   PO4 3567   2.709   2.034   4.350
  281POPC   GL1 3568   2.756   2.120   4.650
  281POPC   GL2 3569   2.636   1.886   4.650
  281POPC   C1A 3570   2.714   2.082   4.950
  281POPC   D2A 3571   2.788   2.079   5.250
  281POPC   C3A 3572   2.800   2.085   5.550
  281POPC   C4A 3573   2.766   2.062   5.850
  281POPC   C1B 3574   2.599   1.744   4.950
  281POPC   C2B 3575   2.547   1.778   5.250
  281POPC   C3B 3576   2.556   1.740   5.550
  281POPC   C4B 3577   2.628   1.741   5.850
  282POPC   NC3 3578   4.059   1.747   4.050
  282POPC   PO4 3579   4.121   1.794   4.350
  282POPC   GL1 3580   4.078   1.765   4.650
  282POPC   GL2 3581   4.202   1.909   4.650
  282POPC   C1A 3582   4.122   1.823   4.950
  282POPC   D2A 3583   4.076   1.785   5.250
  282POPC   C3A 3584   4.081   1.790   5.550
  282POPC   C4A 3585   4.128   1.732   5.850
  282POPC   C1B 3586   4.261   2.089   4.950
  282POPC   C2B 3587   4.286   2.106   5.250
  282POPC   C3B 3588   4.278   2.095   5.550
  282POPC   C4B 3589   4.315   2.091   5.850
  283POPC   NC3 3590   2.776  10.359   4.050
  283POPC   PO4 3591   2.775  10.350   4.350
  283POPC   GL1 3592   2.727  10.288   4.650
  283POPC   GL2 3593   2.669  10.180   4.650
  283POPC   C1A 3594   2.739  10.327   4.950
  283POPC   D2A 3595   2.730  10.375   5.250
  283POPC   C3A 3596   2.769  10.378   5.550
  283POPC   C4A 3597   2.736  10.359   5.850
  283POPC   C1B 3598   2.561  10.035   4.950
  283POPC   C2B 3599   2.554   9.988   5.250
  283POPC   C3B 3600   2.617  10.048   5.550
  283POPC   C4B 3601   2.569  10.058   5.850
  284POPC   NC3 3602   4.062   0.492   4.050
  284POPC   PO4 3603   3.995   0.517   4.350
  284POPC   GL1 3604   4.014   0.544   4.650
  284POPC   GL2 3605   4.183   0.392   4.650
  284POPC   C1A 3606   3.987   0.473   4.950
  284POPC   D2A 3607   4.000   0.479   5.250
  284POPC   C3A 3608   4.050   0.447   5.550
  284POPC   C4A 3609   3.979   0.523   5.850
  284POPC   C1B 3610   4.337   0.310   4.950
  284POPC   C2B 3611   4.375   0.400   5.250
  284POPC   C3B 3612   4.321   0.320   5.550
  284POPC   C4B 3613   4.336   0.348   5.850
  285POPC   NC3 3614   1.167   6.958   4.050
  285POPC   PO4 3615   1.117   7.020   4.350
  285POPC   GL1 3616   1.163   7.049   4.650
  285POPC   GL2 3617   1.159   7.161   4.650
  285POPC   C1A 3618   1.142   6.972   4.950
  285POPC   D2A 3619   1.130   6.952   5.250
  285POPC   C3A 3620   1.197   6.974   5.550
  285POPC   C4A 3621   1.112   7.022   5.850
  285POPC   C1B 3622   1.176   7.349   4.950
  285POPC   C2B 3623   1.190   7.386   5.250
  285POPC   C3B 3624   1.174   7.361   5.550
  285POPC   C4B 3625   1.147   7.343   5.850
  286POPC   NC3 3626   7.995   2.551   4.050
  286POPC   PO4 3627   7.984   2.565   4.350
  286POPC   GL1 3628   8.051   2.566   4.650
  286POPC   GL2 3629   7.905   2.629   4.650
  286POPC   C1A 3630   8.059   2.570   4.950
  286POPC   D2A 3631   7.981   2.567   5.250
  286POPC   C3A 3632   7.980   2.506   5.550
  286POPC   C4A 3633   8.014   2.498   5.850
  286POPC   C1B 3634   7.810   2.821   4.950
  286POPC   C2B 3635   7.784   2.807   5.250
  286POPC   C3B 3636   7.788   2.788   5.550
  286POPC   C4B 3637   7.785   2.845   5.850
  287POPC   NC3 3638   1.881   9.589   4.050
  287POPC   PO4 3639   1.910   9.573   4.350
  287POPC   GL1 3640   1.885   9.612   4.650
  287POPC   GL2 3641   1.965   9.429   4.650
  287POPC   C1A 3642   1.873   9.593   4.950
  287POPC   D2A 3643   1.894   9.624   5.250
  287POPC   C3A 3644   1.885   9.570   5.550
  287POPC   C4A 3645   1.912   9.638   5.850
  287POPC   C1B 3646   1.908   9.238   4.950
  287POPC   C2B 3647   1.964   9.269   5.250
  287POPC   C3B 3648   1.906   9.284   5.550
  287POPC   C4B 3649   1.990   9.220   5.850
  288POPC   NC3 3650   8.886   1.881   4.050
  288POPC   PO4 3651   8.868   1.908   4.350
  288POPC   GL1 3652   8.806   1.887   4.650
  288POPC   GL2 3653   8.641   1.932   4.650
  288POPC   C1A 3654   8.854   1.905   4.950
  288POPC   D2A 3655   8.857   1.843   5.250
  288POPC   C3A 3656   8.844   1.928   5.550
  288POPC   C4A 3657   8.885   1.851   5.850
  288POPC   C1B 3658   8.511   1.925   4.950
  288POPC   C2B 3659   8.522   1.928   5.250
  288POPC   C3B 3660   8.461   1.967   5.550
  288POPC   C4B 3661   8.518   1.937   5.850
  289POPC   NC3 3662   2.598   2.860   4.050
  289POPC   PO4 3663   2.626   2.800   4.350
  289POPC   GL1 3664   2.565   2.848   4.650
  289POPC   GL2 3665   2.690   2.648   4.650
  289POPC   C1A 3666   2.536   2.782   4.950
  289POPC   D2A 3667   2.554   2.770   5.250
  289POPC   C3A 3668   2.590   2.866   5.550
  289POPC   C4A 3669   2.566   2.844   5.850
  289POPC   C1B 3670   2.787   2.509   4.950
  289POPC   C2B 3671   2.728   2.544   5.250
  289POPC   C3B 3672   2.729   2.551   5.550
  289POPC   C4B 3673   2.766   2.537   5.850
  290POPC   NC3 3674  10.171   8.469   4.050
  290POPC   PO4 3675  10.131   8.484   4.350
  290POPC   GL1 3676  10.132   8.483   4.650
  290POPC   GL2 3677  10.129   8.637   4.650
  290POPC   C1A 3678  10.146   8.481   4.950
  290POPC   D2A 3679  10.114   8.533   5.250
  290POPC   C3A 3680  10.141   8.515   5.550
  290POPC   C4A 3681  10.186   8.464   5.850
  290POPC   C1B 3682  10.223   8.847   4.950
  290POPC   C2B 3683  10.257   8.859   5.250
  290POPC   C3B 3684  10.215   8.870   5.550
  290POPC   C4B 3685  10.245   8.811   5.850
  291POPC   NC3 3686   8.824   5.067   4.050
  291POPC   PO4 3687   8.802   5.089   4.350
  291POPC   GL1 3688   8.746   5.019   4.650
  291POPC   GL2 3689   8.629   4.885   4.650
  291POPC   C1A 3690   8.762   5.068   4.950
  291POPC   D2A 3691   8.750   5.036   5.250
  291POPC   C3A 3692   8.738   5.094   5.550
  291POPC   C4A 3693   8.739   5.088   5.850
  291POPC   C1B 3694   8.605   4.767   4.950
  291POPC   C2B 3695   8.515   4.780   5.250
  291POPC   C3B 3696   8.525   4.826   5.550
  291POPC   C4B 3697   8.600   4.799   5.850
  292POPC   NC3 3698  10.025   2.818   4.050
  292POPC   PO4 3699  10.095   2.791   4.350
  292POPC   GL1 3700  10.059   2.770   4.650
  292POPC   GL2 3701  10.223   2.634   4.650
  292POPC   C1A 3702  10.062   2.819   4.950
  292POPC   D2A 3703  10.098   2.834   5.250
  292POPC   C3A 3704  10.089   2.860   5.550
  292POPC   C4A 3705  10.115   2.813   5.850
  292POPC   C1B 3706  10.232   2.524   4.950
  292POPC   C2B 3707  10.264   2.542   5.250
  292POPC   C3B 3708  10.276   2.533   5.550
  292POPC   C4B 3709  10.290   2.525   5.850
  293POPC   NC3 3710   0.426   1.011   4.050
  293POPC   PO4 3711   0.451   1.021   4.350
  293POPC   GL1 3712   0.452   0.997   4.650
  293POPC   GL2 3713   0.381   1.131   4.650
  293POPC   C1A 3714   0.512   0.967   4.950
  293POPC   D2A 3715   0.462   1.022   5.250
  293POPC   C3A 3716   0.442   0.980   5.550
  293POPC   C4A 3717   0.504   1.020   5.850
  293POPC   C1B 3718   0.338   1.295   4.950
  293POPC   C2B 3719   0.397   1.366   5.250
  293POPC   C3B 3720   0.422   1.352   5.550
  293POPC   C4B 3721   0.333   1.322   5.850
  294POPC   NC3 3722   4.374  10.207   4.050
  294POPC   PO4 3723   4.356  10.221   4.350
  294POPC   GL1 3724   4.377  10.260   4.650
  294POPC   GL2 3725   4.146  10.181   4.650
  294POPC   C1A 3726   4.383  10.201   4.950
  294POPC   D2A 3727   4.321  10.244   5.250
  294POPC   C3A 3728   4.291  10.250   5.550
  294POPC   C4A 3729   4.331  10.278   5.850
  294POPC   C1B 3730   3.996  10.141   4.950
  294POPC   C2B 3731   4.023  10.135   5.250
  294POPC   C3B 3732   4.060  10.121   5.550
  294POPC   C4B 3733   3.969  10.159   5.850
  295POPC   NC3 3734   6.596   9.467   4.050
  295POPC   PO4 3735   6.550   9.508   4.350
  295POPC   GL1 3736   6.557   9.506   4.650
  295POPC   GL2 3737   6.412   9.391   4.650
  295POPC   C1A 3738   6.576   9.420   4.950
  295POPC   D2A 3739   6.595   9.420   5.250
  295POPC   C3A 3740   6.565   9.431   5.550
  295POPC   C4A 3741   6.562   9.457   5.850
  295POPC   C1B 3742   6.216   9.405   4.950
  295POPC   C2B 3743   6.293   9.380   5.250
  295POPC   C3B 3744   6.220   9.427   5.550
  295POPC   C4B 3745   6.269   9.382   5.850
  296POPC   NC3 3746   1.029   5.534   4.050
  296POPC   PO4 3747   1.056   5.538   4.350
  296POPC   GL1 3748   1.053   5.563   4.650
  296POPC   GL2 3749   1.194   5.646   4.650
  296POPC   C1A 3750   1.084   5.607   4.950
  296POPC   D2A 3751   1.046   5.543   5.250
  296POPC   C3A 3752   1.069   5.559   5.550
  296POPC   C4A 3753   1.013   5.561   5.850
  296POPC   C1B 3754   1.275   5.788   4.950
  296POPC   C2B 3755   1.353   5.745   5.250
  296POPC   C3B 3756   1.353   5.835   5.550
  296POPC   C4B 3757   1.320   5.805   5.850
  297POPC   NC3 3758   1.305   4.164   4.050
  297POPC   PO4 3759   1.342   4.135   4.350
  297POPC   GL1 3760   1.373   4.205   4.650
  297POPC   GL2 3761   1.190   4.216   4.650
  297POPC   C1A 3762   1.354   4.163   4.950
  297POPC   D2A 3763   1.355   4.177   5.250
  297POPC   C3A 3764   1.301   4.189   5.550
  297POPC   C4A 3765   1.349   4.111   5.850
  297POPC   C1B 3766   1.000   4.145   4.950
  297POPC   C2B 3767   0.971   4.191   5.250
  297POPC   C3B 3768   1.039   4.209   5.550
  297POPC   C4B 3769   0.995   4.183   5.850
  298POPC   NC3 3770  10.278   1.717   4.050
  298POPC   PO4 3771  10.240   1.801   4.350
  298POPC   GL1 3772  10.195   1.772   4.650
  298POPC   GL2 3773  10.210   1.891   4.650
  298POPC   C1A 3774  10.274   1.813   4.950
  298POPC   D2A 3775  10.223   1.750   5.250
  298POPC   C3A 3776  10.198   1.801   5.550
  298POPC   C4A 3777  10.266   1.763   5.850
  298POPC   C1B 3778  10.137   2.061   4.950
  298POPC   C2B 3779  10.124   2.079   5.250
  298POPC   C3B 3780  10.072   2.053   5.550
  298POPC   C4B 3781  10.098   2.074   5.850
  299POPC   NC3 3782   9.403   3.993   4.050
  299POPC   PO4 3783   9.479   3.962   4.350
  299POPC   GL1 3784   9.478   4.001   4.650
  299POPC   GL2 3785   9.389   4.132   4.650
  299POPC   C1A 3786   9.418   4.022   4.950
  299POPC   D2A 3787   9.403   4.027   5.250
  299POPC   C3A 3788   9.490   4.032   5.550
  299POPC   C4A 3789   9.411   3.988   5.850
  299POPC   C1B 3790   9.435   4.346   4.950
  299POPC   C2B 3791   9.384   4.303   5.250
  299POPC   C3B 3792   9.400   4.358   5.550
  299POPC   C4B 3793   9.355   4.315   5.850
  300POPC   NC3 3794   2.518   8.084   4.050
  300POPC   PO4 3795   2.584   8.043   4.350
  300POPC   GL1 3796   2.589   8.003   4.650
  300POPC   GL2 3797   2.633   7.894   4.650
  300POPC   C1A 3798   2.566   8.020   4.950
  300POPC   D2A 3799   2.521   8.084   5.250
  300POPC   C3A 3800   2.551   8.007   5.550
  300POPC   C4A 3801   2.506   8.013   5.850
  300POPC   C1B 3802   2.795   7.813   4.950
  300POPC   C2B 3803   2.794   7.759   5.250
  300POPC   C3B 3804   2.811   7.831   5.550
  300POPC   C4B 3805   2.754   7.817   5.850
  301POPC   NC3 3806   0.338   6.240   4.050
  301POPC   PO4 3807   0.306   6.267   4.350
  301POPC   GL1 3808   0.367   6.247   4.650
  301POPC   GL2 3809   0.388   6.466   4.650
  301POPC   C1A 3810   0.276   6.282   4.950
  301POPC   D2A 3811   0.362   6.263   5.250
  301POPC   C3A 3812   0.304   6.311   5.550
  301POPC   C4A 3813   0.272   6.284   5.850
  301POPC   C1B 3814   0.552   6.613   4.950
  301POPC   C2B 3815   0.546   6.516   5.250
  301POPC   C3B 3816   0.487   6.520   5.550
  301POPC   C4B 3817   0.550   6.576   5.850
  302POPC   NC3 3818  10.122   7.728   4.050
  302POPC   PO4 3819  10.125   7.741   4.350
  302POPC   GL1 3820  10.063   7.718   4.650
  302POPC   GL2 3821  10.177   7.952   4.650
  302POPC   C1A 3822  10.059   7.799   4.950
  302POPC   D2A 3823  10.091   7.805   5.250
  302POPC   C3A 3824  10.084   7.785   5.550
  302POPC   C4A 3825  10.140   7.768   5.850
  302POPC   C1B 3826  10.291   8.035   4.950
  302POPC   C2B 3827  10.273   8.059   5.250
  302POPC   C3B 3828  10.205   8.044   5.550
  302POPC   C4B 3829  10.280   8.084   5.850
  303POPC   NC3 3830   8.800   7.156   4.050
  303POPC   PO4 3831   8.820   7.143   4.350
  303POPC   GL1 3832   8.812   7.205   4.650
  303POPC   GL2 3833   8.632   7.182   4.650
  303POPC   C1A 3834   8.806   7.122   4.950
  303POPC   D2A 3835   8.873   7.158   5.250
  303POPC   C3A 3836   8.892   7.148   5.550
  303POPC   C4A 3837   8.848   7.181   5.850
  303POPC   C1B 3838   8.483   7.191   4.950
  303POPC   C2B 3839   8.496   7.137   5.250
  303POPC   C3B 3840   8.508   7.141   5.550
  303POPC   C4B 3841   8.481   7.227   5.850
  304POPC   NC3 3842   6.307   0.514   4.050
  304POPC   PO4 3843   6.251   0.531   4.350
  304POPC   GL1 3844   6.308   0.535   4.650
  304POPC   GL2 3845   6.448   0.452   4.650
  304POPC   C1A 3846   6.277   0.492   4.950
  304POPC   D2A 3847   6.281   0.508   5.250
  304POPC   C3A 3848   6.267   0.533   5.550
  304POPC   C4A 3849   6.262   0.498   5.850
  304POPC   C1B 3850   6.573   0.301   4.950
  304POPC   C2B 3851   6.609   0.302   5.250
  304POPC   C3B 3852   6.620   0.327   5.550
  304POPC   C4B 3853   6.600   0.377   5.850
  305POPC   NC3 3854   4.181   9.586   4.050
  305POPC   PO4 3855   4.223   9.614   4.350
  305POPC   GL1 3856   4.234   9.624   4.650
  305POPC   GL2 3857   4.180   9.456   4.650
  305POPC   C1A 3858   4.171   9.624   4.950
  305POPC   D2A 3859   4.192   9.567   5.250
  305POPC   C3A 3860   4.253   9.606   5.550
  305POPC   C4A 3861   4.205   9.618   5.850
  305POPC   C1B 3862   4.091   9.265   4.950
  305POPC   C2B 3863   4.129   9.226   5.250
  305POPC   C3B 3864   4.169   9.255   5.550
  305POPC   C4B 3865   4.162   9.225   5.850
  306POPC   NC3 3866   8.567   4.243   4.050
  306POPC   PO4 3867   8.565   4.260   4.350
  306POPC   GL1 3868   8.569   4.289   4.650
  306POPC   GL2 3869   8.691   4.197   4.650
  306POPC   C1A 3870   8.549   4.315   4.950
  306POPC   D2A 3871   8.577   4.303   5.250
  306POPC   C3A 3872   8.531   4.232   5.550
  306POPC   C4A 3873   8.560   4.270   5.850
  306POPC   C1B 3874   8.806   4.033   4.950
  306POPC   C2B 3875   8.805   4.092   5.250
  306POPC   C3B 3876   8.813   4.128   5.550
  306POPC   C4B 3877   8.822   4.035   5.850
  307POPC   NC3 3878   7.907   2.070   4.050
  307POPC   PO4 3879   7.888   2.076   4.350
  307POPC   GL1 3880   7.873   2.058   4.650
  307POPC   GL2 3881   7.967   1.950   4.650
  307POPC   C1A 3882   7.937   2.131   4.950
  307POPC   D2A 3883   7.933   2.079   5.250
  307POPC   C3A 3884   7.934   2.056   5.550
  307POPC   C4A 3885   7.935   2.096   5.850
  307POPC   C1B 3886   7.963   1.801   4.950
  307POPC   C2B 3887   7.954   1.716   5.250
  307POPC   C3B 3888   7.926   1.711   5.550
  307POPC   C4B 3889   7.912   1.741   5.850
  308POPC   NC3 3890   9.592   1.955   4.050
  308POPC   PO4 3891   9.592   1.929   4.350
  308POPC   GL1 3892   9.553   2.001   4.650
  308POPC   GL2 3893   9.415   1.965   4.650
  308POPC   C1A 3894   9.612   1.965   4.950
  308POPC   D2A 3895   9.611   2.000   5.250
  308POPC   C3A 3896   9.586   1.991   5.550
  308POPC   C4A 3897   9.588   1.943   5.850
  308POPC   C1B 3898   9.219   1.913   4.950
  308POPC   C2B 3899   9.212   1.873   5.250
  308POPC   C3B 3900   9.297   1.870   5.550
  308POPC   C4B 3901   9.234   1.918   5.850
  309POPC   NC3 3902   3.584   8.024   4.050
  309POPC   PO4 3903   3.524   8.013   4.350
  309POPC   GL1 3904   3.554   7.997   4.650
  309POPC   GL2 3905   3.468   7.895   4.650
  309POPC   C1A 3906   3.612   8.039   4.950
  309POPC   D2A 3907   3.513   8.045   5.250
  309POPC   C3A 3908   3.584   8.054   5.550
  309POPC   C4A 3909   3.538   7.986   5.850
  309POPC   C1B 3910   3.293   7.791   4.950
  309POPC   C2B 3911   3.278   7.865   5.250
  309POPC   C3B 3912   3.252   7.781   5.550
  309POPC   C4B 3913   3.319   7.840   5.850
  310POPC   NC3 3914   0.301   4.987   4.050
  310POPC   PO4 3915   0.297   4.988   4.350
  310POPC   GL1 3916   0.294   4.997   4.650
  310POPC   GL2 3917   0.466   4.951   4.650
  310POPC   C1A 3918   0.211   4.914   4.950
  310POPC   D2A 3919   0.228   4.949   5.250
  310POPC   C3A 3920   0.230   4.987   5.550
  310POPC   C4A 3921   0.264   4.913   5.850
  310POPC   C1B 3922   0.628   4.873   4.950
  310POPC   C2B 3923   0.635   4.874   5.250
  310POPC   C3B 3924   0.617   4.943   5.550
  310POPC   C4B 3925   0.616   4.905   5.850
  311POPC   NC3 3926   0.970   8.715   4.050
  311POPC   PO4 3927   0.987   8.737   4.350
  311POPC   GL1 3928   0.963   8.744   4.650
  311POPC   GL2 3929   1.174   8.687   4.650
  311POPC   C1A 3930   1.007   8.755   4.950
  311POPC   D2A 3931   1.044   8.696   5.250
  311POPC   C3A 3932   1.040   8.750   5.550
  311POPC   C4A 3933   0.996   8.715   5.850
  311POPC   C1B 3934   1.334   8.576   4.950
  311POPC   C2B 3935   1.298   8.585   5.250
  311POPC   C3B 3936   1.366   8.591   5.550
  311POPC   C4B 3937   1.324   8.634   5.850
  312POPC   NC3 3938   8.081   9.471   4.050
  312POPC   PO4 3939   8.147   9.396   4.350
  312POPC   GL1 3940   8.086   9.474   4.650
  312POPC   GL2 3941   7.940   9.441   4.650
  312POPC   C1A 3942   8.056   9.384   4.950
  312POPC   D2A 3943   8.101   9.399   5.250
  312POPC   C3A 3944   8.053   9.382   5.550
  312POPC   C4A 3945   8.052   9.468   5.850
  312POPC   C1B 3946   7.797   9.439   4.950
  312POPC   C2B 3947   7.742   9.388   5.250
  312POPC   C3B 3948   7.791   9.457   5.550
  312POPC   C4B 3949   7.720   9.431   5.850
  313POPC   NC3 3950   3.395   0.973   4.050
  313POPC   PO4 3951   3.413   1.047   4.350
  313POPC   GL1 3952   3.468   1.048   4.650
  313POPC   GL2 3953   3.458   1.208   4.650
  313POPC   C1A 3954   3.428   0.989   4.950
  313POPC   D2A 3955   3.396   0.997   5.250
  313POPC   C3A 3956   3.389   1.009   5.550
  313POPC   C4A 3957   3.421   0.965   5.850
  313POPC   C1B 3958   3.471   1.333   4.950
  313POPC   C2B 3959   3.437   1.382   5.250
  313POPC   C3B 3960   3.441   1.305   5.550
  313POPC   C4B 3961   3.443   1.346   5.850
  314POPC   NC3 3962   3.465   8.536   4.050
  314POPC   PO4 3963   3.499   8.519   4.350
  314POPC   GL1 3964   3.536   8.550   4.650
  314POPC   GL2 3965   3.414   8.681   4.650
  314POPC   C1A 3966   3.530   8.539   4.950
  314POPC   D2A 3967   3.515   8.515   5.250
  314POPC   C3A 3968   3.528   8.499   5.550
  314POPC   C4A 3969   3.496   8.483   5.850
  314POPC   C1B 3970   3.304   8.790   4.950
  314POPC   C2B 3971   3.372   8.811   5.250
  314POPC   C3B 3972   3.352   8.857   5.550
  314POPC   C4B 3973   3.382   8.816   5.850
  315POPC   NC3 3974   2.830   7.081   4.050
  315POPC   PO4 3975   2.845   7.099   4.350
  315POPC   GL1 3976   2.879   7.107   4.650
  315POPC   GL2 3977   2.667   7.129   4.650
  315POPC   C1A 3978   2.799   7.119   4.950
  315POPC   D2A 3979   2.801   7.147   5.250
  315POPC   C3A 3980   2.886   7.140   5.550
  315POPC   C4A 3981   2.844   7.085   5.850
  315POPC   C1B 3982   2.545   7.189   4.950
  315POPC   C2B 3983   2.525   7.209   5.250
  315POPC   C3B 3984   2.520   7.228   5.550
  315POPC   C4B 3985   2.532   7.193   5.850
  316POPC   NC3 3986   1.335   6.447   4.050
  316POPC   PO4 3987   1.319   6.502   4.350
  316POPC   GL1 3988   1.350   6.460   4.650
  316POPC   GL2 3989   1.137   6.444   4.650
  316POPC   C1A 3990   1.318   6.526   4.950
  316POPC   D2A 3991   1.343   6.527   5.250
  316POPC   C3A 3992   1.312   6.499   5.550
  316POPC   C4A 3993   1.369   6.534   5.850
  316POPC   C1B 3994   1.028   6.318   4.950
  316POPC   C2B 3995   1.046   6.372   5.250
  316POPC   C3B 3996   1.002   6.315   5.550
  316POPC   C4B 3997   0.997   6.379   5.850
  317POPC   NC3 3998   0.315   5.825   4.050
  317POPC   PO4 3999   0.334   5.827   4.350
  317POPC   GL1 4000   0.281   5.773   4.650
  317POPC   GL2 4001   0.406   5.681   4.650
  317POPC   C1A 4002   0.300   5.849   4.950
  317POPC   D2A 4003   0.340   5.833   5.250
  317POPC   C3A 4004   0.302   5.799   5.550
  317POPC   C4A 4005   0.356   5.848   5.850
  317POPC   C1B 4006   0.573   5.555   4.950
  317POPC   C2B 4007   0.531   5.536   5.250
  317POPC   C3B 4008   0.497   5.520   5.550
  317POPC   C4B 4009   0.567   5.530   5.850
  318POPC   NC3 4010   1.100   0.289   4.050
  318POPC   PO4 4011   1.087   0.291   4.350
  318POPC   GL1 4012   1.157   0.209   4.650
  318POPC   GL2 4013   1.191   0.383   4.650
  318POPC   C1A 4014   1.123   0.251   4.950
  318POPC   D2A 4015   1.159   0.295   5.250
  318POPC   C3A 4016   1.125   0.294   5.550
  318POPC   C4A 4017   1.173   0.233   5.850
  318POPC   C1B 4018   1.266   0.644   4.950
  318POPC   C2B 4019   1.258   0.585   5.250
  318POPC   C3B 4020   1.167   0.641   5.550
  318POPC   C4B 4021   1.180   0.607   5.850
  319POPC   NC3 4022   4.106   8.504   4.050
  319POPC   PO4 4023   4.153   8.454   4.350
  319POPC   GL1 4024   4.126   8.510   4.650
  319POPC   GL2 4025   4.189   8.631   4.650
  319POPC   C1A 4026   4.132   8.456   4.950
  319POPC   D2A 4027   4.128   8.475   5.250
  319POPC   C3A 4028   4.153   8.466   5.550
  319POPC   C4A 4029   4.142   8.508   5.850
  319POPC   C1B 4030   4.208   8.813   4.950
  319POPC   C2B 4031   4.203   8.889   5.250
  319POPC   C3B 4032   4.250   8.877   5.550
  319POPC   C4B 4033   4.209   8.818   5.850
  320POPC   NC3 4034  10.009   1.261   4.050
  320POPC   PO4 4035  10.058   1.328   4.350
  320POPC   GL1 4036  10.059   1.256   4.650
  320POPC   GL2 4037  10.130   1.164   4.650
  320POPC   C1A 4038   9.999   1.326   4.950
  320POPC   D2A 4039  10.057   1.308   5.250
  320POPC   C3A 4040  10.038   1.263   5.550
  320POPC   C4A 4041  10.059   1.280   5.850
  320POPC   C1B 4042  10.314   1.062   4.950
  320POPC   C2B 4043  10.342   1.094   5.250
  320POPC   C3B 4044  10.305   1.079   5.550
  320POPC   C4B 4045  10.296   1.027   5.850
  321W        W 4046  10.482   3.657   9.035
  322W        W 4047   3.326   7.453   2.198
  323W        W 4048   7.957   2.759   1.814
  324W        W 4049   6.103   0.432   0.374
  325W        W 4050   8.862   2.247   8.592
  326W        W 4051   9.891   3.125   8.942
  327W        W 4052   8.007   5.654   9.846
  328W        W 4053   2.233   3.613   0.953
  329W        W 4054   9.880   3.125   0.881
  330W        W 4055   0.290   7.444  10.541
  331W        W 4056   5.051   1.802   2.317
  332W        W 4057   9.828   7.108   9.502
  333W        W 4058   9.903   7.962   9.022
  334W        W 4059   8.547   5.624  11.943
  335W        W 4060   8.840   0.837   3.233
  336W        W 4061   5.063   6.471   1.864
  337W        W 4062   8.001   6.091   1.396
  338W        W 4063   5.514  10.469  11.862
  339W        W 4064   6.543  10.385   1.366
  340W        W 4065   1.856   5.607  11.855
  341W        W 4066   3.593   6.611  11.390
  342W        W 4067   6.613   8.081   0.250
  343W        W 4068   8.911   7.547  10.015
  344W        W 4069   0.817   1.907   9.898
  345W        W 4070  10.438   1.743   9.068
  346W        W 4071   4.543   0.750   9.993
  347W        W 4072  10.008   8.376  11.011
  348W        W 4073   9.914   2.381   0.765
  349W        W 4074   1.868   7.113   2.795
  350W        W 4075   1.356   7.033   1.818
  351W        W 4076   9.524   2.252  11.852
  352W        W 4077   6.556   3.134  10.041
  353W        W 4078   2.179   2.763   2.349
  354W        W 4079   0.309   0.935   9.439
  355W        W 4080   8.877   2.291   2.165
  356W        W 4081   8.845   8.961  10.467
  357W        W 4082   5.234   0.338   1.424
  358W        W 4083   2.637   9.387  11.314
  359W        W 4084   3.729   7.584   3.151
  360W        W 4085   8.908   0.815   2.801
  361W        W 4086   1.425   2.169  11.861
  362W        W 4087   2.355   4.676   2.777
  363W        W 4088   6.611  10.499   3.203
  364W        W 4089  10.449   4.172   9.858
  365W        W 4090   7.039  10.488   1.866
  366W        W 4091   7.458   3.746   9.938
  367W        W 4092   1.687   7.062  10.370
  368W        W 4093  10.318   5.232   1.887
  369W        W 4094   8.522   5.489   0.355
  370W        W 4095   3.741   6.962  11.017
  371W        W 4096   7.024   4.163   1.812
  372W        W 4097   4.673   4.151  10.463
  373W        W 4098   8.478   7.535   8.974
  374W        W 4099   5.077   9.927  10.807
  375W        W 4100   8.574   7.445   9.539
  376W        W 4101   6.669   8.999   2.212
  377W        W 4102   2.296   1.412   1.693
  378W        W 4103   7.439   4.650   9.424
  379W        W 4104   0.863   0.794   0.264
  380W        W 4105   4.771   8.445   9.885
  381W        W 4106   5.196   4.726   0.281
  382W        W 4107   8.441   3.140   1.776
  383W        W 4108   0.434   0.793   1.249
  384W        W 4109   9.020   8.085   0.415
  385W        W 4110   5.239   3.231  11.294
  386W        W 4111   9.504   2.673   3.214
  387W        W 4112   2.174   1.703   3.135
  388W        W 4113   4.558   0.771   1.724
  389W        W 4114   8.408   0.441   1.796
  390W        W 4115   9.039   9.039  10.067
  391W        W 4116   9.332   1.297   0.868
  392W        W 4117   7.883   6.028   2.816
  393W        W 4118   6.101   3.731   0.935
  394W        W 4119   5.243   7.967   0.290
  395W        W 4120   8.848   9.873  10.986
  396W        W 4121   0.912   8.450   9.539
  397W        W 4122   5.617   9.423  10.420
  398W        W 4123   0.762   6.960   2.788
  399W        W 4124   1.724   0.734   1.693
  400W        W 4125   4.652   9.959   9.894
  401W        W 4126   6.628   9.981  11.948
  402W        W 4127   0.832   4.642   2.830
  403W        W 4128   7.159   3.624  10.446
  404W        W 4129   7.937   7.605   1.774
  405W        W 4130   4.759   2.162   2.707
  406W        W 4131   9.420   9.790   0.771
  407W        W 4132   8.411   9.355   3.300
  408W        W 4133   6.570   4.582   9.387
  409W        W 4134   6.941   9.538  10.441
  410W        W 4135   0.952   7.447  11.864
  411W        W 4136   5.595   7.552  10.433
  412W        W 4137   7.427   6.115  11.965
  413W        W 4138   1.824   0.414   1.831
  414W        W 4139   8.016   1.266   2.852
  415W        W 4140   0.810   3.709   8.880
  416W        W 4141   3.668   2.368  11.473
  417W        W 4142   4.066   9.531   9.841
  418W        W 4143   3.123   5.166   2.770
  419W        W 4144   7.028   4.255   3.339
  420W        W 4145   9.336   8.027   2.306
  421W        W 4146   7.554   1.199   9.445
  422W        W 4147   2.325   5.672   8.487
  423W        W 4148   7.979   3.778   2.703
  424W        W 4149   9.808   8.461   1.363
  425W        W 4150   7.627   4.695   3.312
  426W        W 4151   0.863  10.442   0.791
  427W        W 4152   2.696   2.864   2.388
  428W        W 4153   7.999   9.308   9.444
  429W        W 4154   1.693   4.655   8.900
  430W        W 4155   0.456   4.271  10.053
  431W        W 4156   7.982  10.308  10.492
  432W        W 4157   1.406   8.956  11.037
  433W        W 4158   7.132   8.463  11.804
  434W        W 4159   1.333   3.744   9.575
  435W        W 4160   6.604   9.912  11.363
  436W        W 4161   3.814   0.304   0.322
  437W        W 4162   9.402   7.026   2.757
  438W        W 4163   6.501   9.498  11.301
  439W        W 4164   7.914   1.264   9.977
  440W        W 4165   7.911   0.475  11.916
  441W        W 4166   7.970   2.637   9.118
  442W        W 4167   9.960   3.334   3.158
  443W        W 4168   0.873  10.411   1.806
  444W        W 4169   4.174   2.651  11.842
  445W        W 4170   4.747   4.175   2.294
  446W        W 4171   5.111   6.050   3.608
  447W        W 4172   7.462   8.397   3.625
  448W        W 4173   2.206   0.878   3.252
  449W        W 4174   4.183   0.829   1.841
  450W        W 4175   9.995   6.984  11.873
  451W        W 4176   1.732   9.011   1.341
  452W        W 4177   7.578   7.635   2.738
  453W        W 4178   1.687   2.187   0.430
  454W        W 4179   9.938   2.638  10.059
  455W        W 4180   0.418   4.647   9.565
  456W        W 4181   4.548   3.271   3.697
  457W        W 4182   6.520   5.089  11.464
  458W        W 4183   8.018   1.892   3.294
  459W        W 4184   1.782   0.894   8.946
  460W        W 4185   5.110   6.584   0.315
  461W        W 4186   3.705   3.714   1.899
  462W        W 4187   4.128   8.533  11.016
  463W        W 4188   1.305   0.451   2.738
  464W        W 4189   4.712   1.685   1.866
  465W        W 4190   7.938   5.572   9.559
  466W        W 4191   6.968   9.904   0.438
  467W        W 4192   3.719   0.797   0.755
  468W        W 4193   9.465   5.582   2.227
  469W        W 4194   6.517  10.015   3.142
  470W        W 4195   8.977   4.572   3.611
  471W        W 4196   5.155   5.189  11.297
  472W        W 4197   6.479   9.456   2.780
  473W        W 4198  10.416  10.275   2.261
  474W        W 4199   8.430   0.334  11.421
  475W        W 4200   2.827   1.401   8.996
  476W        W 4201   6.203   3.656  11.294
  477W        W 4202   0.883   8.507   1.897
  478W        W 4203   2.242   7.026   1.251
  479W        W 4204   9.381   9.489   2.322
  480W        W 4205   6.472   4.095  11.778
  481W        W 4206   7.032   4.134   9.533
  482W        W 4207   3.317   2.297   2.722
  483W        W 4208   8.013   3.658   0.378
  484W        W 4209   1.680   2.172  11.954
  485W        W 4210   7.892   1.216   3.203
  486W        W 4211   1.246   9.974  11.871
  487W        W 4212   5.496   6.666   9.547
  488W        W 4213   2.193   0.954   0.911
  489W        W 4214   6.072   8.064   0.405
  490W        W 4215  10.370   2.232   1.322
  491W        W 4216   6.644   4.142   9.589
  492W        W 4217   9.044   0.426   9.093
  493W        W 4218   8.007   4.600   2.715
  494W        W 4219   5.222   2.687   1.710
  495W        W 4220   3.144   8.094   2.680
  496W        W 4221   7.466   9.038  11.804
  497W        W 4222   2.864   0.343  11.784
  498W        W 4223  10.401   0.430   1.762
  499W        W 4224   1.774   0.736   0.341
  500W        W 4225   9.494   8.574   3.299
  501W        W 4226   9.912   6.522   9.119
  502W        W 4227   6.153   9.366  11.998
  503W        W 4228   9.477   6.673  10.899
  504W        W 4229   7.513   9.029   9.580
  505W        W 4230   2.318   4.236   9.926
  506W        W 4231   5.595   3.240   1.294
  507W        W 4232   4.648  10.011  11.439
  508W        W 4233   5.200   3.632   1.279
  509W        W 4234   5.064   0.920   9.965
  510W        W 4235   5.201   0.865   9.366
  511W        W 4236   1.270   5.196   3.137
  512W        W 4237   7.975   4.212  10.054
  513W        W 4238   2.849   2.295   3.198
  514W        W 4239   8.389   8.474  11.327
  515W        W 4240   9.873   2.263  10.411
  516W        W 4241   2.199   6.047   8.941
  517W        W 4242   6.187   6.510   9.522
  518W        W 4243   6.123   3.641   1.285
  519W        W 4244   2.685   7.541   0.828
  520W        W 4245   9.342   5.230  10.493
  521W        W 4246   7.045   2.295   1.743
  522W        W 4247   7.090   5.526   2.285
  523W        W 4248   6.185   6.157   2.296
  524W        W 4249   3.155   1.334   2.349
  525W        W 4250  10.308   3.678   0.726
  526W        W 4251   0.295   1.368   2.217
  527W        W 4252  10.308   4.194   9.021
  528W        W 4253   7.066   5.635   8.122
  529W        W 4254   2.705   6.169   9.456
  530W        W 4255   9.995   4.294   9.958
  531W        W 4256   2.377   5.099   2.653
  532W        W 4257   3.645   2.782  11.490
  533W        W 4258   8.475   6.457  11.892
  534W        W 4259   7.021   0.297  10.884
  535W        W 4260   6.525   4.555   1.852
  536W        W 4261   5.596   6.675   3.136
  537W        W 4262   6.028   3.730   2.657
  538W        W 4263   7.563   3.717   2.849
  539W        W 4264   6.527   6.156   1.768
  540W        W 4265   4.739   5.724   2.184
  541W        W 4266   2.862   3.283   0.421
  542W        W 4267   5.015   0.796   0.881
  543W        W 4268   1.429   7.498   1.230
  544W        W 4269   2.817   2.774  11.908
  545W        W 4270   6.646   1.288   2.654
  546W        W 4271   1.845   5.646   9.586
  547W        W 4272   3.664   2.319   2.360
  548W        W 4273   9.947  10.432  10.485
  549W        W 4274   6.529   1.843   9.895
  550W        W 4275   5.549   6.201   4.215
  551W        W 4276   6.539   7.068  11.902
  552W        W 4277   7.552   4.181  11.780
  553W        W 4278   9.377   8.560   9.472
  554W        W 4279   8.947  10.417  10.815
  555W        W 4280   8.909   4.572  10.514
  556W        W 4281   4.225   1.214  10.496
  557W        W 4282   9.907   4.679   1.418
  558W        W 4283   1.798   6.051   0.810
  559W        W 4284   9.496   4.058   9.997
  560W        W 4285   3.278   2.302   3.233
  561W        W 4286   0.409   5.093   9.910
  562W        W 4287   0.389   4.623   2.234
  563W        W 4288   2.316   6.000  10.436
  564W        W 4289   5.537  10.477  10.457
  565W        W 4290   1.873   0.792   2.177
  566W        W 4291   7.544   3.669   9.092
  567W        W 4292   7.981   1.762   9.504
  568W        W 4293   6.559   5.521   0.398
  569W        W 4294   9.899   7.137  10.482
  570W        W 4295   9.955   4.541  10.481
  571W        W 4296   3.637   6.557  10.541
  572W        W 4297   9.425   2.713   2.789
  573W        W 4298   7.492   1.223  11.319
  574W        W 4299   6.613   8.547   2.667
  575W        W 4300   4.634   1.796   3.193
  576W        W 4301   5.031   3.186   8.085
  577W        W 4302   4.099   0.340   9.918
  578W        W 4303   6.583   5.597   2.263
  579W        W 4304   8.916   5.134   9.436
  580W        W 4305   9.066   2.277   0.448
  581W        W 4306   8.523   2.765   2.169
  582W        W 4307   2.253   4.696  10.057
  583W        W 4308   1.306   0.878   0.402
  584W        W 4309   7.903   7.409   1.256
  585W        W 4310   7.002   3.129   1.370
  586W        W 4311   9.871   5.149   9.983
  587W        W 4312   0.929   2.842   9.926
  588W        W 4313   5.095   4.162   2.295
  589W        W 4314   1.295   4.611   9.527
  590W        W 4315   6.501   5.995   0.281
  591W        W 4316   1.691   8.011  11.999
  592W        W 4317   4.571   5.149  11.782
  593W        W 4318   0.787   1.674   1.691
  594W        W 4319   7.067   5.552  11.990
  595W        W 4320   3.273   1.676   2.324
  596W        W 4321   8.843   4.202   1.402
  597W        W 4322   0.386   9.842   1.806
  598W        W 4323   0.266   5.665   1.780
  599W        W 4324   8.422   8.849   9.061
  600W        W 4325   6.090   7.089   2.821
  601W        W 4326   5.983   6.560   9.867
  602W        W 4327   2.725   5.109   3.269
  603W        W 4328   6.949   6.471   9.475
  604W        W 4329   3.709   2.666  11.976
  605W        W 4330   3.334   8.368   0.383
  606W        W 4331   9.534   7.478   9.034
  607W        W 4332   6.624   9.351   0.824
  608W        W 4333   3.225   3.302   2.399
  609W        W 4334   9.446   7.548   2.282
  610W        W 4335   9.041   4.081   0.473
  611W        W 4336   4.592   4.188   0.740
  612W        W 4337   5.189   7.104   9.556
  613W        W 4338   5.216   9.800   8.966
  614W        W 4339   1.795   6.653   9.842
  615W        W 4340   3.791   5.977  10.458
  616W        W 4341   6.129   9.908   3.188
  617W        W 4342   9.534   3.748   0.455
  618W        W 4343   0.898   0.323  10.338
  619W        W 4344   2.681   4.645   0.895
  620W        W 4345   6.613   1.785   8.574
  621W        W 4346   2.677   3.638   3.170
  622W        W 4347   7.620   3.793   3.747
  623W        W 4348   6.054   3.178  11.005
  624W        W 4349   1.426   3.796   8.935
  625W        W 4350   9.470   4.649   1.814
  626W        W 4351   0.856   8.565  11.473
  627W        W 4352   3.700   1.733   3.352
  628W        W 4353   1.302   7.555   8.917
  629W        W 4354   4.769   0.945   1.213
  630W        W 4355   7.586   2.730   1.357
  631W        W 4356   1.321   2.274  10.953
  632W        W 4357   4.595   2.286  10.452
  633W        W 4358   3.109   9.797   9.084
  634W        W 4359   9.406   6.092   9.904
  635W        W 4360   4.152   8.477   8.976
  636W        W 4361   6.921   1.879  10.867
  637W        W 4362   4.190   6.005  11.799
  638W        W 4363   3.655   0.837   2.275
  639W        W 4364   9.040   1.713   0.805
  640W        W 4365   5.240   3.614   0.801
  641W        W 4366   3.125   5.038   9.918
  642W        W 4367   2.205   5.545  10.063
  643W        W 4368   4.704   2.680   8.902
  644W        W 4369   1.752   0.467   9.092
  645W        W 4370   6.937   6.941   3.285
  646W        W 4371   7.519   0.857   9.871
  647W        W 4372   2.303   7.605   0.303
  648W        W 4373   7.433   4.080   9.931
  649W        W 4374   6.201   8.426   1.789
  650W        W 4375   4.771   4.667   2.327
  651W        W 4376   6.969   3.736  11.815
  652W        W 4377   3.715   5.993   2.852
  653W        W 4378   4.589   7.470   0.945
  654W        W 4379   2.351   6.455  10.062
  655W        W 4380   7.500   0.883  11.795
  656W        W 4381   5.055   6.533  10.494
  657W        W 4382   3.224  10.285  11.517
  658W        W 4383   9.804   8.519   9.050
  659W        W 4384   9.008   5.712   0.922
  660W        W 4385   0.384   5.999   0.363
  661W        W 4386   9.991   2.693   1.885
  662W        W 4387   5.530   5.014  10.951
  663W        W 4388   2.222   2.331   9.861
  664W        W 4389   3.228   8.518  10.472
  665W        W 4390   4.739  10.411   1.856
  666W        W 4391  10.010   8.374   9.879
  667W        W 4392   5.659   4.210   9.480
  668W        W 4393   4.081   2.247   2.300
  669W        W 4394   4.674   4.151   1.279
  670W        W 4395   7.978  10.429   0.399
  671W        W 4396   9.365   6.682   9.882
  672W        W 4397  10.296   6.475  11.016
  673W        W 4398   1.700   6.964   3.323
  674W        W 4399   8.848   4.186   0.764
  675W        W 4400   1.908   8.917  10.557
  676W        W 4401   8.521   7.109   2.238
  677W        W 4402   9.866   1.368   0.459
  678W        W 4403   3.327   5.082   8.122
  679W        W 4404   2.191   2.270   0.931
  680W        W 4405   9.407   7.617   2.667
  681W        W 4406   6.644   5.985   8.518
  682W        W 4407   5.541   5.651   9.024
  683W        W 4408   7.575   5.516   2.228
  684W        W 4409   5.045   2.732  11.475
  685W        W 4410   8.941   2.290   1.266
  686W        W 4411   5.672   5.518   1.206
  687W        W 4412   6.004   8.526   1.415
  688W        W 4413   4.093   3.233   2.322
  689W        W 4414   6.133   0.418   2.398
  690W        W 4415   9.512   9.407   9.040
  691W        W 4416   3.790  10.478   1.899
  692W        W 4417   5.108   3.280   3.798
  693W        W 4418   9.911   3.668   1.748
  694W        W 4419   1.254   4.275   1.917
  695W        W 4420   0.321   3.307   3.308
  696W        W 4421   7.981   8.440  10.923
  697W        W 4422   6.605   3.626  11.879
  698W        W 4423   5.201  10.318   2.842
  699W        W 4424   5.024   6.152   1.300
  700W        W 4425   7.939   1.740   0.773
  701W        W 4426   0.897   0.814  11.918
  702W        W 4427   9.971   7.095   0.724
  703W        W 4428   1.849   3.629  11.891
  704W        W 4429   6.534   0.466   2.279
  705W        W 4430   0.384   2.193   1.741
  706W        W 4431   0.407   4.134  10.382
  707W        W 4432   6.123   4.630   0.303
  708W        W 4433   9.508   0.942  11.911
  709W        W 4434   0.436   4.673   1.862
  710W        W 4435   9.865   2.380   1.857
  711W        W 4436  10.465   7.979   9.926
  712W        W 4437   6.561   7.076   2.354
  713W        W 4438   0.891   8.501   2.263
  714W        W 4439   2.345   1.785   9.901
  715W        W 4440   8.529   6.506   1.822
  716W        W 4441   4.606   0.363   3.329
  717W        W 4442   1.776  10.478   3.337
  718W        W 4443   0.344   4.604  10.981
  719W        W 4444   6.996   1.809   8.467
  720W        W 4445   2.275   4.187   9.600
  721W        W 4446   3.736   7.517   2.785
  722W        W 4447   8.830   3.173   0.433
  723W        W 4448   7.890   3.215   3.136
  724W        W 4449   3.775   0.421   3.241
  725W        W 4450   8.048   8.472   3.249
  726W        W 4451   4.757   0.351  11.993
  727W        W 4452   5.100   6.136   1.901
  728W        W 4453   8.409   9.340   2.689
  729W        W 4454   1.245   5.708   8.943
  730W        W 4455   5.640   3.335   9.038
  731W        W 4456   8.016   5.132   8.962
  732W        W 4457   0.716   8.080   9.507
  733W        W 4458   2.365   6.995   8.910
  734W        W 4459   7.126  10.340   8.924
  735W        W 4460   7.153   7.604   1.851
  736W        W 4461   1.679  10.323   2.295
  737W        W 4462   3.232   0.363   0.743
  738W        W 4463   5.105   8.078  10.804
  739W        W 4464   6.937   4.244  10.800
  740W        W 4465   8.454   8.974   9.495
  741W        W 4466   5.634   9.053   2.344
  742W        W 4467   9.935   7.084   9.098
  743W        W 4468   5.017   7.127   0.373
  744W        W 4469   5.669   5.164   2.826
  745W        W 4470   6.668   7.554   0.343
  746W        W 4471   7.901   4.719   8.574
  747W        W 4472   6.636   7.490  11.286
  748W        W 4473   7.431   0.468   9.999
  749W        W 4474   1.287   1.341   1.851
  750W        W 4475   0.405   7.894   2.228
  751W        W 4476   1.722   8.376   1.701
  752W        W 4477   6.034   4.221  11.375
  753W        W 4478   0.312   4.672   0.275
  754W        W 4479   3.735   9.892   9.901
  755W        W 4480   9.475   5.070  10.888
  756W        W 4481   9.944   0.240   9.991
  757W        W 4482   3.707   1.698   0.266
  758W        W 4483   1.353   3.777  11.917
  759W        W 4484   0.295   5.630  11.016
  760W        W 4485   9.958   2.680   3.224
  761W        W 4486   0.895   7.967   3.351
  762W        W 4487   5.695   1.848  11.938
  763W        W 4488   2.346   9.485   9.069
  764W        W 4489   7.476   6.608   0.934
  765W        W 4490   5.620   9.523   9.041
  766W        W 4491   5.604   2.363   2.698
  767W        W 4492   9.974   3.626  10.963
  768W        W 4493   7.439   9.851   8.973
  769W        W 4494   1.728   7.491  11.783
  770W        W 4495   1.383  10.384  11.369
  771W        W 4496   4.153   6.535   1.355
  772W        W 4497   9.788   8.872  10.040
  773W        W 4498   0.466  10.437  10.829
  774W        W 4499   4.287   9.949   2.346
  775W        W 4500   5.216   9.864   9.597
  776W        W 4501   4.732   1.269   9.098
  777W        W 4502   0.477   0.740  10.985
  778W        W 4503   9.540   9.843   9.558
  779W        W 4504   2.235   3.164  11.901
  780W        W 4505   9.030   2.648  11.373
  781W        W 4506   7.550   7.978   9.120
  782W        W 4507   3.238   8.060   2.185
  783W        W 4508   1.406   1.694  10.875
  784W        W 4509   7.055   2.831   1.697
  785W        W 4510   8.961   3.251  11.957
  786W        W 4511   2.815  10.435   9.063
  787W        W 4512   2.148   8.968  11.797
  788W        W 4513   6.658   4.271   0.850
  789W        W 4514   9.890   9.825   9.444
  790W        W 4515   3.297   6.151   3.792
  791W        W 4516   1.783  10.279   1.341
  792W        W 4517   2.165   9.419   2.703
  793W        W 4518   9.534   8.535   0.250
  794W        W 4519   3.285   1.862  10.337
  795W        W 4520   1.258   0.756   1.307
  796W        W 4521   7.456   7.943   9.993
  797W        W 4522   2.678   6.538  10.904
  798W        W 4523   3.619   4.772   0.278
  799W        W 4524   7.625   5.681   1.408
  800W        W 4525   6.009   7.136  11.437
  801W        W 4526   0.379   2.343   1.309
  802W        W 4527   6.138   5.629   0.923
  803W        W 4528   5.644   6.094  10.398
  804W        W 4529   5.206   3.279   2.306
  805W        W 4530   0.926   6.099  11.287
  806W        W 4531   5.663   1.312  10.532
  807W        W 4532   6.002   9.379   3.158
  808W        W 4533   5.605   6.630   2.867
  809W        W 4534   0.255   2.309   8.563
  810W        W 4535   4.243   3.248   1.823
  811W        W 4536   6.577   0.302   1.219
  812W        W 4537   2.758   5.687   9.013
  813W        W 4538   0.376   9.328   3.323
  814W        W 4539   3.118   0.768   1.765
  815W        W 4540   0.266   6.592  10.497
  816W        W 4541   3.282   4.159   2.697
  817W        W 4542   4.072   9.477   8.933
  818W        W 4543   1.215   1.883   2.825
  819W        W 4544   3.193   4.282   8.604
  820W        W 4545   8.499   0.904  10.999
  821W        W 4546   7.096   2.647  11.811
  822W        W 4547   5.153   6.574   1.248
  823W        W 4548   7.048   4.287   8.627
  824W        W 4549   9.839   4.113  10.969
  825W        W 4550   4.762   0.378  11.331
  826W        W 4551   4.145   2.847   9.570
  827W        W 4552   8.830   0.287   8.512
  828W        W 4553   6.658   5.022   1.215
  829W        W 4554   9.344   4.118   1.238
  830W        W 4555   9.050   7.965   1.839
  831W        W 4556   6.963   7.496  10.497
  832W        W 4557   0.850   0.877  10.455
  833W        W 4558   3.769   4.266   3.691
  834W        W 4559   4.721   9.308  10.943
  835W        W 4560   7.502   7.559   3.810
  836W        W 4561  10.333   9.491  10.429
  837W        W 4562   7.037   3.807   9.469
  838W        W 4563  10.468   7.555  10.551
  839W        W 4564   5.634   2.192  10.873
  840W        W 4565   0.879   1.288   8.979
  841W        W 4566   0.434   5.620   9.474
  842W        W 4567   5.144   0.871   3.746
  843W        W 4568   3.580   4.206   1.912
  844W        W 4569   3.770   7.882   2.269
  845W        W 4570   7.063   1.194   0.743
  846W        W 4571   6.067   8.531  11.425
  847W        W 4572   2.846   6.932   2.819
  848W        W 4573   6.614   1.388   2.214
  849W        W 4574   7.966   2.847  11.342
  850W        W 4575   4.623   1.837   0.765
  851W        W 4576   8.485   9.360  10.446
  852W        W 4577   2.733   2.786   9.575
  853W        W 4578   8.078  10.498  10.041
  854W        W 4579   2.817   0.726   3.153
  855W        W 4580   7.466   5.559   8.632
  856W        W 4581   8.049   6.450  11.364
  857W        W 4582   6.128   3.150   0.905
  858W        W 4583   5.583   6.599   1.885
  859W        W 4584   9.387   1.208   1.910
  860W        W 4585   7.117   4.754   0.458
  861W        W 4586   4.725   5.990   0.445
  862W        W 4587   0.953   9.523  11.329
  863W        W 4588   0.731   9.853   2.338
  864W        W 4589   4.728   4.670   0.451
  865W        W 4590   4.673   3.766   9.561
  866W        W 4591   2.212   7.495  11.956
  867W        W 4592   6.121   4.278  11.885
  868W        W 4593   9.796   9.871   3.329
  869W        W 4594   6.506   8.392  10.437
  870W        W 4595   2.780   2.756  10.436
  871W        W 4596   7.623   4.589   8.048
  872W        W 4597   3.196   5.655   2.793
  873W        W 4598   1.865   1.813   2.234
  874W        W 4599   3.143   6.466   1.809
  875W        W 4600   4.090   8.535  11.385
  876W        W 4601   3.296   8.469   1.432
  877W        W 4602   2.150   2.307   2.206
  878W        W 4603   7.521   2.249   9.940
  879W        W 4604   2.304   3.803   3.245
  880W        W 4605   6.527   7.043  11.415
  881W        W 4606   0.468   8.532   3.197
  882W        W 4607   2.749   6.075  11.882
  883W        W 4608   6.558   4.689   2.230
  884W        W 4609   1.233   7.130  11.828
  885W        W 4610   8.880   7.537  10.987
  886W        W 4611   1.288   9.336   3.344
  887W        W 4612   3.782   2.775  10.078
  888W        W 4613   7.973   6.627  10.899
  889W        W 4614   6.457   3.111   0.330
  890W        W 4615   8.417   3.681   1.692
  891W        W 4616   9.513   6.681   1.264
  892W        W 4617   4.279   9.893  10.935
  893W        W 4618   1.420   0.301   2.365
  894W        W 4619   8.011   3.310  10.459
  895W        W 4620   0.357   3.268   9.012
  896W        W 4621   1.694   5.225   3.288
  897W        W 4622   4.061   0.427  10.894
  898W        W 4623   2.795   6.658   2.392
  899W        W 4624   0.429   0.762   9.875
  900W        W 4625   7.563   9.893   0.866
  901W        W 4626   2.377   0.824  11.888
  902W        W 4627   7.495   5.229   9.864
  903W        W 4628   8.456   4.593  10.882
  904W        W 4629  10.002   0.886  10.528
  905W        W 4630   9.536   6.508   2.200
  906W        W 4631   9.385   6.098  10.900
  907W        W 4632   5.061   2.760   8.890
  908W        W 4633   8.393   4.536   8.894
  909W        W 4634   4.697   2.312  11.434
  910W        W 4635  10.275   7.998   1.213
  911W        W 4636   9.026   2.811   0.862
  912W        W 4637   6.448   5.140   0.817
  913W        W 4638   8.037   3.598   9.048
  914W        W 4639  10.430   3.135   9.458
  915W        W 4640   0.809   9.787  10.550
  916W        W 4641   0.757   0.952   1.375
  917W        W 4642   7.932   4.643  11.340
  918W        W 4643   9.430   9.517  10.321
  919W        W 4644   0.470   7.542   0.795
  920W        W 4645   4.065   7.612   1.429
  921W        W 4646   3.769   9.847   0.336
  922W        W 4647   4.762   1.768   8.888
  923W        W 4648   5.718   9.462  11.773
  924W        W 4649   4.236   3.726   0.900
  925W        W 4650   7.611   7.462  10.494
  926W        W 4651   0.918   7.934   2.307
  927W        W 4652   2.687   1.203  11.460
  928W        W 4653   0.776   9.068   1.747
  929W        W 4654   0.718   3.300   2.307
  930W        W 4655   7.987   9.313   3.134
  931W        W 4656   7.591   0.947   3.246
  932W        W 4657   8.462   0.354   0.736
  933W        W 4658   8.545   1.764  11.852
  934W        W 4659   6.965   1.293   0.299
  935W        W 4660   6.548   2.752   3.167
  936W        W 4661   2.163   9.503  11.303
  937W        W 4662   8.062   1.328   9.065
  938W        W 4663   1.854   7.047   8.910
  939W        W 4664   2.252   4.222  11.032
  940W        W 4665   6.575   0.775   0.436
  941W        W 4666   9.980   2.790  11.020
  942W        W 4667   6.459   6.929  10.519
  943W        W 4668   0.779   8.907  10.359
  944W        W 4669   3.686   0.798   1.335
  945W        W 4670   3.194   7.020   0.333
  946W        W 4671   9.897   7.499  11.943
  947W        W 4672   8.937   4.193  10.363
  948W        W 4673   7.012   7.153   9.914
  949W        W 4674   1.382   8.096  11.779
  950W        W 4675   9.008   9.488  11.961
  951W        W 4676   0.944   8.927  11.445
  952W        W 4677   5.157   6.656   4.314
  953W        W 4678   8.523  10.010   8.528
  954W        W 4679   0.745   4.763   0.379
  955W        W 4680   9.461   6.123   8.881
  956W        W 4681   6.662   3.640   1.210
  957W        W 4682   9.406   6.645  10.356
  958W        W 4683   4.233  10.280   2.645
  959W        W 4684   3.704   7.599   2.196
  960W        W 4685   8.419   0.737  11.327
  961W        W 4686   4.549   5.671  11.854
  962W        W 4687   8.568   9.369   2.234
  963W        W 4688   3.693   5.994   1.271
  964W        W 4689   8.443   9.427   0.843
  965W        W 4690   5.025   5.142   9.383
  966W        W 4691   7.888   4.168   1.287
  967W        W 4692   1.765   1.788   0.399
  968W        W 4693   5.209   5.219   0.749
  969W        W 4694   1.778   4.244   3.207
  970W        W 4695   3.225   8.568   9.476
  971W        W 4696   9.935   3.289   9.447
  972W        W 4697   6.151   2.172  10.446
  973W        W 4698   1.794   9.406  11.030
  974W        W 4699   5.521   6.539   2.191
  975W        W 4700   2.648   9.845   9.021
  976W        W 4701   0.918   9.005   2.199
  977W        W 4702   3.797   9.317  11.932
  978W        W 4703   2.678   7.983   3.215
  979W        W 4704   4.690   4.177   8.915
  980W        W 4705   3.770   7.565   3.740
  981W        W 4706   2.368   0.357  11.866
  982W        W 4707   5.673   8.098  11.424
  983W        W 4708   1.417   5.632   2.393
  984W        W 4709   5.054   0.888  11.345
  985W        W 4710   7.538   6.931   8.588
  986W        W 4711   2.858   3.218   9.012
  987W        W 4712   2.630   8.992  10.030
  988W        W 4713   5.597   7.482   8.919
  989W        W 4714   4.225   2.377   8.921
  990W        W 4715   5.989   6.929   9.522
  991W        W 4716   9.866  10.405  11.329
  992W        W 4717   4.215   0.298   2.747
  993W        W 4718   7.455   0.816   2.766
  994W        W 4719   4.129   8.528   2.686
  995W        W 4720   1.796   5.164  10.013
  996W        W 4721   8.849   4.584   1.809
  997W        W 4722   3.256   6.202   9.573
  998W        W 4723   8.846   0.886  11.317
  999W        W 4724   5.528   1.805  10.436
 1000W        W 4725   2.781   7.997   1.897
 1001W        W 4726   6.667   7.974   2.707
 1002W        W 4727   6.550   9.890   1.250
 1003W        W 4728   6.474   4.699   0.372
 1004W        W 4729   4.558   9.787   0.859
 1005W        W 4730  10.281   1.314   0.870
 1006W        W 4731  10.347   4.537  11.494
 1007W        W 4732   3.636   5.125   9.587
 1008W        W 4733   5.642   4.258   1.779
 1009W        W 4734   0.297   0.365   1.887
 1010W        W 4735   0.798   7.049   3.709
 1011W        W 4736   4.549   2.826   2.725
 1012W        W 4737   1.339   6.081  11.024
 1013W        W 4738   8.917   9.802   2.211
 1014W        W 4739   8.844   9.812  11.502
 1015W        W 4740   7.062   8.466   2.366
 1016W        W 4741   0.293   9.367   2.216
 1017W        W 4742   8.974  10.288  10.524
 1018W        W 4743  10.264   3.330  11.439
 1019W        W 4744   2.330   1.816   2.250
 1020W        W 4745   7.888   3.222   1.258
 1021W        W 4746   0.775   0.284  11.440
 1022W        W 4747   5.052   4.553   3.333
 1023W        W 4748   2.250   7.906   0.266
 1024W        W 4749   9.995   9.469   2.812
 1025W        W 4750   4.146   3.705   9.103
 1026W        W 4751   5.156   7.914   2.743
 1027W        W 4752   6.554   5.577  11.807
 1028W        W 4753   6.053   2.363  10.833
 1029W        W 4754   5.581   8.512   0.834
 1030W        W 4755  10.390   9.943  11.962
 1031W        W 4756   1.888   8.962   9.073
 1032W        W 4757   3.286   2.653   3.671
 1033W        W 4758   7.583   1.388   1.709
 1034W        W 4759   1.261   1.855   1.756
 1035W        W 4760   3.157   6.132  11.916
 1036W        W 4761   7.898   8.881   0.956
 1037W        W 4762   3.699   7.618   1.789
 1038W        W 4763   3.605   4.599   7.945
 1039W        W 4764   7.139   4.731  10.387
 1040W        W 4765   9.335   3.744  10.503
 1041W        W 4766   8.370   5.638   3.226
 1042W        W 4767   3.714   4.599   1.348
 1043W        W 4768   9.038   3.679  11.281
 1044W        W 4769   9.511   6.151   0.317
 1045W        W 4770   2.694   2.674   3.145
 1046W        W 4771   9.352   7.615  11.464
 1047W        W 4772   8.473   9.920   0.243
 1048W        W 4773   5.642  10.332   8.951
 1049W        W 4774   5.597   9.990   9.544
 1050W        W 4775   1.341   0.808   9.494
 1051W        W 4776   1.403   5.075   2.868
 1052W        W 4777   5.688  10.332   1.826
 1053W        W 4778   5.580   0.929   1.386
 1054W        W 4779   1.857   8.376   3.338
 1055W        W 4780   1.260   0.764   3.353
 1056W        W 4781  10.270   1.676   9.922
 1057W        W 4782   2.172   3.616  10.901
 1058W        W 4783   9.004   5.668   2.676
 1059W        W 4784   7.906   9.462   9.934
 1060W        W 4785   5.117   3.608   1.854
 1061W        W 4786   1.797   8.382  10.061
 1062W        W 4787   5.628   3.708  11.862
 1063W        W 4788   8.530   3.233  11.016
 1064W        W 4789   6.487   8.530  10.034
 1065W        W 4790   2.662   0.450  10.073
 1066W        W 4791   7.614   0.342   2.213
 1067W        W 4792  10.377   5.143   3.348
 1068W        W 4793   1.391   6.076   3.269
 1069W        W 4794   4.759   1.826  10.888
 1070W        W 4795   4.238   3.258  11.313
 1071W        W 4796   8.425  10.326   9.012
 1072W        W 4797   9.856   4.122   1.737
 1073W        W 4798  10.439   6.054   9.046
 1074W        W 4799   2.850   4.699   8.403
 1075W        W 4800   6.501   7.517   1.872
 1076W        W 4801   5.680   5.970  11.399
 1077W        W 4802   7.086   5.172   9.514
 1078W        W 4803   0.757   3.693  10.850
 1079W        W 4804   4.093   0.253  11.493
 1080W        W 4805   9.857   3.267  10.006
 1081W        W 4806   0.908   7.922   2.843
 1082W        W 4807   1.316   9.912  10.444
 1083W        W 4808   0.476   0.457   9.113
 1084W        W 4809   7.108   1.208   8.950
 1085W        W 4810   0.747   2.781   2.717
 1086W        W 4811   8.492   7.529  11.854
 1087W        W 4812   6.921   3.220   9.004
 1088W        W 4813   4.545  10.381   2.330
 1089W        W 4814   7.947   5.091  11.283
 1090W        W 4815   9.346   7.097  10.977
 1091W        W 4816   4.252  10.019  10.022
 1092W        W 4817   7.147   6.059   9.567
 1093W        W 4818   0.287   7.569   9.521
 1094W        W 4819   6.930   4.732   4.286
 1095W        W 4820   7.435   0.940  10.814
 1096W        W 4821   5.199   8.466   0.434
 1097W        W 4822   4.656   9.465   0.897
 1098W        W 4823   9.411   1.812   1.681
 1099W        W 4824   5.146   8.977   1.812
 1100W        W 4825   3.796   8.531   8.910
 1101W        W 4826   6.967   0.471  11.832
 1102W        W 4827  10.015   1.825   1.348
 1103W        W 4828   7.490   5.620  10.949
 1104W        W 4829   8.541   6.650   1.376
 1105W        W 4830   5.639   4.655   1.308
 1106W        W 4831   5.238  10.492   1.403
 1107W        W 4832   8.502   6.009   2.196
 1108W        W 4833   6.110   3.597   1.685
 1109W        W 4834  10.360   1.363   2.699
 1110W        W 4835   3.597   2.678   1.918
 1111W        W 4836   5.238   9.050  11.382
 1112W        W 4837   1.721   7.034   9.945
 1113W        W 4838   9.847   7.025   2.644
 1114W        W 4839   3.661   9.496   0.415
 1115W        W 4840   6.937   2.203  10.907
 1116W        W 4841   9.313   1.199   9.880
 1117W        W 4842   5.148   0.428  10.501
 1118W        W 4843   3.302  10.010  10.856
 1119W        W 4844   7.984   8.449   0.366
 1120W        W 4845   6.592   3.293   2.764
 1121W        W 4846   4.621   7.974   2.209
 1122W        W 4847   2.209   8.451   1.382
 1123W        W 4848   6.017   9.829  10.416
 1124W        W 4849   6.121   0.771   0.364
 1125W        W 4850   3.179   0.458   2.721
 1126W        W 4851   3.774   4.572   2.813
 1127W        W 4852   2.808   3.639  11.863
 1128W        W 4853   5.243   1.407  10.897
 1129W        W 4854   2.847   4.569   9.485
 1130W        W 4855   6.036   1.374  10.503
 1131W        W 4856   3.246   4.606  11.474
 1132W        W 4857   6.542  10.320   0.340
 1133W        W 4858   9.835   1.417  10.817
 1134W        W 4859  10.407   8.519   0.268
 1135W        W 4860   3.247   3.676  10.438
 1136W        W 4861   0.360   6.107   9.841
 1137W        W 4862   5.168   5.520  10.369
 1138W        W 4863   6.161   6.448   1.289
 1139W        W 4864   5.641   3.340  11.469
 1140W        W 4865   4.688   9.025   8.989
 1141W        W 4866   9.430   9.412  11.938
 1142W        W 4867   5.045   4.552   1.753
 1143W        W 4868   1.866   6.137   9.955
 1144W        W 4869   2.263   9.532   9.981
 1145W        W 4870   0.473   2.641   1.239
 1146W        W 4871   2.677   5.993   0.406
 1147W        W 4872   2.306   0.753  10.526
 1148W        W 4873  10.437   1.722  10.955
 1149W        W 4874   3.717   1.809  11.831
 1150W        W 4875  10.006   6.172   1.397
 1151W        W 4876   7.999   7.069   8.606
 1152W        W 4877   6.127   7.420   1.419
 1153W        W 4878   3.789   3.716   1.428
 1154W        W 4879   8.591   6.069   9.469
 1155W        W 4880   0.935   6.053   9.504
 1156W        W 4881   2.827   9.055   2.217
 1157W        W 4882   4.604   3.229   2.780
 1158W        W 4883   9.953   6.113  11.986
 1159W        W 4884   5.126   4.094   8.545
 1160W        W 4885  10.332   7.126   0.259
 1161W        W 4886   9.308   7.153  11.844
 1162W        W 4887   7.592   5.631  11.843
 1163W        W 4888   3.767   1.246   9.485
 1164W        W 4889   0.786   6.939  10.477
 1165W        W 4890   8.898   1.882  10.848
 1166W        W 4891   8.844   3.255   0.760
 1167W        W 4892  10.297   0.301   0.825
 1168W        W 4893   0.476   7.135  10.368
 1169W        W 4894   8.429   5.052   9.485
 1170W        W 4895   0.252   2.737   3.209
 1171W        W 4896   4.182   9.463  10.383
 1172W        W 4897   8.021  10.262   9.410
 1173W        W 4898   2.692   5.709   1.887
 1174W        W 4899   6.975   6.969   0.274
 1175W        W 4900   5.508   7.072   3.816
 1176W        W 4901   8.453  10.266  11.940
 1177W        W 4902   6.487   1.328   9.572
 1178W        W 4903   1.794   4.099   0.725
 1179W        W 4904   9.909   9.038  11.511
 1180W        W 4905   3.653   7.513   1.227
 1181W        W 4906   1.792   3.164   2.857
 1182W        W 4907   7.112   5.990   0.780
 1183W        W 4908   0.414   2.201   0.898
 1184W        W 4909   7.099   9.312   3.134
 1185W        W 4910   2.667   1.730   9.903
 1186W        W 4911   3.746   8.838   0.767
 1187W        W 4912   1.305   0.912  10.446
 1188W        W 4913   9.904   5.574  10.551
 1189W        W 4914   8.955   9.866  10.521
 1190W        W 4915   3.208   9.825  11.483
 1191W        W 4916   1.879   5.601  11.416
 1192W        W 4917   0.768   1.284   3.182
 1193W        W 4918   9.360   6.977   3.202
 1194W        W 4919  10.277   9.789   1.853
 1195W        W 4920   5.712   7.049   2.192
 1196W        W 4921   7.455   5.578   8.955
 1197W        W 4922   2.654   5.043   2.681
 1198W        W 4923   9.479   3.719   3.309
 1199W        W 4924   9.330   4.692   0.366
 1200W        W 4925   5.521   1.350   9.097
 1201W        W 4926   7.104   4.254   2.365
 1202W        W 4927   5.727   3.594   1.876
 1203W        W 4928   7.467   3.745  11.966
 1204W        W 4929   7.116   2.678  10.514
 1205W        W 4930  10.391   4.290   0.854
 1206W        W 4931   7.103   1.275  11.819
 1207W        W 4932   2.833   3.120   8.562
 1208W        W 4933   5.578   2.203   8.897
 1209W        W 4934   8.113   1.889   2.683
 1210W        W 4935   3.185   0.414   2.233
 1211W        W 4936   8.085   7.538   2.733
 1212W        W 4937   0.469   1.329   9.994
 1213W        W 4938   2.260   1.829   8.542
 1214W        W 4939   0.798   9.004   0.821
 1215W        W 4940   6.145   6.100   0.952
 1216W        W 4941   8.863   3.648  10.480
 1217W        W 4942   4.201   1.260   0.844
 1218W        W 4943   2.630   3.673   0.855
 1219W        W 4944   7.913   5.198   0.448
 1220W        W 4945   7.910   8.399  11.340
 1221W        W 4946   7.990   6.559  11.917
 1222W        W 4947   1.237   7.491   3.147
 1223W        W 4948   1.420   6.629  10.975
 1224W        W 4949   7.597   7.907  10.940
 1225W        W 4950   1.803   2.786   3.311
 1226W        W 4951   6.204   1.761   0.747
 1227W        W 4952   2.306   8.526   2.276
 1228W        W 4953   7.051   7.885   9.965
 1229W        W 4954   1.321   5.489   9.432
 1230W        W 4955   1.900   6.054  10.338
 1231W        W 4956   1.705   7.603   8.901
 1232W        W 4957   7.143   1.293  11.365
 1233W        W 4958   2.207   3.768   8.993
 1234W        W 4959   9.855   3.712  10.445
 1235W        W 4960  10.341   9.499   1.359
 1236W        W 4961   9.949   5.712   9.849
 1237W        W 4962   7.540   9.498   8.574
 1238W        W 4963   3.218   2.779   9.484
 1239W        W 4964   7.410   4.269   0.740
 1240W        W 4965   2.742   7.580   8.613
 1241W        W 4966   4.170   8.018   3.167
 1242W        W 4967   3.237   3.258   3.263
 1243W        W 4968   8.105   4.562   0.340
 1244W        W 4969   5.663   1.672   2.209
 1245W        W 4970   3.222   4.207  10.842
 1246W        W 4971   9.393   0.725  11.421
 1247W        W 4972   5.534   8.406   0.356
 1248W        W 4973   2.204   7.469  11.520
 1249W        W 4974   4.631   5.093  10.941
 1250W        W 4975   3.812   1.318  10.493
 1251W        W 4976   2.188   8.482   9.021
 1252W        W 4977   8.932  10.361   1.825
 1253W        W 4978   6.178   5.679   9.420
 1254W        W 4979   0.936   9.879   3.237
 1255W        W 4980   5.590   9.386   2.805
 1256W        W 4981   9.329   1.839   1.362
 1257W        W 4982   3.643   1.676   0.881
 1258W        W 4983   6.941   0.245   9.487
 1259W        W 4984   9.539   0.932   0.857
 1260W        W 4985   9.415   9.346   2.711
 1261W        W 4986   9.471   5.073   9.407
 1262W        W 4987   1.329   7.921   2.804
 1263W        W 4988   2.330   5.723   2.245
 1264W        W 4989   6.016   6.488   3.831
 1265W        W 4990   5.127   3.607   2.222
 1266W        W 4991   0.310   8.520   9.407
 1267W        W 4992   6.108   2.760  10.824
 1268W        W 4993   5.034   3.619   8.108
 1269W        W 4994   4.200   4.170  10.534
 1270W        W 4995   7.587   6.674   3.769
 1271W        W 4996   5.496   7.118  10.526
 1272W        W 4997   6.033   8.507   9.490
 1273W        W 4998   6.930   7.412   0.731
 1274W        W 4999   5.066   0.775   2.344
 1275W        W 5000   4.633   2.744  10.970
 1276W        W 5001   3.338   2.839   0.318
 1277W        W 5002   8.031   0.872   8.938
 1278W        W 5003   6.006   3.797  10.471
 1279W        W 5004   2.286   5.652   8.955
 1280W        W 5005   2.677   4.738   1.714
 1281W        W 5006   9.887   7.151   1.316
 1282W        W 5007   8.547   3.219   3.295
 1283W        W 5008   5.103   7.928   9.897
 1284W        W 5009   1.846   4.751   9.890
 1285W        W 5010   9.046   8.005   9.438
 1286W        W 5011   7.526   5.098   3.606
 1287W        W 5012   6.518   7.530   2.875
 1288W        W 5013   4.663   8.081   9.984
 1289W        W 5014   4.656   9.902   8.611
 1290W        W 5015   7.908  10.382  11.860
 1291W        W 5016   4.184   1.388   0.339
 1292W        W 5017   1.241   6.553   0.376
 1293W        W 5018   8.019   9.045   0.436
 1294W        W 5019   0.323   7.073   8.569
 1295W        W 5020   4.587   5.217   2.758
 1296W        W 5021   9.432   2.309  10.042
 1297W        W 5022  10.356   0.326  10.054
 1298W        W 5023   1.762   1.895  10.022
 1299W        W 5024   1.357   2.180   1.318
 1300W        W 5025   8.113   9.015   3.149
 1301W        W 5026  10.479   6.456   9.402
 1302W        W 5027   0.290   3.712  10.446
 1303W        W 5028   6.957   5.535   0.732
 1304W        W 5029   5.712   9.414   1.386
 1305W        W 5030   3.267   8.506   3.179
 1306W        W 5031   7.492   5.023   0.360
 1307W        W 5032   7.053   9.327   1.734
 1308W        W 5033   9.062   1.234   0.267
 1309W        W 5034   2.856   4.149   3.231
 1310W        W 5035   9.874   0.450   1.706
 1311W        W 5036   1.904   5.518   0.281
 1312W        W 5037   3.145  10.374   9.504
 1313W        W 5038   1.822  10.275  11.342
 1314W        W 5039  10.348   1.824   1.916
 1315W        W 5040   6.932   7.398   1.296
 1316W        W 5041   6.604   3.737  10.849
 1317W        W 5042   8.888  10.443   9.571
 1318W        W 5043   3.157   6.066   2.369
 1319W        W 5044   4.711   4.593   0.782
 1320W        W 5045  10.269   5.508   2.283
 1321W        W 5046   3.141   0.873   3.210
 1322W        W 5047   6.565   5.577  10.917
 1323W        W 5048   8.874   7.480   0.382
 1324W        W 5049   8.517   8.589   3.336
 1325W        W 5050   2.202   0.349   9.594
 1326W        W 5051   8.455   1.680   0.359
 1327W        W 5052   0.914   2.315   8.402
 1328W        W 5053   0.906   4.090   2.166
 1329W        W 5054   7.061   2.327   8.955
 1330W        W 5055   4.546   7.130   1.887
 1331W        W 5056   0.476   6.466  11.767
 1332W        W 5057   3.275   7.514   3.347
 1333W        W 5058   4.203   8.044   9.876
 1334W        W 5059   2.652   9.493   8.892
 1335W        W 5060   7.457   6.564   1.329
 1336W        W 5061   7.098   2.316  11.878
 1337W        W 5062   1.336   7.556  11.399
 1338W        W 5063   4.541   9.827   2.852
 1339W        W 5064   7.978   5.968   4.230
 1340W        W 5065   4.758   1.300  11.286
 1341W        W 5066   6.486   6.048   2.692
 1342W        W 5067   9.975   7.487   1.701
 1343W        W 5068   6.468   0.863   9.390
 1344W        W 5069   2.237   1.275   8.929
 1345W        W 5070   4.605   6.477   1.682
 1346W        W 5071   4.753   5.999  10.433
 1347W        W 5072   6.954   9.478   1.396
 1348W        W 5073   4.114   4.604  10.075
 1349W        W 5074   2.777   3.110  11.006
 1350W        W 5075   4.121   0.398   1.232
 1351W        W 5076   7.604   8.429   0.266
 1352W        W 5077   9.450   0.307   9.423
 1353W        W 5078   2.668   1.406   9.916
 1354W        W 5079   3.176   4.170  11.325
 1355W        W 5080   7.591   9.785   0.454
 1356W        W 5081   1.207   6.471   1.746
 1357W        W 5082  10.448   0.241   1.293
 1358W        W 5083   8.951   3.327   9.410
 1359W        W 5084   6.156   7.601   3.263
 1360W        W 5085   5.036   7.626  10.040
 1361W        W 5086   7.568   7.548   9.899
 1362W        W 5087   3.613   2.291   1.706
 1363W        W 5088   2.670   3.150  11.928
 1364W        W 5089   3.762   2.357   8.412
 1365W        W 5090   7.896   6.993   9.376
 1366W        W 5091   3.733   3.735  10.861
 1367W        W 5092   6.157   0.329   0.784
 1368W        W 5093   2.345   4.228   8.415
 1369W        W 5094   6.178  10.393  10.853
 1370W        W 5095   7.452   2.763   2.173
 1371W        W 5096   5.533   4.209  11.510
 1372W        W 5097   8.065   5.698   4.106
 1373W        W 5098   8.908   7.523   9.422
 1374W        W 5099   4.676   7.482   9.572
 1375W        W 5100   8.022   1.242   1.900
 1376W        W 5101   7.916   8.372   9.964
 1377W        W 5102   3.747   1.265   1.389
 1378W        W 5103   7.508   7.528  11.351
 1379W        W 5104   6.461   7.023   2.760
 1380W        W 5105   8.539   4.724   3.197
 1381W        W 5106   7.537   5.212   8.062
 1382W        W 5107   4.576  10.310   9.914
 1383W        W 5108   5.552   4.622   2.827
 1384W        W 5109   9.791  10.318   1.327
 1385W        W 5110  10.422   0.421  11.869
 1386W        W 5111   5.018   6.014  10.826
 1387W        W 5112   2.317   6.117   3.783
 1388W        W 5113   1.849   1.201   8.892
 1389W        W 5114   1.751   3.168  11.012
 1390W        W 5115   4.270   2.346   0.334
 1391W        W 5116   9.501   0.333   8.610
 1392W        W 5117   2.851   4.098   2.215
 1393W        W 5118   9.040   2.698  10.833
 1394W        W 5119   4.628   6.485  11.771
 1395W        W 5120  10.435   9.414  11.498
 1396W        W 5121  10.442   6.445   2.345
 1397W        W 5122   6.076   7.426   1.768
 1398W        W 5123   2.641  10.022   3.245
 1399W        W 5124   8.444   4.117   9.452
 1400W        W 5125   5.632   8.366   1.301
 1401W        W 5126   4.591   3.194   9.873
 1402W        W 5127   2.728   1.242  10.363
 1403W        W 5128   7.906  10.356   1.311
 1404W        W 5129   8.441   0.240   0.310
 1405W        W 5130   6.961   9.011   3.234
 1406W        W 5131   7.952   9.544   2.735
 1407W        W 5132   2.167   9.887   1.328
 1408W        W 5133   6.067   2.795  10.365
 1409W        W 5134   6.940   7.882   1.741
 1410W        W 5135   1.765   2.643   9.562
 1411W        W 5136   5.628   0.878  10.841
 1412W        W 5137   9.910   0.793   3.153
 1413W        W 5138   1.212   0.397  11.397
 1414W        W 5139   8.560   1.866   1.349
 1415W        W 5140   2.255   2.250   9.407
 1416W        W 5141   1.865   3.293   1.410
 1417W        W 5142   5.509   7.954   2.710
 1418W        W 5143   0.934   2.371   9.488
 1419W        W 5144   0.891   2.836  11.439
 1420W        W 5145   7.542   1.903  10.449
 1421W        W 5146   5.720   0.873   3.199
 1422W        W 5147   4.247   5.596  10.077
 1423W        W 5148   2.809   4.670  10.952
 1424W        W 5149   9.003   6.094   2.697
 1425W        W 5150   5.665   1.907   0.878
 1426W        W 5151   1.746   7.925   9.937
 1427W        W 5152   2.833   7.135   3.230
 1428W        W 5153   7.439   1.378   3.691
 1429W        W 5154   2.791   3.791   1.840
 1430W        W 5155  10.304   3.136   8.994
 1431W        W 5156   9.048   6.629   2.746
 1432W        W 5157   1.289   3.306   0.292
 1433W        W 5158   5.224   0.728   8.466
 1434W        W 5159   3.696   3.313  10.849
 1435W        W 5160   1.280   2.278   9.371
 1436W        W 5161   0.347   6.988  10.925
 1437W        W 5162   2.170   7.545   1.252
 1438W        W 5163   1.324   4.277   9.066
 1439W        W 5164   2.735   2.844   0.849
 1440W        W 5165   8.901   5.533   9.527
 1441W        W 5166   0.360   4.252  11.875
 1442W        W 5167   2.350   0.827   1.784
 1443W        W 5168   2.242   6.015   9.858
 1444W        W 5169   5.024   3.735   8.971
 1445W        W 5170   8.844   5.219   0.395
 1446W        W 5171   6.138   5.521  11.979
 1447W        W 5172   1.257   5.046   1.914
 1448W        W 5173   0.270   0.845   0.773
 1449W        W 5174   6.043   8.359   9.981
 1450W        W 5175   0.341   0.298  11.449
 1451W        W 5176   9.463   4.092   0.276
 1452W        W 5177   7.992   8.899   1.840
 1453W        W 5178  10.288   8.417   3.156
 1454W        W 5179   4.758   4.586   1.299
 1455W        W 5180   0.845   0.315   0.345
 1456W        W 5181   8.980   9.786   3.214
 1457W        W 5182   0.937  10.488   0.244
 1458W        W 5183   7.970   4.556   2.352
 1459W        W 5184  10.296   9.951   8.903
 1460W        W 5185   8.911   5.715  10.005
 1461W        W 5186   8.852   8.907  11.994
 1462W        W 5187   4.602   1.342   0.892
 1463W        W 5188   8.037   6.516   2.699
 1464W        W 5189   5.228   2.196  10.818
 1465W        W 5190   4.213   6.017  10.544
 1466W        W 5191   2.336   2.161  11.027
 1467W        W 5192   5.194   4.287   3.602
 1468W        W 5193   3.601   5.976   2.352
 1469W        W 5194   1.674   9.479   9.008
 1470W        W 5195   5.096  10.365  11.011
 1471W        W 5196   6.123   9.839   2.852
 1472W        W 5197   2.377   6.510   1.774
 1473W        W 5198   8.053   5.707   8.400
 1474W        W 5199   1.712   4.553   0.393
 1475W        W 5200   7.433   3.150  11.982
 1476W        W 5201   2.673   5.665  10.456
 1477W        W 5202   6.586   6.501   3.232
 1478W        W 5203   6.930   2.300  10.470
 1479W        W 5204   5.623   3.747   2.261
 1480W        W 5205   5.057   1.892   0.932
 1481W        W 5206   3.754   3.701   9.585
 1482W        W 5207  10.280   5.990   0.909
 1483W        W 5208   4.262   1.352   9.518
 1484W        W 5209   3.194   0.820   2.175
 1485W        W 5210   3.724  10.436  11.447
 1486W        W 5211   4.559   0.265  10.068
 1487W        W 5212   1.831   3.218   2.219
 1488W        W 5213   0.946   8.383   0.431
 1489W        W 5214   3.767   6.606   8.526
 1490W        W 5215   2.353   5.699  11.817
 1491W        W 5216   6.586   5.230   2.785
 1492W        W 5217   2.349   0.329   3.353
 1493W        W 5218   7.515   1.270   0.892
 1494W        W 5219   9.930   9.864  10.333
 1495W        W 5220   9.417   2.207   1.419
 1496W        W 5221   1.843   7.430  10.502
 1497W        W 5222   0.754   4.096   3.250
 1498W        W 5223   1.821   7.597  11.434
 1499W        W 5224   8.564   5.188   1.376
 1500W        W 5225   5.633   7.146   4.315
 1501W        W 5226   4.545   8.013   8.963
 1502W        W 5227   9.892   7.550   9.456
 1503W        W 5228   5.132   8.107   8.975
 1504W        W 5229   8.543   5.726   0.926
 1505W        W 5230   3.114   6.013   1.293
 1506W        W 5231   7.050   8.053   9.086
 1507W        W 5232   8.932   3.206   1.326
 1508W        W 5233   9.398   4.693  10.848
 1509W        W 5234   2.634   4.707   0.356
 1510W        W 5235   9.825   2.197   0.279
 1511W        W 5236  10.344   5.969   0.302
 1512W        W 5237   3.249   5.663   1.862
 1513W        W 5238   7.924   7.007  10.549
 1514W        W 5239   6.101   0.362  10.849
 1515W        W 5240   7.891   9.968  11.488
 1516W        W 5241   3.781   8.375   3.186
 1517W        W 5242   0.357   8.374   9.032
 1518W        W 5243   5.033   4.552   1.278
 1519W        W 5244   8.364   6.167   1.296
 1520W        W 5245   7.620   9.494   3.351
 1521W        W 5246   3.637  10.013   9.019
 1522W        W 5247   8.487   0.926   2.724
 1523W        W 5248   4.164   1.351  10.958
 1524W        W 5249   3.802   4.113   0.306
 1525W        W 5250   4.763   7.069   0.836
 1526W        W 5251   8.470   9.008   2.305
 1527W        W 5252   1.890   7.545   2.266
 1528W        W 5253   8.367   8.500  11.765
 1529W        W 5254   1.891   2.278   2.819
 1530W        W 5255   5.666   1.318   0.463
 1531W        W 5256   7.005   7.524   3.260
 1532W        W 5257   0.365   5.987  11.953
 1533W        W 5258   9.366   5.155   1.225
 1534W        W 5259   4.219   0.949   9.903
 1535W        W 5260  10.412   8.521  10.889
 1536W        W 5261   9.545   0.328  10.423
 1537W        W 5262   3.154   7.038   2.294
 1538W        W 5263   7.521   4.292   8.507
 1539W        W 5264   1.285   5.594  11.282
 1540W        W 5265   5.067  10.417   3.291
 1541W        W 5266   9.308   5.585   0.883
 1542W        W 5267   8.964   5.986   3.145
 1543W        W 5268   8.916   6.922   2.685
 1544W        W 5269   3.661   8.470   2.699
 1545W        W 5270   2.746  10.447  11.458
 1546W        W 5271   3.721   2.666  10.999
 1547W        W 5272   7.121   2.280   9.899
 1548W        W 5273   3.284   9.357   3.617
 1549W        W 5274  10.481   6.018   2.766
 1550W        W 5275   1.872   3.663  10.918
 1551W        W 5276   7.551   6.058   9.552
 1552W        W 5277   6.185   7.487   2.648
 1553W        W 5278   5.513   7.903   3.772
 1554W        W 5279   2.201   5.629   1.273
 1555W        W 5280   5.693   6.940   0.258
 1556W        W 5281   3.290   1.203   3.352
 1557W        W 5282  10.309   6.482   9.085
 1558W        W 5283   6.643   8.493   0.271
 1559W        W 5284   9.866   5.119  10.523
 1560W        W 5285   4.753   7.597   1.312
 1561W        W 5286   3.803   6.496   9.066
 1562W        W 5287   1.416   5.674   2.862
 1563W        W 5288   5.595   3.238   9.407
 1564W        W 5289   7.424   8.883   1.862
 1565W        W 5290  10.264   6.176   9.884
 1566W        W 5291   9.864   6.121   8.450
 1567W        W 5292   6.101   9.966  10.003
 1568W        W 5293   9.924   3.240  11.304
 1569W        W 5294   6.063   6.511  11.909
 1570W        W 5295   4.734   7.566   1.905
 1571W        W 5296   2.222   7.469   9.922
 1572W        W 5297   4.592   7.105  11.434
 1573W        W 5298   5.511   1.294   9.447
 1574W        W 5299   7.580   4.690   9.071
 1575W        W 5300   7.521   6.969   0.241
 1576W        W 5301  10.358   5.151   2.253
 1577W        W 5302   8.881   6.128   3.817
 1578W        W 5303   8.092   1.415  11.373
 1579W        W 5304   6.640   5.648  10.016
 1580W        W 5305   1.791   1.906   1.753
 1581W        W 5306   5.033   5.615   9.434
 1582W        W 5307   5.041   1.388   2.842
 1583W        W 5308   3.817   3.789   8.884
 1584W        W 5309   7.404   6.534  11.995
 1585W        W 5310   5.531   2.702   1.372
 1586W        W 5311   3.645   6.053   3.208
 1587W        W 5312   6.056   6.094  11.952
 1588W        W 5313   2.638   0.743  11.369
 1589W        W 5314   7.608   2.221  11.927
 1590W        W 5315   5.173   9.356   2.856
 1591W        W 5316   9.972   5.511   9.482
 1592W        W 5317   2.275   7.981  10.018
 1593W        W 5318   8.108   4.235   4.252
 1594W        W 5319   9.494   0.468   0.252
 1595W        W 5320   4.714   0.737   0.910
 1596W        W 5321   2.352   4.083   0.837
 1597W        W 5322   1.253   9.533  11.991
 1598W        W 5323   0.890   8.443  10.813
 1599W        W 5324   1.678   0.734   0.749
 1600W        W 5325   7.959   1.224   2.233
 1601W        W 5326   8.980   5.532   3.256
 1602W        W 5327   1.708   9.414   0.400
 1603W        W 5328   9.888   0.425   2.871
 1604W        W 5329   1.394   8.401   9.397
 1605W        W 5330   8.971   0.729   9.008
 1606W        W 5331   6.570   5.183  11.026
 1607W        W 5332   8.924   7.982   3.181
 1608W        W 5333   5.621   7.034   8.595
 1609W        W 5334   1.779   8.075   9.057
 1610W        W 5335   6.521   2.157  11.914
 1611W        W 5336   1.264   0.947  11.828
 1612W        W 5337   3.270   8.851   0.390
 1613W        W 5338   5.678   0.450  11.367
 1614W        W 5339   7.136   6.658   1.256
 1615W        W 5340   7.938   7.477  10.518
 1616W        W 5341   9.334   2.357  10.478
 1617W        W 5342   9.856   6.107   2.326
 1618W        W 5343   7.031   2.720   0.841
 1619W        W 5344   0.871   5.229   0.432
 1620W        W 5345  10.292   4.607   1.352
 1621W        W 5346   3.601   3.763  10.065
 1622W        W 5347   9.056   3.645   0.405
 1623W        W 5348   5.980   5.171   9.928
 1624W        W 5349   9.839   8.090  10.952
 1625W        W 5350   8.862   4.268   2.360
 1626W        W 5351   7.116   6.657   1.814
 1627W        W 5352   1.258   5.534  10.020
 1628W        W 5353  10.341   8.863   2.204
 1629W        W 5354   7.594   8.092   1.328
 1630W        W 5355   7.116   4.740  11.784
 1631W        W 5356   5.619   6.189   2.737
 1632W        W 5357   7.919   0.846   9.857
 1633W        W 5358   6.027   9.013   1.881
 1634W        W 5359   5.150   9.829   0.762
 1635W        W 5360   7.502   9.506  10.914
 1636W        W 5361   7.092   3.784   1.836
 1637W        W 5362   4.605   3.594   0.839
 1638W        W 5363   8.528   1.374   9.912
 1639W        W 5364   8.398   3.734   2.332
 1640W        W 5365   2.820   1.806   0.804
 1641W        W 5366   4.161   6.520   9.421
 1642W        W 5367   3.264   2.280   9.591
 1643W        W 5368   9.400   3.722  11.463
 1644W        W 5369   6.155   0.306   1.319
 1645W        W 5370   5.099   3.790   9.421
 1646W        W 5371   4.630   8.995   2.642
 1647W        W 5372   3.224   7.425   3.788
 1648W        W 5373   9.487   9.905   1.724
 1649W        W 5374   1.729  10.369   2.768
 1650W        W 5375   8.431   2.656   9.593
 1651W        W 5376   4.263   4.282   1.790
 1652W        W 5377   1.396   9.397   9.514
 1653W        W 5378   2.819   7.562   0.392
 1654W        W 5379   8.944   3.195  11.005
 1655W        W 5380   5.131  10.388   0.387
 1656W        W 5381   1.267   2.725   1.353
 1657W        W 5382   8.548   5.506  10.381
 1658W        W 5383   2.697   6.063   2.810
 1659W        W 5384  10.489   2.800   9.087
 1660W        W 5385   7.045   6.046   3.673
 1661W        W 5386   4.732   5.610  10.335
 1662W        W 5387   4.196   1.374   3.353
 1663W        W 5388   4.133   6.145   2.838
 1664W        W 5389   7.127   3.284  11.796
 1665W        W 5390   6.003   5.626  10.371
 1666W        W 5391   1.393   6.948   2.776
 1667W        W 5392   0.938   2.665  10.471
 1668W        W 5393   7.133   3.671   2.866
 1669W        W 5394   5.018   5.229   0.387
 1670W        W 5395   7.051   0.444   1.743
 1671W        W 5396   6.142   2.313   2.200
 1672W        W 5397   5.505   2.279   1.781
 1673W        W 5398   7.898   5.583   8.900
 1674W        W 5399   2.284   7.910  11.505
 1675W        W 5400   8.564   0.870   1.426
 1676W        W 5401   5.663  10.316  11.406
 1677W        W 5402   4.755   8.075  11.397
 1678W        W 5403   4.770   6.059   1.226
 1679W        W 5404  10.264   3.118   2.842
 1680W        W 5405   1.834   1.375   9.374
 1681W        W 5406   4.755   3.595  10.384
 1682W        W 5407   0.863   5.198   0.803
 1683W        W 5408   0.458   9.495   0.929
 1684W        W 5409   9.918   2.341   9.957
 1685W        W 5410   2.823   7.896   2.684
 1686W        W 5411   1.295   6.626   2.168
 1687W        W 5412   0.853   9.463   8.507
 1688W        W 5413   6.108   0.737  11.498
 1689W        W 5414   2.188   6.488   2.267
 1690W        W 5415   2.173   4.295   0.271
 1691W        W 5416   0.379   6.650   9.059
 1692W        W 5417   3.790   3.234   3.357
 1693W        W 5418   5.601   3.276   3.834
 1694W        W 5419   4.653   1.360   2.839
 1695W        W 5420   5.140   1.377   1.335
 1696W        W 5421   3.805   8.933   2.667
 1697W        W 5422   1.866   9.388  10.422
 1698W        W 5423   1.310   8.412   1.357
 1699W        W 5424   6.060   1.350   2.369
 1700W        W 5425   3.729   2.785   0.341
 1701W        W 5426   7.573   3.298   9.417
 1702W        W 5427   1.368   2.282  11.509
 1703W        W 5428   5.074   2.177   0.748
 1704W        W 5429   6.531   7.537  10.408
 1705W        W 5430   9.940   1.690  11.402
 1706W        W 5431   0.725   1.241   1.359
 1707W        W 5432   6.489   2.311   1.690
 1708W        W 5433   5.602   8.503   3.240
 1709W        W 5434   4.234   6.558   2.234
 1710W        W 5435   2.148   0.793   2.676
 1711W        W 5436   5.593   3.119   1.884
 1712W        W 5437   7.452   7.056   0.751
 1713W        W 5438   4.711   2.224  11.981
 1714W        W 5439   2.700   5.686  11.299
 1715W        W 5440   7.501   4.064   3.210
 1716W        W 5441  10.329   5.571  11.786
 1717W        W 5442   7.949   1.808  11.854
 1718W        W 5443   5.696   3.265   3.254
 1719W        W 5444   7.919   1.882  10.937
 1720W        W 5445   2.164   4.252   1.828
 1721W        W 5446   5.490  10.396   0.425
 1722W        W 5447   2.163  10.270   9.865
 1723W        W 5448   5.237   2.168   2.648
 1724W        W 5449   2.155   5.238   0.303
 1725W        W 5450   4.638   7.128   9.033
 1726W        W 5451   2.674   8.841   8.980
 1727W        W 5452   9.872   9.507   1.726
 1728W        W 5453   7.020   6.566  11.976
 1729W        W 5454   5.717   2.251   0.440
 1730W        W 5455   9.527   1.704  10.964
 1731W        W 5456   5.537   7.494   1.274
 1732W        W 5457   0.266   4.545   0.910
 1733W        W 5458   9.984   7.882  11.371
 1734W        W 5459   7.452   9.516  11.485
 1735W        W 5460   4.222   9.027   0.721
 1736W        W 5461   9.318   5.617  11.869
 1737W        W 5462   4.718   8.549   2.816
 1738W        W 5463   0.321   2.662  11.017
 1739W        W 5464   6.467   2.309   0.838
 1740W        W 5465   3.260   0.740   9.889
 1741W        W 5466   2.756   1.344  11.859
 1742W        W 5467   0.847   5.094   2.782
 1743W        W 5468  10.302   3.274   0.418
 1744W        W 5469   2.640   7.081   9.860
 1745W        W 5470   2.859   9.023  10.544
 1746W        W 5471   2.720   6.975   0.444
 1747W        W 5472   7.597   8.096   0.904
 1748W        W 5473   0.875  10.012   1.913
 1749W        W 5474   3.785   5.164  11.362
 1750W        W 5475   6.178   2.256   1.383
 1751W        W 5476  10.426   6.607  10.354
 1752W        W 5477   5.974   8.375   0.308
 1753W        W 5478   4.292   7.071   0.437
 1754W        W 5479   2.209   6.146  10.817
 1755W        W 5480   2.818   5.631   2.205
 1756W        W 5481  10.491   7.048  11.034
 1757W        W 5482   5.249   3.213  10.991
 1758W        W 5483   3.155   1.889   1.854
 1759W        W 5484   7.544   7.026   2.648
 1760W        W 5485   6.068   3.281   2.308
 1761W        W 5486   0.354   6.163  11.510
 1762W        W 5487   7.533   8.379   1.429
 1763W        W 5488   8.957   6.924   2.171
 1764W        W 5489   8.506   4.579   0.384
 1765W        W 5490   1.207   7.510   9.494
 1766W        W 5491   4.275   9.915   0.832
 1767W        W 5492   2.347   9.949  11.836
 1768W        W 5493   4.169   2.233   1.396
 1769W        W 5494   7.573   4.734  11.945
 1770W        W 5495   9.047   3.586   2.769
 1771W        W 5496   2.799   6.192   9.059
 1772W        W 5497   0.471   7.401   0.368
 1773W        W 5498   1.297   1.691   9.889
 1774W        W 5499   8.878   7.607   0.948
 1775W        W 5500  10.277   0.800   2.865
 1776W        W 5501   5.021   3.315   1.403
 1777W        W 5502   2.227   3.581  11.435
 1778W        W 5503   9.846   1.427   2.641
 1779W        W 5504   5.045   1.278   9.113
 1780W        W 5505   4.132   3.791   2.217
 1781W        W 5506   9.895   8.423  11.956
 1782W        W 5507   7.411   4.288   1.732
 1783W        W 5508   2.718   3.645   2.274
 1784W        W 5509   4.614   7.082   3.321
 1785W        W 5510   3.194   1.424   9.424
 1786W        W 5511   0.250   7.988   9.087
 1787W        W 5512   8.360   6.928   3.201
 1788W        W 5513   5.998   9.030   8.989
 1789W        W 5514   3.765   6.485  11.852
 1790W        W 5515   2.224   5.210  11.486
 1791W        W 5516   2.854   9.903   1.417
 1792W        W 5517   3.296   4.542   1.381
 1793W        W 5518   6.928  10.358  11.300
 1794W        W 5519   2.848   7.453  10.052
 1795W        W 5520   9.366   2.808   1.883
 1796W        W 5521   5.085   8.445  10.417
 1797W        W 5522   2.643   8.409   8.893
 1798W        W 5523   0.463   3.610   1.747
 1799W        W 5524   5.517   4.692  10.068
 1800W        W 5525   2.202   7.053   2.750
 1801W        W 5526   4.151   6.521   9.003
 1802W        W 5527   5.116   8.014   1.284
 1803W        W 5528  10.367   5.592  11.443
 1804W        W 5529   7.601   0.719   9.111
 1805W        W 5530   5.700   2.691   8.927
 1806W        W 5531   5.530   9.336   0.890
 1807W        W 5532   3.248   2.316   1.257
 1808W        W 5533   8.859   8.427  11.954
 1809W        W 5534   3.210   1.370  10.843
 1810W        W 5535   2.796   6.123  10.425
 1811W        W 5536   8.498   2.188   3.761
 1812W        W 5537   1.245   6.945   0.408
 1813W        W 5538   5.976   7.158   1.230
 1814W        W 5539   2.223   4.247   2.870
 1815W        W 5540   7.137   7.972   1.402
 1816W        W 5541   5.722   5.627  10.986
 1817W        W 5542   4.111   2.662   0.269
 1818W        W 5543   5.998   1.238   1.773
 1819W        W 5544   6.081   6.090   0.452
 1820W        W 5545   5.090   2.773   0.240
 1821W        W 5546  10.444   2.242  10.982
 1822W        W 5547   3.130   2.780  11.282
 1823W        W 5548   6.655   1.870   2.792
 1824W        W 5549   9.824   9.969   1.372
 1825W        W 5550   4.672   9.993  11.782
 1826W        W 5551   7.424   7.032  11.999
 1827W        W 5552   6.025   1.739   9.431
 1828W        W 5553   9.495   8.368   2.362
 1829W        W 5554   3.783   3.759  10.476
 1830W        W 5555   5.027   7.624  11.029
 1831W        W 5556   3.688   9.515   1.407
 1832W        W 5557   3.616   2.628   2.710
 1833W        W 5558   5.135   3.215   9.434
 1834W        W 5559   4.757   7.009   1.229
 1835W        W 5560  10.444   8.930  11.970
 1836W        W 5561   1.775   0.272   9.413
 1837W        W 5562   3.653   8.865   1.389
 1838W        W 5563   6.112   0.926   9.536
 1839W        W 5564   2.201   3.750   1.278
 1840W        W 5565   3.623   2.215   1.289
 1841W        W 5566   5.532   5.998   9.848
 1842W        W 5567   4.182   8.902   9.925
 1843W        W 5568   5.718   9.905   0.826
 1844W        W 5569   8.507   8.384   2.191
 1845W        W 5570   6.976   0.880  11.428
 1846W        W 5571   9.438   2.856   2.393
 1847W        W 5572   0.330   4.176   2.232
 1848W        W 5573   1.792   2.363  10.071
 1849W        W 5574   6.177   7.486   9.875
 1850W        W 5575   6.581   4.621  11.868
 1851W        W 5576   7.615   7.575   2.214
 1852W        W 5577  10.422   2.324   2.209
 1853W        W 5578   6.579   2.843   9.505
 1854W        W 5579   7.446   3.806   0.745
 1855W        W 5580   4.647   0.398   2.667
 1856W        W 5581   8.463   1.790   2.776
 1857W        W 5582   4.242   6.592  11.843
 1858W        W 5583   9.010   7.016   3.177
 1859W        W 5584   7.000   6.557   0.478
 1860W        W 5585   2.786   9.310   1.304
 1861W        W 5586   4.258   4.538   2.752
 1862W        W 5587   7.970   2.709   0.443
 1863W        W 5588   5.991   8.991   2.369
 1864W        W 5589   5.172  10.370  11.448
 1865W        W 5590   1.826   3.632   0.814
 1866W        W 5591   2.185   2.644   9.850
 1867W        W 5592   5.651   7.039   3.130
 1868W        W 5593   0.839   4.725   9.591
 1869W        W 5594   1.428   9.470   2.161
 1870W        W 5595   4.139   7.081   3.182
 1871W        W 5596   6.936   3.129   0.780
 1872W        W 5597   4.196   4.646   1.212
 1873W        W 5598  10.267   8.462  10.549
 1874W        W 5599   8.866   5.061   8.932
 1875W        W 5600   0.876   7.875   8.579
 1876W        W 5601   3.698   5.103   2.176
 1877W        W 5602   1.367   4.217  11.374
 1878W        W 5603   8.010   9.057  11.789
 1879W        W 5604   6.938   9.983   1.749
 1880W        W 5605  10.265   9.936   3.228
 1881W        W 5606   8.447   4.562   2.688
 1882W        W 5607   0.375   2.788   1.900
 1883W        W 5608  10.460   1.208   1.876
 1884W        W 5609   9.883   8.904   0.804
 1885W        W 5610   7.034   1.722   3.223
 1886W        W 5611   2.225   2.713  10.952
 1887W        W 5612   0.439   0.327   3.238
 1888W        W 5613   4.628   6.541  11.471
 1889W        W 5614   5.185   3.639   2.806
 1890W        W 5615   3.757   6.010   9.480
 1891W        W 5616   1.835   2.706   2.261
 1892W        W 5617   9.323   5.498   3.205
 1893W        W 5618   5.973   3.749   8.480
 1894W        W 5619   3.217   0.891   1.377
 1895W        W 5620   5.161   9.472  10.834
 1896W        W 5621   8.505   8.051   2.331
 1897W        W 5622   6.037   2.843   9.872
 1898W        W 5623   0.441   5.713   2.793
 1899W        W 5624   2.334   4.219   1.226
 1900W        W 5625   6.548   1.785   0.944
 1901W        W 5626   1.817   9.989  10.851
 1902W        W 5627   0.857   7.995   0.782
 1903W        W 5628  10.336   2.735   9.932
 1904W        W 5629   1.899   1.699  11.320
 1905W        W 5630   0.921   8.092   1.815
 1906W        W 5631   1.299   3.718   0.293
 1907W        W 5632   6.509   2.741  10.017
 1908W        W 5633   0.785   1.724  10.368
 1909W        W 5634   8.364   6.140   0.924
 1910W        W 5635   1.793   7.986   1.331
 1911W        W 5636   4.771   4.085   9.861
 1912W        W 5637   9.390   0.778   1.710
 1913W        W 5638  10.395   7.053   3.159
 1914W        W 5639   3.133   5.717  11.898
 1915W        W 5640   5.523   7.405   2.803
 1916W        W 5641   1.875   4.089   9.068
 1917W        W 5642   9.442   9.855   3.199
 1918W        W 5643   7.429   8.532   9.951
 1919W        W 5644   3.810   7.610   0.872
 1920W        W 5645   8.476   0.442   9.398
 1921W        W 5646   3.786   5.968   0.878
 1922W        W 5647   2.753   7.131   8.948
 1923W        W 5648   6.040   4.124   9.384
 1924W        W 5649   3.150   2.834   8.620
 1925W        W 5650   3.256   1.764  11.433
 1926W        W 5651   9.475   5.086   1.823
 1927W        W 5652  10.371   7.618   9.032
 1928W        W 5653   3.734   5.974   0.358
 1929W        W 5654   6.483   2.203   2.333
 1930W        W 5655   5.180   6.575   9.042
 1931W        W 5656   5.687   4.279   0.803
 1932W        W 5657   1.429   8.075   0.279
 1933W        W 5658   4.711  10.347   9.503
 1934W        W 5659   0.310   8.426  10.841
 1935W        W 5660   4.166   4.696   1.811
 1936W        W 5661   1.761   6.581   2.346
 1937W        W 5662  10.311   5.532   1.244
 1938W        W 5663   6.102   3.653   0.433
 1939W        W 5664   7.422   9.371   2.287
 1940W        W 5665   7.946   6.565   9.384
 1941W        W 5666   7.044   5.693   0.275
 1942W        W 5667   6.618   4.738   2.766
 1943W        W 5668   6.444   6.571  10.335
 1944W        W 5669  10.458   2.662   0.277
 1945W        W 5670   5.979   1.348   9.564
 1946W        W 5671   1.206   8.862   9.487
 1947W        W 5672  10.497   4.585   3.134
 1948W        W 5673   9.498   5.675   0.285
 1949W        W 5674   3.806   9.948  10.891
 1950W        W 5675   5.178   0.405   2.797
 1951W        W 5676   6.456   1.816   9.536
 1952W        W 5677   3.187   2.384   3.675
 1953W        W 5678   4.566   3.765   9.929
 1954W        W 5679   8.492   8.008  10.445
 1955W        W 5680   2.667   3.654  11.021
 1956W        W 5681   9.828   6.200   0.386
 1957W        W 5682   0.936   2.677   1.860
 1958W        W 5683   0.367   1.904   0.405
 1959W        W 5684   8.010   4.271   0.261
 1960W        W 5685   8.063   4.278   8.622
 1961W        W 5686   9.939   3.619   9.069
 1962W        W 5687   9.526   4.636   0.936
 1963W        W 5688  10.455  10.330   3.219
 1964W        W 5689   3.116   7.979   9.017
 1965W        W 5690   3.270   0.927   0.352
 1966W        W 5691  10.438  10.346   8.937
 1967W        W 5692   9.873   1.266   9.039
 1968W        W 5693   6.158   7.408   8.985
 1969W        W 5694   7.514   3.122   0.293
 1970W        W 5695   5.980   1.427   0.827
 1971W        W 5696   5.030   1.684   1.747
 1972W        W 5697  10.272   2.234   2.812
 1973W        W 5698   5.715   3.607   1.401
 1974W        W 5699   6.455   2.699  10.398
 1975W        W 5700   1.428   8.960   3.360
 1976W        W 5701   8.107   0.463   1.390
 1977W        W 5702   0.863   0.246   2.642
 1978W        W 5703   1.315   3.770  10.885
 1979W        W 5704   6.983   2.754   8.990
 1980W        W 5705   4.700   9.423  10.447
 1981W        W 5706   0.428   7.057   0.458
 1982W        W 5707   0.929   5.677   1.826
 1983W        W 5708   2.168   5.570   0.948
 1984W        W 5709   4.747   6.646   8.627
 1985W        W 5710   8.563   3.618   1.417
 1986W        W 5711   2.662   0.749  10.904
 1987W        W 5712   5.727   7.591   0.316
 1988W        W 5713   0.743   5.102   9.074
 1989W        W 5714   1.224   1.327  10.043
 1990W        W 5715   1.676  10.274   8.971
 1991W        W 5716   5.583   5.676   0.751
 1992W        W 5717   5.036   6.981  10.328
 1993W        W 5718   9.826   6.050   2.819
 1994W        W 5719   6.974   4.282   9.853
 1995W        W 5720  10.322   5.622   3.123
 1996W        W 5721   5.521   8.066   3.203
 1997W        W 5722   7.962   7.570   0.292
 1998W        W 5723   4.648   5.030   9.427
 1999W        W 5724   5.156   6.035   8.486
 2000W        W 5725   6.580   5.078   0.465
 2001W        W 5726  10.334   4.687   2.295
 2002W        W 5727   8.383   1.242   0.724
 2003W        W 5728  10.353   6.514  11.356
 2004W        W 5729   8.367   4.255   0.771
 2005W        W 5730   2.653   4.574   9.095
 2006W        W 5731   4.683   2.758   9.368
 2007W        W 5732   1.809   5.565   1.716
 2008W        W 5733   4.239   7.913   1.816
 2009W        W 5734  10.485   4.645  11.849
 2010W        W 5735   3.676   5.617  11.841
 2011W        W 5736   1.729   3.711   9.908
 2012W        W 5737   3.109   0.754   0.773
 2013W        W 5738   6.009   1.672   9.974
 2014W        W 5739   0.348   4.270   9.026
 2015W        W 5740  10.279   2.364   9.115
 2016W        W 5741   4.591   3.770   8.040
 2017W        W 5742   9.440  10.469   0.921
 2018W        W 5743   9.349   8.920   1.825
 2019W        W 5744   8.874   5.188   3.230
 2020W        W 5745   9.010  10.476   2.737
 2021W        W 5746  10.472   8.068  10.924
 2022W        W 5747   9.785   9.439   8.463
 2023W        W 5748   0.322   7.047   2.392
 2024W        W 5749   3.262   7.578   1.732
 2025W        W 5750  10.273   5.604   2.641
 2026W        W 5751   2.303   9.990   2.200
 2027W        W 5752   4.626   7.630  10.026
 2028W        W 5753   7.898   4.677  10.078
 2029W        W 5754   5.214   5.056   1.916
 2030W        W 5755   0.407   6.591  11.029
 2031W        W 5756   6.678   3.169   3.175
 2032W        W 5757   2.167   2.696  11.509
 2033W        W 5758   5.517   6.993   0.881
 2034W        W 5759   2.350  10.487   3.229
 2035W        W 5760   8.536   3.614   0.743
 2036W        W 5761   6.076   7.128  10.044
 2037W        W 5762   3.594   3.125  11.997
 2038W        W 5763   0.325  10.333   8.948
 2039W        W 5764   6.557  10.265   1.816
 2040W        W 5765   0.817   9.868   8.934
 2041W        W 5766   5.970   4.161   9.018
 2042W        W 5767   2.173   9.810  11.363
 2043W        W 5768   6.613   9.325   1.240
 2044W        W 5769   8.879   6.675   0.336
 2045W        W 5770   1.354   3.300  10.378
 2046W        W 5771   8.029  10.381  10.952
 2047W        W 5772   0.822   8.982  11.931
 2048W        W 5773   1.359   5.230   8.970
 2049W        W 5774   6.663   8.501   0.751
 2050W        W 5775   3.244   7.909   8.481
 2051W        W 5776   3.721   3.209   2.323
 2052W        W 5777   0.855   5.151   1.716
 2053W        W 5778   0.851   9.473   1.375
 2054W        W 5779   8.908   5.515  11.443
 2055W        W 5780   2.292   0.899   1.308
 2056W        W 5781   3.211   1.688   8.976
 2057W        W 5782   2.353   4.762   2.168
 2058W        W 5783   1.894   6.598   9.453
 2059W        W 5784  10.293  10.263  11.488
 2060W        W 5785   0.340   1.849   1.351
 2061W        W 5786   0.399   2.364   3.796
 2062W        W 5787   5.196   8.570   8.628
 2063W        W 5788   8.514   0.765   0.884
 2064W        W 5789   1.879   0.329   3.211
 2065W        W 5790   9.916   5.196  11.357
 2066W        W 5791   6.540   4.212   2.826
 2067W        W 5792   5.145   0.937   0.418
 2068W        W 5793   1.681   2.192   3.236
 2069W        W 5794   0.386   6.095   1.809
 2070W        W 5795   2.177   6.160   9.424
 2071W        W 5796   3.650   9.791   3.691
 2072W        W 5797   3.190   4.590   9.987
 2073W        W 5798   1.896   2.343  10.964
 2074W        W 5799   9.530   5.705  11.471
 2075W        W 5800  10.474   1.380   3.152
 2076W        W 5801   8.447   3.583   2.842
 2077W        W 5802   4.591   6.624  10.415
 2078W        W 5803   7.101   3.167   0.447
 2079W        W 5804   4.142  10.455   9.403
 2080W        W 5805   3.199   1.320  11.492
 2081W        W 5806   2.203   7.027   0.432
 2082W        W 5807   7.586   2.755  11.297
 2083W        W 5808   6.096   3.746   9.842
 2084W        W 5809   7.037   8.842  11.961
 2085W        W 5810   4.654   3.594   3.280
 2086W        W 5811   2.705   5.206  10.469
 2087W        W 5812   8.361   7.056  11.006
 2088W        W 5813   3.756   3.694  11.876
 2089W        W 5814   5.091   3.688   3.303
 2090W        W 5815   0.261   9.992  10.033
 2091W        W 5816   1.851   5.177   2.712
 2092W        W 5817   1.671   1.712   8.917
 2093W        W 5818   4.116   6.955   9.482
 2094W        W 5819   9.972  10.007   1.850
 2095W        W 5820   7.083   2.257   2.229
 2096W        W 5821   5.632   6.987  11.012
 2097W        W 5822   1.702   4.736  11.941
 2098W        W 5823   7.924   1.759   2.356
 2099W        W 5824   6.184   5.649   1.369
 2100W        W 5825   1.360   4.548  11.353
 2101W        W 5826   2.794   5.593  11.841
 2102W        W 5827   2.799   8.364  11.293
 2103W        W 5828   7.034   1.690   1.714
 2104W        W 5829   1.385   1.339   1.265
 2105W        W 5830   4.146   2.201   3.244
 2106W        W 5831   0.439   7.993   9.543
 2107W        W 5832   2.771   9.887  11.938
 2108W        W 5833   1.370   0.894  10.871
 2109W        W 5834   5.578   4.644   9.433
 2110W        W 5835   7.975   3.729   2.313
 2111W        W 5836   8.955   5.127   0.888
 2112W        W 5837   8.074   2.169  11.977
 2113W        W 5838   0.811   6.109   3.239
 2114W        W 5839   3.760   7.004   2.738
 2115W        W 5840   3.773   4.283   8.617
 2116W        W 5841   8.832   2.678   9.440
 2117W        W 5842   7.578   2.676   0.936
 2118W        W 5843   4.738   4.192  11.912
 2119W        W 5844   0.941   9.835   9.520
 2120W        W 5845   8.884   7.893  11.012
 2121W        W 5846   5.243   2.338   3.286
 2122W        W 5847   1.886   3.142   3.317
 2123W        W 5848   3.269   9.410  10.813
 2124W        W 5849   8.572   0.738  11.769
 2125W        W 5850  10.493   4.708  10.988
 2126W        W 5851   7.133   8.053   2.719
 2127W        W 5852   4.175   9.522   3.252
 2128W        W 5853   2.165   3.233   3.314
 2129W        W 5854   7.623   1.393  10.976
 2130W        W 5855   9.363   3.248   1.769
 2131W        W 5856   7.436   7.010   3.354
 2132W        W 5857   5.524   9.476   1.744
 2133W        W 5858   4.763   0.901   0.348
 2134W        W 5859   5.977   6.000   1.419
 2135W        W 5860   5.541   4.244   8.130
 2136W        W 5861   7.403   1.367   9.878
 2137W        W 5862   3.337   7.114   1.718
 2138W        W 5863   0.462   2.688   0.251
 2139W        W 5864   4.743   1.401  10.820
 2140W        W 5865   2.365   6.480   2.727
 2141W        W 5866   1.282   7.940  10.805
 2142W        W 5867   7.511   9.906  10.348
 2143W        W 5868   7.896   0.307   0.958
 2144W        W 5869   8.559   4.218   8.917
 2145W        W 5870   7.143   3.779   3.181
 2146W        W 5871   1.734   9.826   0.395
 2147W        W 5872   8.400   8.584   9.087
 2148W        W 5873   1.284   9.320   1.763
 2149W        W 5874   1.713   4.266   1.771
 2150W        W 5875   7.516   7.929  10.434
 2151W        W 5876   8.974   6.622   1.326
 2152W        W 5877   1.712   1.225   3.658
 2153W        W 5878   2.679   2.291   0.926
 2154W        W 5879   8.949   6.172   1.218
 2155W        W 5880   1.329   3.582   9.962
 2156W        W 5881   0.439   0.381   2.839
 2157W        W 5882   0.448   9.019   9.408
 2158W        W 5883   8.098   0.863   3.242
 2159W        W 5884   9.043   0.938  10.018
 2160W        W 5885   8.046   2.691  10.445
 2161W        W 5886   0.782   6.146   3.826
 2162W        W 5887   8.352   1.788   9.554
 2163W        W 5888   9.415  10.403   2.646
 2164W        W 5889   7.020   2.244   0.296
 2165W        W 5890   8.865   0.256   2.360
 2166W        W 5891   1.683   9.063   0.358
 2167W        W 5892  10.433   8.971   2.768
 2168W        W 5893   0.766   5.242  11.401
 2169W        W 5894   3.295   2.857   9.872
 2170W        W 5895   0.843   1.848   3.160
 2171W        W 5896   7.584   7.567   0.346
 2172W        W 5897  10.017   4.751   2.704
 2173W        W 5898   4.605   3.634   0.305
 2174W        W 5899   9.800   1.371   0.764
 2175W        W 5900   9.493   0.408  11.336
 2176W        W 5901   1.243   9.886   9.467
 2177W        W 5902   3.226   5.234   8.438
 2178W        W 5903   9.014   6.539   0.899
 2179W        W 5904   9.003   8.438   2.852
 2180W        W 5905   8.047   3.670  11.793
 2181W        W 5906   7.025   8.978   0.259
 2182W        W 5907   6.026   9.369   1.253
 2183W        W 5908   7.985   6.185   2.327
 2184W        W 5909   7.605   7.558  11.959
 2185W        W 5910   4.543   2.745   3.230
 2186W        W 5911   4.188   5.028   0.841
 2187W        W 5912   3.185  10.001   1.208
 2188W        W 5913   7.493   9.396   8.978
 2189W        W 5914  10.309   8.446   2.653
 2190W        W 5915   5.168   1.253  11.965
 2191W        W 5916   7.019   0.355  10.371
 2192W        W 5917   2.805   2.336   1.243
 2193W        W 5918   4.699   2.830   0.330
 2194W        W 5919   1.309   6.597  11.933
 2195W        W 5920   2.682   1.323   2.710
 2196W        W 5921   4.159   4.587   2.379
 2197W        W 5922  10.349   4.535   1.795
 2198W        W 5923   7.091  10.341   2.752
 2199W        W 5924   4.653   8.944  10.489
 2200W        W 5925   9.487   5.656   1.824
 2201W        W 5926   8.485   2.370   0.436
 2202W        W 5927   3.273   9.051   2.851
 2203W        W 5928   3.181   2.826   1.916
 2204W        W 5929  10.384   2.642   2.864
 2205W        W 5930   5.178   9.967   1.914
 2206W        W 5931  10.381   9.891  10.048
 2207W        W 5932   5.707   9.372   0.284
 2208W        W 5933   1.734   8.362   2.773
 2209W        W 5934   7.142   2.713   0.428
 2210W        W 5935   9.918   8.510   9.467
 2211W        W 5936   5.511   9.933   2.739
 2212W        W 5937   6.979   4.694   8.982
 2213W        W 5938   1.869   6.658  11.813
 2214W        W 5939   8.006   5.149  10.006
 2215W        W 5940   2.674   7.916  10.012
 2216W        W 5941   0.440   7.070   1.343
 2217W        W 5942   5.200   5.022  10.879
 2218W        W 5943   8.568   1.430  11.813
 2219W        W 5944   6.097   9.986  11.369
 2220W        W 5945   8.062   7.930   1.694
 2221W        W 5946   9.831   1.207   2.230
 2222W        W 5947   8.398   0.852   0.307
 2223W        W 5948   6.926  10.396   0.829
 2224W        W 5949   9.348   5.020   3.256
 2225W        W 5950   6.971   9.901  10.551
 2226W        W 5951   2.807   0.728   2.718
 2227W        W 5952   9.885   9.337  11.321
 2228W        W 5953   4.085   0.813   0.742
 2229W        W 5954   5.215   7.091  11.367
 2230W        W 5955   7.893   2.228   8.907
 2231W        W 5956   9.875   1.779   0.426
 2232W        W 5957   4.195   7.043   8.902
 2233W        W 5958   8.504  10.440   2.675
 2234W        W 5959   8.071   7.506   2.173
 2235W        W 5960   4.674   2.731  10.529
 2236W        W 5961   2.737   1.801   1.388
 2237W        W 5962   0.422   1.726  11.493
 2238W        W 5963   1.695   2.832  10.991
 2239W        W 5964   4.077   5.220   2.210
 2240W        W 5965   4.176   4.581  10.455
 2241W        W 5966   4.115   8.413   9.459
 2242W        W 5967   1.880   1.400   8.610
 2243W        W 5968   6.125   2.254  11.331
 2244W        W 5969   8.850   3.721   1.811
 2245W        W 5970  10.391  10.378   0.890
 2246W        W 5971   8.456   5.117   0.259
 2247W        W 5972   8.457   7.434   2.880
 2248W        W 5973   7.526   2.677   2.685
 2249W        W 5974   5.502   8.485   1.858
 2250W        W 5975   3.788   9.352   0.733
 2251W        W 5976   0.734   2.714  10.875
 2252W        W 5977   5.981   9.812   0.920
 2253W        W 5978   6.101  10.440   1.332
 2254W        W 5979   8.483   8.399  10.492
 2255W        W 5980   2.316   1.195  10.819
 2256W        W 5981   8.529  10.405   1.334
 2257W        W 5982  10.019   7.468   0.889
 2258W        W 5983   7.113   5.176   1.766
 2259W        W 5984   8.581   3.739  10.429
 2260W        W 5985   6.979   7.455  11.303
 2261W        W 5986   0.861   5.573  11.770
 2262W        W 5987   7.569   4.193   1.293
 2263W        W 5988   3.181   3.228  10.501
 2264W        W 5989   8.504   8.895  11.863
 2265W        W 5990   2.654   2.765  10.986
 2266W        W 5991   9.971   6.076  11.458
 2267W        W 5992   0.804   7.005   8.989
 2268W        W 5993   5.603   1.822  11.447
 2269W        W 5994   6.457   7.057   3.156
 2270W        W 5995   8.528   7.936   3.314
 2271W        W 5996   1.820   5.596   0.895
 2272W        W 5997   2.824   6.582   3.639
 2273W        W 5998   9.384   0.461   3.265
 2274W        W 5999   3.652   4.620   1.845
 2275W        W 6000   8.370   0.821   1.696
 2276W        W 6001   3.283   6.141   3.353
 2277W        W 6002   1.425   2.346   9.926
 2278W        W 6003   4.241   9.852   1.436
 2279W        W 6004   3.238   5.643   0.738
 2280W        W 6005   5.525   0.745   9.992
 2281W        W 6006   6.596   5.144   9.387
 2282W        W 6007   3.587   5.514  10.910
 2283W        W 6008   0.286   5.065   3.343
 2284W        W 6009   2.295   6.062   1.686
 2285W        W 6010   3.339   7.962   9.847
 2286W        W 6011   8.065   3.207   9.576
 2287W        W 6012   7.560   4.189  11.286
 2288W        W 6013   2.224   6.632   0.795
 2289W        W 6014   4.078   4.559   9.515
 2290W        W 6015   8.584   7.581  11.026
 2291W        W 6016   5.513   1.347   2.390
 2292W        W 6017   9.439   0.242   9.871
 2293W        W 6018   9.887   6.995   0.454
 2294W        W 6019   6.035   6.003  11.335
 2295W        W 6020   5.495   5.690  11.460
 2296W        W 6021   5.059   7.012   9.881
 2297W        W 6022   2.797   7.553  11.888
 2298W        W 6023   7.936   4.643   1.766
 2299W        W 6024   8.946   6.120   9.516
 2300W        W 6025   7.158   1.723   1.430
 2301W        W 6026  10.365   9.929   2.305
 2302W        W 6027   5.533   7.059   9.580
 2303W        W 6028   1.391   7.494   9.924
 2304W        W 6029   6.659   5.993  11.787
 2305W        W 6030   7.108   9.458  11.398
 2306W        W 6031   5.152   8.006  11.903
 2307W        W 6032   2.735   0.900   0.417
 2308W        W 6033   3.333   0.306  11.889
 2309W        W 6034   5.068   4.159   9.517
 2310W        W 6035  10.318   1.250   2.209
 2311W        W 6036   9.512   7.960  11.380
 2312W        W 6037   7.940   0.272   2.163
 2313W        W 6038   1.403   3.293   9.941
 2314W        W 6039   1.368   8.516   0.407
 2315W        W 6040   7.056   3.333   2.176
 2316W        W 6041  10.405   4.062  10.351
 2317W        W 6042   9.509   1.359   2.347
 2318W        W 6043   6.601   2.756   1.737
 2319W        W 6044   0.264   6.565   0.445
 2320W        W 6045   1.249   6.977   3.225
 2321W        W 6046   2.296  10.359   0.827
 2322W        W 6047   2.817   6.511   8.582
 2323W        W 6048   0.398   2.281   8.965
 2324W        W 6049   7.982   4.288   2.764
 2325W        W 6050   6.934   9.039   9.093
 2326W        W 6051   1.269   5.071   1.364
 2327W        W 6052   9.364  10.434  11.003
 2328W        W 6053   8.416  10.342   2.384
 2329W        W 6054   1.698   5.203   0.785
 2330W        W 6055   9.456   0.924   2.866
 2331W        W 6056   0.910   3.260   2.780
 2332W        W 6057   2.671   8.500   1.412
 2333W        W 6058  10.429   2.298   3.260
 2334W        W 6059   1.407   3.282  10.923
 2335W        W 6060   0.411   2.386  10.849
 2336W        W 6061   3.702   4.206   0.901
 2337W        W 6062   5.037   8.426  10.905
 2338W        W 6063   0.472   1.735  10.007
 2339W        W 6064   0.875   0.746  11.328
 2340W        W 6065   1.879   7.073   9.373
 2341W        W 6066   5.139   6.547  10.886
 2342W        W 6067   0.924   6.129   1.235
 2343W        W 6068   2.372  10.345  10.957
 2344W        W 6069   7.546   5.620   3.716
 2345W        W 6070   5.971   2.737  11.895
 2346W        W 6071   3.260   7.151   9.477
 2347W        W 6072   7.958   8.088   0.869
 2348W        W 6073   3.783   6.948  11.978
 2349W        W 6074   1.196   8.943  11.877
 2350W        W 6075   5.552   6.020   1.390
 2351W        W 6076   3.608   6.984  10.547
 2352W        W 6077   9.918   6.667  11.439
 2353W        W 6078   7.576   3.316  10.447
 2354W        W 6079   6.507   3.774   0.787
 2355W        W 6080   7.020   4.587   1.204
 2356W        W 6081   0.346   1.889  10.865
 2357W        W 6082   3.634   8.867   3.352
 2358W        W 6083   9.391   2.721   9.118
 2359W        W 6084   5.683   8.069   0.275
 2360W        W 6085   9.370   9.807  10.028
 2361W        W 6086   7.095   2.673   8.536
 2362W        W 6087   5.185   7.574   3.304
 2363W        W 6088   3.746   3.727  11.420
 2364W        W 6089   5.621   1.896   9.449
 2365W        W 6090   8.859   1.330   2.323
 2366W        W 6091   7.885   3.707   0.779
 2367W        W 6092   9.059   2.828   2.752
 2368W        W 6093   9.982   7.056   3.331
 2369W        W 6094   9.031   5.701  11.790
 2370W        W 6095   4.074   3.811   9.574
 2371W        W 6096   7.617   5.034   9.106
 2372W        W 6097   0.347   4.547  11.942
 2373W        W 6098   3.164   5.521  10.321
 2374W        W 6099   3.242   1.323   0.752
 2375W        W 6100   1.768   9.964  10.054
 2376W        W 6101   6.037   1.345   8.971
 2377W        W 6102   1.868   9.982  10.397
 2378W        W 6103   0.406   2.169  11.399
 2379W        W 6104   1.402  10.341   1.850
 2380W        W 6105   7.125   5.016   1.244
 2381W        W 6106   7.423   3.263   2.659
 2382W        W 6107   6.508   4.541  11.454
 2383W        W 6108   0.908   1.218  11.037
 2384W        W 6109   4.116   2.743   1.203
 2385W        W 6110   5.632   8.961   1.697
 2386W        W 6111   6.514  10.459   9.410
 2387W        W 6112   3.169   3.691   3.768
 2388W        W 6113   2.286   9.507  11.881
 2389W        W 6114  10.406   9.064   9.093
 2390W        W 6115   4.599   3.685   1.212
 2391W        W 6116   2.308   9.533   8.421
 2392W        W 6117   8.865   4.634   0.460
 2393W        W 6118   7.912   6.542   9.884
 2394W        W 6119   2.754   4.154   1.395
 2395W        W 6120  10.288   5.567   9.560
 2396W        W 6121   2.693   8.390  10.349
 2397W        W 6122   3.590   7.959  11.828
 2398W        W 6123   6.935   5.576   1.726
 2399W        W 6124   3.721   8.449   2.372
 2400W        W 6125   0.386   1.287  10.837
 2401W        W 6126   3.297   1.336  10.054
 2402W        W 6127   9.058   8.073   8.539
 2403W        W 6128   5.227   3.105   2.646
 2404W        W 6129  10.469   8.878   9.915
 2405W        W 6130   2.158   2.806   8.989
 2406W        W 6131   2.629   5.163   2.217
 2407W        W 6132   8.888   9.869   1.250
 2408W        W 6133   3.111   5.969   0.817
 2409W        W 6134   8.975   0.338  11.901
 2410W        W 6135   1.423   8.433   2.766
 2411W        W 6136   4.747   1.704  10.049
 2412W        W 6137   6.643   2.300   0.351
 2413W        W 6138   3.197   4.119   9.427
 2414W        W 6139   8.969   9.318  10.967
 2415W        W 6140   8.527   4.632   9.589
 2416W        W 6141   4.586  10.329   0.466
 2417W        W 6142   0.308   9.963  10.542
 2418W        W 6143   8.104   4.629  10.825
 2419W        W 6144   1.421   9.057   2.290
 2420W        W 6145   5.967   7.488  10.555
 2421W        W 6146   5.176   7.914   3.651
 2422W        W 6147   0.900   3.633   2.364
 2423W        W 6148  10.015   6.033  10.422
 2424W        W 6149   6.124   8.938  11.806
 2425W        W 6150   3.312   6.943  10.539
 2426W        W 6151   4.753   2.797  11.827
 2427W        W 6152   4.127   1.785   8.971
 2428W        W 6153   3.619   7.509   4.211
 2429W        W 6154   8.995   7.494   2.321
 2430W        W 6155   7.453   0.365   8.559
 2431W        W 6156   9.956   9.373   1.414
 2432W        W 6157   1.712   4.679   3.728
 2433W        W 6158   8.515   9.477   9.937
 2434W        W 6159   5.028   4.651   2.243
 2435W        W 6160   8.887  10.391  11.446
 2436W        W 6161   2.827   0.384   3.337
 2437W        W 6162   7.552   2.633   9.419
 2438W        W 6163   5.554   8.373  11.883
 2439W        W 6164  10.442   7.918   3.288
 2440W        W 6165   6.631   0.406  11.987
 2441W        W 6166   2.178   6.674   9.405
 2442W        W 6167   2.859   8.018   9.455
 2443W        W 6168   8.455   4.288   1.209
 2444W        W 6169   5.645   5.202  10.386
 2445W        W 6170   9.994   1.864  10.064
 2446W        W 6171   4.668   3.610   2.250
 2447W        W 6172   9.953   8.380   0.281
 2448W        W 6173   5.232   9.326   0.267
 2449W        W 6174   4.627   1.206  10.444
 2450W        W 6175   0.721   2.341   9.994
 2451W        W 6176   2.359   4.756   9.019
 2452W        W 6177   9.048   9.379   1.839
 2453W        W 6178   7.075   6.530   9.841
 2454W        W 6179   0.256   4.255   0.289
 2455W        W 6180   9.391   5.574   1.312
 2456W        W 6181   2.788   9.387   2.751
 2457W        W 6182   2.761   7.886   0.789
 2458W        W 6183   2.790   0.316  11.377
 2459W        W 6184   6.173   4.547  11.383
 2460W        W 6185   2.765   0.257   9.393
 2461W        W 6186   0.925   0.757   8.409
 2462W        W 6187   9.898   3.584   1.355
 2463W        W 6188   5.144   4.071   4.268
 2464W        W 6189   7.130   7.629  10.912
 2465W        W 6190   8.835   6.142   9.007
 2466W        W 6191   1.677   4.145  10.901
 2467W        W 6192   7.078   4.768   9.378
 2468W        W 6193   0.954   1.358  10.014
 2469W        W 6194   8.882   0.286   0.847
 2470W        W 6195  10.354   7.123   9.017
 2471W        W 6196   2.235   1.820  10.917
 2472W        W 6197   3.728   0.875   9.098
 2473W        W 6198   2.199   8.450   9.589
 2474W        W 6199   4.133   1.335   1.801
 2475W        W 6200   7.630   7.911   3.629
 2476W        W 6201   7.155   0.884   9.456
 2477W        W 6202   1.774   1.338   1.739
 2478W        W 6203   7.499   8.587  11.520
 2479W        W 6204   2.773   2.346   2.735
 2480W        W 6205  10.467   9.973  10.912
 2481W        W 6206   3.247   8.059   3.655
 2482W        W 6207   7.987   0.730   2.800
 2483W        W 6208   2.275   7.571   2.810
 2484W        W 6209   2.702   2.349   2.286
 2485W        W 6210  10.437   3.735  11.811
 2486W        W 6211   6.499   7.007   1.784
 2487W        W 6212   6.025  10.297   1.681
 2488W        W 6213   3.724  10.332   8.909
 2489W        W 6214   3.784   0.419   9.469
 2490W        W 6215   7.041   8.013   0.784
 2491W        W 6216   5.022   3.666   9.868
 2492W        W 6217   8.019   9.489  10.500
 2493W        W 6218   1.740   0.861   1.388
 2494W        W 6219   1.890   2.151  10.395
 2495W        W 6220   6.479   2.768   0.882
 2496W        W 6221   4.624   8.570  11.905
 2497W        W 6222   9.880   9.801   8.512
 2498W        W 6223   6.186   8.853  11.506
 2499W        W 6224   0.300   4.281   0.913
 2500W        W 6225   6.172   6.481   3.212
 2501W        W 6226   8.393   8.076   8.917
 2502W        W 6227   4.139   7.518   0.781
 2503W        W 6228   5.042  10.457  11.936
 2504W        W 6229  10.292   8.442   1.211
 2505W        W 6230   5.085   2.736   9.894
 2506W        W 6231   3.269  10.304   1.205
 2507W        W 6232   5.156   6.063  11.876
 2508W        W 6233   7.496   8.983   8.944
 2509W        W 6234   8.904   3.288   8.977
 2510W        W 6235   0.808   7.513  10.466
 2511W        W 6236   0.335   1.721  10.446
 2512W        W 6237   0.851   8.872   1.372
 2513W        W 6238   9.999   8.032   9.369
 2514W        W 6239   7.100   2.688  10.976
 2515W        W 6240   2.844   0.419   1.335
 2516W        W 6241   2.306   7.154   9.563
 2517W        W 6242   3.763   7.934   1.779
 2518W        W 6243   5.492   4.283   3.227
 2519W        W 6244   9.988   2.385  11.973
 2520W        W 6245   3.286   0.421   1.840
 2521W        W 6246   7.633   3.590  10.357
 2522W        W 6247   4.069   3.703  11.419
 2523W        W 6248  10.429   6.193   2.169
 2524W        W 6249   0.735   6.565  10.416
 2525W        W 6250   7.956   2.264   2.778
 2526W        W 6251   9.426   3.192   1.303
 2527W        W 6252   3.737   1.270   0.775
 2528W        W 6253   4.613   8.012   3.723
 2529W        W 6254   1.239   5.045  10.383
 2530W        W 6255   5.582   9.865   1.218
 2531W        W 6256   0.880   7.558   2.331
 2532W        W 6257   8.105  10.003  11.018
 2533W        W 6258   9.490   7.526  10.059
 2534W        W 6259   5.527   4.219   8.936
 2535W        W 6260   8.007   1.714   1.892
 2536W        W 6261   8.003   7.088   0.929
 2537W        W 6262   7.961   0.393   2.818
 2538W        W 6263   9.540   2.803   0.242
 2539W        W 6264   2.296   7.493   1.761
 2540W        W 6265   4.128   8.484   0.932
 2541W        W 6266   8.958   6.130  10.993
 2542W        W 6267  10.006   9.990   3.829
 2543W        W 6268   9.987   4.665   1.850
 2544W        W 6269   2.242   5.159   1.277
 2545W        W 6270   9.912   4.581  11.993
 2546W        W 6271   8.077   2.344   1.388
 2547W        W 6272   8.936   3.789   9.032
 2548W        W 6273   6.011   2.737   1.213
 2549W        W 6274  10.415   1.258  10.008
 2550W        W 6275  10.343   2.162   1.874
 2551W        W 6276   6.564   2.640   2.713
 2552W        W 6277   8.367   7.150   8.885
 2553W        W 6278   9.952  10.361   2.753
 2554W        W 6279   0.950   6.488   1.257
 2555W        W 6280   3.246   0.360  10.080
 2556W        W 6281   2.301   2.729   3.318
 2557W        W 6282   4.230   5.168   0.458
 2558W        W 6283   6.050   7.025   8.990
 2559W        W 6284   2.810   4.245   9.882
 2560W        W 6285   3.292   9.808   9.976
 2561W        W 6286   6.058   6.580  11.456
 2562W        W 6287   8.027   4.128  11.972
 2563W        W 6288   7.015   5.491   1.334
 2564W        W 6289   0.946   8.997   9.425
 2565W        W 6290   5.185   0.245   1.840
 2566W        W 6291   6.201   1.197  10.070
 2567W        W 6292   7.944   5.518   1.871
 2568W        W 6293   7.412   8.029   3.279
 2569W        W 6294   5.551   7.571   3.744
 2570W        W 6295   7.134   6.126  11.912
 2571W        W 6296   1.842   4.238   9.910
 2572W        W 6297   5.105   2.855   8.626
 2573W        W 6298   3.196   3.222   2.875
 2574W        W 6299   9.377   9.413   3.166
 2575W        W 6300   6.166   5.133   2.371
 2576W        W 6301   4.768   7.607  11.458
 2577W        W 6302   8.995   4.619  10.999
 2578W        W 6303   8.586   9.348  11.019
 2579W        W 6304   6.134   3.268   9.916
 2580W        W 6305  10.458   0.281   3.351
 2581W        W 6306   3.608   2.256   8.921
 2582W        W 6307   7.888   9.365  11.444
 2583W        W 6308   4.607   8.387   0.469
 2584W        W 6309   8.836   1.359   1.355
 2585W        W 6310   7.115   0.804  10.927
 2586W        W 6311   4.614   6.617   8.954
 2587W        W 6312   9.037   3.301   1.870
 2588W        W 6313   8.469   7.558   0.291
 2589W        W 6314   4.553   9.042  10.037
 2590W        W 6315   1.729   6.481   3.229
 2591W        W 6316   5.203   1.422   2.228
 2592W        W 6317   3.714   8.434  11.028
 2593W        W 6318   5.683   1.729   0.268
 2594W        W 6319   3.714   7.489  10.022
 2595W        W 6320   5.599   5.083   1.375
 2596W        W 6321   9.351   8.017   1.865
 2597W        W 6322   7.120   1.397   9.888
 2598W        W 6323   8.461   6.664   9.947
 2599W        W 6324   9.965   9.863   2.665
 2600W        W 6325   4.095   1.689  11.357
 2601W        W 6326   0.943   6.171   9.944
 2602W        W 6327   1.298   8.584  11.026
 2603W        W 6328   3.282   1.331  10.517
 2604W        W 6329  10.420  10.456  10.021
 2605W        W 6330   2.727   4.688   3.195
 2606W        W 6331   5.654   0.944  10.492
 2607W        W 6332   0.732   4.261   1.823
 2608W        W 6333   6.128   7.579   9.537
 2609W        W 6334   0.900   4.654   8.560
 2610W        W 6335   4.714   8.426  11.433
 2611W        W 6336   2.185   3.264  10.953
 2612W        W 6337   6.487   8.523   1.821
 2613W        W 6338   0.316   5.712   9.927
 2614W        W 6339   9.912   5.113   0.398
 2615W        W 6340   9.945   2.792  11.882
 2616W        W 6341   4.166   9.320  11.851
 2617W        W 6342   1.900   3.628  10.453
 2618W        W 6343   0.477   0.448   0.248
 2619W        W 6344   1.876   5.554   8.885
 2620W        W 6345  10.373   2.796  11.984
 2621W        W 6346   5.720   2.177  10.012
 2622W        W 6347   6.607   3.139   1.717
 2623W        W 6348   6.472   4.197  10.341
 2624W        W 6349   7.491   2.355   8.941
 2625W        W 6350   6.510  10.463   9.899
 2626W        W 6351   2.309   9.480   9.361
 2627W        W 6352   4.566   6.502   1.226
 2628W        W 6353   3.723  10.428  10.381
 2629W        W 6354   3.131   5.496   3.141
 2630W        W 6355   6.119  10.306   3.166
 2631W        W 6356   9.534   3.216   2.671
 2632W        W 6357   7.935   1.887   8.899
 2633W        W 6358   8.931   9.340  10.001
 2634W        W 6359   9.404   2.204   1.779
 2635W        W 6360   8.504   0.395   9.061
 2636W        W 6361   5.141   9.385   9.923
 2637W        W 6362   6.933   2.169   3.136
 2638W        W 6363   7.942   3.772  11.515
 2639W        W 6364   1.250   1.358  11.311
 2640W        W 6365   7.054   5.078  11.910
 2641W        W 6366   8.539   6.960   1.265
 2642W        W 6367   4.260   6.523   0.937
 2643W        W 6368   2.758   9.932   9.852
 2644W        W 6369   5.505   7.596   1.713
 2645W        W 6370   6.978   5.592  10.324
 2646W        W 6371   8.414   0.854   8.936
 2647W        W 6372   7.063   9.365   9.412
 2648W        W 6373   6.055   1.826  11.287
 2649W        W 6374   7.514   5.229  10.460
 2650W        W 6375   1.905  10.006   0.740
 2651W        W 6376  10.009   9.371  11.815
 2652W        W 6377   4.734   0.825  10.435
 2653W        W 6378   9.796   9.367  10.803
 2654W        W 6379   9.347   1.772   2.311
 2655W        W 6380   9.388   0.368   8.975
 2656W        W 6381   5.217   1.684  10.364
 2657W        W 6382   2.643   9.307   2.381
 2658W        W 6383   1.394   0.954   0.798
 2659W        W 6384   6.065   3.108   8.923
 2660W        W 6385   6.583  10.427  11.493
 2661W        W 6386   7.151   8.441  10.878
 2662W        W 6387   0.436   2.826   9.932
 2663W        W 6388   2.297   9.543   0.766
 2664W        W 6389   0.298   7.506  10.936
 2665W        W 6390   3.650   0.351   2.165
 2666W        W 6391   5.205   5.012  11.868
 2667W        W 6392   3.644   6.518   9.547
 2668W        W 6393   9.941   6.498   9.572
 2669W        W 6394  10.496   3.110   0.750
 2670W        W 6395   9.348   9.803  10.894
 2671W        W 6396   2.157  10.427  10.429
 2672W        W 6397   0.266   3.316  10.864
 2673W        W 6398   5.978   1.282   2.679
 2674W        W 6399   2.751   5.984   1.437
 2675W        W 6400   5.612  10.436   0.857
 2676W        W 6401   9.059   4.549   2.821
 2677W        W 6402   8.521   4.270   2.831
 2678W        W 6403   3.644   6.962   9.953
 2679W        W 6404   5.242   6.587   9.936
 2680W        W 6405   6.183   7.933  12.000
 2681W        W 6406   7.504   4.083   2.648
 2682W        W 6407   6.059   1.306   0.429
 2683W        W 6408   4.676   8.454   2.285
 2684W        W 6409   6.984   4.574   1.902
 2685W        W 6410   8.374   7.558   3.754
 2686W        W 6411   8.407   3.289   0.474
 2687W        W 6412   5.621   6.669  10.417
 2688W        W 6413   6.479   8.036   8.886
 2689W        W 6414   9.412   4.170   1.717
 2690W        W 6415   4.562   3.287   1.220
 2691W        W 6416   4.180   7.958  10.976
 2692W        W 6417   9.440   6.455   2.797
 2693W        W 6418   1.843   1.875   0.877
 2694W        W 6419   9.813   8.854   1.831
 2695W        W 6420   7.107   8.409   8.479
 2696W        W 6421  10.473   2.733  11.449
 2697W        W 6422   1.753   0.391   0.416
 2698W        W 6423   9.045   5.632   1.792
 2699W        W 6424   0.468   1.395  11.824
 2700W        W 6425   1.792   4.270   2.693
 2701W        W 6426   8.493   4.723   1.688
 2702W        W 6427   6.528   4.585  10.510
 2703W        W 6428   6.565   3.162  11.483
 2704W        W 6429   7.506   0.447   1.262
 2705W        W 6430   9.813   8.949  10.429
 2706W        W 6431  10.476   2.806  10.987
 2707W        W 6432   4.649   5.523   0.425
 2708W        W 6433   1.427   6.186   1.798
 2709W        W 6434   2.313   1.318   0.767
 2710W        W 6435   3.730   1.857   9.576
 2711W        W 6436   9.326   1.700   2.740
 2712W        W 6437   8.422   5.643  11.488
 2713W        W 6438   9.801   1.723   8.943
 2714W        W 6439   0.414   5.076   8.913
 2715W        W 6440   0.274   5.227  10.870
 2716W        W 6441   5.970   7.596   4.127
 2717W        W 6442   8.376   7.482   1.314
 2718W        W 6443   9.331   7.999   9.983
 2719W        W 6444   0.860   7.409   2.748
 2720W        W 6445   4.265   8.884   1.714
 2721W        W 6446   8.942   0.428   1.906
 2722W        W 6447   0.849   9.530   9.856
 2723W        W 6448   5.069   4.255   3.250
 2724W        W 6449   7.596   5.503  11.479
 2725W        W 6450   1.345   4.249  10.525
 2726W        W 6451   2.344   2.771  11.899
 2727W        W 6452   4.603   6.616   0.423
 2728W        W 6453   0.256   9.873   1.251
 2729W        W 6454   2.353   6.985   3.310
 2730W        W 6455   9.934   6.512  11.982
 2731W        W 6456   7.887   8.572   9.526
 2732W        W 6457   7.635   4.645   2.340
 2733W        W 6458   4.162   4.270   9.851
 2734W        W 6459   5.620   9.311   9.960
 2735W        W 6460   8.545   9.362  11.433
 2736W        W 6461   3.177   1.271   0.376
 2737W        W 6462   9.544   6.160  11.338
 2738W        W 6463   9.392   0.839   9.587
 2739W        W 6464   8.570   3.190  10.509
 2740W        W 6465   1.698   0.786  10.438
 2741W        W 6466   3.277   7.007   0.888
 2742W        W 6467   1.236   5.711  11.943
 2743W        W 6468   8.893   7.054   0.937
 2744W        W 6469   0.322   0.249  10.444
 2745W        W 6470   8.394   4.634  11.773
 2746W        W 6471   2.697   9.868   1.833
 2747W        W 6472   7.534   5.186   8.433
 2748W        W 6473  10.467   5.230  11.464
 2749W        W 6474   7.507   7.071   8.889
 2750W        W 6475   2.165  10.280   2.350
 2751W        W 6476   8.488   7.504  10.021
 2752W        W 6477   1.731   6.179   1.781
 2753W        W 6478   6.198   0.761   2.711
 2754W        W 6479   3.134   9.446   2.727
 2755W        W 6480   6.051   4.583   0.892
 2756W        W 6481   0.461  10.274   0.410
 2757W        W 6482   5.992   1.699   1.849
 2758W        W 6483   1.753   8.476   9.106
 2759W        W 6484   6.494  10.300  10.888
 2760W        W 6485   9.363   2.302   0.726
 2761W        W 6486   3.110   0.848  10.452
 2762W        W 6487   1.260   0.845   2.285
 2763W        W 6488   8.928   7.937   9.918
 2764W        W 6489   6.080   4.186  10.885
 2765W        W 6490   3.759   7.602  11.334
 2766W        W 6491   0.467   1.901  11.866
 2767W        W 6492   7.952   3.309   9.120
 2768W        W 6493   7.059   9.386   0.883
 2769W        W 6494   7.559   0.371   2.876
 2770W        W 6495  10.415   4.555  10.024
 2771W        W 6496   9.544   9.415  10.059
 2772W        W 6497   7.410   0.284  11.496
 2773W        W 6498   7.921   7.016   1.239
 2774W        W 6499  10.383   1.314  11.019
 2775W        W 6500   5.134   1.396  10.343
 2776W        W 6501   3.202  10.404   9.008
 2777W        W 6502   0.941   7.096   8.619
 2778W        W 6503   7.041   8.855   0.750
 2779W        W 6504   2.239   8.965   1.414
 2780W        W 6505  10.405   6.167   3.357
 2781W        W 6506   0.379   0.755  11.886
 2782W        W 6507  10.317   4.151  10.877
 2783W        W 6508   8.447   2.651   1.249
 2784W        W 6509   8.376   0.272   9.853
 2785W        W 6510   0.735   7.441   9.383
 2786W        W 6511   8.379   5.608   1.751
 2787W        W 6512   8.894   4.293   8.965
 2788W        W 6513   0.951   3.773   9.388
 2789W        W 6514   6.152   4.131   2.168
 2790W        W 6515   8.562   6.476  11.347
 2791W        W 6516   2.788   4.716  11.460
 2792W        W 6517   9.889   6.941   1.725
 2793W        W 6518   8.387   9.452   0.384
 2794W        W 6519   3.282   3.318  10.006
 2795W        W 6520  10.496   6.188   1.218
 2796W        W 6521   1.841   8.446   0.322
 2797W        W 6522  10.435   6.537   1.405
 2798W        W 6523   7.053   5.206   9.911
 2799W        W 6524   2.761   6.181   0.916
 2800W        W 6525   7.400   6.121  10.877
 2801W        W 6526   6.071   9.901   1.232
 2802W        W 6527   8.975   1.835   2.851
 2803W        W 6528   8.508   5.128   1.857
 2804W        W 6529   0.395   8.560   2.714
 2805W        W 6530   8.451   9.925  11.391
 2806W        W 6531   5.622   7.046   8.900
 2807W        W 6532   7.061   1.737  10.075
 2808W        W 6533   6.189   8.519  10.552
 2809W        W 6534   1.682   6.160   3.806
 2810W        W 6535   6.084   4.173   3.314
 2811W        W 6536   6.929   0.857   0.880
 2812W        W 6537   2.350   8.391   0.344
 2813W        W 6538   9.870   6.075   1.715
 2814W        W 6539   8.471   9.009   3.316
 2815W        W 6540   8.371   2.785  10.543
 2816W        W 6541   3.273   3.594   8.628
 2817W        W 6542   3.121   2.309  10.914
 2818W        W 6543   8.836   1.251   8.892
 2819W        W 6544   8.868   7.083   1.793
 2820W        W 6545   0.347   3.130  10.483
 2821W        W 6546  10.416   8.470   2.352
 2822W        W 6547   2.256   6.529  11.477
 2823W        W 6548  10.391   6.040   9.448
 2824W        W 6549   3.275   2.256  11.967
 2825W        W 6550   3.743   3.221   0.263
 2826W        W 6551   5.576   3.217  11.918
 2827W        W 6552   8.377   8.523   2.773
 2828W        W 6553   9.042  10.401   8.932
 2829W        W 6554   1.705   8.000   1.719
 2830W        W 6555   5.016   9.487   3.184
 2831W        W 6556   3.802   2.181   9.935
 2832W        W 6557   4.601   8.048   0.473
 2833W        W 6558   8.048   1.891  10.507
 2834W        W 6559   9.845   0.265  10.402
 2835W        W 6560   9.890   0.864  10.012
 2836W        W 6561   6.016   2.857   8.565
 2837W        W 6562   8.072   8.906   1.235
 2838W        W 6563   1.198   4.068   3.245
 2839W        W 6564   6.041  10.459   0.291
 2840W        W 6565   9.939   7.537   9.999
 2841W        W 6566   1.364   8.930   0.784
 2842W        W 6567   8.369  10.414   0.748
 2843W        W 6568   3.116   5.235   1.422
 2844W        W 6569   1.858   3.617   1.885
 2845W        W 6570   8.539   6.052   1.900
 2846W        W 6571  10.473   0.378   0.367
 2847W        W 6572  10.377   0.753   8.518
 2848W        W 6573   7.440   0.880  10.362
 2849W        W 6574   8.032   6.173   0.944
 2850W        W 6575   4.226   8.926   1.350
 2851W        W 6576   9.966   2.644   0.899
 2852W        W 6577   9.417   8.887   0.285
 2853W        W 6578   0.900   5.066   9.525
 2854W        W 6579   6.061   8.836   9.862
 2855W        W 6580   9.392   2.232   0.324
 2856W        W 6581   7.944   6.194   8.889
 2857W        W 6582   7.155   5.547  10.807
 2858W        W 6583   8.511   5.503   3.688
 2859W        W 6584   0.287   9.821  11.904
 2860W        W 6585   9.458   5.679   9.585
 2861W        W 6586   3.191   1.203   9.098
 2862W        W 6587   0.927   4.605   1.811
 2863W        W 6588   8.519   5.976   3.144
 2864W        W 6589   9.503   6.499   9.475
 2865W        W 6590   6.942  10.464   0.412
 2866W        W 6591  10.463   0.764   2.210
 2867W        W 6592   6.521   8.034  11.873
 2868W        W 6593   5.121   1.237  11.412
 2869W        W 6594   6.000   8.952   2.689
 2870W        W 6595   1.315   0.936   9.940
 2871W        W 6596   7.929   2.224   2.341
 2872W        W 6597   0.871   6.092   0.264
 2873W        W 6598   8.583  10.455   0.460
 2874W        W 6599   4.560   9.064   9.567
 2875W        W 6600   5.696   3.173   0.410
 2876W        W 6601   1.802   6.674  11.440
 2877W        W 6602   4.171   6.618   0.328
 2878W        W 6603   3.236   9.908  11.954
 2879W        W 6604   2.666   4.062  10.435
 2880W        W 6605   5.224   8.473   3.757
 2881W        W 6606   0.472   8.864   1.737
 2882W        W 6607   1.277   1.905  11.860
 2883W        W 6608   0.336   7.024   2.848
 2884W        W 6609   3.260   1.850   9.868
 2885W        W 6610   7.125   0.247   9.999
 2886W        W 6611   4.595   3.337  10.437
 2887W        W 6612   4.617   9.392   9.457
 2888W        W 6613   8.362   4.235   3.297
 2889W        W 6614   8.516   3.769  11.991
 2890W        W 6615   9.417   1.826   3.294
 2891W        W 6616   3.132   2.840   0.941
 2892W        W 6617   1.360  10.329   9.421
 2893W        W 6618   6.548   5.621   0.844
 2894W        W 6619   4.197   6.007  11.470
 2895W        W 6620   7.979   8.054  10.937
 2896W        W 6621   1.321   4.663  11.842
 2897W        W 6622   1.833   9.981   1.324
 2898W        W 6623   3.189   9.057  11.761
 2899W        W 6624   8.852   9.517   0.369
 2900W        W 6625   4.164   7.533   9.920
 2901W        W 6626   8.423   1.261  10.409
 2902W        W 6627   3.129  10.492   2.296
 2903W        W 6628   0.260   7.117   1.760
 2904W        W 6629   9.396   9.347   1.732
 2905W        W 6630   7.424  10.362   1.244
 2906W        W 6631   1.335   8.435   1.693
 2907W        W 6632   5.056   8.501   9.367
 2908W        W 6633   4.705   9.046  11.811
 2909W        W 6634   1.319   9.442   1.256
 2910W        W 6635   2.848   9.385   9.413
 2911W        W 6636   6.076   7.932   8.946
 2912W        W 6637   7.906   9.881  10.504
 2913W        W 6638   6.172   4.265   0.740
 2914W        W 6639   3.294   0.244  10.437
 2915W        W 6640   8.503   2.325   1.771
 2916W        W 6641   4.561   2.823   1.882
 2917W        W 6642  10.302   5.124   0.343
 2918W        W 6643   6.644   1.802  10.420
 2919W        W 6644   2.290   2.219   1.238
 2920W        W 6645   8.469   6.963  11.787
 2921W        W 6646   7.146   6.546  10.377
 2922W        W 6647   7.883   5.082  10.945
 2923W        W 6648   8.923   5.722   1.409
 2924W        W 6649   4.141   4.610  11.467
 2925W        W 6650   6.043   5.087   9.401
 2926W        W 6651   9.870   4.205  11.430
 2927W        W 6652   4.243   3.173   9.946
 2928W        W 6653   1.381   4.584  11.038
 2929W        W 6654   2.289   4.287   3.171
 2930W        W 6655   7.144   6.941  11.328
 2931W        W 6656   5.637   4.218   2.689
 2932W        W 6657   2.848   9.361   0.899
 2933W        W 6658   3.223   4.693   0.874
 2934W        W 6659  10.336   3.629   1.298
 2935W        W 6660   5.087   8.475   2.253
 2936W        W 6661   5.036   0.415   0.301
 2937W        W 6662   8.040   3.642   8.058
 2938W        W 6663   8.021   7.081   3.321
 2939W        W 6664   2.757   9.347   9.962
 2940W        W 6665  10.451   5.974  10.826
 2941W        W 6666   9.801   5.630   2.712
 2942W        W 6667   5.161   7.515   9.554
 2943W        W 6668   3.676   4.080   9.400
 2944W        W 6669   1.283  10.309  11.790
 2945W        W 6670   1.706  10.297   0.387
 2946W        W 6671  10.493   7.443  10.056
 2947W        W 6672   7.537   6.452   8.949
 2948W        W 6673   8.400   5.582   1.370
 2949W        W 6674   4.678   6.110  11.965
 2950W        W 6675   3.230   4.655  11.008
 2951W        W 6676   9.891   1.382   9.363
 2952W        W 6677   0.405   5.026  10.386
 2953W        W 6678   0.783   1.799  10.907
 2954W        W 6679   1.701   7.453   1.690
 2955W        W 6680   0.250   0.391  10.828
 2956W        W 6681   7.057   5.132   0.732
 2957W        W 6682   6.943   8.856   1.896
 2958W        W 6683   4.760   8.396   9.394
 2959W        W 6684   7.519   4.560   1.212
 2960W        W 6685   4.222   8.549   0.392
 2961W        W 6686   5.071   3.327  11.968
 2962W        W 6687   4.752   6.032   1.687
 2963W        W 6688   8.522   8.070   9.490
 2964W        W 6689  10.441   4.621  10.534
 2965W        W 6690   6.621   2.212  10.557
 2966W        W 6691   0.473   8.034   0.723
 2967W        W 6692   9.886   0.255  11.416
 2968W        W 6693   8.541   7.488  10.466
 2969W        W 6694   1.346   5.063  11.932
 2970W        W 6695   6.629   3.676   2.176
 2971W        W 6696   5.147   7.458   2.650
 2972W        W 6697   3.691   1.316  11.979
 2973W        W 6698   2.375   6.613   0.380
 2974W        W 6699   5.722   8.045   2.335
 2975W        W 6700   5.018   8.398  11.903
 2976W        W 6701   0.354   1.272   3.187
 2977W        W 6702   5.995   2.177   9.930
 2978W        W 6703   7.980   5.646   2.381
 2979W        W 6704   4.249   4.668   0.439
 2980W        W 6705   1.223   2.845   1.689
 2981W        W 6706   0.370   4.194   3.233
 2982W        W 6707   5.027   3.802  11.375
 2983W        W 6708   1.867   8.469  10.557
 2984W        W 6709   5.521   2.184  10.536
 2985W        W 6710   8.980   1.238   9.516
 2986W        W 6711   9.315   8.033  10.809
 2987W        W 6712   7.929   6.158   3.814
 2988W        W 6713   4.278   2.221  10.348
 2989W        W 6714   0.814   8.472   1.232
 2990W        W 6715   8.426   5.195   0.914
 2991W        W 6716   9.028   1.902   8.422
 2992W        W 6717   4.098   3.210  10.949
 2993W        W 6718   4.205   6.113  10.066
 2994W        W 6719   2.373   8.004   8.921
 2995W        W 6720   0.339   4.560   3.329
 2996W        W 6721   1.748   9.380   2.371
 2997W        W 6722   3.710   1.309   9.921
 2998W        W 6723   9.805   8.431   3.133
 2999W        W 6724   0.835   3.339   9.489
 3000W        W 6725   7.116   4.112   1.253
 3001W        W 6726   0.840   2.647   9.438
 3002W        W 6727   5.012   4.236   2.767
 3003W        W 6728   2.842   7.140   0.745
 3004W        W 6729   3.799   6.924   0.753
 3005W        W 6730   8.970   4.573   9.489
 3006W        W 6731   3.615   5.679   9.466
 3007W        W 6732   5.581   4.287   8.629
 3008W        W 6733   7.924   2.768   3.189
 3009W        W 6734   1.673   1.883  10.477
 3010W        W 6735   3.627   7.082  11.446
 3011W        W 6736   8.557   2.309   3.218
 3012W        W 6737   7.051   0.462  11.356
 3013W        W 6738   2.257   8.413  10.323
 3014W        W 6739   1.750   3.675   0.356
 3015W        W 6740   3.307   6.475   8.912
 3016W        W 6741  10.312   4.226  11.329
 3017W        W 6742   5.081   2.240   3.621
 3018W        W 6743   4.226   3.255   3.312
 3019W        W 6744   3.643   6.019  11.860
 3020W        W 6745   9.444   4.214   0.900
 3021W        W 6746   6.178   5.613   0.354
 3022W        W 6747   0.807   3.333  11.786
 3023W        W 6748   2.834   5.079   1.229
 3024W        W 6749   0.798   7.134  10.892
 3025W        W 6750   3.282   5.971   9.934
 3026W        W 6751   8.463   1.895   1.894
 3027W        W 6752   6.649   9.952   1.793
 3028W        W 6753   6.980  10.435  10.038
 3029W        W 6754   5.070   9.309  11.944
 3030W        W 6755   4.190   7.028   1.918
 3031W        W 6756   8.040   9.469   0.938
 3032W        W 6757   7.114   8.515   8.987
 3033W        W 6758   9.961   5.669   0.393
 3034W        W 6759  10.329   3.331   8.579
 3035W        W 6760   1.227   3.215   3.228
 3036W        W 6761   4.220   5.994   1.413
 3037W        W 6762   4.566   7.480   0.472
 3038W        W 6763   0.895   5.714   9.066
 3039W        W 6764   5.720   0.400  10.988
 3040W        W 6765   5.508   0.887  11.842
 3041W        W 6766   7.978   9.038   9.102
 3042W        W 6767   6.141  10.384   8.908
 3043W        W 6768   1.309   0.260   0.342
 3044W        W 6769   9.878   1.257   1.269
 3045W        W 6770   8.544   5.028   2.312
 3046W        W 6771   2.642   6.016   3.237
 3047W        W 6772   4.635   3.122   9.482
 3048W        W 6773   9.810   5.065   1.244
 3049W        W 6774   5.095   0.475   0.898
 3050W        W 6775   2.757   1.892   8.980
 3051W        W 6776   5.094   5.584  10.978
 3052W        W 6777   2.635   3.320   2.698
 3053W        W 6778   9.485   2.371   3.208
 3054W        W 6779   8.918   6.656   9.516
 3055W        W 6780   1.373   9.432   0.251
 3056W        W 6781   6.538   9.986   0.246
 3057W        W 6782   4.730   4.539  11.837
 3058W        W 6783   1.857   6.033   1.235
 3059W        W 6784   6.023   8.993   9.539
 3060W        W 6785   7.560   9.318   9.437
 3061W        W 6786   3.774   7.104   1.209
 3062W        W 6787   6.955   4.127   0.862
 3063W        W 6788   8.072   5.053   2.286
 3064W        W 6789   8.582   0.273  10.523
 3065W        W 6790   6.539   4.071  10.909
 3066W        W 6791   4.677   0.904   8.411
 3067W        W 6792   8.916   1.829  11.774
 3068W        W 6793  10.381   7.430   3.169
 3069W        W 6794   3.194   4.700   3.343
 3070W        W 6795   6.020   3.602   3.221
 3071W        W 6796   1.311   7.500  10.872
 3072W        W 6797   0.249   2.286  11.873
 3073W        W 6798   4.693   9.413   1.349
 3074W        W 6799   7.971   3.111  11.323
 3075W        W 6800   5.102   7.523   9.006
 3076W        W 6801   2.295  10.344   1.213
 3077W        W 6802   1.892   5.228   1.713
 3078W        W 6803   9.037   5.155  11.024
 3079W        W 6804   4.563   2.842   0.941
 3080W        W 6805   1.862   3.125  11.407
 3081W        W 6806   3.712   6.023  11.472
 3082W        W 6807  10.405   1.799   9.507
 3083W        W 6808   1.352   3.714  10.547
 3084W        W 6809   9.430   5.689   9.933
 3085W        W 6810   9.896   5.580   3.138
 3086W        W 6811   6.675   6.132   2.345
 3087W        W 6812   3.597   6.967   8.930
 3088W        W 6813   3.287   6.621  11.443
 3089W        W 6814   1.797   5.120   8.931
 3090W        W 6815   2.655   3.786  10.000
 3091W        W 6816   7.908   9.802   8.931
 3092W        W 6817   4.223   8.504  10.428
 3093W        W 6818   0.744   8.029  10.958
 3094W        W 6819  10.459   7.031   9.888
 3095W        W 6820   4.290   9.398   1.373
 3096W        W 6821   2.342   0.260  11.418
 3097W        W 6822   8.059   2.767   1.272
 3098W        W 6823   2.217   8.494   1.786
 3099W        W 6824   1.245   1.237  10.414
 3100W        W 6825   7.581   6.502   2.217
 3101W        W 6826   7.452   0.818   8.615
 3102W        W 6827   6.453   1.733   1.290
 3103W        W 6828   0.471   6.988   9.551
 3104W        W 6829   2.722   1.321   9.561
 3105W        W 6830   7.630   4.064   0.306
 3106W        W 6831   2.708   2.848   9.057
 3107W        W 6832   4.652   0.853   3.288
 3108W        W 6833   7.591   5.553   0.284
 3109W        W 6834   3.171   7.406   9.920
 3110W        W 6835   4.741   0.374   8.960
 3111W        W 6836   0.329   9.335   9.002
 3112W        W 6837   3.721   8.368  11.357
 3113W        W 6838   6.470  10.480   0.862
 3114W        W 6839  10.326   5.061   9.396
 3115W        W 6840   2.655   1.232   0.352
 3116W        W 6841   7.117   7.518  10.039
 3117W        W 6842   3.680   6.588   2.722
 3118W        W 6843   3.217   1.901   1.211
 3119W        W 6844   7.521   0.290   0.368
 3120W        W 6845   6.551   5.573   9.452
 3121W        W 6846   8.974   5.644   2.170
 3122W        W 6847   4.551   9.928   3.131
 3123W        W 6848   5.969   7.450  11.437
 3124W        W 6849   6.606   3.581  10.352
 3125W        W 6850   9.442   1.322   3.255
 3126W        W 6851   6.577   2.755  11.824
 3127W        W 6852   3.159   5.969  10.989
 3128W        W 6853   7.428  10.400   9.431
 3129W        W 6854   1.703   4.595   2.329
 3130W        W 6855   5.662   5.653  10.077
 3131W        W 6856   6.641   6.579   2.674
 3132W        W 6857   3.650  10.360   9.400
 3133W        W 6858   8.475   8.969   2.698
 3134W        W 6859   0.440   0.360   3.694
 3135W        W 6860   9.417   4.680   8.964
 3136W        W 6861   4.059   2.853   3.246
 3137W        W 6862   2.196   9.050   0.798
 3138W        W 6863   2.306   1.709   8.900
 3139W        W 6864   2.763   9.445  10.956
 3140W        W 6865   1.354   9.927   8.940
 3141W        W 6866   9.061   7.495   1.723
 3142W        W 6867   7.611   1.254   3.316
 3143W        W 6868   9.063   2.343   9.000
 3144W        W 6869   0.831   6.585   9.512
 3145W        W 6870  10.304  10.448  10.853
 3146W        W 6871   9.872   7.104   2.241
 3147W        W 6872   2.635   7.498   1.839
 3148W        W 6873   6.110   2.741   9.020
 3149W        W 6874   2.675   9.392   0.277
 3150W        W 6875   4.112   8.085   2.394
 3151W        W 6876   9.920   3.292   2.789
 3152W        W 6877   3.635   9.406  10.858
 3153W        W 6878   0.376   4.632  11.418
 3154W        W 6879   6.585   4.689   9.876
 3155W        W 6880   7.521  10.425   1.760
 3156W        W 6881   0.309   0.401  11.788
 3157W        W 6882   6.589   3.219  10.924
 3158W        W 6883  10.494   9.354   0.927
 3159W        W 6884   8.513   8.389   9.542
 3160W        W 6885   3.583   6.654  10.056
 3161W        W 6886   7.521   5.628   1.729
 3162W        W 6887   1.316   8.560   8.566
 3163W        W 6888   8.429   1.774  11.282
 3164W        W 6889   1.688   3.649  11.515
 3165W        W 6890   6.109   1.366  11.909
 3166W        W 6891   2.749   7.049   2.315
 3167W        W 6892  10.314   1.754  10.442
 3168W        W 6893   7.007   6.137   8.530
 3169W        W 6894   8.986   7.065  10.327
 3170W        W 6895   0.849   6.932   1.769
 3171W        W 6896   7.520  10.332   0.351
 3172W        W 6897   5.618   3.682   8.406
 3173W        W 6898   9.544  10.455  10.324
 3174W        W 6899   2.351   7.881   2.312
 3175W        W 6900   1.795   8.515   2.175
 3176W        W 6901   7.884   2.772  11.940
 3177W        W 6902   4.554   5.205  10.468
 3178W        W 6903  10.398   0.792  10.925
 3179W        W 6904   9.785   4.567   0.823
 3180W        W 6905   0.937   6.569   0.755
 3181W        W 6906   7.445   9.539  10.453
 3182W        W 6907   5.079  10.477   1.830
 3183W        W 6908  10.438   6.503   1.865
 3184W        W 6909   3.265   1.855  11.999
 3185W        W 6910   4.600   3.152   8.917
 3186W        W 6911   7.534   0.905   1.344
 3187W        W 6912   5.664   2.727  10.929
 3188W        W 6913   3.228   6.000   2.825
 3189W        W 6914   6.446   8.908   0.295
 3190W        W 6915   6.029   4.195  10.545
 3191W        W 6916   2.248   8.083   1.869
 3192W        W 6917   7.454   9.908  11.921
 3193W        W 6918   5.011   5.529   1.207
 3194W        W 6919   4.066   1.284  10.012
 3195W        W 6920   3.779   5.248   2.757
 3196W        W 6921   6.190   0.459   9.463
 3197W        W 6922   4.097   1.299   9.018
 3198W        W 6923   5.143   2.744   0.777
 3199W        W 6924   0.849   8.486  10.066
 3200W        W 6925  10.393   7.921   9.008
 3201W        W 6926   2.193   5.640   9.402
 3202W        W 6927   0.866   0.858   9.522
 3203W        W 6928   2.736   4.078   0.352
 3204W        W 6929   5.670   7.890  10.405
 3205W        W 6930   7.122   3.237   2.797
 3206W        W 6931   3.282   4.727  10.488
 3207W        W 6932   6.958   5.184  11.441
 3208W        W 6933   0.411   3.631  10.848
 3209W        W 6934   9.968   1.429   9.921
 3210W        W 6935   6.046   5.666   9.977
 3211W        W 6936   6.109   5.095   1.706
 3212W        W 6937   8.921   8.113  11.809
 3213W        W 6938   8.353   8.531   1.869
 3214W        W 6939   6.467   1.250   8.892
 3215W        W 6940   2.340   9.881   0.276
 3216W        W 6941   5.016   7.603   0.902
 3217W        W 6942   4.105   6.016   8.573
 3218W        W 6943   8.082   0.246   9.022
 3219W        W 6944   2.824   4.612   1.317
 3220W        W 6945   2.678   4.617   7.971
 3221W        W 6946   2.201   1.286  11.898
 3222W        W 6947   6.071   5.968  10.465
 3223W        W 6948   3.109   4.209  10.391
 3224W        W 6949   3.288   0.331   0.315
 3225W        W 6950   9.831  10.352   0.297
 3226W        W 6951   8.892   8.846   1.294
 3227W        W 6952   7.096   3.767   3.670
 3228W        W 6953   9.335   6.992  10.489
 3229W        W 6954   0.820   8.564  11.868
 3230W        W 6955   4.608   7.119   9.939
 3231W        W 6956   7.959   9.516  11.007
 3232W        W 6957   9.363   7.495   0.349
 3233W        W 6958   3.234   8.423   9.014
 3234W        W 6959   1.728   8.534  11.955
 3235W        W 6960   6.072   9.476   0.456
 3236W        W 6961   4.177   5.211  10.541
 3237W        W 6962   4.700   8.973   1.820
 3238W        W 6963   8.489   5.034   2.754
 3239W        W 6964   0.304   5.527   1.337
 3240W        W 6965   4.245   9.810  11.485
 3241W        W 6966   1.885   3.694   3.835
 3242W        W 6967   0.919   7.514   8.991
 3243W        W 6968   1.230   5.654  10.903
 3244W        W 6969   9.538   6.075   1.233
 3245W        W 6970   4.739  10.455  11.994
 3246W        W 6971   0.918   6.059   1.804
 3247W        W 6972   0.304   9.866  10.988
 3248W        W 6973   7.880  10.396   0.788
 3249W        W 6974   5.643   8.042   9.562
 3250W        W 6975   6.521   5.699   1.699
 3251W        W 6976   9.991   3.639   2.655
 3252W        W 6977   2.817   5.202  11.437
 3253W        W 6978   8.393   9.886  10.031
 3254W        W 6979   9.944   0.461   1.359
 3255W        W 6980   6.533   9.430  10.862
 3256W        W 6981   9.363   5.027   0.284
 3257W        W 6982   0.818   3.772   0.357
 3258W        W 6983   5.139   4.671  10.484
 3259W        W 6984  10.332   8.059  11.306
 3260W        W 6985   6.594   1.222  10.057
 3261W        W 6986   0.828   1.743   0.871
 3262W        W 6987   1.762   6.189   9.466
 3263W        W 6988   6.175   9.333  11.381
 3264W        W 6989  10.365   7.574   9.444
 3265W        W 6990   6.163   3.790   9.061
 3266W        W 6991   3.761   6.119   8.481
 3267W        W 6992   2.710   6.076   1.856
 3268W        W 6993   5.123   7.103   2.367
 3269W        W 6994   7.899   4.241   0.879
 3270W        W 6995   7.928   9.805   2.825
 3271W        W 6996   6.614   6.570   8.420
 3272W        W 6997  10.428   8.910   0.823
 3273W        W 6998   8.886   8.099  10.386
 3274W        W 6999   5.244   0.326   8.959
 3275W        W 7000   0.444   1.805   2.697
 3276W        W 7001   6.051   5.229   2.667
 3277W        W 7002   3.588   7.995   3.186
 3278W        W 7003   2.819   0.355   2.845
 3279W        W 7004   9.385   1.279   1.232
 3280W        W 7005   7.876   3.121  10.007
 3281W        W 7006   8.018   0.874   1.255
 3282W        W 7007   3.205   5.080   2.329
 3283W        W 7008   6.672   0.928   2.764
 3284W        W 7009   5.996   7.927  10.501
 3285W        W 7010   1.728   5.564   3.202
 3286W        W 7011   7.129   5.635  10.052
 3287W        W 7012  10.268   5.086   0.901
 3288W        W 7013   0.857   5.064  11.867
 3289W        W 7014   9.027  10.320   0.352
 3290W        W 7015   8.563   4.572  10.476
 3291W        W 7016   9.877   0.359   3.352
 3292W        W 7017   5.510   8.432   9.557
 3293W        W 7018   9.423   6.650  11.465
 3294W        W 7019   7.877   4.248  10.449
 3295W        W 7020   8.502   6.999   9.365
 3296W        W 7021   7.430   6.060   3.838
 3297W        W 7022   5.595   3.793   2.850
 3298W        W 7023   5.570   5.995   0.326
 3299W        W 7024   3.264   2.677   1.375
 3300W        W 7025   5.185   6.986   8.916
 3301W        W 7026   7.900   4.251   9.416
 3302W        W 7027   2.810   6.573   8.953
 3303W        W 7028   3.771   9.523  11.355
 3304W        W 7029   8.071   0.365  11.317
 3305W        W 7030   7.504   5.588   8.100
 3306W        W 7031   8.411   5.501   9.379
 3307W        W 7032   8.381   0.467   3.797
 3308W        W 7033   2.826   6.649   2.740
 3309W        W 7034   5.503   5.686   3.197
 3310W        W 7035   7.579   0.248   3.356
 3311W        W 7036   3.683   9.038   1.885
 3312W        W 7037   6.521   6.163   9.421
 3313W        W 7038   6.490   8.570   2.372
 3314W        W 7039  10.474   8.492  11.490
 3315W        W 7040   6.130   7.068   7.999
 3316W        W 7041   1.395   2.217  10.519
 3317W        W 7042   7.599   3.256   0.804
 3318W        W 7043   0.780   1.800   2.323
 3319W        W 7044   7.435  10.392  11.515
 3320W        W 7045   6.066   3.254   1.862
 3321W        W 7046   7.908   4.721   9.073
 3322W        W 7047   4.089   9.507   0.286
 3323W        W 7048   9.911   5.538  10.921
 3324W        W 7049   6.507   8.108   2.161
 3325W        W 7050  10.393   7.570  10.921
 3326W        W 7051   1.262   0.333   9.895
 3327W        W 7052   1.692   1.711   9.369
 3328W        W 7053   5.592   1.857   1.901
 3329W        W 7054   3.154   2.724  10.806
 3330W        W 7055   9.985   5.225   2.352
 3331W        W 7056   8.473   9.813   1.732
 3332W        W 7057  10.406   9.851   1.274
 3333W        W 7058   4.278   7.093   2.856
 3334W        W 7059   4.139   6.179   3.608
 3335W        W 7060   4.168   1.254   2.240
 3336W        W 7061   9.927   9.891   0.357
 3337W        W 7062   5.200   4.617   9.398
 3338W        W 7063   2.190  10.491   8.983
 3339W        W 7064   4.612   7.542   8.607
 3340W        W 7065   3.656   7.898   0.728
 3341W        W 7066   7.432   7.498   1.211
 3342W        W 7067   8.356   9.931   3.297
 3343W        W 7068   2.715   5.202   8.928
 3344W        W 7069   6.566   9.333  11.985
 3345W        W 7070   1.809   2.745  10.428
 3346W        W 7071   8.409   0.740   3.274
 3347W        W 7072   8.079   1.264  11.994
 3348W        W 7073   5.536   3.706   0.430
 3349W        W 7074   6.953   4.765   0.955
 3350W        W 7075   2.308   0.259  10.379
 3351W        W 7076   2.855   9.470   3.309
 3352W        W 7077   0.927   0.452   9.924
 3353W        W 7078   9.536   7.409   1.261
 3354W        W 7079  10.485   6.992   0.778
 3355W        W 7080   4.573   7.553   9.057
 3356W        W 7081   0.270   7.881   9.914
 3357W        W 7082   7.897   7.586  10.058
 3358W        W 7083   9.061   0.314   0.385
 3359W        W 7084   8.838   9.399   8.897
 3360W        W 7085   1.757   1.401   0.911
 3361W        W 7086   5.593   3.669   0.837
 3362W        W 7087   7.472   1.898   9.385
 3363W        W 7088   4.179  10.316   3.184
 3364W        W 7089   1.838   2.196   9.104
 3365W        W 7090   3.709   0.374  10.940
 3366W        W 7091   3.672   4.757  11.800
 3367W        W 7092   2.244   1.869  10.456
 3368W        W 7093   1.356   5.082   2.350
 3369W        W 7094   0.854   5.200   8.611
 3370W        W 7095   4.228   3.683  10.939
 3371W        W 7096   0.336   3.327   2.283
 3372W        W 7097   9.028   8.083   2.310
 3373W        W 7098   4.726   8.494   0.749
 3374W        W 7099   3.776   4.629   8.409
 3375W        W 7100   3.263  10.346   0.944
 3376W        W 7101   8.369   5.143   8.989
 3377W        W 7102   2.155   8.507   3.227
 3378W        W 7103   5.080   0.910   1.695
 3379W        W 7104   8.514   6.065   0.414
 3380W        W 7105   5.158   3.315   0.733
 3381W        W 7106   7.146  10.008   2.251
 3382W        W 7107   2.256   9.056   9.885
 3383W        W 7108   0.794   5.227   2.295
 3384W        W 7109   5.567   9.916  11.942
 3385W        W 7110   7.960   3.797   1.436
 3386W        W 7111   5.590   7.452   3.218
 3387W        W 7112   7.148   2.661  10.048
 3388W        W 7113   5.657   4.545   0.319
 3389W        W 7114  10.425   9.439   8.907
 3390W        W 7115   5.116   2.337   9.929
 3391W        W 7116   8.920   2.704   3.183
 3392W        W 7117   4.222   8.578   1.710
 3393W        W 7118   9.853  10.480   3.168
 3394W        W 7119   5.046   7.465   1.321
 3395W        W 7120   1.831   2.655   0.809
 3396W        W 7121   5.706   8.102  10.893
 3397W        W 7122   3.728   0.316  11.511
 3398W        W 7123   6.660   8.420   9.043
 3399W        W 7124   9.467   2.780   0.833
 3400W        W 7125   9.387   9.027  10.439
 3401W        W 7126   6.144   2.386   3.628
 3402W        W 7127   3.685   8.973  10.817
 3403W        W 7128   3.130   7.945   0.431
 3404W        W 7129   4.073   4.123   0.871
 3405W        W 7130   1.372   5.580   0.415
 3406W        W 7131   7.583   8.003   2.839
 3407W        W 7132   5.149   9.879   1.252
 3408W        W 7133   3.292   6.952   8.904
 3409W        W 7134   8.020   5.522   3.135
 3410W        W 7135   9.329   0.365   0.745
 3411W        W 7136   8.879   3.252   9.869
 3412W        W 7137   9.050   9.429  11.377
 3413W        W 7138   5.666   2.853   3.803
 3414W        W 7139   1.700   5.693  10.801
 3415W        W 7140   6.949   4.160  11.420
 3416W        W 7141   4.188   3.811   0.312
 3417W        W 7142   2.357   8.097  11.016
 3418W        W 7143   6.067   7.457   8.549
 3419W        W 7144   1.780   1.232   9.860
 3420W        W 7145   5.536   6.509  11.946
 3421W        W 7146   1.232   7.080  10.367
 3422W        W 7147   8.919   3.643  11.782
 3423W        W 7148   6.197   5.093  11.472
 3424W        W 7149   0.433   7.966  10.374
 3425W        W 7150   7.415   6.546  11.348
 3426W        W 7151   7.957   7.974   2.817
 3427W        W 7152   2.829   0.304   1.766
 3428W        W 7153  10.263   0.278  10.869
 3429W        W 7154   6.480  10.452   2.356
 3430W        W 7155   2.739   5.187   3.832
 3431W        W 7156   8.382  10.338  10.499
 3432W        W 7157   8.955   3.218   8.542
 3433W        W 7158   7.031   3.615   0.469
 3434W        W 7159   8.424   7.984  10.059
 3435W        W 7160   0.777   1.426  10.521
 3436W        W 7161   6.657   9.359   9.484
 3437W        W 7162   1.391   0.405   1.712
 3438W        W 7163   4.248   9.350  11.372
 3439W        W 7164   5.114   7.424  10.447
 3440W        W 7165   7.966   7.001   0.314
 3441W        W 7166   4.653   5.501  10.048
 3442W        W 7167   4.099   6.520  11.031
 3443W        W 7168   6.996   8.366   3.159
 3444W        W 7169   3.806   2.233   3.681
 3445W        W 7170   7.532   6.012   0.826
 3446W        W 7171   4.107   3.302   8.897
 3447W        W 7172   0.882   0.374   2.315
 3448W        W 7173   4.127   0.862   0.381
 3449W        W 7174   5.238   1.330   0.886
 3450W        W 7175   7.534   4.634   0.857
 3451W        W 7176   7.111   3.793  10.948
 3452W        W 7177   7.127   1.885   0.899
 3453W        W 7178   5.570   5.139   0.812
 3454W        W 7179   7.476   0.457   8.893
 3455W        W 7180   1.800   6.034   9.094
 3456W        W 7181   6.055   6.976   3.234
 3457W        W 7182   6.460   5.038  10.351
 3458W        W 7183   2.158   9.859   8.969
 3459W        W 7184   3.716   0.758  11.896
 3460W        W 7185   6.549   5.969   3.727
 3461W        W 7186   3.665   9.968  10.395
 3462W        W 7187   7.551   8.936   2.862
 3463W        W 7188   6.562   8.460   9.485
 3464W        W 7189   0.337   1.385   9.551
 3465W        W 7190   9.460   4.746   9.583
 3466W        W 7191   6.144   2.791   0.847
 3467W        W 7192   1.320   4.269   2.341
 3468W        W 7193   8.947   4.676   2.236
 3469W        W 7194   9.488   3.605   1.420
 3470W        W 7195   4.237   2.676   2.390
 3471W        W 7196   0.738   9.434  10.376
 3472W        W 7197   3.745   8.552   1.326
 3473W        W 7198   1.203   2.830   9.020
 3474W        W 7199   4.611   3.130   4.138
 3475W        W 7200   7.061   1.784  11.902
 3476W        W 7201   0.772   6.523   8.497
 3477W        W 7202   1.759   6.178   2.742
 3478W        W 7203   7.029   7.958   3.157
 3479W        W 7204   5.222   8.385   2.795
 3480W        W 7205   5.512   8.874   0.438
 3481W        W 7206   8.902   5.536   9.048
 3482W        W 7207   6.952   9.505  11.785
 3483W        W 7208  10.262  10.400   0.380
 3484W        W 7209   1.409   3.286   0.802
 3485W        W 7210   7.110   6.493   0.804
 3486W        W 7211  10.448   0.752   0.339
 3487W        W 7212   9.863   4.171   9.538
 3488W        W 7213   3.146   5.242  11.362
 3489W        W 7214   7.939   7.027   2.817
 3490W        W 7215   4.562   3.108   0.936
 3491W        W 7216   4.143   4.170  11.785
 3492W        W 7217   9.392   8.389   1.760
 3493W        W 7218   0.841   2.802   0.859
 3494W        W 7219   2.770   5.030   1.851
 3495W        W 7220   0.851   2.344   8.967
 3496W        W 7221   9.989   7.154  11.511
 3497W        W 7222   5.542   7.082  11.442
 3498W        W 7223  10.345   4.594   0.297
 3499W        W 7224   5.643   9.857   3.153
 3500W        W 7225   5.124   1.360   9.591
 3501W        W 7226   1.254   4.163   2.869
 3502W        W 7227   9.787   4.092   9.099
 3503W        W 7228   3.703   7.894  11.410
 3504W        W 7229   0.271   8.491  11.311
 3505W        W 7230  10.381   2.235   0.446
 3506W        W 7231   5.014   0.818  11.868
 3507W        W 7232   7.021   1.862  10.354
 3508W        W 7233   3.625   8.862  10.080
 3509W        W 7234   8.112   3.232   0.338
 3510W        W 7235   1.725   8.113   0.780
 3511W        W 7236   5.498   9.050   1.233
 3512W        W 7237   1.295   7.978  11.456
 3513W        W 7238  10.003   4.562   3.249
 3514W        W 7239   2.854   3.142   1.241
 3515W        W 7240   6.495   8.849   0.957
 3516W        W 7241   1.793   3.617   2.815
 3517W        W 7242   8.915   0.443  10.000
 3518W        W 7243   6.650   6.531   1.403
 3519W        W 7244   5.590   9.885  10.048
 3520W        W 7245   8.858   3.752  11.040
 3521W        W 7246   9.855   0.452   0.393
 3522W        W 7247   9.845   8.444   2.863
 3523W        W 7248   3.147   1.429   1.340
 3524W        W 7249   5.558   6.145   3.820
 3525W        W 7250   4.579   7.495   8.045
 3526W        W 7251   2.651   8.045  10.359
 3527W        W 7252   6.640   6.024  11.343
 3528W        W 7253   2.690  10.302   3.342
 3529W        W 7254   1.288   9.828  10.988
 3530W        W 7255   1.839   6.953   1.851
 3531W        W 7256   3.144   4.668   1.744
 3532W        W 7257   7.074   0.268   3.248
 3533W        W 7258   7.915   0.806  10.979
 3534W        W 7259   2.330   2.806   0.404
 3535W        W 7260   3.275   1.867  10.956
 3536W        W 7261   1.332   3.237   3.810
 3537W        W 7262   7.936   3.588   3.150
 3538W        W 7263  10.289   9.500   2.821
 3539W        W 7264   3.113   0.762  10.830
 3540W        W 7265   0.243   4.214   1.869
 3541W        W 7266   9.932  10.389   9.462
 3542W        W 7267   1.358   1.740  10.431
 3543W        W 7268   7.084   8.030   9.555
 3544W        W 7269   4.545   0.894   2.833
 3545W        W 7270   5.681   7.917   1.899
 3546W        W 7271   1.384   4.204  11.992
 3547W        W 7272   3.207  10.020  10.467
 3548W        W 7273   6.476   0.307   1.854
 3549W        W 7274   5.183   0.407   3.212
 3550W        W 7275   5.012   9.897   2.393
 3551W        W 7276   0.732   0.253  11.931
 3552W        W 7277   6.576   4.681  11.040
 3553W        W 7278   0.908   0.255  11.033
 3554W        W 7279   2.845   1.812  10.360
 3555W        W 7280   3.331   7.958   0.795
 3556W        W 7281   2.773   4.212  11.928
 3557W        W 7282   2.184   1.690  11.353
 3558W        W 7283   4.552   9.308   9.063
 3559W        W 7284   3.636   0.408   0.822
 3560W        W 7285   5.013   6.004   0.768
 3561W        W 7286   3.219   2.630  11.775
 3562W        W 7287   0.413   4.100   1.359
 3563W        W 7288   7.608   7.423  10.821
 3564W        W 7289   7.097   6.084  10.887
 3565W        W 7290   8.504   8.847   0.901
 3566W        W 7291   0.763   2.631   3.271
 3567W        W 7292   0.392   7.595  11.940
 3568W        W 7293   3.801   5.070  10.915
 3569W        W 7294   7.020   8.893   9.440
 3570W        W 7295   9.964   4.236   3.199
 3571W        W 7296   3.646   8.572  11.947
 3572W        W 7297   4.058  10.458   2.324
 3573W        W 7298   7.139   7.991   2.216
 3574W        W 7299   1.429   5.016  11.455
 3575W        W 7300   0.413   5.045  11.349
 3576W        W 7301   7.512   3.241   9.914
 3577W        W 7302  10.010   9.045   9.473
 3578W        W 7303   7.078   0.425   1.369
 3579W        W 7304   0.471   1.249   9.097
 3580W        W 7305   5.660   6.526   1.228
 3581W        W 7306   9.036   0.277  10.489
 3582W        W 7307   0.869   7.065  10.076
 3583W        W 7308   4.669   7.569  10.809
 3584W        W 7309   2.702   6.614   7.987
 3585W        W 7310   4.751   6.590   3.236
 3586W        W 7311   2.675   3.171  11.471
 3587W        W 7312  10.412   3.283   1.425
 3588W        W 7313   0.447   7.036   9.062
 3589W        W 7314   9.849   9.545   9.048
 3590W        W 7315   4.159   3.635   2.763
 3591W        W 7316   8.414   6.502   3.323
 3592W        W 7317   0.727   7.986   9.028
 3593W        W 7318   1.800   2.189   9.430
 3594W        W 7319   7.065   9.380   2.750
 3595W        W 7320   1.377   8.035   9.431
 3596W        W 7321   6.616   6.987  10.826
 3597W        W 7322   4.639   0.782  11.792
 3598W        W 7323   1.291   0.954  11.484
 3599W        W 7324   5.120   4.129   9.116
 3600W        W 7325   6.625   7.474   9.981
 3601W        W 7326   4.064   3.295   1.346
 3602W        W 7327   4.677   7.046   2.301
 3603W        W 7328   5.711   2.718  10.422
 3604W        W 7329   6.202   8.432   8.432
 3605W        W 7330   4.229   8.075   9.096
 3606W        W 7331   2.197   6.517   9.096
 3607W        W 7332  10.373   8.107   2.747
 3608W        W 7333   3.163   1.875   3.167
 3609W        W 7334  10.286   0.838  11.854
 3610W        W 7335   7.539  10.022   1.284
 3611W        W 7336   1.283   3.324   2.820
 3612W        W 7337   3.170   6.021   1.845
 3613W        W 7338   0.884   4.731   2.253
 3614W        W 7339   6.064   1.896  11.789
 3615W        W 7340   8.358   9.385   1.231
 3616W        W 7341   6.670   2.361   2.757
 3617W        W 7342   7.057   6.495  11.438
 3618W        W 7343   4.707   1.282   9.483
 3619W        W 7344   0.853   8.476   2.723
 3620W        W 7345  10.291   0.872   3.789
 3621W        W 7346   4.148   9.439  10.861
 3622W        W 7347   0.726   2.628   9.030
 3623W        W 7348   4.179   4.215   3.721
 3624W        W 7349   4.587   9.942   0.453
 3625W        W 7350   2.372   3.738   9.998
 3626W        W 7351   5.542   5.185   9.912
 3627W        W 7352   5.538   9.998  10.829
 3628W        W 7353   9.382   9.002   8.963
 3629W        W 7354   1.309   9.394   0.746
 3630W        W 7355   9.476   8.087  11.859
 3631W        W 7356   1.302   9.785   2.648
 3632W        W 7357   2.223   1.834  11.904
 3633W        W 7358   6.098   7.937   9.946
 3634W        W 7359   0.737  10.301   2.770
 3635W        W 7360   1.200   2.733   2.732
 3636W        W 7361   5.547   3.633   4.284
 3637W        W 7362   0.467   9.021  11.475
 3638W        W 7363   2.693   7.617  11.352
 3639W        W 7364   7.584   9.972  11.281
 3640W        W 7365   1.749   2.832   1.683
 3641W        W 7366   1.766   9.370   9.922
 3642W        W 7367  10.308   6.125   8.622
 3643W        W 7368   2.362   7.066   8.451
 3644W        W 7369   9.885   8.112  10.445
 3645W        W 7370   1.362   3.623  11.491
 3646W        W 7371   7.069   0.285   3.633
 3647W        W 7372   4.144   0.781  11.039
 3648W        W 7373   7.917   6.101  10.488
 3649W        W 7374   7.569   1.720  10.051
 3650W        W 7375   8.051   7.877   3.343
 3651W        W 7376   1.835   5.162  11.789
 3652W        W 7377   5.069   4.098   8.059
 3653W        W 7378   8.055   1.882  11.390
 3654W        W 7379   5.548   4.550   0.871
 3655W        W 7380   8.579   2.841   0.734
 3656W        W 7381   7.078   1.849   9.563
 3657W        W 7382   7.041   4.121  10.450
 3658W        W 7383   1.293   4.124   9.932
 3659W        W 7384   5.182   6.630   8.543
 3660W        W 7385   9.930   2.213  11.421
 3661W        W 7386   2.249   1.234   3.285
 3662W        W 7387   5.526   5.222   2.255
 3663W        W 7388   7.082   0.361   0.773
 3664W        W 7389  10.322   8.860   3.219
 3665W        W 7390   9.936   2.805   2.727
 3666W        W 7391   4.647   3.274  11.500
 3667W        W 7392   2.316   9.973   2.874
 3668W        W 7393  10.338   3.195  10.907
 3669W        W 7394   9.433   1.337  11.950
 3670W        W 7395   4.544   8.924  11.024
 3671W        W 7396   0.771   6.620   2.269
 3672W        W 7397   7.878   4.141   2.184
 3673W        W 7398   6.523   9.055   8.892
 3674W        W 7399   5.145   8.460   8.927
 3675W        W 7400   5.095  10.313   9.896
 3676W        W 7401   4.597   9.543   2.381
 3677W        W 7402   1.244   0.467   0.773
 3678W        W 7403   4.762   0.398  10.396
 3679W        W 7404   3.642   9.929   1.351
 3680W        W 7405   4.189   7.906  10.425
 3681W        W 7406   3.735   1.824  11.424
 3682W        W 7407  10.398   8.577   1.727
 3683W        W 7408   7.574   1.773   1.691
 3684W        W 7409   7.490  10.004  10.881
 3685W        W 7410   9.053   8.972   1.902
 3686W        W 7411   1.860   7.987  11.386
 3687W        W 7412   0.871   5.607   3.129
 3688W        W 7413   9.492   7.902   3.176
 3689W        W 7414   9.369   8.547  11.792
 3690W        W 7415   8.578   4.152  11.910
 3691W        W 7416   3.608  10.375   3.175
 3692W        W 7417   4.107   4.221  11.353
 3693W        W 7418   9.828   0.928   1.823
 3694W        W 7419   7.547   8.905   3.759
 3695W        W 7420   2.771   2.319   0.244
 3696W        W 7421   9.826  10.021  11.916
 3697W        W 7422   4.659   3.743   9.006
 3698W        W 7423   9.438   2.247   2.666
 3699W        W 7424   4.255   6.482   9.866
 3700W        W 7425   0.718   2.385   0.880
 3701W        W 7426   6.103   0.914   1.235
 3702W        W 7427   6.027   5.709  11.494
 3703W        W 7428   4.232   8.847  10.442
 3704W        W 7429   8.450   7.924   0.826
 3705W        W 7430   0.462   5.120   0.331
 3706W        W 7431   7.909   9.444   0.447
 3707W        W 7432   2.691   8.850   3.176
 3708W        W 7433   2.250   1.410   1.201
 3709W        W 7434   9.999   2.274   2.644
 3710W        W 7435   1.879   1.292   1.421
 3711W        W 7436   0.291   5.079  11.824
 3712W        W 7437   8.880   8.084   2.689
 3713W        W 7438   8.835   1.728   9.561
 3714W        W 7439   4.558   9.017   2.255
 3715W        W 7440   8.492   2.373   2.361
 3716W        W 7441   3.651   1.235   0.440
 3717W        W 7442   8.382   6.478   3.836
 3718W        W 7443   1.709   4.641  11.404
 3719W        W 7444   6.498   6.666   9.069
 3720W        W 7445   7.583   0.909   0.951
 3721W        W 7446   8.567   1.410  10.950
 3722W        W 7447   2.238   9.329  10.325
 3723W        W 7448   9.953   4.762  10.067
 3724W        W 7449   3.698   8.997  10.333
 3725W        W 7450   0.772   9.319   2.193
 3726W        W 7451   2.736   2.177  11.973
 3727W        W 7452   2.830   3.319   3.293
 3728W        W 7453  10.019   6.603   1.810
 3729W        W 7454   1.819   3.805   8.892
 3730W        W 7455   9.472   4.090  11.796
 3731W        W 7456   8.573   9.996  10.857
 3732W        W 7457   2.216   4.649   3.686
 3733W        W 7458   0.920   6.545   1.829
 3734W        W 7459   0.750   0.391   1.810
 3735W        W 7460   9.965   4.264   8.626
 3736W        W 7461   0.866   2.787  11.964
 3737W        W 7462   8.024   8.030  11.952
 3738W        W 7463   6.604   8.534  10.968
 3739W        W 7464   3.783   7.627   9.361
 3740W        W 7465   3.339   3.740   2.644
 3741W        W 7466   6.041   6.112  10.005
 3742W        W 7467  10.281   7.932  11.788
 3743W        W 7468   9.915   5.062   0.764
 3744W        W 7469   7.419   4.573  10.824
 3745W        W 7470   5.190   8.477  10.021
 3746W        W 7471  10.401   5.161  10.489
 3747W        W 7472  10.363   7.101   1.265
 3748W        W 7473   6.931   7.129  10.893
 3749W        W 7474   7.450   8.937  10.002
 3750W        W 7475   8.498   9.315   9.416
 3751W        W 7476   9.437   3.596   9.412
 3752W        W 7477  10.332   0.803   9.844
 3753W        W 7478   9.883   9.348   9.931
 3754W        W 7479   9.802   6.142   9.572
 3755W        W 7480   7.035  10.401  11.815
 3756W        W 7481   5.584  10.018   1.759
 3757W        W 7482   5.714   3.318   9.900
 3758W        W 7483   9.470   6.459   1.827
 3759W        W 7484   5.202   8.481  11.326
 3760W        W 7485   3.786  10.435  10.833
 3761W        W 7486   9.401   9.315   0.375
 3762W        W 7487   4.724   8.464   8.887
 3763W        W 7488   9.505  10.341  11.855
 3764W        W 7489   3.700   8.565   1.793
 3765W        W 7490  10.499   5.624   9.924
 3766W        W 7491   1.359   3.651   2.740
 3767W        W 7492   6.556   8.466   1.237
 3768W        W 7493   2.684   7.399   2.192
 3769W        W 7494   3.241   5.246  10.971
 3770W        W 7495   5.181   9.911  11.869
 3771W        W 7496  10.420   3.170   9.852
 3772W        W 7497   9.487   3.264   0.240
 3773W        W 7498   8.870   8.403   0.817
 3774W        W 7499   4.170   6.533   3.353
 3775W        W 7500   9.836   9.014   0.399
 3776W        W 7501   2.372   3.257   0.369
 3777W        W 7502   7.527   2.375   0.744
 3778W        W 7503   6.611   0.290   8.903
 3779W        W 7504   2.672   6.968   8.573
 3780W        W 7505   0.333   3.160   0.326
 3781W        W 7506   9.412   6.038   2.712
 3782W        W 7507   7.588  10.480   9.868
 3783W        W 7508   3.108   6.556   2.813
 3784W        W 7509   1.288   7.968   3.214
 3785W        W 7510   2.857   2.737   0.276
 3786W        W 7511   1.274   9.867   8.492
 3787W        W 7512   5.565   4.222   3.778
 3788W        W 7513   0.391   4.208   2.845
 3789W        W 7514   9.933   6.005  11.017
 3790W        W 7515   6.007  10.328  10.074
 3791W        W 7516   4.133   7.402   0.419
 3792W        W 7517   7.518   9.351   0.374
 3793W        W 7518  10.469   9.508   2.362
 3794W        W 7519   3.271   6.933  11.974
 3795W        W 7520   2.335   7.929  11.872
 3796W        W 7521   5.584   0.722  11.428
 3797W        W 7522   8.863   2.269   3.288
 3798W        W 7523   3.755   3.127  11.376
 3799W        W 7524   4.735   3.244   3.225
 3800W        W 7525   7.532   7.044   1.753
 3801W        W 7526   2.271   9.886   9.540
 3802W        W 7527   8.488   3.755  10.967
 3803W        W 7528   5.722   8.995   0.831
 3804W        W 7529   3.585   9.451   2.853
 3805W        W 7530   1.805   9.534  11.345
 3806W        W 7531   1.827   6.481   2.778
 3807W        W 7532   3.125   7.549   9.118
 3808W        W 7533   0.765   1.825   8.457
 3809W        W 7534   6.456   0.293  11.497
 3810W        W 7535   4.546   4.573  11.289
 3811W        W 7536   8.068   2.849   0.879
 3812W        W 7537   6.114   7.928   1.253
 3813W        W 7538   0.881   9.353  11.842
 3814W        W 7539   5.128   6.104   2.321
 3815W        W 7540   2.666   8.005  10.980
 3816W        W 7541   6.025   4.193   1.209
 3817W        W 7542   4.733   8.359  10.511
 3818W        W 7543   5.548   8.978  10.545
 3819W        W 7544   7.503  10.424  10.351
 3820W        W 7545   4.544   4.636  10.500
 3821W        W 7546   7.032   4.555   3.334
 3822W        W 7547   5.032   7.020   8.009
 3823W        W 7548   7.889   3.314   1.773
 3824W        W 7549   5.577  10.333  10.021
 3825W        W 7550   9.404   6.670   0.347
 3826W        W 7551   9.433   8.946   9.952
 3827W        W 7552   2.245   0.726   9.486
 3828W        W 7553   7.881   6.675  10.368
 3829W        W 7554   5.162   6.952   4.311
 3830W        W 7555   7.427   6.985  10.528
 3831W        W 7556   3.153   6.513  11.896
 3832W        W 7557   0.465   2.859   9.592
 3833W        W 7558   6.097   7.030   4.224
 3834W        W 7559   1.784   6.553   1.328
 3835W        W 7560   1.267   5.024   0.746
 3836W        W 7561   8.859   7.422   3.306
 3837W        W 7562   1.250   6.921  10.911
 3838W        W 7563   9.013  10.337   0.883
 3839W        W 7564   6.960   7.122   8.948
 3840W        W 7565   1.772   5.127   2.231
 3841W        W 7566   4.130   5.130  10.046
 3842W        W 7567   5.975   8.358   2.822
 3843W        W 7568   5.103   3.164   0.404
 3844W        W 7569   3.251   0.812   2.830
 3845W        W 7570  10.291   0.759   1.250
 3846W        W 7571   1.210   7.876   2.342
 3847W        W 7572   6.630   6.015   8.062
 3848W        W 7573   6.058   9.422  10.902
 3849W        W 7574   4.656   1.810   2.684
 3850W        W 7575   8.017   2.847   2.817
 3851W        W 7576   8.439   6.520   0.955
 3852W        W 7577   4.704   1.408   2.273
 3853W        W 7578   9.335  10.020   2.210
 3854W        W 7579   9.873  10.438   0.889
 3855W        W 7580   7.589   8.082  11.897
 3856W        W 7581   3.178   5.992   9.018
 3857W        W 7582   2.195   5.994  11.957
 3858W        W 7583   8.503   7.096  10.473
 3859W        W 7584   0.242   7.138   0.918
 3860W        W 7585   8.509   2.821  10.069
 3861W        W 7586   5.105   6.612   2.176
 3862W        W 7587   1.275   7.098   8.944
 3863W        W 7588   5.694   3.243   2.879
 3864W        W 7589   8.104   6.577   3.192
 3865W        W 7590   4.671   9.886  11.003
 3866W        W 7591   8.860   4.582   1.361
 3867W        W 7592   1.784   2.685   9.846
 3868W        W 7593   7.041   8.871   2.815
 3869W        W 7594   6.061   6.550  10.867
 3870W        W 7595   1.274   3.184   2.282
 3871W        W 7596   6.929   2.731  11.439
 3872W        W 7597   9.815  10.420  11.938
 3873W        W 7598   3.648   7.945   9.445
 3874W        W 7599   3.141   1.409   1.707
 3875W        W 7600   6.472   0.333   0.273
 3876W        W 7601   5.051   1.732  10.913
 3877W        W 7602   2.376   5.687  11.401
 3878W        W 7603   5.578   5.667   8.449
 3879W        W 7604   2.200   7.539   9.532
 3880W        W 7605   6.008   8.109  10.815
 3881W        W 7606   1.823   8.086   9.555
 3882W        W 7607   6.992   3.643   2.382
 3883W        W 7608   1.903   4.764   1.421
 3884W        W 7609   0.477   0.909   2.702
 3885W        W 7610   0.868   5.073   9.987
 3886W        W 7611   0.334   4.594   9.981
 3887W        W 7612   4.592   5.690  11.366
 3888W        W 7613   5.049   3.778   0.331
 3889W        W 7614   4.247   4.769  10.883
 3890W        W 7615   5.599   3.141   2.171
 3891W        W 7616   2.208   9.839  10.467
 3892W        W 7617   7.428   9.424   1.718
 3893W        W 7618   4.152   6.085   0.855
 3894W        W 7619  10.391   1.738  11.504
 3895W        W 7620   8.846   2.790   1.402
 3896W        W 7621   0.463   5.984   1.317
 3897W        W 7622   7.546   0.429   9.491
 3898W        W 7623   8.390   3.594   3.318
 3899W        W 7624   8.906   2.314  11.509
 3900W        W 7625   9.393   4.547  10.049
 3901W        W 7626   1.834   9.030   2.690
 3902W        W 7627   1.680   0.917   9.468
 3903W        W 7628   9.389   1.258  10.912
 3904W        W 7629   8.527   4.623  11.448
 3905W        W 7630   8.540   2.789   9.112
 3906W        W 7631   8.927   1.839   3.152
 3907W        W 7632   7.119   8.015   8.631
 3908W        W 7633   1.691   7.635   2.714
 3909W        W 7634   9.873   0.752   0.809
 3910W        W 7635   1.209   4.081   1.437
 3911W        W 7636   5.606   1.308  10.820
 3912W        W 7637   7.913   7.896  11.306
 3913W        W 7638   2.182   5.087   3.335
 3914W        W 7639   7.977   9.926   9.378
 3915W        W 7640   2.650   8.923  10.986
 3916W        W 7641  10.465   1.717  11.842
 3917W        W 7642   9.475   8.403   2.696
 3918W        W 7643   3.217   4.621   3.771
 3919W        W 7644   9.788   0.743  10.824
 3920W        W 7645   7.158   6.605  10.846
 3921W        W 7646   8.973   0.853   0.727
 3922W        W 7647   9.985   9.997  10.913
 3923W        W 7648   5.221   9.847  10.518
 3924W        W 7649   7.509   8.406   3.234
 3925W        W 7650   5.655   6.467   0.913
 3926W        W 7651   1.403   9.486  10.927
 3927W        W 7652   9.931   3.691   9.847
 3928W        W 7653   6.950   0.275   9.106
 3929W        W 7654   6.537   6.578  11.398
 3930W        W 7655   1.764   6.165  11.884
 3931W        W 7656   5.209   4.563  10.961
 3932W        W 7657   5.542   4.137   2.303
 3933W        W 7658   5.513   5.017   3.284
 3934W        W 7659   1.775   3.335   9.470
 3935W        W 7660   6.131   3.308  11.369
 3936W        W 7661   6.627   7.498   1.280
 3937W        W 7662   5.548   0.291   0.379
 3938W        W 7663   3.231   5.121   4.311
 3939W        W 7664   7.907   6.488   2.236
 3940W        W 7665   1.248   3.582   1.332
 3941W        W 7666   4.746   9.460   3.125
 3942W        W 7667  10.401  10.348  10.321
 3943W        W 7668   9.312   4.137   2.362
 3944W        W 7669   8.399   1.773   2.189
 3945W        W 7670   3.752   4.099   1.366
 3946W        W 7671   1.386   7.056   9.960
 3947W        W 7672   9.386   4.551  10.536
 3948W        W 7673   2.765   1.279   0.743
 3949W        W 7674   2.198   8.437  11.487
 3950W        W 7675   7.971   8.434  11.807
 3951W        W 7676   1.850   9.925   1.754
 3952W        W 7677   6.446   9.309  10.370
 3953W        W 7678   9.497   3.817  10.977
 3954W        W 7679  10.406   0.919  11.362
 3955W        W 7680   1.331   1.340   2.261
 3956W        W 7681   9.331   2.809   1.201
 3957W        W 7682   4.544  10.287   2.782
 3958W        W 7683   4.134   2.628   9.110
 3959W        W 7684   9.461   9.953   2.676
 3960W        W 7685   5.714   6.671   8.913
 3961W        W 7686   7.893   2.784  10.815
 3962W        W 7687   1.882   2.855  11.776
 3963W        W 7688   3.684   0.918   2.654
 3964W        W 7689   8.561   8.996  10.387
 3965W        W 7690   0.243   4.139   9.362
 3966W        W 7691   1.311   1.246   8.963
 3967W        W 7692   5.044   2.371  11.891
 3968W        W 7693   8.489  10.290  10.829
 3969W        W 7694   2.236   1.237   9.913
 3970W        W 7695   0.954   7.142   2.274
 3971W        W 7696   7.902   0.845   1.743
 3972W        W 7697   7.620   6.176  10.447
 3973W        W 7698   9.456   0.909   3.275
 3974W        W 7699  10.342   5.078   9.960
 3975W        W 7700   8.847   5.020  10.538
 3976W        W 7701   9.063   4.660   8.892
 3977W        W 7702   5.019   3.793   8.584
 3978W        W 7703   5.012   5.564   0.246
 3979W        W 7704   2.334   0.440   2.744
 3980W        W 7705   9.944   8.988   3.337
 3981W        W 7706  10.386   8.534  10.079
 3982W        W 7707   6.184  10.372   2.794
 3983W        W 7708   4.250   5.540  10.417
 3984W        W 7709   7.057   3.215  11.289
 3985W        W 7710   1.396   1.875   0.290
 3986W        W 7711   7.444   5.016   9.377
 3987W        W 7712   3.304   0.290   1.210
 3988W        W 7713   1.322   3.687   0.852
 3989W        W 7714   7.145   6.116   9.069
 3990W        W 7715   6.002   2.363   9.110
 3991W        W 7716   9.988   1.860   9.458
 3992W        W 7717   0.771   1.814   2.686
 3993W        W 7718   3.327   9.403  11.999
 3994W        W 7719   6.675   0.464   0.811
 3995W        W 7720   3.169   3.670   3.270
 3996W        W 7721   3.240   5.161   3.171
 3997W        W 7722   7.136   4.067  11.780
 3998W        W 7723   1.281   6.030  11.840
 3999W        W 7724   0.932   9.528   9.507
 4000W        W 7725   7.112   7.587   2.216
 4001W        W 7726   9.528   3.809   0.907
 4002W        W 7727   3.809   9.905   0.817
 4003W        W 7728   5.606   1.823   2.720
 4004W        W 7729   3.289   5.098   0.309
 4005W        W 7730   5.160   4.254  10.826
 4006W        W 7731   7.996   5.514   1.370
 4007W        W 7732   4.560   4.162   9.570
 4008W        W 7733   5.549   9.990  11.463
 4009W        W 7734   7.490   9.498  10.037
 4010W        W 7735   6.956   9.529  10.996
 4011W        W 7736   0.290   6.060   0.769
 4012W        W 7737   2.634   5.520   9.962
 4013W        W 7738   3.140   4.152   1.297
 4014W        W 7739  10.294   7.060   9.532
 4015W        W 7740   9.537   7.572   0.743
 4016W        W 7741   7.134   5.081   0.341
 4017W        W 7742   6.166   0.870   9.949
 4018W        W 7743   8.069   8.513   2.653
 4019W        W 7744   6.582   6.611   2.288
 4020W        W 7745   6.954   4.563   9.987
 4021W        W 7746   3.813   3.184   9.389
 4022W        W 7747   1.788   2.336  11.380
 4023W        W 7748   7.092  10.274   2.396
 4024W        W 7749   1.368  10.402  10.412
 4025W        W 7750   6.056   4.771  10.327
 4026W        W 7751   5.043   7.987   8.486
 4027W        W 7752   8.543   3.745   8.507
 4028W        W 7753  10.282   0.717   8.999
 4029W        W 7754   8.905   2.308   1.832
 4030W        W 7755   3.153   4.705   4.191
 4031W        W 7756   4.567   6.572   2.347
 4032W        W 7757   5.101   7.143   1.396
 4033W        W 7758   0.824   6.199   0.955
 4034W        W 7759   9.502  10.459   0.254
 4035W        W 7760   2.701   3.747  10.482
 4036W        W 7761   3.183   8.374  11.399
 4037W        W 7762   8.054   2.242  10.453
 4038W        W 7763   0.847   1.254   0.888
 4039W        W 7764   9.334   1.687   0.785
 4040W        W 7765   7.057   2.707   2.387
 4041W        W 7766   1.362   8.515   0.812
 4042W        W 7767   3.158   2.260   0.355
 4043W        W 7768   7.578   6.172   2.708
 4044W        W 7769   5.608   1.263   1.321
 4045W        W 7770   6.994   9.808   0.723
 4046W        W 7771   9.489   7.006   9.875
 4047W        W 7772   5.664   6.548   4.148
 4048W        W 7773   4.645   3.188  10.834
 4049W        W 7774   9.896   0.936   1.335
 4050W        W 7775   0.368   8.980   1.227
 4051W        W 7776   2.780   7.895   1.248
 4052W        W 7777  10.421   8.582   0.781
 4053W        W 7778  10.019   5.659   1.909
 4054W        W 7779   6.673   5.178  11.903
 4055W        W 7780   5.144   7.976  10.533
 4056W        W 7781   9.906   5.195  10.948
 4057W        W 7782   9.942   1.395  10.385
 4058W        W 7783   4.197   4.265   9.061
 4059W        W 7784   5.723   9.459  10.976
 4060W        W 7785   4.756   6.007   0.728
 4061W        W 7786   7.417   5.704   4.252
 4062W        W 7787   2.289   0.249   9.903
 4063W        W 7788   6.579   9.891   2.739
 4064W        W 7789   5.201   9.480   0.737
 4065W        W 7790   9.911   9.911  11.405
 4066W        W 7791   7.992   0.364  10.397
 4067W        W 7792   0.813   7.912  11.313
 4068W        W 7793  10.380  10.432   1.889
 4069W        W 7794   5.625   3.616  11.002
 4070W        W 7795   2.368   5.093  11.881
 4071W        W 7796   9.895   5.619   2.221
 4072W        W 7797   4.707   2.744   9.950
 4073W        W 7798   5.983   7.158   3.699
 4074W        W 7799   7.476   6.506  10.496
 4075W        W 7800   1.807   8.513  11.452
 4076W        W 7801   6.029   7.149   1.859
 4077W        W 7802   8.570   1.901   3.732
 4078W        W 7803   4.576   8.062   8.479
 4079W        W 7804   8.568   6.203   9.078
 4080W        W 7805   3.109   4.731   8.437
 4081W        W 7806   8.455   9.389  11.980
 4082W        W 7807   1.195   6.540   2.769
 4083W        W 7808  10.416   4.206   2.808
 4084W        W 7809   7.532   5.589   0.857
 4085W        W 7810  10.413   1.842   2.350
 4086W        W 7811   2.847   2.281   9.547
 4087W        W 7812   0.298   1.857   1.815
 4088W        W 7813   4.225   7.133  10.459
 4089W        W 7814   6.672   4.591   3.605
 4090W        W 7815   7.089   2.679   1.364
 4091W        W 7816   4.675   2.766   2.233
 4092W        W 7817   4.746   9.534   2.798
 4093W        W 7818   5.124   4.713  11.460
 4094W        W 7819   8.965   0.439   1.434
 4095W        W 7820   4.097   7.469   3.142
 4096W        W 7821   1.724   3.311   1.713
 4097W        W 7822   1.768   9.397   2.796
 4098W        W 7823   7.015   8.096  11.318
 4099W        W 7824   1.392   4.237   0.242
 4100W        W 7825   9.353   8.436   8.947
 4101W        W 7826   0.734   3.668  11.912
 4102W        W 7827   0.912   7.135   0.729
 4103W        W 7828   3.335   8.942   3.198
 4104W        W 7829   9.488  10.362   3.133
 4105W        W 7830   1.265   2.765   0.242
 4106W        W 7831   6.944   9.841  11.510
 4107W        W 7832   2.290   3.635   2.770
 4108W        W 7833   5.034   4.183   0.939
 4109W        W 7834   4.602   5.159   9.898
 4110W        W 7835   2.722   1.420   3.188
 4111W        W 7836   9.023   8.355   2.342
 4112W        W 7837   3.259   2.317   9.970
 4113W        W 7838   1.740   6.196  11.423
 4114W        W 7839   4.580   7.573  10.439
 4115W        W 7840   6.489   3.321  10.458
 4116W        W 7841   7.444   0.935   9.395
 4117W        W 7842   7.119   7.613   9.404
 4118W        W 7843   4.064   9.821   0.262
 4119W        W 7844   8.453   1.894  10.890
 4120W        W 7845   5.660   0.749   0.897
 4121W        W 7846   7.987   6.458   1.828
 4122W        W 7847   9.457   3.112  11.495
 4123W        W 7848   0.353   8.006   0.298
 4124W        W 7849   0.323   1.839   8.901
 4125W        W 7850   4.615   0.936  10.988
 4126W        W 7851   7.478   2.652   1.707
 4127W        W 7852   8.547   0.923   9.438
 4128W        W 7853   4.656   3.114  11.999
 4129W        W 7854   6.081   2.192  11.800
 4130W        W 7855   7.438   5.215  11.438
 4131W        W 7856   7.406   3.221   1.896
 4132W        W 7857   1.195   7.575   2.186
 4133W        W 7858   4.158   0.778  10.474
 4134W        W 7859   6.548   1.328  11.875
 4135W        W 7860   2.764   3.777  11.410
 4136W        W 7861   7.031   0.860   0.250
 4137W        W 7862   1.303   8.446  10.471
 4138W        W 7863   8.470   9.957  10.446
 4139W        W 7864   8.009   6.025  11.942
 4140W        W 7865   1.717   8.454  10.872
 4141W        W 7866   9.942   9.895   9.883
 4142W        W 7867   3.780   1.760   8.994
 4143W        W 7868   4.549   7.994  11.878
 4144W        W 7869   5.022   9.532   1.273
 4145W        W 7870   1.312  10.469  10.011
 4146W        W 7871   6.548   3.737   3.348
 4147W        W 7872   2.636   8.562  10.989
 4148W        W 7873   5.567   6.504  11.015
 4149W        W 7874   7.141   8.452   1.292
 4150W        W 7875   5.171   8.857   0.785
 4151W        W 7876  10.296  10.323   1.423
 4152W        W 7877   1.420   9.014   2.651
 4153W        W 7878   4.767   5.532   1.862
 4154W        W 7879   1.325   8.438   8.981
 4155W        W 7880   4.729  10.489  11.287
 4156W        W 7881  10.424   3.642   2.393
 4157W        W 7882   7.980   7.471   9.415
 4158W        W 7883   4.189   7.136  11.421
 4159W        W 7884   7.572   7.567   3.282
 4160W        W 7885   9.942   6.565   2.229
 4161W        W 7886   2.631   4.622  10.516
 4162W        W 7887   6.175   0.400  11.863
 4163W        W 7888   0.459   0.263   2.297
 4164W        W 7889   2.824   5.493   0.797
 4165W        W 7890   4.670  10.310  10.461
 4166W        W 7891   5.986   0.374   9.028
 4167W        W 7892   5.621  10.416   1.320
 4168W        W 7893   7.033   3.792  10.079
 4169W        W 7894   2.837   8.995   2.670
 4170W        W 7895   7.403   5.058   1.349
 4171W        W 7896   2.184   5.580   0.351
 4172W        W 7897   9.432   7.588  11.026
 4173W        W 7898   7.470   8.959   2.279
 4174W        W 7899   8.384   2.192  11.856
 4175W        W 7900   8.918   6.014   9.890
 4176W        W 7901   9.067  10.023   1.754
 4177W        W 7902   3.723   8.081  10.380
 4178W        W 7903   3.335   2.196   0.920
 4179W        W 7904  10.388   2.778   0.900
 4180W        W 7905   0.774   2.847   1.406
 4181W        W 7906   4.211   8.897   9.461
 4182W        W 7907   3.622   8.052   9.110
 4183W        W 7908   1.829   2.209   2.325
 4184W        W 7909   0.285   6.136   3.282
 4185W        W 7910   4.706  10.345  11.025
 4186W        W 7911   0.474   6.071   2.660
 4187W        W 7912   0.752   5.583   9.854
 4188W        W 7913   5.057   6.584   2.728
 4189W        W 7914   1.797   9.849   9.387
 4190W        W 7915   8.008   9.043   9.511
 4191W        W 7916   5.167   1.213  10.071
 4192W        W 7917   4.647   2.219   0.855
 4193W        W 7918   6.573   4.276   2.365
 4194W        W 7919   2.700   0.802   1.438
 4195W        W 7920   3.288   8.390   2.845
 4196W        W 7921   6.017   0.400  11.292
 4197W        W 7922   8.014   0.357  11.036
 4198W        W 7923   2.283   6.951   0.954
 4199W        W 7924  10.000   5.525   9.113
 4200W        W 7925   8.050   3.118  11.965
 4201W        W 7926   5.684   0.934   2.243
 4202W        W 7927   5.601   7.415   0.739
 4203W        W 7928   2.249   8.383   2.772
 4204W        W 7929   3.166   3.747   1.289
 4205W        W 7930   7.106   3.791   8.887
 4206W        W 7931   2.812   8.453   9.878
 4207W        W 7932   6.039   3.712  10.904
 4208W        W 7933   7.583   4.172   3.687
 4209W        W 7934   2.308   4.585   3.153
 4210W        W 7935   0.373   1.264  11.416
 4211W        W 7936   7.996   7.406  10.846
 4212W        W 7937   6.456   5.973  10.519
 4213W        W 7938   0.445   9.474  10.047
 4214W        W 7939   5.113   6.564  11.328
 4215W        W 7940   2.161   5.979   2.718
 4216W        W 7941   9.452   8.903   0.820
 4217W        W 7942  10.410   3.799   9.462
 4218W        W 7943   2.305   3.106   2.392
 4219W        W 7944   7.005   1.309   3.228
 4220W        W 7945   3.191   7.634   2.851
 4221W        W 7946   9.516   5.086   2.391
 4222W        W 7947   8.570   1.812  10.440
 4223W        W 7948   3.264   5.524  10.854
 4224W        W 7949   1.717   0.260   2.653
 4225W        W 7950   9.916   2.692   2.353
 4226W        W 7951   6.572   4.742   1.270
 4227W        W 7952   3.184   8.854  11.469
 4228W        W 7953   8.845   8.978  11.298
 4229W        W 7954   2.324   8.940  10.814
 4230W        W 7955   5.969   7.576   0.387
 4231W        W 7956   8.459   7.945   2.855
 4232W        W 7957   3.627   5.628   0.259
 4233W        W 7958   5.027   7.074   0.958
 4234W        W 7959   2.297   9.345   1.742
 4235W        W 7960   2.701   2.348  11.450
 4236W        W 7961   2.764   5.126   9.894
 4237W        W 7962   7.980   2.328   9.502
 4238W        W 7963   6.671   2.247   9.957
 4239W        W 7964   0.937   8.516   3.139
 4240W        W 7965   9.008   4.593   9.902
 4241W        W 7966   1.685   6.648   0.392
 4242W        W 7967   3.269   8.030   1.892
 4243W        W 7968   4.179  10.390   1.904
 4244W        W 7969   3.114   6.129  10.553
 4245W        W 7970   6.088   1.861  10.344
 4246W        W 7971   1.242   3.602   1.868
 4247W        W 7972   3.334   9.486   0.896
 4248W        W 7973   7.108   6.587   3.313
 4249W        W 7974   5.176   2.170   1.825
 4250W        W 7975   2.279   4.742   0.797
 4251W        W 7976   5.040   1.239   3.346
 4252W        W 7977   9.458   8.535  10.525
 4253W        W 7978   8.512   8.019   1.272
 4254W        W 7979   3.785   3.207   1.732
 4255W        W 7980   0.312   6.529   9.471
 4256W        W 7981   6.123   1.765  10.844
 4257W        W 7982   3.680   4.762   3.156
 4258W        W 7983   2.216   1.275   0.333
 4259W        W 7984   2.835   2.292  10.922
 4260W        W 7985   8.075   1.264   0.371
 4261W        W 7986   7.076   4.105   0.311
 4262W        W 7987   5.538   0.283  11.944
 4263W        W 7988   2.337   6.489   1.370
 4264W        W 7989   9.815   9.432   0.430
 4265W        W 7990   4.186   8.936  10.969
 4266W        W 7991   7.122   1.834   2.782
 4267W        W 7992   6.932   8.555   9.548
 4268W        W 7993   8.949   4.138  11.281
 4269W        W 7994   2.230   4.592  10.462
 4270W        W 7995   9.894   5.603   0.829
 4271W        W 7996   6.950   7.120   1.238
 4272W        W 7997   3.224   5.039   9.552
 4273W        W 7998   7.939   8.865   2.683
 4274W        W 7999   9.331   0.394   2.238
 4275W        W 8000   5.607   0.269   9.430
 4276W        W 8001   2.769   3.752   9.013
 4277W        W 8002   8.925   1.413  10.398
 4278W        W 8003   0.817   9.335   2.664
 4279W        W 8004   7.990   5.092   3.258
 4280W        W 8005   0.838   1.679   1.381
 4281W        W 8006   6.543   8.524   3.226
 4282W        W 8007   7.444   3.283   2.398
 4283W        W 8008  10.285   5.675   0.243
 4284W        W 8009   4.535   5.656   1.410
 4285W        W 8010   3.267   5.105  11.836
 4286W        W 8011   3.134   0.260   9.581
 4287W        W 8012   7.610   4.674  10.346
 4288W        W 8013   4.139   5.207  11.308
 4289W        W 8014   1.874   9.038   9.988
 4290W        W 8015   6.006   6.662  10.391
 4291W        W 8016   4.198   1.807  10.341
 4292W        W 8017   8.478   6.455  10.818
 4293W        W 8018   0.336   8.530  11.892
 4294W        W 8019   7.434  10.344   0.921
 4295W        W 8020   6.475   9.832   9.384
 4296W        W 8021   7.100   0.880  10.040
 4297W        W 8022   6.059   2.851   2.365
 4298W        W 8023   3.782   7.998   0.317
 4299W        W 8024   8.499   3.137   9.560
 4300W        W 8025  10.361   0.413   2.689
 4301W        W 8026   4.188   4.182   9.523
 4302W        W 8027   4.117   3.784   1.722
 4303W        W 8028   6.593   3.746   9.044
 4304W        W 8029   9.512   7.627  11.950
 4305W        W 8030   3.796   2.641   2.358
 4306W        W 8031   0.472   9.497   1.227
 4307W        W 8032   6.005   3.242   3.208
 4308W        W 8033   9.802   4.252  10.463
 4309W        W 8034   7.482   2.858  11.936
 4310W        W 8035   3.606   7.076   2.397
 4311W        W 8036   1.393   8.832   1.852
 4312W        W 8037   4.256   4.087   1.435
 4313W        W 8038   4.217  10.018   2.811
 4314W        W 8039   2.657   6.133  10.804
 4315W        W 8040   8.523   0.457   2.764
 4316W        W 8041   5.494   0.351   1.713
 4317W        W 8042   0.853   7.448  10.860
 4318W        W 8043   6.614   0.241   3.164
 4319W        W 8044   6.031   8.064   3.657
 4320W        W 8045   2.676   8.867   0.720
 4321W        W 8046   2.241   7.600   3.359
 4322W        W 8047   6.008   7.116   0.439
 4323W        W 8048   6.654   9.526   3.147
 4324W        W 8049   4.187   9.956  10.438
 4325W        W 8050   9.405   8.067   8.918
 4326W        W 8051   4.268   3.114  11.828
 4327W        W 8052   6.510   4.116   1.899
 4328W        W 8053   6.007   7.899  11.453
 4329W        W 8054   3.108   0.370   3.142
 4330W        W 8055   4.163   7.924  11.298
 4331W        W 8056   1.348   5.636  10.390
 4332W        W 8057   5.722   1.899   1.397
 4333W        W 8058   2.156   5.186  10.917
 4334W        W 8059   8.032   2.185   0.264
 4335W        W 8060   5.708   9.439   3.253
 4336W        W 8061   8.483   2.730   1.696
 4337W        W 8062   4.235  10.278  11.928
 4338W        W 8063   8.835   6.544  11.941
 4339W        W 8064   7.079   0.375   0.356
 4340W        W 8065   0.375   1.398   2.763
 4341W        W 8066   0.279   6.186   8.935
 4342W        W 8067   2.824   0.439   0.839
 4343W        W 8068   3.730   3.752   0.308
 4344W        W 8069   2.771   8.059  11.921
 4345W        W 8070   3.812   8.492   9.897
 4346W        W 8071   2.659   7.114  10.911
 4347W        W 8072   4.255  10.467   9.990
 4348W        W 8073   3.722   9.390   9.076
 4349W        W 8074   2.721   8.070   0.245
 4350W        W 8075   4.630   2.157   9.422
 4351W        W 8076   6.052   5.197   0.881
 4352W        W 8077   2.742   6.550  11.299
 4353W        W 8078   6.525   0.310   2.646
 4354W        W 8079   2.626   2.337   9.001
 4355W        W 8080   0.264   1.740   2.164
 4356W        W 8081   9.809   7.883   0.395
 4357W        W 8082   2.651   8.059  11.336
 4358W        W 8083   9.952   7.915   3.279
 4359W        W 8084   4.231   2.374  11.025
 4360W        W 8085  10.441   8.989   1.802
 4361W        W 8086   2.813   5.985   3.780
 4362W        W 8087   8.991   8.902   0.810
 4363W        W 8088   4.283   7.908   2.772
 4364W        W 8089   5.674   6.122   1.730
 4365W        W 8090  10.447   6.603  10.027
 4366W        W 8091   9.796   3.661   2.287
 4367W        W 8092   3.812   5.239   9.862
 4368W        W 8093   0.742   4.089   8.979
 4369W        W 8094   3.206   8.970   1.827
 4370W        W 8095   8.517   6.565   9.044
 4371W        W 8096   9.388   9.541  10.994
 4372W        W 8097   6.166  10.002   0.358
 4373W        W 8098   3.141  10.413  11.825
 4374W        W 8099   9.865   7.556   9.045
 4375W        W 8100   6.174   9.331   8.997
 4376W        W 8101   1.696   1.909  11.981
 4377W        W 8102   2.653   8.487   1.912
 4378W        W 8103   7.542   5.642  10.503
 4379W        W 8104   5.175   5.028  10.078
 4380W        W 8105  10.370   0.855   0.887
 4381W        W 8106   7.962   3.139   0.947
 4382W        W 8107   8.838   8.540   0.471
 4383W        W 8108   3.786   4.244   2.671
 4384W        W 8109   0.465   1.330   1.343
 4385W        W 8110   0.912   6.098  10.438
 4386W        W 8111   9.395   5.183  11.440
 4387W        W 8112   0.939   9.521   1.886
 4388W        W 8113   0.279   9.797   3.355
 4389W        W 8114   2.844   4.759  11.870
 4390W        W 8115   5.249   7.399   0.476
 4391W        W 8116   9.342   9.330   0.914
 4392W        W 8117   2.714   3.582   9.522
 4393W        W 8118   1.830   2.841   1.303
 4394W        W 8119   1.243   2.821   0.869
 4395W        W 8120   4.540  10.372   9.021
 4396W        W 8121   9.834   3.668   0.332
 4397W        W 8122   2.722   7.044   1.807
 4398W        W 8123   1.217   2.743  11.514
 4399W        W 8124   1.756   9.395   1.377
 4400W        W 8125   7.535   2.275   1.338
 4401W        W 8126   4.651   2.370  10.833
 4402W        W 8127  10.308   8.095   0.750
 4403W        W 8128   8.540   7.044   3.681
 4404W        W 8129   6.005   4.236   0.454
 4405W        W 8130   7.552   8.489   0.779
 4406W        W 8131   3.771   4.595   3.658
 4407W        W 8132   8.908   5.717  10.882
 4408W        W 8133   0.308   5.592  11.429
 4409W        W 8134   6.050   2.727   0.323
 4410W        W 8135   1.831   4.194  10.426
 4411W        W 8136   4.138   2.245   1.752
 4412W        W 8137   3.144   9.876   9.537
 4413W        W 8138   3.773   2.686   1.200
 4414W        W 8139  10.002   0.422  11.765
 4415W        W 8140   9.914   8.888   2.684
 4416W        W 8141   5.568   7.154   1.911
 4417W        W 8142   2.218   4.187  10.326
 4418W        W 8143   7.987   5.553   0.325
 4419W        W 8144   2.342   7.914  10.404
 4420W        W 8145   2.340   5.491  10.443
 4421W        W 8146   8.581   5.673   2.326
 4422W        W 8147   5.061   0.805   3.136
 4423W        W 8148   0.367   2.335   3.288
 4424W        W 8149   7.965   4.684   0.750
 4425W        W 8150   3.673   1.344   1.745
 4426W        W 8151   0.806  10.423   3.306
 4427W        W 8152   7.955   8.538   2.168
 4428W        W 8153   2.754   4.743   2.395
 4429W        W 8154   0.792   3.129   0.437
 4430W        W 8155   2.698   3.713   2.751
 4431W        W 8156   9.512   9.067   2.333
 4432W        W 8157   8.393   6.665   2.260
 4433W        W 8158   6.600   4.147   9.075
 4434W        W 8159   6.985   9.520   9.060
 4435W        W 8160   9.807   5.195   9.542
 4436W        W 8161   3.227  10.494   2.656
 4437W        W 8162   6.924   5.527   2.721
 4438W        W 8163   3.663   1.292   2.857
 4439W        W 8164   3.680   8.939   8.930
 4440W        W 8165   7.080   3.253   1.721
 4441W        W 8166   0.860   8.954   9.934
 4442W        W 8167   3.251   3.301  11.359
 4443W        W 8168   4.168   7.619   1.918
 4444W        W 8169   0.424   6.593   1.729
 4445W        W 8170   9.487   4.587  11.436
 4446W        W 8171   3.199   5.547   0.374
 4447W        W 8172   6.177   4.134   3.778
 4448W        W 8173   4.616   7.097   0.327
 4449W        W 8174   4.551   3.629  11.862
 4450W        W 8175   5.693   1.891   9.081
 4451W        W 8176   8.839   4.641   3.337
 4452W        W 8177   1.266   5.227   9.949
 4453W        W 8178   8.481   3.139   9.954
 4454W        W 8179   7.898   9.042  10.894
 4455W        W 8180   0.831   1.364   2.687
 4456W        W 8181   3.260   9.023   9.534
 4457W        W 8182   7.633   1.872   0.757
 4458W        W 8183   7.436   8.581   8.477
 4459W        W 8184   7.399   7.897   0.297
 4460W        W 8185   8.421   6.503  10.324
 4461W        W 8186   0.736   7.027   9.565
 4462W        W 8187   5.523   5.057   9.381
 4463W        W 8188   6.189   1.306   3.300
 4464W        W 8189   5.175   0.738   8.968
 4465W        W 8190   5.709  10.456   3.150
 4466W        W 8191   5.982   7.506   0.807
 4467W        W 8192   1.208  10.021   1.700
 4468W        W 8193   6.976   5.164   2.827
 4469W        W 8194   7.928   9.993   9.953
 4470W        W 8195   6.478   6.987   0.344
 4471W        W 8196   9.406   9.879   9.024
 4472W        W 8197   9.916   4.542  11.413
 4473W        W 8198   6.067   2.654   3.303
 4474W        W 8199   4.541   9.965   8.991
 4475W        W 8200   4.659   3.608   8.532
 4476W        W 8201   9.061   6.576   3.222
 4477W        W 8202   4.587   6.982   2.642
 4478W        W 8203   2.737   7.442   3.192
 4479W        W 8204   5.575   0.930   0.368
 4480W        W 8205   3.108   5.966   4.203
 4481W        W 8206   9.825   5.634   1.276
 4482W        W 8207   1.733   4.655  10.363
 4483W        W 8208   9.467   9.859  11.437
 4484W        W 8209   7.911   8.869   2.160
 4485W        W 8210   7.060   2.224   9.538
 4486W        W 8211   4.707   1.898   0.388
 4487W        W 8212   4.628   7.441   2.739
 4488W        W 8213   1.418   1.245   9.471
 4489W        W 8214   9.827  10.377   1.705
 4490W        W 8215  10.284   5.154   8.971
 4491W        W 8216   7.503   6.509   9.567
 4492W        W 8217   2.163   2.282  11.970
 4493W        W 8218   8.507   2.836   0.454
 4494W        W 8219   8.489   6.467   0.454
 4495W        W 8220   5.566   5.642   2.646
 4496W        W 8221   5.239   4.261  10.475
 4497W        W 8222   6.527   2.180   8.975
 4498W        W 8223   3.275   8.926   0.941
 4499W        W 8224   4.096   3.624  10.376
 4500W        W 8225   4.604   1.248   1.275
 4501W        W 8226   7.541   1.686  11.868
 4502W        W 8227   7.953   4.101   3.742
 4503W        W 8228   3.675   2.794   9.587
 4504W        W 8229   2.725   4.247  11.487
 4505W        W 8230   9.469   1.859   9.044
 4506W        W 8231   3.605   4.619   4.211
 4507W        W 8232   9.329   3.165  10.352
 4508W        W 8233   7.983   3.287  10.869
 4509W        W 8234   1.280   5.664   1.858
 4510W        W 8235   1.678   7.880   2.314
 4511W        W 8236   8.054   3.630  10.801
 4512W        W 8237   5.212   4.710   2.696
 4513W        W 8238   1.802   7.051  11.926
 4514W        W 8239   6.975   1.298   1.391
 4515W        W 8240   5.510   7.423  11.785
 4516W        W 8241   1.699   4.707   9.368
 4517W        W 8242   8.496   4.234   9.919
 4518W        W 8243   5.199   7.965  11.318
 4519W        W 8244  10.308   6.637   2.653
 4520W        W 8245   4.666   9.905   1.202
 4521W        W 8246  10.384   7.486   2.262
 4522W        W 8247   4.606   3.115   0.396
 4523W        W 8248   1.824   4.645   2.724
 4524W        W 8249   0.253   7.551   3.359
 4525W        W 8250   3.698   9.989  11.992
 4526W        W 8251   7.913   8.382   1.882
 4527W        W 8252   9.458   6.954   8.948
 4528W        W 8253   3.237   0.889   9.534
 4529W        W 8254   1.777   3.332   0.385
 4530W        W 8255   6.046   2.209   9.367
 4531W        W 8256   5.229   7.435   8.499
 4532W        W 8257   6.671   9.051  11.447
 4533W        W 8258   9.008   3.287   3.173
 4534W        W 8259   9.898   2.319   1.267
 4535W        W 8260   1.215   7.081   0.774
 4536W        W 8261   8.538   2.250   8.956
 4537W        W 8262   7.442   2.194   1.686
 4538W        W 8263   8.433   0.391   1.324
 4539W        W 8264  10.442   0.935   9.537
 4540W        W 8265   0.770   3.274   3.629
 4541W        W 8266   9.961   6.611   3.257
 4542W        W 8267   3.753   5.541   2.691
 4543W        W 8268   8.460  10.312   1.700
 4544W        W 8269   8.539   4.288  11.014
 4545W        W 8270   4.156   9.800   8.925
 4546W        W 8271   1.298   2.188   2.205
 4547W        W 8272   7.079   7.419   8.970
 4548W        W 8273   1.209   3.334   9.593
 4549W        W 8274   2.761  10.434  11.000
 4550W        W 8275   8.489   6.032  10.332
 4551W        W 8276   6.600   1.747   1.691
 4552W        W 8277   3.678   8.434  10.442
 4553W        W 8278   4.245   0.306   0.799
 4554W        W 8279   2.233   7.622  10.828
 4555W        W 8280   3.249   2.810   2.827
 4556W        W 8281   1.708   0.269   2.348
 4557W        W 8282   8.503   6.091   8.620
 4558W        W 8283   7.446   2.370   0.339
 4559W        W 8284   6.922   7.578  11.949
 4560W        W 8285   3.242   6.586   9.914
 4561W        W 8286   6.154   3.641  11.989
 4562W        W 8287   2.162   4.671  11.399
 4563W        W 8288   2.323   5.054   1.822
 4564W        W 8289   3.242   7.963  10.514
 4565W        W 8290   0.906   7.915   0.366
 4566W        W 8291  10.399   7.112  10.426
 4567W        W 8292   2.186   5.118   9.515
 4568W        W 8293   4.564   5.101   1.408
 4569W        W 8294   2.373   0.728  11.394
 4570W        W 8295   4.115   8.958   2.329
 4571W        W 8296   7.156   9.501   9.934
 4572W        W 8297   9.800   6.052   3.244
 4573W        W 8298   9.890  10.384   9.022
 4574W        W 8299   7.478   7.419   9.055
 4575W        W 8300   5.700   4.215  11.839
 4576W        W 8301   6.573   7.501   3.307
 4577W        W 8302  10.013   5.718  11.307
 4578W        W 8303   8.863   8.996   2.669
 4579W        W 8304   2.179   3.596  10.502
 4580W        W 8305   5.705   0.326   2.305
 4581W        W 8306   0.454  10.435  11.915
 4582W        W 8307  10.339   1.838   3.331
 4583W        W 8308   0.296   0.258   0.754
 4584W        W 8309   3.212   3.733   1.715
 4585W        W 8310   7.067   8.849  10.496
 4586W        W 8311   7.497   7.155   1.320
 4587W        W 8312   4.771   6.478   2.680
 4588W        W 8313   8.484   7.070  11.485
 4589W        W 8314   6.014   8.589  10.966
 4590W        W 8315   1.355   3.129   1.221
 4591W        W 8316   8.068   9.396   2.248
 4592W        W 8317   6.542   4.287   0.294
 4593W        W 8318   3.223   9.949   1.788
 4594W        W 8319   2.806   7.633   9.072
 4595W        W 8320   0.776   4.290  11.949
 4596W        W 8321   4.231   9.043  11.807
 4597W        W 8322   8.036   7.484   9.051
 4598W        W 8323   3.225   1.210  11.985
 4599W        W 8324   8.091   6.673   9.019
 4600W        W 8325   3.613   1.395  11.512
 4601W        W 8326   3.807   9.522  10.350
 4602W        W 8327   1.699   2.854  11.288
 4603W        W 8328   5.640   9.509   2.279
 4604W        W 8329   9.409  10.422   9.466
 4605W        W 8330   7.151   8.404   0.252
 4606W        W 8331   7.996  10.013   0.907
 4607W        W 8332   9.535   2.849  10.347
 4608W        W 8333   5.183   0.410   9.960
 4609W        W 8334   7.578   8.525   2.216
 4610W        W 8335   7.087   5.158   2.304
 4611W        W 8336   3.168  10.262  10.468
 4612W        W 8337   2.190   3.213   9.975
 4613W        W 8338   2.212   5.709   2.695
 4614W        W 8339   7.945   5.565   3.671
 4615W        W 8340  10.383   6.495   3.178
 4616W        W 8341   7.902   8.849  11.520
 4617W        W 8342   7.892   3.267   2.661
 4618W        W 8343   2.255   0.368   0.315
 4619W        W 8344   0.937   3.747   0.733
 4620W        W 8345   3.702   4.112  10.041
 4621W        W 8346   1.335   6.542  11.319
 4622W        W 8347   6.595   2.347   1.246
 4623W        W 8348   1.257   1.384  11.861
 4624W        W 8349   2.250   9.867   3.284
 4625W        W 8350   9.524   7.132   0.473
 4626W        W 8351   1.351   2.314   1.721
 4627W        W 8352  10.355   9.493   0.352
 4628W        W 8353  10.437   1.843   2.876
 4629W        W 8354   4.640   3.663  11.519
 4630W        W 8355   5.180   1.697   9.888
 4631W        W 8356   7.453   3.771   1.743
 4632W        W 8357   1.271   0.326  11.945
 4633W        W 8358   5.688   7.986   8.997
 4634W        W 8359   9.379   2.314   9.069
 4635W        W 8360   2.361   6.592   3.337
 4636W        W 8361   2.640   7.105  11.909
 4637W        W 8362   5.998   6.526   2.338
 4638W        W 8363   4.592   4.233   0.421
 4639W        W 8364   6.975   0.786   2.715
 4640W        W 8365   5.101   3.177   1.759
 4641W        W 8366   1.285   2.382   2.754
 4642W        W 8367   0.276   5.226   0.739
 4643W        W 8368   7.053   2.829   9.524
 4644W        W 8369   3.706   6.556   3.268
 4645W        W 8370  10.333   8.063   9.379
 4646W        W 8371   1.227   8.918   1.340
 4647W        W 8372   1.825   4.160   0.250
 4648W        W 8373   6.582   7.406  10.901
 4649W        W 8374   9.983   2.725   9.092
 4650W        W 8375   9.822   9.988   8.945
 4651W        W 8376   8.919   9.509  10.428
 4652W        W 8377   3.655   3.292   0.881
 4653W        W 8378   0.916   4.136   9.870
 4654W        W 8379   2.194   4.207  11.365
 4655W        W 8380   1.703   6.600   0.910
 4656W        W 8381   9.006   5.025   1.750
 4657W        W 8382   0.771   1.331  11.488
 4658W        W 8383   3.269   9.367   8.916
 4659W        W 8384   5.509   7.459  11.294
 4660W        W 8385   6.961   2.311  11.337
 4661W        W 8386   5.563   8.426   2.322
 4662W        W 8387   9.400  10.410  11.332
 4663W        W 8388   3.710   1.422   2.327
 4664W        W 8389   5.707   3.795   8.055
 4665W        W 8390   6.601   9.329   2.184
 4666W        W 8391   2.802   3.198   2.229
 4667W        W 8392   5.993   8.588   3.817
 4668W        W 8393   8.554   6.029  11.487
 4669W        W 8394   1.260   1.240   0.250
 4670W        W 8395  10.498   9.835   0.333
 4671W        W 8396   0.263   1.372  10.322
 4672W        W 8397   4.158   6.612   1.840
 4673W        W 8398   3.282   5.250   1.889
 4674W        W 8399   2.781   7.026  10.322
 4675W        W 8400   6.028   1.868   1.337
 4676W        W 8401   6.572   9.014   3.132
 4677W        W 8402   4.115   8.835   0.326
 4678W        W 8403   2.317   1.315   9.578
 4679W        W 8404   4.295   0.371  11.801
 4680W        W 8405   7.495   5.055   4.118
 4681W        W 8406   7.936  10.274   8.996
 4682W        W 8407   0.766   6.971   0.460
 4683W        W 8408   7.953   6.113  11.379
 4684W        W 8409   5.987   7.040  11.882
 4685W        W 8410   6.982   1.256  10.482
 4686W        W 8411   0.829   2.682   0.256
 4687W        W 8412   0.716   4.744  10.462
 4688W        W 8413   9.504   8.965  10.836
 4689W        W 8414   6.164   2.836  11.333
 4690W        W 8415   3.216   1.714   2.654
 4691W        W 8416   6.641   5.624  11.319
 4692W        W 8417   3.741   3.317  10.448
 4693W        W 8418   2.645   8.527   0.845
 4694W        W 8419   4.575   3.186   8.478
 4695W        W 8420   4.547   4.144   8.430
 4696W        W 8421   7.967   6.017  10.976
 4697W        W 8422   8.098   7.537  11.989
 4698W        W 8423   7.972   1.206   9.418
 4699W        W 8424   9.341   6.062   2.295
 4700W        W 8425   7.516   3.818   9.488
 4701W        W 8426   1.422   8.928   9.070
 4702W        W 8427   0.903   4.252  11.367
 4703W        W 8428   8.488   9.027   1.851
 4704W        W 8429   7.941   0.921   0.260
 4705W        W 8430  10.404   6.982   2.724
 4706W        W 8431   4.181   1.677   0.851
 4707W        W 8432   4.664   4.162   4.213
 4708W        W 8433   8.876   9.993   0.412
 4709W        W 8434   9.483   3.271   8.887
 4710W        W 8435   0.247   1.277   0.309
 4711W        W 8436   8.455   4.709   1.242
 4712W        W 8437   3.258   9.531   1.695
 4713W        W 8438   2.221   8.873   8.477
 4714W        W 8439   5.129   7.132   2.838
 4715W        W 8440   9.472   1.415   9.551
 4716W        W 8441   4.089   8.483  11.917
 4717W        W 8442   7.468   3.174  11.284
 4718W        W 8443   6.468   7.104   0.822
 4719W        W 8444   5.175   7.990   1.901
 4720W        W 8445  10.323   6.952   2.161
 4721W        W 8446   9.922   5.987   0.902
 4722W        W 8447   3.713   4.252  11.489
 4723W        W 8448   9.878   3.699  11.867
 4724W        W 8449   4.648   2.803   8.430
 4725W        W 8450   7.597   5.497  10.067
 4726W        W 8451   7.604   7.974  11.495
 4727W        W 8452   8.483  10.473  11.490
 4728W        W 8453   0.789   2.285  10.813
 4729W        W 8454   7.542   5.999   1.846
 4730W        W 8455   4.755   7.910   1.436
 4731W        W 8456   4.219   1.773   3.180
 4732W        W 8457   1.760   0.424  11.439
 4733W        W 8458   4.118   5.579   1.797
 4734W        W 8459   7.511   1.860  10.990
 4735W        W 8460   7.619   6.444   9.936
 4736W        W 8461   7.002   3.333   8.509
 4737W        W 8462   3.760   6.011   9.848
 4738W        W 8463   1.424   2.799  10.386
 4739W        W 8464   2.306   8.403  11.812
 4740W        W 8465   7.957   7.484   0.841
 4741W        W 8466   3.648   6.554   2.166
 4742W        W 8467   2.845   6.556   3.175
 4743W        W 8468   5.230   0.387  11.459
 4744W        W 8469   0.267   8.378   2.276
 4745W        W 8470   3.674   2.216  10.878
 4746W        W 8471   5.128   8.406   1.901
 4747W        W 8472   5.092   0.415   2.239
 4748W        W 8473   4.187   5.583   9.562
 4749W        W 8474   3.736   5.584  10.452
 4750W        W 8475   0.418   2.806   2.726
 4751W        W 8476   9.330   4.257   2.840
 4752W        W 8477   2.318   6.138   3.331
 4753W        W 8478   9.007   4.570  11.369
 4754W        W 8479   6.936   5.100  10.971
 4755W        W 8480   8.038   5.709  11.787
 4756W        W 8481   2.630   9.943  11.389
 4757W        W 8482  10.018  10.359   3.609
 4758W        W 8483   8.917   9.851   8.932
 4759W        W 8484   4.667  10.019   2.299
 4760W        W 8485   5.717   9.312  11.302
 4761W        W 8486   3.214   8.578  10.879
 4762W        W 8487   9.485   6.624   0.822
 4763W        W 8488   2.775  10.361  10.390
 4764W        W 8489   2.161   2.642   0.733
 4765W        W 8490   6.935   1.358   2.696
 4766W        W 8491   8.369   9.432   1.763
 4767W        W 8492   4.656   4.722   9.854
 4768W        W 8493   9.424   7.915   1.296
 4769W        W 8494   3.614   7.944   9.965
 4770W        W 8495   6.180   4.221   1.905
 4771W        W 8496   9.819   2.669  11.463
 4772W        W 8497   6.935   3.149  10.950
 4773W        W 8498   9.023   9.797   8.496
 4774W        W 8499  10.405   6.150  10.385
 4775W        W 8500   2.206   0.272   0.757
 4776W        W 8501   0.777   6.007  11.877
 4777W        W 8502   6.174   5.062  10.896
 4778W        W 8503  10.314   3.760  10.022
 4779W        W 8504   5.585   8.981  11.477
 4780W        W 8505   9.941   6.503   9.916
 4781W        W 8506   4.763   1.336  11.840
 4782W        W 8507   9.841   4.262  11.856
 4783W        W 8508   9.048   7.085   9.453
 4784W        W 8509   4.732   0.350   0.470
 4785W        W 8510   7.428   5.147   3.254
 4786W        W 8511   3.767   9.947   9.594
 4787W        W 8512   8.854   0.916  10.922
 4788W        W 8513   1.424   5.689   1.392
 4789W        W 8514   6.637   1.305   0.889
 4790W        W 8515   0.910   7.540   1.206
 4791W        W 8516  10.402   7.584  11.365
 4792W        W 8517   3.742   9.852   2.744
 4793W        W 8518   6.059   2.168   0.851
 4794W        W 8519   2.257   4.061  11.933
 4795W        W 8520   3.105   7.983   1.221
 4796W        W 8521   1.229   2.763   2.383
 4797W        W 8522   7.063   8.588   2.762
 4798W        W 8523   2.221   3.207   0.744
 4799W        W 8524   7.912   9.820   0.399
 4800W        W 8525   6.962   8.466  10.332
 4801W        W 8526   6.161   8.985   0.809
 4802W        W 8527   9.453   3.801   9.058
 4803W        W 8528   3.316   3.681   2.249
 4804W        W 8529   8.552   9.827  11.880
 4805W        W 8530   5.678   8.543  10.510
 4806W        W 8531   9.012   9.401   2.288
 4807W        W 8532   2.738   0.739  11.849
 4808W        W 8533   1.384  10.388   3.293
 4809W        W 8534   5.505   6.102   2.229
 4810W        W 8535   1.281   7.960  10.526
 4811W        W 8536   9.524   4.750   1.433
 4812W        W 8537   6.001   8.526   2.388
 4813W        W 8538   6.053   8.914   0.427
 4814W        W 8539   4.120   1.848   0.254
 4815W        W 8540   6.019  10.002   9.377
 4816W        W 8541   9.050   1.359   0.856
 4817W        W 8542   4.698   5.024   2.180
 4818W        W 8543   6.551   1.250  10.540
 4819W        W 8544   3.339   3.279   9.010
 4820W        W 8545   8.092   9.432   8.988
 4821W        W 8546   3.666   2.203  10.538
 4822W        W 8547   7.518   7.051   2.216
 4823W        W 8548   8.996   3.791   3.352
 4824W        W 8549   5.018   9.411  11.355
 4825W        W 8550   7.475  10.368   8.551
 4826W        W 8551   0.904   3.756   1.206
 4827W        W 8552   5.596   7.006   9.969
 4828W        W 8553   2.768   7.634  10.985
 4829W        W 8554   9.881   0.335   9.523
 4830W        W 8555   6.552   3.811   0.425
 4831W        W 8556   5.169   7.417   1.820
 4832W        W 8557   9.520   6.095   3.344
 4833W        W 8558   7.428   9.820   2.355
 4834W        W 8559  10.015   8.388  11.314
 4835W        W 8560   5.562   2.238   9.419
 4836W        W 8561   3.122   5.681   2.338
 4837W        W 8562   1.288   4.625   3.231
 4838W        W 8563   7.622   5.711   9.398
 4839W        W 8564   0.751   8.462  10.338
 4840W        W 8565  10.470   1.203   0.321
 4841W        W 8566   4.773   9.327  11.962
 4842W        W 8567   9.067   6.443  10.395
 4843W        W 8568   0.251  10.288   0.950
 4844W        W 8569   6.454   2.833   9.058
 4845W        W 8570   5.012   6.488  11.897
 4846W        W 8571   2.707   7.611   9.420
 4847W        W 8572   5.570   0.766   9.555
 4848W        W 8573   9.905   7.569  10.998
 4849W        W 8574   6.993   4.228   8.960
 4850W        W 8575  10.435   9.422  11.849
 4851W        W 8576   3.198   8.040   3.154
 4852W        W 8577   8.585  10.006   8.921
 4853W        W 8578   3.283   5.657  11.322
 4854W        W 8579   0.472   7.494   2.771
 4855W        W 8580   9.354   5.219   2.779
 4856W        W 8581   3.156   9.544  10.437
 4857W        W 8582   7.405   1.795   8.508
 4858W        W 8583   5.580   6.481  11.397
 4859W        W 8584   6.987   7.156   9.403
 4860W        W 8585   0.406   1.692   0.886
 4861W        W 8586  10.465   0.814   1.859
 4862W        W 8587   1.793   8.355   1.273
 4863W        W 8588   3.250   5.168   3.777
 4864W        W 8589   3.711   1.771  10.364
 4865W        W 8590   0.767   9.455  11.008
 4866W        W 8591   0.245   0.273   9.924
 4867W        W 8592   4.248   1.804  11.998
 4868W        W 8593   5.544   7.894   9.865
 4869W        W 8594   0.436   8.833  10.525
 4870W        W 8595   7.027   6.067  11.475
 4871W        W 8596   0.381   9.384  10.842
 4872W        W 8597   3.700   0.775   3.206
 4873W        W 8598   0.324   8.534   1.254
 4874W        W 8599   4.136   5.498  10.956
 4875W        W 8600   9.928   1.679   3.230
 4876W        W 8601   7.594   2.764  10.839
 4877W        W 8602   5.581   3.216   0.736
 4878W        W 8603   3.275   3.186   0.877
 4879W        W 8604   3.780   5.033  11.796
 4880W        W 8605   2.321   9.329   3.323
 4881W        W 8606   5.636   3.138  10.488
 4882W        W 8607   0.787   9.973  11.872
 4883W        W 8608   8.506   2.777  10.999
 4884W        W 8609   5.026   2.347   0.465
 4885W        W 8610   9.930   3.780   3.188
 4886W        W 8611   5.522   1.352   3.154
 4887W        W 8612   4.141   5.014   2.786
 4888W        W 8613   3.684   7.969   2.733
 4889W        W 8614   0.909  10.431   8.899
 4890W        W 8615   7.472   0.797   1.728
 4891W        W 8616   9.407   8.843   3.225
 4892W        W 8617  10.267   9.800  11.354
 4893W        W 8618   0.386   3.794   9.561
 4894W        W 8619   1.227   1.296   2.732
 4895W        W 8620   0.879   7.433   0.951
 4896W        W 8621   5.579   3.664  11.283
 4897W        W 8622   7.148   8.421   0.724
 4898W        W 8623   3.670   0.316  11.817
 4899W        W 8624   6.144   0.248  10.401
 4900W        W 8625   6.138   5.068   1.377
 4901W        W 8626   7.949   2.269  10.854
 4902W        W 8627   8.995   0.857  10.332
 4903W        W 8628   3.804   5.054   0.855
 4904W        W 8629   3.662   7.889  10.990
 4905W        W 8630   5.086   9.334   2.295
 4906W        W 8631   1.274   4.146   9.555
 4907W        W 8632   4.233   9.416   1.902
 4908W        W 8633   6.509   6.531   0.339
 4909W        W 8634   7.132   3.132  10.351
 4910W        W 8635   3.223  10.362   0.266
 4911W        W 8636   5.198   4.288   0.478
 4912W        W 8637   5.104  10.350   9.410
 4913W        W 8638   0.914   2.177   1.292
 4914W        W 8639   0.294   3.638  11.368
 4915W        W 8640   2.228   8.859   2.877
 4916W        W 8641   0.796   2.348   2.266
 4917W        W 8642   5.533   0.395   1.283
 4918W        W 8643   0.439   2.231   9.974
 4919W        W 8644  10.445   3.148   3.219
 4920W        W 8645   6.150   4.630  10.823
 4921W        W 8646   4.113   5.530  11.511
 4922W        W 8647   2.183   0.299   1.269
 4923W        W 8648   3.746   2.226   0.871
 4924W        W 8649   2.831   8.439   0.278
 4925W        W 8650   6.512   3.160   2.265
 4926W        W 8651   2.150   7.902   1.382
 4927W        W 8652   9.794   7.481   3.126
 4928W        W 8653   8.106   5.602  10.331
 4929W        W 8654   2.278   2.222   3.242
 4930W        W 8655   1.686   1.289   2.686
 4931W        W 8656   4.217   0.429  10.349
 4932W        W 8657   9.458   6.037   1.890
 4933W        W 8658   4.596   1.764  11.923
 4934W        W 8659   8.951   9.961   0.878
 4935W        W 8660   6.543   7.114   1.381
 4936W        W 8661   3.783   5.689   0.837
 4937W        W 8662   8.545   5.661  10.988
 4938W        W 8663   6.596   8.869   9.369
 4939W        W 8664   0.411   3.152  11.961
 4940W        W 8665   3.650   6.605   0.789
 4941W        W 8666   0.883   5.627  11.351
 4942W        W 8667   9.523   3.113   3.288
 4943W        W 8668   7.588   4.574   1.759
 4944W        W 8669   9.471   0.895   9.866
 4945W        W 8670   0.328   8.882  10.028
 4946W        W 8671   7.467   8.542  11.012
 4947W        W 8672   1.825   5.216   9.449
 4948W        W 8673   1.738   3.666   2.225
 4949W        W 8674   5.057   0.366  11.798
 4950W        W 8675   1.881   5.548   2.666
 4951W        W 8676   7.418   7.110  11.385
 4952W        W 8677   8.413   1.685   3.339
 4953W        W 8678  10.389   5.056  11.023
 4954W        W 8679   2.327   7.481  10.499
 4955W        W 8680   8.938   1.741   1.718
 4956W        W 8681   6.017   3.215  11.883
 4957W        W 8682   7.109   2.203   1.425
 4958W        W 8683   4.590   2.180   9.033
 4959W        W 8684   5.984  10.468  11.476
 4960W        W 8685   2.639  10.319   2.179
 4961W        W 8686   3.318   7.938  11.361
 4962W        W 8687   4.091   6.197   1.905
 4963W        W 8688   1.364   7.627   3.616
 4964W        W 8689   9.792   0.812   9.061
 4965W        W 8690   4.541   8.944   0.800
 4966W        W 8691   2.825   8.375  11.831
 4967W        W 8692   7.942   0.284   1.919
 4968W        W 8693   3.231   5.630   3.832
 4969W        W 8694   0.414   6.552   2.742
 4970W        W 8695   7.427   2.634   9.086
 4971W        W 8696   5.526   4.134   4.265
 4972W        W 8697   1.829   0.467   1.275
 4973W        W 8698   4.092   6.481  11.500
 4974W        W 8699   8.968   2.668  11.941
 4975W        W 8700   0.451   4.734   9.101
 4976W        W 8701  10.396   7.513   0.287
 4977W        W 8702   7.569   1.723  11.356
 4978W        W 8703   3.686   4.730   9.043
 4979W        W 8704   8.960   1.325   2.820
 4980W        W 8705   1.788   3.150   8.975
 4981W        W 8706   2.710   0.849   9.414
 4982W        W 8707   7.155   9.962   3.255
 4983W        W 8708   4.236  10.312   1.325
 4984W        W 8709   8.442   0.472   2.303
 4985W        W 8710   2.360   7.064   2.210
 4986W        W 8711   9.422   6.646  11.803
 4987W        W 8712  10.273   8.859  11.391
 4988W        W 8713   4.067   0.721  11.869
 4989W        W 8714   2.306   3.719   2.218
 4990W        W 8715   3.112   5.560   8.919
 4991W        W 8716   0.473   6.039   9.494
 4992W        W 8717   0.941   6.449   3.198
 4993W        W 8718   5.525   2.255   1.357
 4994W        W 8719   2.263   0.348   8.952
 4995W        W 8720   9.068   9.957  11.833
 4996W        W 8721   0.868   6.449   9.925
 4997W        W 8722  10.495   6.545   0.862
 4998W        W 8723   9.417   4.703  11.819
 4999W        W 8724   6.066   6.033  11.034
 5000W        W 8725   6.665   5.098   1.691
 5001W        W 8726   8.534   8.030  11.357
 5002W        W 8727   5.542   0.273   2.661
 5003W        W 8728   6.157   1.810   3.148
 5004W        W 8729   0.865   3.126   3.308
 5005W        W 8730   6.534  10.336  10.543
 5006W        W 8731   5.721   3.709   9.975
 5007W        W 8732   9.851   8.098   2.261
 5008W        W 8733   6.007   6.446   2.741
 5009W        W 8734   5.200  10.448   0.746
 5010W        W 8735   5.512   1.851  10.844
 5011W        W 8736   5.079   8.927   8.982
 5012W        W 8737   8.425   0.319  11.020
 5013W        W 8738   5.184   8.915   9.935
 5014W        W 8739   9.006   1.704  11.491
 5015W        W 8740   3.317   9.992   2.310
 5016W        W 8741   9.353   0.788  10.419
 5017W        W 8742   1.753   7.133   1.359
 5018W        W 8743   5.721   7.561   8.428
 5019W        W 8744   4.691   4.064  11.467
 5020W        W 8745   1.316  10.355   1.415
 5021W        W 8746   3.615  10.287   0.840
 5022W        W 8747   6.518   8.905   2.688
 5023W        W 8748   5.650  10.287   2.665
 5024W        W 8749   4.773   8.356   8.538
 5025W        W 8750   2.809   1.894   1.825
 5026W        W 8751   1.810   2.678   0.325
 5027W        W 8752   1.870   9.027   0.823
 5028W        W 8753   2.338   8.551   9.928
 5029W        W 8754   7.582   6.035  11.425
 5030W        W 8755   9.003   3.757   9.918
 5031W        W 8756   0.946   6.465  10.856
 5032W        W 8757   5.231   8.542   3.273
 5033W        W 8758   4.656   3.275   2.307
 5034W        W 8759   7.453   6.595   8.518
 5035W        W 8760   0.344   4.206  10.891
 5036W        W 8761   0.277   3.307   9.408
 5037W        W 8762   5.628   8.485  11.291
 5038W        W 8763   5.016   1.422   1.863
 5039W        W 8764   6.484   6.603   3.617
 5040W        W 8765   4.068   3.799   3.184
 5041W        W 8766   5.038   1.774  11.843
 5042W        W 8767   1.755   7.911   2.822
 5043W        W 8768   6.626   7.631   8.883
 5044W        W 8769   9.067   5.185   2.800
 5045W        W 8770  10.333   8.833  10.355
 5046W        W 8771   0.461   9.821   0.721
 5047W        W 8772   1.212  10.341   2.695
 5048W        W 8773   7.915   2.262  11.499
 5049W        W 8774   5.241   7.505   2.216
 5050W        W 8775   2.717   6.522   9.570
 5051W        W 8776   2.637   0.293   2.237
 5052W        W 8777   7.452   2.201   2.650
 5053W        W 8778   5.119   9.312   9.005
 5054W        W 8779   1.256   4.749   8.890
 5055W        W 8780   9.542   3.698   1.698
 5056W        W 8781   1.294   7.444  10.400
 5057W        W 8782   9.503   8.435  10.965
 5058W        W 8783   5.074   3.124   9.841
 5059W        W 8784   9.899   5.054   9.053
 5060W        W 8785   0.925   4.175   9.510
 5061W        W 8786   7.902   0.947   9.520
 5062W        W 8787   8.899   7.884   0.794
 5063W        W 8788   9.792   1.372  11.891
 5064W        W 8789  10.265   8.067  10.508
 5065W        W 8790   3.107   1.381   2.702
 5066W        W 8791   8.487   8.587  10.878
 5067W        W 8792  10.270   7.551  11.904
 5068W        W 8793   4.196   7.096  11.860
 5069W        W 8794   5.632   2.222  11.962
 5070W        W 8795   0.351   2.714  11.502
 5071W        W 8796   6.192   8.429   0.817
 5072W        W 8797   7.041   6.977   1.915
 5073W        W 8798   4.699   1.226   0.263
 5074W        W 8799   3.313   8.072  11.965
 5075W        W 8800   0.458   4.659   2.781
 5076W        W 8801   4.583   0.376   0.810
 5077W        W 8802   2.327   0.768  11.022
 5078W        W 8803  10.015   3.172   0.449
 5079W        W 8804   0.435   8.834   2.383
 5080W        W 8805   6.181   2.237   0.391
 5081W        W 8806   2.686   8.935  11.371
 5082W        W 8807   5.542   6.606   0.375
 5083W        W 8808   0.283   7.935  10.882
 5084W        W 8809   0.877   9.855  10.815
 5085W        W 8810   6.030   9.378   2.789
 5086W        W 8811   7.053   7.047   2.640
 5087W        W 8812  10.315   5.974  11.929
 5088W        W 8813   3.288   7.447  11.343
 5089W        W 8814   1.793   1.206   2.372
 5090W        W 8815   0.355   2.745   2.345
 5091W        W 8816   7.453   0.414   0.734
 5092W        W 8817   9.804   7.636   2.875
 5093W        W 8818   9.024   3.703   1.277
 5094W        W 8819   7.104   9.891   8.997
 5095W        W 8820   1.240   0.429  10.803
 5096W        W 8821   6.571   4.180   3.640
 5097W        W 8822   9.936   6.674  10.320
 5098W        W 8823  10.019   3.296   2.251
 5099W        W 8824   1.827   9.477   0.843
 5100W        W 8825   9.855   2.758  10.531
 5101W        W 8826   0.923  10.396   9.913
 5102W        W 8827   6.074   0.423   3.331
 5103W        W 8828   9.400   8.066   0.443
 5104W        W 8829   1.808  10.274   9.858
 5105W        W 8830   3.246   5.018  10.503
 5106W        W 8831   2.651   9.428  10.404
 5107W        W 8832   3.611   4.229  10.504
 5108W        W 8833   2.276   8.581   0.864
 5109W        W 8834   6.185   3.689   2.337
 5110W        W 8835   3.182   8.019  10.857
 5111W        W 8836  10.318   9.440   3.122
 5112W        W 8837   3.665   1.390   8.930
 5113W        W 8838   6.128   5.629   2.200
 5114W        W 8839   5.974   3.220   1.260
 5115W        W 8840   4.175   6.008  11.011
 5116W        W 8841   4.659   8.951  11.503
 5117W        W 8842   2.345   4.576   9.446
 5118W        W 8843   7.491   3.761   8.563
 5119W        W 8844   4.671   7.505   2.267
 5120W        W 8845   8.467   5.569   2.688
 5121W        W 8846   5.162   8.881  11.812
 5122W        W 8847   7.145   3.233   9.380
 5123W        W 8848   0.449   7.897   3.289
 5124W        W 8849   4.757   2.738  11.337
 5125W        W 8850   9.957   3.260   1.425
 5126W        W 8851   3.731   3.689   3.227
 5127W        W 8852   2.804  10.007   0.875
 5128W        W 8853   2.700   5.208   9.440
 5129W        W 8854   2.790   1.373   2.336
 5130W        W 8855   6.164   1.243  11.011
 5131W        W 8856   2.830   3.136  10.330
 5132W        W 8857   4.097   7.579   8.892
 5133W        W 8858   6.488   7.494   3.719
 5134W        W 8859   1.403   6.004   2.361
 5135W        W 8860   9.489   6.082  10.373
 5136W        W 8861   5.169   9.322   1.722
 5137W        W 8862   3.706   1.341   3.306
 5138W        W 8863   3.598   9.475   9.386
 5139W        W 8864   9.804   0.400   2.259
 5140W        W 8865   5.113   2.265  11.295
 5141W        W 8866   2.214   1.709   0.954
 5142W        W 8867   7.080   9.493   2.264
 5143W        W 8868   9.315  10.449   8.893
 5144W        W 8869   5.234   5.585   1.705
 5145W        W 8870   1.410   7.102   9.425
 5146W        W 8871   8.847   0.939   0.250
 5147W        W 8872   9.314   7.596   9.539
 5148W        W 8873   9.059   0.948   1.358
 5149W        W 8874   6.608   6.080   1.341
 5150W        W 8875   0.892   4.539  11.969
 5151W        W 8876   6.536   3.646  11.353
 5152W        W 8877   8.946   7.041   1.308
 5153W        W 8878   6.482   8.430  11.434
 5154W        W 8879   4.543   0.465   8.530
 5155W        W 8880   9.313   3.642  11.919
 5156W        W 8881   2.382   0.808   0.467
 5157W        W 8882   1.325  10.420   2.172
 5158W        W 8883   8.515  10.317   9.375
 5159W        W 8884   8.355   1.260   2.869
 5160W        W 8885   3.801   7.402   8.592
 5161W        W 8886   2.356   6.632  10.535
 5162W        W 8887   5.596   6.679   9.976
 5163W        W 8888   3.271   6.634   0.456
 5164W        W 8889   4.626   1.228   9.897
 5165W        W 8890   6.608   6.623  10.832
 5166W        W 8891   2.354   6.990  10.970
 5167W        W 8892   3.595   7.491   0.433
 5168W        W 8893   5.060   4.292  11.948
 5169W        W 8894   0.298   6.994   3.127
 5170W        W 8895   6.510   0.763  11.518
 5171W        W 8896   2.789   5.592   0.339
 5172W        W 8897   3.703   0.376   9.093
 5173W        W 8898   4.769   7.970   0.866
 5174W        W 8899   8.484   2.704  11.800
 5175W        W 8900   8.914   7.068   8.418
 5176W        W 8901   4.682   6.609   9.554
 5177W        W 8902   9.926  10.291   9.969
 5178W        W 8903   1.874   5.233  11.439
 5179W        W 8904   9.902   4.187   0.755
 5180W        W 8905   8.063   6.129   1.798
 5181W        W 8906   1.803  10.448   1.807
 5182W        W 8907   6.181   0.883   1.880
 5183W        W 8908   4.148   6.978   2.242
 5184W        W 8909   2.210   0.898   2.306
 5185W        W 8910   7.523   6.178   8.401
 5186W        W 8911   7.604   4.576   0.300
 5187W        W 8912   2.628   8.017   8.986
 5188W        W 8913   7.063   5.999   1.234
 5189W        W 8914   9.004   9.313   9.446
 5190W        W 8915   7.446   2.720   0.408
 5191W        W 8916   5.712   1.322   2.654
 5192W        W 8917   0.282   5.986  10.807
 5193W        W 8918   4.203   2.796  10.510
 5194W        W 8919   3.186   9.805   3.191
 5195W        W 8920   6.096   7.957   9.442
 5196W        W 8921   1.402   7.439   0.729
 5197W        W 8922   8.099   7.016  11.505
 5198W        W 8923   5.115   2.757  11.908
 5199W        W 8924   0.374   3.653  11.963
 5200W        W 8925   4.577   7.415   4.212
 5201W        W 8926   8.883   2.665   2.166
 5202W        W 8927   2.708   5.585  11.006
 5203W        W 8928   6.971   2.751   2.706
 5204W        W 8929   0.411   7.933  11.997
 5205W        W 8930  10.287   1.695   0.364
 5206W        W 8931   1.318   6.009   1.225
 5207W        W 8932   2.303   3.717  11.906
 5208W        W 8933   2.678   3.331   0.834
 5209W        W 8934   8.444   7.932   1.793
 5210W        W 8935   6.553   0.464   9.416
 5211W        W 8936   3.209   3.228  11.768
 5212W        W 8937   2.338   3.290  11.354
 5213W        W 8938   0.421   2.216   0.459
 5214W        W 8939   5.166   8.941   0.464
 5215W        W 8940   6.530   7.634   2.200
 5216W        W 8941   4.748   0.846  11.426
 5217W        W 8942   1.708   1.338  10.825
 5218W        W 8943   9.435   4.253  11.023
 5219W        W 8944   3.742   1.771   9.906
 5220W        W 8945   0.746  10.307  10.531
 5221W        W 8946   7.622   1.357   1.317
 5222W        W 8947   5.120   9.028  10.558
 5223W        W 8948   5.630   8.376   8.436
 5224W        W 8949   8.048   0.933   0.826
 5225W        W 8950   4.586   4.188   3.315
 5226W        W 8951   8.481  10.007   2.264
 5227W        W 8952  10.440   8.922   0.450
 5228W        W 8953   1.863   8.973   2.261
 5229W        W 8954   5.617   7.075  11.895
 5230W        W 8955   4.699   2.220   1.226
 5231W        W 8956   5.112   4.575   9.863
 5232W        W 8957   3.280   8.959  10.436
 5233W        W 8958   2.769   0.833   9.939
 5234W        W 8959   6.926   3.766  11.341
 5235W        W 8960   1.373   2.331   9.098
 5236W        W 8961   3.746   6.991   1.806
 5237W        W 8962  10.383   9.882   0.949
 5238W        W 8963   2.724  10.429   1.341
 5239W        W 8964   3.599   9.435   1.871
 5240W        W 8965   5.614   4.569  11.896
 5241W        W 8966   1.847   4.219   2.171
 5242W        W 8967  10.406   5.706   1.842
 5243W        W 8968   0.337   7.082  10.037
 5244W        W 8969   2.292   7.491   8.459
 5245W        W 8970   2.661   5.197  10.932
 5246W        W 8971   5.060   0.343   9.573
 5247W        W 8972   0.816   9.045  10.835
 5248W        W 8973   9.449   0.901   2.245
 5249W        W 8974   4.251   0.315   9.061
 5250W        W 8975   9.929   1.908   1.763
 5251W        W 8976   8.078   6.670   1.330
 5252W        W 8977   6.643   6.636  11.822
 5253W        W 8978   0.352   5.582   8.955
 5254W        W 8979   3.156   1.869   0.307
 5255W        W 8980   5.509   8.849  10.947
 5256W        W 8981   0.868   8.962   8.485
 5257W        W 8982   9.348   9.049  11.308
 5258W        W 8983   6.176   0.818   0.815
 5259W        W 8984   5.985   6.546   1.788
 5260W        W 8985   1.335   1.814   9.390
 5261W        W 8986   5.493   8.046   8.606
 5262W        W 8987   4.579   3.206   1.814
 5263W        W 8988  10.351   1.392   8.946
 5264W        W 8989   2.799   5.499   2.662
 5265W        W 8990   9.367   6.996   1.802
 5266W        W 8991  10.443   7.614   2.789
 5267W        W 8992   0.240  10.391   2.708
 5268W        W 8993   2.188   9.003  10.468
 5269W        W 8994   9.431   9.494   9.537
 5270W        W 8995   7.630   8.017   9.440
 5271W        W 8996   6.473   4.166   8.460
 5272W        W 8997   8.960   2.169  10.076
 5273W        W 8998   2.802   3.695   0.247
 5274W        W 8999   3.648   3.223   1.435
 5275W        W 9000   7.469  10.396   3.302
 5276W        W 9001   1.320   3.657   3.359
 5277W        W 9002   8.886   0.735   9.541
 5278W        W 9003   4.690   6.005   2.396
 5279W        W 9004   2.713   5.697   9.556
 5280W        W 9005   6.611   1.674  10.911
 5281W        W 9006   5.722   9.838  10.381
 5282W        W 9007   1.850   9.929   2.323
 5283W        W 9008   4.182   5.030   1.798
 5284W        W 9009   5.590   8.916   9.901
 5285W        W 9010   5.505   7.098   8.134
 5286W        W 9011   5.574   8.895  11.837
 5287W        W 9012   3.207   4.204   1.810
 5288W        W 9013   1.769   6.189   3.120
 5289W        W 9014   3.146   7.607   9.378
 5290W        W 9015   3.794   6.102   3.771
 5291W        W 9016   9.427   8.971   1.381
 5292W        W 9017   0.258  10.397   9.372
 5293W        W 9018   1.351   7.496   2.799
 5294W        W 9019   9.009   2.303   2.713
 5295W        W 9020   6.543   0.912   2.337
 5296W        W 9021   6.143  10.274   9.452
 5297W        W 9022   8.416   9.051  10.872
 5298W        W 9023   0.456   8.531   0.286
 5299W        W 9024   2.367   1.702   1.250
 5300W        W 9025  10.354   6.681  11.864
 5301W        W 9026   4.243   6.020   0.290
 5302W        W 9027   2.862   9.805   9.597
 5303W        W 9028   7.036   5.976   2.286
 5304W        W 9029   9.045   5.225   9.857
 5305W        W 9030  10.405   4.585   0.927
 5306W        W 9031   2.311   9.804   0.949
 5307W        W 9032   4.149   2.157   0.921
 5308W        W 9033   0.810   1.755   8.882
 5309W        W 9034   6.671   3.258   1.316
 5310W        W 9035   5.496   3.285   8.456
 5311W        W 9036   5.714   9.828   3.707
 5312W        W 9037   5.075   8.896   1.398
 5313W        W 9038   5.209   2.841   3.746
 5314W        W 9039   7.997   1.899   0.388
 5315W        W 9040   7.590   6.527   1.802
 5316W        W 9041   1.681   5.982  10.841
 5317W        W 9042   0.381   0.819   8.888
 5318W        W 9043   5.697   2.657   0.818
 5319W        W 9044   8.393   5.724   8.632
 5320W        W 9045   0.439   5.706   0.477
 5321W        W 9046   7.461   4.709   3.725
 5322W        W 9047   8.057   5.538   0.953
 5323W        W 9048   7.941   2.206   0.744
 5324W        W 9049   0.293  10.477  11.365
 5325W        W 9050   8.068   5.973   3.203
 5326W        W 9051   6.998   7.880  10.440
 5327W        W 9052   7.978  10.462   1.860
 5328W        W 9053   6.150  10.411   0.934
 5329W        W 9054   7.403   4.646   9.914
 5330W        W 9055   3.697   2.715   0.834
 5331W        W 9056   4.589   2.315   3.314
 5332W        W 9057   3.717   4.091   2.183
 5333W        W 9058   2.201   7.157   9.885
 5334W        W 9059   7.578   9.850  10.004
 5335W        W 9060   1.403   1.879   2.324
 5336W        W 9061   6.077   4.593   1.710
 5337W        W 9062   9.439   2.698  11.419
 5338W        W 9063   3.205   3.658   0.730
 5339W        W 9064   9.434   3.812   2.652
 5340W        W 9065   5.500   4.648   2.206
 5341W        W 9066   0.424   3.709   2.661
 5342W        W 9067   4.254   7.459  11.456
 5343W        W 9068   8.529   4.231   2.276
 5344W        W 9069  10.494   5.631   0.916
 5345W        W 9070   0.869  10.474   9.381
 5346W        W 9071   8.411   5.578  10.022
 5347W        W 9072  10.455   2.645  10.391
 5348W        W 9073   5.666   1.386   1.765
 5349W        W 9074   8.874   6.613   8.993
 5350W        W 9075   8.049   5.058   1.343
 5351W        W 9076   7.445   4.724   4.259
 5352W        W 9077   3.589   5.653   2.172
 5353W        W 9078  10.310   1.421  11.945
 5354W        W 9079   8.989   8.542   1.813
 5355W        W 9080   5.671   3.818   9.041
 5356W        W 9081   8.009   9.423   1.201
 5357W        W 9082   8.978   4.225   9.592
 5358W        W 9083   8.914   8.555   9.907
 5359W        W 9084   3.789   3.112   9.005
 5360W        W 9085   7.012   6.949   2.330
 5361W        W 9086   5.585  10.004   8.500
 5362W        W 9087   7.569   9.025  11.474
 5363W        W 9088   9.317   6.998   1.223
 5364W        W 9089   0.392   5.104   2.851
 5365W        W 9090   6.668   6.475   9.905
 5366W        W 9091   9.825   9.539   3.134
 5367W        W 9092   9.465   7.028   2.310
 5368W        W 9093   4.184   6.445  10.495
 5369W        W 9094   3.580   0.473   1.885
 5370W        W 9095   6.088   3.224   8.571
 5371W        W 9096   8.415   4.254   0.253
 5372W        W 9097   8.553   5.172  11.008
 5373W        W 9098   0.463   5.043   9.389
 5374W        W 9099   5.518   6.002   9.386
 5375W        W 9100   9.457  10.322   2.355
 5376W        W 9101   6.980   8.917   1.251
 5377W        W 9102   9.355   4.759   3.306
 5378W        W 9103   5.195   6.133  10.420
 5379W        W 9104   1.391   4.601   1.868
 5380W        W 9105   9.308  10.470   1.224
 5381W        W 9106   0.329   3.157   1.213
 5382W        W 9107   7.104   0.723  11.920
 5383W        W 9108   0.265   3.765   1.306
 5384W        W 9109   0.772   6.651  11.920
 5385W        W 9110   0.422   3.768   0.856
 5386W        W 9111   0.340   9.513  11.499
 5387W        W 9112   3.305   1.698   9.525
 5388W        W 9113   1.343  10.343  10.802
 5389W        W 9114   4.644   1.738   1.412
 5390W        W 9115   5.088   8.097   3.309
 5391W        W 9116   3.258   2.150   9.021
 5392W        W 9117   5.518   5.545  10.342
 5393W        W 9118  10.400   4.093   1.330
 5394W        W 9119   7.609   5.025   0.844
 5395W        W 9120   1.872   6.480  10.400
 5396W        W 9121   7.141   4.758  10.940
 5397W        W 9122   0.805   9.788   1.255
 5398W        W 9123   5.713   3.766   9.510
 5399W        W 9124  10.450   0.448  11.400
 5400W        W 9125   6.549   1.282   1.432
 5401W        W 9126   3.743   8.401   9.467
 5402W        W 9127   6.552   0.860  10.968
 5403W        W 9128   1.302   1.840   0.863
 5404W        W 9129   1.357   2.779   9.845
 5405W        W 9130   6.038   6.671   0.813
 5406W        W 9131   2.628   6.551   1.416
 5407W        W 9132   3.159   3.307   3.769
 5408W        W 9133  10.401   1.305  11.497
 5409W        W 9134   9.011   5.980   0.475
 5410W        W 9135   9.912   1.279   3.217
 5411W        W 9136   8.543   5.187   9.969
 5412W        W 9137   3.776   7.505  10.928
 5413W        W 9138   8.013   0.739  11.776
 5414W        W 9139   8.974   4.278   1.835
 5415W        W 9140   8.017  10.490   3.201
 5416W        W 9141   3.656  10.431   9.860
 5417W        W 9142   0.855   7.078  11.951
 5418W        W 9143   7.399   8.363   9.497
 5419W        W 9144   3.703   4.550   9.967
 5420W        W 9145   9.066   1.292  11.379
 5421W        W 9146   7.626   8.438   2.673
 5422W        W 9147   1.823   7.003   0.908
 5423W        W 9148   3.744   0.319  10.413
 5424W        W 9149   8.942   4.086  10.862
 5425W        W 9150   9.938   9.438  10.397
 5426W        W 9151   5.039   6.014   2.807
 5427W        W 9152   3.681   8.835   0.474
 5428W        W 9153   8.503   8.105   0.371
 5429W        W 9154   9.786   4.537   9.581
 5430W        W 9155   7.422   2.198   2.325
 5431W        W 9156   7.908   4.177  11.345
 5432W        W 9157   8.457   4.552   2.372
 5433W        W 9158   8.980   1.809   2.347
 5434W        W 9159   1.834   4.268   9.475
 5435W        W 9160   5.586   5.113   1.773
 5436W        W 9161   5.508   4.280   0.373
 5437W        W 9162   8.856   1.245  10.860
 5438W        W 9163   3.257   6.947  11.399
 5439W        W 9164   9.804   7.891   2.755
 5440W        W 9165   4.183   3.755   1.230
 5441W        W 9166   1.308   4.713  10.070
 5442W        W 9167   2.289   9.369   0.472
 5443W        W 9168   5.702   2.655   0.480
 5444W        W 9169   3.152   5.202   0.730
 5445W        W 9170   8.924   6.156   0.945
 5446W        W 9171   7.405   9.976   2.878
 5447W        W 9172   1.896   5.544   9.961
 5448W        W 9173   8.960   8.503   3.246
 5449W        W 9174   9.328   0.301  11.992
 5450W        W 9175   4.274   1.205   2.779
 5451W        W 9176   0.822   9.834   0.469
 5452W        W 9177   8.011   0.435   0.384
 5453W        W 9178   1.829  10.291  10.961
 5454W        W 9179   0.361   2.300   2.826
 5455W        W 9180   4.183   5.501   0.786
 5456W        W 9181   5.509   9.021   9.447
 5457W        W 9182   5.702   5.210   8.947
 5458W        W 9183   3.225   4.066   2.191
 5459W        W 9184   6.567   7.941  11.487
 5460W        W 9185   7.962   5.219  10.436
 5461W        W 9186   3.215   9.538   1.307
 5462W        W 9187   1.681   0.263   9.958
 5463W        W 9188   5.100   5.584  11.456
 5464W        W 9189   6.600   8.081   3.322
 5465W        W 9190   2.386   4.751   1.692
 5466W        W 9191   9.911   0.809  11.798
 5467W        W 9192   5.057   7.522  11.516
 5468W        W 9193   5.069   1.750   1.315
 5469W        W 9194   2.801   3.227   1.703
 5470W        W 9195   1.330   0.369  10.444
 5471W        W 9196   4.591   7.972  10.396
 5472W        W 9197   1.841   3.215  11.780
 5473W        W 9198   5.622   8.364  11.002
 5474W        W 9199   7.604   7.584   1.901
 5475W        W 9200   2.828   8.478   2.253
 5476W        W 9201   1.851   2.177   0.865
 5477W        W 9202   3.340   3.584   0.349
 5478W        W 9203   8.534   2.167   9.556
 5479W        W 9204   1.734   1.204  11.514
 5480W        W 9205   3.620   1.757   2.789
 5481W        W 9206   1.325   9.521  10.371
 5482W        W 9207   1.836   0.411   8.564
 5483W        W 9208   0.264   9.320  10.514
 5484W        W 9209   3.723  10.452   2.878
 5485W        W 9210   4.226   7.543   2.646
 5486W        W 9211   0.790   3.174   1.306
 5487W        W 9212   3.596   5.684   1.899
 5488W        W 9213   4.088   9.533   9.406
 5489W        W 9214   4.270   7.546  10.500
 5490W        W 9215   1.828   1.405   3.128
 5491W        W 9216   5.060  10.001   3.358
 5492W        W 9217   0.322   7.612   2.378
 5493W        W 9218   1.701   5.542   2.361
 5494W        W 9219   4.591   0.939   8.950
 5495W        W 9220   0.419   3.770   3.181
 5496W        W 9221   4.099   5.077   9.426
 5497W        W 9222   2.205   2.820   8.411
 5498W        W 9223   7.935   5.035  11.797
 5499W        W 9224   8.049   8.523   0.804
 5500W        W 9225   3.196   7.434  10.396
 5501W        W 9226   7.106   0.940   3.198
 5502W        W 9227   0.904   3.232  11.023
 5503W        W 9228  10.321   9.463   1.882
 5504W        W 9229   5.971   8.931   3.280
 5505W        W 9230   0.864   0.368   8.987
 5506W        W 9231   6.059   6.158   1.778
 5507W        W 9232   4.113   9.815   3.173
 5508W        W 9233   6.967   4.572   3.711
 5509W        W 9234   9.506   3.266   9.973
 5510W        W 9235   4.679   4.197  11.020
 5511W        W 9236   5.025   2.346   9.451
 5512W        W 9237   1.396   4.176  11.012
 5513W        W 9238   8.479   7.036   8.621
 5514W        W 9239   9.399   0.808   9.007
 5515W        W 9240   9.023   1.813   8.895
 5516W        W 9241   5.148   6.011   9.526
 5517W        W 9242   5.986   1.741   0.425
 5518W        W 9243   0.854   6.507   2.797
 5519W        W 9244   4.285   3.647  11.988
 5520W        W 9245   3.295   6.049   8.571
 5521W        W 9246   0.748   8.973   9.036
 5522W        W 9247   6.034   1.695   8.462
 5523W        W 9248   4.726   9.524   0.321
 5524W        W 9249   0.887   1.900   0.310
 5525W        W 9250  10.326   4.725   2.749
 5526W        W 9251   8.586   7.538   0.746
 5527W        W 9252   9.538   1.764   9.569
 5528W        W 9253   9.983   1.385  11.309
 5529W        W 9254   4.132   3.103   2.722
 5530W        W 9255   2.628   2.368  10.517
 5531W        W 9256   4.170   5.170   1.418
 5532W        W 9257   7.504   8.953   0.450
 5533W        W 9258   4.609   1.701  10.457
 5534W        W 9259   6.053   7.615   8.143
 5535W        W 9260   9.460   6.150   0.849
 5536W        W 9261   8.457   6.156   2.703
 5537W        W 9262   3.178   6.975   1.251
 5538W        W 9263   2.858   9.904   2.245
 5539W        W 9264   9.315   3.628   2.333
 5540W        W 9265   6.585   2.275  11.018
 5541W        W 9266   6.204   9.845  11.913
 5542W        W 9267   6.496   2.250  11.311
 5543W        W 9268   6.077   4.567  11.883
 5544W        W 9269   7.153   6.574   8.512
 5545W        W 9270   7.046   1.761  11.384
 5546W        W 9271   1.415   7.916   1.856
 5547W        W 9272   8.838   7.116  11.817
 5548W        W 9273   9.460   2.201  10.826
 5549W        W 9274   0.435   6.921  11.936
 5550W        W 9275   7.509   7.889   2.276
 5551W        W 9276   1.193  10.443   0.398
 5552W        W 9277   0.292   7.556   1.708
 5553W        W 9278   3.324   3.585  10.848
 5554W        W 9279   5.677  10.335  10.924
 5555W        W 9280   2.767   8.974  11.868
 5556W        W 9281   1.240   0.826   2.703
 5557W        W 9282   4.559  10.298   3.286
 5558W        W 9283   8.990   8.856  10.949
 5559W        W 9284   2.205   2.674   9.375
 5560W        W 9285   9.544   8.085   2.714
 5561W        W 9286   6.652   5.565  10.556
 5562W        W 9287   6.642   1.833   0.275
 5563W        W 9288   3.106   2.281  10.429
 5564W        W 9289   5.526   8.371  10.006
 5565W        W 9290   7.539   1.374   2.704
 5566W        W 9291   8.008   8.004  10.348
 5567W        W 9292  10.372   2.796   9.408
 5568W        W 9293   1.799   5.232  11.005
 5569W        W 9294   6.974   9.874   3.664
 5570W        W 9295   1.429   4.094   0.908
 5571W        W 9296   9.908   2.785   9.516
 5572W        W 9297   0.734   0.464   1.211
 5573W        W 9298   6.561   0.837   9.014
 5574W        W 9299   4.553   9.998   1.751
 5575W        W 9300   7.628   9.009   3.261
 5576W        W 9301   8.904   1.378   3.134
 5577W        W 9302   7.928   8.072   2.366
 5578W        W 9303   5.632   2.713   2.165
 5579W        W 9304   2.297   8.894   3.162
 5580W        W 9305   7.102   9.817  11.805
 5581W        W 9306   0.795  10.283  11.517
 5582W        W 9307   8.472   3.145   1.373
 5583W        W 9308   8.957   6.067  11.349
 5584W        W 9309   8.365   2.166  10.949
 5585W        W 9310   3.313   7.533   0.371
 5586W        W 9311   8.527   7.083   0.765
 5587W        W 9312   4.220   0.344   1.728
 5588W        W 9313   0.873   4.609   1.374
 5589W        W 9314   0.838  10.406   8.511
 5590W        W 9315   3.284   9.867   0.933
 5591W        W 9316   5.582   4.285   1.305
 5592W        W 9317   7.426   3.215  10.884
 5593W        W 9318   3.681   3.685   2.301
 5594W        W 9319   7.914   9.887   3.234
 5595W        W 9320   9.962   4.597   2.269
 5596W        W 9321   6.460   6.134   0.721
 5597W        W 9322   9.829   4.762  10.954
 5598W        W 9323  10.332   6.193  11.284
 5599W        W 9324   4.267   0.742   9.057
 5600W        W 9325   1.812   7.402   0.957
 5601W        W 9326   4.083   9.409   0.866
 5602W        W 9327   0.914   2.166  11.847
 5603W        W 9328   5.505   7.034   2.723
 5604W        W 9329   4.551   6.493  10.917
 5605W        W 9330   5.689   2.777  11.310
 5606W        W 9331   7.453   8.846   0.833
 5607W        W 9332   2.732   8.973   0.380
 5608W        W 9333   8.089   4.263   3.341
 5609W        W 9334   7.971   5.084   2.657
 5610W        W 9335   6.527   2.852  11.443
 5611W        W 9336   7.905   5.111   1.819
 5612W        W 9337   1.364   1.875   1.250
 5613W        W 9338   9.955   2.385   2.195
 5614W        W 9339   8.383   2.381  10.375
 5615W        W 9340   3.679   0.286   9.844
 5616W        W 9341   8.943   3.202   2.163
 5617W        W 9342   3.791   9.463   8.472
 5618W        W 9343   7.479   1.849   2.168
 5619W        W 9344   8.892   2.780   0.280
 5620W        W 9345   7.025   6.986  11.777
 5621W        W 9346   5.185   2.252  10.552
 5622W        W 9347   6.026   8.000   2.380
 5623W        W 9348  10.315   2.248   0.935
 5624W        W 9349   6.115   4.668   1.408
 5625W        W 9350   2.346   3.214   2.835
 5626W        W 9351   1.812   4.655   3.305
 5627W        W 9352   7.541   6.503   3.181
 5628W        W 9353   7.091  10.263  10.952
 5629W        W 9354   2.279  10.387   9.412
 5630W        W 9355   7.987   0.248   9.596
 5631W        W 9356   2.824   8.434   3.321
 5632W        W 9357   3.131   0.324  10.875
 5633W        W 9358   2.244  10.334   1.887
 5634W        W 9359   8.364   9.361   9.111
 5635W        W 9360   0.741  10.002  11.372
 5636W        W 9361   7.518   2.739  10.378
 5637W        W 9362   8.469   6.681   9.573
 5638W        W 9363   6.997  10.278   1.305
 5639W        W 9364   4.588   0.383  11.004
 5640W        W 9365   0.252   4.636   1.348
 5641W        W 9366   0.767  10.359  11.994
 5642W        W 9367   2.700   8.475   9.492
 5643W        W 9368   3.130   4.194   0.315
 5644W        W 9369   4.762  10.413   1.262
 5645W        W 9370   0.306   9.506   1.725
 5646W        W 9371   0.769   4.728   9.091
 5647W        W 9372  10.315   2.310  10.527
 5648W        W 9373   6.930   9.952  10.070
 5649W        W 9374   4.745   7.047  11.821
 5650W        W 9375   5.695   3.301  10.803
 5651W        W 9376  10.456   1.671   1.257
 5652W        W 9377   4.145   2.708   0.890
 5653W        W 9378   0.892   2.378   3.230
 5654W        W 9379   1.809   0.747  11.390
 5655W        W 9380   3.264   8.565  11.980
 5656W        W 9381   6.023   7.916   4.295
 5657W        W 9382   8.523   8.353   1.345
 5658W        W 9383   8.503   5.088  11.762
 5659W        W 9384   2.306   4.628  11.803
 5660W        W 9385   9.415   4.163  10.360
 5661W        W 9386   2.342   3.285   8.635
 5662W        W 9387   5.513   7.499   9.476
 5663W        W 9388   6.654   3.165   0.931
 5664W        W 9389   8.025   1.800   9.845
 5665W        W 9390   3.246   3.337   1.751
 5666W        W 9391   4.589  10.354   0.726
 5667W        W 9392   1.746   4.604   0.882
 5668W        W 9393   2.658   4.066   2.798
 5669W        W 9394   1.200   1.883   8.965
 5670W        W 9395   4.733   0.419   2.161
 5671W        W 9396   5.643   6.176   3.196
 5672W        W 9397   1.678   4.104  11.859
 5673W        W 9398   4.754   8.085  11.026
 5674W        W 9399   0.721   5.686  10.480
 5675W        W 9400   0.408  10.286  10.384
 5676W        W 9401   2.378   7.083   1.729
 5677W        W 9402   9.861   8.431  10.406
 5678W        W 9403   3.681   9.790   1.792
 5679W        W 9404   5.189   2.677   2.654
 5680W        W 9405   5.160   1.704   9.061
 5681W        W 9406   8.530   0.358   3.128
 5682W        W 9407   7.002   1.363   1.773
 5683W        W 9408   8.864   2.229  11.779
 5684W        W 9409   2.155   9.471   2.183
 5685W        W 9410   3.327   0.879   8.508
 5686W        W 9411   5.076   8.541   1.321
 5687W        W 9412   2.322   6.045   0.474
 5688W        W 9413   3.269   0.941  11.806
 5689W        W 9414   7.437   0.947  11.304
 5690W        W 9415   0.431   6.088   2.217
 5691W        W 9416   7.464   6.048   3.147
 5692W        W 9417   5.601   4.236  10.902
 5693W        W 9418   4.272   8.429   1.335
 5694W        W 9419  10.369   6.956  11.306
 5695W        W 9420   6.035   6.941  10.483
 5696W        W 9421   5.145   8.025   0.776
 5697W        W 9422   6.489   3.641   9.918
 5698W        W 9423   1.861   3.750   9.561
 5699W        W 9424   2.836   1.817   0.475
 5700W        W 9425   2.804   6.975   9.524
 5701W        W 9426   0.848   6.551   9.007
 5702W        W 9427   7.904   2.809   2.271
 5703W        W 9428   4.114   2.679   2.775
 5704W        W 9429   0.829   6.156   2.190
 5705W        W 9430  10.416   8.102   0.460
 5706W        W 9431   8.558  10.377   3.126
 5707W        W 9432  10.477   0.744   3.131
 5708W        W 9433   3.242   0.476   3.812
 5709W        W 9434   4.677   4.078   7.972
 5710W        W 9435   7.553   6.633   0.379
 5711W        W 9436   3.222   9.881   2.777
 5712W        W 9437   7.072   9.789   2.788
 5713W        W 9438   7.501   1.730   2.753
 5714W        W 9439  10.282   8.857   9.401
 5715W        W 9440   3.721   2.655  10.492
 5716W        W 9441   9.490   8.970  11.906
 5717W        W 9442   0.254   2.691   8.899
 5718W        W 9443   8.949   5.700   0.373
 5719W        W 9444   5.094   0.837   2.664
 5720W        W 9445   6.662   6.513   1.788
 5721W        W 9446   8.965   7.619   1.280
 5722W        W 9447   5.504   2.805   3.242
 5723W        W 9448   9.788   0.822   9.389
 5724W        W 9449   2.303   5.644   3.353
 5725W        W 9450   6.512   1.213   1.876
 5726W        W 9451   2.690   8.378   2.813
 5727W        W 9452   8.051   7.507  11.357
 5728W        W 9453   6.095   2.160   2.771
 5729W        W 9454   4.165   7.028   1.267
 5730W        W 9455   8.931   8.974   3.265
 5731W        W 9456   3.253   2.804   2.357
 5732W        W 9457   2.720   0.826   8.424
 5733W        W 9458   9.490   3.296   9.450
 5734W        W 9459   8.991   7.567   2.693
 5735W        W 9460   5.079   5.187   9.023
 5736W        W 9461   9.811   5.620  11.921
 5737W        W 9462   9.907   2.371   3.214
 5738W        W 9463  10.399   2.712   2.318
 5739W        W 9464   6.497   5.993  10.977
 5740W        W 9465   7.447   9.912   8.512
 5741W        W 9466   8.389   4.646   0.738
 5742W        W 9467   4.270   3.182   0.952
 5743W        W 9468   4.221   9.405   2.745
 5744W        W 9469   6.109   8.585   3.241
 5745W        W 9470   7.406  10.333   9.064
 5746W        W 9471   9.501   7.901   0.774
 5747W        W 9472   5.087   4.698   8.930
 5748W        W 9473   2.783   6.535  10.354
 5749W        W 9474   3.724   2.150   0.304
 5750W        W 9475   1.417   8.542  11.805
 5751W        W 9476   9.993   6.605   0.258
 5752W        W 9477   6.195   9.867  10.897
 5753W        W 9478   1.893   8.359   3.828
 5754W        W 9479   4.658   8.995   1.428
 5755W        W 9480   9.049   8.960   0.289
 5756W        W 9481   7.495   3.299   1.261
 5757W        W 9482   6.119   2.777   9.495
 5758W        W 9483   3.735   6.120   8.925
 5759W        W 9484   7.879   2.714  10.047
 5760W        W 9485   0.285   3.147  11.438
 5761W        W 9486   1.864   3.148  10.059
 5762W        W 9487   0.946   2.226  11.501
 5763W        W 9488   1.863   3.335   0.886
 5764W        W 9489   1.721   4.269   1.231
 5765W        W 9490   9.785   4.127   2.364
 5766W        W 9491   0.732   0.379   3.149
 5767W        W 9492   2.688   6.110   8.619
 5768W        W 9493   6.038   1.820   8.984
 5769W        W 9494   9.448   5.575   8.914
 5770W        W 9495   4.253   0.729   2.386
 5771W        W 9496   2.268   4.061   2.231
 5772W        W 9497   8.996   9.875   9.455
 5773W        W 9498   8.927   2.292  10.930
 5774W        W 9499   6.075   3.779   9.528
 5775W        W 9500   1.823   0.887   3.232
 5776W        W 9501   1.368   4.599   2.255
 5777W        W 9502   2.304   2.305  10.549
 5778W        W 9503   6.157   9.499   9.898
 5779W        W 9504   8.909   8.887   2.260
 5780W        W 9505   9.343   7.065  11.353
 5781W        W 9506   1.224   8.003   9.947
 5782W        W 9507   9.340   5.015   0.771
 5783W        W 9508   3.743   3.607   0.842
 5784W        W 9509   9.881   9.459   2.227
 5785W        W 9510   9.397   4.730   3.666
 5786W        W 9511   6.940   6.592   3.601
 5787W        W 9512   9.506   4.748   2.861
 5788W        W 9513   3.208   3.298   9.597
 5789W        W 9514   7.453   2.370   3.171
 5790W        W 9515   4.175   8.019  11.794
 5791W        W 9516   8.901   7.477   9.077
 5792W        W 9517   2.327   0.943  10.015
 5793W        W 9518   9.448   8.962   2.705
 5794W        W 9519   0.421   9.406   2.839
 5795W        W 9520   8.354   6.172  10.027
 5796W        W 9521   9.788   4.662   9.049
 5797W        W 9522   8.526   7.065   1.915
 5798W        W 9523  10.307   4.154   1.825
 5799W        W 9524   1.735   0.778   2.669
 5800W        W 9525   0.946   9.923   0.933
 5801W        W 9526   5.674   0.424   9.946
 5802W        W 9527   3.674   2.164   2.717
 5803W        W 9528   2.319   6.197   1.411
 5804W        W 9529   2.378   3.228   9.397
 5805W        W 9530   9.824   7.601  10.512
 5806W        W 9531   4.594   1.273   1.759
 5807W        W 9532   2.353   9.383  10.967
 5808W        W 9533   9.502   5.689   2.653
 5809W        W 9534   9.332   0.288   1.396
 5810W        W 9535   6.064   7.071   0.898
 5811W        W 9536   7.530   4.606   8.630
 5812W        W 9537   3.229   7.157  10.004
 5813W        W 9538   1.758   9.429   1.755
 5814W        W 9539   5.605   9.874   2.348
 5815W        W 9540   9.027   6.966   0.477
 5816W        W 9541   5.221   5.599   2.697
 5817W        W 9542   6.509   0.411  10.439
 5818W        W 9543   2.330   5.091  10.336
 5819W        W 9544   8.590   8.544   0.782
 5820W        W 9545   9.998   2.699   0.361
 5821W        W 9546   9.456   0.920   1.379
 5822W        W 9547   8.485   0.403  11.767
 5823W        W 9548   7.458   0.425  10.480
 5824W        W 9549   7.989   7.982   9.410
 5825W        W 9550   2.312   0.248  10.890
 5826W        W 9551   2.343   1.374   2.177
 5827W        W 9552   1.858   9.512   3.182
 5828W        W 9553   1.424   9.019  10.397
 5829W        W 9554   6.531   8.080  10.483
 5830W        W 9555   3.598   5.101   0.339
 5831W        W 9556   8.075   6.937  10.868
 5832W        W 9557   6.567   3.254   9.016
 5833W        W 9558   8.940   4.564   8.454
 5834W        W 9559   4.078   5.608   2.264
 5835W        W 9560   0.859   7.413   3.175
 5836W        W 9561   0.819   2.248   0.280
 5837W        W 9562   7.483   1.701   1.378
 5838W        W 9563   3.305   4.196   3.736
 5839W        W 9564   6.164   8.049   8.441
 5840W        W 9565   9.485   5.249  10.002
 5841W        W 9566   8.370   6.120   3.665
 5842W        W 9567   4.717   9.315  10.016
 5843W        W 9568   9.892   3.190  10.413
 5844W        W 9569   4.194   1.727   1.393
 5845W        W 9570   4.225   0.770  11.464
 5846W        W 9571   4.061   7.602  11.895
 5847W        W 9572   2.733   1.726   9.556
 5848W        W 9573   8.092   4.637   9.389
 5849W        W 9574   0.473   5.628   2.341
 5850W        W 9575   6.461   7.494  11.871
 5851W        W 9576   3.316   9.323   3.343
 5852W        W 9577   0.763   8.456   9.082
 5853W        W 9578   8.568   9.817   0.931
 5854W        W 9579   8.918   5.053  11.765
 5855W        W 9580   7.886   4.226   9.099
 5856W        W 9581   3.151   8.539   9.978
 5857W        W 9582   9.316   6.081   9.555
 5858W        W 9583   9.473   9.418   1.403
 5859W        W 9584   5.991   3.137   2.782
 5860W        W 9585   5.603   7.936  11.794
 5861W        W 9586   1.256   3.337  11.416
 5862W        W 9587   9.013   6.464   2.301
 5863W        W 9588   5.087   1.892   0.441
 5864W        W 9589   0.760   4.223   2.663
 5865W        W 9590  10.308   8.861  11.020
 5866W        W 9591   0.302   0.371   9.493
 5867W        W 9592   3.236   7.013   2.788
 5868W        W 9593   8.036   6.962   1.686
 5869W        W 9594   9.049   0.268   3.182
 5870W        W 9595   9.044   3.740   2.311
 5871W        W 9596   4.160   0.758   9.476
 5872W        W 9597   4.574   7.132  10.442
 5873W        W 9598   3.128   3.769  11.774
 5874W        W 9599   2.833   9.846   2.819
 5875W        W 9600   3.785   9.885   3.309
 5876W        W 9601   6.458   9.495   9.042
 5877W        W 9602   3.137   9.818   0.342
 5878W        W 9603  10.468   7.988   1.701
 5879W        W 9604   4.152   5.652   2.856
 5880W        W 9605   6.039   1.424   3.796
 5881W        W 9606   1.800   7.926  10.362
 5882W        W 9607   9.429   2.682   9.540
 5883W        W 9608   7.950   7.631   8.509
 5884W        W 9609   2.729   6.586   4.141
 5885W        W 9610   5.538   5.609   2.232
 5886W        W 9611   5.992   9.973   3.803
 5887W        W 9612   3.251   9.487   2.269
 5888W        W 9613   0.279   5.661  11.832
 5889W        W 9614  10.435   2.644   3.288
 5890W        W 9615   5.590  10.345   2.316
 5891W        W 9616   0.921   0.914   2.381
 5892W        W 9617   0.877   3.589   9.881
 5893W        W 9618   8.493   1.350   2.300
 5894W        W 9619   3.626   4.190   3.332
 5895W        W 9620   8.857  10.284   1.337
 5896W        W 9621   4.216   6.203   2.228
 5897W        W 9622   7.636   3.188   9.067
 5898W        W 9623   4.100   4.171   8.625
 5899W        W 9624   6.935   8.888  10.891
 5900W        W 9625   5.556   2.735   9.497
 5901W        W 9626   3.188   9.487   9.449
 5902W        W 9627   8.882   7.913  11.421
 5903W        W 9628   6.523   5.023   9.965
 5904W        W 9629   1.337   9.859   2.303
 5905W        W 9630   1.216   6.671   9.574
 5906W        W 9631   6.452   7.445   9.547
 5907W        W 9632   8.372   3.179   0.817
 5908W        W 9633   7.631   5.064  11.015
 5909W        W 9634  10.341   2.171   3.822
 5910W        W 9635   3.163   7.006   3.344
 5911W        W 9636   7.107   4.621   2.764
 5912W        W 9637  10.266   6.620   0.421
 5913W        W 9638   0.338   8.423   0.947
 5914W        W 9639   2.185   8.378   3.832
 5915W        W 9640   6.939   7.423   2.867
 5916W        W 9641   6.170   9.907   1.898
 5917W        W 9642   1.822   8.988  11.986
 5918W        W 9643   4.744   7.059  10.982
 5919W        W 9644   0.323   3.321   9.996
 5920W        W 9645   0.284   8.354   1.813
 5921W        W 9646   5.057   3.690  11.790
 5922W        W 9647   5.597   2.821  11.928
 5923W        W 9648   2.166   5.996  11.282
 5924W        W 9649   4.579   5.537  10.880
 5925W        W 9650   4.167   3.270   0.248
 5926W        W 9651   5.512   9.338   9.376
 5927W        W 9652   3.630   5.077   1.841
 5928W        W 9653   4.536   7.604   3.712
 5929W        W 9654   4.122   7.945   9.406
 5930W        W 9655   0.921   1.901  11.786
 5931W        W 9656   5.714   2.793   9.886
 5932W        W 9657   3.621   2.273  11.766
 5933W        W 9658   8.910   6.988  10.010
 5934W        W 9659   3.669   7.092   9.504
 5935W        W 9660   6.569   7.986   1.700
 5936W        W 9661   5.975   9.439   0.891
 5937W        W 9662   0.902   7.452   0.322
 5938W        W 9663   8.586   8.381   0.389
 5939W        W 9664   2.767  10.274  11.871
 5940W        W 9665   8.875   3.231  10.539
 5941W        W 9666   1.329   7.580  11.823
 5942W        W 9667   7.498   5.550   2.706
 5943W        W 9668   8.380  10.492   9.993
 5944W        W 9669   6.657  10.385   2.874
 5945W        W 9670   5.585   8.991   9.070
 5946W        W 9671   4.224   0.750   3.300
 5947W        W 9672   2.321   1.230  11.432
 5948W        W 9673   4.143  10.352   0.791
 5949W        W 9674   6.518   7.922   9.448
 5950W        W 9675   8.857   5.172  11.399
 5951W        W 9676   6.031   0.793   2.225
 5952W        W 9677  10.338   3.683   2.643
 5953W        W 9678   9.896   0.848   2.251
 5954W        W 9679   9.383   1.702   8.562
 5955W        W 9680   2.784   4.079   8.883
 5956W        W 9681   2.855   5.154   0.430
 5957W        W 9682   0.883   3.220  10.393
 5958W        W 9683   8.836   6.527  10.840
 5959W        W 9684   4.673   9.062   3.356
 5960W        W 9685   0.935   2.346  10.382
 5961W        W 9686   0.944   9.796   2.828
 5962W        W 9687   7.399  10.414  10.891
 5963W        W 9688   2.635   0.772   0.872
 5964W        W 9689   0.861   8.930   2.857
 5965W        W 9690   1.758   7.465   3.213
 5966W        W 9691  10.381   0.457   9.445
 5967W        W 9692   2.665   0.302  10.460
 5968W        W 9693   8.865   9.897   2.687
 5969W        W 9694   6.143   8.569   9.094
 5970W        W 9695   5.547   5.160  11.446
 5971W        W 9696   2.261   2.258   9.096
 5972W        W 9697   0.284  10.448  10.051
 5973W        W 9698   2.799   3.135   9.474
 5974W        W 9699   5.207   1.722  11.316
 5975W        W 9700   5.658   5.634  11.795
 5976W        W 9701   2.305   0.422   2.287
 5977W        W 9702   7.438   6.511   2.776
 5978W        W 9703   5.113   9.326  10.506
 5979W        W 9704   5.495   5.653   9.494
 5980W        W 9705   6.940   8.372  11.443
 5981W        W 9706   7.119   1.677   8.952
 5982W        W 9707   5.682   1.273   9.902
 5983W        W 9708   2.275   7.000  11.807
 5984W        W 9709   7.504   9.359  11.819
 5985W        W 9710   0.828   3.655   3.332
 5986W        W 9711   4.270   3.655   9.869
 5987W        W 9712   3.766   5.088  10.445
 5988W        W 9713   9.035   9.365   0.727
 5989W        W 9714   5.052   8.008   9.525
 5990W        W 9715   0.810   5.716  10.812
 5991W        W 9716   1.745   6.490  10.878
 5992W        W 9717   9.939   7.510   1.423
 5993W        W 9718   6.596   7.140   9.043
 5994W        W 9719   2.656   5.129  11.978
 5995W        W 9720   7.428   7.493   8.466
 5996W        W 9721   3.607  10.412   0.303
 5997W        W 9722  10.438   8.467  11.770
 5998W        W 9723   4.249   6.987   0.792
 5999W        W 9724   0.782   3.319  11.326
 6000W        W 9725   2.287   4.715   1.255
 6001W        W 9726   4.244   8.868   8.978
 6002W        W 9727   9.437   2.256  11.438
 6003W        W 9728   1.905   6.034   2.326
 6004W        W 9729   5.694   9.909   8.965
 6005W        W 9730   0.270   8.510  10.381
 6006W        W 9731   0.823   7.611  11.280
 6007W        W 9732   9.313   2.322   2.252
 6008W        W 9733   8.509   1.864   9.988
 6009W        W 9734   8.104   1.356   1.348
 6010W        W 9735   3.167   4.757   2.839
 6011W        W 9736   8.109   6.936  11.794
 6012W        W 9737   8.507   3.681   0.367
 6013W        W 9738   5.647   5.546   1.732
 6014W        W 9739   0.422   6.612   0.923
 6015W        W 9740   6.091   4.689   9.935
 6016W        W 9741   6.489   6.982   9.494
 6017W        W 9742   9.049   3.693   9.582
 6018W        W 9743   7.045   3.791   1.323
 6019W        W 9744   2.662   0.813   2.301
 6020W        W 9745  10.007   8.497   2.296
 6021W        W 9746   8.963   8.361  10.549
 6022W        W 9747   4.169   5.505  11.802
 6023W        W 9748   1.349   0.855   9.046
 6024W        W 9749   8.377   3.269   2.281
 6025W        W 9750   2.858   2.777   2.816
 6026W        W 9751   4.725   8.468   3.611
 6027W        W 9752   4.747   2.168   9.930
 6028W        W 9753   9.908   7.590   0.319
 6029W        W 9754   7.577   9.954   3.177
 6030W        W 9755   0.839  10.456   1.200
 6031W        W 9756   3.757   4.759   9.464
 6032W        W 9757   0.834   5.246   1.436
 6033W        W 9758   0.406   3.760   0.334
 6034W        W 9759   6.488   0.864   0.749
 6035W        W 9760   9.510   9.479  11.450
 6036W        W 9761   7.554   8.948  10.984
 6037W        W 9762   3.298   6.025   0.344
 6038W        W 9763   8.995   1.225   9.989
 6039W        W 9764   3.227  10.359  10.956
 6040W        W 9765   4.672   5.067   1.901
 6041W        W 9766   0.410   5.726   0.731
 6042W        W 9767   5.052   8.894  11.031
 6043W        W 9768   9.926   7.018   9.909
 6044W        W 9769   8.570   7.924  11.990
 6045W        W 9770   5.675   4.224   9.975
 6046W        W 9771   8.088   4.076  10.809
 6047W        W 9772   0.363   9.043   3.330
 6048W        W 9773  10.263   2.338   9.855
 6049W        W 9774   0.920   9.060   0.447
 6050W        W 9775   8.391   8.965   1.347
 6051W        W 9776   4.161   4.568   0.775
 6052W        W 9777   1.327   1.781   3.150
 6053W        W 9778  10.289   3.636   0.384
 6054W        W 9779   6.515   0.803   1.279
 6055W        W 9780   3.149   1.787   0.939
 6056W        W 9781   4.153   8.869   3.192
 6057W        W 9782   3.277   9.384  10.039
 6058W        W 9783   0.258   5.585   8.497
 6059W        W 9784   1.310   3.277  11.972
 6060W        W 9785   7.528   1.291   9.102
 6061W        W 9786   5.028   3.648  10.892
 6062W        W 9787   4.609   3.773  11.034
 6063W        W 9788   0.865   5.630   1.350
 6064W        W 9789   1.898   1.808   3.820
 6065W        W 9790   7.966   5.502   2.782
 6066W        W 9791   1.268   6.202  11.285
 6067W        W 9792   0.763   3.610   3.740
 6068W        W 9793   0.795   3.244   0.767
 6069W        W 9794   5.020   8.515   0.781
 6070W        W 9795   4.218   1.337  11.371
 6071W        W 9796   3.166   4.109   0.951
 6072W        W 9797   2.751   9.005   1.896
 6073W        W 9798   0.438   1.343   0.946
 6074W        W 9799   7.591   7.106   9.868
 6075W        W 9800   7.050   3.801   8.636
 6076W        W 9801   8.397   7.554   3.148
 6077W        W 9802   5.663   8.918   2.825
 6078W        W 9803   1.201  10.490   0.790
 6079W        W 9804  10.382   1.272   1.228
 6080W        W 9805   0.902   5.073  10.547
 6081W        W 9806   6.157   5.666  10.927
 6082W        W 9807   3.219   9.048  10.815
 6083W        W 9808   9.045   6.993  11.432
 6084W        W 9809   9.873  10.411   2.273
 6085W        W 9810   3.246   7.112   8.417
 6086W        W 9811   5.142   6.481   9.408
 6087W        W 9812  10.270   4.058   2.339
 6088W        W 9813  10.423   3.754   1.817
 6089W        W 9814   8.001   7.492   3.256
 6090W        W 9815   1.405   6.501   3.267
 6091W        W 9816   0.935   4.256   0.938
 6092W        W 9817   7.965   2.160   3.218
 6093W        W 9818   7.939   7.924   8.962
 6094W        W 9819   3.708   7.995   1.268
 6095W        W 9820   7.429   5.130   2.274
 6096W        W 9821   6.071   2.207   3.215
 6097W        W 9822   2.252   2.675  10.551
 6098W        W 9823   8.578   7.018  10.021
 6099W        W 9824   4.618   8.029   9.591
 6100W        W 9825   3.643   4.115  11.873
 6101W        W 9826   2.700   2.632  11.346
 6102W        W 9827   3.179   4.197   9.923
 6103W        W 9828   0.386   8.093  11.281
 6104W        W 9829   6.678   4.197   1.354
 6105W        W 9830   3.324   6.514   1.345
 6106W        W 9831   1.323   9.849  10.007
 6107W        W 9832   0.929   1.288   8.414
 6108W        W 9833   1.778  10.293   0.842
 6109W        W 9834   8.949   4.653   0.864
 6110W        W 9835   5.018   4.234   9.995
 6111W        W 9836   4.557   2.282   0.416
 6112W        W 9837   3.233   6.489   3.150
 6113W        W 9838   8.907   2.384   9.414
 6114W        W 9839   9.997   1.695  10.916
 6115W        W 9840   0.940   7.488   3.665
 6116W        W 9841   8.526   4.164  10.356
 6117W        W 9842   0.271   9.788   9.004
 6118W        W 9843   6.098   7.475  10.990
 6119W        W 9844   0.308   7.567   9.073
 6120W        W 9845   6.193   7.998   2.661
 6121W        W 9846   8.941   1.753   0.430
 6122W        W 9847   2.810   5.017   0.828
 6123W        W 9848   9.002   6.196   2.380
 6124W        W 9849   2.805   6.936  11.402
 6125W        W 9850   4.541   0.446   1.310
 6126W        W 9851   1.829   4.576  10.814
 6127W        W 9852   0.917   5.215   3.251
 6128W        W 9853   9.479   4.087   3.179
 6129W        W 9854   0.744   5.688   0.798
 6130W        W 9855   8.514   2.745   2.830
 6131W        W 9856   1.772   6.546   1.818
 6132W        W 9857   3.660   6.626   0.437
 6133W        W 9858   8.872   4.175   3.320
 6134W        W 9859   2.233   3.328   1.352
 6135W        W 9860   7.491   9.503   2.846
 6136W        W 9861   9.847   9.480   3.668
 6137W        W 9862   6.554   9.956  10.077
 6138W        W 9863   3.160   4.096  11.791
 6139W        W 9864   8.853   0.942   1.886
 6140W        W 9865   8.021  10.410   2.180
 6141W        W 9866   6.030   0.294   2.763
 6142W        W 9867   6.052   3.291   3.711
 6143W        W 9868   9.831   0.781   0.304
 6144W        W 9869   3.338   8.979   9.930
 6145W        W 9870   7.561   9.992   1.734
 6146W        W 9871   8.902   2.225   0.765
 6147W        W 9872   0.308   8.587  10.027
 6148W        W 9873   3.168   3.615  11.389
 6149W        W 9874   1.409   4.703  10.527
 6150W        W 9875   3.760   1.898   1.222
 6151W        W 9876   5.710   3.641   3.782
 6152W        W 9877   1.381   5.118   0.453
 6153W        W 9878   1.230   3.109   8.949
 6154W        W 9879   7.571   7.519   0.721
 6155W        W 9880   3.630   4.709   2.327
 6156W        W 9881   6.105   7.508   3.616
 6157W        W 9882   6.585   9.526   0.372
 6158W        W 9883   7.932   0.724  10.373
 6159W        W 9884   4.098   7.400  10.964
 6160W        W 9885   6.624   0.772   1.769
 6161W        W 9886   7.589   8.492  12.000
 6162W        W 9887   7.605   8.483   9.043
 6163W        W 9888   8.436   2.846   3.161
 6164W        W 9889   9.539   5.710  11.031
 6165W        W 9890   3.728   4.278   9.077
 6166W        W 9891   3.330   8.404   2.227
 6167W        W 9892   1.844   8.884   1.902
 6168W        W 9893   9.899   8.869   8.936
 6169W        W 9894   5.569   0.452   0.812
 6170W        W 9895   3.671   8.526   0.724
 6171W        W 9896   8.440   2.324   9.995
 6172W        W 9897   2.172   9.798  10.935
 6173W        W 9898   8.403   1.387  11.457
 6174W        W 9899   4.163   0.817   2.707
 6175W        W 9900   6.923   7.520   0.369
 6176W        W 9901   6.591   8.379  11.796
 6177W        W 9902   4.131   4.167   2.720
 6178W        W 9903   3.287   4.756   2.164
 6179W        W 9904   7.457  10.315   2.392
 6180W        W 9905   6.101   6.670   0.324
 6181W        W 9906   3.201   4.541   9.400
 6182W        W 9907   6.463   1.726   9.089
 6183W        W 9908   5.535   6.134   0.836
 6184W        W 9909   0.266   3.292   2.842
 6185W        W 9910   9.917   1.750   0.868
 6186W        W 9911   8.524   1.352   3.212
 6187W        W 9912   6.535   0.811  10.438
 6188W        W 9913   8.979   9.419   3.277
 6189W        W 9914   5.118   2.647   3.186
 6190W        W 9915   0.316   9.346   0.250
 6191W        W 9916   4.766   2.800   1.244
 6192W        W 9917   7.589   3.773   3.350
 6193W        W 9918   6.199   0.838  11.768
 6194W        W 9919   6.001   9.330   2.253
 6195W        W 9920   8.845   2.354  10.456
 6196W        W 9921   7.547   4.282  10.827
 6197W        W 9922   8.939   8.493  11.315
 6198W        W 9923   7.411   6.198   2.248
 6199W        W 9924   2.734   7.475   1.406
 6200W        W 9925   5.036   6.579   0.916
 6201W        W 9926   1.721   9.836  11.427
 6202W        W 9927   0.730   7.426  10.047
 6203W        W 9928   9.990   5.216  11.917
 6204W        W 9929  10.428   2.320  11.948
 6205W        W 9930   7.151   6.089   9.878
 6206W        W 9931   2.749  10.373   0.874
 6207W        W 9932   3.151   2.827  10.518
 6208W        W 9933   0.296   0.356   1.340
 6209W        W 9934   5.035   6.181  11.292
 6210W        W 9935   1.886   1.748   2.807
 6211W        W 9936   3.307   7.914   9.521
 6212W        W 9937   5.239   6.182   0.369
 6213W        W 9938   0.924   3.214   9.961
 6214W        W 9939   7.454  10.475  11.961
 6215W        W 9940   7.417   0.801   2.229
 6216W        W 9941   3.618  10.315  11.803
 6217W        W 9942   0.260   6.127  10.508
 6218W        W 9943   2.844   0.920  10.502
 6219W        W 9944   4.094   5.097  11.835
 6220W        W 9945   1.313   9.823   3.686
 6221W        W 9946   9.840   9.012   1.409
 6222W        W 9947   5.659   1.393   0.839
 6223W        W 9948   1.421   6.131   0.345
 6224W        W 9949   9.449   7.977  10.514
 6225W        W 9950   4.701   4.268   3.837
 6226W        W 9951   7.463   2.750  10.064
 6227W        W 9952   5.720   7.518  10.841
 6228W        W 9953   1.227   6.058   0.767
 6229W        W 9954   2.784   5.615   3.333
 6230W        W 9955  10.402   4.099   3.356
 6231W        W 9956   2.213   5.206   9.959
 6232W        W 9957   6.676   0.290  10.036
 6233W        W 9958   5.078   3.660  10.441
 6234W        W 9959   3.618   3.780   2.756
 6235W        W 9960   0.324   6.526   2.328
 6236W        W 9961   8.902   1.416   1.892
 6237W        W 9962   9.959   1.687   2.863
 6238W        W 9963   6.963   6.579   2.805
 6239W        W 9964   9.494   1.355   8.934
 6240W        W 9965   3.788   2.665   3.322
 6241W        W 9966   6.554   8.918  11.780
 6242W        W 9967   2.241   1.717   9.558
 6243W        W 9968   3.295   8.582   0.742
 6244W        W 9969  10.364   7.530   1.889
 6245W        W 9970   1.357   2.362   0.373
 6246W        W 9971   6.180   4.271   2.857
 6247W        W 9972   9.535   8.499  11.341
 6248W        W 9973   8.413   2.639  11.393
 6249W        W 9974   9.437   7.609  10.512
 6250W        W 9975   3.743   9.455   3.201
 6251W        W 9976   6.010   8.080   3.320
 6252W        W 9977   3.653   4.558   0.751
 6253W        W 9978   4.152   9.945   9.393
 6254W        W 9979   2.309   3.700   9.367
 6255W        W 9980   7.610   1.806   3.326
 6256W        W 9981   2.247   8.954   9.052
 6257W        W 9982   9.489   1.855   9.856
 6258W        W 9983   6.137   7.415  11.828
 6259W        W 9984   7.883  10.264  11.451
 6260W        W 9985   0.448   8.063   1.825
 6261W        W 9986  10.337   8.020   2.399
 6262W        W 9987   8.942   4.603  11.951
 6263W        W 9988   3.767   6.141   1.696
 6264W        W 9989   0.846   2.642   2.231
 6265W        W 9990  10.393   9.472  10.853
 6266W        W 9991   2.667   1.205   1.778
 6267W        W 9992   9.902   6.049  10.009
 6268W        W 9993   9.378   1.214  11.420
 6269W        W 9994   1.293   5.638   3.356
 6270W        W 9995   1.335   3.198   1.735
 6271W        W 9996   6.037   9.815   2.297
 6272W        W 9997   5.670   8.554   2.820
 6273W        W 9998   7.045   0.726   1.706
 6274W        W 9999   6.944   5.506   9.520
 6275W        W10000   7.516   1.340  10.471
 6276W        W10001   2.266   2.741   2.752
 6277W        W10002   8.932  10.350   2.185
 6278W        W10003   0.786   8.046  10.489
 6279W        W10004   0.447   6.507   9.845
 6280W        W10005   4.125   7.091  10.966
 6281W        W10006   9.909   0.925  11.506
 6282W        W10007   5.228   1.672   9.495
 6283W        W10008   5.017   6.175  10.002
 6284W        W10009   2.857   7.514  10.343
 6285W        W10010   3.325   7.592   8.516
 6286W        W10011   6.593   4.253   3.153
 6287W        W10012   5.982  10.422   2.164
 6288W        W10013  10.398   4.278   9.368
 6289W        W10014   9.789   5.196   2.830
 6290W        W10015   9.934   3.169   1.705
 6291W        W10016   1.712   9.314   9.504
 6292W        W10017   0.397   0.918  11.484
 6293W        W10018  10.455   3.328   2.244
 6294W        W10019   9.350   6.617   3.351
 6295W        W10020  10.380   4.682   9.116
 6296W        W10021   0.806   1.422   9.588
 6297W        W10022   7.983   7.953   1.382
 6298W        W10023   6.156   7.942   1.691
 6299W        W10024   9.379   0.892  10.994
 6300W        W10025   6.570   7.098   9.975
 6301W        W10026   6.995  10.498   3.295
 6302W        W10027   4.241   4.150   2.265
 6303W        W10028   0.936   0.837  10.826
 6304W        W10029   0.871   4.671   3.211
 6305W        W10030   8.412   7.511   2.196
 6306W        W10031   0.471   2.664   0.781
 6307W        W10032   8.581   7.416   1.908
 6308W        W10033   2.227   1.337   2.843
 6309W        W10034   9.382   1.896  10.495
 6310W        W10035   9.056   7.500  11.907
 6311W        W10036   9.445   8.357   1.259
 6312W        W10037   1.332   8.085   1.308
 6313W        W10038   4.250   9.063   2.764
 6314W        W10039   6.508   1.383  10.848
 6315W        W10040   0.412   3.637   2.239
 6316W        W10041   9.529   6.498   9.082
 6317W        W10042  10.459   2.307  11.310
 6318W        W10043   1.724   0.881  11.975
 6319W        W10044   5.231   3.152  10.442
 6320W        W10045   3.772   7.612  11.882
 6321W        W10046  10.483   3.660  10.527
 6322W        W10047   1.909  10.334  11.853
 6323W        W10048   7.564   1.810   0.346
 6324W        W10049   7.599   9.467   0.767
 6325W        W10050  10.448   9.344   9.368
 6326W        W10051   7.963   7.033   2.376
 6327W        W10052   2.632   1.673   3.150
 6328W        W10053   6.937   0.731   2.363
 6329W        W10054  10.367   4.570   9.465
 6330W        W10055   7.989   5.586  11.497
 6331W        W10056   5.681   0.763   1.693
 6332W        W10057   9.957   5.635   8.495
 6333W        W10058   1.794   1.195  10.321
 6334W        W10059   9.420   1.872  11.830
 6335W        W10060   7.985   4.677  11.797
 6336W        W10061   1.726   8.877  10.957
 6337W        W10062   7.426   4.227  10.490
 6338W        W10063  10.361   1.846   0.774
 6339W        W10064   2.305   8.932   9.534
 6340W        W10065   7.072   5.122  10.546
 6341W        W10066   7.438   3.654  10.873
 6342W        W10067   8.967   7.494  11.353
 6343W        W10068   8.020   5.047   9.504
 6344W        W10069   7.526   4.207   2.184
 6345W        W10070   1.864   8.405   0.785
 6346W        W10071   4.646   0.820   9.497
 6347W        W10072   9.838   1.690  11.885
 6348W        W10073   3.731   9.018   9.508
 6349W        W10074   2.261   9.799  10.060
 6350W        W10075   4.648   1.754   2.347
 6351W        W10076   9.039   3.813   0.848
 6352W        W10077   0.428   3.106   1.827
 6353W        W10078  10.388   5.120  11.875
 6354W        W10079   8.912   6.558  11.317
 6355W        W10080   8.909   8.409   9.023
 6356W        W10081   1.374   7.133   2.361
 6357W        W10082   2.687   7.156   8.130
 6358W        W10083   0.255   7.561  11.456
 6359W        W10084   2.329  10.448   0.304
 6360W        W10085   4.157   1.776   1.730
 6361W        W10086   5.667   2.195   2.376
 6362W        W10087   7.519   7.566   9.398
 6363W        W10088   5.182   2.314   9.020
 6364W        W10089   8.914   6.137  11.886
 6365W        W10090   5.074   6.628   3.701
 6366W        W10091   9.342   3.723   9.843
 6367W        W10092   5.509   4.612  10.547
 6368W        W10093   2.370   9.824   1.760
 6369W        W10094   3.693   6.541   1.874
 6370W        W10095   6.639   3.308   9.506
 6371W        W10096   6.010   0.845   8.996
 6372W        W10097   1.712   1.797   3.142
 6373W        W10098   4.144  10.460   8.908
 6374W        W10099   4.743   7.505  11.963
 6375W        W10100   2.212   6.510  10.956
 6376W        W10101   0.760  10.428  10.882
 6377W        W10102   2.255   2.185  11.405
 6378W        W10103   2.265   3.296   1.747
 6379W        W10104   6.452   2.170   3.246
 6380W        W10105   5.104   6.932   1.920
 6381W        W10106   5.577   2.366   0.733
 6382W        W10107   1.811   6.548   8.992
 6383W        W10108   5.582   9.837   0.338
 6384W        W10109   1.760   2.184   1.834
 6385W        W10110   6.680   4.105  11.304
 6386W        W10111   5.182  10.380  10.410
 6387W        W10112   7.972   4.642   3.235
 6388W        W10113   8.578   3.135   8.900
 6389W        W10114   1.394  10.499   8.968
 6390W        W10115  10.449   9.918   9.529
 6391W        W10116   0.819   0.789   2.655
 6392W        W10117   6.018   8.957   1.417
 6393W        W10118   4.211   0.352   0.474
 6394W        W10119   0.909   4.620  10.858
 6395W        W10120   7.461   6.619  10.819
 6396W        W10121   0.471   5.505  10.367
 6397W        W10122   7.581   5.727   3.253
 6398W        W10123   4.060   9.502   2.287
 6399W        W10124   1.738   5.237   0.432
 6400W        W10125   1.685   7.501   9.373
 6401W        W10126   6.197   2.717   1.720
 6402W        W10127   3.224  10.296   9.964
 6403W        W10128   6.519   8.896  10.502
 6404W        W10129   8.887  10.415   3.255
 6405W        W10130   6.044   7.135   2.327
 6406W        W10131   1.346   2.274   3.333
 6407W        W10132   8.953   9.805   9.939
 6408W        W10133   1.754   1.378   0.382
 6409W        W10134   3.690   8.924  11.919
 6410W        W10135   6.041   7.056   8.442
 6411W        W10136   8.508   4.094  11.408
 6412W        W10137   7.496   6.929  10.876
 6413W        W10138  10.308   8.462   9.390
 6414W        W10139   8.358   0.811   2.247
 6415W        W10140   9.831   7.466  11.496
 6416W        W10141  10.471   2.385   9.439
 6417W        W10142   3.775   0.722   8.521
 6418W        W10143   6.673   0.383  10.968
 6419W        W10144   7.561   1.832   8.974
 6420W        W10145   8.379   1.725   8.944
 6421W        W10146   2.706   6.171  11.380
 6422W        W10147   0.839   7.063   3.179
 6423W        W10148  10.398   5.247   2.681
 6424W        W10149   3.685   0.890   9.451
 6425W        W10150   9.944   5.016   1.730
 6426W        W10151   8.106   6.930   9.953
 6427W        W10152   7.084   9.017  11.519
 6428W        W10153   1.895  10.022  11.855
 6429W        W10154   7.949   7.625   8.079
 6430W        W10155   4.605   8.359  10.803
 6431W        W10156   3.135   8.480   1.743
 6432W        W10157   9.822   6.478   2.665
 6433W        W10158   0.861   3.606  10.519
 6434W        W10159   1.243   6.614   1.338
 6435W        W10160   5.081   1.316   0.323
 6436W        W10161  10.487   4.211   0.336
 6437W        W10162   0.846   1.830  11.392
 6438W        W10163   3.638   4.572  10.411
 6439W        W10164   4.279   2.242   9.927
 6440W        W10165   3.632   2.351   3.222
 6441W        W10166   1.286   6.515  10.399
 6442W        W10167   8.907   8.029   9.023
 6443W        W10168   0.927   8.038   9.943
 6444W        W10169   8.406   9.949   9.395
 6445W        W10170   1.390   9.002   0.456
 6446W        W10171   5.599   2.761   8.520
 6447W        W10172   4.285   8.047   1.383
 6448W        W10173   8.361   3.332   2.708
 6449W        W10174  10.347   5.049   1.293
 6450W        W10175   3.643   1.812   1.864
 6451W        W10176   0.787   7.004  11.372
 6452W        W10177   8.565   2.276   0.868
 6453W        W10178   4.756   5.989  10.969
 6454W        W10179   8.530   9.038  11.408
 6455W        W10180   1.870   9.974   2.655
 6456W        W10181   7.024   1.387  10.809
 6457W        W10182   4.748   9.522   1.903
 6458W        W10183   7.502  10.490   2.720
 6459W        W10184   7.110   6.008   0.440
 6460W        W10185   2.719   6.545   0.408
 6461W        W10186   5.101   7.108   3.141
 6462W        W10187   4.133  10.342  10.875
 6463W        W10188   0.865  10.380   2.245
 6464W        W10189   5.026   8.898   2.792
 6465W        W10190   5.969   4.191   8.446
 6466W        W10191   3.200   0.732   9.112
 6467W        W10192   0.749   4.283   1.237
 6468W        W10193   1.907   1.251  11.920
 6469W        W10194   0.382   6.489  11.318
 6470W        W10195   0.250   2.272   9.462
 6471W        W10196   8.034   9.941  11.873
 6472W        W10197   5.071   2.730  10.320
 6473W        W10198  10.417   3.643  10.857
 6474W        W10199   8.077   1.745   1.293
 6475W        W10200   6.529   2.709  10.879
 6476W        W10201   2.289   7.921   0.926
 6477W        W10202   3.327   6.644  10.815
 6478W        W10203   1.726   8.951  11.308
 6479W        W10204   6.528   9.846  10.885
 6480W        W10205   4.251   2.325  11.342
 6481W        W10206   1.798   7.118   0.285
 6482W        W10207   9.018   3.223  11.344
 6483W        W10208   1.282   0.327   1.332
 6484W        W10209   4.759   3.612   4.264
 6485W        W10210   2.252   8.865  11.472
 6486W        W10211   2.858   2.241   1.908
 6487W        W10212   1.411   5.514   0.954
 6488W        W10213   8.939   4.104  10.054
 6489W        W10214   9.976   2.353   9.420
 6490W        W10215   0.383   2.773  10.454
 6491W        W10216   0.746   2.172   2.878
 6492W        W10217   0.790   5.634   2.380
 6493W        W10218   4.590   8.532   1.400
 6494W        W10219   7.575   0.396   1.795
 6495W        W10220   2.248   6.075   0.812
 6496W        W10221   9.380   6.959   9.534
 6497W        W10222   7.044   9.789   9.571
 6498W        W10223   3.282   5.655   1.310
 6499W        W10224   8.389   4.059   1.845
 6500W        W10225   2.360   0.730   8.963
 6501W        W10226   2.322   4.601  10.857
 6502W        W10227   1.766   9.481  11.843
 6503W        W10228   4.178   8.585   8.489
 6504W        W10229   6.078   2.700   2.640
 6505W        W10230   7.436   0.446  10.895
 6506W        W10231   0.279  10.284   1.284
 6507W        W10232   0.442  10.476   2.202
 6508W        W10233   1.415   4.685   0.746
 6509W        W10234   7.945   9.813   1.804
 6510W        W10235   8.872   2.829   1.835
 6511W        W10236   7.486   9.467   1.359
 6512W        W10237   6.135   9.523   9.414
 6513W        W10238   3.637   9.456   9.893
 6514W        W10239   1.673   2.266   1.206
 6515W        W10240   7.447   7.058   9.592
 6516W        W10241   4.184   7.436   9.572
 6517W        W10242   1.791   7.117   2.251
 6518W        W10243   6.643   7.441   0.841
 6519W        W10244   1.359   9.469   8.961
 6520W        W10245   4.684   4.210   1.756
 6521W        W10246   6.605   9.348   9.894
 6522W        W10247   0.337   5.514   3.269
 6523W        W10248   2.282  10.308  11.825
 6524W        W10249   5.973   1.306   1.256
 6525W        W10250   6.147   5.152   0.357
 6526W        W10251   5.135   5.968   8.040
 6527W        W10252   0.876   3.684  11.390
 6528W        W10253   3.219   7.604   1.377
 6529W        W10254   7.507   5.029  11.995
 6530W        W10255   5.581   1.199  11.409
 6531W        W10256   7.931   2.330   1.817
 6532W        W10257   4.604   7.503   3.129
 6533W        W10258   3.720   4.671  10.904
 6534W        W10259   9.437   5.521  10.395
 6535W        W10260   6.083   2.168   1.691
 6536W        W10261   2.161   7.404   9.074
 6537W        W10262   0.420   7.485   1.430
 6538W        W10263   1.905   6.064   0.403
 6539W        W10264   5.724   4.214  10.513
 6540W        W10265   2.196   8.080   2.822
 6541W        W10266   7.446   1.267   2.167
 6542W        W10267   2.244   3.211   9.015
 6543W        W10268   6.512   5.638   1.336
 6544W        W10269   5.072   9.785   0.364
 6545W        W10270   4.772   2.190   2.338
 6546W        W10271  10.008   9.846   0.771
 6547W        W10272   4.058   7.576   2.356
 6548W        W10273   9.030   6.639   9.960
 6549W        W10274   7.889   8.458  10.490
 6550W        W10275   8.025   3.667   1.812
 6551W        W10276   8.412   5.140  11.356
 6552W        W10277   3.295   2.189   1.816
 6553W        W10278   0.416   9.426  11.904
 6554W        W10279   6.190   3.245   0.430
 6555W        W10280   3.643   6.638   1.247
 6556W        W10281   5.514   7.403   2.267
 6557W        W10282   7.487   6.011   0.246
 6558W        W10283   6.472   9.796  10.397
 6559W        W10284   7.513   0.889   0.445
 6560W        W10285   0.805   7.455   1.778
 6561W        W10286   5.011   3.615   3.770
 6562W        W10287   0.941   9.484   0.792
 6563W        W10288   5.049   5.228   2.356
 6564W        W10289   5.063   6.474   3.187
 6565W        W10290   4.601   6.160  11.288
 6566W        W10291   9.372   7.499   3.810
 6567W        W10292  10.403   4.144  11.774
 6568W        W10293   3.616   2.642   9.037
 6569W        W10294   2.262   5.097   0.757
 6570W        W10295   6.448   0.816   3.297
 6571W        W10296   1.716   9.893   3.126
 6572W        W10297   6.636   1.681  11.489
 6573W        W10298   1.302   5.118  10.818
 6574W        W10299  10.021   0.841   2.745
 6575W        W10300   0.741   9.512   3.279
 6576W        W10301   6.030   9.374  10.541
 6577W        W10302   7.416   1.325   0.353
 6578W        W10303   9.880   2.732   1.260
 6579W        W10304   9.804   4.278   2.668
 6580W        W10305   9.033   6.560   1.751
 6581W        W10306   9.012   3.228   2.852
 6582W        W10307   3.611   2.339   9.410
 6583W        W10308   1.211   6.120   9.915
 6584W        W10309   0.253  10.006   2.658
 6585W        W10310   8.964   0.806   8.525
 6586W        W10311   8.525   3.292  11.321
 6587W        W10312  10.271   0.272  10.331
 6588W        W10313   5.136   5.214   2.803
 6589W        W10314   6.616   0.866   9.951
 6590W        W10315   9.504   8.902   9.412
 6591W        W10316   8.874   5.569  10.355
 6592W        W10317  10.499   7.134  11.971
 6593W        W10318   3.729   1.772   2.375
 6594W        W10319   4.696   8.048   3.269
 6595W        W10320   7.884   8.462   1.222
 6596W        W10321   5.697   2.703   2.864
 6597W        W10322   5.154   4.076  11.330
 6598W        W10323   7.914   7.904   0.419
 6599W        W10324   6.988   9.875  11.004
 6600W        W10325   7.481   5.042   2.795
 6601W        W10326   5.500  10.460   9.459
 6602W        W10327  10.306   7.550   0.927
 6603W        W10328   6.001   1.373  11.383
 6604W        W10329   0.328   9.376   9.444
 6605W        W10330   0.297  10.274   1.801
 6606W        W10331   5.705   2.218   3.191
 6607W        W10332   8.442   5.130   3.192
 6608W        W10333   0.726   4.595   0.849
 6609W        W10334   4.600   1.303   3.160
 6610W        W10335   5.534   0.826   8.925
 6611W        W10336   5.214   7.541   4.280
 6612W        W10337   6.094   1.680   2.286
 6613W        W10338   2.286   2.335   2.845
 6614W        W10339   5.088   1.802   3.348
 6615W        W10340   8.541   6.929   0.336
 6616W        W10341   9.480   0.367   2.748
 6617W        W10342   9.471   3.141  11.924
 6618W        W10343   0.874   4.074   8.562
 6619W        W10344   4.763   5.674   0.770
 6620W        W10345   2.156   8.112   9.593
 6621W        W10346   5.142   5.518   2.382
 6622W        W10347   9.930   7.961  11.763
 6623W        W10348  10.299   8.579   8.516
 6624W        W10349   6.626   8.092   1.202
 6625W        W10350   1.410   9.384   9.849
 6626W        W10351   0.880   4.230  10.408
 6627W        W10352   5.507   3.124   4.292
 6628W        W10353   1.233   6.173  10.376
 6629W        W10354   7.876   4.111   8.079
 6630W        W10355   7.090   4.721  11.355
 6631W        W10356  10.422   8.937   1.209
 6632W        W10357   7.433   4.062   8.906
 6633W        W10358   8.990   5.116   1.401
 6634W        W10359   0.809   9.454   9.066
 6635W        W10360   6.924   8.837   2.256
 6636W        W10361   3.225   3.599   9.060
 6637W        W10362   4.216   2.661   9.960
 6638W        W10363   4.101   1.900   2.307
 6639W        W10364   0.341   9.013   2.755
 6640W        W10365   1.761   4.113  11.508
 6641W        W10366   9.500   7.086   0.958
 6642W        W10367   6.017   0.382   1.885
 6643W        W10368   7.539   3.784   1.245
 6644W        W10369   0.939   8.093   1.331
 6645W        W10370   5.615   3.818  10.422
 6646W        W10371  10.272   8.462   8.981
 6647W        W10372   7.988  10.455   2.698
 6648W        W10373   2.250   5.241   9.021
 6649W        W10374   8.414   6.060  11.815
 6650W        W10375   4.603   8.029   1.843
 6651W        W10376   2.683   5.242   8.541
 6652W        W10377   0.349   2.150  10.491
 6653W        W10378   6.499   6.626   9.454
 6654W        W10379   6.172  10.370  10.378
 6655W        W10380   8.983   0.414   9.443
 6656W        W10381   1.894   8.026   3.125
 6657W        W10382   2.723   6.018   2.362
 6658W        W10383   5.188   2.764   1.423
 6659W        W10384   2.796   1.734  11.393
 6660W        W10385   3.685   0.849  10.920
 6661W        W10386   5.558   3.643   3.235
 6662W        W10387   9.798   3.296  11.772
 6663W        W10388   3.155   8.960   1.335
 6664W        W10389   1.707   7.988  10.958
 6665W        W10390   8.916   6.147  10.483
 6666W        W10391   7.900   5.967  10.066
 6667W        W10392   3.674   1.698  11.023
 6668W        W10393   5.214   8.903   3.326
 6669W        W10394   9.430  10.012  11.791
 6670W        W10395   5.084   9.512   9.406
 6671W        W10396   3.334   6.190  11.337
 6672W        W10397   8.498   0.793   9.907
 6673W        W10398   5.127   2.682  10.878
 6674W        W10399   8.045   9.954   1.205
 6675W        W10400   4.565   7.886   2.662
 6676W        W10401   1.225   1.373  10.914
 6677W        W10402   4.293   8.554   2.247
 6678W        W10403   6.601   2.728   0.428
 6679W        W10404   2.336   5.715  10.913
 6680W        W10405   6.161   5.057  10.376
 6681W        W10406   1.297   9.916   0.825
 6682W        W10407   7.621   2.682   3.226
 6683W        W10408   1.751   5.538   1.361
 6684W        W10409   4.538   9.383  11.380
 6685W        W10410  10.005  10.383  11.040
 6686W        W10411   7.505   0.254  11.851
 6687W        W10412   3.737   5.976  10.803
 6688W        W10413   0.948   0.927   1.797
 6689W        W10414   4.060   1.740   2.768
 6690W        W10415   9.796   3.734   9.380
 6691W        W10416   9.515   6.129  11.840
 6692W        W10417   4.157  10.492   0.277
 6693W        W10418   8.084   9.423   1.885
 6694W        W10419   7.593   3.743  11.508
 6695W        W10420   6.099   4.673   2.358
 6696W        W10421  10.326   7.431   1.421
 6697W        W10422   8.057   1.226  10.507
 6698W        W10423   6.511   3.798   2.759
 6699W        W10424   2.722   9.890  10.336
 6700W        W10425   9.355   2.228   9.484
 6701W        W10426   0.342   0.723   1.836
 6702W        W10427   8.964   5.993   1.719
 6703W        W10428   4.620   6.068   9.944
 6704W        W10429   7.074   5.991   2.662
 6705W        W10430   1.305   6.171   9.411
 6706W        W10431   2.843   1.836   2.333
 6707W        W10432   7.572   2.250  10.391
 6708W        W10433   3.247   6.578  10.366
 6709W        W10434   0.725   4.285  10.821
 6710W        W10435   9.839   6.003   9.051
 6711W        W10436   8.477   6.578   2.705
 6712W        W10437   2.196   0.465   1.837
 6713W        W10438   9.541  10.290   1.856
 6714W        W10439   9.958   7.971   1.346
 6715W        W10440   6.509   8.985   9.873
 6716W        W10441   3.127   8.923   8.884
 6717W        W10442   1.852   2.639   2.770
 6718W        W10443   9.459   8.442   0.865
 6719W        W10444   4.242   0.287   3.192
 6720W        W10445   2.319   5.175   2.198
 6721W        W10446   1.783   0.864   9.885
 6722W        W10447   3.115   2.368  11.386
 6723W        W10448   2.768   4.251   8.422
 6724W        W10449   8.080   9.385  11.943
 6725W        W10450   5.081   0.841  10.534
 6726W        W10451   9.308   3.114   2.348
 6727W        W10452   1.374   8.533   9.864
 6728W        W10453   2.725   4.258   0.858
 6729W        W10454  10.295   1.208   9.545
 6730W        W10455   7.113   0.363   2.820
 6731W        W10456   1.300   7.127  11.327
 6732W        W10457   6.096   5.675   1.728
 6733W        W10458   2.853   7.158   1.324
 6734W        W10459   2.234   1.424  10.481
 6735W        W10460   5.038   4.752  11.764
 6736W        W10461   4.204   3.222   9.494
 6737W        W10462   8.077   0.245  10.001
 6738W        W10463   8.966   8.406   1.396
 6739W        W10464   6.612   2.772   1.301
 6740W        W10465   4.654   8.907   0.311
 6741W        W10466   2.318   8.909   2.224
 6742W        W10467   1.286   0.899   1.787
 6743W        W10468   6.994   5.559  11.320
 6744W        W10469   8.398   2.270   2.858
 6745W        W10470  10.269  10.424   9.488
 6746W        W10471   1.224   9.388   2.670
 6747W        W10472   2.659   2.821   9.920
 6748W        W10473   3.116   7.554  10.838
 6749W        W10474   0.794   0.787   9.840
 6750W        W10475   3.725   8.554   0.357
 6751W        W10476   6.039  10.368  11.814
 6752W        W10477   5.180   8.903   2.287
 6753W        W10478   5.131   2.337   2.312
 6754W        W10479   7.107   5.969   1.715
 6755W        W10480   1.318   0.445   3.238
 6756W        W10481   5.042   7.603   3.678
 6757W        W10482   5.139   5.570   9.969
 6758W        W10483   7.574   3.335   3.311
 6759W        W10484  10.392   0.441   2.315
 6760W        W10485   6.572   8.973   1.363
 6761W        W10486   5.187   9.877   9.998
 6762W        W10487   3.718   0.333   1.317
 6763W        W10488   5.727   5.015  11.917
 6764W        W10489   4.182   1.880   9.925
 6765W        W10490   8.086   5.235   0.887
 6766W        W10491   2.182   4.243   9.104
 6767W        W10492   6.985   3.250   9.951
 6768W        W10493   7.090   0.856   9.066
 6769W        W10494   5.541   7.479   9.907
 6770W        W10495   5.986   0.722  10.921
 6771W        W10496   5.140   7.097   8.538
 6772W        W10497   1.887   0.718   3.637
 6773W        W10498   5.581   6.027  11.865
 6774W        W10499   7.605   6.138   9.979
 6775W        W10500   9.538   4.063   9.087
 6776W        W10501   4.549   2.831   3.829
 6777W        W10502   5.249   5.081   3.273
 6778W        W10503   3.299   3.315   0.256
 6779W        W10504   0.866   4.641   9.848
 6780W        W10505   2.654   6.117   9.990
 6781W        W10506   8.376   5.127  10.511
 6782W        W10507   2.327   9.374   1.403
 6783W        W10508   6.028   0.929   3.217
 6784W        W10509   8.063   4.099   1.788
 6785W        W10510   1.711   7.414   3.635
 6786W        W10511   8.976   9.030   9.043
 6787W        W10512   5.136   4.135   1.881
 6788W        W10513  10.442  10.409  11.798
 6789W        W10514   8.050   6.177   0.243
 6790W        W10515   1.853   4.664   1.727
 6791W        W10516   9.925   8.527   1.830
 6792W        W10517   0.744   5.651   9.413
 6793W        W10518   4.220   2.743  10.947
 6794W        W10519   4.594   1.804   9.413
 6795W        W10520   8.844  10.425  10.059
 6796W        W10521   1.363   5.990   9.009
 6797W        W10522   0.319   4.270  11.352
 6798W        W10523   1.267   7.614   1.794
 6799W        W10524   8.073   2.755   9.364
 6800W        W10525   5.051   0.952  11.037
 6801W        W10526   4.208  10.322  10.528
 6802W        W10527   2.727   2.701   1.700
 6803W        W10528   3.291   3.675   9.390
 6804W        W10529   3.754   3.137   2.685
 6805W        W10530   6.592   7.990  11.026
 6806W        W10531   0.350   5.194   2.272
 6807W        W10532   7.143   6.521   2.274
 6808W        W10533   8.475   8.562  10.026
 6809W        W10534   0.357   3.785   9.094
 6810W        W10535   9.837   2.172  10.946
 6811W        W10536   2.247   3.275  10.459
 6812W        W10537   0.748   4.673  11.399
 6813W        W10538   2.213   1.891   2.648
 6814W        W10539   0.834   5.491   2.802
 6815W        W10540   3.766   5.560   1.362
 6816W        W10541   5.592   0.306   8.907
 6817W        W10542   5.527   0.301  10.349
 6818W        W10543   5.520   8.069   0.734
 6819W        W10544   5.196   0.745   1.375
 6820W        W10545   1.374   4.600   1.332
 6821W        W10546   1.298   6.595   0.826
 6822W        W10547   5.679   8.531   8.969
 6823W        W10548   4.246   2.235   2.814
 6824W        W10549   9.470   5.111  11.777
 6825W        W10550   0.934   0.289   0.840
 6826W        W10551   9.338   1.325   0.412
 6827W        W10552   6.445   3.795   9.496
 6828W        W10553   5.181   7.978   2.269
 6829W        W10554   9.397   1.402   2.789
 6830W        W10555   3.329   7.418   0.843
 6831W        W10556   7.939   3.701   8.547
 6832W        W10557   5.699   1.832   3.340
 6833W        W10558   8.508   0.764  10.537
 6834W        W10559   0.316   1.842   9.473
 6835W        W10560   3.650   7.459   8.969
 6836W        W10561   0.943   6.578  11.496
 6837W        W10562   6.488   8.870   1.699
 6838W        W10563   7.040   8.073  10.952
 6839W        W10564   0.259   9.814   9.446
 6840W        W10565   8.481   4.601  10.076
 6841W        W10566   2.167  10.314   2.697
 6842W        W10567   5.714   1.794   9.963
 6843W        W10568   0.384  10.483   3.132
 6844W        W10569   5.059   7.537  11.859
 6845W        W10570   2.793  10.497   9.418
 6846W        W10571   3.629   7.110   0.414
 6847W        W10572   4.100   5.662   1.324
 6848W        W10573   4.172   5.495   0.304
 6849W        W10574   1.336   0.355   8.968
 6850W        W10575   4.664   8.534   3.188
 6851W        W10576   8.897   5.187   2.300
 6852W        W10577   4.645   6.604   9.870
 6853W        W10578   8.390   9.807   1.300
 6854W        W10579   1.409   4.644   2.705
 6855W        W10580   1.787   5.649  10.336
 6856W        W10581   6.611   4.580   0.896
 6857W        W10582   3.119   7.573   8.010
 6858W        W10583   7.500   6.094   1.297
 6859W        W10584   6.966   1.227   9.367
 6860W        W10585   1.228   8.936  11.508
 6861W        W10586   3.117   0.430  11.439
 6862W        W10587   5.062   5.154  10.503
 6863W        W10588   3.664  10.291   2.301
 6864W        W10589   3.618  10.478   1.234
 6865W        W10590   9.011   2.734   9.942
 6866W        W10591   7.072   9.508   0.319
 6867W        W10592   7.574   8.526   1.812
 6868W        W10593   2.633   6.450   0.848
 6869W        W10594   5.628   0.917   3.615
 6870W        W10595   3.307   5.568   9.576
 6871W        W10596   6.151   3.164  10.529
 6872W        W10597   2.265   6.065   2.284
 6873W        W10598   6.498   9.806   0.800
 6874W        W10599   1.867   3.683   3.141
 6875W        W10600   2.794   9.883   0.323
 6876W        W10601   1.736   0.778  10.956
 6877W        W10602   4.155   1.272   1.260
 6878W        W10603   3.655   9.050  11.506
 6879W        W10604   1.337   2.739  10.814
 6880W        W10605   0.781   6.135   8.915
 6881W        W10606   0.470   8.845   0.390
 6882W        W10607   7.599   7.987   1.731
 6883W        W10608   8.949   9.483   2.718
 6884W        W10609   6.187   7.566   2.221
 6885W        W10610   0.463   6.549   1.279
 6886W        W10611   9.915   4.644   0.257
 6887W        W10612  10.315   9.830  10.457
 6888W        W10613   6.490   3.229  11.886
 6889W        W10614   0.775   1.335   2.205
 6890W        W10615   6.962   2.297   2.783
 6891W        W10616   6.661   5.097   2.201
 6892W        W10617   7.914   8.354   8.976
 6893W        W10618   3.168   4.572   0.280
 6894W        W10619   0.850   6.681   0.280
 6895W        W10620   1.272   2.215   0.835
 6896W        W10621   6.993   4.700   8.516
 6897W        W10622   7.037   6.977  10.528
 6898W        W10623   1.246   6.486   8.953
 6899W        W10624   2.275   8.862   1.884
 6900W        W10625   9.971   4.255   1.302
 6901W        W10626   9.479   8.540  10.042
 6902W        W10627   8.877   0.348  10.908
 6903W        W10628   2.190   7.145  10.551
 6904W        W10629   3.647   5.672  11.333
 6905W        W10630   1.886   7.632  10.806
 6906W        W10631   9.844   8.367   0.813
 6907W        W10632   4.729   4.683   1.811
 6908W        W10633   5.144  10.273   2.274
 6909W        W10634   9.897   7.899   9.845
 6910W        W10635   7.495   1.305  11.903
 6911W        W10636   7.508   8.891  10.388
 6912W        W10637  10.492   2.793   1.206
 6913W        W10638   0.294   0.883  10.471
 6914W        W10639   2.227   6.647  11.902
 6915W        W10640   4.252   9.847   1.778
 6916W        W10641   7.995   8.894   9.912
 6917W        W10642   2.315   7.059  11.401
 6918W        W10643   7.019   4.616   2.388
 6919W        W10644   4.583   4.073   2.697
 6920W        W10645   8.833   0.270   2.749
 6921W        W10646   9.003   1.893   1.233
 6922W        W10647   9.394   2.655  10.902
 6923W        W10648   0.286   7.060  11.402
 6924W        W10649   7.119   3.594   0.776
 6925W        W10650   3.137   0.467   8.942
 6926W        W10651   9.910   9.941   2.394
 6927W        W10652   9.421   7.876   9.466
 6928W        W10653   5.072   4.193   1.302
 6929W        W10654   9.785   9.321   0.888
 6930W        W10655   6.487   1.345   0.287
 6931W        W10656   1.321   7.458   0.253
 6932W        W10657   9.992   9.052   2.217
 6933W        W10658  10.281   7.037   1.758
 6934W        W10659   2.683   0.273   8.913
 6935W        W10660   0.409   1.419   1.918
 6936W        W10661   3.143   7.525  11.945
 6937W        W10662   9.046   0.941   2.213
 6938W        W10663   4.174   4.260   3.158
 6939W        W10664   8.879   0.946   3.662
 6940W        W10665   2.679   5.585   1.337
 6941W        W10666   8.449   6.043  10.958
 6942W        W10667   9.534   7.625   1.794
 6943W        W10668   1.713   5.070  10.513
 6944W        W10669   5.571   2.155  11.444
 6945W        W10670   2.646  10.362   9.955
 6946W        W10671   8.961   8.945   9.553
 6947W        W10672   7.146   4.186   3.771
 6948W        W10673   3.697   0.890  11.280
 6949W        W10674   2.632   1.423  10.878
 6950W        W10675   0.797   6.182   2.746
 6951W        W10676   7.624   8.849   1.316
 6952W        W10677   6.050   9.844   8.942
 6953W        W10678   6.934   6.048   3.331
 6954W        W10679   6.656   2.231   9.419
 6955W        W10680   6.133   4.210  10.018
 6956W        W10681   7.122   0.920  10.404
 6957W        W10682   8.113   0.786  11.442
 6958W        W10683   3.309   3.246   1.243
 6959W        W10684   8.582   1.274   1.775
 6960W        W10685   9.024   0.949  11.892
 6961W        W10686   8.022   1.362   0.883
 6962W        W10687   5.187   5.577   0.780
 6963W        W10688   4.614   5.082   0.814
 6964W        W10689  10.010   3.225  10.841
 6965W        W10690   3.811   5.099   1.407
 6966W        W10691   8.836   0.331  11.485
 6967W        W10692   2.718   2.714   1.269
 6968W        W10693   9.469   9.894   1.340
 6969W        W10694   5.195   7.055  11.918
 6970W        W10695   5.706   6.672   3.806
 6971W        W10696   9.495   2.854   9.864
 6972W        W10697   8.869   4.152  11.881
 6973W        W10698   7.003   2.335   0.727
 6974W        W10699   4.733   2.308   1.805
 6975W        W10700   2.636   8.383   8.443
 6976W        W10701  10.017   6.940  10.813
 6977W        W10702   1.674   7.531   1.244
 6978W        W10703   2.711   9.804  10.940
 6979W        W10704   1.317   7.074   1.303
 6980W        W10705   1.871   7.613   0.402
 6981W        W10706  10.442   3.140  10.349
 6982W        W10707   4.572   1.715  11.438
 6983W        W10708   3.657   6.549  10.817
 6984W        W10709   7.132   6.545   9.027
 6985W        W10710   2.300   9.015   0.466
 6986W        W10711   0.401   9.796   2.280
 6987W        W10712   2.318   7.576   0.827
 6988W        W10713   0.392   2.666  11.958
 6989W        W10714   6.051   8.366  11.784
 6990W        W10715   9.367   1.858  11.405
 6991W        W10716   5.134   0.364  10.877
 6992W        W10717   9.881   7.100   8.524
 6993W        W10718   1.815   7.888   0.295
 6994W        W10719   7.983   9.905   2.217
 6995W        W10720   4.607   1.739   8.627
 6996W        W10721   9.900   1.381   1.892
 6997W        W10722   6.530   8.051   9.845
 6998W        W10723  10.368   5.597  10.394
 6999W        W10724   7.152   9.894   1.205
 7000W        W10725   3.266   4.725   9.070
 7001W        W10726   5.249   2.745   2.360
 7002W        W10727   1.195   8.023   0.953
 7003W        W10728   8.999   4.123   2.653
 7004W        W10729   1.210   1.849  11.456
 7005W        W10730   7.122   1.346   2.208
 7006W        W10731   5.982   1.685   2.844
 7007W        W10732   5.532   8.945   3.269
 7008W        W10733   0.301   3.119   0.784
 7009W        W10734   8.428   2.358   1.343
 7010W        W10735   4.184   1.307  11.852
 7011W        W10736   9.026   6.980   9.083
 7012W        W10737   5.219   3.131   3.145
 7013W        W10738   5.496   1.365  11.863
 7014W        W10739   3.227   6.659   0.782
 7015W        W10740   0.393   7.548   9.979
 7016W        W10741   9.058   7.884   1.234
 7017W        W10742   0.372   0.922   3.238
 7018W        W10743   7.106   1.713   2.214
 7019W        W10744   0.316   9.975  11.371
 7020W        W10745   0.717   4.155   0.306
 7021W        W10746  10.454   2.767   1.911
 7022W        W10747   7.995   3.751  10.329
 7023W        W10748   7.095  10.309  10.431
 7024W        W10749   7.918   5.699  10.809
 7025W        W10750   7.606   3.643   0.307
 7026W        W10751   9.969   7.911   0.736
 7027W        W10752   3.280   9.448   0.362
 7028W        W10753  10.454   3.187  11.836
 7029W        W10754   9.380   9.999   0.402
 7030W        W10755   3.139   4.759   7.946
 7031W        W10756   3.318   4.259   3.130
 7032W        W10757   0.761   3.811   2.746
 7033W        W10758   9.313  10.335  10.012
 7034W        W10759   2.737   6.569   1.782
 7035W        W10760   1.336   9.963   1.207
 7036W        W10761   4.106   0.408   2.355
 7037W        W10762   9.859   6.677   1.318
 7038W        W10763   5.169   7.139   3.824
 7039W        W10764   4.084   8.977  11.341
 7040W        W10765   4.603   0.755   2.255
 7041W        W10766   0.896  10.011   9.977
 7042W        W10767   3.276   7.090  10.816
 7043W        W10768   5.663   4.577  10.818
 7044W        W10769   7.113   0.915   1.272
 7045W        W10770   4.702   6.557   0.773
 7046W        W10771   5.566   5.597   0.420
 7047W        W10772  10.367   0.927  10.458
 7048W        W10773   6.940  10.462   9.392
 7049W        W10774   3.755   1.356  10.954
 7050W        W10775   9.812   4.263   0.444
 7051W        W10776   2.786   6.623  10.060
 7052W        W10777   2.314   8.530  10.806
 7053W        W10778   9.826   3.763   0.830
 7054W        W10779   5.150   9.911   2.800
 7055W        W10780   9.386   7.434   3.331
 7056W        W10781   4.559   3.621   2.842
 7057W        W10782   9.963   6.599  10.979
 7058W        W10783   2.676   1.677   2.714
 7059W        W10784   0.372   3.709  10.051
 7060W        W10785   7.415   4.587   2.646
 7061W        W10786   2.320   2.733   1.855
 7062W        W10787   1.777   3.727   1.236
 7063W        W10788   8.924   8.390  10.957
 7064W        W10789   1.840   3.171  10.530
 7065W        W10790   7.140   3.306   3.214
 7066W        W10791   1.906   8.989   9.544
 7067W        W10792   7.423   4.660  11.401
 7068W        W10793   2.312   5.567   1.753
 7069W        W10794   7.943   1.251  10.996
 7070W        W10795   2.696   4.700   9.882
 7071W        W10796   2.757  10.281   1.735
 7072W        W10797   8.843   1.686   9.997
 7073W        W10798   5.996   3.300   9.401
 7074W        W10799   9.928   0.474   8.972
 7075W        W10800   6.050   0.730   3.669
 7076W        W10801  10.432   1.327  10.508
 7077W        W10802   3.799   9.822  11.351
 7078W        W10803   5.038   9.945  11.374
 7079W        W10804   7.508   5.116   1.818
 7080W        W10805   8.530   3.785   8.979
 7081W        W10806   6.129   0.781  10.478
 7082W        W10807   2.705   4.200   9.539
 7083W        W10808   8.491   3.178  11.794
 7084W        W10809   3.691   0.410   2.821
 7085W        W10810   9.930   0.353  10.909
 7086W        W10811   6.975   6.055  10.483
 7087W        W10812   0.757   3.800   1.730
 7088W        W10813   8.086   4.583  10.413
 7089W        W10814   1.206   3.778   2.336
 7090W        W10815   7.106   8.415   9.953
 7091W        W10816   9.904   1.718  10.339
 7092W        W10817  10.341   6.118   1.738
 7093W        W10818   5.628   0.742   2.855
 7094W        W10819   0.802   8.868   3.217
 7095W        W10820   4.117   4.266  10.849
 7096W        W10821   4.635   8.382   1.770
 7097W        W10822  10.316   3.756   3.165
 7098W        W10823   1.709   1.867   1.373
 7099W        W10824   6.511   6.052   4.135
 7100W        W10825   8.376   1.768   0.877
 7101W        W10826   0.393   0.733   0.271
 7102W        W10827   1.214   4.673   0.286
 7103W        W10828   0.247   2.343   2.172
 7104W        W10829   1.888   7.105  10.980
 7105W        W10830   8.881   7.552  10.354
 7106W        W10831   8.575   2.273  11.290
 7107W        W10832   6.509   0.735  11.924
 7108W        W10833   9.804   9.012  10.873
 7109W        W10834   2.732   9.461  11.829
 7110W        W10835   7.929   6.589   0.850
 7111W        W10836   8.522   3.650  11.461
 7112W        W10837   0.432   5.118   1.420
 7113W        W10838   3.668   4.242  10.968
 7114W        W10839   6.034   6.957  10.882
 7115W        W10840   0.841   2.249   1.776
 7116W        W10841   2.377   3.729   1.826
 7117W        W10842   0.421   1.680   3.310
 7118W        W10843   8.496   7.441  11.507
 7119W        W10844   7.501   3.781   2.293
 7120W        W10845   6.609   1.285  11.308
 7121W        W10846   2.835   7.497   2.847
 7122W        W10847   0.353   4.662  10.512
 7123W        W10848   0.800   0.856   8.970
 7124W        W10849   6.132   5.203  11.926
 7125W        W10850   4.119   2.181  11.881
 7126W        W10851   3.161  10.346   3.141
 7127W        W10852   5.489   0.381   3.224
 7128W        W10853   2.339   8.576   8.484
 7129W        W10854   1.318   1.302   3.267
 7130W        W10855   0.355   8.991  10.833
 7131W        W10856   0.837   0.815   3.269
 7132W        W10857   3.268   4.227   9.112
 7133W        W10858   8.584   1.317   0.340
 7134W        W10859   6.625   6.507   0.804
 7135W        W10860   7.428   2.226  10.907
 7136W        W10861   3.321  10.313   1.714
 7137W        W10862   9.343   1.835   0.462
 7138W        W10863   6.176   7.914   0.862
 7139W        W10864   2.763   0.279   0.445
 7140W        W10865   5.598   5.150   0.294
 7141W        W10866   6.572   8.987  10.868
 7142W        W10867   6.080   0.387   9.892
 7143W        W10868   3.248   9.516  11.437
 7144W        W10869   6.506  10.448   9.102
 7145W        W10870   6.625   4.251  10.077
 7146W        W10871   9.969   2.235   9.006
 7147W        W10872   7.414   2.155   9.537
 7148W        W10873   1.427   7.930   9.062
 7149W        W10874   8.541   1.286   9.081
 7150W        W10875   8.020   3.750   9.494
 7151W        W10876   4.258   1.761   9.494
 7152W        W10877  10.381   4.595   3.814
 7153W        W10878   9.998   1.836   2.235
 7154W        W10879   2.694   9.025   1.319
 7155W        W10880   3.788   7.569  10.412
 7156W        W10881   8.508   3.787   9.851
 7157W        W10882   2.730   2.242   9.934
 7158W        W10883  10.277   1.859   8.433
 7159W        W10884   6.506   1.736   2.193
 7160W        W10885   4.124   7.897   0.375
 7161W        W10886   0.895   3.187   8.933
 7162W        W10887   3.585   5.510   9.991
 7163W        W10888   1.673  10.393   9.459
 7164W        W10889   9.951   0.334   0.947
 7165W        W10890   6.143   0.798   8.509
 7166W        W10891   7.066   8.069  11.910
 7167W        W10892   6.629   2.820   2.238
 7168W        W10893   3.672   0.826  10.413
 7169W        W10894   2.192   8.098   3.313
 7170W        W10895   8.406   3.756   9.490
 7171W        W10896   8.092   3.264   2.219
 7172W        W10897   0.930   3.175   1.685
 7173W        W10898   7.487   8.566  10.511
 7174W        W10899   0.771   0.462   9.456
 7175W        W10900   9.063   1.908  10.486
 7176W        W10901   8.982   9.502   1.266
 7177W        W10902   4.269   3.118  10.540
 7178W        W10903   8.392   1.264   1.288
 7179W        W10904   6.993   2.745   3.192
 7180W        W10905   4.189   6.200   9.391
 7181W        W10906   2.305  10.269  11.355
 7182W        W10907   2.835   3.112  10.018
 7183W        W10908   9.038   1.240  11.845
 7184W        W10909   1.828   0.272  10.362
 7185W        W10910   1.290   2.661   3.349
 7186W        W10911   9.445   2.783  11.882
 7187W        W10912   7.135   4.165   2.751
 7188W        W10913   0.737   6.067  10.861
 7189W        W10914   6.575   1.745  11.765
 7190W        W10915   2.788   4.187  10.872
 7191W        W10916   8.516   7.104   2.735
 7192W        W10917   0.937   8.372   0.724
 7193W        W10918   1.408   0.391   9.468
 7194W        W10919   1.364   5.239   9.570
 7195W        W10920   4.069   4.187   0.426
 7196W        W10921   4.261   8.561   3.316
 7197W        W10922   6.570   6.168   9.887
 7198W        W10923   8.062   2.293  10.021
 7199W        W10924   3.155   8.941   2.183
 7200W        W10925   8.005   0.313   3.281
 7201W        W10926   3.108   3.719   9.855
 7202W        W10927   4.164  10.356  11.310
 7203W        W10928   1.332   6.186   2.714
 7204W        W10929   0.743   1.377   1.894
 7205W        W10930   8.902   8.388   9.590
 7206W        W10931   4.232   6.581   2.840
 7207W        W10932   7.630   6.109   8.964
 7208W        W10933   0.788   1.808   9.543
 7209W        W10934   3.762   0.740   1.901
 7210W        W10935   6.930   0.410   2.250
 7211W        W10936   5.682   2.744   1.857
 7212W        W10937   9.981   8.833  11.857
 7213W        W10938   1.877  10.295  10.454
 7214W        W10939   3.210   2.159   2.322
 7215W        W10940   0.884   1.322  11.941
 7216W        W10941   2.159   2.287   0.383
 7217W        W10942   7.488   4.071   9.534
 7218W        W10943   3.236   0.832  11.463
 7219W        W10944   2.773  10.480   2.680
 7220W        W10945  10.332   5.496   8.995
 7221W        W10946   5.024   1.897   2.766
 7222W        W10947   4.136   4.578  11.944
 7223W        W10948   9.423   4.664   2.247
 7224W        W10949   9.414   9.908  10.329
 7225W        W10950   9.396   0.931   0.258
 7226W        W10951   1.250   2.649   9.587
 7227W        W10952   2.721   4.286   1.838
 7228W        W10953   3.140   5.611  10.055
 7229W        W10954   2.704   8.884   9.401
 7230W        W10955   5.565   6.124  10.927
 7231W        W10956   7.908   7.885  10.012
 7232W        W10957   3.103   2.824   9.118
 7233W        W10958   5.166  10.493   8.956
 7234W        W10959   6.612  10.498  11.860
 7235W        W10960   3.682   3.216   9.854
 7236W        W10961   7.900   6.592   0.383
 7237W        W10962   6.194   2.191   8.422
 7238W        W10963   3.186   3.303  10.974
 7239W        W10964   4.592   9.880   9.524
 7240W        W10965   4.087   7.047   9.878
 7241W        W10966  10.400   9.907   2.678
 7242W        W10967   4.197   2.761   1.877
 7243W        W10968   0.373   0.756   2.334
 7244W        W10969   1.327   1.281   0.891
 7245W        W10970   2.229   1.754   1.759
 7246W        W10971   3.589   9.792   2.207
 7247W        W10972   5.670   4.716  11.501
 7248W        W10973   9.842   7.531   2.215
 7249NA+    NA+10974   8.008   7.003   9.076
 7250NA+    NA+10975   9.045  10.319  11.916
 7251NA+    NA+10976   0.343   6.479   3.218
 7252NA+    NA+10977   6.565   1.673   3.260
 7253NA+    NA+10978  10.461   3.682  11.432
 7254NA+    NA+10979   1.715   8.977   3.123
 7255NA+    NA+10980  10.021   6.553   0.814
 7256NA+    NA+10981   4.666   0.411   9.476
 7257NA+    NA+10982   3.122   4.739  11.943
 7258NA+    NA+10983  10.488   0.391   9.080
 7259NA+    NA+10984   7.142   4.620   7.969
 7260NA+    NA+10985   0.274   9.062   8.906
 7261NA+    NA+10986   5.120   7.124  11.016
 7262NA+    NA+10987   5.120   3.171   8.952
 7263NA+    NA+10988   6.071   8.914  10.325
 7264NA+    NA+10989   1.201   6.533   9.857
 7265NA+    NA+10990   4.176   1.902  10.988
 7266NA+    NA+10991   1.730   0.339   0.878
 7267NA+    NA+10992   2.644   0.319  10.834
 7268NA+    NA+10993   2.347   2.152   1.852
 7269NA+    NA+10994   9.502   0.308   1.895
 7270NA+    NA+10995   0.302   7.946   1.292
 7271NA+    NA+10996   7.929   0.821   3.653
 7272NA+    NA+10997   7.925   3.720   9.916
 7273NA+    NA+10998  10.437   5.529  10.968
 7274NA+    NA+10999   3.653   4.698  11.442
 7275NA+    NA+11000   6.935   1.900   0.266
 7276NA+    NA+11001   3.764   9.503   2.359
 7277NA+    NA+11002   6.681   3.600   1.858
 7278NA+    NA+11003   3.294   6.611   9.575
 7279NA+    NA+11004   1.755   5.021   1.340
 7280NA+    NA+11005  10.313  10.398   2.794
 7281NA+    NA+11006   2.654   1.820  10.866
 7282NA+    NA+11007   6.523   9.957   9.111
 7283NA+    NA+11008   9.520   3.321   0.810
 7284NA+    NA+11009   1.800   1.847  11.007
 7285NA+    NA+11010   1.714   2.692   9.025
 7286NA+    NA+11011   4.675   6.997   9.527
 7287NA+    NA+11012   1.768   7.029  11.285
 7288NA+    NA+11013   3.726   0.922   0.334
 7289NA+    NA+11014   0.435   8.909  11.938
 7290NA+    NA+11015   9.321   1.410  10.403
 7291NA+    NA+11016   7.578   2.251  11.499
 7292NA+    NA+11017   9.872   5.048   3.233
 7293NA+    NA+11018   4.734   5.210   0.281
 7294NA+    NA+11019   0.918   5.672   0.301
 7295NA+    NA+11020   9.964   9.364   9.562
 7296NA+    NA+11021   3.243   6.463   2.315
 7297NA+    NA+11022   2.815   9.541   1.757
 7298NA+    NA+11023   6.182   8.864  10.957
 7299NA+    NA+11024   5.149   3.154   8.429
 7300NA+    NA+11025   5.686   4.761   1.863
 7301NA+    NA+11026   9.542   4.062  11.385
 7302NA+    NA+11027   0.275   5.201   1.780
 7303NA+    NA+11028   1.196   9.865  11.471
 7304NA+    NA+11029   1.862   0.399  10.829
 7305NA+    NA+11030   4.184   7.971   0.799
 7306NA+    NA+11031   5.065   2.159   1.288
 7307NA+    NA+11032   1.273   9.433  11.503
 7308NA+    NA+11033   0.390   8.079   2.831
 7309NA+    NA+11034   6.647   9.920   2.345
 7310NA+    NA+11035   5.045   4.589   0.787
 7311NA+    NA+11036   0.724   0.869   0.804
 7312NA+    NA+11037   1.392   9.798   3.304
 7313NA+    NA+11038   3.734   0.849   9.953
 7314NA+    NA+11039   1.713   7.439  10.052
 7315NA+    NA+11040   5.158   5.522  11.986
 7316NA+    NA+11041   4.252   0.288   9.481
 7317NA+    NA+11042   2.766  10.427   0.318
 7318NA+    NA+11043   7.929   0.857   2.283
 7319NA+    NA+11044   1.866   0.314  11.971
 7320NA+    NA+11045   4.714   3.664   1.733
 7321NA+    NA+11046   0.830   8.040  11.938
 7322NA+    NA+11047   6.601   8.041   0.821
 7323NA+    NA+11048   2.702   7.991   2.223
 7324NA+    NA+11049   4.192   8.395   9.958
 7325CL-    CL-11050   5.071   5.068   1.308
 7326CL-    CL-11051   4.597   5.246  11.515
 7327CL-    CL-11052   8.994   2.739  10.525
 7328CL-    CL-11053   8.375   1.384   9.377
 7329CL-    CL-11054  10.379   3.275   1.885
 7330CL-    CL-11055   5.567   7.109   1.380
 7331CL-    CL-11056   1.886   9.791   8.923
 7332CL-    CL-11057   8.434   8.837  10.050
 7333CL-    CL-11058   9.486   0.251  10.998
 7334CL-    CL-11059   3.243   2.653   3.173
 7335CL-    CL-11060   1.870   8.515   9.597
 7336CL-    CL-11061   2.752   3.749   1.269
 7337CL-    CL-11062   7.416   9.907   9.367
 7338CL-    CL-11063   0.887   7.051   1.298
 7339CL-    CL-11064   2.660   1.868  11.976
 7340CL-    CL-11065   1.201   8.481  11.454
 7341CL-    CL-11066   1.197   2.845  11.763
 7342CL-    CL-11067   3.759   8.854   2.197
 7343CL-    CL-11068   4.701   0.383   1.875
 7344CL-    CL-11069   9.059   2.821   8.997
 7345CL-    CL-11070   2.752   0.939   1.858
 7346CL-    CL-11071   4.172   0.761   1.332
 7347CL-    CL-11072   7.135   8.929  10.027
 7348CL-    CL-11073   8.476   8.912   0.394
 7349CL-    CL-11074   9.460   4.216   9.421
 7350CL-    CL-11075   6.569   9.347   1.800
 7351CL-    CL-11076   9.395   3.311  10.923
 7352CL-    CL-11077   8.067   8.926  10.447
 7353CL-    CL-11078   2.708   4.767   2.678
 7354CL-    CL-11079   2.786   1.243   1.267
 7355CL-    CL-11080   0.718   9.464   0.387
 7356CL-    CL-11081   0.281   8.914   0.810
 7357CL-    CL-11082   2.267   3.597   0.322
 7358CL-    CL-11083   1.383   3.126   8.613
 7359CL-    CL-11084   4.266   9.981  11.934
 7360CL-    CL-11085   1.415   8.376   2.349
 7361CL-    CL-11086   2.327   7.517   2.296
 7362CL-    CL-11087   5.199   8.903   9.499
 7363CL-    CL-11088   4.643   9.913  10.378
 7364CL-    CL-11089   8.363   5.709   9.030
 7365CL-    CL-11090   6.468   1.258   3.223
 7366CL-    CL-11091   9.943   3.772  11.482
 7367CL-    CL-11092   9.823   8.108   1.690
 7368CL-    CL-11093   6.942   7.071   0.913
 7369CL-    CL-11094   2.347   1.843   0.449
 7370CL-    CL-11095   5.155   2.784   9.500
 7371CL-    CL-11096  10.265   9.435   9.996
 7372CL-    CL-11097   4.701   3.717   3.729
 7373CL-    CL-11098   5.679   7.933   1.301
 7374CL-    CL-11099   2.382   4.540   0.284
 7375CL-    CL-11100   3.245   5.080   8.962
 7376CL-    CL-11101   4.693   4.768  10.873
 7377CL-    CL-11102   7.124   8.494   1.858
 7378CL-    CL-11103   4.090   2.634  11.329
 7379CL-    CL-11104   1.424   9.065   9.964
 7380CL-    CL-11105   7.043   9.886   8.615
 7381CL-    CL-11106   7.934   4.551   1.418
 7382CL-    CL-11107   0.369   9.952   0.387
 7383CL-    CL-11108   2.685   6.561  11.862
 7384CL-    CL-11109   8.107   6.143   9.586
 7385CL-    CL-11110   1.236   8.567   3.338
 7386CL-    CL-11111   9.414   5.170   8.903
 7387CL-    CL-11112   0.807   5.109  10.876
 7388CL-    CL-11113   5.233   3.644   4.091
 7389CL-    CL-11114   7.009   8.016   0.321
 7390CL-    CL-11115   6.140   9.442   1.812
 7391CL-    CL-11116   4.211   5.245  10.883
 7392CL-    CL-11117   3.812   6.928   3.221
 7393CL-    CL-11118   0.829   1.385   0.290
 7394CL-    CL-11119   8.475   7.912  10.830
 7395CL-    CL-11120   8.915   7.038  10.847
 7396CL-    CL-11121   8.488  10.003   2.723
 7397CL-    CL-11122   4.236   2.226   9.547
 7398CL-    CL-11123   2.666   0.758   8.999
 7399CL-    CL-11124   2.352   2.688   1.435
 7400CL-    CL-11125   1.253   9.903   0.346
  10.50000  10.50000  12.00000   0.00000   0.00000   0.00000   0.00000   0.00000   0.00000
