Protein in INSANE! Membrane UpperLeaflet>POPC=1.0 LowerLeaflet>POPC=1.0
10365
    1AU     AUC    1   2.302   4.417   6.574  0.0415 -0.0438  0.0088
    1AU     AUC    2   2.370   4.163   6.402 -0.0254 -0.0718  0.0818
    1AU     AUC    3   2.420   4.491   6.297 -0.0946 -0.0333 -0.0562
    1AU     AUC    4   2.211   4.332   6.870  0.0141  0.0712 -0.0740
    1AU     AUC    5   2.226   4.661   6.746  0.0599  0.0405  0.0285
    1AU     AUC    6   1.999   4.466   6.638  0.0503 -0.0637 -0.0277
    1AU     AUC    7   2.119   4.345   6.320  0.0734 -0.0027  0.0691
    1AU     AUC    8   2.502   4.465   6.808 -0.0241  0.0437  0.1041
    1AU     AUC    9   2.631   4.351   6.516 -0.1337 -0.1153  0.0069
    1AU     AUC   10   2.493   4.649   6.536  0.0145 -0.1607  0.0488
    1AU     AUC   11   2.159   4.670   6.432  0.0272 -0.0613 -0.0242
    1AU     AUC   12   2.429   4.152   6.734  0.0358 -0.0141  0.0364
    1AU     AUC   13   2.124   4.148   6.605  0.0691 -0.0650  0.1705
    1AU     AUC   14   2.469   3.862   6.187 -0.0914  0.0699  0.0070
    1AU     AUC   15   2.580   4.170   6.093  0.0206  0.0733  0.0096
    1AU     AUC   16   2.567   4.521   5.965 -0.0581  0.1411 -0.0756
    1AU     AUC   17   2.114   4.260   7.208  0.0229  0.0126  0.0642
    1AU     AUC   18   2.125   4.610   7.101  0.0325  0.0043  0.0184
    1AU     AUC   19   2.103   4.930   6.954  0.0228  0.0271  0.0258
    1AU     AUC   20   1.652   4.505   6.726 -0.0561 -0.0558  0.0537
    1AU     AUC   21   1.733   4.389   6.405 -0.0310 -0.0244  0.0275
    1AU     AUC   22   1.886   4.249   6.111 -0.0110 -0.0343  0.0516
    1AU     AUC   23   2.731   4.529   7.065  0.0671 -0.1028 -0.0277
    1AU     AUC   24   2.838   4.392   6.792 -0.0639 -0.0494 -0.0080
    1AU     AUC   25   2.971   4.286   6.462  0.0422 -0.0306 -0.0524
    1AU     AUC   26   2.666   4.932   6.486 -0.0974  0.0352 -0.0342
    1AU     AUC   27   2.330   4.976   6.336 -0.0698 -0.0014  0.0329
    1AU     AUC   28   2.005   4.944   6.260 -0.0543 -0.0165  0.0139
    1AU     AUC   29   2.568   3.882   6.816  0.0373 -0.0111  0.0349
    1AU     AUC   30   2.220   3.815   6.741  0.0344  0.0440  0.0004
    1AU     AUC   31   1.888   3.859   6.653  0.0330 -0.0062  0.0188
    1AU     AUC   32   2.628   4.752   6.217 -0.0362 -0.0545  0.1148
    1AU     AUC   33   2.299   4.757   6.065  0.0002 -0.0275 -0.0751
    1AU     AUC   34   2.467   3.843   6.473 -0.0116 -0.0897  0.0206
    1AU     AUC   35   2.159   3.830   6.384  0.1384 -0.0372  0.0297
    1AU     AUC   36   2.418   5.000   6.716 -0.0903 -0.0007  0.1043
    1AU     AUC   37   2.073   4.988   6.633 -0.0324  0.0084  0.0576
    1AU     AUC   38   2.337   4.060   7.035  0.0626  0.0070 -0.0529
    1AU     AUC   39   2.007   4.017   6.971  0.0584 -0.0322 -0.0203
    1AU     AUC   40   2.190   4.042   6.139 -0.0239 -0.0174  0.0266
    1AU     AUC   41   2.228   4.385   6.014 -0.0153 -0.0303 -0.0037
    1AU     AUC   42   1.857   4.384   6.981  0.0237  0.0232  0.0756
    1AU     AUC   43   1.863   4.756   6.845  0.0181  0.0215 -0.0532
    1AU     AUC   44   2.740   4.107   6.267 -0.0864 -0.0224 -0.1060
    1AU     AUC   45   2.822   4.447   6.216  0.0359 -0.0187 -0.0359
    1AU     AUC   46   2.444   4.434   7.175 -0.0192  0.0147 -0.0087
    1AU     AUC   47   2.429   4.752   6.997  0.0654 -0.0233  0.0147
    1AU     AUC   48   1.821   4.751   6.498  0.0040 -0.0467 -0.0772
    1AU     AUC   49   1.962   4.595   6.197 -0.0967  0.0760 -0.0253
    1AU     AUC   50   2.740   4.744   6.804  0.0092  0.1571  0.0231
    1AU     AUC   51   2.848   4.608   6.522  0.0549  0.0613  0.0635
    1AU     AUC   52   1.808   4.179   6.675 -0.0050  0.0335  0.0444
    1AU     AUC   53   1.863   4.041   6.362 -0.0547  0.0400  0.0118
    1AU     AUC   54   2.671   4.203   6.990  0.0518 -0.0112 -0.0080
    1AU     AUC   55   2.780   4.052   6.609 -0.0612 -0.0402  0.0183
    1AU    AUSL   56   2.625   4.877   5.883  0.1193  0.0343  0.0378
    1AU    AUSL   57   2.900   4.932   6.234  0.0057 -0.0181 -0.0338
    1AU     AUL   58   2.916   4.945   5.819  0.0127  0.0495  0.0064
    1AU       S   59   3.333   4.904   6.057  0.0384  0.4168 -0.3258
    1AU     LIG   60   3.703   5.184   5.899  0.0183  0.0962  0.1327
    1AU     LIG   61   3.947   5.545   5.672  0.0945 -0.0929 -0.1569
    1AU     LIG   62   4.281   5.795   5.490  0.0399  0.2668  0.1840
    1AU       S   63   2.692   5.341   5.712  0.1177 -0.0409  0.1786
    1AU     LIG   64   2.876   5.070   5.364  0.0284 -0.0529  0.2993
    1AU     LIG   65   2.730   5.260   4.900  0.0252 -0.0387  0.0346
    1AU     LIG   66   2.645   5.244   4.490  0.1524 -0.3361 -0.1663
    1AU    AUSL   67   2.581   5.225   6.191  0.0096  0.0317  0.0017
    1AU    AUSL   68   2.167   5.223   6.309  0.0622  0.0846 -0.0222
    1AU     AUL   69   2.289   5.540   6.105 -0.0194 -0.0196  0.1480
    1AU       S   70   2.750   5.428   6.006  0.1393  0.0342  0.1212
    1AU     LIG   71   2.575   5.833   5.774 -0.0008 -0.2330  0.3842
    1AU     LIG   72   2.648   6.151   5.529  0.1125  0.4456  0.3055
    1AU     LIG   73   2.620   6.514   5.336 -0.0361 -0.0696  0.0138
    1AU       S   74   2.487   5.582   6.534 -0.4421  0.2241  0.4948
    1AU     LIG   75   2.620   5.860   6.255 -0.2658 -0.4870 -0.0532
    1AU     LIG   76   2.839   6.241   6.088  0.1330 -0.1751  0.2939
    1AU     LIG   77   3.078   6.547   6.388 -0.0078  0.1867 -0.0777
    1AU    AUSL   78   2.244   5.116   5.885 -0.0513 -0.0662 -0.0447
    1AU    AUSL   79   2.310   4.657   5.687  0.0458  0.0112  0.1103
    1AU     AUL   80   2.456   4.947   5.587  0.0139  0.0815  0.0432
    1AU       S   81   2.430   5.381   5.661  0.1970 -0.2090  0.1287
    1AU     LIG   82   2.040   5.549   5.596 -0.3588 -0.0511 -0.2636
    1AU     LIG   83   1.803   5.764   5.768 -0.0092 -0.3183  0.1841
    1AU     LIG   84   1.442   5.762   5.967 -0.0930 -0.0817 -0.4726
    1AU       S   85   2.046   4.778   5.494 -0.0568 -0.1570 -0.3213
    1AU     LIG   86   2.379   4.626   5.050 -0.2315  0.0758  0.0110
    1AU     LIG   87   2.721   4.770   4.928  0.1487  0.2625 -0.1328
    1AU     LIG   88   3.147   4.993   4.889 -0.1840 -0.0878 -0.4371
    1AU    AUSL   89   2.250   3.484   6.247  0.0496 -0.0500 -0.0204
    1AU    AUSL   90   1.824   3.681   6.258  0.0375 -0.0550 -0.1329
    1AU     AUL   91   1.874   3.382   6.192  0.0231 -0.0546 -0.0275
    1AU       S   92   2.189   3.128   6.460 -0.4494 -0.1212 -0.1191
    1AU     LIG   93   1.868   2.950   6.120  0.0238  0.1227  0.0376
    1AU     LIG   94   2.020   2.608   5.878  0.1760 -0.3690 -0.0099
    1AU     LIG   95   2.291   2.290   5.847 -0.6821  0.2593  0.2549
    1AU       S   96   1.579   3.544   5.831 -0.1260  0.4659  0.0941
    1AU     LIG   97   1.304   3.205   6.128  0.1402  0.1379 -0.2549
    1AU     LIG   98   0.894   3.062   6.275  0.0747 -0.3021  0.0903
    1AU     LIG   99   0.644   2.553   6.401  0.2388  0.2606 -0.0379
    1AU    AUSL  100   2.513   3.444   6.580  0.0196  0.1016 -0.0097
    1AU    AUSL  101   2.529   3.815   5.843  0.0772 -0.0790 -0.0245
    1AU     AUL  102   2.361   3.339   6.053  0.0231 -0.1332  0.0065
    1AU       S  103   2.955   3.354   5.881 -0.4917  0.0009  0.2039
    1AU     LIG  104   2.758   2.962   6.142  0.1684  0.0608  0.2874
    1AU     LIG  105   2.880   2.546   6.219 -0.2817  0.0005 -0.0812
    1AU     LIG  106   2.785   2.197   6.132  0.0813  0.0940 -0.1689
    1AU       S  107   2.446   3.138   6.497 -0.0373 -0.0233  0.3936
    1AU     LIG  108   2.695   2.728   6.617  0.1648  0.4698  0.0895
    1AU     LIG  109   3.044   2.404   6.632 -0.3598 -0.2192 -0.2367
    1AU     LIG  110   3.275   2.101   6.451 -0.2098 -0.0157  0.0177
    1AU    AUSL  111   2.069   3.630   6.622  0.1347 -0.0086  0.0159
    1AU    AUSL  112   2.402   3.696   6.929  0.0088 -0.0394 -0.0426
    1AU     AUL  113   2.383   3.399   6.867 -0.0114 -0.0645  0.0455
    1AU       S  114   2.241   3.290   7.299 -0.1787 -0.0656  0.4997
    1AU     LIG  115   2.198   2.954   7.032 -0.0413 -0.1851 -0.0206
    1AU     LIG  116   2.221   2.692   6.714  0.0366  0.0672  0.2771
    1AU     LIG  117   2.366   2.612   6.283  0.1119  0.3467  0.0862
    1AU       S  118   2.072   3.174   6.617 -0.4058 -0.1516  0.0410
    1AU     LIG  119   1.706   2.930   6.736 -0.1728 -0.0776  0.1281
    1AU     LIG  120   1.389   2.735   7.099 -0.2482  0.3055 -0.1039
    1AU     LIG  121   1.071   2.769   7.469  0.2897  0.2065  0.3548
    1AU    AUSL  122   2.134   5.286   6.767 -0.0404 -0.0549 -0.0902
    1AU    AUSL  123   1.767   5.180   6.485  0.0190  0.0700  0.1214
    1AU     AUL  124   1.976   5.434   6.473  0.0340  0.0650 -0.0651
    1AU       S  125   2.372   5.656   6.641 -0.2151  0.3104 -0.1956
    1AU     LIG  126   2.137   5.929   6.366 -0.1211  0.1369  0.0962
    1AU     LIG  127   2.179   6.039   5.993  0.3025 -0.3505 -0.2044
    1AU     LIG  128   2.203   6.279   5.705  0.1063  0.1212 -0.0112
    1AU       S  129   1.618   5.512   6.706  0.4405  0.0958  0.0805
    1AU     LIG  130   1.645   5.826   6.441  0.1264  0.3020  0.3544
    1AU     LIG  131   1.756   6.261   6.321 -0.2070  0.1802 -0.0048
    1AU     LIG  132   1.685   6.580   6.219  0.5831 -0.2294 -0.1673
    1AU    AUSL  133   2.494   5.095   6.587 -0.1016 -0.0356  0.0292
    1AU    AUSL  134   2.471   5.201   7.034 -0.0028  0.0855 -0.0337
    1AU     AUL  135   2.289   5.377   6.971 -0.0015  0.0312  0.0288
    1AU       S  136   2.692   5.464   7.180 -0.0260  0.1620  0.3112
    1AU     LIG  137   2.474   5.868   7.096 -0.0597  0.5076  0.1036
    1AU     LIG  138   2.427   6.417   7.113  0.1298 -0.0681  0.2716
    1AU     LIG  139   2.588   6.706   7.379  0.4159 -0.0542  0.0688
    1AU       S  140   2.521   5.467   6.553 -0.0702 -0.0395 -0.1552
    1AU     LIG  141   2.968   5.515   6.401 -0.0567  0.2205  0.0993
    1AU     LIG  142   3.351   5.420   6.297  0.4441  0.2866 -0.0725
    1AU     LIG  143   3.618   5.744   6.032 -0.1045  0.4110  0.2684
    1AU    AUSL  144   2.188   3.850   7.294 -0.0235  0.0341 -0.0185
    1AU    AUSL  145   2.637   3.950   7.201 -0.0332 -0.0049  0.0183
    1AU     AUL  146   2.514   3.657   7.237 -0.0708  0.0791 -0.0835
    1AU       S  147   2.239   3.366   7.421  0.2818  0.3522 -0.2145
    1AU     LIG  148   2.549   3.180   7.741 -0.0255 -0.0666  0.1207
    1AU     LIG  149   2.475   2.773   7.479 -0.4705 -0.0212 -0.1852
    1AU     LIG  150   2.412   2.491   7.187  0.1529 -0.2772 -0.0145
    1AU       S  151   2.666   3.859   7.626 -0.0983 -0.3155  0.3117
    1AU     LIG  152   2.926   3.402   7.543  0.0419  0.0211  0.0078
    1AU     LIG  153   3.032   3.060   7.293 -0.0898  0.0574  0.3039
    1AU     LIG  154   3.244   2.964   6.817 -0.0164  0.1841 -0.1436
    1AU    AUSL  155   1.942   3.593   7.026 -0.0769 -0.0459 -0.0481
    1AU    AUSL  156   1.803   4.042   7.298  0.0431 -0.0238 -0.0831
    1AU     AUL  157   1.906   3.762   7.400 -0.0909  0.0182  0.0975
    1AU       S  158   1.489   3.807   7.239  0.1692  0.3586 -0.1428
    1AU     LIG  159   1.085   3.579   6.882 -0.1278  0.0916  0.0705
    1AU     LIG  160   0.744   3.457   6.685  0.0181 -0.1317  0.1547
    1AU     LIG  161   0.443   3.431   6.426  0.1227 -0.2264  0.1697
    1AU       S  162   1.999   3.413   7.103 -0.1715  0.0332  0.0805
    1AU     LIG  163   1.758   3.059   7.290  0.0094 -0.0568 -0.0137
    1AU     LIG  164   1.543   2.919   7.569  0.2349  0.3125 -0.1066
    1AU     LIG  165   1.510   2.502   7.562 -0.0727  0.0309 -0.0677
    1AU    AUSL  166   2.110   4.046   5.722 -0.0729 -0.0665 -0.0383
    1AU    AUSL  167   2.197   3.879   6.117  0.0275 -0.0693  0.0350
    1AU     AUL  168   2.062   3.706   5.830 -0.1124  0.0783  0.1033
    1AU       S  169   1.639   3.765   5.680 -0.2579 -0.0756  0.2021
    1AU     LIG  170   1.204   3.904   5.814 -0.0843 -0.4576 -0.1905
    1AU     LIG  171   0.890   4.108   5.876 -0.1209  0.2962 -0.1973
    1AU     LIG  172   0.444   4.158   5.760 -0.5944  0.4613  0.1714
    1AU       S  173   2.244   3.838   5.438  0.3597  0.2192 -0.2052
    1AU     LIG  174   1.938   3.474   5.412 -0.2332  0.0172 -0.0910
    1AU     LIG  175   1.973   3.076   5.575 -0.0245  0.0921 -0.5511
    1AU     LIG  176   2.161   2.759   5.444 -0.1366  0.1742  0.0223
    1AU    AUSL  177   2.681   3.610   6.154 -0.0591  0.0093  0.0120
    1AU    AUSL  178   2.845   4.220   5.729  0.0429  0.0052 -0.0164
    1AU     AUL  179   2.915   3.727   5.636  0.0393 -0.0391  0.0177
    1AU       S  180   2.471   3.503   5.544 -0.3711  0.0361 -0.0055
    1AU     LIG  181   2.616   3.094   5.659 -0.1815  0.1553  0.4165
    1AU     LIG  182   2.583   2.690   5.708 -0.0724 -0.0322  0.0949
    1AU     LIG  183   2.740   2.259   5.525 -0.0584  0.0781 -0.1485
    1AU       S  184   3.143   4.116   5.564 -0.1187  0.3670  0.2559
    1AU     LIG  185   3.633   4.302   5.415  0.5040  0.2559 -0.2327
    1AU     LIG  186   4.031   4.402   5.524 -0.1972 -0.7006 -0.1552
    1AU     LIG  187   4.478   4.277   5.737  0.0092 -0.2681  0.2017
    1AU    AUSL  188   2.430   4.293   5.875 -0.1111  0.0336  0.1202
    1AU    AUSL  189   1.898   4.443   5.783  0.0344  0.0514  0.0332
    1AU     AUL  190   2.201   4.303   5.559  0.0517  0.1248 -0.0736
    1AU       S  191   1.846   4.620   5.468  0.0944 -0.1372  0.1094
    1AU     LIG  192   1.425   4.795   5.442 -0.1532  0.2694 -0.2835
    1AU     LIG  193   1.157   5.209   5.408  0.0369 -0.1750  0.0244
    1AU     LIG  194   1.081   5.569   5.616  0.1510 -0.1808  0.3301
    1AU       S  195   2.534   4.004   5.453 -0.1388  0.0630  0.1789
    1AU     LIG  196   2.777   4.161   5.138 -0.0446  0.1622  0.1638
    1AU     LIG  197   2.896   4.179   4.765  0.0911  0.0193  0.3115
    1AU     LIG  198   3.037   3.933   4.381 -0.0738  0.0662 -0.0320
    1AU    AUSL  199   1.557   4.675   7.048 -0.0041  0.0783 -0.0277
    1AU    AUSL  200   1.803   5.067   6.919 -0.0252  0.0358 -0.0549
    1AU     AUL  201   1.409   4.973   6.968  0.0587  0.0278 -0.0513
    1AU       S  202   1.728   5.343   7.002  0.1708 -0.1851  0.1853
    1AU     LIG  203   1.981   5.773   6.863  0.3138 -0.2722 -0.0600
    1AU     LIG  204   2.110   6.179   6.792  0.1370 -0.2107  0.1741
    1AU     LIG  205   2.114   6.570   6.599 -0.1486  0.0643  0.1332
    1AU       S  206   1.337   4.776   7.382 -0.1402  0.2576 -0.1552
    1AU     LIG  207   0.826   4.766   7.218 -0.0587  0.1486 -0.5815
    1AU     LIG  208   0.526   4.941   6.913 -0.1208  0.2086 -0.0172
    1AU     LIG  209   0.028   4.952   6.846 -0.0029 -0.0007  0.0507
    1AU    AUSL  210   1.903   4.444   7.197  0.0323 -0.1402 -0.1111
    1AU    AUSL  211   1.482   4.244   7.024 -0.0157  0.0735 -0.0228
    1AU     AUL  212   1.531   4.358   7.311  0.0452  0.1325 -0.0921
    1AU       S  213   1.460   4.782   7.557  0.2061  0.1959  0.3502
    1AU     LIG  214   1.483   5.138   7.863  0.3201 -0.0449  0.5512
    1AU     LIG  215   1.332   5.443   8.073  0.2196  0.2552 -0.2093
    1AU     LIG  216   1.519   5.880   8.179 -0.1952 -0.3235  0.0234
    1AU       S  217   1.334   3.928   7.265  0.0871  0.1144  0.0581
    1AU     LIG  218   0.982   3.707   7.341  0.3278 -0.4370  0.1593
    1AU     LIG  219   0.612   3.514   7.228 -0.1590 -0.3872  0.2279
    1AU     LIG  220   0.290   3.450   7.331  0.2979  0.1784  0.0293
    1AU    AUSL  221   1.845   4.883   7.302 -0.0211  0.0899 -0.0515
    1AU    AUSL  222   2.154   4.599   7.526  0.0297 -0.1117 -0.0556
    1AU     AUL  223   1.857   4.612   7.504  0.0377 -0.0969  0.0416
    1AU       S  224   2.233   4.927   7.715  0.2125 -0.3499 -0.2335
    1AU     LIG  225   1.997   5.353   7.946 -0.1327  0.2272  0.2690
    1AU     LIG  226   1.706   5.688   7.779  0.2021 -0.4554 -0.1604
    1AU     LIG  227   1.314   5.902   7.675 -0.0922 -0.3579 -0.1075
    1AU       S  228   1.665   5.020   7.378 -0.5065 -0.3134  0.1781
    1AU     LIG  229   1.464   5.417   7.462 -0.0810  0.0124  0.2024
    1AU     LIG  230   1.177   5.630   7.146 -0.2205 -0.0537 -0.1387
    1AU     LIG  231   0.773   5.788   7.082 -0.2806  0.0532 -0.1928
    1AU    AUSL  232   3.130   4.204   6.115  0.0155  0.0128 -0.0453
    1AU    AUSL  233   2.826   4.537   6.043  0.0443  0.0180 -0.0346
    1AU     AUL  234   3.023   4.480   5.806 -0.0594 -0.0082  0.0378
    1AU       S  235   3.389   4.193   5.888  0.0812 -0.2234  0.2947
    1AU     LIG  236   3.759   4.386   6.052  0.2219 -0.1194 -0.0800
    1AU     LIG  237   4.092   4.766   5.991  0.4659  0.1591 -0.2034
    1AU     LIG  238   4.327   5.163   5.751  0.1161  0.1082  0.2401
    1AU       S  239   3.346   4.753   5.982  0.1910  0.1500 -0.0704
    1AU     LIG  240   3.385   4.730   5.502 -0.5592 -0.2162 -0.1284
    1AU     LIG  241   3.179   4.523   5.125  0.0433 -0.4329 -0.3791
    1AU     LIG  242   3.229   4.536   4.645  0.1351  0.1972  0.0044
    1AU    AUSL  243   2.743   4.029   6.128 -0.0714 -0.0665 -0.0604
    1AU    AUSL  244   3.075   3.813   6.342  0.0520 -0.0613  0.0432
    1AU     AUL  245   3.042   3.867   6.034 -0.0722 -0.0437  0.0293
    1AU       S  246   3.304   3.993   5.716  0.0586 -0.1430  0.1275
    1AU     LIG  247   3.423   3.535   5.852  0.1808 -0.3402 -0.0293
    1AU     LIG  248   3.580   3.113   5.872 -0.4721  0.2998 -0.3711
    1AU     LIG  249   3.655   2.652   5.669  0.0816  0.4268  0.3478
    1AU       S  250   3.189   3.498   6.262  0.1851  0.1675 -0.0388
    1AU     LIG  251   3.508   3.306   6.506  0.2867 -0.0719  0.0087
    1AU     LIG  252   3.893   3.099   6.327 -0.4894 -0.0626 -0.1242
    1AU     LIG  253   3.938   2.833   6.051  0.0425  0.0067  0.0742
    1AU    AUSL  254   2.569   4.657   7.382 -0.0415  0.0662 -0.0613
    1AU    AUSL  255   2.351   4.247   7.354 -0.0041  0.0002  0.0049
    1AU     AUL  256   2.445   4.490   7.709 -0.0249 -0.0561  0.0956
    1AU       S  257   2.490   4.003   7.669 -0.1187  0.1784  0.2443
    1AU     LIG  258   2.820   3.836   8.088  0.0534 -0.0609 -0.2555
    1AU     LIG  259   3.115   3.498   8.014 -0.2676  0.2219 -0.0018
    1AU     LIG  260   2.989   3.015   7.858 -0.1898 -0.2159  0.1134
    1AU       S  261   2.401   4.993   7.678 -0.3578 -0.2231 -0.2266
    1AU     LIG  262   2.430   5.488   7.627 -0.0881  0.3634  0.1698
    1AU     LIG  263   2.280   5.918   7.601 -0.0034  0.3749 -0.0096
    1AU     LIG  264   2.056   6.109   7.303 -0.0550  0.1091  0.0153
    1AU    AUSL  265   2.244   4.843   7.154 -0.0047 -0.0208 -0.0029
    1AU    AUSL  266   2.702   4.836   7.018  0.0187  0.0192 -0.0426
    1AU     AUL  267   2.655   4.983   7.306 -0.0061  0.0448  0.0430
    1AU       S  268   2.889   5.401   7.213 -0.1067  0.1309  0.4344
    1AU     LIG  269   3.155   5.853   7.143 -0.2584  0.4440  0.2091
    1AU     LIG  270   3.284   6.129   6.885  0.3160  0.0567  0.2626
    1AU     LIG  271   3.667   6.325   6.745  0.0556  0.0289 -0.1471
    1AU       S  272   2.209   5.098   7.450 -0.2601  0.2667  0.0808
    1AU     LIG  273   1.992   5.537   7.365  0.0101 -0.0586 -0.0094
    1AU     LIG  274   1.668   5.854   7.257  0.0764  0.0934  0.0301
    1AU     LIG  275   1.558   6.098   6.844 -0.2989 -0.1163 -0.4217
    1AU    AUSL  276   1.631   4.912   6.180  0.0226  0.0132  0.0038
    1AU    AUSL  277   1.648   4.779   6.631  0.0396 -0.0499  0.0257
    1AU     AUL  278   1.437   5.088   6.487 -0.1112 -0.0199  0.0775
    1AU       S  279   1.470   5.422   6.765 -0.3004  0.5106 -0.1761
    1AU     LIG  280   1.101   5.536   6.628 -0.1577  0.0991  0.0958
    1AU     LIG  281   1.025   5.991   6.544  0.0499  0.1460  0.1213
    1AU     LIG  282   0.923   6.376   6.303 -0.0541 -0.1684  0.2177
    1AU       S  283   1.344   5.040   6.034 -0.0433  0.5012 -0.0728
    1AU     LIG  284   1.082   5.367   6.100  0.1136  0.2220  0.5296
    1AU     LIG  285   0.688   5.654   6.357  0.1371  0.4162 -0.0896
    1AU     LIG  286   0.360   5.872   6.173 -0.0689  0.1118  0.4168
    1AU    AUSL  287   1.364   4.601   6.369 -0.0478  0.0065 -0.0478
    1AU    AUSL  288   1.448   4.130   6.233 -0.0609 -0.1280 -0.0899
    1AU     AUL  289   1.302   4.346   6.022  0.0227 -0.0753 -0.0128
    1AU       S  290   1.166   4.744   6.277 -0.0220  0.0812 -0.3238
    1AU     LIG  291   0.820   5.031   6.268  0.0254  0.0375 -0.4877
    1AU     LIG  292   0.393   4.978   6.120  0.2925 -0.1336  0.1231
    1AU     LIG  293   0.039   4.922   6.040 -0.2270  0.2684 -0.1663
    1AU       S  294   1.098   4.071   6.335 -0.1398  0.0833  0.0702
    1AU     LIG  295   0.604   3.935   6.469  0.1539  0.1861  0.2632
    1AU     LIG  296   0.158   3.995   6.462 -0.1521  0.3725  0.1821
    1AU     LIG  297  -0.219   4.152   6.296 -0.1819  0.1615 -0.2208
    1AU    AUSL  298   1.721   4.474   6.170  0.0688 -0.0358 -0.0315
    1AU    AUSL  299   2.020   4.789   6.026  0.0213 -0.0875  0.0609
    1AU     AUL  300   1.622   4.658   5.880 -0.0222 -0.0340 -0.0537
    1AU       S  301   1.887   4.941   5.659 -0.6759 -0.0525 -0.1645
    1AU     LIG  302   1.759   5.215   5.468 -0.0306  0.2166  0.1689
    1AU     LIG  303   1.552   5.544   5.421 -0.0737  0.3475  0.2413
    1AU     LIG  304   1.399   5.714   5.030 -0.0582  0.1527 -0.2539
    1AU       S  305   1.182   4.811   6.025 -0.1130 -0.0895 -0.4380
    1AU     LIG  306   0.863   5.018   5.757 -0.1703 -0.2615  0.0568
    1AU     LIG  307   0.532   5.004   5.387  0.0173  0.0638  0.2021
    1AU     LIG  308   0.498   4.969   4.988  0.0315 -0.0365 -0.0454
    1AU    AUSL  309   2.955   4.827   6.660 -0.0008  0.0531 -0.0239
    1AU    AUSL  310   3.135   4.565   6.364  0.0482  0.0121  0.0307
    1AU     AUL  311   3.186   4.979   6.484 -0.0741 -0.0555  0.0364
    1AU       S  312   3.460   4.906   6.852  0.1639  0.1849  0.3858
    1AU     LIG  313   3.721   5.208   6.693 -0.5101  0.1908 -0.4550
    1AU     LIG  314   4.100   5.095   6.764  0.2281 -0.1310 -0.1414
    1AU     LIG  315   4.330   4.843   6.979 -0.1732  0.1793 -0.1569
    1AU       S  316   3.293   4.614   6.206 -0.1704  0.2204 -0.0286
    1AU     LIG  317   3.672   4.850   6.362  0.0384 -0.0612  0.3322
    1AU     LIG  318   3.988   5.401   6.318  0.0247 -0.3130  0.1397
    1AU     LIG  319   3.808   5.843   6.501  0.1622  0.3142 -0.0302
    1AU    AUSL  320   3.072   4.686   7.130 -0.0349  0.0149 -0.0715
    1AU    AUSL  321   2.841   5.203   6.796  0.0147  0.0385  0.0034
    1AU     AUL  322   3.050   5.023   6.987  0.0175  0.0405 -0.0267
    1AU       S  323   3.465   4.799   7.031  0.0705  0.0374  0.0356
    1AU     LIG  324   3.947   4.908   7.288 -0.2803  0.6144  0.0266
    1AU     LIG  325   4.105   4.630   7.412  0.4005  0.0347 -0.1432
    1AU     LIG  326   3.801   4.390   7.319 -0.1916  0.0987  0.0343
    1AU       S  327   2.865   5.435   6.896  0.2496  0.3952 -0.7350
    1AU     LIG  328   2.871   5.794   6.768  0.0577 -0.0022  0.0338
    1AU     LIG  329   2.651   6.141   6.728 -0.2114 -0.2957  0.1272
    1AU     LIG  330   2.510   6.413   6.428  0.3165  0.3395 -0.2456
    1AU    AUSL  331   3.231   4.484   6.768  0.0030 -0.0076 -0.0336
    1AU    AUSL  332   2.924   4.279   6.993 -0.1776  0.1043 -0.0422
    1AU     AUL  333   3.254   4.397   7.134 -0.0560 -0.0315 -0.1448
    1AU       S  334   3.384   4.019   6.872  0.0987  0.1912 -0.1150
    1AU     LIG  335   3.837   4.120   6.894 -0.1341  0.1701 -0.4177
    1AU     LIG  336   4.231   4.277   7.009  0.0475 -0.2978 -0.0519
    1AU     LIG  337   4.540   4.328   7.285  0.0468  0.1435  0.1127
    1AU       S  338   3.441   4.663   6.746  0.0294 -0.1721 -0.0826
    1AU     LIG  339   3.881   4.615   6.751 -0.0292  0.1625  0.3689
    1AU     LIG  340   4.217   4.605   6.462 -0.3470 -0.0901 -0.2275
    1AU     LIG  341   4.436   5.062   6.265 -0.3813  0.0452 -0.0041
    1AU    AUSL  342   1.513   3.833   6.556 -0.0468 -0.1366  0.0014
    1AU    AUSL  343   1.808   4.052   6.037 -0.0213  0.1228 -0.0116
    1AU     AUL  344   1.483   3.787   6.215 -0.0940  0.0524  0.0244
    1AU       S  345   1.082   3.828   6.496  0.1770  0.2999 -0.1959
    1AU     LIG  346   0.857   3.618   6.156 -0.1715 -0.1590  0.2104
    1AU     LIG  347   0.595   3.277   5.879  0.2032 -0.0469  0.0050
    1AU     LIG  348   0.520   3.226   5.423 -0.0372 -0.3431  0.0596
    1AU       S  349   1.657   3.934   5.814  0.6339 -0.1979  0.1636
    1AU     LIG  350   1.504   4.254   5.550  0.0906  0.2549 -0.0198
    1AU     LIG  351   1.350   4.302   5.132  0.1592  0.4459 -0.1750
    1AU     LIG  352   1.336   4.405   4.800 -0.0741  0.2297  0.1709
    1AU    AUSL  353   1.575   4.300   6.621 -0.0311 -0.0431  0.0418
    1AU    AUSL  354   1.790   3.965   6.863 -0.0483  0.0225  0.0842
    1AU     AUL  355   1.396   3.990   6.791 -0.0412 -0.0024 -0.0485
    1AU       S  356   1.046   4.198   6.560 -0.0337  0.1708 -0.1358
    1AU     LIG  357   0.675   4.489   6.656  0.1097  0.0355 -0.3011
    1AU     LIG  358   0.327   4.606   6.455 -0.0947 -0.0572  0.0662
    1AU     LIG  359   0.144   4.403   6.085  0.3102 -0.0154 -0.0523
    1AU       S  360   1.515   3.661   7.082 -0.0487  0.0199  0.4517
    1AU     LIG  361   1.419   3.216   7.021 -0.1220  0.2779 -0.1717
    1AU     LIG  362   1.205   3.029   6.619 -0.1888  0.1195 -0.1742
    1AU     LIG  363   1.214   2.681   6.419 -0.4085 -0.3126  0.0073
    1AU    AUSL  364   2.957   3.837   6.941  0.0555 -0.0760  0.0353
    1AU    AUSL  365   2.803   4.302   7.397 -0.0215 -0.0285 -0.0048
    1AU     AUL  366   2.986   4.007   7.271 -0.0006 -0.0512 -0.0234
    1AU       S  367   2.793   4.183   7.716  0.2544  0.3125 -0.0546
    1AU     LIG  368   3.196   3.845   7.681  0.1027 -0.0219 -0.1893
    1AU     LIG  369   3.429   3.595   7.630  0.6011  0.3166 -0.1583
    1AU     LIG  370   3.554   3.324   7.856  0.1986 -0.1729  0.2163
    1AU       S  371   3.291   3.867   6.969  0.1842 -0.2279  0.3518
    1AU     LIG  372   3.312   3.426   7.092 -0.0012  0.3110 -0.1273
    1AU     LIG  373   3.753   3.221   6.908 -0.1032  0.0145 -0.0083
    1AU     LIG  374   4.114   3.140   6.787 -0.3082 -0.0238 -0.1948
    1AU    AUSL  375   3.029   4.134   6.603 -0.1066 -0.0450  0.0923
    1AU    AUSL  376   2.702   3.812   6.595 -0.0255  0.0866 -0.0147
    1AU     AUL  377   3.008   3.676   6.672 -0.0389  0.0376  0.0830
    1AU       S  378   3.311   4.048   6.718  0.1558  0.2080  0.5527
    1AU     LIG  379   3.565   4.281   6.482  0.0853  0.0835  0.2517
    1AU     LIG  380   4.007   4.101   6.371 -0.0973  0.3657  0.1726
    1AU     LIG  381   4.250   3.920   6.068  0.0720 -0.1505 -0.1127
    1AU       S  382   2.961   3.296   6.375  0.0944 -0.5455 -0.2217
    1AU     LIG  383   3.233   2.974   6.216 -0.1186 -0.0117  0.2249
    1AU     LIG  384   3.331   2.596   6.027 -0.0760  0.1377 -0.2044
    1AU     LIG  385   3.312   2.285   5.786 -0.0037  0.0306 -0.1187
    2POPC   NC3  386   1.901   4.976   8.822 -0.2038  0.2108 -0.0274
    2POPC   PO4  387   1.442   4.801   8.743 -0.3340  0.1680 -0.2086
    2POPC   GL1  388   1.085   4.978   8.440  0.1785 -0.2356  0.0423
    2POPC   GL2  389   0.958   5.312   8.445 -0.1442  0.1484  0.0833
    2POPC   C1A  390   0.854   4.900   8.148 -0.1829  0.0954  0.0747
    2POPC   D2A  391   0.960   4.751   7.770  0.4035  0.0003 -0.0067
    2POPC   C3A  392   1.097   5.105   7.610  0.1051  0.0439  0.1438
    2POPC   C4A  393   0.888   5.575   7.606  0.1239 -0.1480 -0.0930
    2POPC   C1B  394   0.732   5.354   8.023 -0.1927 -0.0470  0.0719
    2POPC   C2B  395   0.606   5.171   7.668  0.2226 -0.0953  0.1151
    2POPC   C3B  396   0.760   5.284   7.198  0.3258 -0.1154 -0.0249
    2POPC   C4B  397   0.967   5.111   6.795 -0.2183  0.0265 -0.4570
    3POPC   NC3  398   0.948   1.313   8.863 -0.1323 -0.1541  0.0033
    3POPC   PO4  399   1.008   1.572   8.540  0.0716  0.0742 -0.2863
    3POPC   GL1  400   1.165   1.537   8.189 -0.1511 -0.3982 -0.1701
    3POPC   GL2  401   1.402   1.279   8.094  0.1545  0.0881 -0.0323
    3POPC   C1A  402   1.065   1.602   7.721 -0.3466  0.0731 -0.0030
    3POPC   D2A  403   0.668   1.652   7.309 -0.2437  0.1789 -0.0839
    3POPC   C3A  404   0.783   1.892   6.919 -0.0404  0.0829 -0.4486
    3POPC   C4A  405   0.910   1.792   6.492 -0.0645 -0.0193  0.0653
    3POPC   C1B  406   1.439   1.332   7.664  0.1150  0.0522 -0.2946
    3POPC   C2B  407   1.384   1.072   7.244  0.1081  0.1969 -0.0610
    3POPC   C3B  408   1.226   1.259   6.914  0.0181  0.0995 -0.1818
    3POPC   C4B  409   1.171   1.336   6.491  0.3879 -0.0945 -0.0833
    4POPC   NC3  410   5.155   4.308   8.689  0.1339  0.1954 -0.0499
    4POPC   PO4  411   5.557   4.238   8.444  0.0226  0.0448  0.0337
    4POPC   GL1  412   5.519   4.037   8.070  0.3525 -0.0922 -0.3152
    4POPC   GL2  413   5.734   4.240   7.886 -0.0685  0.0186 -0.0318
    4POPC   C1A  414   5.248   3.870   7.797 -0.3257 -0.3988  0.0378
    4POPC   D2A  415   5.108   3.696   7.534  0.3175  0.0832 -0.0852
    4POPC   C3A  416   4.853   3.400   7.620 -0.2700 -0.2037  0.1759
    4POPC   C4A  417   4.513   3.214   7.602 -0.0799  0.0276  0.2139
    4POPC   C1B  418   6.042   4.129   7.631 -0.1214  0.0837 -0.0170
    4POPC   C2B  419   6.263   3.784   7.429 -0.1751  0.0861 -0.0692
    4POPC   C3B  420   6.415   3.745   7.054 -0.1635 -0.2875  0.2977
    4POPC   C4B  421   6.880   3.806   7.082  0.2171  0.0582  0.0973
    5POPC   NC3  422   3.692   9.286   8.466 -0.0167 -0.0337 -0.0975
    5POPC   PO4  423   3.937   8.847   8.533  0.0571  0.1280 -0.1607
    5POPC   GL1  424   4.110   8.979   8.208  0.3533 -0.0103 -0.1674
    5POPC   GL2  425   4.381   8.717   8.181 -0.3918  0.1141 -0.2660
    5POPC   C1A  426   4.001   9.306   7.846 -0.5982 -0.0215 -0.1540
    5POPC   D2A  427   4.096   9.337   7.539 -0.2481 -0.0215  0.2769
    5POPC   C3A  428   3.819   9.117   7.300 -0.0744 -0.1077  0.1687
    5POPC   C4A  429   3.411   8.956   7.125 -0.1796  0.0163 -0.0196
    5POPC   C1B  430   4.421   8.906   7.789  0.2817  0.0436 -0.1654
    5POPC   C2B  431   4.321   8.933   7.390  0.1513 -0.1354 -0.0763
    5POPC   C3B  432   4.325   9.129   7.116 -0.2757 -0.4296 -0.5240
    5POPC   C4B  433   4.345   9.425   6.823 -0.0264  0.2946 -0.0216
    6POPC   NC3  434   5.631   6.857   8.509  0.4839  0.2063  0.1996
    6POPC   PO4  435   5.317   6.629   8.266 -0.2256  0.1228  0.2527
    6POPC   GL1  436   5.214   6.710   7.854 -0.0932  0.0252 -0.0485
    6POPC   GL2  437   4.919   6.822   7.767 -0.0654  0.0255 -0.0404
    6POPC   C1A  438   5.340   6.929   7.461  0.1536  0.1543  0.0344
    6POPC   D2A  439   5.189   7.288   7.107  0.1203  0.2635  0.1787
    6POPC   C3A  440   4.904   7.366   6.756  0.2240 -0.0237  0.2721
    6POPC   C4A  441   4.417   7.297   6.794  0.0285  0.1661  0.2257
    6POPC   C1B  442   4.901   6.938   7.283  0.1380 -0.0819 -0.2200
    6POPC   C2B  443   4.763   6.775   6.848 -0.1035 -0.2038 -0.0170
    6POPC   C3B  444   5.013   6.896   6.518  0.3505  0.4978  0.3981
    6POPC   C4B  445   5.384   6.928   6.653  0.3862  0.2298  0.2239
    7POPC   NC3  446   8.275   8.319   9.286 -0.0061  0.1533 -0.0185
    7POPC   PO4  447   8.158   8.626   8.991 -0.2208 -0.0320  0.3856
    7POPC   GL1  448   8.446   8.713   8.657 -0.0330 -0.0024 -0.2804
    7POPC   GL2  449   8.561   8.436   8.433  0.0747 -0.0560 -0.1281
    7POPC   C1A  450   8.505   8.941   8.260  0.3077 -0.0176 -0.2373
    7POPC   D2A  451   8.264   9.279   8.079  0.0871 -0.0104 -0.3023
    7POPC   C3A  452   7.878   9.282   7.888 -0.0454 -0.5039  0.0017
    7POPC   C4A  453   7.581   9.456   7.666 -0.3945  0.0880  0.1246
    7POPC   C1B  454   8.378   8.439   8.012 -0.1907  0.0062 -0.0585
    7POPC   C2B  455   8.438   8.389   7.501 -0.1966 -0.2750 -0.1476
    7POPC   C3B  456   8.752   8.415   7.242 -0.1592  0.0892 -0.4638
    7POPC   C4B  457   8.881   8.469   6.841  0.1821  0.0060 -0.2027
    8POPC   NC3  458   6.358   1.333   8.736 -0.0986 -0.2190  0.3434
    8POPC   PO4  459   6.264   1.506   8.320 -0.0462 -0.1649 -0.0276
    8POPC   GL1  460   6.339   1.647   8.018 -0.1426  0.3350  0.0858
    8POPC   GL2  461   6.041   1.580   7.869 -0.2195  0.0422  0.0151
    8POPC   C1A  462   6.478   1.598   7.555 -0.0748 -0.1153  0.0193
    8POPC   D2A  463   6.635   1.174   7.299  0.0729 -0.3549  0.0864
    8POPC   C3A  464   6.784   1.072   6.794 -0.1941 -0.1153  0.1577
    8POPC   C4A  465   7.171   1.036   6.635 -0.0832 -0.1085 -0.4558
    8POPC   C1B  466   5.987   1.525   7.443 -0.1756  0.1160  0.1668
    8POPC   C2B  467   5.895   1.709   7.057  0.1085 -0.0930  0.1456
    8POPC   C3B  468   6.053   1.900   6.796 -0.1732  0.0171 -0.2920
    8POPC   C4B  469   6.399   2.115   6.687  0.3183 -0.0394 -0.0974
    9POPC   NC3  470   7.831   0.244   8.700 -0.1493  0.3806  0.1558
    9POPC   PO4  471   7.379   0.243   8.518 -0.0022 -0.1080 -0.1514
    9POPC   GL1  472   7.693   0.164   8.215 -0.1367  0.0228  0.0688
    9POPC   GL2  473   7.589   0.411   7.987  0.5213  0.1536 -0.2480
    9POPC   C1A  474   8.030   0.161   7.958  0.0263  0.0568 -0.0361
    9POPC   D2A  475   8.261   0.211   7.595  0.2753 -0.5728 -0.0918
    9POPC   C3A  476   8.286   0.007   7.155  0.1628  0.0156 -0.0503
    9POPC   C4A  477   8.628  -0.122   6.883  0.0719 -0.0297 -0.0225
    9POPC   C1B  478   7.414   0.490   7.706 -0.1113 -0.2153  0.0232
    9POPC   C2B  479   7.547   0.562   7.190  0.0965  0.3715 -0.1619
    9POPC   C3B  480   7.485   0.624   6.723  0.0703 -0.0255 -0.1371
    9POPC   C4B  481   7.751   0.257   6.463  0.2513 -0.1939 -0.1036
   10POPC   NC3  482   4.367   8.891   8.698 -0.0553  0.2162 -0.2794
   10POPC   PO4  483   4.594   8.544   8.613 -0.3808 -0.0631  0.1046
   10POPC   GL1  484   4.682   8.260   8.337 -0.2610  0.0724  0.0028
   10POPC   GL2  485   4.778   8.409   8.051  0.0602  0.0505  0.1128
   10POPC   C1A  486   5.018   8.045   8.034  0.1476  0.0067 -0.2567
   10POPC   D2A  487   5.202   7.705   7.905  0.0352 -0.0025  0.0411
   10POPC   C3A  488   5.292   7.684   7.447  0.0949 -0.0342  0.1580
   10POPC   C4A  489   5.287   7.763   6.954  0.2032  0.2497  0.1389
   10POPC   C1B  490   4.552   8.293   7.727  0.0218  0.3789  0.1058
   10POPC   C2B  491   4.396   8.444   7.435  0.1542 -0.0072 -0.2219
   10POPC   C3B  492   4.413   8.679   6.996 -0.1001  0.1794 -0.2818
   10POPC   C4B  493   4.460   8.624   6.518 -0.3084  0.4237  0.1450
   11POPC   NC3  494   4.049   2.240   8.359 -0.0732  0.1428 -0.0420
   11POPC   PO4  495   3.928   2.535   8.620 -0.0340  0.0210  0.1332
   11POPC   GL1  496   4.029   2.752   8.304 -0.1483  0.6317  0.2419
   11POPC   GL2  497   4.209   2.860   8.128  0.0727  0.0531  0.0844
   11POPC   C1A  498   3.744   2.808   7.980  0.0124  0.0834 -0.0560
   11POPC   D2A  499   3.396   2.537   7.777 -0.1010 -0.1245 -0.1853
   11POPC   C3A  500   3.117   2.594   7.485  0.1358 -0.2267 -0.0789
   11POPC   C4A  501   2.895   2.647   7.075 -0.3188  0.1347  0.1751
   11POPC   C1B  502   4.108   2.949   7.688  0.0869  0.0228 -0.1960
   11POPC   C2B  503   4.251   2.904   7.297 -0.0814 -0.1670 -0.2493
   11POPC   C3B  504   4.479   2.785   6.944 -0.0301 -0.1019  0.1090
   11POPC   C4B  505   4.512   3.089   6.405 -0.3198  0.0473  0.1387
   12POPC   NC3  506   8.150   7.564   8.486 -0.0436  0.3376  0.1081
   12POPC   PO4  507   8.562   7.680   8.597  0.0917  0.0832  0.2132
   12POPC   GL1  508   8.542   7.706   8.128 -0.0948 -0.1147  0.1546
   12POPC   GL2  509   8.414   7.376   8.065  0.0228 -0.0681  0.0202
   12POPC   C1A  510   8.818   7.595   7.823  0.1300  0.0999  0.1514
   12POPC   D2A  511   9.348   7.672   7.758  0.0919  0.0580 -0.1806
   12POPC   C3A  512   9.594   7.377   7.424 -0.0930 -0.0981 -0.2249
   12POPC   C4A  513   9.658   7.154   6.960 -0.1295 -0.0353 -0.0215
   12POPC   C1B  514   8.151   7.613   7.775 -0.4022  0.0783  0.1290
   12POPC   C2B  515   8.162   7.407   7.593  0.0198 -0.1622 -0.1898
   12POPC   C3B  516   8.145   6.994   7.330  0.0027 -0.0944 -0.2318
   12POPC   C4B  517   8.163   6.728   6.984 -0.4609  0.0698  0.1221
   13POPC   NC3  518   8.311   4.959   8.298 -0.3018  0.0638  0.0988
   13POPC   PO4  519   7.933   4.848   8.347  0.3547  0.1983 -0.2294
   13POPC   GL1  520   7.760   4.784   7.966  0.0242 -0.1441  0.3132
   13POPC   GL2  521   8.082   4.887   7.778  0.2425  0.0700 -0.1199
   13POPC   C1A  522   7.583   4.919   7.508 -0.0401  0.1035 -0.0060
   13POPC   D2A  523   7.599   4.780   7.077  0.1124  0.0455 -0.0434
   13POPC   C3A  524   7.246   4.512   7.052 -0.0037  0.3442  0.1000
   13POPC   C4A  525   7.067   4.293   7.312  0.2183 -0.1676  0.0473
   13POPC   C1B  526   8.131   5.177   7.375 -0.0709  0.0206 -0.2681
   13POPC   C2B  527   8.029   5.056   6.905  0.2454  0.0841 -0.2864
   13POPC   C3B  528   8.306   5.022   6.605 -0.3107 -0.2320  0.4441
   13POPC   C4B  529   8.688   4.988   6.385  0.0829 -0.2046  0.1954
   14POPC   NC3  530   8.069   5.803   8.733  0.1742 -0.1611  0.2905
   14POPC   PO4  531   8.343   5.687   8.786  0.1256 -0.1998 -0.0564
   14POPC   GL1  532   8.333   5.762   8.313 -0.1293 -0.1815 -0.1826
   14POPC   GL2  533   8.024   5.774   8.107  0.1529  0.1385  0.0399
   14POPC   C1A  534   8.520   6.039   8.045 -0.0786  0.0720  0.2350
   14POPC   D2A  535   8.921   6.179   7.772 -0.3780 -0.0682 -0.0949
   14POPC   C3A  536   9.132   6.061   7.442 -0.2810 -0.0470  0.2078
   14POPC   C4A  537   9.422   5.902   7.221 -0.5233  0.1964 -0.1251
   14POPC   C1B  538   8.374   5.721   7.696  0.0130  0.0271 -0.0567
   14POPC   C2B  539   8.839   5.716   7.655  0.2640  0.1806  0.3007
   14POPC   C3B  540   9.133   5.460   7.438 -0.0346 -0.1814 -0.1799
   14POPC   C4B  541   9.242   5.499   7.030  0.1461 -0.1928 -0.2380
   15POPC   NC3  542   5.168   7.089   8.140  0.0458  0.1657  0.0875
   15POPC   PO4  543   5.434   7.505   8.374 -0.2938 -0.3905  0.1203
   15POPC   GL1  544   5.644   7.496   7.982 -0.0873 -0.1621 -0.0938
   15POPC   GL2  545   5.942   7.614   7.943 -0.1921 -0.2707  0.3865
   15POPC   C1A  546   5.657   7.381   7.577 -0.1218 -0.2566 -0.0527
   15POPC   D2A  547   5.707   7.519   7.148  0.0735  0.1870 -0.2979
   15POPC   C3A  548   5.561   7.428   6.741 -0.1462  0.1976  0.0763
   15POPC   C4A  549   5.759   7.722   6.356  0.0710 -0.0287  0.0154
   15POPC   C1B  550   5.949   7.735   7.516  0.1896  0.2397  0.1997
   15POPC   C2B  551   5.586   8.039   7.268  0.0016  0.1114 -0.5837
   15POPC   C3B  552   5.210   8.226   7.090  0.0144 -0.2305 -0.0880
   15POPC   C4B  553   4.738   8.291   7.189 -0.3460  0.2165 -0.1299
   16POPC   NC3  554   9.317   4.771   9.369 -0.0458  0.0626 -0.3804
   16POPC   PO4  555   9.634   4.722   9.124 -0.0840 -0.2271 -0.1261
   16POPC   GL1  556   9.734   4.801   8.721  0.2299 -0.4019  0.0395
   16POPC   GL2  557   9.462   4.786   8.538  0.1299  0.1917 -0.1594
   16POPC   C1A  558   9.759   5.085   8.267  0.2265  0.0414  0.1138
   16POPC   D2A  559   9.845   5.559   8.330 -0.0605  0.1163  0.0988
   16POPC   C3A  560   9.917   5.900   7.947 -0.1178 -0.4438  0.2303
   16POPC   C4A  561  10.098   6.050   7.594  0.4016  0.1941 -0.1037
   16POPC   C1B  562   9.337   4.829   8.041 -0.3215  0.1390 -0.0352
   16POPC   C2B  563   9.114   5.007   7.659  0.3419 -0.0363  0.1218
   16POPC   C3B  564   9.095   4.995   7.220 -0.0265 -0.3863  0.0119
   16POPC   C4B  565   8.891   5.036   6.886  0.0700 -0.3229  0.0107
   17POPC   NC3  566   8.478   3.364   8.545  0.0879  0.2665  0.1611
   17POPC   PO4  567   8.448   3.643   8.208 -0.2397 -0.0461  0.2224
   17POPC   GL1  568   8.232   3.915   7.917  0.0708 -0.3002  0.1280
   17POPC   GL2  569   8.078   4.050   7.976 -0.1488  0.0699 -0.1486
   17POPC   C1A  570   8.047   3.837   7.487  0.3120 -0.0512  0.0779
   17POPC   D2A  571   7.789   3.716   7.101  0.1065 -0.1218  0.1615
   17POPC   C3A  572   7.342   3.576   7.011  0.0453 -0.1492  0.0601
   17POPC   C4A  573   7.104   3.290   6.779 -0.1078  0.0325 -0.1976
   17POPC   C1B  574   7.968   4.428   7.684  0.0145 -0.3281 -0.0904
   17POPC   C2B  575   8.011   4.618   7.316  0.1982  0.2337 -0.4335
   17POPC   C3B  576   8.052   4.590   6.866  0.2000 -0.0756 -0.0937
   17POPC   C4B  577   8.174   4.444   6.530 -0.3937 -0.4558  0.1118
   18POPC   NC3  578   9.805   2.088   8.919  0.1716  0.2349  0.3300
   18POPC   PO4  579   9.403   2.035   8.642  0.1482 -0.3010  0.1850
   18POPC   GL1  580   9.162   2.053   8.205 -0.3144  0.0555  0.0789
   18POPC   GL2  581   9.006   2.204   7.975  0.1756 -0.0840  0.2677
   18POPC   C1A  582   9.257   1.703   7.859 -0.0081  0.0476  0.0751
   18POPC   D2A  583   9.279   1.826   7.440 -0.0128  0.2769 -0.2734
   18POPC   C3A  584   9.299   1.521   7.051  0.3388 -0.2529  0.2175
   18POPC   C4A  585   9.419   1.347   6.569 -0.3929 -0.0285 -0.1127
   18POPC   C1B  586   9.367   2.401   7.825  0.1981 -0.2667  0.3837
   18POPC   C2B  587   9.589   2.519   7.499 -0.1213 -0.0135 -0.1397
   18POPC   C3B  588   9.716   2.036   7.384 -0.0527  0.3022 -0.0308
   18POPC   C4B  589   9.761   1.688   7.115  0.0313 -0.2851  0.0629
   19POPC   NC3  590   6.440   7.425   8.691 -0.0004 -0.0709  0.2469
   19POPC   PO4  591   6.787   7.312   8.562 -0.1397  0.3602 -0.0645
   19POPC   GL1  592   6.846   7.375   8.110 -0.1352  0.1457  0.0510
   19POPC   GL2  593   7.183   7.297   8.050 -0.1556  0.1872  0.3181
   19POPC   C1A  594   6.760   7.596   7.835  0.1890 -0.3150  0.0477
   19POPC   D2A  595   6.424   7.489   7.444  0.0489 -0.5021  0.1319
   19POPC   C3A  596   6.099   7.331   7.200  0.0958  0.4162 -0.0507
   19POPC   C4A  597   5.876   7.086   6.924  0.0762  0.0269  0.0463
   19POPC   C1B  598   6.982   7.209   7.617 -0.0113 -0.1426  0.0590
   19POPC   C2B  599   6.867   7.388   7.161  0.0905  0.2720  0.0704
   19POPC   C3B  600   6.559   7.602   6.991  0.0370  0.2252 -0.1339
   19POPC   C4B  601   6.213   7.863   7.108  0.2715 -0.2224 -0.0755
   20POPC   NC3  602   5.006   5.613   8.725  0.0410  0.0342  0.1108
   20POPC   PO4  603   4.968   5.774   8.247  0.1023 -0.1407 -0.2453
   20POPC   GL1  604   4.890   5.738   7.815 -0.1592 -0.2230 -0.0081
   20POPC   GL2  605   4.633   5.884   7.762 -0.0080  0.0116  0.3878
   20POPC   C1A  606   5.190   5.696   7.340  0.1061  0.1532 -0.1052
   20POPC   D2A  607   5.572   5.574   7.091  0.3850  0.1734  0.0677
   20POPC   C3A  608   6.015   5.785   7.048  0.1447 -0.0619 -0.0817
   20POPC   C4A  609   6.255   5.970   6.832 -0.2052 -0.1039 -0.0737
   20POPC   C1B  610   4.746   6.030   7.278 -0.0603  0.0078 -0.2972
   20POPC   C2B  611   4.721   6.257   6.976 -0.4497 -0.0693  0.0966
   20POPC   C3B  612   4.715   6.425   6.563  0.0419  0.2423  0.2875
   20POPC   C4B  613   4.730   6.683   6.091  0.3340 -0.0413  0.1532
   21POPC   NC3  614   1.853   9.303   8.758 -0.0173  0.0564 -0.1018
   21POPC   PO4  615   1.384   9.339   8.705 -0.3730  0.0615  0.0615
   21POPC   GL1  616   1.283   9.121   8.310 -0.1195 -0.3529 -0.0345
   21POPC   GL2  617   1.302   9.364   8.178  0.0313 -0.1594  0.0666
   21POPC   C1A  618   0.987   9.091   7.928  0.0637  0.1303 -0.0344
   21POPC   D2A  619   1.021   9.048   7.426  0.3281 -0.1640 -0.3346
   21POPC   C3A  620   1.097   9.552   7.383 -0.2430 -0.0015 -0.1048
   21POPC   C4A  621   1.224   9.993   7.483  0.1049  0.0752  0.2108
   21POPC   C1B  622   1.453   9.253   7.793  0.1572  0.0444  0.1925
   21POPC   C2B  623   1.455   9.165   7.262 -0.1829  0.1126  0.0567
   21POPC   C3B  624   1.426   9.093   6.816 -0.0170  0.1570 -0.0956
   21POPC   C4B  625   1.557   8.938   6.315  0.2371  0.0851  0.3528
   22POPC   NC3  626   5.260   5.319   7.854  0.2164 -0.2476  0.2229
   22POPC   PO4  627   5.431   5.634   8.091 -0.0137  0.0410  0.2436
   22POPC   GL1  628   5.638   5.664   7.748  0.0728 -0.0771  0.1704
   22POPC   GL2  629   6.009   5.843   7.604  0.1388  0.0191  0.1227
   22POPC   C1A  630   5.614   6.067   7.376 -0.1557 -0.1207 -0.0739
   22POPC   D2A  631   5.511   6.052   6.944  0.0852 -0.0560  0.1332
   22POPC   C3A  632   5.125   5.925   6.873 -0.0753 -0.0023 -0.1459
   22POPC   C4A  633   4.716   5.712   6.921  0.0724  0.1681 -0.2765
   22POPC   C1B  634   6.387   5.677   7.364 -0.0891 -0.0025 -0.0803
   22POPC   C2B  635   6.489   5.463   6.990 -0.0670 -0.1685 -0.0379
   22POPC   C3B  636   6.787   5.115   6.894 -0.0196 -0.1793 -0.0405
   22POPC   C4B  637   6.685   4.786   6.595 -0.1716  0.2408 -0.0208
   23POPC   NC3  638   7.430   5.966   8.758  0.1449  0.3862  0.0620
   23POPC   PO4  639   7.744   6.160   8.474  0.0511  0.2024 -0.0924
   23POPC   GL1  640   7.921   6.281   8.026  0.0003 -0.1186  0.0591
   23POPC   GL2  641   7.711   6.518   7.905  0.0062  0.0965  0.1225
   23POPC   C1A  642   7.993   6.079   7.665  0.1149  0.3988 -0.7106
   23POPC   D2A  643   8.401   6.188   7.528 -0.0304 -0.0119 -0.1382
   23POPC   C3A  644   8.635   5.962   7.204 -0.0746  0.1584 -0.0592
   23POPC   C4A  645   8.644   5.686   6.773  0.1671 -0.0119  0.0638
   23POPC   C1B  646   7.546   6.277   7.653 -0.2031 -0.0275  0.3412
   23POPC   C2B  647   7.387   6.340   7.223  0.1968  0.2520 -0.0940
   23POPC   C3B  648   7.617   6.530   6.880  0.4306  0.1836 -0.0186
   23POPC   C4B  649   7.923   6.551   6.608 -0.0553 -0.0343 -0.1657
   24POPC   NC3  650   1.148   8.841   8.893  0.0982 -0.0405  0.0912
   24POPC   PO4  651   1.189   8.546   8.605 -0.1031 -0.0763  0.1085
   24POPC   GL1  652   1.370   8.542   8.240 -0.2407  0.0529 -0.2315
   24POPC   GL2  653   1.587   8.300   8.092  0.1894  0.2808  0.2029
   24POPC   C1A  654   1.238   8.678   7.793 -0.3718 -0.1225 -0.1338
   24POPC   D2A  655   1.259   8.548   7.486  0.1471  0.0566 -0.3259
   24POPC   C3A  656   1.615   8.317   7.335 -0.1035  0.1116 -0.1149
   24POPC   C4A  657   1.915   8.202   7.662 -0.0942 -0.0474  0.1912
   24POPC   C1B  658   1.318   8.108   7.740  0.1177 -0.0715 -0.1307
   24POPC   C2B  659   1.141   8.067   7.361  0.1103 -0.2975  0.0698
   24POPC   C3B  660   1.281   8.231   7.008 -0.2165  0.3632  0.2682
   24POPC   C4B  661   1.511   8.545   6.639  0.1577 -0.0368  0.3220
   25POPC   NC3  662   8.921   6.784   8.766  0.2384 -0.0350  0.0241
   25POPC   PO4  663   8.725   6.360   8.768 -0.0042  0.0353  0.0082
   25POPC   GL1  664   8.789   6.003   8.469  0.0872 -0.0198  0.0904
   25POPC   GL2  665   9.055   6.196   8.297 -0.3457 -0.0871 -0.0424
   25POPC   C1A  666   8.899   5.679   8.249 -0.0508 -0.0544  0.3288
   25POPC   D2A  667   8.659   5.312   8.131 -0.0043  0.0559 -0.3338
   25POPC   C3A  668   8.545   5.216   7.603  0.1021 -0.3653 -0.0870
   25POPC   C4A  669   8.658   5.407   7.195  0.1156  0.0769  0.1575
   25POPC   C1B  670   9.368   6.232   7.983  0.1171  0.2338  0.2477
   25POPC   C2B  671   9.581   6.196   7.575  0.0463  0.3944 -0.2328
   25POPC   C3B  672   9.733   6.310   7.257 -0.1646 -0.0419 -0.0406
   25POPC   C4B  673   9.746   6.076   6.916  0.5274 -0.1733  0.0606
   26POPC   NC3  674   9.436   7.721   8.847 -0.0083 -0.1088  0.1367
   26POPC   PO4  675   9.003   7.889   8.972  0.2197 -0.2841 -0.4272
   26POPC   GL1  676   8.998   7.924   8.579 -0.1996 -0.1804 -0.0532
   26POPC   GL2  677   9.034   8.249   8.508  0.0545 -0.0676 -0.1331
   26POPC   C1A  678   9.018   8.004   8.075  0.2250  0.1911 -0.1861
   26POPC   D2A  679   8.639   8.075   7.815  0.1024  0.0294 -0.0720
   26POPC   C3A  680   8.709   7.903   7.416  0.0401  0.3432 -0.1047
   26POPC   C4A  681   8.898   7.992   7.006  0.0022 -0.0139 -0.0464
   26POPC   C1B  682   8.930   8.495   8.129  0.3058 -0.1638  0.0326
   26POPC   C2B  683   8.857   8.701   7.815 -0.1077  0.0738  0.1088
   26POPC   C3B  684   8.557   8.921   7.623 -0.0135 -0.0569 -0.2516
   26POPC   C4B  685   8.286   9.179   7.511 -0.1833  0.1880  0.2637
   27POPC   NC3  686   8.613   1.820   8.564 -0.2950 -0.1036 -0.0799
   27POPC   PO4  687   8.368   1.472   8.345 -0.2831  0.0240  0.0043
   27POPC   GL1  688   8.514   1.514   8.002  0.3123 -0.2027  0.0562
   27POPC   GL2  689   8.622   1.878   8.004  0.1206 -0.1955  0.0498
   27POPC   C1A  690   8.887   1.253   7.798 -0.1989 -0.1113 -0.0501
   27POPC   D2A  691   9.167   1.364   7.486  0.1220  0.4157 -0.4017
   27POPC   C3A  692   9.167   1.046   7.190  0.2378  0.1493  0.2613
   27POPC   C4A  693   9.003   1.149   6.805  0.0619  0.0613  0.1281
   27POPC   C1B  694   8.817   1.701   7.563 -0.1372 -0.2162 -0.0164
   27POPC   C2B  695   8.764   1.495   7.077  0.2706 -0.0825 -0.3572
   27POPC   C3B  696   8.489   1.489   6.795  0.0829  0.2996 -0.0450
   27POPC   C4B  697   8.142   1.642   6.699  0.0595 -0.0909 -0.0134
   28POPC   NC3  698   6.329   2.790   8.461 -0.0227  0.2133  0.1499
   28POPC   PO4  699   6.658   2.486   8.172 -0.0192 -0.0165 -0.1177
   28POPC   GL1  700   6.776   2.593   7.823 -0.1365 -0.1713  0.0594
   28POPC   GL2  701   6.769   2.315   7.602 -0.2334 -0.0943 -0.1327
   28POPC   C1A  702   6.733   2.868   7.551  0.3022 -0.0149  0.0090
   28POPC   D2A  703   6.386   2.990   7.268 -0.3460 -0.2398 -0.0469
   28POPC   C3A  704   5.971   2.844   7.440 -0.0516  0.1006 -0.0523
   28POPC   C4A  705   5.827   3.034   7.804 -0.1934  0.2177  0.0614
   28POPC   C1B  706   6.859   2.449   7.135  0.0276 -0.0122 -0.0146
   28POPC   C2B  707   6.661   2.532   6.767  0.1246  0.3158  0.1541
   28POPC   C3B  708   6.284   2.644   6.491 -0.1075  0.1857 -0.0365
   28POPC   C4B  709   6.118   2.264   6.342 -0.0354  0.4301  0.2166
   29POPC   NC3  710   9.844   8.888   8.544 -0.0188  0.0323 -0.3773
   29POPC   PO4  711   9.669   9.249   8.411 -0.1964  0.0461  0.2559
   29POPC   GL1  712   9.852   9.239   8.045 -0.0783  0.2185 -0.0510
   29POPC   GL2  713   9.953   8.861   8.087  0.2222  0.1239  0.0631
   29POPC   C1A  714   9.532   9.300   7.668 -0.1379 -0.2652  0.1136
   29POPC   D2A  715   9.583   9.202   7.278 -0.0072 -0.0372 -0.1517
   29POPC   C3A  716   9.584   9.498   6.889  0.0392 -0.0560 -0.4213
   29POPC   C4A  717   9.903   9.864   6.640 -0.2157  0.1754 -0.0544
   29POPC   C1B  718  10.339   9.098   7.889  0.0648  0.2338  0.0256
   29POPC   C2B  719  10.573   9.369   7.594 -0.1114  0.1034  0.0826
   29POPC   C3B  720  10.584   9.578   7.233  0.0150 -0.0254  0.1997
   29POPC   C4B  721  10.760   9.887   7.048 -0.2543  0.1332  0.0363
   30POPC   NC3  722   3.542   9.606   9.299 -0.0860 -0.0635 -0.0229
   30POPC   PO4  723   3.536   9.641   8.843  0.2093 -0.1911 -0.2544
   30POPC   GL1  724   3.499   9.797   8.389 -0.0239 -0.1893  0.0640
   30POPC   GL2  725   3.632  10.048   8.271  0.1431 -0.1441  0.2316
   30POPC   C1A  726   3.603   9.651   7.871  0.2779 -0.3402 -0.2986
   30POPC   D2A  727   3.735   9.614   7.488 -0.0599  0.0284  0.0838
   30POPC   C3A  728   3.903   9.586   7.099  0.0462 -0.1461  0.2999
   30POPC   C4A  729   3.833   9.484   6.570  0.0421  0.0925 -0.3606
   30POPC   C1B  730   3.652  10.149   7.802 -0.1260  0.3230 -0.3825
   30POPC   C2B  731   3.538  10.104   7.338  0.3310 -0.0499 -0.0848
   30POPC   C3B  732   3.435   9.765   7.132  0.1671 -0.1269 -0.0705
   30POPC   C4B  733   3.357   9.412   6.810 -0.0214 -0.0625  0.3547
   31POPC   NC3  734   5.399   5.152   8.313  0.2637  0.2687  0.0190
   31POPC   PO4  735   5.838   4.901   8.354  0.2775  0.1311 -0.1542
   31POPC   GL1  736   5.987   4.653   7.896  0.2055  0.1380 -0.2432
   31POPC   GL2  737   6.213   4.856   7.997  0.1183  0.0854 -0.0084
   31POPC   C1A  738   5.710   4.638   7.434  0.1007 -0.1115 -0.0046
   31POPC   D2A  739   5.836   4.860   7.122  0.0101  0.1281 -0.1617
   31POPC   C3A  740   5.644   4.659   6.830  0.0321  0.1350  0.0991
   31POPC   C4A  741   5.448   4.626   6.414 -0.0593  0.1622  0.0492
   31POPC   C1B  742   6.095   4.973   7.572  0.4077 -0.1764  0.0055
   31POPC   C2B  743   6.284   5.003   7.151 -0.0998 -0.2272 -0.2968
   31POPC   C3B  744   6.183   4.688   6.800 -0.4781 -0.5430  0.1254
   31POPC   C4B  745   5.982   4.480   6.474 -0.2420  0.2314  0.1446
   32POPC   NC3  746   5.648   3.672   8.678  0.1788  0.2316 -0.2018
   32POPC   PO4  747   5.584   3.483   8.288  0.1412  0.4406 -0.0820
   32POPC   GL1  748   5.588   3.449   7.851  0.1363 -0.4333 -0.2619
   32POPC   GL2  749   5.798   3.707   7.849  0.3063 -0.3041  0.1121
   32POPC   C1A  750   5.419   3.318   7.531 -0.0196  0.1004 -0.1327
   32POPC   D2A  751   5.222   3.416   7.117  0.2623 -0.0905 -0.0548
   32POPC   C3A  752   4.751   3.439   7.141 -0.0750 -0.1007  0.0930
   32POPC   C4A  753   4.301   3.418   7.181 -0.2529  0.1664 -0.1046
   32POPC   C1B  754   5.737   3.717   7.426 -0.2005 -0.0621  0.0113
   32POPC   C2B  755   5.878   3.754   6.933 -0.2389 -0.1144 -0.2638
   32POPC   C3B  756   5.860   3.706   6.510 -0.0280  0.1148 -0.2325
   32POPC   C4B  757   6.265   3.795   6.564 -0.0343  0.1666  0.0151
   33POPC   NC3  758   1.668   3.272   8.549  0.0227 -0.0138  0.1886
   33POPC   PO4  759   1.257   3.503   8.287  0.3447 -0.0852 -0.1387
   33POPC   GL1  760   1.154   3.550   7.802 -0.0709  0.2085 -0.3766
   33POPC   GL2  761   1.101   3.812   7.811  0.2487  0.3146  0.1727
   33POPC   C1A  762   1.176   3.257   7.435  0.0111  0.0043 -0.0166
   33POPC   D2A  763   0.879   3.137   7.069 -0.1662 -0.0592 -0.1041
   33POPC   C3A  764   0.874   2.616   6.903  0.0924  0.2065  0.1141
   33POPC   C4A  765   0.997   2.244   6.624  0.2959 -0.0053  0.0833
   33POPC   C1B  766   0.675   3.893   7.728 -0.1116 -0.1227  0.1100
   33POPC   C2B  767   0.507   3.992   7.345  0.3788 -0.1998  0.2023
   33POPC   C3B  768   0.541   4.372   7.108 -0.0609  0.0497 -0.0354
   33POPC   C4B  769   0.244   4.499   6.959  0.0106 -0.0694 -0.0209
   34POPC   NC3  770   0.979   4.294   8.608 -0.1187 -0.1397  0.1887
   34POPC   PO4  771   0.551   4.424   8.472 -0.2414  0.1692  0.1797
   34POPC   GL1  772   0.350   4.431   8.148  0.1632  0.1473 -0.1003
   34POPC   GL2  773   0.052   4.526   8.337  0.2090  0.1583  0.2520
   34POPC   C1A  774  -0.042   4.189   8.007 -0.0740 -0.1320  0.1815
   34POPC   D2A  775  -0.445   4.325   7.752  0.1484  0.0322  0.0686
   34POPC   C3A  776  -0.366   4.273   7.389 -0.1793 -0.0376 -0.2728
   34POPC   C4A  777  -0.271   4.587   7.128  0.1303  0.1441  0.0154
   34POPC   C1B  778  -0.052   4.636   7.924  0.0098 -0.1303  0.1407
   34POPC   C2B  779  -0.368   4.805   7.546  0.2234  0.3191  0.0904
   34POPC   C3B  780  -0.301   5.060   7.256 -0.1382 -0.1703  0.0902
   34POPC   C4B  781  -0.537   4.997   6.793 -0.0550  0.1229  0.0004
   35POPC   NC3  782   5.908   0.652   8.269  0.2554  0.0389 -0.4128
   35POPC   PO4  783   5.583   0.414   8.444 -0.2705  0.0280 -0.0455
   35POPC   GL1  784   5.498   0.136   8.194 -0.2472 -0.3218  0.0245
   35POPC   GL2  785   5.673  -0.244   8.190  0.1557  0.0740  0.3582
   35POPC   C1A  786   5.394  -0.153   7.770 -0.0552 -0.0106 -0.0595
   35POPC   D2A  787   5.528  -0.228   7.364  0.0328 -0.0537  0.0765
   35POPC   C3A  788   5.734  -0.525   7.297  0.0098 -0.0996  0.0894
   35POPC   C4A  789   5.734  -0.869   7.054  0.0024 -0.0601  0.1707
   35POPC   C1B  790   5.756  -0.486   7.801 -0.1606 -0.0639 -0.2538
   35POPC   C2B  791   6.099  -0.623   7.594 -0.2032 -0.3306 -0.2740
   35POPC   C3B  792   6.219  -0.723   7.159  0.0831 -0.1980  0.0786
   35POPC   C4B  793   6.157  -0.738   6.740 -0.1465  0.1584  0.0453
   36POPC   NC3  794   4.070   1.455   8.811  0.1351 -0.0544 -0.0957
   36POPC   PO4  795   3.722   1.405   8.520  0.0768  0.2832 -0.0579
   36POPC   GL1  796   3.522   1.156   8.182 -0.2605  0.1105  0.3049
   36POPC   GL2  797   3.895   1.149   7.988  0.0907  0.0043  0.1343
   36POPC   C1A  798   3.430   1.019   7.660  0.0163  0.0683  0.1994
   36POPC   D2A  799   3.331   1.156   7.235 -0.1767  0.1675  0.1449
   36POPC   C3A  800   3.032   0.986   6.982 -0.2160  0.1709 -0.1981
   36POPC   C4A  801   2.907   0.623   6.669  0.2613 -0.1249  0.0108
   36POPC   C1B  802   3.898   1.068   7.500  0.0626  0.1149 -0.2328
   36POPC   C2B  803   3.803   0.990   7.133  0.2518 -0.0564  0.1764
   36POPC   C3B  804   3.873   0.801   6.712 -0.2170  0.1552  0.0768
   36POPC   C4B  805   3.885   0.471   6.504  0.2946  0.3932  0.5298
   37POPC   NC3  806   0.450   1.256   8.702  0.0060  0.1924  0.1579
   37POPC   PO4  807   0.557   1.718   8.713 -0.1322 -0.0861 -0.1443
   37POPC   GL1  808   0.411   1.558   8.282 -0.0471  0.0326 -0.1677
   37POPC   GL2  809   0.718   1.325   8.232  0.0332 -0.1990 -0.2499
   37POPC   C1A  810   0.451   1.553   7.820 -0.2073 -0.0800  0.1457
   37POPC   D2A  811   0.211   1.415   7.425  0.3998  0.1981  0.0440
   37POPC   C3A  812   0.261   1.443   6.978 -0.2121  0.2140  0.1366
   37POPC   C4A  813   0.496   1.566   6.673 -0.1222 -0.0163 -0.2958
   37POPC   C1B  814   0.590   1.071   7.870 -0.1229  0.0662 -0.2532
   37POPC   C2B  815   0.236   0.701   7.756 -0.1781 -0.0393 -0.1598
   37POPC   C3B  816   0.144   0.421   7.416 -0.1690 -0.2410  0.2867
   37POPC   C4B  817   0.277  -0.041   7.393 -0.0472 -0.5154 -0.1381
   38POPC   NC3  818   4.110   3.046   8.695  0.0222 -0.2872 -0.1221
   38POPC   PO4  819   4.184   3.333   8.370  0.1860  0.1045  0.0314
   38POPC   GL1  820   4.135   3.427   7.893 -0.2635  0.2661 -0.0240
   38POPC   GL2  821   4.317   3.707   7.682  0.1466  0.0896  0.1419
   38POPC   C1A  822   3.853   3.362   7.459  0.1152  0.0020 -0.0849
   38POPC   D2A  823   3.513   3.124   7.371 -0.1400 -0.0600 -0.0531
   38POPC   C3A  824   3.519   2.800   7.346  0.0036  0.0518 -0.0840
   38POPC   C4A  825   3.393   2.509   7.125 -0.0078  0.2042 -0.0037
   38POPC   C1B  826   4.602   3.852   7.350 -0.0907 -0.0963 -0.2707
   38POPC   C2B  827   4.826   3.906   6.933 -0.3439  0.2235 -0.2234
   38POPC   C3B  828   4.850   3.564   6.516 -0.3310 -0.0350  0.0976
   38POPC   C4B  829   5.015   3.226   6.717  0.1953 -0.1944  0.1738
   39POPC   NC3  830   4.218   6.904   8.546  0.0007  0.0620 -0.0820
   39POPC   PO4  831   4.577   7.078   8.583  0.0423 -0.0224  0.0255
   39POPC   GL1  832   4.619   7.186   8.146 -0.1184  0.1617 -0.0272
   39POPC   GL2  833   4.397   6.907   7.961  0.5300 -0.0873  0.0442
   39POPC   C1A  834   4.610   7.317   7.790  0.1184  0.1603  0.0831
   39POPC   D2A  835   4.929   7.326   7.584  0.7228 -0.2088 -0.0649
   39POPC   C3A  836   4.692   7.489   7.272  0.2589  0.0018 -0.2024
   39POPC   C4A  837   4.626   7.741   6.935 -0.1800  0.2145  0.0003
   39POPC   C1B  838   4.427   6.826   7.390  0.4346  0.0670 -0.0967
   39POPC   C2B  839   4.231   6.847   6.983 -0.2966  0.0570  0.2197
   39POPC   C3B  840   3.877   6.797   6.658 -0.1512 -0.0552 -0.0960
   39POPC   C4B  841   3.589   7.061   6.426 -0.5354  0.0740 -0.2685
   40POPC   NC3  842   9.853   0.079   8.684  0.3795  0.2883 -0.1459
   40POPC   PO4  843   9.845   0.460   8.761 -0.0038  0.0467 -0.1091
   40POPC   GL1  844  10.019   0.295   8.260 -0.0112  0.1415  0.1820
   40POPC   GL2  845  10.350   0.261   8.047 -0.1085  0.0133  0.0328
   40POPC   C1A  846   9.837   0.388   7.863  0.2053  0.2356 -0.2360
   40POPC   D2A  847   9.649   0.224   7.526 -0.3237 -0.3432 -0.0617
   40POPC   C3A  848   9.695   0.144   7.041 -0.3366 -0.1362 -0.0224
   40POPC   C4A  849   9.494   0.220   6.661 -0.1899  0.2081  0.0620
   40POPC   C1B  850  10.665   0.561   7.815  0.4338 -0.0828  0.0412
   40POPC   C2B  851  10.840   0.744   7.403  0.1156  0.1173  0.0141
   40POPC   C3B  852  10.808   0.754   6.936 -0.0183 -0.1887 -0.1213
   40POPC   C4B  853  10.701   1.033   6.610 -0.1681 -0.1944 -0.0254
   41POPC   NC3  854   1.551   3.883   7.740 -0.3578 -0.1390  0.1175
   41POPC   PO4  855   1.500   4.367   7.801 -0.0385  0.1254 -0.2857
   41POPC   GL1  856   1.053   4.246   7.493  0.1307 -0.2086 -0.4002
   41POPC   GL2  857   0.996   4.245   7.195  0.0303  0.1079 -0.3742
   41POPC   C1A  858   0.639   4.394   7.640  0.1971  0.2382 -0.1897
   41POPC   D2A  859   0.207   4.347   7.547 -0.0399  0.1419 -0.1056
   41POPC   C3A  860   0.164   4.706   7.432 -0.0310  0.0369  0.1253
   41POPC   C4A  861   0.171   5.144   7.337 -0.2964 -0.0734 -0.0488
   41POPC   C1B  862   0.760   3.967   6.916 -0.2312  0.5136 -0.0394
   41POPC   C2B  863   0.361   3.699   6.891  0.0212  0.1152  0.0769
   41POPC   C3B  864  -0.007   3.517   6.854 -0.0271  0.0849  0.2485
   41POPC   C4B  865  -0.182   3.140   6.980 -0.1167 -0.1889  0.1600
   42POPC   NC3  866   2.804   8.012   9.325 -0.0346 -0.0592 -0.0600
   42POPC   PO4  867   2.987   8.007   8.922 -0.2157  0.2216 -0.1805
   42POPC   GL1  868   2.867   7.877   8.661 -0.1855  0.0736 -0.2290
   42POPC   GL2  869   2.735   7.595   8.490 -0.0225 -0.1435 -0.2876
   42POPC   C1A  870   2.783   8.075   8.317  0.3610 -0.0907  0.0268
   42POPC   D2A  871   2.578   8.549   8.305  0.0374  0.1134 -0.0504
   42POPC   C3A  872   2.270   8.616   7.953 -0.2276  0.2119  0.0393
   42POPC   C4A  873   2.130   8.596   7.497  0.3391  0.0870 -0.1609
   42POPC   C1B  874   2.899   7.626   8.178  0.0243  0.0573  0.0964
   42POPC   C2B  875   2.954   8.081   7.857  0.1831 -0.1273 -0.0099
   42POPC   C3B  876   2.792   8.507   7.786 -0.0087  0.1372 -0.0403
   42POPC   C4B  877   3.001   8.867   7.570 -0.1262 -0.0956  0.1850
   43POPC   NC3  878   9.733   6.655   8.576 -0.2488  0.0500  0.2185
   43POPC   PO4  879   9.956   7.042   8.640  0.1522 -0.2204  0.1333
   43POPC   GL1  880  10.267   6.721   8.516 -0.0272  0.0630  0.0977
   43POPC   GL2  881  10.201   6.907   8.238 -0.0583  0.2810 -0.0954
   43POPC   C1A  882  10.592   6.586   8.233  0.0607  0.2656 -0.1318
   43POPC   D2A  883  10.732   6.528   7.803 -0.1470 -0.2815 -0.0555
   43POPC   C3A  884  11.032   6.396   7.655  0.1096  0.1223  0.2121
   43POPC   C4A  885  11.081   6.158   7.257 -0.1099 -0.2206 -0.1420
   43POPC   C1B  886  10.038   7.025   7.898 -0.1097 -0.2625  0.0545
   43POPC   C2B  887  10.067   7.144   7.477 -0.2410  0.3487 -0.2691
   43POPC   C3B  888  10.125   7.014   7.016  0.0797  0.0482 -0.0258
   43POPC   C4B  889   9.920   6.759   6.693  0.2493  0.4638  0.2159
   44POPC   NC3  890   0.668   4.840   8.798  0.0483  0.2728 -0.0412
   44POPC   PO4  891   0.448   5.297   8.762 -0.4994 -0.0337 -0.0678
   44POPC   GL1  892   0.432   5.532   8.333  0.1023 -0.1913 -0.3804
   44POPC   GL2  893   0.296   5.928   8.337  0.2448  0.0193  0.1792
   44POPC   C1A  894   0.275   5.537   7.845 -0.0551  0.0679  0.0845
   44POPC   D2A  895   0.276   5.695   7.299  0.0337 -0.0701  0.1481
   44POPC   C3A  896   0.341   5.513   6.887  0.0073 -0.3251 -0.3148
   44POPC   C4A  897   0.316   5.252   6.527  0.1000 -0.4106 -0.0356
   44POPC   C1B  898   0.500   6.125   7.931 -0.1101 -0.1049 -0.2340
   44POPC   C2B  899   0.679   6.210   7.445  0.2047 -0.0164  0.0000
   44POPC   C3B  900   0.681   6.324   7.041 -0.0311 -0.1639  0.0314
   44POPC   C4B  901   1.019   6.457   6.849  0.0360 -0.0661 -0.0052
   45POPC   NC3  902   4.135   4.608   8.384  0.2671  0.2557  0.2432
   45POPC   PO4  903   3.744   4.376   8.037 -0.0479  0.3724 -0.0802
   45POPC   GL1  904   3.737   4.008   7.725 -0.0983 -0.2652  0.0289
   45POPC   GL2  905   3.822   3.799   7.758  0.0838  0.2444 -0.1147
   45POPC   C1A  906   3.568   3.944   7.339  0.0116 -0.1435 -0.2492
   45POPC   D2A  907   3.752   3.687   7.031 -0.0726 -0.2658  0.2755
   45POPC   C3A  908   3.680   3.743   6.496  0.0744  0.0046 -0.4169
   45POPC   C4A  909   3.567   3.894   6.192 -0.0260 -0.0139 -0.2718
   45POPC   C1B  910   4.090   3.831   7.315  0.1071 -0.1753  0.1693
   45POPC   C2B  911   4.164   3.729   6.838 -0.0914  0.0595  0.2277
   45POPC   C3B  912   4.242   3.567   6.422  0.1777  0.1253 -0.3277
   45POPC   C4B  913   3.950   3.533   6.112  0.0297  0.0612  0.1296
   46POPC   NC3  914   3.613   2.175   8.795 -0.0776  0.1677  0.1272
   46POPC   PO4  915   3.856   1.884   8.683  0.0958 -0.1639  0.2084
   46POPC   GL1  916   3.732   1.860   8.208 -0.0064  0.0331  0.1967
   46POPC   GL2  917   3.422   1.653   8.171  0.0091  0.1506 -0.1008
   46POPC   C1A  918   3.760   2.123   7.832 -0.2500  0.0559  0.1140
   46POPC   D2A  919   3.788   1.963   7.417  0.0805 -0.2022 -0.3963
   46POPC   C3A  920   3.575   2.040   7.039 -0.1501  0.0442  0.0370
   46POPC   C4A  921   3.800   2.210   6.751  0.0115 -0.1931 -0.3848
   46POPC   C1B  922   3.705   1.583   7.751 -0.0762 -0.2958 -0.3850
   46POPC   C2B  923   3.964   1.520   7.295 -0.0917 -0.1653  0.1526
   46POPC   C3B  924   4.283   1.371   6.962  0.1502  0.0405 -0.2397
   46POPC   C4B  925   4.569   1.237   6.693  0.1412  0.2082  0.2275
   47POPC   NC3  926   3.246   5.150   7.960 -0.1427 -0.1039  0.0574
   47POPC   PO4  927   3.302   5.033   7.421 -0.1064 -0.0133  0.1684
   47POPC   GL1  928   3.599   5.252   7.201 -0.0485  0.2877  0.0290
   47POPC   GL2  929   3.405   5.379   6.991  0.3199 -0.0010 -0.3810
   47POPC   C1A  930   4.045   5.468   7.176 -0.3741 -0.0804 -0.2961
   47POPC   D2A  931   4.198   5.652   6.723 -0.0669  0.4886 -0.3506
   47POPC   C3A  932   4.632   5.558   6.466 -0.0667  0.0980 -0.0549
   47POPC   C4A  933   5.142   5.558   6.292 -0.1527  0.0389 -0.1748
   47POPC   C1B  934   3.428   5.668   6.693  0.0106  0.2822 -0.1838
   47POPC   C2B  935   3.331   5.995   6.402 -0.1937  0.0353 -0.1032
   47POPC   C3B  936   3.418   6.141   6.004 -0.1665 -0.1258  0.3725
   47POPC   C4B  937   3.268   6.562   5.915  0.1186  0.2994 -0.0903
   48POPC   NC3  938   7.029   9.150   8.561 -0.3463  0.0210 -0.3695
   48POPC   PO4  939   7.045   8.674   8.610 -0.2536  0.1174 -0.0169
   48POPC   GL1  940   7.330   8.731   8.202  0.1042 -0.0359 -0.2459
   48POPC   GL2  941   7.660   8.920   8.343 -0.0602 -0.2465  0.0241
   48POPC   C1A  942   7.490   8.877   7.756  0.0012  0.2745  0.0083
   48POPC   D2A  943   7.748   9.036   7.360 -0.0529 -0.0955  0.0387
   48POPC   C3A  944   8.040   8.842   7.145  0.1168 -0.3035  0.0393
   48POPC   C4A  945   8.392   8.629   6.993 -0.1502  0.4084  0.3224
   48POPC   C1B  946   8.030   8.811   8.059  0.0621  0.1384  0.0099
   48POPC   C2B  947   8.101   8.764   7.714  0.2350  0.0926 -0.0761
   48POPC   C3B  948   7.930   8.389   7.343  0.1212  0.0223  0.0425
   48POPC   C4B  949   7.624   8.581   7.056 -0.0871  0.4415 -0.0792
   49POPC   NC3  950   3.234   6.722   8.930 -0.0183  0.0111 -0.0081
   49POPC   PO4  951   3.501   7.134   8.909  0.2249  0.1175  0.0654
   49POPC   GL1  952   3.427   7.130   8.474  0.1168 -0.2852 -0.0098
   49POPC   GL2  953   3.046   7.073   8.396 -0.1907  0.0236 -0.0097
   49POPC   C1A  954   3.414   6.956   8.047 -0.1058  0.0915  0.4830
   49POPC   D2A  955   3.369   7.148   7.620 -0.0555 -0.0925  0.1315
   49POPC   C3A  956   3.616   7.181   7.083  0.1846 -0.0808  0.0329
   49POPC   C4A  957   3.835   7.275   6.781 -0.3189  0.0019 -0.0217
   49POPC   C1B  958   2.910   7.117   8.072 -0.0670 -0.0758 -0.0459
   49POPC   C2B  959   2.809   7.154   7.769 -0.1385  0.2542 -0.2607
   49POPC   C3B  960   2.915   7.038   7.356  0.1137 -0.0669 -0.0254
   49POPC   C4B  961   2.756   7.316   7.055 -0.1278  0.0604  0.4127
   50POPC   NC3  962   2.230   8.293   8.658 -0.2896 -0.0372 -0.3723
   50POPC   PO4  963   2.111   8.772   8.635 -0.3765 -0.0618  0.1315
   50POPC   GL1  964   1.913   8.552   8.336  0.0593  0.2476 -0.0396
   50POPC   GL2  965   2.061   8.242   8.152  0.1648  0.2497  0.1923
   50POPC   C1A  966   1.709   8.740   7.885 -0.1982 -0.1005 -0.1095
   50POPC   D2A  967   1.714   8.876   7.525  0.1104 -0.0771  0.2824
   50POPC   C3A  968   1.637   8.732   7.127  0.1540  0.3623  0.4321
   50POPC   C4A  969   1.943   8.518   6.928 -0.0034 -0.1789 -0.1140
   50POPC   C1B  970   2.439   8.135   7.962  0.3029  0.0530 -0.4023
   50POPC   C2B  971   2.458   8.219   7.603  0.1288  0.0219 -0.1159
   50POPC   C3B  972   2.457   8.139   7.141  0.0658  0.1565  0.0510
   50POPC   C4B  973   2.684   8.314   6.837 -0.3395 -0.0863  0.0562
   51POPC   NC3  974   7.752   6.995   8.749 -0.0075  0.0650  0.1637
   51POPC   PO4  975   7.328   7.199   8.596  0.2036 -0.0718 -0.2345
   51POPC   GL1  976   7.650   7.092   8.222 -0.3215  0.1612 -0.0583
   51POPC   GL2  977   7.962   7.199   8.210  0.0836  0.0087 -0.1945
   51POPC   C1A  978   7.555   6.987   7.846  0.1902 -0.3203 -0.0792
   51POPC   D2A  979   7.626   6.738   7.451  0.2309 -0.1232  0.1894
   51POPC   C3A  980   7.749   7.075   7.042 -0.0792  0.1468  0.1383
   51POPC   C4A  981   7.781   7.024   6.564 -0.3240  0.0983 -0.2295
   51POPC   C1B  982   8.041   6.883   7.856 -0.2322 -0.0601 -0.0970
   51POPC   C2B  983   8.107   6.552   7.569 -0.0851 -0.0963  0.3836
   51POPC   C3B  984   8.016   6.334   7.259  0.0217  0.0691  0.0386
   51POPC   C4B  985   8.195   6.034   6.914  0.3665 -0.2504 -0.1006
   52POPC   NC3  986   0.373   8.291   8.593  0.0651  0.2163 -0.2186
   52POPC   PO4  987   0.532   8.645   8.649 -0.0335  0.1185 -0.3797
   52POPC   GL1  988   0.577   8.618   8.219 -0.0783 -0.2845 -0.1566
   52POPC   GL2  989   0.921   8.588   8.131 -0.1267 -0.1187  0.3022
   52POPC   C1A  990   0.290   8.410   7.987 -0.1241 -0.0086 -0.0088
   52POPC   D2A  991  -0.073   8.437   7.740  0.0283  0.0198  0.0418
   52POPC   C3A  992  -0.278   8.523   7.353  0.1449  0.1498  0.0806
   52POPC   C4A  993  -0.709   8.589   7.272 -0.2547 -0.0172  0.2315
   52POPC   C1B  994   0.745   8.738   7.668 -0.2302  0.0310 -0.0576
   52POPC   C2B  995   0.311   8.567   7.443  0.3965 -0.0663  0.0663
   52POPC   C3B  996   0.185   8.680   7.089  0.3966 -0.2437 -0.0288
   52POPC   C4B  997  -0.038   8.998   6.927  0.0063  0.1926  0.0590
   53POPC   NC3  998   6.050   1.904   8.559 -0.3872  0.3654 -0.1296
   53POPC   PO4  999   6.059   2.394   8.443  0.0727 -0.0015  0.0353
   53POPC   GL1 1000   6.149   2.518   8.016  0.1324 -0.2038  0.0690
   53POPC   GL2 1001   5.907   2.547   7.926 -0.1497 -0.1467 -0.2147
   53POPC   C1A 1002   6.297   2.520   7.588  0.0493 -0.0408  0.0698
   53POPC   D2A 1003   6.352   2.555   7.103  0.0769 -0.0931  0.0226
   53POPC   C3A 1004   6.015   2.838   6.867 -0.0381  0.1735  0.0729
   53POPC   C4A 1005   6.144   3.284   6.744 -0.0678  0.1874  0.5056
   53POPC   C1B 1006   5.856   2.319   7.530  0.1126  0.1750  0.0476
   53POPC   C2B 1007   6.095   2.105   7.259 -0.0009 -0.0567  0.0736
   53POPC   C3B 1008   6.480   2.056   7.247  0.2219 -0.0457  0.1568
   53POPC   C4B 1009   6.909   1.922   7.221  0.0956 -0.1475  0.0857
   54POPC   NC3 1010   9.708   4.313   8.741  0.1397 -0.2779  0.1336
   54POPC   PO4 1011   9.688   3.778   8.429 -0.0826  0.1053  0.1146
   54POPC   GL1 1012   9.630   3.650   8.035 -0.3744 -0.0905  0.1487
   54POPC   GL2 1013   9.592   3.331   7.913  0.0940 -0.0080  0.3113
   54POPC   C1A 1014   9.485   3.848   7.712 -0.1904  0.0488 -0.0014
   54POPC   D2A 1015   9.173   4.025   7.466 -0.1089 -0.0208 -0.1628
   54POPC   C3A 1016   9.267   4.098   7.026 -0.0793 -0.0662  0.2367
   54POPC   C4A 1017   9.183   4.181   6.540  0.0532 -0.0988 -0.1465
   54POPC   C1B 1018   9.731   3.442   7.483  0.1199  0.1410 -0.0822
   54POPC   C2B 1019   9.579   3.788   7.200  0.0798  0.1752  0.2869
   54POPC   C3B 1020   9.556   3.820   6.728  0.2039  0.0323  0.0408
   54POPC   C4B 1021   9.763   3.648   6.394 -0.0981  0.1493 -0.2539
   55POPC   NC3 1022   7.169   1.173   8.514 -0.2948 -0.0573 -0.0783
   55POPC   PO4 1023   6.846   1.299   8.668 -0.0081  0.3883 -0.0081
   55POPC   GL1 1024   6.715   1.273   8.175  0.1232  0.0095  0.3632
   55POPC   GL2 1025   6.912   1.344   7.938 -0.1228  0.0718  0.3325
   55POPC   C1A 1026   6.433   1.148   7.768  0.1556 -0.2158  0.3968
   55POPC   D2A 1027   6.078   1.021   7.446  0.0693 -0.3054 -0.2551
   55POPC   C3A 1028   6.171   1.187   7.021  0.3206 -0.0042 -0.0243
   55POPC   C4A 1029   6.344   1.273   6.615  0.1949  0.0440 -0.0683
   55POPC   C1B 1030   7.010   1.470   7.507 -0.1620 -0.0768 -0.2889
   55POPC   C2B 1031   7.060   1.450   7.138 -0.1771  0.0926 -0.1699
   55POPC   C3B 1032   6.955   1.511   6.700 -0.1169 -0.0727  0.1652
   55POPC   C4B 1033   7.017   1.570   6.265  0.2576  0.1485 -0.2519
   56POPC   NC3 1034   3.158   1.007   9.087  0.5201  0.2368 -0.2645
   56POPC   PO4 1035   3.036   0.623   8.702  0.2646 -0.0278  0.1929
   56POPC   GL1 1036   2.975   0.296   8.362 -0.0585  0.2438  0.0905
   56POPC   GL2 1037   2.888   0.595   8.133  0.0443  0.0016  0.4783
   56POPC   C1A 1038   3.160   0.050   8.054 -0.1282 -0.1795  0.3346
   56POPC   D2A 1039   3.127  -0.142   7.710  0.1737  0.4691  0.1466
   56POPC   C3A 1040   3.057   0.118   7.306 -0.1352  0.0381 -0.2490
   56POPC   C4A 1041   2.758   0.486   7.304  0.2737  0.1394 -0.2120
   56POPC   C1B 1042   3.217   0.511   7.786  0.1092 -0.0381  0.1333
   56POPC   C2B 1043   3.227   0.586   7.413  0.1976 -0.1579  0.2154
   56POPC   C3B 1044   3.405   0.604   6.989  0.0565  0.2797 -0.2437
   56POPC   C4B 1045   3.370   0.151   6.715 -0.0897  0.2336  0.0486
   57POPC   NC3 1046   5.484   8.307   8.661  0.2688 -0.2137 -0.0543
   57POPC   PO4 1047   5.956   8.249   8.724  0.2658  0.2271 -0.1125
   57POPC   GL1 1048   5.796   8.227   8.323  0.1476 -0.1224  0.3006
   57POPC   GL2 1049   5.531   7.944   8.183  0.1384 -0.0896  0.3705
   57POPC   C1A 1050   5.702   8.498   7.925  0.1332 -0.2184 -0.1678
   57POPC   D2A 1051   5.891   8.773   7.721 -0.1206 -0.2235  0.0491
   57POPC   C3A 1052   6.069   8.780   7.395 -0.2234  0.0345  0.2006
   57POPC   C4A 1053   6.277   8.740   6.925  0.0202 -0.0781 -0.0889
   57POPC   C1B 1054   5.591   8.015   7.805  0.1167  0.1717  0.0822
   57POPC   C2B 1055   5.212   8.209   7.618 -0.2671 -0.2532  0.1752
   57POPC   C3B 1056   4.955   8.619   7.559 -0.4065  0.2632 -0.1060
   57POPC   C4B 1057   4.792   8.822   7.246 -0.1520  0.0172  0.0578
   58POPC   NC3 1058   8.761   0.857   8.742 -0.1519 -0.2813  0.2101
   58POPC   PO4 1059   9.153   1.194   8.729  0.2568  0.0146 -0.2551
   58POPC   GL1 1060   9.142   0.981   8.406  0.0667 -0.1551  0.2201
   58POPC   GL2 1061   9.426   1.132   8.106  0.0573 -0.5388  0.0774
   58POPC   C1A 1062   8.986   0.770   8.008  0.1917  0.0084  0.0895
   58POPC   D2A 1063   9.143   0.665   7.536 -0.0292 -0.0012  0.1382
   58POPC   C3A 1064   9.271   0.481   7.167 -0.1236 -0.1872  0.0726
   58POPC   C4A 1065   8.910   0.642   6.949  0.0073  0.0248  0.0741
   58POPC   C1B 1066   9.433   1.042   7.719  0.1140  0.1862  0.0407
   58POPC   C2B 1067   9.633   0.727   7.422 -0.1267  0.1413  0.0764
   58POPC   C3B 1068   9.747   0.638   7.033 -0.1652 -0.0773  0.2970
   58POPC   C4B 1069   9.957   0.423   6.650  0.3333 -0.1383 -0.2653
   59POPC   NC3 1070   2.793   8.470   9.194 -0.2093 -0.0346 -0.0594
   59POPC   PO4 1071   2.629   8.619   8.793 -0.1714  0.1625  0.0556
   59POPC   GL1 1072   2.982   8.585   8.593  0.2019  0.1752  0.2570
   59POPC   GL2 1073   3.206   8.267   8.568  0.2330 -0.0388 -0.3096
   59POPC   C1A 1074   3.023   8.849   8.172 -0.1342  0.0817  0.0994
   59POPC   D2A 1075   3.362   8.939   7.974  0.0968 -0.2654 -0.1906
   59POPC   C3A 1076   3.472   9.077   7.670 -0.0109 -0.3428  0.1296
   59POPC   C4A 1077   3.306   9.349   7.413 -0.0095 -0.3353  0.1125
   59POPC   C1B 1078   3.317   8.468   8.144 -0.2193  0.4555 -0.0503
   59POPC   C2B 1079   3.330   8.472   7.737 -0.0093 -0.2646 -0.2431
   59POPC   C3B 1080   3.429   8.498   7.300  0.0052 -0.1190 -0.2577
   59POPC   C4B 1081   3.625   8.585   6.802 -0.0703 -0.2354  0.2091
   60POPC   NC3 1082   6.972   4.948   8.560 -0.3892  0.0228 -0.0406
   60POPC   PO4 1083   6.785   5.055   8.195  0.0368 -0.1491 -0.2955
   60POPC   GL1 1084   6.691   4.819   7.790 -0.1928  0.2937  0.3993
   60POPC   GL2 1085   6.932   4.832   7.523  0.1648  0.0260 -0.3075
   60POPC   C1A 1086   6.369   4.623   7.503  0.0160  0.1314  0.1322
   60POPC   D2A 1087   6.079   4.468   7.205 -0.1843  0.1375 -0.2079
   60POPC   C3A 1088   6.179   4.200   6.850 -0.3802 -0.1119 -0.3401
   60POPC   C4A 1089   6.459   4.311   6.553  0.0106 -0.1133  0.0552
   60POPC   C1B 1090   7.134   4.964   7.278 -0.3840  0.0681  0.2098
   60POPC   C2B 1091   7.282   4.945   6.797 -0.0156  0.1158  0.1852
   60POPC   C3B 1092   7.235   4.767   6.376 -0.0631 -0.0993 -0.4459
   60POPC   C4B 1093   6.909   4.634   6.145 -0.0185  0.1496  0.2645
   61POPC   NC3 1094   7.942   1.035   9.292 -0.0463 -0.1429  0.0426
   61POPC   PO4 1095   7.786   0.749   8.859 -0.2171 -0.0097  0.1067
   61POPC   GL1 1096   7.586   0.756   8.386 -0.1578  0.1346  0.1423
   61POPC   GL2 1097   7.245   0.677   8.328  0.0200 -0.2700 -0.2320
   61POPC   C1A 1098   7.802   0.836   7.929 -0.5103  0.0820  0.2550
   61POPC   D2A 1099   7.894   0.616   7.599 -0.0516  0.0410 -0.0154
   61POPC   C3A 1100   8.067   0.630   7.185 -0.1536  0.2606 -0.4432
   61POPC   C4A 1101   7.949   0.538   6.797 -0.1846 -0.0051 -0.2366
   61POPC   C1B 1102   7.143   0.833   7.984 -0.0059 -0.1467  0.2054
   61POPC   C2B 1103   6.986   0.954   7.554 -0.0787  0.2664 -0.0996
   61POPC   C3B 1104   7.181   0.914   7.124 -0.1184 -0.1029 -0.3044
   61POPC   C4B 1105   7.507   1.066   7.060  0.0840  0.0606  0.0047
   62POPC   NC3 1106   7.488   3.854   8.250 -0.1340 -0.1131  0.1994
   62POPC   PO4 1107   7.319   4.184   8.320 -0.4332  0.3626  0.0831
   62POPC   GL1 1108   7.157   3.892   7.798  0.1187  0.0151 -0.0313
   62POPC   GL2 1109   7.235   3.520   7.848 -0.1244  0.0709  0.0976
   62POPC   C1A 1110   7.372   3.849   7.393 -0.1960 -0.1639 -0.0335
   62POPC   D2A 1111   7.350   4.060   6.904 -0.1902 -0.1950 -0.0193
   62POPC   C3A 1112   7.582   4.422   6.689  0.2544 -0.2129  0.0186
   62POPC   C4A 1113   7.781   4.751   6.489 -0.1340 -0.0750  0.0200
   62POPC   C1B 1114   7.141   3.336   7.406 -0.5161 -0.2297  0.1046
   62POPC   C2B 1115   6.745   3.347   7.172 -0.0462 -0.0057 -0.0298
   62POPC   C3B 1116   6.655   3.482   6.697  0.1773 -0.2435  0.1332
   62POPC   C4B 1117   6.743   3.434   6.248  0.1324 -0.3233  0.3664
   63POPC   NC3 1118   6.404   2.086   8.204 -0.0208 -0.0059  0.0570
   63POPC   PO4 1119   5.937   2.046   8.089  0.2675 -0.2116 -0.4206
   63POPC   GL1 1120   5.528   2.202   8.035 -0.3635 -0.2445  0.2278
   63POPC   GL2 1121   5.404   2.628   8.074  0.1151  0.0203 -0.0185
   63POPC   C1A 1122   5.322   2.311   7.668  0.1740 -0.0567  0.0886
   63POPC   D2A 1123   5.209   2.470   7.329  0.0387 -0.0973 -0.0085
   63POPC   C3A 1124   5.671   2.475   7.111  0.3330  0.0750 -0.1810
   63POPC   C4A 1125   5.985   2.374   6.796  0.0662 -0.0022 -0.0015
   63POPC   C1B 1126   5.412   2.835   7.574  0.1173 -0.0598 -0.1995
   63POPC   C2B 1127   5.389   2.948   7.162 -0.1558  0.2385  0.0435
   63POPC   C3B 1128   5.517   2.762   6.756  0.4070  0.0089 -0.1123
   63POPC   C4B 1129   5.767   2.604   6.349  0.1420 -0.4469  0.2075
   64POPC   NC3 1130   5.114   2.332   8.414  0.1925 -0.3190  0.3010
   64POPC   PO4 1131   5.191   1.899   8.328 -0.2261 -0.1642  0.1684
   64POPC   GL1 1132   5.321   1.777   7.883 -0.0314 -0.2771  0.0613
   64POPC   GL2 1133   5.706   1.879   7.651  0.2034  0.2983 -0.1375
   64POPC   C1A 1134   5.067   1.892   7.428 -0.1898 -0.1395  0.4726
   64POPC   D2A 1135   5.047   1.620   6.980 -0.2134 -0.3761  0.0971
   64POPC   C3A 1136   5.466   1.695   6.793 -0.3084 -0.0511 -0.0311
   64POPC   C4A 1137   5.858   1.446   6.635  0.1934 -0.0271 -0.0062
   64POPC   C1B 1138   5.502   1.947   7.236  0.0301  0.3122  0.1523
   64POPC   C2B 1139   5.258   2.154   6.940 -0.1945 -0.1029 -0.1200
   64POPC   C3B 1140   5.239   2.376   6.574  0.2831 -0.3460  0.1091
   64POPC   C4B 1141   5.050   2.275   6.170  0.3555  0.1032  0.0354
   65POPC   NC3 1142   6.333   9.277   8.976  0.4885 -0.3195 -0.7876
   65POPC   PO4 1143   6.635   9.439   8.642 -0.0422 -0.0951 -0.0990
   65POPC   GL1 1144   6.618   9.417   8.226 -0.4327  0.1571 -0.0996
   65POPC   GL2 1145   6.503   9.187   7.985  0.1562 -0.2529  0.2933
   65POPC   C1A 1146   6.575   9.567   7.740  0.2132  0.0838  0.0481
   65POPC   D2A 1147   6.677   9.779   7.386 -0.0567 -0.0898  0.0261
   65POPC   C3A 1148   7.083   9.911   7.316  0.0182  0.1059  0.2102
   65POPC   C4A 1149   7.440   9.742   7.217  0.1160  0.0253 -0.1535
   65POPC   C1B 1150   6.584   9.141   7.506 -0.0827 -0.0677  0.0652
   65POPC   C2B 1151   6.756   9.300   7.259 -0.3356 -0.2716  0.1138
   65POPC   C3B 1152   7.048   9.445   6.830 -0.1017 -0.0827  0.0188
   65POPC   C4B 1153   7.399   9.391   6.497  0.3001 -0.2878  0.0401
   66POPC   NC3 1154   4.291   9.931   9.056  0.1854 -0.0841 -0.3758
   66POPC   PO4 1155   4.445   9.838   8.636  0.3380 -0.0179 -0.0588
   66POPC   GL1 1156   4.510   9.931   8.213  0.1815  0.0257  0.0022
   66POPC   GL2 1157   4.180  10.126   8.178  0.1079  0.1836 -0.0600
   66POPC   C1A 1158   4.599   9.967   7.775 -0.2363  0.1038 -0.0829
   66POPC   D2A 1159   4.467   9.678   7.386 -0.2300  0.0840  0.1676
   66POPC   C3A 1160   4.327   9.861   7.043 -0.0193 -0.1372  0.3021
   66POPC   C4A 1161   4.273   9.936   6.566 -0.1384  0.0162 -0.0479
   66POPC   C1B 1162   4.224  10.254   7.909 -0.0901 -0.0696  0.0439
   66POPC   C2B 1163   4.239  10.539   7.441 -0.2295 -0.0428  0.0277
   66POPC   C3B 1164   4.453  10.806   7.074 -0.0048 -0.1215  0.3450
   66POPC   C4B 1165   4.739  10.718   6.842 -0.1522 -0.2177 -0.0791
   67POPC   NC3 1166   9.221   8.327   9.011  0.1433 -0.0474 -0.2425
   67POPC   PO4 1167   9.555   8.466   8.727  0.0619  0.0686 -0.0667
   67POPC   GL1 1168   9.431   8.551   8.366 -0.1717 -0.1403 -0.1990
   67POPC   GL2 1169   9.427   8.877   8.213  0.1636  0.1169  0.2812
   67POPC   C1A 1170   9.337   8.421   7.875 -0.0581  0.0726 -0.0518
   67POPC   D2A 1171   9.156   8.151   7.552  0.0472 -0.1509  0.0319
   67POPC   C3A 1172   9.198   7.626   7.299 -0.1404  0.3003 -0.0161
   67POPC   C4A 1173   8.982   7.424   7.003 -0.0696  0.2691  0.0025
   67POPC   C1B 1174   9.589   8.814   7.788 -0.0155 -0.0406 -0.0315
   67POPC   C2B 1175   9.946   8.954   7.587  0.3451 -0.1717 -0.0137
   67POPC   C3B 1176  10.248   9.103   7.305 -0.0470  0.2675 -0.0147
   67POPC   C4B 1177  10.568   8.855   7.199  0.1821  0.2120 -0.0358
   68POPC   NC3 1178   1.412   9.826   8.839 -0.3301  0.2789  0.0439
   68POPC   PO4 1179   0.971   9.621   8.929  0.1155 -0.1665  0.0476
   68POPC   GL1 1180   0.986   9.715   8.500  0.0300 -0.1924 -0.1862
   68POPC   GL2 1181   1.208   9.834   8.308  0.2267  0.0869  0.3002
   68POPC   C1A 1182   0.736   9.900   8.111 -0.0252  0.0685 -0.1040
   68POPC   D2A 1183   0.761   9.830   7.662  0.2840  0.0686 -0.2437
   68POPC   C3A 1184   0.783  10.236   7.422 -0.1229  0.1965 -0.0853
   68POPC   C4A 1185   0.531  10.348   7.114 -0.1543 -0.2654  0.1726
   68POPC   C1B 1186   1.176  10.232   8.167 -0.0861 -0.2671  0.2803
   68POPC   C2B 1187   1.282  10.474   7.782 -0.0263 -0.1178  0.0377
   68POPC   C3B 1188   1.362  10.546   7.397 -0.0777  0.2183  0.0216
   68POPC   C4B 1189   1.602  10.396   7.035  0.0707 -0.2215  0.1576
   69POPC   NC3 1190   0.368   5.791   8.808 -0.0471  0.2537  0.1505
   69POPC   PO4 1191   0.056   6.189   8.643 -0.4322 -0.2640  0.1363
   69POPC   GL1 1192   0.038   6.357   8.241 -0.4233  0.1422 -0.2822
   69POPC   GL2 1193  -0.207   6.517   8.082 -0.0702 -0.1255 -0.1278
   69POPC   C1A 1194   0.176   6.481   7.774 -0.0901  0.0306  0.0696
   69POPC   D2A 1195   0.155   6.657   7.365  0.0088  0.1663 -0.0171
   69POPC   C3A 1196   0.179   6.468   7.008 -0.2581 -0.0719  0.1222
   69POPC   C4A 1197   0.284   6.031   6.868 -0.1990 -0.2352 -0.1204
   69POPC   C1B 1198  -0.348   6.770   7.776  0.2343  0.0692 -0.0472
   69POPC   C2B 1199  -0.267   6.811   7.362  0.0166 -0.3087  0.0477
   69POPC   C3B 1200  -0.510   6.538   6.966  0.1386 -0.0710 -0.0088
   69POPC   C4B 1201  -0.532   6.271   6.618  0.5114 -0.0831  0.1841
   70POPC   NC3 1202   6.680   0.585   8.989 -0.2875 -0.1016  0.0139
   70POPC   PO4 1203   6.727   0.790   8.524 -0.0833 -0.2589 -0.0473
   70POPC   GL1 1204   6.685   0.739   8.037  0.0716 -0.2195 -0.1789
   70POPC   GL2 1205   6.781   0.513   7.933 -0.2822 -0.1545 -0.0248
   70POPC   C1A 1206   6.496   0.727   7.512 -0.0128 -0.1832 -0.1415
   70POPC   D2A 1207   6.662   0.717   7.093 -0.1304 -0.6809 -0.2013
   70POPC   C3A 1208   6.598   0.629   6.658  0.0740 -0.0280 -0.1690
   70POPC   C4A 1209   6.278   0.455   6.496 -0.0790  0.3420 -0.0945
   70POPC   C1B 1210   6.925   0.408   7.632 -0.0762 -0.5022 -0.1927
   70POPC   C2B 1211   7.056   0.433   7.250  0.1254 -0.0969 -0.2245
   70POPC   C3B 1212   7.031   0.485   6.807  0.0669 -0.0659  0.1963
   70POPC   C4B 1213   7.269   0.428   6.339 -0.1374  0.0911  0.1052
   71POPC   NC3 1214   7.085   3.087   8.131 -0.1273 -0.2574 -0.0690
   71POPC   PO4 1215   6.632   3.258   8.293  0.1597 -0.1483  0.1778
   71POPC   GL1 1216   6.639   3.288   7.831  0.0029 -0.0453  0.0234
   71POPC   GL2 1217   6.319   3.023   7.823 -0.2409  0.0266  0.0356
   71POPC   C1A 1218   6.721   3.622   7.580  0.0067 -0.0475  0.1363
   71POPC   D2A 1219   6.654   4.049   7.553  0.1971  0.1084  0.2139
   71POPC   C3A 1220   6.523   4.253   7.229 -0.0109 -0.1561 -0.4407
   71POPC   C4A 1221   6.757   4.624   7.037 -0.0361 -0.2764 -0.4297
   71POPC   C1B 1222   6.153   3.305   7.562 -0.0356 -0.2831  0.0015
   71POPC   C2B 1223   5.905   3.250   7.172  0.0719 -0.0734  0.1878
   71POPC   C3B 1224   5.655   3.358   6.832 -0.0934 -0.0911 -0.4257
   71POPC   C4B 1225   5.781   3.111   6.377 -0.2229 -0.0178  0.0140
   72POPC   NC3 1226   1.876   6.632   9.291  0.0888 -0.2702  0.0211
   72POPC   PO4 1227   2.128   6.353   9.053 -0.0364  0.0100  0.1032
   72POPC   GL1 1228   1.828   6.472   8.718  0.0082 -0.0541 -0.0268
   72POPC   GL2 1229   1.678   6.733   8.836  0.1814  0.2064  0.1231
   72POPC   C1A 1230   1.680   6.367   8.286 -0.0299  0.3063  0.0412
   72POPC   D2A 1231   1.467   6.315   7.980  0.4657  0.1395  0.1372
   72POPC   C3A 1232   1.084   6.189   8.130 -0.2264 -0.2054  0.0744
   72POPC   C4A 1233   0.976   5.789   8.036  0.0640 -0.2129 -0.0356
   72POPC   C1B 1234   1.512   6.800   8.411 -0.0397 -0.0499  0.2956
   72POPC   C2B 1235   1.235   6.840   8.046 -0.1488 -0.2598  0.1827
   72POPC   C3B 1236   1.271   6.890   7.652  0.2789  0.3290  0.1094
   72POPC   C4B 1237   1.246   6.713   7.230 -0.0491  0.1663  0.3775
   73POPC   NC3 1238   3.481   0.952   8.608 -0.1459 -0.2313 -0.2690
   73POPC   PO4 1239   3.207   1.251   8.649 -0.1081  0.0265  0.0939
   73POPC   GL1 1240   3.068   1.024   8.354  0.0286  0.3988  0.1992
   73POPC   GL2 1241   2.790   1.024   8.475  0.2591 -0.0828  0.2030
   73POPC   C1A 1242   3.058   1.041   8.019 -0.0653 -0.2673 -0.1987
   73POPC   D2A 1243   2.930   1.048   7.503 -0.4274  0.2756 -0.2548
   73POPC   C3A 1244   2.505   1.029   7.328  0.3027  0.2325 -0.0455
   73POPC   C4A 1245   2.253   1.175   7.008 -0.0378  0.1322 -0.0159
   73POPC   C1B 1246   2.529   1.057   8.106  0.3994 -0.1125 -0.0665
   73POPC   C2B 1247   2.243   1.025   7.752  0.1088 -0.1176 -0.1007
   73POPC   C3B 1248   2.011   1.179   7.504 -0.0797  0.0186  0.0921
   73POPC   C4B 1249   1.849   0.984   7.228 -0.1071  0.0857 -0.1600
   74POPC   NC3 1250   7.445   8.358   8.490 -0.2772  0.0171 -0.0773
   74POPC   PO4 1251   7.768   7.996   8.528 -0.0500 -0.0449  0.1699
   74POPC   GL1 1252   7.616   8.247   8.044 -0.2274 -0.1106  0.1680
   74POPC   GL2 1253   7.686   8.424   7.825 -0.3816  0.1157  0.0116
   74POPC   C1A 1254   7.572   7.939   7.612  0.2266 -0.3259 -0.1985
   74POPC   D2A 1255   7.685   8.033   7.167  0.4747  0.1235  0.2403
   74POPC   C3A 1256   7.349   7.726   7.013 -0.0232 -0.2697  0.1743
   74POPC   C4A 1257   7.024   7.689   6.716  0.1716  0.0652  0.2715
   74POPC   C1B 1258   8.046   8.130   7.742  0.2611 -0.1962 -0.0483
   74POPC   C2B 1259   8.206   7.942   7.370  0.0750  0.0099  0.0116
   74POPC   C3B 1260   8.417   8.150   7.012  0.0774  0.3562  0.0051
   74POPC   C4B 1261   8.596   8.106   6.558  0.0607 -0.1150 -0.1005
   75POPC   NC3 1262   6.921   0.355   8.439  0.0762 -0.1114  0.1433
   75POPC   PO4 1263   7.036  -0.200   8.508  0.0709 -0.0452  0.0103
   75POPC   GL1 1264   7.155   0.105   8.116  0.3289 -0.0314  0.0514
   75POPC   GL2 1265   6.977  -0.057   7.928  0.1636  0.0805  0.0244
   75POPC   C1A 1266   7.463  -0.019   7.785  0.1467 -0.1648 -0.1746
   75POPC   D2A 1267   7.763   0.066   7.519  0.0790  0.1393  0.0495
   75POPC   C3A 1268   7.775   0.150   7.144 -0.0751 -0.0134 -0.3919
   75POPC   C4A 1269   7.464   0.136   6.865  0.2855  0.0036 -0.2146
   75POPC   C1B 1270   7.081  -0.378   7.636 -0.1084 -0.1300  0.1273
   75POPC   C2B 1271   7.244  -0.669   7.370 -0.1578 -0.0840  0.0377
   75POPC   C3B 1272   7.555  -0.663   6.955 -0.2072  0.0481  0.2182
   75POPC   C4B 1273   7.862  -0.749   6.634 -0.1905 -0.1293 -0.5778
   76POPC   NC3 1274   9.306   3.560   8.703  0.0005  0.1263 -0.0557
   76POPC   PO4 1275   8.951   3.307   8.560  0.1436  0.2324 -0.0243
   76POPC   GL1 1276   8.857   3.188   8.124  0.1387 -0.0055  0.0112
   76POPC   GL2 1277   8.542   3.198   8.044 -0.0536  0.1182  0.4389
   76POPC   C1A 1278   8.972   3.110   7.780 -0.0801 -0.0283 -0.0243
   76POPC   D2A 1279   9.245   3.445   7.564  0.1184 -0.1101 -0.1396
   76POPC   C3A 1280   9.338   3.358   7.170 -0.0177  0.0809 -0.0481
   76POPC   C4A 1281   9.190   3.165   6.760 -0.2092 -0.0724  0.3094
   76POPC   C1B 1282   8.485   3.239   7.592  0.1467 -0.1300 -0.2547
   76POPC   C2B 1283   8.191   3.384   7.421 -0.0678 -0.0892  0.0639
   76POPC   C3B 1284   8.155   3.353   6.967  0.0526  0.1362  0.1648
   76POPC   C4B 1285   7.949   3.696   6.621  0.0810  0.1434 -0.1563
   77POPC   NC3 1286   2.355   9.199   8.794 -0.2889  0.3532 -0.0889
   77POPC   PO4 1287   2.784   9.072   8.732  0.1743 -0.2138  0.1494
   77POPC   GL1 1288   2.667   9.185   8.283  0.1645  0.0637 -0.0097
   77POPC   GL2 1289   2.396   9.000   8.309  0.0351 -0.1023  0.0857
   77POPC   C1A 1290   2.573   9.009   7.870  0.0366 -0.1379  0.0071
   77POPC   D2A 1291   2.479   8.941   7.527  0.0396 -0.1264  0.1827
   77POPC   C3A 1292   2.635   8.589   7.300 -0.0461  0.1895 -0.0128
   77POPC   C4A 1293   2.979   8.250   7.377 -0.1626 -0.3068 -0.0032
   77POPC   C1B 1294   2.103   9.130   7.937  0.1682  0.3027 -0.0910
   77POPC   C2B 1295   1.998   9.247   7.594  0.2851  0.1832  0.0592
   77POPC   C3B 1296   1.967   9.182   7.152  0.3774  0.1370  0.1250
   77POPC   C4B 1297   1.874   8.970   6.727 -0.1542  0.2603  0.2286
   78POPC   NC3 1298   3.982   0.911   8.758  0.2078  0.0082  0.2927
   78POPC   PO4 1299   4.418   0.880   8.637  0.0938 -0.3045 -0.3979
   78POPC   GL1 1300   4.664   0.608   8.342 -0.2906 -0.1011 -0.1760
   78POPC   GL2 1301   4.755   0.868   8.083 -0.0554  0.1497 -0.2968
   78POPC   C1A 1302   4.706   0.453   7.898  0.2697 -0.4117  0.2297
   78POPC   D2A 1303   4.888   0.268   7.501  0.3695 -0.2834  0.1755
   78POPC   C3A 1304   4.713   0.359   7.143  0.0016 -0.3434 -0.0764
   78POPC   C4A 1305   4.296   0.445   6.848 -0.2818  0.1034 -0.2357
   78POPC   C1B 1306   5.133   0.921   7.806  0.1909 -0.0102 -0.0953
   78POPC   C2B 1307   5.215   1.271   7.603  0.0720 -0.0906  0.0696
   78POPC   C3B 1308   5.381   1.401   7.281  0.2182  0.2671 -0.0734
   78POPC   C4B 1309   5.601   1.232   6.979  0.1694  0.1124 -0.0906
   79POPC   NC3 1310   0.270   2.983   9.113 -0.0757  0.0895 -0.1286
   79POPC   PO4 1311  -0.019   2.893   8.783  0.0756  0.1145  0.1348
   79POPC   GL1 1312  -0.030   2.845   8.215 -0.1986  0.0651 -0.1811
   79POPC   GL2 1313   0.237   3.057   8.213 -0.1867  0.0606 -0.1180
   79POPC   C1A 1314  -0.202   2.847   7.870 -0.1143  0.1322 -0.2247
   79POPC   D2A 1315  -0.538   2.953   7.551  0.0892  0.0482 -0.0553
   79POPC   C3A 1316  -0.590   2.820   7.129  0.0771  0.0839  0.0745
   79POPC   C4A 1317  -0.680   2.683   6.726 -0.2113 -0.0290  0.0687
   79POPC   C1B 1318   0.142   3.190   7.882  0.2012 -0.0169 -0.2724
   79POPC   C2B 1319   0.132   2.980   7.429 -0.0957 -0.0371 -0.1210
   79POPC   C3B 1320   0.348   3.070   7.000  0.1009 -0.0415  0.0054
   79POPC   C4B 1321   0.480   2.959   6.603  0.1733 -0.0439 -0.2606
   80POPC   NC3 1322   0.939   2.272   8.837 -0.0274 -0.3049  0.0328
   80POPC   PO4 1323   0.878   2.511   8.434 -0.4793 -0.2438 -0.0477
   80POPC   GL1 1324   0.409   2.597   8.239  0.0520  0.2931  0.1810
   80POPC   GL2 1325   0.333   2.232   8.160 -0.2817 -0.2197  0.0521
   80POPC   C1A 1326   0.255   2.652   7.818 -0.2440 -0.2579  0.2394
   80POPC   D2A 1327   0.147   2.446   7.418 -0.1876  0.0400 -0.1434
   80POPC   C3A 1328  -0.121   2.664   7.085 -0.3042  0.2135  0.2725
   80POPC   C4A 1329  -0.187   2.653   6.618 -0.3147  0.2173  0.3035
   80POPC   C1B 1330   0.577   2.244   7.755  0.2128  0.1588 -0.1337
   80POPC   C2B 1331   0.655   2.210   7.301 -0.1972  0.2251 -0.2767
   80POPC   C3B 1332   0.489   2.291   6.981 -0.3966  0.0026  0.2091
   80POPC   C4B 1333   0.246   2.481   6.764  0.3555 -0.1987 -0.0261
   81POPC   NC3 1334   5.425   6.117   8.385  0.1480  0.0949  0.4004
   81POPC   PO4 1335   5.787   6.358   8.535  0.0057 -0.2166  0.1695
   81POPC   GL1 1336   5.760   6.479   8.000  0.0485  0.3603 -0.3138
   81POPC   GL2 1337   5.939   6.288   7.856 -0.1344  0.0653 -0.2097
   81POPC   C1A 1338   5.685   6.585   7.537  0.1481 -0.1432  0.0329
   81POPC   D2A 1339   5.661   6.607   7.106  0.1912 -0.0020  0.1252
   81POPC   C3A 1340   5.897   6.293   6.810  0.0486 -0.0384 -0.1068
   81POPC   C4A 1341   5.978   6.107   6.433 -0.1875 -0.0942  0.1961
   81POPC   C1B 1342   6.123   6.323   7.469  0.1471  0.1081 -0.3524
   81POPC   C2B 1343   6.506   6.183   7.213  0.1554 -0.1483 -0.2564
   81POPC   C3B 1344   6.754   6.046   6.954  0.1400 -0.0608  0.1672
   81POPC   C4B 1345   7.202   5.968   6.894 -0.0598  0.3942 -0.0696
   82POPC   NC3 1346   7.143   2.157   8.032 -0.3929  0.0102  0.0204
   82POPC   PO4 1347   7.195   1.722   8.270  0.1842  0.1598 -0.1590
   82POPC   GL1 1348   7.337   1.644   7.870  0.2087 -0.1802 -0.1062
   82POPC   GL2 1349   7.222   1.981   7.572  0.2343  0.0727  0.0020
   82POPC   C1A 1350   7.511   1.540   7.376 -0.3266  0.1651  0.0929
   82POPC   D2A 1351   7.899   1.594   7.218 -0.0302  0.0618 -0.0801
   82POPC   C3A 1352   8.024   1.256   7.067  0.0907 -0.2232 -0.2015
   82POPC   C4A 1353   8.293   0.935   6.852  0.1047 -0.2073  0.2147
   82POPC   C1B 1354   7.397   2.316   7.256 -0.0094  0.1687 -0.0041
   82POPC   C2B 1355   7.362   2.382   6.848 -0.0998 -0.2184 -0.2410
   82POPC   C3B 1356   7.108   2.327   6.565 -0.3213  0.2108  0.1337
   82POPC   C4B 1357   6.872   1.953   6.550 -0.1919 -0.1632 -0.3831
   83POPC   NC3 1358   5.465   4.619   8.099  0.2004  0.0947  0.2218
   83POPC   PO4 1359   5.093   4.850   7.962 -0.1854  0.2211  0.0111
   83POPC   GL1 1360   5.201   4.852   7.587  0.0416  0.1144  0.0810
   83POPC   GL2 1361   5.481   5.159   7.439 -0.2537  0.1455 -0.1648
   83POPC   C1A 1362   5.329   4.603   7.164  0.2133 -0.1895  0.2901
   83POPC   D2A 1363   5.242   4.308   6.849 -0.0341  0.1669 -0.0323
   83POPC   C3A 1364   5.099   4.231   6.453  0.1187  0.1208  0.2673
   83POPC   C4A 1365   5.114   4.483   6.087  0.0858  0.0900 -0.0926
   83POPC   C1B 1366   5.396   5.095   7.022  0.1293  0.1568 -0.0058
   83POPC   C2B 1367   5.174   4.866   6.747 -0.2005 -0.2533 -0.2228
   83POPC   C3B 1368   4.996   4.954   6.295  0.1284 -0.2645  0.1289
   83POPC   C4B 1369   4.865   5.233   5.920  0.2154 -0.0108 -0.1269
   84POPC   NC3 1370   4.756   8.551   9.059 -0.0739 -0.0222  0.1217
   84POPC   PO4 1371   4.849   8.981   8.950 -0.1723  0.4821  0.1186
   84POPC   GL1 1372   4.791   9.177   8.597  0.1154 -0.0736  0.2004
   84POPC   GL2 1373   4.863   8.884   8.339 -0.0094 -0.0852  0.0854
   84POPC   C1A 1374   4.560   9.262   8.155  0.3094 -0.1199  0.0741
   84POPC   D2A 1375   4.490   9.475   7.805  0.1934  0.1038 -0.3875
   84POPC   C3A 1376   4.153   9.846   7.730  0.1794  0.3045 -0.1342
   84POPC   C4A 1377   4.083  10.088   7.422  0.0896  0.1951  0.2040
   84POPC   C1B 1378   4.942   8.986   7.928  0.0795  0.1595 -0.1255
   84POPC   C2B 1379   4.796   9.169   7.545 -0.1904 -0.2523 -0.0682
   84POPC   C3B 1380   4.764   9.378   7.107 -0.2975 -0.0454  0.3078
   84POPC   C4B 1381   4.741   9.710   6.790  0.1411 -0.0708  0.2822
   85POPC   NC3 1382   2.661   5.680   8.606  0.1687 -0.2153  0.0363
   85POPC   PO4 1383   2.348   5.708   8.347  0.1175 -0.2915 -0.1625
   85POPC   GL1 1384   2.137   5.941   8.092  0.0911  0.1736 -0.1687
   85POPC   GL2 1385   2.328   6.210   8.043  0.1790 -0.0040 -0.0893
   85POPC   C1A 1386   1.899   6.171   7.798  0.1482 -0.1130  0.0250
   85POPC   D2A 1387   1.601   6.288   7.430  0.0483 -0.1352 -0.2187
   85POPC   C3A 1388   1.757   6.545   6.978  0.0377  0.3824 -0.1816
   85POPC   C4A 1389   1.537   6.565   6.649  0.2229  0.4356 -0.1999
   85POPC   C1B 1390   2.296   6.398   7.662 -0.2078 -0.2081  0.0535
   85POPC   C2B 1391   2.035   6.615   7.437 -0.0176  0.2346  0.2784
   85POPC   C3B 1392   2.068   6.904   7.003  0.1629 -0.2101  0.0031
   85POPC   C4B 1393   2.301   7.114   6.668  0.2862 -0.1930  0.1547
   86POPC   NC3 1394   5.682   9.916   8.678  0.0900 -0.2219  0.0666
   86POPC   PO4 1395   5.371   9.725   8.798  0.2293  0.5581  0.2961
   86POPC   GL1 1396   5.173   9.716   8.401 -0.1835 -0.1183 -0.1247
   86POPC   GL2 1397   4.855   9.589   8.388 -0.1834 -0.3155  0.3280
   86POPC   C1A 1398   5.008  10.030   8.079 -0.4055 -0.0084  0.0334
   86POPC   D2A 1399   5.280  10.327   7.800 -0.0120  0.1779 -0.1137
   86POPC   C3A 1400   5.465  10.278   7.358  0.1999  0.3090  0.1026
   86POPC   C4A 1401   5.824  10.104   7.245 -0.0882 -0.2877 -0.2593
   86POPC   C1B 1402   4.930   9.566   7.953 -0.0664  0.0064 -0.1353
   86POPC   C2B 1403   4.938   9.671   7.501 -0.2024  0.0389  0.0838
   86POPC   C3B 1404   5.116   9.895   7.152  0.0348  0.1941 -0.1184
   86POPC   C4B 1405   5.478   9.916   6.866  0.0938  0.2484  0.0829
   87POPC   NC3 1406   7.897   9.469   9.567  0.0415  0.2621  0.2642
   87POPC   PO4 1407   8.223   9.497   9.227  0.1567 -0.3003  0.0082
   87POPC   GL1 1408   8.233   9.525   8.791  0.1962  0.3480  0.3100
   87POPC   GL2 1409   8.529   9.353   8.552 -0.1456  0.0635 -0.0560
   87POPC   C1A 1410   8.000   9.594   8.378 -0.0382  0.4655  0.2342
   87POPC   D2A 1411   7.574   9.642   8.181  0.2035 -0.3158  0.0920
   87POPC   C3A 1412   7.441   9.328   8.129 -0.1001 -0.0402 -0.1591
   87POPC   C4A 1413   7.121   9.140   7.870  0.1254 -0.0991 -0.1360
   87POPC   C1B 1414   8.879   9.350   8.215 -0.1334 -0.0023  0.0391
   87POPC   C2B 1415   9.162   9.118   7.870  0.1627  0.1316  0.1643
   87POPC   C3B 1416   9.153   9.065   7.515  0.0134  0.0474  0.2744
   87POPC   C4B 1417   8.764   8.964   7.179 -0.1052  0.0880 -0.2125
   88POPC   NC3 1418   4.943   1.057   8.477  0.0388  0.3753 -0.0762
   88POPC   PO4 1419   5.449   0.886   8.411  0.0024 -0.1717 -0.0149
   88POPC   GL1 1420   5.563   0.888   8.039  0.3906  0.0973  0.2563
   88POPC   GL2 1421   5.702   0.587   7.843  0.0010  0.1282 -0.1919
   88POPC   C1A 1422   5.559   0.898   7.551 -0.1061  0.0256 -0.0849
   88POPC   D2A 1423   5.680   0.798   7.158  0.1888  0.3031 -0.0166
   88POPC   C3A 1424   5.630   0.848   6.716 -0.2868 -0.0422  0.1972
   88POPC   C4A 1425   5.575   1.054   6.302  0.0801 -0.0545  0.1238
   88POPC   C1B 1426   5.873   0.135   7.801  0.3219 -0.0669  0.0342
   88POPC   C2B 1427   6.157  -0.138   7.660 -0.2916 -0.2170 -0.1398
   88POPC   C3B 1428   6.160  -0.179   7.247 -0.2272  0.0962 -0.0995
   88POPC   C4B 1429   5.982  -0.308   6.882  0.0438  0.0043 -0.0460
   89POPC   NC3 1430   3.324   5.886   8.316  0.0108 -0.3038  0.2730
   89POPC   PO4 1431   2.982   5.508   8.278  0.0206 -0.1089  0.2421
   89POPC   GL1 1432   3.132   5.613   7.870 -0.2064 -0.4527 -0.3026
   89POPC   GL2 1433   3.300   5.551   7.545 -0.3205  0.0265 -0.3964
   89POPC   C1A 1434   3.204   6.005   7.734  0.0633  0.0424 -0.1484
   89POPC   D2A 1435   3.327   6.343   7.883 -0.1534 -0.0921  0.1499
   89POPC   C3A 1436   3.044   6.622   8.062  0.1800 -0.0812 -0.1783
   89POPC   C4A 1437   2.551   6.681   7.949 -0.0329 -0.2114  0.0032
   89POPC   C1B 1438   3.626   5.785   7.352  0.2917  0.2251  0.0269
   89POPC   C2B 1439   3.953   6.006   7.079 -0.0757  0.1050  0.0148
   89POPC   C3B 1440   4.258   6.284   6.740 -0.1836  0.1815  0.3547
   89POPC   C4B 1441   4.160   6.419   6.369 -0.0505  0.4816 -0.0574
   90POPC   NC3 1442   6.518   9.906   8.276 -0.2665 -0.1457  0.0174
   90POPC   PO4 1443   6.395  10.415   8.296 -0.1366  0.0057 -0.0934
   90POPC   GL1 1444   6.221  10.449   7.859  0.1062  0.1377 -0.2746
   90POPC   GL2 1445   6.359  10.226   7.780 -0.1196  0.1290 -0.1243
   90POPC   C1A 1446   5.991  10.490   7.464 -0.2708  0.1786 -0.1767
   90POPC   D2A 1447   6.153  10.621   7.053  0.2250  0.0976 -0.0524
   90POPC   C3A 1448   6.210  10.174   6.910 -0.1377  0.3340  0.1264
   90POPC   C4A 1449   6.417   9.928   6.603  0.1434 -0.1082 -0.0633
   90POPC   C1B 1450   6.418  10.214   7.339  0.0726 -0.0087  0.1000
   90POPC   C2B 1451   6.687  10.123   7.018  0.1388  0.0030 -0.2930
   90POPC   C3B 1452   6.899   9.949   6.703  0.0442  0.2119  0.2174
   90POPC   C4B 1453   7.232   9.826   6.422  0.1174  0.1158 -0.1760
   91POPC   NC3 1454   2.201   2.971   8.289 -0.4774  0.4253 -0.1399
   91POPC   PO4 1455   2.049   3.234   8.159  0.1318 -0.0048 -0.3517
   91POPC   GL1 1456   1.968   2.860   7.866  0.0553  0.2237  0.0433
   91POPC   GL2 1457   1.878   2.542   7.980  0.0940  0.1745  0.0629
   91POPC   C1A 1458   1.980   2.596   7.403  0.2004  0.1051 -0.1475
   91POPC   D2A 1459   1.819   2.440   7.001  0.0653  0.0869  0.0132
   91POPC   C3A 1460   1.480   2.345   6.717 -0.2121 -0.2994  0.3615
   91POPC   C4A 1461   1.450   2.143   6.265 -0.1086  0.0035  0.1625
   91POPC   C1B 1462   1.915   2.171   7.685  0.1200 -0.3041 -0.3956
   91POPC   C2B 1463   2.051   2.028   7.308 -0.1955 -0.3490  0.0221
   91POPC   C3B 1464   2.185   2.116   6.864 -0.0679  0.0981 -0.1286
   91POPC   C4B 1465   2.542   2.268   6.702  0.2319  0.1849 -0.0429
   92POPC   NC3 1466   4.334   5.120   8.200  0.2669  0.1332 -0.0701
   92POPC   PO4 1467   4.591   4.765   8.123  0.1198  0.0345  0.0561
   92POPC   GL1 1468   4.631   4.897   7.670  0.1165 -0.4076  0.0325
   92POPC   GL2 1469   4.804   5.205   7.669  0.0641 -0.1706  0.0412
   92POPC   C1A 1470   4.635   4.831   7.400 -0.1171  0.0565 -0.0114
   92POPC   D2A 1471   4.831   4.642   7.042  0.1115 -0.1870  0.0492
   92POPC   C3A 1472   4.640   4.327   6.757 -0.1267 -0.1820 -0.2180
   92POPC   C4A 1473   4.449   3.973   6.551 -0.0659 -0.1557  0.0918
   92POPC   C1B 1474   4.918   5.177   7.223 -0.7500 -0.1778  0.1884
   92POPC   C2B 1475   5.125   5.431   6.836 -0.1439 -0.1192 -0.0215
   92POPC   C3B 1476   5.519   5.351   6.584 -0.3030 -0.2754 -0.1126
   92POPC   C4B 1477   5.918   5.576   6.533  0.3904  0.1094 -0.0521
   93POPC   NC3 1478   9.707   0.973   8.977  0.0637  0.4768  0.1326
   93POPC   PO4 1479  10.024   0.937   8.692  0.0820  0.0153 -0.0329
   93POPC   GL1 1480   9.848   0.782   8.385 -0.1816 -0.4438 -0.1032
   93POPC   GL2 1481   9.540   0.496   8.362  0.0387 -0.2508  0.0057
   93POPC   C1A 1482   9.824   0.823   7.999  0.3033 -0.1171  0.1336
   93POPC   D2A 1483   9.919   1.090   7.728 -0.1977  0.1352  0.1874
   93POPC   C3A 1484  10.065   0.972   7.260  0.1818  0.2089 -0.0711
   93POPC   C4A 1485  10.263   0.845   6.857 -0.0259 -0.0039  0.0326
   93POPC   C1B 1486   9.370   0.471   7.938  0.1671 -0.0028  0.2955
   93POPC   C2B 1487   9.197   0.149   7.675  0.0258  0.2917 -0.0843
   93POPC   C3B 1488   9.047  -0.290   7.617 -0.1984 -0.0062 -0.0289
   93POPC   C4B 1489   8.688  -0.548   7.757 -0.2499  0.2323 -0.1816
   94POPC   NC3 1490   7.441   3.560   8.709 -0.0813 -0.0276 -0.3608
   94POPC   PO4 1491   7.567   3.369   8.329  0.0487 -0.2186 -0.2071
   94POPC   GL1 1492   7.677   3.209   7.837 -0.2613  0.2015 -0.2171
   94POPC   GL2 1493   7.663   2.892   7.776  0.0229 -0.2245 -0.3437
   94POPC   C1A 1494   7.695   3.355   7.512 -0.0035  0.1317 -0.1734
   94POPC   D2A 1495   7.645   3.128   7.246 -0.0439  0.0463  0.0178
   94POPC   C3A 1496   7.699   3.273   6.827 -0.3971 -0.0071  0.0956
   94POPC   C4A 1497   7.554   3.399   6.437 -0.0153 -0.0350  0.3276
   94POPC   C1B 1498   7.706   2.664   7.381 -0.2982 -0.1482 -0.1241
   94POPC   C2B 1499   7.904   2.341   7.054 -0.0930  0.2487  0.0835
   94POPC   C3B 1500   7.767   2.031   6.843  0.2131  0.0540 -0.2510
   94POPC   C4B 1501   7.389   1.856   6.525  0.2347 -0.0116 -0.1796
   95POPC   NC3 1502   0.529   6.802   9.011  0.2334  0.3280  0.0030
   95POPC   PO4 1503   0.777   7.011   8.643  0.3877 -0.2168 -0.1392
   95POPC   GL1 1504   0.832   7.113   8.284  0.0688 -0.0245 -0.1189
   95POPC   GL2 1505   1.191   7.267   8.400 -0.2264  0.1734  0.0433
   95POPC   C1A 1506   0.714   6.993   7.944  0.2510 -0.3149  0.2243
   95POPC   D2A 1507   0.587   6.883   7.472 -0.2362  0.1657 -0.0730
   95POPC   C3A 1508   0.775   6.831   7.145  0.0047 -0.0576 -0.1565
   95POPC   C4A 1509   1.122   6.911   6.759 -0.0954 -0.0771 -0.2110
   95POPC   C1B 1510   1.268   7.331   7.861  0.1688  0.0573  0.0212
   95POPC   C2B 1511   0.973   7.216   7.492  0.2374  0.0554 -0.1816
   95POPC   C3B 1512   0.991   7.302   7.034 -0.0702  0.0888 -0.1866
   95POPC   C4B 1513   1.281   7.425   6.659  0.2202  0.0170 -0.4633
   96POPC   NC3 1514   3.342   0.225   8.687 -0.1195  0.1034  0.0718
   96POPC   PO4 1515   3.680   0.445   8.610 -0.4730 -0.1539  0.2608
   96POPC   GL1 1516   3.855   0.618   8.229  0.0755 -0.0351  0.0776
   96POPC   GL2 1517   4.146   0.705   8.267 -0.0529 -0.1306  0.2694
   96POPC   C1A 1518   3.789   0.669   7.848 -0.0775  0.0446 -0.1302
   96POPC   D2A 1519   3.699   0.618   7.460  0.1541 -0.0570 -0.2270
   96POPC   C3A 1520   3.884   0.484   7.134 -0.1648 -0.2647  0.1184
   96POPC   C4A 1521   3.815   0.118   6.950 -0.0905 -0.0282 -0.2905
   96POPC   C1B 1522   4.325   0.784   7.903  0.1988  0.0704 -0.1333
   96POPC   C2B 1523   4.654   0.846   7.573  0.2571 -0.1914 -0.0999
   96POPC   C3B 1524   5.095   0.828   7.292  0.0222 -0.1545  0.0215
   96POPC   C4B 1525   5.184   0.522   6.889 -0.0788  0.2714  0.0039
   97POPC   NC3 1526   1.723   2.289   8.401 -0.2812 -0.1690  0.2327
   97POPC   PO4 1527   1.273   2.069   8.500  0.0619 -0.1017 -0.3650
   97POPC   GL1 1528   1.209   2.042   8.089  0.2102  0.0995 -0.2695
   97POPC   GL2 1529   1.457   2.180   7.940 -0.1385  0.0951  0.2914
   97POPC   C1A 1530   1.072   2.136   7.632  0.1205 -0.1139  0.2316
   97POPC   D2A 1531   1.176   2.188   7.180 -0.1146 -0.3638 -0.2130
   97POPC   C3A 1532   1.622   2.011   7.091 -0.3282  0.0113 -0.1834
   97POPC   C4A 1533   1.749   1.913   6.627  0.0619 -0.0555 -0.1218
   97POPC   C1B 1534   1.481   1.846   7.608  0.4105  0.0521 -0.1868
   97POPC   C2B 1535   1.278   1.642   7.251  0.0669 -0.1577  0.4253
   97POPC   C3B 1536   1.323   1.736   6.748 -0.2718 -0.1829  0.1123
   97POPC   C4B 1537   1.466   1.671   6.228  0.0724 -0.1968  0.1380
   98POPC   NC3 1538   5.191   9.271   8.851  0.0160 -0.1085 -0.1448
   98POPC   PO4 1539   5.404   9.091   8.563  0.0159  0.1485  0.2282
   98POPC   GL1 1540   5.394   9.026   8.231 -0.0894 -0.3972 -0.2801
   98POPC   GL2 1541   5.322   9.319   8.074 -0.1487  0.0208 -0.1438
   98POPC   C1A 1542   5.361   8.845   7.777 -0.0210 -0.0357  0.2617
   98POPC   D2A 1543   5.504   8.593   7.415  0.0009  0.1180  0.2082
   98POPC   C3A 1544   5.416   8.673   6.940  0.1259 -0.1552  0.0802
   98POPC   C4A 1545   5.538   8.405   6.648 -0.0887  0.0817  0.2742
   98POPC   C1B 1546   5.274   9.313   7.676  0.1884 -0.1603  0.0512
   98POPC   C2B 1547   5.275   9.009   7.311  0.4139  0.1137 -0.0692
   98POPC   C3B 1548   5.104   9.023   6.849 -0.1134  0.3457 -0.2322
   98POPC   C4B 1549   4.737   9.049   6.627  0.0301  0.2035 -0.1682
   99POPC   NC3 1550   1.380   1.644   8.854  0.2391  0.0092 -0.0477
   99POPC   PO4 1551   1.736   1.348   8.771 -0.2150  0.0645  0.1148
   99POPC   GL1 1552   1.939   1.115   8.452 -0.0698  0.0954  0.1527
   99POPC   GL2 1553   2.262   1.030   8.482 -0.1283 -0.0522  0.0137
   99POPC   C1A 1554   1.838   1.106   7.999 -0.0674 -0.3451 -0.1144
   99POPC   D2A 1555   1.609   0.879   7.719 -0.0628  0.2511 -0.0089
   99POPC   C3A 1556   1.923   0.577   7.507 -0.2930  0.2767  0.0655
   99POPC   C4A 1557   1.750   0.181   7.413  0.0518  0.1040 -0.1932
   99POPC   C1B 1558   2.140   0.744   8.126  0.3923  0.0555  0.0152
   99POPC   C2B 1559   2.272   0.405   7.894  0.1052 -0.0375 -0.0682
   99POPC   C3B 1560   2.362   0.264   7.465 -0.1149  0.1116  0.1744
   99POPC   C4B 1561   2.591  -0.033   7.274  0.3292  0.2636  0.0566
  100POPC   NC3 1562   5.834   5.880   8.127  0.1682 -0.2475  0.2003
  100POPC   PO4 1563   6.273   5.701   8.143 -0.3010 -0.2732  0.0459
  100POPC   GL1 1564   6.120   5.409   7.820 -0.3254 -0.1006 -0.0901
  100POPC   GL2 1565   6.430   5.261   7.724  0.2157 -0.0132  0.0260
  100POPC   C1A 1566   5.952   5.369   7.399 -0.1863  0.0880 -0.1063
  100POPC   D2A 1567   5.982   5.299   6.929  0.2483  0.0981 -0.2093
  100POPC   C3A 1568   6.318   5.168   6.586  0.1826  0.1216  0.1357
  100POPC   C4A 1569   6.396   4.863   6.240  0.5068 -0.0836 -0.1760
  100POPC   C1B 1570   6.622   5.253   7.439  0.0782  0.0903 -0.1155
  100POPC   C2B 1571   6.986   5.506   7.175  0.1501  0.1430 -0.1673
  100POPC   C3B 1572   7.156   5.847   7.334 -0.1196 -0.2391  0.2710
  100POPC   C4B 1573   7.030   6.155   7.560 -0.3438 -0.0508 -0.1213
  101POPC   NC3 1574   4.703   2.034   8.335  0.1991 -0.0702  0.1787
  101POPC   PO4 1575   4.493   2.410   8.274 -0.0383  0.0565 -0.6520
  101POPC   GL1 1576   4.320   2.180   7.978  0.3084  0.2558 -0.2974
  101POPC   GL2 1577   4.225   2.372   7.869 -0.0739  0.0024  0.2456
  101POPC   C1A 1578   4.239   1.956   7.580 -0.0704 -0.2532  0.1918
  101POPC   D2A 1579   4.196   2.027   7.143 -0.1927 -0.2700 -0.1423
  101POPC   C3A 1580   4.039   1.804   6.880 -0.0840 -0.0883 -0.2038
  101POPC   C4A 1581   3.970   1.495   6.512 -0.0916 -0.1250  0.1226
  101POPC   C1B 1582   3.926   2.446   7.411 -0.3258 -0.1784 -0.2038
  101POPC   C2B 1583   3.882   2.660   7.062 -0.1041 -0.1332  0.0035
  101POPC   C3B 1584   3.669   2.772   6.726  0.0452 -0.0367 -0.0979
  101POPC   C4B 1585   3.502   2.596   6.467 -0.0160  0.1993  0.1886
  102POPC   NC3 1586   1.798   7.581   9.296  0.1325 -0.0593 -0.0282
  102POPC   PO4 1587   1.714   7.239   9.013  0.1361 -0.0632 -0.0283
  102POPC   GL1 1588   1.850   7.143   8.642 -0.0977 -0.3855 -0.1850
  102POPC   GL2 1589   2.083   7.005   8.472  0.2131 -0.3620 -0.0371
  102POPC   C1A 1590   1.752   7.227   8.133  0.1766  0.1946 -0.2224
  102POPC   D2A 1591   1.771   7.263   7.681 -0.1787  0.0037  0.0374
  102POPC   C3A 1592   1.451   7.387   7.319 -0.0066  0.2798 -0.0465
  102POPC   C4A 1593   1.326   7.680   7.078  0.0825  0.0677 -0.4913
  102POPC   C1B 1594   2.015   6.744   8.130  0.0414 -0.1071  0.0172
  102POPC   C2B 1595   1.734   6.745   7.793 -0.2114  0.0276  0.1574
  102POPC   C3B 1596   1.670   6.884   7.344  0.0993 -0.0581 -0.0213
  102POPC   C4B 1597   1.577   7.041   6.949  0.0265 -0.0657 -0.0501
  103POPC   NC3 1598   3.120   2.101   9.036  0.0518 -0.1238 -0.0262
  103POPC   PO4 1599   3.106   2.301   8.662  0.1448 -0.1632 -0.0848
  103POPC   GL1 1600   3.066   2.204   8.280  0.0466  0.3321 -0.4125
  103POPC   GL2 1601   2.790   1.982   8.279 -0.1279  0.2424 -0.2750
  103POPC   C1A 1602   3.280   2.092   7.993  0.1152 -0.1445  0.3216
  103POPC   D2A 1603   3.344   2.046   7.558 -0.0943  0.1901  0.0639
  103POPC   C3A 1604   3.047   2.123   7.244 -0.0262  0.0038 -0.1131
  103POPC   C4A 1605   3.113   1.926   6.882 -0.0004  0.1548  0.1071
  103POPC   C1B 1606   2.765   1.856   7.867 -0.0456 -0.2859  0.0276
  103POPC   C2B 1607   2.754   1.776   7.510  0.2895  0.2082  0.0046
  103POPC   C3B 1608   2.838   1.478   7.190 -0.0788 -0.1451 -0.1784
  103POPC   C4B 1609   3.119   1.443   6.804  0.2507  0.0404  0.0803
  104POPC   NC3 1610   7.940   1.552   8.176 -0.2886  0.0043  0.0525
  104POPC   PO4 1611   7.673   1.935   8.073  0.0614  0.1700  0.2062
  104POPC   GL1 1612   7.798   1.891   7.704  0.0453 -0.2002  0.0041
  104POPC   GL2 1613   7.874   1.583   7.710  0.2713  0.0420 -0.0070
  104POPC   C1A 1614   7.777   2.003   7.348  0.0771  0.0459 -0.1594
  104POPC   D2A 1615   7.357   1.834   7.054 -0.1432  0.2843 -0.2386
  104POPC   C3A 1616   7.524   1.470   6.828 -0.0581 -0.0061 -0.0031
  104POPC   C4A 1617   7.531   1.376   6.364 -0.1453 -0.3452  0.0045
  104POPC   C1B 1618   8.234   1.874   7.475  0.1549  0.0273  0.2159
  104POPC   C2B 1619   8.332   1.919   7.109  0.0777  0.3090 -0.0543
  104POPC   C3B 1620   8.251   2.250   6.667  0.1670 -0.1966 -0.2718
  104POPC   C4B 1621   8.144   2.583   6.217 -0.0204 -0.0445  0.1402
  105POPC   NC3 1622   4.118   3.955   8.171 -0.0251 -0.1492 -0.0569
  105POPC   PO4 1623   4.493   4.210   8.109  0.0826  0.1251 -0.0389
  105POPC   GL1 1624   4.811   4.377   7.790 -0.1751 -0.0082 -0.2184
  105POPC   GL2 1625   5.227   4.315   7.760  0.0046 -0.2101  0.0041
  105POPC   C1A 1626   5.069   4.191   7.320 -0.0929  0.1798 -0.1983
  105POPC   D2A 1627   5.335   3.892   7.077  0.1758  0.1199  0.0900
  105POPC   C3A 1628   5.265   3.752   6.664 -0.1950 -0.0524 -0.1044
  105POPC   C4A 1629   5.427   3.493   6.389 -0.0726  0.3364 -0.2669
  105POPC   C1B 1630   5.536   4.124   7.506  0.0015  0.2285  0.0989
  105POPC   C2B 1631   5.684   4.246   7.102  0.2278 -0.1091 -0.0608
  105POPC   C3B 1632   5.636   4.115   6.659 -0.1640 -0.2544 -0.0534
  105POPC   C4B 1633   5.511   4.038   6.185 -0.0244  0.1618 -0.1890
  106POPC   NC3 1634   2.354   6.531   8.619 -0.1793  0.1754  0.0045
  106POPC   PO4 1635   2.671   6.203   8.513 -0.6254  0.0483 -0.0897
  106POPC   GL1 1636   2.864   6.084   8.131 -0.0983 -0.0470 -0.1482
  106POPC   GL2 1637   2.679   5.868   7.885 -0.0077 -0.3697 -0.2504
  106POPC   C1A 1638   2.769   6.301   7.729 -0.2386 -0.2761 -0.0441
  106POPC   D2A 1639   3.090   6.590   7.499  0.1085  0.1064 -0.1108
  106POPC   C3A 1640   3.439   6.300   7.375  0.0432 -0.0376 -0.1843
  106POPC   C4A 1641   3.793   6.198   7.594 -0.1707 -0.0132  0.0608
  106POPC   C1B 1642   2.803   5.871   7.463  0.1526  0.0099  0.1951
  106POPC   C2B 1643   2.851   6.235   7.239 -0.0080  0.0644 -0.0070
  106POPC   C3B 1644   2.876   6.530   6.898  0.1011 -0.0029 -0.3686
  106POPC   C4B 1645   2.798   6.938   6.642  0.2228 -0.1248  0.1931
  107POPC   NC3 1646   0.588   9.461   8.633 -0.0567 -0.1776 -0.1639
  107POPC   PO4 1647   0.147   9.488   8.693  0.1978 -0.0780 -0.1650
  107POPC   GL1 1648   0.280   9.653   8.298  0.1414 -0.0439 -0.0056
  107POPC   GL2 1649  -0.037   9.676   8.253  0.1670  0.3149  0.1419
  107POPC   C1A 1650   0.177   9.585   7.814  0.0853 -0.0624  0.0365
  107POPC   D2A 1651   0.040   9.475   7.447  0.0677 -0.0942 -0.1944
  107POPC   C3A 1652   0.139   9.511   7.003  0.1316 -0.0694 -0.0901
  107POPC   C4A 1653   0.403   9.123   6.829  0.0144 -0.5300  0.1641
  107POPC   C1B 1654  -0.301   9.796   7.831 -0.3619  0.1451  0.2512
  107POPC   C2B 1655  -0.424   9.705   7.309  0.2130  0.0693 -0.1475
  107POPC   C3B 1656  -0.710   9.873   7.161 -0.0370  0.1187  0.1345
  107POPC   C4B 1657  -1.023  10.104   7.214 -0.0555 -0.1438 -0.0423
  108POPC   NC3 1658   3.762   7.524   9.050 -0.1236  0.2435 -0.0784
  108POPC   PO4 1659   3.811   7.409   8.650 -0.1171 -0.1547  0.1039
  108POPC   GL1 1660   3.568   7.596   8.326  0.0934 -0.1018 -0.2557
  108POPC   GL2 1661   3.453   7.914   8.335 -0.0570 -0.3996 -0.2011
  108POPC   C1A 1662   3.319   7.437   8.057 -0.2182 -0.0285 -0.2607
  108POPC   D2A 1663   3.189   7.657   7.728 -0.0464 -0.2593 -0.0134
  108POPC   C3A 1664   3.199   7.549   7.295 -0.1721 -0.0785  0.1911
  108POPC   C4A 1665   3.402   7.594   6.876 -0.0491 -0.1092 -0.3819
  108POPC   C1B 1666   3.527   8.033   7.942  0.0707  0.0811 -0.0793
  108POPC   C2B 1667   3.478   8.031   7.521 -0.2346 -0.1760  0.0593
  108POPC   C3B 1668   3.386   8.028   7.161  0.1150  0.0700 -0.1810
  108POPC   C4B 1669   3.189   8.295   6.903 -0.0193 -0.5543 -0.1093
  109POPC   NC3 1670   1.378   7.631   8.611  0.0529  0.0311  0.2241
  109POPC   PO4 1671   1.892   7.668   8.836 -0.0385 -0.0904  0.3762
  109POPC   GL1 1672   1.898   7.605   8.347 -0.2553 -0.0427  0.0390
  109POPC   GL2 1673   1.727   7.817   8.124 -0.0641  0.0134 -0.2533
  109POPC   C1A 1674   2.067   7.618   7.848  0.1651  0.1575  0.0182
  109POPC   D2A 1675   2.205   7.828   7.421 -0.0300  0.1451 -0.1334
  109POPC   C3A 1676   2.414   7.678   7.032 -0.1215 -0.0888 -0.1587
  109POPC   C4A 1677   2.647   7.548   6.647  0.1234 -0.3134  0.0865
  109POPC   C1B 1678   1.652   7.778   7.669  0.0547 -0.1346  0.0416
  109POPC   C2B 1679   1.722   7.792   7.305 -0.4426  0.0417 -0.0312
  109POPC   C3B 1680   1.758   8.005   6.959  0.1814  0.1058 -0.1307
  109POPC   C4B 1681   1.816   8.134   6.529 -0.1563  0.0851 -0.1478
  110POPC   NC3 1682   2.613   2.399   8.496 -0.1223 -0.3738  0.2335
  110POPC   PO4 1683   2.169   2.427   8.376  0.0231  0.1182  0.3440
  110POPC   GL1 1684   2.360   2.212   8.029 -0.2269  0.0289 -0.2703
  110POPC   GL2 1685   2.680   2.393   8.003 -0.0848  0.0438  0.0640
  110POPC   C1A 1686   2.300   1.875   7.709 -0.0180  0.0747 -0.2900
  110POPC   D2A 1687   2.323   1.556   7.490  0.2650  0.0238  0.1649
  110POPC   C3A 1688   2.289   1.660   7.101 -0.1481 -0.1912 -0.1961
  110POPC   C4A 1689   2.169   1.563   6.703  0.2175  0.1176 -0.1422
  110POPC   C1B 1690   2.660   2.257   7.575  0.1493  0.0502 -0.2272
  110POPC   C2B 1691   2.593   2.067   7.121 -0.3510  0.0144 -0.1585
  110POPC   C3B 1692   2.636   1.774   6.797 -0.0862 -0.6979  0.3950
  110POPC   C4B 1693   2.633   1.279   6.769 -0.1664 -0.1063  0.0668
  111POPC   NC3 1694   7.026   6.923   8.347 -0.4270 -0.2795 -0.1555
  111POPC   PO4 1695   6.525   6.984   8.291 -0.3074  0.3360  0.0280
  111POPC   GL1 1696   6.469   7.150   7.791 -0.0587  0.2552  0.3474
  111POPC   GL2 1697   6.151   7.096   7.709 -0.1584  0.2524  0.1193
  111POPC   C1A 1698   6.538   7.012   7.326 -0.1078  0.2607  0.1755
  111POPC   D2A 1699   6.673   6.963   6.859  0.2399  0.1033 -0.2290
  111POPC   C3A 1700   6.362   7.227   6.742  0.1581 -0.2069 -0.4245
  111POPC   C4A 1701   6.089   7.519   6.772 -0.0362 -0.0184  0.0748
  111POPC   C1B 1702   6.079   6.799   7.404 -0.0516  0.0823 -0.0004
  111POPC   C2B 1703   6.192   6.729   7.028  0.3001  0.0173 -0.0166
  111POPC   C3B 1704   6.240   6.715   6.679 -0.2236  0.2987 -0.2273
  111POPC   C4B 1705   6.076   6.608   6.339  0.1124 -0.0506  0.2315
  112POPC   NC3 1706   2.686   0.275   8.864  0.0969  0.1202  0.1072
  112POPC   PO4 1707   2.317   0.144   8.806  0.0208  0.2407  0.2851
  112POPC   GL1 1708   2.504  -0.282   8.582 -0.2001  0.0058 -0.0159
  112POPC   GL2 1709   2.171  -0.509   8.390 -0.2326  0.2573  0.2720
  112POPC   C1A 1710   2.850  -0.302   8.180 -0.0212  0.2017 -0.0556
  112POPC   D2A 1711   3.033  -0.561   7.896 -0.3433  0.1241  0.0206
  112POPC   C3A 1712   2.845  -0.548   7.526  0.2447 -0.3224 -0.2691
  112POPC   C4A 1713   2.750  -0.806   7.139  0.1562 -0.0507  0.3085
  112POPC   C1B 1714   2.412  -0.454   7.966 -0.2089  0.2170 -0.2705
  112POPC   C2B 1715   2.558  -0.105   7.817 -0.3575 -0.3817 -0.0732
  112POPC   C3B 1716   2.747   0.211   7.737  0.1668 -0.0954 -0.2359
  112POPC   C4B 1717   2.699   0.695   7.738  0.1478  0.2156  0.0835
  113POPC   NC3 1718   3.996   6.450   9.160  0.7252  0.1573  0.0732
  113POPC   PO4 1719   4.215   6.397   8.685 -0.0553  0.0501 -0.2595
  113POPC   GL1 1720   4.085   6.411   8.303  0.1632  0.1264  0.1049
  113POPC   GL2 1721   4.162   6.146   7.973  0.2988 -0.3308  0.0944
  113POPC   C1A 1722   3.852   6.541   7.988  0.1904 -0.0083 -0.0284
  113POPC   D2A 1723   3.655   6.709   7.701 -0.2179  0.2385 -0.0323
  113POPC   C3A 1724   3.917   6.942   7.373  0.1794  0.0881 -0.1646
  113POPC   C4A 1725   4.154   7.296   7.240  0.1609 -0.1425 -0.2172
  113POPC   C1B 1726   4.515   6.438   7.882 -0.0778 -0.0654 -0.0596
  113POPC   C2B 1727   4.856   6.386   7.597  0.0133  0.2309 -0.1834
  113POPC   C3B 1728   5.170   6.382   7.264 -0.3515  0.1109  0.0403
  113POPC   C4B 1729   5.163   6.500   6.817 -0.0164 -0.0209  0.0684
  114POPC   NC3 1730   9.012   4.151   9.115 -0.0461  0.4253 -0.0027
  114POPC   PO4 1731   9.284   4.079   8.728 -0.0650 -0.0662 -0.3504
  114POPC   GL1 1732   9.358   4.150   8.266 -0.2503  0.1758  0.0812
  114POPC   GL2 1733   9.186   4.436   8.313  0.0405 -0.0225 -0.4450
  114POPC   C1A 1734   9.080   3.908   7.948 -0.0117  0.1888  0.1568
  114POPC   D2A 1735   8.742   3.692   7.837  0.3800  0.3321  0.2725
  114POPC   C3A 1736   8.780   3.723   7.388  0.1079 -0.1503  0.3367
  114POPC   C4A 1737   8.416   3.748   7.189  0.0673  0.1983 -0.0880
  114POPC   C1B 1738   9.026   4.454   7.933 -0.0808 -0.1114 -0.0495
  114POPC   C2B 1739   8.957   4.484   7.555  0.0470 -0.0207  0.0173
  114POPC   C3B 1740   8.983   4.531   7.135 -0.0081 -0.2036  0.0060
  114POPC   C4B 1741   9.078   4.635   6.698  0.0367  0.3171  0.0748
  115POPC   NC3 1742   7.826   2.275   8.412 -0.3187 -0.0744  0.0403
  115POPC   PO4 1743   8.072   2.597   8.532 -0.2300 -0.1851  0.1104
  115POPC   GL1 1744   8.196   2.556   8.163  0.1298 -0.1493 -0.1818
  115POPC   GL2 1745   8.131   2.848   8.002 -0.1177  0.2338  0.4016
  115POPC   C1A 1746   8.390   2.247   7.823  0.2547 -0.0635 -0.0902
  115POPC   D2A 1747   8.711   2.254   7.501  0.2302  0.3086 -0.0497
  115POPC   C3A 1748   8.802   2.028   7.098 -0.3432 -0.1185  0.0791
  115POPC   C4A 1749   8.658   1.956   6.707  0.2157  0.1254  0.0204
  115POPC   C1B 1750   8.093   2.949   7.597 -0.1152 -0.0584  0.0325
  115POPC   C2B 1751   8.151   2.909   7.154  0.0559  0.0012  0.2810
  115POPC   C3B 1752   7.856   2.763   6.850  0.1753  0.1109  0.4826
  115POPC   C4B 1753   7.778   2.428   6.562  0.0626 -0.3942  0.1746
  116POPC   NC3 1754   4.252   5.919   8.593  0.0303 -0.0111  0.1260
  116POPC   PO4 1755   4.057   5.490   8.344  0.1818 -0.0069 -0.0645
  116POPC   GL1 1756   4.154   5.587   7.873 -0.0957 -0.0982  0.0657
  116POPC   GL2 1757   4.291   5.359   7.644  0.1578  0.1006 -0.2105
  116POPC   C1A 1758   4.152   5.903   7.550  0.3457  0.0139 -0.0292
  116POPC   D2A 1759   4.286   6.332   7.382  0.1395  0.3039  0.1907
  116POPC   C3A 1760   3.912   6.514   7.185 -0.3774 -0.0529  0.1302
  116POPC   C4A 1761   3.476   6.697   7.039  0.1520  0.1941 -0.2270
  116POPC   C1B 1762   4.540   5.403   7.320  0.0854  0.1698  0.2122
  116POPC   C2B 1763   4.630   5.206   6.837  0.1471 -0.0340 -0.1136
  116POPC   C3B 1764   4.673   4.838   6.642  0.0315 -0.0254 -0.4102
  116POPC   C4B 1765   4.682   4.487   6.289 -0.1706 -0.2682 -0.3008
  117POPC   NC3 1766   8.193   4.672   8.936 -0.0363  0.3368 -0.2571
  117POPC   PO4 1767   8.497   4.589   8.600 -0.0944  0.0906  0.1052
  117POPC   GL1 1768   8.703   4.613   8.231 -0.1035 -0.1851  0.0443
  117POPC   GL2 1769   8.678   4.820   7.966 -0.0364 -0.1975 -0.1405
  117POPC   C1A 1770   8.572   4.309   7.849  0.0079 -0.3334 -0.4059
  117POPC   D2A 1771   8.423   4.176   7.441 -0.1868 -0.0248  0.0645
  117POPC   C3A 1772   8.734   4.089   7.065 -0.2457 -0.0710  0.0483
  117POPC   C4A 1773   9.023   3.716   6.858  0.2276  0.0012 -0.0062
  117POPC   C1B 1774   8.510   4.705   7.527 -0.2260  0.0529 -0.1614
  117POPC   C2B 1775   8.485   4.677   7.134 -0.0135  0.0550  0.0438
  117POPC   C3B 1776   8.587   4.638   6.766 -0.0211 -0.2736 -0.1075
  117POPC   C4B 1777   8.631   4.191   6.596  0.0713  0.3190  0.1855
  118POPC   NC3 1778   8.646   7.266   9.380 -0.1674  0.1300 -0.3216
  118POPC   PO4 1779   8.623   7.221   8.972 -0.5152 -0.0895  0.2810
  118POPC   GL1 1780   8.534   7.184   8.548 -0.1251 -0.0881  0.0767
  118POPC   GL2 1781   8.881   7.089   8.316  0.0358 -0.0268  0.2041
  118POPC   C1A 1782   8.409   6.899   8.228  0.1942  0.1321  0.3571
  118POPC   D2A 1783   8.387   6.512   7.993  0.0634 -0.1173  0.1251
  118POPC   C3A 1784   8.665   6.608   7.578  0.0859 -0.0433 -0.1640
  118POPC   C4A 1785   8.676   6.872   7.141  0.3472 -0.1269  0.1643
  118POPC   C1B 1786   8.731   7.060   7.847 -0.1818  0.0779 -0.0564
  118POPC   C2B 1787   8.641   7.268   7.436 -0.2869  0.1453 -0.0880
  118POPC   C3B 1788   8.398   7.434   7.118  0.2112  0.2021 -0.0544
  118POPC   C4B 1789   8.498   7.655   6.801  0.3127  0.3021 -0.0386
  119POPC   NC3 1790   6.615   8.331   8.459 -0.3963 -0.1686 -0.5946
  119POPC   PO4 1791   6.958   8.170   8.631 -0.1101  0.0557 -0.0448
  119POPC   GL1 1792   6.997   8.136   8.132 -0.0867  0.0082  0.0579
  119POPC   GL2 1793   6.705   8.134   7.996 -0.1149  0.0789 -0.0831
  119POPC   C1A 1794   7.210   8.268   7.866 -0.1661 -0.2855 -0.1551
  119POPC   D2A 1795   7.322   8.496   7.493  0.1060 -0.2229  0.1456
  119POPC   C3A 1796   7.244   8.257   7.210 -0.0581  0.1842 -0.1517
  119POPC   C4A 1797   6.981   8.111   7.004 -0.1516 -0.2021 -0.2746
  119POPC   C1B 1798   6.918   8.642   7.883  0.0145 -0.0013  0.0324
  119POPC   C2B 1799   6.973   8.838   7.473  0.1404  0.0946  0.2476
  119POPC   C3B 1800   7.199   8.960   7.030  0.1536 -0.0065 -0.0749
  119POPC   C4B 1801   7.475   8.900   6.632 -0.1710 -0.0634  0.6555
  120POPC   NC3 1802   1.778   1.234   9.364  0.0895  0.0431  0.0348
  120POPC   PO4 1803   1.409   1.146   9.118  0.3504  0.1891  0.1131
  120POPC   GL1 1804   1.563   0.902   8.667  0.1069 -0.0320  0.2257
  120POPC   GL2 1805   1.250   1.088   8.517 -0.0656 -0.0441 -0.0526
  120POPC   C1A 1806   1.606   0.735   8.287  0.0574 -0.2643  0.1963
  120POPC   D2A 1807   1.740   0.384   7.967 -0.0275  0.0947 -0.1464
  120POPC   C3A 1808   1.570  -0.000   7.982  0.4204  0.0074  0.5880
  120POPC   C4A 1809   1.199  -0.209   7.847 -0.2101 -0.1002 -0.3562
  120POPC   C1B 1810   1.050   0.942   8.162  0.0351 -0.1348  0.1813
  120POPC   C2B 1811   1.084   0.983   7.820 -0.1434  0.0437  0.0750
  120POPC   C3B 1812   0.964   1.249   7.448  0.0876  0.1749  0.2028
  120POPC   C4B 1813   0.624   1.157   7.129 -0.4161  0.2050 -0.3882
  121POPC   NC3 1814   9.282   9.636   9.501 -0.2679  0.1863 -0.0702
  121POPC   PO4 1815   9.144   9.828   9.091  0.1813  0.2237  0.2616
  121POPC   GL1 1816   9.000   9.928   8.572  0.0737  0.0548 -0.1340
  121POPC   GL2 1817   8.680   9.865   8.500 -0.1377  0.0903  0.1735
  121POPC   C1A 1818   8.882   9.826   8.066  0.0118  0.1380  0.2808
  121POPC   D2A 1819   8.633   9.898   7.649 -0.2932 -0.0075  0.0018
  121POPC   C3A 1820   8.567   9.580   7.355  0.1229 -0.0567  0.2581
  121POPC   C4A 1821   8.505   9.326   7.026 -0.3159  0.0645 -0.1002
  121POPC   C1B 1822   8.408   9.795   8.080  0.1271  0.4379  0.0432
  121POPC   C2B 1823   8.147   9.680   7.634  0.0887  0.0332 -0.3406
  121POPC   C3B 1824   7.967   9.595   7.325 -0.0187 -0.3207  0.3237
  121POPC   C4B 1825   7.824   9.718   6.817  0.3013 -0.0316 -0.2655
  122POPC   NC3 1826   4.183   8.519   9.551 -0.0755  0.2049  0.2650
  122POPC   PO4 1827   4.115   8.547   9.065  0.0554  0.0601 -0.2587
  122POPC   GL1 1828   4.115   8.369   8.591  0.0529 -0.1305 -0.1319
  122POPC   GL2 1829   3.742   8.321   8.408 -0.2461  0.3866 -0.3148
  122POPC   C1A 1830   4.205   8.216   8.159  0.0743  0.0647 -0.1836
  122POPC   D2A 1831   4.101   8.113   7.719 -0.0759  0.1451  0.0766
  122POPC   C3A 1832   4.184   7.677   7.597 -0.3791  0.0405 -0.0109
  122POPC   C4A 1833   4.131   7.282   7.733  0.3356  0.1215 -0.2546
  122POPC   C1B 1834   3.806   8.485   7.996  0.4068  0.0040  0.0050
  122POPC   C2B 1835   3.906   8.593   7.609  0.0047  0.1798  0.3001
  122POPC   C3B 1836   3.936   8.681   7.191  0.3652 -0.1093 -0.0769
  122POPC   C4B 1837   3.855   9.053   6.818  0.0526  0.0924  0.0225
  123POPC   NC3 1838   9.004   7.424   8.695 -0.1708  0.0593  0.1482
  123POPC   PO4 1839   9.502   7.371   8.490  0.0469 -0.0591  0.1140
  123POPC   GL1 1840   9.905   7.465   8.194 -0.0008 -0.2870  0.2850
  123POPC   GL2 1841   9.764   7.820   8.089 -0.0931 -0.0478 -0.0943
  123POPC   C1A 1842  10.024   7.644   7.641  0.2271 -0.2201 -0.0889
  123POPC   D2A 1843   9.965   7.652   7.168 -0.0774  0.1573  0.3482
  123POPC   C3A 1844   9.660   7.667   6.857  0.1164  0.1309  0.0339
  123POPC   C4A 1845   9.769   7.967   6.527  0.0683  0.2869  0.1007
  123POPC   C1B 1846   9.686   8.021   7.703 -0.0755  0.2921 -0.0092
  123POPC   C2B 1847   9.577   7.934   7.393 -0.0923  0.1851 -0.2191
  123POPC   C3B 1848   9.386   8.098   7.126  0.0499 -0.0097 -0.2006
  123POPC   C4B 1849   9.246   8.192   6.718  0.1567  0.1825  0.0581
  124POPC   NC3 1850   9.724   3.278   8.414  0.0448  0.0458  0.2551
  124POPC   PO4 1851  10.051   3.379   8.688 -0.2000 -0.0786 -0.2379
  124POPC   GL1 1852  10.340   3.554   8.456  0.0051 -0.3038  0.1566
  124POPC   GL2 1853  10.097   3.607   8.254 -0.1524  0.0782 -0.0159
  124POPC   C1A 1854  10.550   3.459   8.009  0.1189 -0.2179  0.2269
  124POPC   D2A 1855  10.630   3.406   7.692 -0.2373 -0.1245 -0.1768
  124POPC   C3A 1856  10.571   3.033   7.571 -0.1187 -0.1510 -0.0466
  124POPC   C4A 1857  10.504   2.667   7.337 -0.1683 -0.3014  0.0433
  124POPC   C1B 1858  10.130   3.708   7.839 -0.2630 -0.0830  0.0026
  124POPC   C2B 1859   9.952   3.904   7.500  0.3529  0.3715 -0.2763
  124POPC   C3B 1860   9.955   4.070   7.073 -0.0371 -0.1197 -0.0835
  124POPC   C4B 1861   9.747   4.302   6.739  0.1802 -0.0332 -0.2952
  125POPC   NC3 1862   1.323   8.077   8.469 -0.0353 -0.1398  0.0470
  125POPC   PO4 1863   0.860   8.072   8.546  0.4776 -0.0360  0.0885
  125POPC   GL1 1864   0.933   8.053   8.114  0.0653 -0.1010 -0.0009
  125POPC   GL2 1865   1.137   7.796   8.081  0.0892 -0.0653 -0.0860
  125POPC   C1A 1866   0.815   8.203   7.782 -0.1590 -0.0222  0.1489
  125POPC   D2A 1867   0.742   8.375   7.399  0.0277 -0.0389  0.2437
  125POPC   C3A 1868   0.597   8.222   6.914 -0.1094 -0.0500  0.0036
  125POPC   C4A 1869   0.927   8.277   6.612  0.1689 -0.0209 -0.1945
  125POPC   C1B 1870   0.962   7.693   7.690  0.1221 -0.2671  0.1864
  125POPC   C2B 1871   0.774   7.733   7.263  0.2510 -0.2416  0.1793
  125POPC   C3B 1872   0.834   7.697   6.774  0.2370 -0.1311 -0.1420
  125POPC   C4B 1873   0.837   7.596   6.354 -0.1380 -0.2565  0.0112
  126POPC   NC3 1874   4.650   7.654   8.858 -0.2277  0.2644 -0.0831
  126POPC   PO4 1875   4.654   8.086   8.803 -0.0989  0.0676  0.1640
  126POPC   GL1 1876   4.410   7.882   8.487 -0.0998  0.1014 -0.0410
  126POPC   GL2 1877   4.019   7.869   8.502  0.0540  0.2548 -0.1002
  126POPC   C1A 1878   4.575   7.853   8.011  0.2319 -0.2522  0.2100
  126POPC   D2A 1879   4.767   7.906   7.530  0.3354  0.0099 -0.0510
  126POPC   C3A 1880   4.402   7.982   7.285 -0.1349  0.0942  0.2108
  126POPC   C4A 1881   3.897   8.144   7.208  0.0264 -0.1856 -0.5093
  126POPC   C1B 1882   4.026   7.639   8.094 -0.1689  0.2636 -0.2750
  126POPC   C2B 1883   3.710   7.522   7.814 -0.1113 -0.3226 -0.0856
  126POPC   C3B 1884   3.722   7.614   7.332  0.1703 -0.1773 -0.0846
  126POPC   C4B 1885   4.067   7.722   7.030 -0.0750  0.0637  0.0404
  127POPC   NC3 1886   7.777   7.752   8.977  0.1704  0.1831  0.4573
  127POPC   PO4 1887   7.720   7.490   8.698 -0.0086  0.1326 -0.1899
  127POPC   GL1 1888   7.548   7.638   8.269  0.0179  0.1945 -0.0723
  127POPC   GL2 1889   7.772   7.765   8.074 -0.0031 -0.1483  0.0531
  127POPC   C1A 1890   7.244   7.785   7.967 -0.1764  0.0112  0.1321
  127POPC   D2A 1891   7.106   7.735   7.552  0.2380  0.1465  0.0646
  127POPC   C3A 1892   6.820   8.082   7.472 -0.1115  0.3065 -0.1143
  127POPC   C4A 1893   6.389   8.014   7.576  0.1639  0.0607  0.0244
  127POPC   C1B 1894   7.607   7.484   7.783 -0.0614  0.0733 -0.1073
  127POPC   C2B 1895   7.353   7.312   7.355  0.0027  0.2760  0.1253
  127POPC   C3B 1896   7.310   7.283   6.816 -0.1328  0.0036 -0.1563
  127POPC   C4B 1897   7.364   7.364   6.408  0.1482 -0.5578 -0.0625
  128POPC   NC3 1898   2.301   7.394   8.646  0.2975  0.1466 -0.0260
  128POPC   PO4 1899   2.595   7.033   8.617 -0.2229 -0.2138  0.0726
  128POPC   GL1 1900   2.493   7.130   8.230 -0.2066  0.1316 -0.1708
  128POPC   GL2 1901   2.345   7.451   8.175  0.0521  0.1283 -0.1372
  128POPC   C1A 1902   2.252   7.120   7.790  0.0046  0.0324 -0.2096
  128POPC   D2A 1903   2.394   7.278   7.449 -0.0816 -0.0658  0.3518
  128POPC   C3A 1904   2.051   7.391   7.279 -0.0378 -0.3062 -0.3003
  128POPC   C4A 1905   1.777   7.504   6.860 -0.2550 -0.4179  0.0394
  128POPC   C1B 1906   2.567   7.634   7.793  0.0930  0.0133  0.0396
  128POPC   C2B 1907   2.748   7.801   7.448 -0.0465  0.1835 -0.0968
  128POPC   C3B 1908   2.895   7.849   7.049  0.0037  0.0860 -0.2835
  128POPC   C4B 1909   2.996   7.963   6.605 -0.0739 -0.1478  0.1714
  129POPC   NC3 1910   7.120   2.792   8.959  0.1066 -0.0354  0.2380
  129POPC   PO4 1911   7.212   2.580   8.328  0.0715 -0.1139  0.4061
  129POPC   GL1 1912   7.243   2.613   7.898 -0.1888  0.1607 -0.2148
  129POPC   GL2 1913   7.466   2.450   7.780  0.1678  0.2486 -0.0406
  129POPC   C1A 1914   7.272   2.875   7.479  0.0788 -0.2679  0.1776
  129POPC   D2A 1915   7.198   2.824   7.057 -0.0993  0.3893  0.3490
  129POPC   C3A 1916   6.822   2.906   7.006  0.1739 -0.2870  0.0753
  129POPC   C4A 1917   6.554   2.977   6.727  0.3195  0.1336  0.3204
  129POPC   C1B 1918   7.874   2.490   7.804 -0.3063 -0.0659 -0.0943
  129POPC   C2B 1919   8.132   2.459   7.475  0.1004  0.2726  0.0246
  129POPC   C3B 1920   8.444   2.489   7.126 -0.3653 -0.2474  0.0744
  129POPC   C4B 1921   8.451   2.758   6.733  0.0298  0.1875  0.1470
  130POPC   NC3 1922   8.921   2.310   8.803 -0.0244 -0.0737 -0.0903
  130POPC   PO4 1923   8.673   2.352   8.371  0.1125 -0.2022 -0.4131
  130POPC   GL1 1924   8.651   2.620   8.053 -0.0583  0.2435  0.0396
  130POPC   GL2 1925   8.925   2.694   8.033  0.0385 -0.0017 -0.2307
  130POPC   C1A 1926   8.537   2.723   7.681  0.2972 -0.0198 -0.1388
  130POPC   D2A 1927   8.693   2.924   7.312  0.3173 -0.0681  0.2015
  130POPC   C3A 1928   8.681   3.342   6.952  0.0675  0.0830 -0.2509
  130POPC   C4A 1929   8.421   3.640   6.691 -0.3303 -0.3398 -0.1107
  130POPC   C1B 1930   9.052   2.599   7.523 -0.1127 -0.1302  0.4022
  130POPC   C2B 1931   9.273   2.256   7.226 -0.1134 -0.0338  0.0076
  130POPC   C3B 1932   9.168   2.066   6.746  0.2639  0.1201  0.1916
  130POPC   C4B 1933   8.925   2.082   6.290  0.1379  0.2266  0.1354
  131POPC   NC3 1934   0.388   7.373   8.514  0.1200 -0.0636  0.1073
  131POPC   PO4 1935   0.826   7.581   8.493  0.3008  0.2059  0.1158
  131POPC   GL1 1936   0.605   7.664   8.135  0.1736 -0.0844 -0.1488
  131POPC   GL2 1937   0.462   7.407   8.033  0.0798  0.3046 -0.0264
  131POPC   C1A 1938   0.449   7.893   7.877  0.0741 -0.1903 -0.1726
  131POPC   D2A 1939   0.310   8.052   7.650  0.1754  0.1177  0.3551
  131POPC   C3A 1940   0.281   8.037   7.270 -0.0360 -0.1924 -0.2102
  131POPC   C4A 1941  -0.059   8.206   6.967  0.0531  0.2556  0.1181
  131POPC   C1B 1942   0.525   7.421   7.573  0.0906 -0.0754  0.2345
  131POPC   C2B 1943   0.515   7.322   7.176 -0.0937  0.0378 -0.2172
  131POPC   C3B 1944   0.428   7.353   6.746 -0.1959  0.2563  0.0625
  131POPC   C4B 1945   0.702   7.187   6.564 -0.0488  0.0945 -0.0893
  132POPC   NC3 1946   7.080   5.767   8.309  0.1325  0.2309  0.2884
  132POPC   PO4 1947   7.163   5.313   8.215  0.1970 -0.2016 -0.0222
  132POPC   GL1 1948   7.141   5.215   7.773 -0.2588 -0.0403  0.0999
  132POPC   GL2 1949   7.197   4.902   7.904  0.1570 -0.0752  0.4278
  132POPC   C1A 1950   7.380   5.379   7.490 -0.2198 -0.1874 -0.0064
  132POPC   D2A 1951   7.460   5.442   7.023  0.1217 -0.0445  0.0562
  132POPC   C3A 1952   7.111   5.419   6.735 -0.3547 -0.0830 -0.1384
  132POPC   C4A 1953   6.949   5.137   6.333  0.2961  0.4249 -0.2935
  132POPC   C1B 1954   7.362   4.490   7.786  0.1938 -0.0989  0.2632
  132POPC   C2B 1955   7.570   4.344   7.416  0.0090  0.1949  0.0092
  132POPC   C3B 1956   7.827   4.168   7.219  0.0163 -0.3553 -0.3151
  132POPC   C4B 1957   8.170   4.068   6.919 -0.1139  0.3231  0.0154
  133POPC   NC3 1958   8.926   0.277   8.994 -0.3324  0.1765  0.0871
  133POPC   PO4 1959   8.555   0.424   8.632 -0.3325  0.1343 -0.0017
  133POPC   GL1 1960   8.555   0.538   8.295  0.5714 -0.2297  0.3052
  133POPC   GL2 1961   8.665   0.302   8.136  0.0247 -0.1865  0.2242
  133POPC   C1A 1962   8.260   0.644   7.921  0.0181 -0.0239  0.0002
  133POPC   D2A 1963   8.303   0.942   7.635 -0.0237  0.1562 -0.0189
  133POPC   C3A 1964   7.903   1.116   7.531  0.2398 -0.3052  0.0834
  133POPC   C4A 1965   7.535   0.997   7.553  0.1175  0.1227  0.2519
  133POPC   C1B 1966   8.702   0.439   7.744  0.0704 -0.1599 -0.2248
  133POPC   C2B 1967   8.642   0.562   7.419 -0.0421 -0.1565 -0.2138
  133POPC   C3B 1968   8.678   1.037   7.308 -0.1726  0.0099  0.0876
  133POPC   C4B 1969   8.422   1.372   7.466 -0.2426  0.3809  0.0185
  134POPC   NC3 1970   7.628   5.219   8.117 -0.0505 -0.0475 -0.0504
  134POPC   PO4 1971   7.999   5.275   8.050 -0.3030  0.1567  0.1642
  134POPC   GL1 1972   7.897   5.552   7.622  0.0307 -0.0156  0.2752
  134POPC   GL2 1973   7.657   5.763   7.430  0.0569  0.1441 -0.2695
  134POPC   C1A 1974   8.228   5.618   7.221  0.0247 -0.2603  0.1871
  134POPC   D2A 1975   8.138   5.533   6.787 -0.1621 -0.0313 -0.1659
  134POPC   C3A 1976   7.725   5.316   6.593 -0.0926 -0.0704  0.0226
  134POPC   C4A 1977   7.454   5.218   6.311 -0.0711 -0.1719 -0.2498
  134POPC   C1B 1978   7.710   5.983   7.162  0.1984  0.1923  0.0755
  134POPC   C2B 1979   7.647   5.881   6.727  0.2091 -0.0436 -0.0040
  134POPC   C3B 1980   7.491   5.772   6.404  0.2680  0.1131  0.0041
  134POPC   C4B 1981   7.572   5.614   5.995 -0.0812 -0.1338 -0.2416
  135POPC   NC3 1982   9.190   5.984   9.345  0.0215  0.2515 -0.1123
  135POPC   PO4 1983   9.389   5.664   9.079 -0.2192 -0.0274 -0.3618
  135POPC   GL1 1984   9.456   5.547   8.638  0.1805 -0.1087 -0.3509
  135POPC   GL2 1985   9.199   5.414   8.495  0.0712 -0.0989  0.0166
  135POPC   C1A 1986   9.428   5.803   8.209 -0.1663  0.0067  0.1884
  135POPC   D2A 1987   9.411   5.756   7.763  0.0143  0.0137 -0.2943
  135POPC   C3A 1988   9.717   5.612   7.455 -0.3223 -0.1724 -0.0310
  135POPC   C4A 1989   9.746   5.502   7.085 -0.1301  0.0218 -0.0713
  135POPC   C1B 1990   9.310   5.326   8.087 -0.2260 -0.2628  0.0804
  135POPC   C2B 1991   9.572   5.254   7.790  0.0969  0.0136 -0.0107
  135POPC   C3B 1992   9.928   5.105   7.791 -0.0890  0.4008 -0.1308
  135POPC   C4B 1993  10.348   4.807   7.902 -0.1710 -0.2798  0.1798
  136POPC   NC3 1994   9.599   6.157   8.987 -0.0373  0.1268 -0.4647
  136POPC   PO4 1995   9.282   6.500   8.708  0.1919 -0.0133  0.1299
  136POPC   GL1 1996   9.262   6.689   8.269 -0.1679  0.3740  0.0790
  136POPC   GL2 1997   9.389   6.990   8.190 -0.0894 -0.1506 -0.0953
  136POPC   C1A 1998   9.123   6.683   7.864 -0.1616 -0.2260  0.1702
  136POPC   D2A 1999   9.262   6.571   7.444  0.5103  0.0678 -0.2476
  136POPC   C3A 2000   8.955   6.436   7.234 -0.2451  0.0672  0.0433
  136POPC   C4A 2001   8.573   6.425   7.018 -0.0115  0.2878  0.2070
  136POPC   C1B 2002   9.177   7.183   7.853  0.0041  0.0186  0.0056
  136POPC   C2B 2003   9.146   7.088   7.473 -0.1535 -0.0030  0.2547
  136POPC   C3B 2004   9.219   6.955   7.126  0.0173  0.2301 -0.4539
  136POPC   C4B 2005   9.213   7.157   6.706  0.1161 -0.0214 -0.0455
  137POPC   NC3 2006   2.636   9.385   9.157  0.0730  0.0708  0.0029
  137POPC   PO4 2007   2.159   9.563   9.032 -0.1224 -0.0185  0.0880
  137POPC   GL1 2008   1.908   9.790   8.665  0.0325  0.0355 -0.0246
  137POPC   GL2 2009   1.712   9.637   8.434  0.0931 -0.1244  0.1166
  137POPC   C1A 2010   2.064   9.947   8.176  0.1520  0.3228  0.1646
  137POPC   D2A 2011   2.079   9.881   7.719 -0.1556  0.0758  0.1723
  137POPC   C3A 2012   2.357   9.546   7.471  0.0713  0.2885 -0.2483
  137POPC   C4A 2013   2.401   9.445   7.064  0.0538  0.1163 -0.1614
  137POPC   C1B 2014   1.809   9.532   8.016 -0.3090  0.2781  0.0712
  137POPC   C2B 2015   1.682   9.677   7.595  0.1135 -0.3408  0.3051
  137POPC   C3B 2016   1.943   9.688   7.269 -0.1426  0.2132  0.1547
  137POPC   C4B 2017   2.035  10.172   7.053  0.0859  0.0826  0.1963
  138POPC   NC3 2018   5.999   7.659   8.476 -0.0308  0.1278 -0.0733
  138POPC   PO4 2019   6.175   7.959   8.260  0.4040 -0.1708  0.0119
  138POPC   GL1 2020   6.164   8.269   7.955  0.2845  0.1455 -0.0269
  138POPC   GL2 2021   6.455   8.580   7.975  0.0422 -0.0003 -0.1264
  138POPC   C1A 2022   5.968   8.226   7.487  0.0539 -0.2705 -0.3956
  138POPC   D2A 2023   5.919   8.357   7.102 -0.1883  0.3042 -0.0161
  138POPC   C3A 2024   6.296   8.226   6.837 -0.0240 -0.0450 -0.2465
  138POPC   C4A 2025   6.575   8.007   6.699  0.2403 -0.3280  0.2030
  138POPC   C1B 2026   6.543   8.546   7.534  0.3796  0.0357  0.1142
  138POPC   C2B 2027   6.731   8.517   7.126  0.0377 -0.0141  0.2787
  138POPC   C3B 2028   7.183   8.517   6.741  0.1668 -0.1444  0.0398
  138POPC   C4B 2029   7.074   8.170   6.485 -0.0723 -0.4039  0.0298
  139POPC   NC3 2030   2.101   1.547   8.550 -0.0468  0.1007 -0.2610
  139POPC   PO4 2031   2.322   1.936   8.482 -0.0629 -0.0159 -0.0801
  139POPC   GL1 2032   2.449   1.558   8.145  0.3324  0.0655 -0.1191
  139POPC   GL2 2033   2.215   1.448   7.974 -0.2332  0.0394  0.1292
  139POPC   C1A 2034   2.674   1.369   7.780  0.0633 -0.2095  0.0568
  139POPC   D2A 2035   3.174   1.452   7.722 -0.1222  0.0194 -0.0488
  139POPC   C3A 2036   3.313   1.617   7.320  0.2246  0.1601 -0.1724
  139POPC   C4A 2037   3.594   1.503   6.968 -0.1006 -0.2330 -0.3905
  139POPC   C1B 2038   1.861   1.561   7.761  0.1391  0.0662 -0.2168
  139POPC   C2B 2039   1.799   1.554   7.268  0.1522  0.7229  0.2334
  139POPC   C3B 2040   1.724   1.403   6.962  0.1150  0.1189  0.0426
  139POPC   C4B 2041   1.714   1.330   6.577  0.2665 -0.0024  0.0337
  140POPC   NC3 2042   5.205   3.118   8.207  0.1854  0.0386  0.0708
  140POPC   PO4 2043   4.956   2.746   8.236  0.1782 -0.1808  0.2649
  140POPC   GL1 2044   4.920   2.840   7.760 -0.0590 -0.1976  0.0606
  140POPC   GL2 2045   4.577   2.741   7.846 -0.1666  0.3565 -0.0136
  140POPC   C1A 2046   4.782   2.887   7.324 -0.2458  0.0588  0.0593
  140POPC   D2A 2047   4.966   2.768   6.889 -0.0015 -0.2698 -0.1112
  140POPC   C3A 2048   4.827   2.698   6.417 -0.5585 -0.1250  0.2951
  140POPC   C4A 2049   4.951   2.673   5.958 -0.1921 -0.4458 -0.0298
  140POPC   C1B 2050   4.701   2.326   7.581  0.1892  0.2488  0.0437
  140POPC   C2B 2051   4.731   2.158   7.158 -0.1041 -0.2597  0.1578
  140POPC   C3B 2052   4.721   2.310   6.747 -0.2746  0.1180  0.0522
  140POPC   C4B 2053   4.556   2.300   6.345 -0.1731 -0.0499  0.2252
  141POPC   NC3 2054   6.709   6.494   8.437 -0.1134 -0.0507  0.1315
  141POPC   PO4 2055   7.084   6.290   8.460 -0.0347 -0.1213  0.0956
  141POPC   GL1 2056   7.161   6.552   7.916 -0.3825  0.3190 -0.1089
  141POPC   GL2 2057   6.812   6.801   7.897 -0.2390  0.0610 -0.2358
  141POPC   C1A 2058   7.120   6.759   7.511  0.0751  0.2412 -0.0046
  141POPC   D2A 2059   7.241   6.834   7.058 -0.1401  0.2534 -0.0651
  141POPC   C3A 2060   7.226   6.834   6.679 -0.0922 -0.0534  0.4785
  141POPC   C4A 2061   7.112   6.962   6.299 -0.3381  0.1210 -0.0605
  141POPC   C1B 2062   6.655   6.455   7.659 -0.0906 -0.1252  0.1902
  141POPC   C2B 2063   6.888   6.503   7.212  0.0841 -0.1815 -0.0920
  141POPC   C3B 2064   6.843   6.490   6.770 -0.5331 -0.0606 -0.1608
  141POPC   C4B 2065   6.651   6.676   6.426  0.0906 -0.1868  0.1365
  142POPC   NC3 2066   9.616   1.155   8.534 -0.1188 -0.1926 -0.0339
  142POPC   PO4 2067   9.897   1.399   8.243 -0.1248 -0.4486  0.0843
  142POPC   GL1 2068   9.938   1.717   7.958  0.1504  0.0509  0.0673
  142POPC   GL2 2069   9.681   1.882   7.883 -0.0547  0.1856  0.0832
  142POPC   C1A 2070  10.179   1.925   7.590  0.1637  0.2732  0.1367
  142POPC   D2A 2071  10.203   1.888   7.124 -0.2585 -0.0647  0.0695
  142POPC   C3A 2072   9.951   2.027   6.813 -0.1381  0.3948 -0.2498
  142POPC   C4A 2073   9.629   2.140   6.880 -0.0564  0.0238  0.0153
  142POPC   C1B 2074   9.633   1.485   7.592 -0.0437  0.1617  0.1426
  142POPC   C2B 2075   9.608   1.233   7.287 -0.1012 -0.0954  0.0049
  142POPC   C3B 2076   9.729   1.166   6.901  0.0980  0.1616  0.0963
  142POPC   C4B 2077   9.862   0.913   6.530  0.1099 -0.3698  0.1200
  143POPC   NC3 2078   4.876   1.112   8.999  0.2647  0.0494  0.0636
  143POPC   PO4 2079   4.601   1.430   8.735 -0.2479 -0.2170  0.0354
  143POPC   GL1 2080   4.686   1.457   8.332  0.4339 -0.0639  0.2144
  143POPC   GL2 2081   4.793   1.676   8.033  0.1097 -0.2678 -0.0571
  143POPC   C1A 2082   4.496   1.216   7.886 -0.0103 -0.2554 -0.2377
  143POPC   D2A 2083   4.361   1.211   7.431 -0.0150 -0.0992  0.2031
  143POPC   C3A 2084   4.780   1.236   7.160 -0.0826  0.2960 -0.1040
  143POPC   C4A 2085   5.163   1.094   6.839  0.2063 -0.1452 -0.0103
  143POPC   C1B 2086   4.766   1.505   7.623  0.4136  0.0146  0.2147
  143POPC   C2B 2087   4.578   1.673   7.222 -0.0611 -0.4015  0.0611
  143POPC   C3B 2088   4.562   1.794   6.837  0.0017  0.1261 -0.1205
  143POPC   C4B 2089   4.548   1.737   6.374 -0.1987  0.2003  0.1192
  144POPC   NC3 2090   1.877   4.849   2.782  0.4257  0.0249  0.1863
  144POPC   PO4 2091   1.625   5.034   3.122 -0.2302 -0.2008  0.0143
  144POPC   GL1 2092   1.701   5.240   3.534 -0.1161 -0.2695 -0.0558
  144POPC   GL2 2093   1.456   5.420   3.632 -0.0532 -0.3091  0.2161
  144POPC   C1A 2094   1.986   5.320   3.835  0.0113  0.2522 -0.2494
  144POPC   D2A 2095   1.994   5.282   4.298  0.1940 -0.0336 -0.0683
  144POPC   C3A 2096   2.186   5.577   4.523 -0.3194  0.0064  0.2077
  144POPC   C4A 2097   2.403   5.942   4.446 -0.0947  0.1711  0.0696
  144POPC   C1B 2098   1.582   5.505   3.940 -0.0213 -0.2343 -0.1474
  144POPC   C2B 2099   1.397   5.358   4.274 -0.0353  0.1036 -0.0717
  144POPC   C3B 2100   1.652   5.422   4.681  0.0374  0.0796 -0.1959
  144POPC   C4B 2101   1.882   5.517   5.083 -0.0657 -0.0281  0.1614
  145POPC   NC3 2102   0.753   4.841   2.992  0.0606  0.2963  0.0084
  145POPC   PO4 2103   1.104   5.020   2.975 -0.1004  0.2094 -0.2987
  145POPC   GL1 2104   1.227   5.014   3.441 -0.1937  0.0270  0.0203
  145POPC   GL2 2105   1.521   4.766   3.533 -0.1805  0.3014 -0.1915
  145POPC   C1A 2106   1.301   4.968   3.901 -0.2436  0.0377 -0.2395
  145POPC   D2A 2107   1.700   4.871   4.220  0.4693 -0.1717  0.1820
  145POPC   C3A 2108   1.472   4.862   4.594  0.4676 -0.2991  0.2791
  145POPC   C4A 2109   0.977   4.995   4.738 -0.1899  0.3264  0.0521
  145POPC   C1B 2110   1.618   4.360   3.620  0.2402  0.1671 -0.0948
  145POPC   C2B 2111   1.833   4.205   3.959 -0.1065 -0.0560  0.0573
  145POPC   C3B 2112   2.080   3.920   4.337  0.0680  0.2404 -0.0084
  145POPC   C4B 2113   2.556   3.907   4.491  0.0653 -0.0389  0.1627
  146POPC   NC3 2114   2.556   0.844   4.713 -0.3609 -0.0532 -0.1334
  146POPC   PO4 2115   2.134   0.896   4.803  0.0948  0.2616 -0.1908
  146POPC   GL1 2116   2.099   1.259   5.064 -0.0894  0.2307  0.0153
  146POPC   GL2 2117   2.118   1.053   5.422 -0.1242  0.2343 -0.0630
  146POPC   C1A 2118   2.495   1.399   5.260  0.0472  0.0141 -0.1449
  146POPC   D2A 2119   2.549   1.730   5.482  0.0616  0.2510  0.1917
  146POPC   C3A 2120   2.266   1.758   5.885 -0.3490 -0.0455  0.1022
  146POPC   C4A 2121   1.970   1.580   6.188  0.1093 -0.0239 -0.1480
  146POPC   C1B 2122   1.969   1.450   5.506 -0.2766 -0.0609  0.1178
  146POPC   C2B 2123   1.786   1.792   5.716  0.0554 -0.0276 -0.0640
  146POPC   C3B 2124   1.866   2.112   5.984  0.1198 -0.0813  0.1115
  146POPC   C4B 2125   1.825   2.465   6.356  0.0023  0.0337  0.0996
  147POPC   NC3 2126   1.966   6.541   3.785  0.1935 -0.0069  0.0835
  147POPC   PO4 2127   2.352   6.652   3.686 -0.0544 -0.1716 -0.1201
  147POPC   GL1 2128   2.323   6.489   4.158 -0.1569  0.1641 -0.2068
  147POPC   GL2 2129   2.604   6.411   4.504  0.2244 -0.0233 -0.5613
  147POPC   C1A 2130   2.137   6.333   4.674 -0.1058 -0.0506 -0.0045
  147POPC   D2A 2131   1.741   6.363   4.845 -0.3077 -0.3020  0.1364
  147POPC   C3A 2132   1.766   6.591   5.258 -0.3854  0.1023  0.1034
  147POPC   C4A 2133   1.405   6.552   5.444  0.0864  0.1649 -0.0041
  147POPC   C1B 2134   2.954   6.495   4.817 -0.1680 -0.0804 -0.0795
  147POPC   C2B 2135   2.982   6.842   5.152  0.0541 -0.1190 -0.0666
  147POPC   C3B 2136   3.280   6.949   5.467 -0.2778 -0.1832 -0.1774
  147POPC   C4B 2137   3.472   7.289   5.436 -0.1474  0.2074  0.1654
  148POPC   NC3 2138   3.298   7.338   4.374 -0.2741 -0.1993  0.1963
  148POPC   PO4 2139   3.789   7.307   4.550 -0.0448 -0.0196  0.0242
  148POPC   GL1 2140   3.823   7.088   4.830  0.0352  0.0441  0.0155
  148POPC   GL2 2141   4.098   7.019   5.051 -0.1277 -0.1655  0.1772
  148POPC   C1A 2142   3.678   6.885   5.135 -0.1507  0.3536  0.0039
  148POPC   D2A 2143   3.739   6.504   5.307 -0.2026  0.2566 -0.1383
  148POPC   C3A 2144   3.874   6.419   5.732  0.2552  0.2416  0.0766
  148POPC   C4A 2145   4.027   6.017   5.910  0.0664  0.1005  0.0007
  148POPC   C1B 2146   3.965   7.104   5.492  0.0363 -0.2235 -0.1771
  148POPC   C2B 2147   3.701   6.898   5.752  0.1142 -0.0387  0.1428
  148POPC   C3B 2148   3.342   7.071   5.922 -0.1583 -0.3199  0.0173
  148POPC   C4B 2149   3.027   7.073   6.152 -0.1203 -0.0723  0.3529
  149POPC   NC3 2150   8.198   8.520   4.846  0.0097 -0.3111 -0.0043
  149POPC   PO4 2151   8.624   8.708   4.954 -0.0069  0.0534 -0.0206
  149POPC   GL1 2152   8.591   8.535   5.369 -0.1019  0.2374 -0.1313
  149POPC   GL2 2153   8.658   8.199   5.363 -0.1365 -0.0398 -0.2537
  149POPC   C1A 2154   8.529   8.662   5.833  0.1792  0.3742  0.3169
  149POPC   D2A 2155   8.562   9.083   6.042 -0.1186 -0.1126 -0.1407
  149POPC   C3A 2156   8.193   9.263   6.104  0.2013 -0.1815 -0.0069
  149POPC   C4A 2157   7.756   9.133   6.101  0.1332 -0.2093 -0.0423
  149POPC   C1B 2158   8.901   8.270   5.677 -0.1962 -0.2757  0.1709
  149POPC   C2B 2159   9.010   8.634   6.063 -0.0022 -0.1331  0.0053
  149POPC   C3B 2160   9.128   8.628   6.479  0.1889 -0.0499  0.1627
  149POPC   C4B 2161   9.216   9.008   6.818 -0.0756 -0.0410  0.2845
  150POPC   NC3 2162   3.292   0.478   4.537  0.3523  0.3759  0.0488
  150POPC   PO4 2163   2.898   0.434   4.882  0.0950  0.4726 -0.1593
  150POPC   GL1 2164   3.261   0.636   5.070 -0.1204  0.2644  0.2910
  150POPC   GL2 2165   3.261   0.469   5.332  0.3262 -0.1282  0.0904
  150POPC   C1A 2166   3.299   0.975   5.403  0.0193 -0.2694 -0.1228
  150POPC   D2A 2167   3.472   1.072   5.776 -0.1689 -0.0964  0.1367
  150POPC   C3A 2168   3.193   1.112   6.166  0.3135 -0.1622 -0.0606
  150POPC   C4A 2169   2.903   1.107   6.395  0.0602  0.0738 -0.3310
  150POPC   C1B 2170   3.297   0.470   5.768  0.3596  0.0905  0.0372
  150POPC   C2B 2171   2.984   0.520   6.107 -0.0563 -0.1041  0.1477
  150POPC   C3B 2172   2.588   0.340   6.409 -0.1888 -0.0505 -0.2988
  150POPC   C4B 2173   2.330   0.095   6.653  0.1987  0.2097 -0.0517
  151POPC   NC3 2174   6.795   1.085   4.944  0.3126  0.2424  0.0006
  151POPC   PO4 2175   6.980   1.467   5.062  0.0822  0.0293  0.1749
  151POPC   GL1 2176   6.797   1.448   5.335  0.1155 -0.0425  0.2751
  151POPC   GL2 2177   6.607   1.279   5.369  0.1896  0.0994  0.3986
  151POPC   C1A 2178   6.621   1.779   5.716 -0.0510  0.1939 -0.0777
  151POPC   D2A 2179   6.793   1.952   6.011 -0.0040  0.0853 -0.3038
  151POPC   C3A 2180   7.180   2.058   6.104 -0.1496  0.2552 -0.0042
  151POPC   C4A 2181   7.273   2.532   6.178 -0.0405  0.0018  0.1097
  151POPC   C1B 2182   6.260   0.883   5.261  0.3067 -0.4245  0.0719
  151POPC   C2B 2183   5.981   0.539   5.371  0.0244  0.0337 -0.2263
  151POPC   C3B 2184   5.625   0.346   5.413  0.2771 -0.0848  0.1720
  151POPC   C4B 2185   5.371   0.343   5.799  0.2590 -0.1946  0.2380
  152POPC   NC3 2186   2.166   1.717   3.281  0.1810 -0.0387 -0.1926
  152POPC   PO4 2187   2.188   2.039   3.623  0.1548  0.1440 -0.1766
  152POPC   GL1 2188   2.226   2.217   4.062  0.1298  0.0090 -0.0440
  152POPC   GL2 2189   2.048   2.256   4.295  0.0936  0.2402 -0.1394
  152POPC   C1A 2190   2.331   2.660   4.299 -0.5469  0.0050  0.0157
  152POPC   D2A 2191   2.723   2.862   4.512  0.0936 -0.0215  0.0153
  152POPC   C3A 2192   2.773   2.925   4.989 -0.1274 -0.2330 -0.2099
  152POPC   C4A 2193   2.796   3.373   5.135 -0.1196  0.1729 -0.0199
  152POPC   C1B 2194   1.662   2.188   4.514  0.2801 -0.2301  0.0034
  152POPC   C2B 2195   1.260   2.346   4.799 -0.0522 -0.1219  0.3101
  152POPC   C3B 2196   0.867   2.200   5.052  0.0712 -0.1471 -0.0986
  152POPC   C4B 2197   0.567   2.030   5.269  0.1088 -0.2360  0.1437
  153POPC   NC3 2198   3.693   7.033   4.159  0.2847  0.0122  0.0389
  153POPC   PO4 2199   3.734   6.644   4.408  0.4196  0.1020  0.1748
  153POPC   GL1 2200   3.775   6.407   4.757  0.2283 -0.1280  0.1402
  153POPC   GL2 2201   4.103   6.519   4.897 -0.2334 -0.0290 -0.1212
  153POPC   C1A 2202   3.299   6.218   5.000 -0.4043  0.4832 -0.0394
  153POPC   D2A 2203   3.072   5.942   5.274  0.0980  0.0297  0.2137
  153POPC   C3A 2204   3.051   5.841   5.647 -0.1490  0.2853  0.1468
  153POPC   C4A 2205   3.080   5.767   5.985 -0.1953 -0.2614  0.0781
  153POPC   C1B 2206   4.255   6.566   5.327  0.0146 -0.0014  0.1527
  153POPC   C2B 2207   4.337   6.560   5.745  0.2208  0.0681  0.0403
  153POPC   C3B 2208   4.510   6.214   5.974 -0.2764  0.0252 -0.1656
  153POPC   C4B 2209   4.282   5.966   6.329 -0.2245 -0.2943  0.0903
  154POPC   NC3 2210   9.785   4.805   4.304 -0.1688 -0.1176  0.2132
  154POPC   PO4 2211   9.378   4.865   4.496  0.2187  0.1362  0.3388
  154POPC   GL1 2212   9.199   4.716   4.907  0.1635  0.0421  0.0207
  154POPC   GL2 2213   9.232   4.982   4.985 -0.1636  0.3053 -0.6270
  154POPC   C1A 2214   9.295   4.564   5.300  0.1174  0.0846 -0.0664
  154POPC   D2A 2215   9.298   4.117   5.399 -0.2259 -0.1001  0.1738
  154POPC   C3A 2216   9.602   3.963   5.639  0.1957 -0.0797  0.1293
  154POPC   C4A 2217   9.892   3.895   5.906  0.0251 -0.0668 -0.0977
  154POPC   C1B 2218   9.314   5.117   5.451  0.2605 -0.1577  0.4108
  154POPC   C2B 2219   9.502   5.003   5.917  0.0845 -0.1298  0.0114
  154POPC   C3B 2220   9.346   5.139   6.285 -0.1005  0.1153  0.1621
  154POPC   C4B 2221   9.049   5.321   6.501 -0.1213  0.4058  0.0385
  155POPC   NC3 2222   7.055   6.127   4.446  0.1203  0.1187  0.0072
  155POPC   PO4 2223   7.489   5.965   4.529  0.0631 -0.0964  0.0444
  155POPC   GL1 2224   7.215   5.924   4.880 -0.1150 -0.2214 -0.1389
  155POPC   GL2 2225   7.244   6.285   5.076  0.0102  0.0264 -0.1005
  155POPC   C1A 2226   7.105   5.693   5.271  0.1251  0.3530  0.1118
  155POPC   D2A 2227   7.035   5.463   5.667  0.2020  0.0944 -0.2846
  155POPC   C3A 2228   7.035   5.674   6.098  0.0199 -0.1797  0.0847
  155POPC   C4A 2229   6.997   5.887   6.459 -0.2296  0.0499  0.1146
  155POPC   C1B 2230   7.470   6.520   5.477 -0.1183 -0.1286  0.0721
  155POPC   C2B 2231   7.727   6.420   5.870  0.2442  0.3541 -0.1295
  155POPC   C3B 2232   8.142   6.327   5.839  0.3379 -0.2303  0.0879
  155POPC   C4B 2233   8.391   6.512   5.466  0.0773  0.1931  0.0075
  156POPC   NC3 2234   1.222   9.563   5.229 -0.2333  0.0226  0.1103
  156POPC   PO4 2235   0.969   9.246   5.274 -0.0527 -0.2633  0.0761
  156POPC   GL1 2236   1.054   9.228   5.693 -0.1275  0.1617 -0.0728
  156POPC   GL2 2237   1.205   9.482   5.771 -0.2748  0.1346  0.2451
  156POPC   C1A 2238   1.040   9.022   6.065  0.1208 -0.0432  0.0672
  156POPC   D2A 2239   1.047   9.083   6.450 -0.2625 -0.1912 -0.3546
  156POPC   C3A 2240   1.019   8.730   6.693 -0.0315 -0.0631 -0.0645
  156POPC   C4A 2241   1.136   8.727   7.052  0.3552  0.1102  0.2324
  156POPC   C1B 2242   1.493   9.353   6.010 -0.0083 -0.0743  0.0097
  156POPC   C2B 2243   1.387   9.437   6.350  0.2720  0.0375 -0.1399
  156POPC   C3B 2244   1.647   9.469   6.685 -0.0343 -0.5418  0.2247
  156POPC   C4B 2245   2.012   9.617   6.790  0.1353  0.1060  0.2021
  157POPC   NC3 2246   9.541   8.515   4.945  0.1162  0.2945  0.1654
  157POPC   PO4 2247   9.965   8.552   5.003 -0.3993  0.1089 -0.1304
  157POPC   GL1 2248   9.873   8.333   5.316  0.4047  0.1217 -0.0887
  157POPC   GL2 2249   9.737   8.071   5.168 -0.1271  0.2985  0.0661
  157POPC   C1A 2250   9.827   8.261   5.740 -0.2103  0.0802 -0.2395
  157POPC   D2A 2251  10.028   8.242   6.090  0.2624  0.1018  0.1289
  157POPC   C3A 2252   9.978   7.816   6.096  0.0227  0.0392 -0.0143
  157POPC   C4A 2253   9.572   7.623   6.201 -0.0312 -0.0115 -0.0247
  157POPC   C1B 2254   9.865   7.702   5.432  0.2671  0.0635  0.0882
  157POPC   C2B 2255   9.958   7.439   5.727 -0.1532 -0.0019  0.0785
  157POPC   C3B 2256   9.751   7.195   6.050 -0.0667  0.2070  0.4716
  157POPC   C4B 2257   9.729   7.229   6.469  0.1339  0.0394  0.1609
  158POPC   NC3 2258   7.170   9.897   4.351 -0.0722 -0.0141  0.1377
  158POPC   PO4 2259   7.059   9.475   4.438  0.1980  0.0484 -0.2882
  158POPC   GL1 2260   7.114   9.452   4.934 -0.4094 -0.2544  0.0316
  158POPC   GL2 2261   7.255   9.293   5.184 -0.2363  0.1368 -0.2087
  158POPC   C1A 2262   7.257   9.742   5.371  0.2822  0.1592 -0.1127
  158POPC   D2A 2263   7.575  10.028   5.463 -0.3037 -0.3597 -0.0047
  158POPC   C3A 2264   7.890  10.352   5.531  0.2044 -0.0202 -0.0090
  158POPC   C4A 2265   8.070  10.266   5.982  0.1598  0.3083  0.0543
  158POPC   C1B 2266   7.431   9.095   5.613 -0.0281  0.2032 -0.0560
  158POPC   C2B 2267   7.236   9.086   6.065 -0.2341 -0.1015  0.2626
  158POPC   C3B 2268   7.005   9.107   6.446 -0.2305  0.0294  0.2531
  158POPC   C4B 2269   6.761   9.027   6.818 -0.0410  0.1345  0.1683
  159POPC   NC3 2270   8.855   3.021   4.641 -0.0299 -0.0924  0.2125
  159POPC   PO4 2271   9.333   3.039   4.656  0.2085  0.2303 -0.3002
  159POPC   GL1 2272   9.359   2.901   5.067  0.0434 -0.0692  0.0475
  159POPC   GL2 2273   9.078   3.023   5.175 -0.2438 -0.1911 -0.0170
  159POPC   C1A 2274   9.686   2.901   5.411 -0.2293  0.0477 -0.2329
  159POPC   D2A 2275   9.998   2.913   5.701  0.2144  0.1134  0.1661
  159POPC   C3A 2276  10.012   3.231   6.035 -0.2975 -0.0206  0.2853
  159POPC   C4A 2277   9.917   3.132   6.511  0.0437 -0.4629  0.1016
  159POPC   C1B 2278   9.036   3.209   5.545 -0.4162 -0.3362  0.1758
  159POPC   C2B 2279   8.651   3.348   5.878 -0.0517  0.0017 -0.0929
  159POPC   C3B 2280   8.453   3.619   6.036  0.0555  0.0403 -0.3083
  159POPC   C4B 2281   8.329   4.007   6.232  0.2922  0.1369 -0.3983
  160POPC   NC3 2282   5.220   4.909   4.466 -0.0507 -0.2204 -0.0493
  160POPC   PO4 2283   5.441   4.596   4.190  0.0790 -0.0809  0.1479
  160POPC   GL1 2284   5.667   4.418   4.583 -0.3755  0.1962 -0.0689
  160POPC   GL2 2285   5.944   4.309   4.547 -0.1783  0.0350  0.1364
  160POPC   C1A 2286   5.557   4.271   4.910 -0.1829 -0.0964 -0.0693
  160POPC   D2A 2287   5.537   4.245   5.407 -0.0284 -0.1797  0.1926
  160POPC   C3A 2288   5.243   4.110   5.696  0.1003 -0.0710 -0.1304
  160POPC   C4A 2289   4.925   4.359   5.668  0.0197 -0.4280 -0.4155
  160POPC   C1B 2290   5.992   4.001   4.883 -0.2611 -0.1890 -0.2507
  160POPC   C2B 2291   5.812   3.821   5.270  0.0949  0.2245 -0.0491
  160POPC   C3B 2292   5.690   3.850   5.721  0.0184 -0.1563  0.0775
  160POPC   C4B 2293   5.742   3.594   6.045  0.2091 -0.0816  0.1519
  161POPC   NC3 2294   5.670   9.105   4.807 -0.1205  0.1655 -0.2000
  161POPC   PO4 2295   6.089   9.026   4.647 -0.2331  0.0900  0.2993
  161POPC   GL1 2296   6.103   8.754   5.136 -0.1810 -0.2140 -0.3036
  161POPC   GL2 2297   5.924   8.757   5.356  0.0833  0.0546 -0.0993
  161POPC   C1A 2298   6.264   8.560   5.635 -0.0905 -0.0442 -0.0369
  161POPC   D2A 2299   6.269   8.620   6.071  0.1197 -0.1064 -0.3203
  161POPC   C3A 2300   6.259   8.518   6.410 -0.1665 -0.1793 -0.0567
  161POPC   C4A 2301   5.947   8.667   6.622  0.2138  0.0883 -0.1426
  161POPC   C1B 2302   5.759   8.441   5.632  0.1441 -0.1892  0.0456
  161POPC   C2B 2303   5.456   8.173   5.878 -0.1809  0.4131 -0.0947
  161POPC   C3B 2304   5.275   8.070   6.252 -0.0918  0.5157  0.0597
  161POPC   C4B 2305   5.227   7.646   6.442  0.0210  0.2371 -0.2058
  162POPC   NC3 2306   5.905   1.762   4.470  0.0228  0.1944 -0.0091
  162POPC   PO4 2307   5.990   1.479   4.772  0.1909  0.0031  0.0161
  162POPC   GL1 2308   6.058   1.725   5.244  0.1859  0.1128 -0.0305
  162POPC   GL2 2309   6.406   1.906   5.244 -0.2392  0.2794  0.0555
  162POPC   C1A 2310   5.964   1.890   5.618  0.3024 -0.2918  0.1686
  162POPC   D2A 2311   6.149   1.928   6.005 -0.1341 -0.0168 -0.1143
  162POPC   C3A 2312   5.960   1.794   6.285 -0.0484 -0.0618  0.0187
  162POPC   C4A 2313   5.645   2.088   6.446 -0.1101  0.1391 -0.1539
  162POPC   C1B 2314   6.244   2.327   5.488 -0.1057  0.0253  0.0221
  162POPC   C2B 2315   6.373   2.369   5.941 -0.2280 -0.0319 -0.1837
  162POPC   C3B 2316   6.637   2.436   6.255  0.2585 -0.1622 -0.0197
  162POPC   C4B 2317   6.815   2.749   6.379 -0.1067 -0.0708  0.2249
  163POPC   NC3 2318   9.537   4.005   4.199  0.2110  0.3061 -0.0071
  163POPC   PO4 2319   9.650   4.367   4.091 -0.0760  0.1462  0.0639
  163POPC   GL1 2320   9.758   4.328   4.541 -0.3213 -0.1839  0.3882
  163POPC   GL2 2321   9.544   4.377   4.729 -0.0877  0.3063  0.3537
  163POPC   C1A 2322  10.060   4.510   4.806 -0.1254  0.0406 -0.1129
  163POPC   D2A 2323  10.243   4.597   5.196 -0.1407 -0.0491  0.0020
  163POPC   C3A 2324  10.679   4.347   5.361  0.2302 -0.0283  0.0419
  163POPC   C4A 2325  10.920   4.546   5.636  0.0028 -0.0028 -0.1888
  163POPC   C1B 2326   9.761   4.312   5.194 -0.3049 -0.1289  0.2143
  163POPC   C2B 2327   9.962   4.345   5.589  0.1640  0.1923 -0.3492
  163POPC   C3B 2328  10.332   4.618   5.714 -0.3231  0.1163 -0.0916
  163POPC   C4B 2329  10.681   4.574   6.088 -0.0290 -0.0297  0.1162
  164POPC   NC3 2330   4.274   7.463   4.863 -0.1451 -0.2086  0.0208
  164POPC   PO4 2331   4.678   7.305   4.854 -0.1752  0.0398  0.0773
  164POPC   GL1 2332   4.674   7.311   5.278 -0.2879  0.2490 -0.0038
  164POPC   GL2 2333   4.484   7.481   5.334 -0.3063 -0.0179  0.0490
  164POPC   C1A 2334   4.436   6.984   5.509 -0.3239  0.0218  0.2600
  164POPC   D2A 2335   4.429   7.018   5.894 -0.1141 -0.1931  0.1757
  164POPC   C3A 2336   4.033   6.768   6.030 -0.1811 -0.4857 -0.2314
  164POPC   C4A 2337   3.706   6.580   6.233 -0.0347 -0.3500  0.1496
  164POPC   C1B 2338   4.461   7.506   5.759  0.0179  0.1005  0.1856
  164POPC   C2B 2339   4.178   7.491   6.016  0.1515  0.1109  0.2011
  164POPC   C3B 2340   4.118   7.244   6.300  0.0667  0.2846  0.1341
  164POPC   C4B 2341   4.414   6.915   6.442  0.3757 -0.0093 -0.2154
  165POPC   NC3 2342   1.802   0.001   4.848  0.1223  0.1349 -0.0942
  165POPC   PO4 2343   1.700  -0.197   5.174  0.3855  0.1778 -0.1430
  165POPC   GL1 2344   1.417  -0.060   5.545  0.0910  0.1483  0.4003
  165POPC   GL2 2345   1.103  -0.008   5.541 -0.0030 -0.1253 -0.3417
  165POPC   C1A 2346   1.573   0.027   5.948  0.0017  0.2036 -0.0699
  165POPC   D2A 2347   1.723  -0.021   6.335 -0.3160 -0.0102 -0.3007
  165POPC   C3A 2348   1.670   0.062   6.755 -0.0269  0.1292 -0.0610
  165POPC   C4A 2349   1.503  -0.207   7.067 -0.0539 -0.1860 -0.0891
  165POPC   C1B 2350   1.064  -0.043   5.931 -0.3044 -0.1818 -0.1497
  165POPC   C2B 2351   1.202  -0.027   6.342  0.1354 -0.0758  0.1007
  165POPC   C3B 2352   1.136  -0.276   6.697 -0.1221  0.2606 -0.1036
  165POPC   C4B 2353   0.921  -0.659   6.978 -0.5815  0.0909  0.1575
  166POPC   NC3 2354   3.486   2.510   4.210  0.2098  0.0658 -0.1290
  166POPC   PO4 2355   3.667   2.130   4.125  0.1396  0.0247  0.0092
  166POPC   GL1 2356   3.686   2.077   4.554 -0.3637  0.0185 -0.1818
  166POPC   GL2 2357   3.898   1.905   4.691  0.1729 -0.0315 -0.0427
  166POPC   C1A 2358   3.484   2.216   4.921  0.2336 -0.1365  0.1709
  166POPC   D2A 2359   3.524   2.347   5.169 -0.0658  0.2318  0.1959
  166POPC   C3A 2360   3.712   2.039   5.508 -0.2964  0.2624  0.0059
  166POPC   C4A 2361   4.053   2.347   5.732  0.2116  0.4470 -0.0755
  166POPC   C1B 2362   4.046   2.261   4.896 -0.2738  0.0073  0.1026
  166POPC   C2B 2363   4.024   2.479   5.294 -0.5625  0.1249  0.2411
  166POPC   C3B 2364   4.072   2.898   5.600  0.3497  0.2133 -0.2303
  166POPC   C4B 2365   4.283   3.178   5.962 -0.1797 -0.1040 -0.1678
  167POPC   NC3 2366   3.337   6.393   4.225  0.2306  0.1749 -0.1036
  167POPC   PO4 2367   3.195   6.858   4.110 -0.0272  0.1406  0.0207
  167POPC   GL1 2368   2.881   6.834   4.455  0.2587  0.1261 -0.0674
  167POPC   GL2 2369   2.931   7.098   4.708 -0.0621 -0.1195  0.0964
  167POPC   C1A 2370   2.529   6.881   4.814  0.0226 -0.0470  0.1475
  167POPC   D2A 2371   2.270   6.835   5.153  0.1436 -0.1171 -0.1695
  167POPC   C3A 2372   2.208   6.342   5.169  0.2223 -0.1445 -0.3919
  167POPC   C4A 2373   2.292   5.934   5.325 -0.0918 -0.5486 -0.1824
  167POPC   C1B 2374   2.755   7.276   5.126  0.3079  0.0638  0.0097
  167POPC   C2B 2375   2.492   7.147   5.476 -0.1723  0.1231 -0.3020
  167POPC   C3B 2376   2.177   6.806   5.686 -0.2720  0.0905  0.2164
  167POPC   C4B 2377   2.151   6.674   6.052 -0.3810  0.2104  0.1190
  168POPC   NC3 2378   4.410   8.912   4.096  0.3188 -0.3371  0.1399
  168POPC   PO4 2379   4.294   9.312   4.490 -0.0877 -0.0568 -0.1458
  168POPC   GL1 2380   4.505   9.494   4.891 -0.2926  0.1362 -0.0646
  168POPC   GL2 2381   4.268   9.400   5.128  0.1895 -0.0156 -0.0449
  168POPC   C1A 2382   4.778   9.705   5.181 -0.0874  0.0599 -0.0844
  168POPC   D2A 2383   4.914   9.833   5.634 -0.2214  0.0425  0.1324
  168POPC   C3A 2384   5.203   9.832   5.985  0.1613  0.0907  0.0165
  168POPC   C4A 2385   5.227   9.880   6.394 -0.0322  0.1009 -0.1517
  168POPC   C1B 2386   4.169   9.525   5.520 -0.0044  0.1759 -0.0455
  168POPC   C2B 2387   4.171   9.832   5.751  0.2887 -0.0043 -0.1441
  168POPC   C3B 2388   3.738   9.846   5.952 -0.2313  0.1136  0.3161
  168POPC   C4B 2389   3.335   9.858   5.721 -0.0851  0.1859  0.1812
  169POPC   NC3 2390   5.889   4.771   4.286 -0.1834 -0.2620 -0.0221
  169POPC   PO4 2391   5.688   5.078   4.430  0.1516  0.1446  0.0244
  169POPC   GL1 2392   5.459   4.749   4.867 -0.2100  0.0666  0.0128
  169POPC   GL2 2393   5.355   4.991   5.127 -0.2923 -0.0358 -0.1965
  169POPC   C1A 2394   5.163   4.519   5.183  0.1330  0.0015  0.4240
  169POPC   D2A 2395   5.039   4.107   5.093 -0.1268 -0.4205 -0.1322
  169POPC   C3A 2396   5.272   3.691   5.317  0.1970 -0.2728 -0.0497
  169POPC   C4A 2397   5.541   3.426   5.556 -0.2151  0.0415 -0.1226
  169POPC   C1B 2398   5.625   4.742   5.345  0.1191  0.1405  0.0258
  169POPC   C2B 2399   5.986   4.699   5.690 -0.0705 -0.0372  0.0902
  169POPC   C3B 2400   5.899   4.748   6.053 -0.3656 -0.0210  0.4226
  169POPC   C4B 2401   5.885   4.983   6.493  0.0963 -0.2073  0.2663
  170POPC   NC3 2402   4.887   8.217   4.712  0.0417  0.2101  0.2793
  170POPC   PO4 2403   4.894   8.695   4.868 -0.0019 -0.0784 -0.3034
  170POPC   GL1 2404   4.864   8.763   5.292 -0.1938 -0.0768  0.4040
  170POPC   GL2 2405   4.756   9.132   5.259 -0.3132  0.0949  0.0120
  170POPC   C1A 2406   4.660   8.593   5.621  0.0942 -0.0400 -0.2737
  170POPC   D2A 2407   4.567   8.669   6.011 -0.1800  0.3476 -0.1702
  170POPC   C3A 2408   4.517   9.151   6.223  0.2841 -0.0676 -0.0930
  170POPC   C4A 2409   4.339   9.493   6.368 -0.0833  0.0363  0.1296
  170POPC   C1B 2410   4.962   8.944   5.760  0.0348 -0.1200 -0.0750
  170POPC   C2B 2411   5.072   9.115   6.168  0.2183 -0.0454 -0.0038
  170POPC   C3B 2412   5.003   9.462   6.501 -0.1809 -0.2082 -0.2952
  170POPC   C4B 2413   4.719   9.838   6.332 -0.0285  0.0351 -0.2573
  171POPC   NC3 2414   5.192   9.245   4.946  0.0189  0.3024  0.1459
  171POPC   PO4 2415   5.265   9.640   4.571  0.3658 -0.2162 -0.0277
  171POPC   GL1 2416   5.267   9.797   4.999  0.0624  0.1247  0.0128
  171POPC   GL2 2417   5.291   9.585   5.324  0.1129 -0.1107  0.2890
  171POPC   C1A 2418   5.139  10.153   5.331 -0.1674 -0.2846 -0.2332
  171POPC   D2A 2419   4.914  10.357   5.649 -0.0138  0.1277 -0.0862
  171POPC   C3A 2420   5.003  10.309   6.153 -0.0760  0.0394  0.0984
  171POPC   C4A 2421   5.413  10.497   6.392  0.1646  0.1467 -0.3080
  171POPC   C1B 2422   5.209   9.397   5.722  0.0369  0.1169 -0.2848
  171POPC   C2B 2423   5.488   9.457   6.197  0.0345  0.2396  0.0428
  171POPC   C3B 2424   5.609   9.418   6.648  0.3540  0.0514 -0.2480
  171POPC   C4B 2425   5.255   9.440   7.032 -0.3282 -0.3561 -0.2568
  172POPC   NC3 2426   9.579   0.302   4.779  0.3387  0.3248  0.0404
  172POPC   PO4 2427   9.711   0.774   4.791  0.0247 -0.0000 -0.1159
  172POPC   GL1 2428   9.688   0.912   5.203  0.1932 -0.1597  0.2731
  172POPC   GL2 2429   9.509   1.106   5.216 -0.0838  0.0130 -0.2866
  172POPC   C1A 2430   9.718   0.785   5.591 -0.1611  0.2695 -0.0125
  172POPC   D2A 2431   9.780   0.876   6.016  0.0373  0.1599  0.1932
  172POPC   C3A 2432  10.118   0.568   6.220 -0.0021  0.1065  0.0127
  172POPC   C4A 2433  10.501   0.501   6.600 -0.1199  0.2155  0.2164
  172POPC   C1B 2434   9.355   1.224   5.547  0.2771  0.1429 -0.0211
  172POPC   C2B 2435   9.484   1.321   5.979  0.2973 -0.0136 -0.0076
  172POPC   C3B 2436   9.305   1.699   6.239  0.2036 -0.1861 -0.2514
  172POPC   C4B 2437   9.433   2.121   6.376  0.2234  0.2250 -0.1818
  173POPC   NC3 2438   9.574   6.180   4.460  0.0501 -0.1806  0.2059
  173POPC   PO4 2439   9.966   5.956   4.320 -0.1245  0.2586 -0.2385
  173POPC   GL1 2440   9.991   5.725   4.757 -0.1253  0.0604 -0.0118
  173POPC   GL2 2441  10.179   5.445   4.858  0.2611  0.2590  0.0779
  173POPC   C1A 2442  10.083   5.656   5.251  0.0467  0.1048  0.0575
  173POPC   D2A 2443   9.907   5.714   5.737  0.2558  0.3101 -0.1776
  173POPC   C3A 2444   9.927   5.441   6.133  0.0537  0.0698 -0.0411
  173POPC   C4A 2445   9.767   5.244   6.510 -0.0428  0.1132 -0.0209
  173POPC   C1B 2446  10.529   5.627   4.812 -0.3109  0.1077  0.2197
  173POPC   C2B 2447  10.929   5.890   4.818 -0.0430 -0.2438 -0.2241
  173POPC   C3B 2448  11.270   6.182   5.010  0.2336  0.0074 -0.2844
  173POPC   C4B 2449  11.683   5.996   5.324  0.1149  0.0125 -0.0072
  174POPC   NC3 2450   0.396   6.332   4.250  0.0577  0.0248 -0.0917
  174POPC   PO4 2451   0.050   6.610   4.369 -0.0043  0.1697  0.1070
  174POPC   GL1 2452  -0.007   6.520   4.749 -0.2162 -0.0562  0.2155
  174POPC   GL2 2453   0.236   6.306   4.735  0.0539  0.0629  0.2480
  174POPC   C1A 2454  -0.176   6.692   5.166  0.1134  0.0001 -0.5065
  174POPC   D2A 2455  -0.185   6.689   5.640  0.3294  0.0277  0.0063
  174POPC   C3A 2456  -0.475   6.662   5.996  0.1936 -0.0357 -0.3344
  174POPC   C4A 2457  -0.451   6.815   6.406  0.3423 -0.0869  0.0302
  174POPC   C1B 2458   0.541   6.130   5.070 -0.0570  0.2699  0.1239
  174POPC   C2B 2459   0.884   5.915   5.317  0.1287 -0.2964 -0.1009
  174POPC   C3B 2460   1.270   6.043   5.486  0.0399 -0.0966 -0.1255
  174POPC   C4B 2461   1.618   6.224   5.733 -0.0605 -0.2082 -0.1033
  175POPC   NC3 2462   8.336   2.980   4.564  0.0917 -0.1005  0.1711
  175POPC   PO4 2463   8.200   2.630   4.774  0.1772  0.1275 -0.0445
  175POPC   GL1 2464   7.921   2.781   5.062 -0.3440  0.0431 -0.0870
  175POPC   GL2 2465   7.710   2.489   5.205 -0.1763 -0.0004  0.0426
  175POPC   C1A 2466   7.880   3.070   5.425  0.1509  0.0691 -0.1259
  175POPC   D2A 2467   8.108   3.027   5.823  0.0391  0.0692 -0.0230
  175POPC   C3A 2468   8.476   2.939   6.117 -0.1497 -0.0089  0.3100
  175POPC   C4A 2469   8.746   3.317   6.404  0.1046 -0.3761 -0.1565
  175POPC   C1B 2470   7.890   2.486   5.681 -0.3124  0.0047 -0.0871
  175POPC   C2B 2471   8.167   2.247   5.858 -0.2953 -0.0304 -0.1495
  175POPC   C3B 2472   8.289   2.083   6.186 -0.0956  0.1962  0.0633
  175POPC   C4B 2473   7.903   1.933   6.409  0.1206  0.0023  0.1150
  176POPC   NC3 2474   4.157   6.622   3.690 -0.1463  0.1436 -0.1048
  176POPC   PO4 2475   4.210   6.162   3.946  0.2889 -0.2204  0.0672
  176POPC   GL1 2476   4.079   5.870   4.277  0.1010 -0.0235  0.1383
  176POPC   GL2 2477   4.005   6.024   4.590  0.5229  0.3096  0.0060
  176POPC   C1A 2478   4.178   5.590   4.573 -0.1637 -0.1536  0.3255
  176POPC   D2A 2479   4.270   5.578   4.920 -0.2817 -0.0478  0.1521
  176POPC   C3A 2480   3.887   5.508   5.203  0.0956 -0.0003 -0.2343
  176POPC   C4A 2481   3.495   5.671   5.500  0.1960  0.0178  0.3569
  176POPC   C1B 2482   3.741   5.856   4.883  0.1507  0.2541 -0.0559
  176POPC   C2B 2483   3.359   5.697   4.963 -0.0656  0.0823  0.1275
  176POPC   C3B 2484   3.103   5.480   5.171  0.2265 -0.0119 -0.0304
  176POPC   C4B 2485   2.704   5.589   5.310 -0.0779 -0.1849  0.1214
  177POPC   NC3 2486   7.512   9.636   4.554  0.1444  0.0465  0.3006
  177POPC   PO4 2487   7.771   9.970   4.549 -0.0598  0.0706  0.1082
  177POPC   GL1 2488   7.953   9.779   4.907 -0.2570 -0.3768  0.1834
  177POPC   GL2 2489   7.668   9.606   5.032  0.0548 -0.1567  0.1086
  177POPC   C1A 2490   8.116   9.883   5.336 -0.1745 -0.1912 -0.1546
  177POPC   D2A 2491   8.039   9.803   5.726  0.2600 -0.1127 -0.2878
  177POPC   C3A 2492   8.156   9.754   5.969 -0.0713  0.1413 -0.3306
  177POPC   C4A 2493   8.179  10.010   6.436  0.3709  0.0427 -0.0957
  177POPC   C1B 2494   7.639   9.481   5.442 -0.0400 -0.0418 -0.4398
  177POPC   C2B 2495   7.920   9.264   5.619  0.1988 -0.2778 -0.1301
  177POPC   C3B 2496   8.346   9.318   5.647 -0.1197  0.1190  0.1860
  177POPC   C4B 2497   8.562   9.683   5.702 -0.1300  0.1501 -0.2368
  178POPC   NC3 2498   7.517   5.499   4.709 -0.0617 -0.0790 -0.1193
  178POPC   PO4 2499   7.409   5.139   4.831  0.0957 -0.3678 -0.0829
  178POPC   GL1 2500   7.303   5.220   5.195  0.1009 -0.4487 -0.1781
  178POPC   GL2 2501   7.573   5.025   5.316  0.1688 -0.1268 -0.2033
  178POPC   C1A 2502   7.521   5.523   5.477  0.0832 -0.0542 -0.2338
  178POPC   D2A 2503   7.294   5.896   5.650 -0.1307 -0.2358 -0.2801
  178POPC   C3A 2504   7.373   6.095   6.061 -0.4379  0.2811  0.2189
  178POPC   C4A 2505   7.742   6.193   6.369 -0.0900  0.1356  0.2248
  178POPC   C1B 2506   7.622   4.798   5.677  0.0874 -0.1249  0.1696
  178POPC   C2B 2507   7.593   4.572   6.017 -0.1632  0.1505  0.1982
  178POPC   C3B 2508   7.784   4.243   6.287 -0.1942  0.0030  0.0011
  178POPC   C4B 2509   7.562   3.944   6.475 -0.1107  0.0471  0.2996
  179POPC   NC3 2510   7.565   2.038   4.993 -0.2154 -0.0713 -0.0897
  179POPC   PO4 2511   7.884   1.769   4.991  0.0078  0.1304 -0.0481
  179POPC   GL1 2512   7.999   1.525   5.303  0.0758 -0.0525 -0.1668
  179POPC   GL2 2513   7.937   1.208   5.287  0.1445  0.0715  0.2374
  179POPC   C1A 2514   8.460   1.360   5.466 -0.0039 -0.1274 -0.0475
  179POPC   D2A 2515   8.395   1.180   5.863 -0.2132 -0.1658 -0.0130
  179POPC   C3A 2516   8.470   0.677   6.094  0.0737 -0.0888  0.1872
  179POPC   C4A 2517   8.135   0.620   6.392 -0.0491  0.1877  0.0212
  179POPC   C1B 2518   7.854   1.305   5.684  0.5147 -0.2709 -0.1330
  179POPC   C2B 2519   7.566   1.539   5.817  0.1558  0.3540  0.1116
  179POPC   C3B 2520   7.639   1.920   5.926 -0.2130 -0.2858 -0.0645
  179POPC   C4B 2521   7.712   2.269   6.114  0.1710 -0.0809 -0.1272
  180POPC   NC3 2522   2.305   3.408   3.349 -0.2947  0.0188  0.5782
  180POPC   PO4 2523   2.094   3.772   3.378  0.1969  0.3697 -0.0267
  180POPC   GL1 2524   2.046   3.756   3.764  0.1202 -0.0024  0.0110
  180POPC   GL2 2525   2.295   4.012   3.860 -0.1205  0.0925 -0.4938
  180POPC   C1A 2526   2.142   3.432   4.076 -0.1432  0.1087 -0.2098
  180POPC   D2A 2527   2.466   3.234   4.313  0.1899 -0.0081 -0.0174
  180POPC   C3A 2528   2.453   3.208   4.718  0.2381  0.6065  0.0132
  180POPC   C4A 2529   2.384   3.124   5.195  0.1801 -0.0651  0.3363
  180POPC   C1B 2530   2.613   3.742   4.062 -0.1065 -0.0480  0.0704
  180POPC   C2B 2531   2.898   3.459   4.249  0.0079  0.1001 -0.0366
  180POPC   C3B 2532   2.928   3.611   4.730  0.2349  0.0279 -0.1234
  180POPC   C4B 2533   3.243   3.774   5.128 -0.0086 -0.1282  0.2661
  181POPC   NC3 2534   6.401   8.193   4.875 -0.0811 -0.1719 -0.1880
  181POPC   PO4 2535   6.795   7.884   4.835 -0.2060 -0.1338 -0.2312
  181POPC   GL1 2536   6.796   8.159   5.202 -0.1389  0.0153  0.0916
  181POPC   GL2 2537   7.212   8.120   5.133 -0.1345  0.2329 -0.2121
  181POPC   C1A 2538   6.839   8.313   5.617 -0.2046 -0.1701 -0.3957
  181POPC   D2A 2539   6.597   8.277   5.913 -0.0933 -0.1281 -0.3164
  181POPC   C3A 2540   6.737   7.967   6.046  0.1599 -0.3090 -0.3278
  181POPC   C4A 2541   7.094   7.731   6.208  0.3389 -0.3086  0.0228
  181POPC   C1B 2542   7.247   8.494   5.366  0.2693  0.5187 -0.0605
  181POPC   C2B 2543   7.085   8.710   5.806  0.2720 -0.2330 -0.0123
  181POPC   C3B 2544   6.969   8.606   6.257  0.0175  0.0914  0.3532
  181POPC   C4B 2545   6.674   8.515   6.618  0.1822 -0.0160 -0.1963
  182POPC   NC3 2546   6.507   6.952   4.663 -0.0209 -0.1747 -0.0784
  182POPC   PO4 2547   6.277   7.352   4.594 -0.1220  0.2355 -0.0432
  182POPC   GL1 2548   6.297   7.298   5.021  0.3148 -0.3197  0.1849
  182POPC   GL2 2549   6.110   6.965   4.949  0.0268 -0.2548  0.0361
  182POPC   C1A 2550   6.385   7.461   5.350 -0.0218  0.0264 -0.3176
  182POPC   D2A 2551   6.763   7.584   5.662 -0.0834  0.3069 -0.2888
  182POPC   C3A 2552   7.146   7.920   5.574 -0.1309 -0.0955 -0.1347
  182POPC   C4A 2553   7.318   8.257   5.819 -0.2786 -0.3189  0.0568
  182POPC   C1B 2554   6.358   6.750   5.293  0.1431 -0.0053  0.3071
  182POPC   C2B 2555   6.623   6.404   5.472  0.2141 -0.1702  0.1506
  182POPC   C3B 2556   6.992   6.348   5.469 -0.1306 -0.0466 -0.0043
  182POPC   C4B 2557   7.111   6.451   5.838 -0.2274  0.0059 -0.0700
  183POPC   NC3 2558   5.838   7.345   4.790  0.0370  0.1129  0.2466
  183POPC   PO4 2559   5.524   7.672   4.760 -0.2441  0.0791 -0.0218
  183POPC   GL1 2560   5.680   7.608   5.146  0.0840  0.0353 -0.2225
  183POPC   GL2 2561   5.385   7.570   5.471  0.0430 -0.2383  0.0899
  183POPC   C1A 2562   5.908   7.706   5.472  0.3153  0.1463  0.0657
  183POPC   D2A 2563   5.725   7.714   5.852 -0.0390  0.2516 -0.1553
  183POPC   C3A 2564   5.332   7.678   5.914  0.0684  0.1551 -0.2047
  183POPC   C4A 2565   4.852   7.786   6.060 -0.1015 -0.1554 -0.3734
  183POPC   C1B 2566   5.504   7.150   5.703 -0.3509  0.0847  0.1365
  183POPC   C2B 2567   5.183   6.879   5.866  0.1391  0.0884 -0.2526
  183POPC   C3B 2568   5.213   6.494   6.103 -0.1434 -0.0033  0.1159
  183POPC   C4B 2569   5.165   6.166   6.460 -0.0898  0.0455  0.0221
  184POPC   NC3 2570   2.621   6.967   4.020 -0.3092  0.3235 -0.1252
  184POPC   PO4 2571   2.821   7.326   4.223  0.1041  0.0612 -0.0783
  184POPC   GL1 2572   2.514   7.334   4.576 -0.0417  0.2606  0.1091
  184POPC   GL2 2573   2.295   7.118   4.478  0.3633 -0.0315 -0.4384
  184POPC   C1A 2574   2.253   7.296   4.933 -0.1404  0.1650  0.1768
  184POPC   D2A 2575   2.047   7.479   5.307 -0.2088 -0.0354 -0.0273
  184POPC   C3A 2576   2.125   7.392   5.779 -0.1864 -0.2765 -0.3483
  184POPC   C4A 2577   2.454   7.148   6.033 -0.1627 -0.0823  0.2209
  184POPC   C1B 2578   1.993   6.900   4.663  0.2559 -0.0171  0.0429
  184POPC   C2B 2579   1.777   7.023   4.984 -0.2579 -0.0816 -0.1511
  184POPC   C3B 2580   1.827   7.032   5.481 -0.0306 -0.0612 -0.0792
  184POPC   C4B 2581   1.657   6.834   5.814  0.1911 -0.1532 -0.2257
  185POPC   NC3 2582   4.342   9.797   4.526 -0.1172  0.1676 -0.2732
  185POPC   PO4 2583   4.102  10.088   4.554  0.1360 -0.0304  0.0947
  185POPC   GL1 2584   4.331   9.958   4.983  0.0223 -0.0854 -0.3298
  185POPC   GL2 2585   4.032  10.031   5.205 -0.1367 -0.0537  0.0864
  185POPC   C1A 2586   4.496  10.074   5.437  0.0696  0.1260  0.0985
  185POPC   D2A 2587   4.558  10.030   5.894 -0.0485 -0.0103  0.0679
  185POPC   C3A 2588   4.575   9.573   5.885  0.0415 -0.3837  0.0984
  185POPC   C4A 2589   4.419   9.139   5.702  0.1709  0.0087  0.1869
  185POPC   C1B 2590   3.822  10.154   5.523 -0.1876 -0.3712 -0.0258
  185POPC   C2B 2591   4.015  10.249   5.968  0.1674  0.4522 -0.0053
  185POPC   C3B 2592   4.469  10.333   6.300  0.1089  0.0715  0.0204
  185POPC   C4B 2593   4.844  10.223   6.631  0.1236  0.1066 -0.0007
  186POPC   NC3 2594   1.631   1.403   4.835  0.0944 -0.1582  0.0247
  186POPC   PO4 2595   1.155   1.628   4.892  0.2958 -0.0962  0.1574
  186POPC   GL1 2596   1.251   1.555   5.287 -0.0167 -0.0632 -0.2744
  186POPC   GL2 2597   1.012   1.624   5.483 -0.1677  0.1800 -0.0401
  186POPC   C1A 2598   1.402   1.417   5.661 -0.0624 -0.0755 -0.2474
  186POPC   D2A 2599   1.695   1.209   6.017 -0.2802 -0.0610 -0.0955
  186POPC   C3A 2600   1.570   0.863   6.293  0.2314 -0.0894  0.0794
  186POPC   C4A 2601   1.597   0.473   6.497  0.1201 -0.0465  0.2195
  186POPC   C1B 2602   1.204   1.949   5.797 -0.1283  0.0520  0.2719
  186POPC   C2B 2603   1.500   2.309   5.698  0.1060 -0.0507 -0.2086
  186POPC   C3B 2604   1.886   2.284   5.505  0.0159 -0.1588  0.2263
  186POPC   C4B 2605   2.305   2.153   5.362 -0.4953 -0.0561  0.0851
  187POPC   NC3 2606   5.840   8.137   4.597  0.0535 -0.0922 -0.1715
  187POPC   PO4 2607   5.960   8.219   4.986  0.0622 -0.3221 -0.2930
  187POPC   GL1 2608   6.123   8.120   5.408 -0.1366  0.0823  0.0195
  187POPC   GL2 2609   6.429   7.948   5.456 -0.0496 -0.0330 -0.1377
  187POPC   C1A 2610   6.138   8.134   5.827  0.0081 -0.0180  0.2570
  187POPC   D2A 2611   6.274   8.041   6.254  0.2572  0.0329  0.2915
  187POPC   C3A 2612   6.107   7.935   6.558 -0.0859 -0.0791  0.2845
  187POPC   C4A 2613   5.788   7.913   6.823 -0.3088  0.3327 -0.0428
  187POPC   C1B 2614   6.253   7.619   5.910 -0.0369 -0.2073 -0.0904
  187POPC   C2B 2615   6.102   7.411   6.275 -0.3897 -0.2459  0.0329
  187POPC   C3B 2616   5.895   7.073   6.452 -0.3780 -0.1552  0.2990
  187POPC   C4B 2617   5.426   7.186   6.263 -0.2431  0.1693  0.2333
  188POPC   NC3 2618   7.918   5.751   4.524  0.2079  0.2736 -0.1087
  188POPC   PO4 2619   7.973   5.361   4.571  0.2803 -0.0116  0.0493
  188POPC   GL1 2620   7.884   5.008   4.919  0.2362 -0.1097 -0.0409
  188POPC   GL2 2621   7.714   4.682   4.949 -0.0247 -0.3664  0.2279
  188POPC   C1A 2622   8.026   5.025   5.334 -0.3135  0.1183 -0.0842
  188POPC   D2A 2623   8.283   4.866   5.638 -0.1470 -0.1686 -0.1017
  188POPC   C3A 2624   8.602   4.985   5.836 -0.2221 -0.0472  0.0519
  188POPC   C4A 2625   9.000   5.226   5.901  0.0371 -0.0275 -0.1062
  188POPC   C1B 2626   7.881   4.456   5.349 -0.0376 -0.5186 -0.2176
  188POPC   C2B 2627   8.012   4.408   5.709 -0.1922 -0.0732  0.1025
  188POPC   C3B 2628   8.070   4.636   6.058 -0.0847 -0.0052  0.2740
  188POPC   C4B 2629   7.884   5.046   6.125 -0.0197  0.3087 -0.1546
  189POPC   NC3 2630   7.964   7.696   5.029 -0.3112 -0.0846  0.0438
  189POPC   PO4 2631   8.296   7.929   4.972  0.0667 -0.3409 -0.0640
  189POPC   GL1 2632   8.254   7.934   5.352  0.2030  0.1185 -0.0454
  189POPC   GL2 2633   8.042   7.825   5.523 -0.2920  0.3451  0.1519
  189POPC   C1A 2634   8.577   7.692   5.637 -0.0157 -0.1160 -0.0661
  189POPC   D2A 2635   8.984   7.791   5.759 -0.0681 -0.3657 -0.1310
  189POPC   C3A 2636   9.095   7.729   6.157 -0.2527 -0.2629  0.0389
  189POPC   C4A 2637   9.168   7.710   6.624 -0.0774  0.1621  0.2083
  189POPC   C1B 2638   8.136   7.812   6.005 -0.1392 -0.1706  0.3552
  189POPC   C2B 2639   8.207   7.872   6.447 -0.0026  0.2244  0.1240
  189POPC   C3B 2640   8.059   7.820   6.905  0.0573 -0.1010  0.2098
  189POPC   C4B 2641   7.802   7.517   7.249 -0.0084 -0.0587  0.0265
  190POPC   NC3 2642   2.457   8.842   5.235  0.1230 -0.0147 -0.2498
  190POPC   PO4 2643   2.060   8.494   5.067 -0.0577  0.0075 -0.0577
  190POPC   GL1 2644   1.974   8.705   5.470 -0.1071  0.1581  0.0330
  190POPC   GL2 2645   2.024   8.314   5.608  0.0270  0.1706  0.0440
  190POPC   C1A 2646   2.043   9.017   5.853 -0.0639 -0.2029 -0.0019
  190POPC   D2A 2647   2.062   9.168   6.262  0.0663  0.3272 -0.0961
  190POPC   C3A 2648   2.359   9.171   6.615  0.1487  0.0584 -0.0147
  190POPC   C4A 2649   2.335   8.852   7.019  0.2252 -0.0453  0.2136
  190POPC   C1B 2650   2.199   7.914   5.659  0.0716 -0.2186  0.0063
  190POPC   C2B 2651   2.456   7.717   5.908 -0.0284  0.1828 -0.1884
  190POPC   C3B 2652   2.852   7.554   6.034 -0.0252  0.1030  0.3641
  190POPC   C4B 2653   3.180   7.523   6.315  0.0163 -0.0305 -0.1278
  191POPC   NC3 2654   2.894   9.542   4.770  0.0466  0.0214  0.3333
  191POPC   PO4 2655   3.322   9.618   5.007 -0.1874 -0.2968  0.2265
  191POPC   GL1 2656   3.099   9.939   5.250 -0.2343 -0.0029 -0.1300
  191POPC   GL2 2657   2.849   9.649   5.313 -0.1160 -0.3635 -0.3618
  191POPC   C1A 2658   2.902  10.179   5.562 -0.2357 -0.3608  0.1694
  191POPC   D2A 2659   2.909  10.662   5.615  0.1249  0.0114  0.2585
  191POPC   C3A 2660   2.535  10.902   5.656 -0.1802  0.2591 -0.2330
  191POPC   C4A 2661   2.229  11.210   5.874 -0.3300  0.2895 -0.0720
  191POPC   C1B 2662   2.970   9.571   5.769 -0.0592  0.0486 -0.0246
  191POPC   C2B 2663   2.842   9.365   6.209 -0.0626 -0.3963 -0.0703
  191POPC   C3B 2664   2.882   9.260   6.598  0.0363  0.2301  0.0782
  191POPC   C4B 2665   2.947   9.597   7.064  0.0623  0.0139  0.0087
  192POPC   NC3 2666   0.466   1.949   4.504  0.1944  0.1760 -0.0931
  192POPC   PO4 2667   0.062   1.633   4.659  0.2083  0.0035 -0.3880
  192POPC   GL1 2668   0.259   1.723   4.920  0.1065  0.0920 -0.2349
  192POPC   GL2 2669   0.565   1.681   4.941  0.2884 -0.0670 -0.1503
  192POPC   C1A 2670   0.094   1.868   5.257 -0.0259  0.0333 -0.0022
  192POPC   D2A 2671   0.204   1.885   5.596 -0.1516 -0.0681  0.1656
  192POPC   C3A 2672   0.618   1.838   5.715 -0.3234 -0.2923 -0.1113
  192POPC   C4A 2673   0.752   2.182   6.080  0.0267  0.1954  0.1384
  192POPC   C1B 2674   0.465   1.487   5.367  0.1790  0.2409 -0.0241
  192POPC   C2B 2675   0.616   1.347   5.731 -0.1293  0.2237 -0.2882
  192POPC   C3B 2676   0.657   1.223   6.199  0.1311 -0.1516  0.3370
  192POPC   C4B 2677   0.296   1.087   6.302 -0.2631  0.0547  0.2543
  193POPC   NC3 2678   8.300   8.963   4.653 -0.2575 -0.0862 -0.3125
  193POPC   PO4 2679   8.191   8.968   5.078 -0.1538 -0.0335 -0.1369
  193POPC   GL1 2680   8.144   8.744   5.456 -0.2195 -0.0245  0.1684
  193POPC   GL2 2681   8.135   8.409   5.405  0.2666 -0.0619  0.0380
  193POPC   C1A 2682   8.071   8.769   5.847  0.1207 -0.0437  0.1487
  193POPC   D2A 2683   8.082   8.826   6.267 -0.4532  0.1065 -0.0725
  193POPC   C3A 2684   7.947   8.703   6.705  0.0172 -0.1105  0.0765
  193POPC   C4A 2685   8.029   8.321   6.824 -0.0001 -0.1197  0.0867
  193POPC   C1B 2686   8.357   8.229   5.753  0.0528 -0.0996  0.0587
  193POPC   C2B 2687   8.599   8.162   6.075  0.0679  0.1648  0.2318
  193POPC   C3B 2688   8.627   7.780   6.174  0.2310  0.1410 -0.1715
  193POPC   C4B 2689   8.778   7.379   6.389 -0.3743  0.0754  0.1943
  194POPC   NC3 2690   9.039   9.672   5.117 -0.0893 -0.1374 -0.0264
  194POPC   PO4 2691   9.432   9.869   5.226  0.1716 -0.0717 -0.0117
  194POPC   GL1 2692   9.208   9.817   5.618  0.0456  0.0282  0.1352
  194POPC   GL2 2693   9.075   9.515   5.632 -0.2104 -0.0202 -0.1234
  194POPC   C1A 2694   9.410   9.891   5.989 -0.1856  0.1975  0.0691
  194POPC   D2A 2695   9.463   9.686   6.415 -0.0078 -0.0354 -0.2621
  194POPC   C3A 2696   9.137   9.585   6.677  0.1250 -0.4080 -0.2307
  194POPC   C4A 2697   9.030   9.407   7.069 -0.1829 -0.1763 -0.1415
  194POPC   C1B 2698   8.978   9.692   6.033 -0.1143  0.0599 -0.2584
  194POPC   C2B 2699   8.666   9.734   6.328  0.0354  0.4304  0.1278
  194POPC   C3B 2700   8.343   9.480   6.538  0.0552 -0.0200  0.1208
  194POPC   C4B 2701   8.370   8.975   6.615  0.0878  0.2044 -0.1544
  195POPC   NC3 2702   1.340   7.365   4.020  0.0726  0.1100 -0.2781
  195POPC   PO4 2703   1.262   7.351   4.526  0.1911  0.1988  0.4024
  195POPC   GL1 2704   1.348   7.067   4.839 -0.1453 -0.2022  0.0661
  195POPC   GL2 2705   1.281   6.812   4.767  0.1128 -0.0038 -0.1943
  195POPC   C1A 2706   1.293   7.054   5.349  0.0171  0.1860 -0.4738
  195POPC   D2A 2707   1.082   6.845   5.708 -0.0458  0.1904  0.1915
  195POPC   C3A 2708   1.232   6.537   5.964 -0.4779 -0.0179  0.1011
  195POPC   C4A 2709   1.340   6.188   6.156  0.3294  0.2339 -0.0245
  195POPC   C1B 2710   1.004   6.619   5.028  0.0205 -0.2551  0.1109
  195POPC   C2B 2711   0.876   6.447   5.419  0.2169 -0.2797 -0.1010
  195POPC   C3B 2712   0.838   6.219   5.774  0.0380  0.0550 -0.0289
  195POPC   C4B 2713   0.941   5.874   6.014  0.1685 -0.0747 -0.2095
  196POPC   NC3 2714   7.763   1.300   4.834 -0.0515 -0.0148  0.0471
  196POPC   PO4 2715   7.314   1.171   4.868  0.2340  0.1874  0.0672
  196POPC   GL1 2716   7.450   0.958   5.140 -0.0525 -0.0242  0.0834
  196POPC   GL2 2717   7.707   0.753   5.175  0.2521  0.1493  0.0706
  196POPC   C1A 2718   7.513   0.887   5.606  0.2827 -0.0985 -0.3590
  196POPC   D2A 2719   7.377   1.029   5.993  0.1524 -0.1243 -0.1914
  196POPC   C3A 2720   7.563   0.910   6.342  0.1407  0.0908  0.1090
  196POPC   C4A 2721   7.846   0.968   6.651  0.0323  0.0875 -0.0158
  196POPC   C1B 2722   7.355   0.495   5.267 -0.0970 -0.2119  0.0139
  196POPC   C2B 2723   7.222   0.462   5.728 -0.0574  0.0432  0.1912
  196POPC   C3B 2724   6.958   0.674   5.907 -0.2098  0.1120  0.0934
  196POPC   C4B 2725   6.889   1.033   6.174  0.0074  0.1319  0.3000
  197POPC   NC3 2726   7.657   7.421   4.730 -0.2864 -0.1153  0.2802
  197POPC   PO4 2727   7.649   7.902   4.760  0.1198 -0.0402 -0.1252
  197POPC   GL1 2728   7.464   7.634   5.114  0.1293 -0.0387 -0.3044
  197POPC   GL2 2729   7.606   7.640   5.448 -0.0142  0.3253  0.3686
  197POPC   C1A 2730   7.221   7.315   5.494 -0.1392 -0.0067 -0.3377
  197POPC   D2A 2731   7.118   7.221   5.894  0.0675 -0.0368  0.0078
  197POPC   C3A 2732   6.694   7.343   6.072 -0.4929  0.1698  0.0733
  197POPC   C4A 2733   6.614   7.594   6.366 -0.2440  0.3197  0.0532
  197POPC   C1B 2734   7.536   7.780   5.885  0.3833 -0.1221 -0.1878
  197POPC   C2B 2735   7.581   7.849   6.337  0.0565 -0.0841  0.0351
  197POPC   C3B 2736   7.760   7.565   6.657  0.3358 -0.1573  0.0109
  197POPC   C4B 2737   8.096   7.337   6.675 -0.2300 -0.0100  0.0353
  198POPC   NC3 2738   0.495   2.900   4.063  0.0690  0.0588  0.1431
  198POPC   PO4 2739   0.142   2.903   4.320  0.1889 -0.0947  0.1784
  198POPC   GL1 2740  -0.018   3.126   4.710 -0.0805  0.0964 -0.1282
  198POPC   GL2 2741  -0.122   2.943   4.880 -0.1546 -0.1861 -0.1082
  198POPC   C1A 2742   0.091   3.451   5.011 -0.0905 -0.4411  0.1777
  198POPC   D2A 2743   0.046   3.330   5.377  0.0345  0.1576  0.1034
  198POPC   C3A 2744   0.223   3.575   5.735 -0.0127  0.2655  0.3032
  198POPC   C4A 2745   0.390   3.737   6.010  0.0153 -0.0103 -0.0085
  198POPC   C1B 2746   0.186   2.908   5.196 -0.1395 -0.2085  0.2034
  198POPC   C2B 2747   0.601   2.579   5.272  0.1223 -0.1398 -0.2119
  198POPC   C3B 2748   0.853   2.396   5.620  0.0170  0.3222  0.2487
  198POPC   C4B 2749   1.159   2.603   5.930 -0.1458  0.2146  0.0192
  199POPC   NC3 2750   7.088   2.328   4.144  0.0161  0.1343  0.0903
  199POPC   PO4 2751   7.347   2.210   4.520 -0.0234 -0.1841 -0.0648
  199POPC   GL1 2752   7.143   2.390   4.914  0.1187  0.2034 -0.2208
  199POPC   GL2 2753   6.945   2.706   5.017 -0.0537  0.2260  0.0409
  199POPC   C1A 2754   7.158   2.500   5.347 -0.3125 -0.0511  0.0203
  199POPC   D2A 2755   7.400   2.261   5.693  0.3225 -0.0576 -0.0186
  199POPC   C3A 2756   7.239   1.780   5.599  0.0351  0.3608  0.3640
  199POPC   C4A 2757   6.988   1.349   5.729 -0.3517  0.1649 -0.0715
  199POPC   C1B 2758   6.632   2.768   5.336 -0.2000  0.0617 -0.3273
  199POPC   C2B 2759   6.408   2.774   5.685 -0.0749  0.1962 -0.0032
  199POPC   C3B 2760   6.325   2.906   6.064  0.0487 -0.3426 -0.0200
  199POPC   C4B 2761   6.245   3.333   6.281  0.1613 -0.2264  0.6719
  200POPC   NC3 2762   1.653   8.785   5.160  0.0223 -0.1444  0.3178
  200POPC   PO4 2763   1.191   8.587   4.994 -0.0933  0.0965 -0.2076
  200POPC   GL1 2764   1.160   8.258   5.384 -0.0022  0.2009 -0.0959
  200POPC   GL2 2765   1.099   7.931   5.389  0.0118 -0.1183 -0.0816
  200POPC   C1A 2766   1.046   8.320   5.850 -0.0316 -0.0477 -0.2161
  200POPC   D2A 2767   0.891   8.061   6.151  0.3943 -0.1077 -0.3261
  200POPC   C3A 2768   0.525   8.203   6.330 -0.0127  0.1602  0.1882
  200POPC   C4A 2769   0.341   7.908   6.613 -0.2742  0.1967 -0.0673
  200POPC   C1B 2770   0.754   8.036   5.654  0.0990 -0.1669  0.2049
  200POPC   C2B 2771   0.534   7.717   5.923 -0.1337 -0.0441  0.0795
  200POPC   C3B 2772   0.296   7.415   6.152  0.0449 -0.1077 -0.0423
  200POPC   C4B 2773   0.283   7.067   6.298 -0.0072 -0.0772 -0.2327
  201POPC   NC3 2774   2.458   2.419   3.662 -0.0446  0.0688 -0.3856
  201POPC   PO4 2775   1.935   2.566   3.682  0.2614 -0.0741 -0.1121
  201POPC   GL1 2776   1.720   2.704   4.018 -0.3512  0.2304  0.0655
  201POPC   GL2 2777   1.772   2.655   4.280  0.0667 -0.2514  0.1153
  201POPC   C1A 2778   1.709   3.189   4.166 -0.0920  0.2212  0.2347
  201POPC   D2A 2779   1.844   3.460   4.509 -0.1407 -0.1094  0.3453
  201POPC   C3A 2780   2.102   3.645   4.749 -0.1466 -0.0639 -0.0710
  201POPC   C4A 2781   2.462   3.767   5.046 -0.2155  0.2617  0.1916
  201POPC   C1B 2782   2.005   2.936   4.551 -0.1747 -0.1620  0.0452
  201POPC   C2B 2783   1.946   3.103   4.959  0.2047  0.2125 -0.1862
  201POPC   C3B 2784   1.746   3.430   4.974  0.3662  0.0537 -0.1305
  201POPC   C4B 2785   1.473   3.658   5.116 -0.2867 -0.2287  0.4092
  202POPC   NC3 2786   2.804   4.716   3.173 -0.0621  0.2513  0.3403
  202POPC   PO4 2787   2.988   4.517   3.413 -0.0398  0.3944  0.1581
  202POPC   GL1 2788   3.206   4.514   3.773 -0.2963  0.0933 -0.0675
  202POPC   GL2 2789   3.482   4.704   3.959 -0.1428 -0.0262 -0.2688
  202POPC   C1A 2790   3.229   4.277   4.145  0.2166 -0.3779 -0.1149
  202POPC   D2A 2791   3.484   4.131   4.395 -0.0883 -0.2364 -0.3007
  202POPC   C3A 2792   4.016   4.256   4.338  0.1456  0.0409 -0.5675
  202POPC   C4A 2793   4.243   4.428   4.639  0.0013  0.0356 -0.0797
  202POPC   C1B 2794   3.647   4.615   4.277  0.1193  0.2632 -0.3161
  202POPC   C2B 2795   3.746   4.548   4.621 -0.1539 -0.2049  0.2339
  202POPC   C3B 2796   3.637   4.695   5.114  0.0231  0.0581 -0.1424
  202POPC   C4B 2797   3.903   4.965   5.436 -0.0178 -0.0472  0.0379
  203POPC   NC3 2798   4.236   8.068   4.960 -0.0921  0.1046 -0.0256
  203POPC   PO4 2799   3.890   7.842   4.872  0.0872  0.0252 -0.0938
  203POPC   GL1 2800   3.882   7.671   5.306  0.0941 -0.4133 -0.0962
  203POPC   GL2 2801   4.068   7.925   5.472  0.0449 -0.1330  0.0204
  203POPC   C1A 2802   3.821   7.564   5.681  0.2669  0.0131  0.4023
  203POPC   D2A 2803   3.654   7.444   6.045  0.1317  0.1065 -0.1078
  203POPC   C3A 2804   3.636   7.688   6.421 -0.2337  0.0715 -0.0363
  203POPC   C4A 2805   3.693   7.941   6.761  0.0703  0.1899  0.1292
  203POPC   C1B 2806   3.949   7.960   6.021 -0.0593  0.0347  0.0114
  203POPC   C2B 2807   3.864   8.175   6.349 -0.0854 -0.0535  0.0112
  203POPC   C3B 2808   4.086   8.417   6.720  0.1049 -0.5184 -0.1124
  203POPC   C4B 2809   4.440   8.163   6.780  0.0548 -0.3066  0.4231
  204POPC   NC3 2810   9.503   2.095   4.499 -0.1882 -0.1096 -0.0122
  204POPC   PO4 2811   9.992   2.240   4.552  0.2940 -0.4413 -0.0222
  204POPC   GL1 2812   9.882   2.401   4.952 -0.0876  0.2123 -0.1364
  204POPC   GL2 2813   9.639   2.443   5.029 -0.0513  0.0354 -0.0227
  204POPC   C1A 2814  10.112   2.430   5.378  0.1473 -0.0321  0.3420
  204POPC   D2A 2815  10.261   2.444   5.773 -0.0108  0.0098  0.0789
  204POPC   C3A 2816  10.141   2.138   6.027 -0.0355  0.2497  0.1931
  204POPC   C4A 2817   9.963   2.225   6.370 -0.0320  0.2829 -0.0157
  204POPC   C1B 2818   9.378   2.480   5.368  0.0018  0.1593  0.1974
  204POPC   C2B 2819   9.206   2.410   5.798  0.1551  0.0793  0.0553
  204POPC   C3B 2820   9.174   2.630   6.190 -0.2769  0.1246 -0.0537
  204POPC   C4B 2821   8.903   2.865   6.408 -0.0910  0.1426  0.1039
  205POPC   NC3 2822   4.871   1.377   4.243 -0.2932  0.3617  0.1214
  205POPC   PO4 2823   4.972   1.805   4.482 -0.4791  0.3587 -0.0360
  205POPC   GL1 2824   4.874   2.026   4.827 -0.2591 -0.1958  0.1862
  205POPC   GL2 2825   4.730   2.326   4.887 -0.0423 -0.1869  0.0952
  205POPC   C1A 2826   4.759   1.956   5.300  0.0538  0.0179  0.1855
  205POPC   D2A 2827   5.051   1.872   5.618 -0.0359  0.2229 -0.0603
  205POPC   C3A 2828   5.070   1.440   5.723  0.0397  0.0406  0.1654
  205POPC   C4A 2829   5.236   1.128   5.962  0.0521  0.1125 -0.1251
  205POPC   C1B 2830   4.571   2.471   5.193 -0.0573 -0.1514 -0.0319
  205POPC   C2B 2831   4.469   2.635   5.522 -0.0230 -0.0164  0.1245
  205POPC   C3B 2832   4.398   2.607   5.947 -0.0363  0.1910 -0.1002
  205POPC   C4B 2833   4.257   2.650   6.487 -0.2523  0.1964  0.0360
  206POPC   NC3 2834   7.577   2.601   4.692 -0.0955  0.0045  0.1748
  206POPC   PO4 2835   7.474   3.131   4.656  0.1612  0.2752  0.1014
  206POPC   GL1 2836   7.259   3.225   5.049 -0.2300  0.2191 -0.1204
  206POPC   GL2 2837   7.440   2.919   5.253 -0.0247 -0.2899  0.3354
  206POPC   C1A 2838   7.042   3.062   5.438 -0.3307  0.0136 -0.1320
  206POPC   D2A 2839   6.930   2.875   5.834  0.2547 -0.0852  0.0355
  206POPC   C3A 2840   6.859   2.432   5.833 -0.2899  0.0272  0.0960
  206POPC   C4A 2841   6.768   2.250   5.550 -0.3230  0.0904  0.2506
  206POPC   C1B 2842   7.430   2.758   5.733 -0.2685  0.1396  0.1237
  206POPC   C2B 2843   7.735   2.761   5.999 -0.1635 -0.2438  0.1015
  206POPC   C3B 2844   7.895   3.003   6.312 -0.2052  0.0742  0.3099
  206POPC   C4B 2845   8.243   3.263   6.366 -0.1721 -0.2475 -0.0347
  207POPC   NC3 2846   7.904   6.763   4.351 -0.2471  0.0425 -0.2756
  207POPC   PO4 2847   8.096   7.112   4.471  0.0116  0.0951 -0.1982
  207POPC   GL1 2848   8.155   7.113   4.914  0.0106  0.0226 -0.1975
  207POPC   GL2 2849   8.302   7.416   5.248  0.1337  0.1510 -0.1425
  207POPC   C1A 2850   8.254   6.926   5.226 -0.1254 -0.1104  0.0885
  207POPC   D2A 2851   8.394   7.022   5.525 -0.1684 -0.1723 -0.0072
  207POPC   C3A 2852   8.454   6.787   5.921  0.3200  0.1598  0.0985
  207POPC   C4A 2853   8.495   6.551   6.338 -0.2383  0.1213  0.0358
  207POPC   C1B 2854   7.951   7.354   5.616 -0.1843 -0.2044 -0.0042
  207POPC   C2B 2855   7.626   7.241   5.827  0.1557  0.0570  0.0931
  207POPC   C3B 2856   7.447   6.823   5.868 -0.1233 -0.3723  0.1870
  207POPC   C4B 2857   7.544   6.669   6.262  0.1106 -0.2382 -0.0594
  208POPC   NC3 2858   5.458   6.625   4.593 -0.2751 -0.0371 -0.0843
  208POPC   PO4 2859   5.482   7.037   4.811  0.0025 -0.1474  0.0206
  208POPC   GL1 2860   5.578   7.052   5.210 -0.2456  0.2585  0.0763
  208POPC   GL2 2861   5.398   6.691   5.415 -0.2428 -0.4010  0.4564
  208POPC   C1A 2862   5.920   7.185   5.477 -0.1861 -0.1006  0.1081
  208POPC   D2A 2863   5.913   7.083   5.949  0.1017 -0.0702 -0.1502
  208POPC   C3A 2864   5.670   6.774   6.129 -0.1417  0.2140 -0.1281
  208POPC   C4A 2865   5.596   6.471   6.417 -0.0362  0.1623 -0.0044
  208POPC   C1B 2866   5.532   6.447   5.748  0.2622 -0.0934  0.1060
  208POPC   C2B 2867   5.980   6.240   5.959  0.1371 -0.1123 -0.1139
  208POPC   C3B 2868   6.360   6.289   6.030  0.0859  0.2218 -0.1637
  208POPC   C4B 2869   6.459   6.240   6.463  0.0301 -0.0159 -0.3166
  209POPC   NC3 2870   5.370   8.056   4.410  0.0302  0.0484  0.0701
  209POPC   PO4 2871   5.396   8.218   4.848 -0.2904 -0.0754  0.1622
  209POPC   GL1 2872   5.452   8.540   5.143  0.2877 -0.1770  0.1844
  209POPC   GL2 2873   5.380   8.843   5.187 -0.0785 -0.0399  0.0994
  209POPC   C1A 2874   5.290   8.555   5.531  0.0871  0.1297  0.0022
  209POPC   D2A 2875   5.431   8.872   5.914 -0.0375  0.2300 -0.1898
  209POPC   C3A 2876   5.588   8.551   6.145 -0.1428 -0.0365  0.0022
  209POPC   C4A 2877   5.831   8.267   6.201 -0.0362 -0.2422  0.0518
  209POPC   C1B 2878   5.637   9.163   5.455 -0.0238  0.3594 -0.2587
  209POPC   C2B 2879   5.770   9.362   5.852 -0.2361 -0.0328  0.0790
  209POPC   C3B 2880   6.074   9.704   5.832 -0.3418  0.2350 -0.0718
  209POPC   C4B 2881   6.214  10.041   6.157  0.0468 -0.1019 -0.2219
  210POPC   NC3 2882   9.673   2.658   4.418  0.1500 -0.0998  0.0491
  210POPC   PO4 2883   9.184   2.536   4.600 -0.1881  0.1054 -0.0013
  210POPC   GL1 2884   8.913   2.521   5.031 -0.0271  0.1733 -0.1049
  210POPC   GL2 2885   8.600   2.392   5.078  0.3703  0.1081  0.3979
  210POPC   C1A 2886   8.928   2.522   5.433  0.0751 -0.0830  0.1767
  210POPC   D2A 2887   8.659   2.492   5.782 -0.2155  0.0447 -0.2151
  210POPC   C3A 2888   8.645   2.456   6.296  0.0580 -0.0889  0.4112
  210POPC   C4A 2889   8.798   2.421   6.745  0.1042 -0.2385 -0.0688
  210POPC   C1B 2890   8.317   2.562   5.368 -0.1713 -0.0767  0.1607
  210POPC   C2B 2891   8.565   2.932   5.582  0.0490 -0.1010  0.3296
  210POPC   C3B 2892   8.923   2.887   5.876 -0.0680 -0.1727  0.4221
  210POPC   C4B 2893   9.437   2.910   5.813  0.4547 -0.1275 -0.2688
  211POPC   NC3 2894   9.704   1.216   4.764  0.0831 -0.1823 -0.1559
  211POPC   PO4 2895   9.443   1.542   4.685 -0.0091  0.1382  0.0687
  211POPC   GL1 2896   9.654   1.613   5.079  0.1157  0.0370 -0.3009
  211POPC   GL2 2897   9.713   1.932   4.959 -0.1356  0.3058 -0.0766
  211POPC   C1A 2898   9.825   1.488   5.502  0.1657  0.0034  0.1746
  211POPC   D2A 2899  10.085   1.378   5.846  0.1084  0.1980  0.0920
  211POPC   C3A 2900  10.423   1.677   6.144  0.2733 -0.1010  0.0001
  211POPC   C4A 2901  10.427   2.010   6.439  0.1162 -0.1980 -0.1877
  211POPC   C1B 2902   9.574   2.063   5.328  0.0383 -0.0117  0.0285
  211POPC   C2B 2903   9.736   2.331   5.726  0.2445  0.0585 -0.4574
  211POPC   C3B 2904   9.751   2.624   6.052 -0.0484  0.0799 -0.0639
  211POPC   C4B 2905  10.130   2.740   6.149 -0.0555 -0.1138 -0.0979
  212POPC   NC3 2906   0.738   8.840   5.194 -0.0466  0.0147 -0.1180
  212POPC   PO4 2907   0.476   8.544   4.877  0.1299 -0.2476 -0.1791
  212POPC   GL1 2908   0.301   8.063   5.096 -0.1771  0.0545 -0.1602
  212POPC   GL2 2909   0.513   7.762   5.096 -0.0713  0.0832 -0.0134
  212POPC   C1A 2910   0.281   7.960   5.563  0.0554  0.0783  0.1072
  212POPC   D2A 2911   0.463   8.382   5.827 -0.3065  0.0248 -0.2626
  212POPC   C3A 2912   0.343   8.685   6.156  0.2581  0.0371 -0.1077
  212POPC   C4A 2913   0.069   8.861   6.369  0.3593 -0.1483 -0.0448
  212POPC   C1B 2914   0.353   7.469   5.354 -0.3288 -0.0249  0.0941
  212POPC   C2B 2915   0.582   7.282   5.714 -0.2125 -0.0202  0.3207
  212POPC   C3B 2916   0.766   7.193   6.026 -0.0408  0.4004 -0.0522
  212POPC   C4B 2917   0.985   6.907   6.208  0.0860 -0.1129  0.0378
  213POPC   NC3 2918   8.117   4.276   4.431 -0.0042 -0.2549 -0.2678
  213POPC   PO4 2919   8.508   4.165   4.355  0.0000 -0.0700  0.2826
  213POPC   GL1 2920   8.345   4.027   4.818 -0.1213  0.1517 -0.1712
  213POPC   GL2 2921   8.017   4.226   4.972  0.0033  0.0045 -0.4383
  213POPC   C1A 2922   8.494   4.022   5.207 -0.0553  0.1758 -0.0597
  213POPC   D2A 2923   8.359   3.973   5.643 -0.0203  0.2360 -0.4109
  213POPC   C3A 2924   8.516   4.321   5.902 -0.1779  0.1961 -0.3089
  213POPC   C4A 2925   8.769   4.550   6.145  0.3126  0.2695  0.0318
  213POPC   C1B 2926   8.044   3.784   5.163 -0.1169 -0.1832 -0.1038
  213POPC   C2B 2927   7.775   3.519   5.212  0.0753  0.0597  0.0441
  213POPC   C3B 2928   7.370   3.537   5.479  0.0315 -0.0703 -0.2302
  213POPC   C4B 2929   7.094   3.332   5.885 -0.0859 -0.0061  0.2202
  214POPC   NC3 2930   4.833   5.408   4.862  0.0034  0.1320 -0.1027
  214POPC   PO4 2931   4.849   5.231   4.386 -0.2536 -0.1307 -0.1823
  214POPC   GL1 2932   4.459   5.183   4.590  0.0487  0.4145 -0.1310
  214POPC   GL2 2933   4.209   4.940   4.381  0.0275  0.0350 -0.1241
  214POPC   C1A 2934   4.383   4.880   4.920 -0.0745 -0.1457 -0.1062
  214POPC   D2A 2935   4.125   4.607   5.117 -0.1489  0.1474  0.0306
  214POPC   C3A 2936   4.351   4.720   5.547  0.0741 -0.0981 -0.0802
  214POPC   C4A 2937   4.587   4.754   5.925  0.2458 -0.1090  0.1950
  214POPC   C1B 2938   3.959   5.084   4.694 -0.1129  0.3672 -0.0080
  214POPC   C2B 2939   3.615   5.213   4.956  0.1063  0.4317  0.2839
  214POPC   C3B 2940   3.386   5.175   5.309 -0.0271  0.0241 -0.1891
  214POPC   C4B 2941   3.207   5.364   5.782 -0.0299  0.1217  0.2091
  215POPC   NC3 2942   9.556   5.609   4.529 -0.5264  0.3180  0.1165
  215POPC   PO4 2943   9.920   5.307   4.288  0.0792 -0.1359 -0.1405
  215POPC   GL1 2944   9.721   5.165   4.657  0.0566  0.1203  0.1220
  215POPC   GL2 2945  10.003   4.970   4.791  0.0120 -0.0337  0.1303
  215POPC   C1A 2946   9.727   5.276   5.160  0.0241 -0.1026 -0.1072
  215POPC   D2A 2947   9.740   5.283   5.564 -0.0018 -0.2187 -0.1414
  215POPC   C3A 2948  10.174   5.230   5.738  0.1436  0.0451 -0.0367
  215POPC   C4A 2949  10.437   5.459   5.890 -0.1055 -0.0347  0.0576
  215POPC   C1B 2950   9.803   4.832   5.084 -0.0052  0.4519  0.3376
  215POPC   C2B 2951   9.764   4.782   5.552  0.0948  0.2762  0.1208
  215POPC   C3B 2952   9.573   4.500   5.872 -0.1596  0.1740  0.0289
  215POPC   C4B 2953   9.298   4.189   5.985  0.0796 -0.0111  0.0061
  216POPC   NC3 2954   3.239   1.784   4.242 -0.1048 -0.3987  0.2586
  216POPC   PO4 2955   3.162   1.423   4.432 -0.1055 -0.2412  0.0154
  216POPC   GL1 2956   3.375   1.740   4.771  0.4136 -0.0399  0.1092
  216POPC   GL2 2957   3.208   1.827   5.008  0.2541 -0.1982  0.1388
  216POPC   C1A 2958   3.628   1.721   5.122 -0.2869 -0.2150 -0.0697
  216POPC   D2A 2959   3.877   1.578   5.399 -0.1171  0.2782  0.0800
  216POPC   C3A 2960   3.816   1.364   5.840  0.0545 -0.1436  0.1255
  216POPC   C4A 2961   3.788   1.146   6.222 -0.1111  0.1021  0.1731
  216POPC   C1B 2962   3.191   1.926   5.427  0.1726 -0.0998 -0.1567
  216POPC   C2B 2963   2.865   1.835   5.840 -0.2456  0.0410  0.5040
  216POPC   C3B 2964   2.988   1.753   6.344  0.5422 -0.0262 -0.0198
  216POPC   C4B 2965   3.392   1.504   6.410 -0.0004 -0.1385  0.1522
  217POPC   NC3 2966   8.444   5.079   3.824  0.0529 -0.1294  0.2315
  217POPC   PO4 2967   8.440   5.122   4.295 -0.0554  0.0312  0.2932
  217POPC   GL1 2968   8.433   5.059   4.822  0.3144  0.1280  0.1298
  217POPC   GL2 2969   8.704   5.069   5.124  0.2253  0.0271  0.1306
  217POPC   C1A 2970   8.301   4.736   5.081  0.2372 -0.2435  0.2565
  217POPC   D2A 2971   8.423   4.496   5.393  0.0061  0.0889 -0.1176
  217POPC   C3A 2972   8.709   4.349   5.501 -0.2082 -0.3151  0.3436
  217POPC   C4A 2973   8.887   4.069   5.752  0.1072 -0.0583  0.1893
  217POPC   C1B 2974   8.891   4.889   5.448  0.5730  0.1619 -0.0595
  217POPC   C2B 2975   9.101   4.650   5.772  0.2091 -0.0569  0.3676
  217POPC   C3B 2976   9.241   4.651   6.264  0.0441  0.0461  0.2893
  217POPC   C4B 2977   9.671   4.744   6.401  0.4886 -0.0880 -0.1297
  218POPC   NC3 2978   9.805   9.577   5.087 -0.1141 -0.0692  0.0268
  218POPC   PO4 2979   9.881   9.948   5.035  0.0079 -0.0389  0.1892
  218POPC   GL1 2980  10.114   9.872   5.393  0.2876 -0.1378 -0.2639
  218POPC   GL2 2981   9.766   9.819   5.598  0.1641  0.0397  0.2104
  218POPC   C1A 2982  10.186   9.931   5.757  0.0340 -0.0571  0.0634
  218POPC   D2A 2983  10.441   9.907   6.113 -0.3361  0.1301 -0.1739
  218POPC   C3A 2984  10.683  10.040   6.435 -0.1516 -0.1215  0.0432
  218POPC   C4A 2985  11.042  10.215   6.791 -0.1661 -0.0433 -0.0706
  218POPC   C1B 2986  10.126   9.473   5.772 -0.1823 -0.0081  0.2117
  218POPC   C2B 2987  10.132   9.390   6.176 -0.1072  0.2030 -0.0502
  218POPC   C3B 2988   9.877   9.309   6.511  0.0764 -0.2824  0.2817
  218POPC   C4B 2989   9.432   9.178   6.440  0.0403  0.0647 -0.0935
  219POPC   NC3 2990   4.723   1.518   4.915  0.4941  0.1604 -0.1194
  219POPC   PO4 2991   4.735   1.030   4.854 -0.0159  0.1959  0.0056
  219POPC   GL1 2992   4.587   1.046   5.283 -0.0935  0.0206 -0.1624
  219POPC   GL2 2993   4.808   0.885   5.527  0.3094  0.0362 -0.4268
  219POPC   C1A 2994   4.412   1.323   5.620  0.1517 -0.1427  0.0899
  219POPC   D2A 2995   4.338   1.414   6.022  0.1080 -0.1029 -0.3425
  219POPC   C3A 2996   4.762   1.307   6.201  0.1930  0.4114 -0.2016
  219POPC   C4A 2997   5.115   1.383   6.471  0.1076  0.2184 -0.0213
  219POPC   C1B 2998   5.270   0.790   5.599 -0.0453  0.2143 -0.3708
  219POPC   C2B 2999   5.638   0.855   5.822 -0.2458  0.4398 -0.1931
  219POPC   C3B 3000   6.083   0.903   5.803  0.2705  0.0327 -0.0168
  219POPC   C4B 3001   6.546   0.972   5.805 -0.0244 -0.1442  0.0779
  220POPC   NC3 3002   1.520   2.926   3.532 -0.0512  0.1325  0.0395
  220POPC   PO4 3003   1.723   3.306   3.378 -0.0200 -0.6581 -0.0681
  220POPC   GL1 3004   1.563   3.486   3.725  0.0563 -0.0383 -0.0473
  220POPC   GL2 3005   1.262   3.470   3.848 -0.2792  0.4425 -0.2160
  220POPC   C1A 3006   1.665   3.689   4.077 -0.1595 -0.1352  0.0384
  220POPC   D2A 3007   1.485   3.973   4.381  0.1196 -0.1082  0.4054
  220POPC   C3A 3008   1.660   3.972   4.746  0.0778  0.1085 -0.1555
  220POPC   C4A 3009   1.807   3.982   5.198 -0.0343  0.1005 -0.1893
  220POPC   C1B 3010   1.013   3.490   4.181  0.0558  0.0073  0.1590
  220POPC   C2B 3011   0.888   3.651   4.526 -0.2079 -0.2588 -0.0269
  220POPC   C3B 3012   0.522   3.843   4.610 -0.3049 -0.0121  0.0380
  220POPC   C4B 3013   0.325   4.115   4.893  0.0059  0.0648  0.2120
  221POPC   NC3 3014   5.608   1.196   4.639  0.0436 -0.0882 -0.1346
  221POPC   PO4 3015   5.827   0.791   4.775  0.0894 -0.2230  0.3254
  221POPC   GL1 3016   5.758   0.951   5.162 -0.0263  0.2483  0.1209
  221POPC   GL2 3017   5.942   1.267   5.208 -0.1043  0.1643  0.0222
  221POPC   C1A 3018   5.559   1.254   5.482  0.2841 -0.0954 -0.1303
  221POPC   D2A 3019   5.683   1.410   5.942 -0.0725 -0.1158  0.1700
  221POPC   C3A 3020   6.007   1.222   6.245  0.2845 -0.0379 -0.0720
  221POPC   C4A 3021   6.376   0.843   6.221  0.0527  0.0911 -0.1147
  221POPC   C1B 3022   6.225   1.365   5.609  0.0518 -0.3773 -0.2230
  221POPC   C2B 3023   6.362   1.482   5.997 -0.1553  0.2493  0.2020
  221POPC   C3B 3024   6.519   1.692   6.383 -0.0804 -0.1959  0.3313
  221POPC   C4B 3025   6.574   1.623   6.943  0.3061  0.1729  0.3109
  222POPC   NC3 3026   5.179   7.856   5.083 -0.3766  0.1127  0.3400
  222POPC   PO4 3027   4.727   7.907   5.002  0.1976  0.1267 -0.3138
  222POPC   GL1 3028   4.543   7.998   5.403 -0.0346 -0.0589 -0.0025
  222POPC   GL2 3029   4.858   7.819   5.559 -0.1628 -0.1473  0.0200
  222POPC   C1A 3030   4.441   8.129   5.813  0.0696 -0.0048  0.2969
  222POPC   D2A 3031   4.398   8.163   6.255 -0.3097 -0.1690  0.3042
  222POPC   C3A 3032   4.739   8.226   6.340  0.0283  0.0959  0.1410
  222POPC   C4A 3033   4.941   8.037   6.630 -0.0309 -0.2100  0.1015
  222POPC   C1B 3034   4.922   8.267   5.840  0.1429  0.1735 -0.0103
  222POPC   C2B 3035   5.091   8.563   6.084  0.2454  0.0818 -0.3289
  222POPC   C3B 3036   5.037   8.637   6.499  0.0091  0.0215  0.0928
  222POPC   C4B 3037   4.866   8.572   6.821  0.1087  0.0096 -0.0839
  223POPC   NC3 3038   2.763   1.554   4.094 -0.0282 -0.1020  0.1228
  223POPC   PO4 3039   2.721   2.036   4.197 -0.0260  0.1705 -0.1752
  223POPC   GL1 3040   2.635   2.323   4.589  0.0837  0.1560  0.0496
  223POPC   GL2 3041   2.818   2.308   4.948  0.1825 -0.2469 -0.3346
  223POPC   C1A 3042   2.358   2.499   4.769  0.0054  0.1108 -0.3010
  223POPC   D2A 3043   1.884   2.529   4.770 -0.4467 -0.1123  0.0395
  223POPC   C3A 3044   1.637   2.511   5.084 -0.0461  0.1451 -0.1613
  223POPC   C4A 3045   1.252   2.647   5.321 -0.1098 -0.0525 -0.0800
  223POPC   C1B 3046   2.638   1.953   5.021  0.2569 -0.0971 -0.0688
  223POPC   C2B 3047   2.181   1.762   5.067  0.2736  0.2626  0.1875
  223POPC   C3B 3048   1.852   1.995   4.949  0.1527 -0.2972  0.0051
  223POPC   C4B 3049   1.439   2.058   5.216  0.2451 -0.0302 -0.1441
  224POPC   NC3 3050   6.705   3.267   3.668 -0.0523 -0.2492  0.1235
  224POPC   PO4 3051   6.708   3.487   4.072 -0.3442  0.2443  0.0590
  224POPC   GL1 3052   6.728   3.787   4.490  0.0300  0.0015  0.0478
  224POPC   GL2 3053   7.023   3.783   4.619  0.1149 -0.1098  0.1083
  224POPC   C1A 3054   6.351   3.589   4.700  0.2843 -0.1846  0.1066
  224POPC   D2A 3055   6.288   3.757   5.223 -0.1358 -0.1310  0.1223
  224POPC   C3A 3056   6.062   3.550   5.605 -0.2762  0.2714  0.4254
  224POPC   C4A 3057   5.982   3.185   5.846  0.2560 -0.3410  0.0071
  224POPC   C1B 3058   7.124   3.806   5.035  0.0582 -0.0507  0.2086
  224POPC   C2B 3059   7.127   4.032   5.376  0.3178 -0.2583  0.2094
  224POPC   C3B 3060   7.147   3.948   5.793 -0.5509 -0.1045  0.2630
  224POPC   C4B 3061   7.430   3.644   6.002  0.2855 -0.0975  0.2509
  225POPC   NC3 3062   8.880   4.952   4.552 -0.0698  0.1651  0.1584
  225POPC   PO4 3063   9.166   5.293   4.583  0.0402 -0.1602 -0.2259
  225POPC   GL1 3064   9.009   5.485   4.942  0.3191 -0.2778 -0.1752
  225POPC   GL2 3065   9.189   5.484   5.121  0.0036 -0.2335  0.0592
  225POPC   C1A 3066   8.714   5.558   5.124  0.1287  0.0935  0.0682
  225POPC   D2A 3067   8.410   5.422   5.485 -0.0386 -0.3081 -0.1175
  225POPC   C3A 3068   8.433   5.406   5.955 -0.3071  0.1955 -0.1494
  225POPC   C4A 3069   8.578   5.504   6.350  0.0857  0.1061  0.0011
  225POPC   C1B 3070   8.938   5.543   5.550 -0.0546  0.1365 -0.0358
  225POPC   C2B 3071   8.899   5.751   5.972  0.3197 -0.1795 -0.0361
  225POPC   C3B 3072   8.969   5.845   6.420 -0.0760 -0.0903  0.3174
  225POPC   C4B 3073   9.054   5.905   6.898 -0.1974  0.0985 -0.0113
  226POPC   NC3 3074   4.547   6.398   4.444 -0.1012 -0.0916  0.1386
  226POPC   PO4 3075   5.026   6.341   4.460 -0.3984  0.1416  0.1613
  226POPC   GL1 3076   4.967   6.187   4.839  0.0031 -0.0105  0.0378
  226POPC   GL2 3077   4.584   6.291   4.928  0.1278  0.1610  0.0699
  226POPC   C1A 3078   5.037   6.234   5.306  0.0552  0.1596 -0.0493
  226POPC   D2A 3079   5.009   6.250   5.729  0.0565  0.0087  0.0572
  226POPC   C3A 3080   4.822   5.837   5.999 -0.0164 -0.0131  0.0651
  226POPC   C4A 3081   4.479   5.672   6.004 -0.4528 -0.1968 -0.2163
  226POPC   C1B 3082   4.212   6.087   5.093  0.3234 -0.0495 -0.0424
  226POPC   C2B 3083   3.831   6.027   5.354 -0.1728 -0.1181 -0.0568
  226POPC   C3B 3084   3.400   6.218   5.514 -0.1642 -0.0071  0.0692
  226POPC   C4B 3085   3.096   6.496   5.456 -0.1084 -0.2460  0.0751
  227POPC   NC3 3086   5.094   4.220   4.085  0.0930  0.0062  0.0674
  227POPC   PO4 3087   4.897   4.582   4.224 -0.0599  0.0644 -0.0952
  227POPC   GL1 3088   4.773   4.757   4.541 -0.3229 -0.0133  0.1292
  227POPC   GL2 3089   4.909   4.910   4.838  0.1456  0.3019  0.0447
  227POPC   C1A 3090   4.739   4.465   4.862  0.2374 -0.1090 -0.1086
  227POPC   D2A 3091   4.614   4.267   5.278  0.2052  0.0608 -0.1458
  227POPC   C3A 3092   4.159   3.965   5.372 -0.0604  0.2461 -0.0811
  227POPC   C4A 3093   3.857   3.930   5.761  0.1014 -0.1357 -0.0231
  227POPC   C1B 3094   4.831   4.895   5.264 -0.1876  0.2763 -0.1148
  227POPC   C2B 3095   5.039   4.891   5.662 -0.1501  0.3861  0.1461
  227POPC   C3B 3096   5.408   4.573   5.724  0.2725 -0.2725  0.2875
  227POPC   C4B 3097   5.645   4.360   5.885  0.2300 -0.0875  0.2105
  228POPC   NC3 3098   0.671   5.774   3.865  0.1478  0.1515 -0.3151
  228POPC   PO4 3099   1.106   5.929   4.003 -0.0330 -0.0904  0.0274
  228POPC   GL1 3100   1.492   6.035   4.262 -0.2657 -0.1649  0.1358
  228POPC   GL2 3101   1.681   5.992   3.931 -0.1650 -0.1108  0.0704
  228POPC   C1A 3102   1.829   5.937   4.528  0.2038 -0.1253 -0.0624
  228POPC   D2A 3103   2.074   5.903   4.908  0.1038  0.0770  0.0987
  228POPC   C3A 3104   2.364   5.631   4.979  0.1243  0.3639 -0.1286
  228POPC   C4A 3105   2.329   5.178   5.162 -0.0205  0.0836 -0.3054
  228POPC   C1B 3106   2.102   5.769   4.089  0.4848  0.0377  0.1412
  228POPC   C2B 3107   2.402   5.538   4.061  0.2123 -0.3349  0.0194
  228POPC   C3B 3108   2.741   5.291   3.942 -0.3212 -0.0269 -0.0644
  228POPC   C4B 3109   3.157   5.131   4.012  0.1335 -0.2725  0.0101
  229POPC   NC3 3110   8.748   6.496   4.737  0.0894 -0.0612 -0.0774
  229POPC   PO4 3111   9.099   6.440   4.693  0.0618  0.1462 -0.0706
  229POPC   GL1 3112   9.508   6.302   4.961  0.1179  0.1169  0.2525
  229POPC   GL2 3113   9.484   6.089   5.059 -0.0175  0.1463  0.2133
  229POPC   C1A 3114  10.007   6.246   5.195  0.3356  0.3194  0.2591
  229POPC   D2A 3115  10.241   6.435   5.514  0.0194 -0.2539  0.1791
  229POPC   C3A 3116  10.162   6.307   5.901  0.1509 -0.1648  0.2673
  229POPC   C4A 3117  10.198   6.277   6.364 -0.0510 -0.0190 -0.2169
  229POPC   C1B 3118   9.567   5.802   5.300  0.2663  0.0366  0.0023
  229POPC   C2B 3119   9.364   5.697   5.681  0.0163 -0.0736  0.2261
  229POPC   C3B 3120   9.432   5.545   6.060  0.1513  0.1591 -0.1467
  229POPC   C4B 3121   9.480   5.655   6.525  0.2175 -0.1219  0.1281
  230POPC   NC3 3122   6.091   2.573   3.785  0.0160 -0.0990 -0.0674
  230POPC   PO4 3123   6.016   2.732   4.226  0.3334  0.0863  0.4464
  230POPC   GL1 3124   5.928   2.776   4.621 -0.0949  0.1564 -0.3214
  230POPC   GL2 3125   5.720   3.081   4.699 -0.0275 -0.0501  0.0821
  230POPC   C1A 3126   5.683   2.725   4.995  0.1155  0.3109 -0.2956
  230POPC   D2A 3127   5.363   2.705   5.339 -0.1996  0.0933  0.2154
  230POPC   C3A 3128   5.416   2.923   5.649 -0.1142 -0.1578 -0.0333
  230POPC   C4A 3129   5.471   3.178   5.985  0.2051 -0.4133 -0.0638
  230POPC   C1B 3130   5.490   3.181   5.096  0.0995 -0.0351 -0.0862
  230POPC   C2B 3131   5.115   3.179   5.360 -0.1897 -0.1562 -0.0011
  230POPC   C3B 3132   5.036   3.457   5.684  0.0323 -0.0831 -0.0998
  230POPC   C4B 3133   5.014   3.782   6.112  0.2573  0.0091  0.0445
  231POPC   NC3 3134   9.279   7.121   4.371  0.0931  0.0688  0.4224
  231POPC   PO4 3135   9.085   6.947   4.764 -0.1624  0.0168 -0.1843
  231POPC   GL1 3136   9.293   6.824   5.186 -0.0886  0.0282 -0.2097
  231POPC   GL2 3137   9.244   7.094   5.262  0.0754 -0.3239  0.1522
  231POPC   C1A 3138   9.333   6.490   5.520 -0.1668 -0.1674 -0.0638
  231POPC   D2A 3139   9.687   6.199   5.690 -0.1805  0.4493 -0.0726
  231POPC   C3A 3140   9.706   6.157   6.194  0.0749 -0.1633  0.1907
  231POPC   C4A 3141   9.948   5.821   6.486  0.0562  0.0600 -0.1716
  231POPC   C1B 3142   9.150   6.952   5.692 -0.0655  0.3590 -0.0319
  231POPC   C2B 3143   8.959   6.761   6.034 -0.0116 -0.0406 -0.0329
  231POPC   C3B 3144   8.887   6.802   6.518 -0.2920 -0.0361 -0.0545
  231POPC   C4B 3145   8.541   7.103   6.689  0.1222  0.0564 -0.1954
  232POPC   NC3 3146   0.716   8.083   4.729 -0.0115 -0.1229 -0.1812
  232POPC   PO4 3147   0.868   7.693   4.685 -0.0336  0.2148  0.0431
  232POPC   GL1 3148   1.003   7.478   5.064  0.1678  0.6599  0.0995
  232POPC   GL2 3149   0.841   7.140   4.936 -0.2949 -0.2158  0.2479
  232POPC   C1A 3150   1.011   7.405   5.519 -0.0986 -0.0126 -0.0368
  232POPC   D2A 3151   0.983   7.649   5.863 -0.0862 -0.0324  0.2007
  232POPC   C3A 3152   1.270   7.683   6.151 -0.0621  0.0063 -0.0221
  232POPC   C4A 3153   1.298   7.930   6.536 -0.0998  0.0005 -0.0437
  232POPC   C1B 3154   0.722   6.952   5.375 -0.1192  0.1204 -0.0506
  232POPC   C2B 3155   0.649   6.726   5.788 -0.1942 -0.3491 -0.1443
  232POPC   C3B 3156   0.547   6.642   6.181  0.1530  0.0689  0.1718
  232POPC   C4B 3157   0.574   6.746   6.682  0.1690  0.3090  0.1289
  233POPC   NC3 3158   8.327   3.689   4.484  0.1767 -0.2695  0.1000
  233POPC   PO4 3159   8.546   3.385   4.715  0.2455  0.0376  0.1836
  233POPC   GL1 3160   8.589   3.523   5.080 -0.3290 -0.1359 -0.1058
  233POPC   GL2 3161   8.410   3.532   5.364 -0.1204  0.1962 -0.0667
  233POPC   C1A 3162   8.849   3.672   5.463 -0.0295  0.1631 -0.2945
  233POPC   D2A 3163   9.167   3.654   5.702  0.0859  0.4083 -0.2200
  233POPC   C3A 3164   9.134   3.308   6.083 -0.0474 -0.0495 -0.3383
  233POPC   C4A 3165   9.471   2.998   6.324 -0.0938 -0.2936  0.1239
  233POPC   C1B 3166   8.121   3.532   5.658 -0.1093  0.0502 -0.0176
  233POPC   C2B 3167   7.635   3.235   5.930 -0.3373 -0.0443  0.2493
  233POPC   C3B 3168   7.301   3.005   6.210 -0.2708  0.1440 -0.0493
  233POPC   C4B 3169   7.382   2.869   6.586  0.1250  0.3913 -0.3195
  234POPC   NC3 3170   3.113   8.602   4.819  0.0732 -0.0953 -0.1533
  234POPC   PO4 3171   3.545   8.762   4.896 -0.0538  0.1964 -0.1215
  234POPC   GL1 3172   3.434   8.817   5.323  0.1028  0.3203 -0.0792
  234POPC   GL2 3173   3.560   8.592   5.525 -0.2558 -0.1381  0.2259
  234POPC   C1A 3174   3.176   8.958   5.684  0.0307 -0.0382 -0.2881
  234POPC   D2A 3175   3.231   9.075   6.081  0.3382 -0.1590 -0.3262
  234POPC   C3A 3176   2.816   8.911   6.297 -0.0958  0.2812 -0.0387
  234POPC   C4A 3177   2.874   8.464   6.392  0.0311 -0.2582  0.3801
  234POPC   C1B 3178   3.648   8.875   5.932  0.1728  0.1165 -0.0635
  234POPC   C2B 3179   3.587   8.816   6.345 -0.0057  0.0490  0.2589
  234POPC   C3B 3180   3.212   8.773   6.589  0.0169 -0.1078  0.0274
  234POPC   C4B 3181   2.855   8.786   6.791 -0.3928  0.2188 -0.1794
  235POPC   NC3 3182   4.087   0.938   4.834  0.0976 -0.1727 -0.0689
  235POPC   PO4 3183   3.560   0.991   4.733  0.5402  0.1557 -0.1690
  235POPC   GL1 3184   3.404   1.256   5.038  0.0835 -0.3636  0.3046
  235POPC   GL2 3185   3.034   1.293   5.063  0.0278  0.0093 -0.0456
  235POPC   C1A 3186   3.382   1.493   5.495  0.2785  0.0405  0.0118
  235POPC   D2A 3187   3.316   1.556   5.921  0.0977 -0.1660  0.0272
  235POPC   C3A 3188   3.624   1.852   6.151  0.1100 -0.0025 -0.0882
  235POPC   C4A 3189   3.778   2.361   6.112 -0.1575  0.0413 -0.3744
  235POPC   C1B 3190   2.881   1.380   5.523  0.0163  0.1193 -0.0576
  235POPC   C2B 3191   2.755   1.391   5.953 -0.2892 -0.1313  0.3157
  235POPC   C3B 3192   2.456   1.578   6.306  0.1654  0.1610 -0.2120
  235POPC   C4B 3193   2.296   2.098   6.288  0.0639  0.6131 -0.0914
  236POPC   NC3 3194   8.317   0.474   4.823  0.2802  0.1524  0.0791
  236POPC   PO4 3195   8.107   0.920   4.786 -0.1059  0.1008 -0.1594
  236POPC   GL1 3196   8.211   0.805   5.187  0.1117  0.0991  0.1387
  236POPC   GL2 3197   8.469   0.882   5.255 -0.2231  0.0751  0.2311
  236POPC   C1A 3198   8.172   0.813   5.644 -0.0127  0.2029  0.2343
  236POPC   D2A 3199   7.966   0.885   6.003  0.0687 -0.0140 -0.1114
  236POPC   C3A 3200   7.650   0.554   6.017  0.0125 -0.1311 -0.0583
  236POPC   C4A 3201   7.613   0.101   5.953  0.1707  0.1711 -0.2468
  236POPC   C1B 3202   8.774   0.838   5.623  0.1719  0.0775 -0.4091
  236POPC   C2B 3203   8.945   1.120   5.889 -0.0725  0.4444 -0.1722
  236POPC   C3B 3204   8.983   1.330   6.245 -0.0757  0.3839  0.0879
  236POPC   C4B 3205   8.944   1.583   6.594 -0.0712 -0.1689 -0.2887
  237POPC   NC3 3206   3.471   3.102   3.466 -0.1545 -0.3357  0.0637
  237POPC   PO4 3207   3.074   3.144   3.407 -0.5969  0.4161 -0.0698
  237POPC   GL1 3208   3.178   3.217   3.794  0.2168 -0.1687 -0.1033
  237POPC   GL2 3209   3.156   2.973   4.155  0.3510 -0.1234 -0.0887
  237POPC   C1A 3210   3.417   3.325   4.272 -0.2451 -0.1770  0.0545
  237POPC   D2A 3211   3.358   3.590   4.636  0.0317  0.4034 -0.0031
  237POPC   C3A 3212   3.299   3.296   4.938 -0.0773  0.2280  0.2440
  237POPC   C4A 3213   3.321   3.342   5.376  0.1091  0.0773  0.0084
  237POPC   C1B 3214   3.242   2.972   4.627  0.0408 -0.1302  0.0138
  237POPC   C2B 3215   3.179   2.666   4.877 -0.0360 -0.2028 -0.2461
  237POPC   C3B 3216   3.028   2.616   5.304 -0.1477 -0.3088  0.0030
  237POPC   C4B 3217   3.051   2.871   5.739  0.0549  0.3368  0.1832
  238POPC   NC3 3218   6.768   7.417   4.621  0.0256 -0.1626  0.0085
  238POPC   PO4 3219   7.056   7.082   4.631  0.1643  0.0750 -0.1169
  238POPC   GL1 3220   7.235   7.172   5.019 -0.0780 -0.0104  0.0740
  238POPC   GL2 3221   7.220   6.819   5.100  0.1168  0.1555 -0.2685
  238POPC   C1A 3222   7.625   7.099   5.284 -0.0708 -0.1115 -0.0389
  238POPC   D2A 3223   7.896   6.776   5.539  0.0099  0.0636 -0.0824
  238POPC   C3A 3224   7.928   6.866   6.011  0.1997  0.3054  0.1186
  238POPC   C4A 3225   8.179   6.900   6.380 -0.0636 -0.0627  0.1170
  238POPC   C1B 3226   7.054   6.859   5.515 -0.3714  0.1227  0.1674
  238POPC   C2B 3227   6.757   7.067   5.607  0.2521 -0.3056 -0.1405
  238POPC   C3B 3228   6.381   7.119   5.748 -0.2991  0.0637 -0.1133
  238POPC   C4B 3229   6.383   7.013   6.229 -0.0379 -0.0224 -0.2094
  239POPC   NC3 3230   4.120   0.549   4.212  0.1874 -0.1281 -0.0448
  239POPC   PO4 3231   3.854   0.595   4.596  0.2250  0.1076  0.2043
  239POPC   GL1 3232   3.898   0.510   4.981 -0.0904 -0.2414 -0.2718
  239POPC   GL2 3233   3.804   0.654   5.264 -0.1768 -0.2367  0.1160
  239POPC   C1A 3234   4.294   0.602   5.331  0.1475 -0.1655  0.3068
  239POPC   D2A 3235   4.455   0.587   5.724 -0.2185  0.0993  0.0307
  239POPC   C3A 3236   4.703   0.835   6.019 -0.3262 -0.1647 -0.2036
  239POPC   C4A 3237   4.918   0.833   6.409  0.0344  0.0496 -0.0945
  239POPC   C1B 3238   3.753   0.646   5.691 -0.0016 -0.1150  0.1280
  239POPC   C2B 3239   3.612   0.606   6.132  0.1905  0.2783  0.1037
  239POPC   C3B 3240   3.430   0.676   6.498 -0.0536  0.3288 -0.1418
  239POPC   C4B 3241   3.450   1.086   6.705  0.0279 -0.0153  0.0516
  240POPC   NC3 3242   2.261   0.613   5.202 -0.2655  0.4524 -0.0146
  240POPC   PO4 3243   2.100   0.210   5.186  0.1739 -0.0004  0.2309
  240POPC   GL1 3244   2.331   0.249   5.532  0.1697  0.1307  0.0899
  240POPC   GL2 3245   2.325  -0.123   5.623 -0.0440  0.0586 -0.1027
  240POPC   C1A 3246   2.508   0.516   5.944 -0.2747  0.1214  0.3307
  240POPC   D2A 3247   2.532   0.900   6.151  0.1883 -0.3113  0.0651
  240POPC   C3A 3248   2.419   0.836   6.611  0.2032  0.2436  0.0189
  240POPC   C4A 3249   2.409   0.560   6.926  0.1660  0.2722 -0.1668
  240POPC   C1B 3250   2.575  -0.067   5.863 -0.0052 -0.2594 -0.1922
  240POPC   C2B 3251   2.810  -0.004   6.142 -0.1786 -0.0676 -0.2587
  240POPC   C3B 3252   3.350   0.128   6.170  0.3347 -0.1529 -0.0021
  240POPC   C4B 3253   3.755   0.033   6.381  0.0440  0.1243  0.1878
  241POPC   NC3 3254   8.769   7.787   4.599  0.1195 -0.1202  0.2464
  241POPC   PO4 3255   9.170   7.733   4.304  0.2346 -0.2176  0.0955
  241POPC   GL1 3256   9.111   7.477   4.723  0.2747 -0.1057 -0.1558
  241POPC   GL2 3257   8.853   7.338   4.892 -0.4178 -0.6207  0.2689
  241POPC   C1A 3258   9.289   7.558   5.119 -0.0061 -0.1903  0.2814
  241POPC   D2A 3259   9.336   7.785   5.410 -0.1350 -0.1285 -0.3824
  241POPC   C3A 3260   9.477   7.936   5.778  0.1474  0.1356  0.1290
  241POPC   C4A 3261   9.206   8.200   6.151  0.0392 -0.5098  0.3016
  241POPC   C1B 3262   8.875   7.310   5.421 -0.2196  0.0545  0.1049
  241POPC   C2B 3263   8.824   7.266   5.873 -0.1832 -0.0582 -0.2166
  241POPC   C3B 3264   8.361   7.356   5.997  0.1497 -0.1497 -0.0315
  241POPC   C4B 3265   7.905   7.403   6.197  0.0012 -0.3373  0.1182
  242POPC   NC3 3266   0.825   9.519   4.898  0.3482  0.1353 -0.0512
  242POPC   PO4 3267   0.913   9.878   4.784  0.6670  0.0296 -0.0935
  242POPC   GL1 3268   0.800   9.940   5.210 -0.1157  0.0086  0.0275
  242POPC   GL2 3269   0.704   9.741   5.391  0.0143 -0.0421  0.0766
  242POPC   C1A 3270   0.624  10.175   5.557  0.1701  0.1817 -0.0158
  242POPC   D2A 3271   0.674  10.446   5.975  0.1975 -0.0101 -0.1239
  242POPC   C3A 3272   0.367  10.818   5.860  0.2495  0.0360 -0.1703
  242POPC   C4A 3273   0.160  10.977   5.483 -0.2530 -0.1183  0.0367
  242POPC   C1B 3274   0.690   9.549   5.810 -0.0038 -0.1404 -0.0335
  242POPC   C2B 3275   0.785   9.497   6.178  0.1423 -0.0612  0.3520
  242POPC   C3B 3276   0.580   9.537   6.580 -0.1267  0.0840 -0.0015
  242POPC   C4B 3277   0.429   9.926   6.783 -0.1204 -0.0569 -0.2214
  243POPC   NC3 3278   6.524   9.246   4.561 -0.1578  0.0701 -0.4304
  243POPC   PO4 3279   6.643   9.692   4.510  0.2534 -0.2666  0.0469
  243POPC   GL1 3280   6.681   9.722   4.978  0.0117  0.0538  0.0635
  243POPC   GL2 3281   6.535   9.943   5.075 -0.0022 -0.0832 -0.0179
  243POPC   C1A 3282   6.882   9.501   5.348  0.2869  0.0494 -0.0990
  243POPC   D2A 3283   7.123   9.546   5.774 -0.1504 -0.1109  0.2584
  243POPC   C3A 3284   7.485   9.510   5.945 -0.0561  0.1639  0.1334
  243POPC   C4A 3285   7.760   9.658   6.307  0.2269 -0.0925 -0.0023
  243POPC   C1B 3286   6.394   9.583   5.372  0.1057  0.0801  0.0041
  243POPC   C2B 3287   6.501   9.455   5.697  0.1098  0.0987 -0.0098
  243POPC   C3B 3288   6.216   9.288   6.069 -0.1666 -0.3351 -0.0681
  243POPC   C4B 3289   6.083   9.533   6.389 -0.0351 -0.3413  0.2070
  244POPC   NC3 3290   1.829   8.886   4.705 -0.0771 -0.0079  0.2556
  244POPC   PO4 3291   1.640   9.311   4.974  0.0496  0.0414  0.2436
  244POPC   GL1 3292   1.540   9.218   5.406  0.2852  0.0823 -0.0304
  244POPC   GL2 3293   1.774   9.336   5.591  0.3048 -0.1138  0.0832
  244POPC   C1A 3294   1.545   8.959   5.786 -0.2214  0.0063  0.2106
  244POPC   D2A 3295   1.797   8.601   6.019 -0.0671  0.1142  0.2869
  244POPC   C3A 3296   1.986   8.616   6.336  0.1997  0.1878 -0.0217
  244POPC   C4A 3297   2.352   8.662   6.543  0.0281 -0.0210 -0.2852
  244POPC   C1B 3298   1.948   9.590   5.949 -0.0178  0.0062 -0.0217
  244POPC   C2B 3299   2.039  10.114   6.017 -0.1682 -0.4308  0.1282
  244POPC   C3B 3300   2.139  10.442   6.353  0.2184 -0.0685 -0.0270
  244POPC   C4B 3301   1.958  10.581   6.770 -0.0770 -0.0176  0.3532
  245POPC   NC3 3302   2.575   7.796   4.353 -0.2092 -0.0045 -0.0644
  245POPC   PO4 3303   2.909   8.104   4.563  0.0504  0.2468  0.0912
  245POPC   GL1 3304   3.085   7.986   4.945 -0.1717  0.0022  0.0054
  245POPC   GL2 3305   3.116   8.231   5.189 -0.0119  0.1307 -0.1385
  245POPC   C1A 3306   3.330   7.803   5.337  0.3536  0.4052 -0.0003
  245POPC   D2A 3307   3.249   7.695   5.764  0.0272  0.0222 -0.2113
  245POPC   C3A 3308   3.318   8.043   6.124  0.2157  0.2221 -0.1167
  245POPC   C4A 3309   3.380   8.248   6.454 -0.2154  0.1656  0.4622
  245POPC   C1B 3310   3.052   8.163   5.637  0.0723  0.0970 -0.0293
  245POPC   C2B 3311   2.821   8.078   6.022  0.1975  0.0941  0.0223
  245POPC   C3B 3312   2.590   8.020   6.404  0.1439  0.1037  0.0947
  245POPC   C4B 3313   2.238   8.060   6.717  0.0166 -0.0275  0.0025
  246POPC   NC3 3314   4.675   2.250   4.396  0.1369  0.1477  0.0025
  246POPC   PO4 3315   4.385   2.616   4.215 -0.1316  0.1629 -0.0493
  246POPC   GL1 3316   4.208   2.582   4.582 -0.1279 -0.0399  0.1841
  246POPC   GL2 3317   3.933   2.608   4.437  0.1748 -0.2247  0.2857
  246POPC   C1A 3318   4.106   2.910   4.921  0.0330 -0.2384 -0.1849
  246POPC   D2A 3319   4.334   3.396   5.056 -0.0793 -0.3137  0.2062
  246POPC   C3A 3320   4.443   3.446   5.558  0.0258 -0.1796  0.0407
  246POPC   C4A 3321   4.619   3.533   5.969 -0.0242  0.0641  0.0461
  246POPC   C1B 3322   3.727   2.654   4.764  0.0090 -0.1517 -0.2810
  246POPC   C2B 3323   3.688   2.815   5.182  0.1861 -0.1623 -0.2144
  246POPC   C3B 3324   3.772   3.177   5.301 -0.1439 -0.5610 -0.3500
  246POPC   C4B 3325   3.930   3.427   5.611 -0.0126 -0.2078 -0.1382
  247POPC   NC3 3326   8.674   6.004   4.655 -0.0010  0.0733 -0.0557
  247POPC   PO4 3327   8.388   5.971   4.509  0.3268 -0.0351 -0.0164
  247POPC   GL1 3328   8.152   6.150   4.836 -0.1308 -0.0693  0.2623
  247POPC   GL2 3329   8.450   6.190   5.088 -0.0497 -0.0557  0.0467
  247POPC   C1A 3330   7.953   6.363   5.272 -0.7277  0.1741  0.0348
  247POPC   D2A 3331   7.811   5.976   5.573 -0.0985  0.0216 -0.2674
  247POPC   C3A 3332   7.970   5.585   5.400 -0.2694 -0.4384 -0.1772
  247POPC   C4A 3333   7.889   5.374   5.732 -0.3149  0.5244 -0.4052
  247POPC   C1B 3334   8.559   6.000   5.454  0.1763  0.0321 -0.1718
  247POPC   C2B 3335   8.327   5.851   5.706 -0.0638  0.1748  0.1909
  247POPC   C3B 3336   7.999   5.819   6.005 -0.0421 -0.0756 -0.1287
  247POPC   C4B 3337   8.012   5.637   6.359 -0.0598 -0.0423  0.1690
  248POPC   NC3 3338   8.349   2.175   4.661 -0.2220  0.1961  0.0635
  248POPC   PO4 3339   8.606   1.857   4.923 -0.0253 -0.2480 -0.1268
  248POPC   GL1 3340   8.437   1.964   5.311  0.2569 -0.1889  0.1818
  248POPC   GL2 3341   8.714   2.040   5.549 -0.1294  0.3943  0.0123
  248POPC   C1A 3342   8.318   1.764   5.744  0.2837  0.2586 -0.0829
  248POPC   D2A 3343   8.045   1.673   6.014  0.0690  0.3437  0.4608
  248POPC   C3A 3344   8.107   1.250   6.304 -0.3007  0.0451 -0.4222
  248POPC   C4A 3345   8.482   1.071   6.433 -0.1807 -0.0160  0.2746
  248POPC   C1B 3346   9.110   1.987   5.595 -0.0030  0.1742 -0.2352
  248POPC   C2B 3347   9.476   1.906   5.816 -0.2094 -0.3276 -0.2481
  248POPC   C3B 3348   9.790   1.777   6.042  0.1112 -0.0532 -0.0668
  248POPC   C4B 3349   9.977   1.724   6.388  0.0783 -0.1894  0.2827
  249POPC   NC3 3350   8.995   8.868   4.711  0.2503 -0.1688  0.0081
  249POPC   PO4 3351   9.116   8.438   4.642  0.1193  0.0502 -0.0289
  249POPC   GL1 3352   9.030   8.475   5.119  0.3025 -0.0006  0.4239
  249POPC   GL2 3353   9.214   8.250   5.210  0.4726  0.2929 -0.0894
  249POPC   C1A 3354   9.047   8.706   5.481  0.3049 -0.2694 -0.3249
  249POPC   D2A 3355   9.260   9.029   5.784 -0.3617  0.1834  0.0005
  249POPC   C3A 3356   9.063   9.223   6.095 -0.1662  0.0828  0.0086
  249POPC   C4A 3357   8.877   9.084   6.453 -0.1539  0.4259 -0.3333
  249POPC   C1B 3358   9.393   8.354   5.565  0.0068 -0.1856 -0.1322
  249POPC   C2B 3359   9.496   8.541   5.980 -0.0145 -0.0924 -0.0580
  249POPC   C3B 3360   9.621   8.487   6.402 -0.0121 -0.1749  0.0384
  249POPC   C4B 3361   9.615   8.655   6.841 -0.0855 -0.1692  0.1723
  250POPC   NC3 3362   8.251   0.050   4.575 -0.1785  0.1257 -0.0767
  250POPC   PO4 3363   8.615  -0.130   4.776 -0.1116  0.0382 -0.2805
  250POPC   GL1 3364   8.656   0.149   5.096  0.0739  0.1608  0.0950
  250POPC   GL2 3365   8.400   0.333   5.282 -0.1521  0.2028 -0.2478
  250POPC   C1A 3366   8.859   0.241   5.464 -0.1637 -0.0692 -0.0491
  250POPC   D2A 3367   9.002   0.271   5.864 -0.0413 -0.1449 -0.1699
  250POPC   C3A 3368   8.910   0.534   6.058 -0.1640 -0.0695  0.0649
  250POPC   C4A 3369   8.946   0.760   6.461  0.0459 -0.3023  0.2773
  250POPC   C1B 3370   8.397   0.300   5.626 -0.2139 -0.0926 -0.0103
  250POPC   C2B 3371   8.544   0.196   6.112 -0.2155  0.0478  0.0730
  250POPC   C3B 3372   8.573   0.247   6.569  0.1185 -0.0255  0.0747
  250POPC   C4B 3373   8.437   0.436   6.980  0.0084  0.0964 -0.1268
  251POPC   NC3 3374   1.311   2.456   3.746 -0.1208  0.1432  0.1878
  251POPC   PO4 3375   0.906   2.594   3.950  0.0021 -0.0504  0.0073
  251POPC   GL1 3376   0.943   2.852   4.269  0.0797 -0.2094 -0.0622
  251POPC   GL2 3377   1.244   3.000   4.108  0.1413 -0.0082 -0.0589
  251POPC   C1A 3378   0.941   3.072   4.654 -0.1455  0.1221  0.0288
  251POPC   D2A 3379   0.839   3.017   5.026  0.2858 -0.1270  0.0879
  251POPC   C3A 3380   0.986   3.033   5.470  0.0187 -0.0155  0.0100
  251POPC   C4A 3381   0.655   2.817   5.759 -0.2332 -0.0815 -0.0355
  251POPC   C1B 3382   1.398   2.865   4.507  0.0671 -0.0698 -0.0426
  251POPC   C2B 3383   1.375   2.947   4.977  0.3893  0.3333  0.1333
  251POPC   C3B 3384   1.409   3.184   5.317 -0.4572  0.0539 -0.1845
  251POPC   C4B 3385   1.491   2.907   5.722 -0.2965  0.1095  0.1987
  252POPC   NC3 3386   9.117   5.752   4.288  0.0624 -0.0095  0.2579
  252POPC   PO4 3387   9.191   5.927   4.656 -0.0309 -0.0703  0.0404
  252POPC   GL1 3388   8.960   6.076   5.077 -0.0351  0.1963 -0.2078
  252POPC   GL2 3389   8.959   6.423   5.166  0.0588 -0.0504 -0.0794
  252POPC   C1A 3390   9.025   6.076   5.562  0.1105  0.4439  0.3799
  252POPC   D2A 3391   9.203   6.252   5.942  0.1047  0.0574  0.1444
  252POPC   C3A 3392   8.999   6.339   6.347  0.1413  0.0419  0.2204
  252POPC   C4A 3393   8.666   6.149   6.627 -0.0537  0.0562  0.3422
  252POPC   C1B 3394   8.832   6.635   5.580 -0.0944  0.2001 -0.1352
  252POPC   C2B 3395   8.650   6.294   5.925 -0.2052 -0.1340  0.1002
  252POPC   C3B 3396   8.531   5.975   6.199 -0.1420 -0.3284 -0.0020
  252POPC   C4B 3397   8.215   6.100   6.440  0.2646  0.2036  0.3586
  253POPC   NC3 3398   2.296   4.238   3.417  0.3386 -0.1080  0.0684
  253POPC   PO4 3399   2.323   4.490   3.125 -0.3874  0.0957 -0.0153
  253POPC   GL1 3400   2.368   4.676   3.653  0.0976  0.0696  0.0975
  253POPC   GL2 3401   2.626   4.757   3.854 -0.2492  0.1257  0.0030
  253POPC   C1A 3402   2.050   4.643   3.932 -0.0566 -0.3364  0.1627
  253POPC   D2A 3403   2.204   4.387   4.281  0.0675  0.0799  0.0952
  253POPC   C3A 3404   2.374   4.393   4.611  0.1648  0.0711  0.0456
  253POPC   C4A 3405   2.247   4.162   4.958 -0.0176  0.1577 -0.1023
  253POPC   C1B 3406   2.360   4.888   4.253 -0.0608  0.1179 -0.2183
  253POPC   C2B 3407   2.257   4.957   4.705  0.2252 -0.0191 -0.0108
  253POPC   C3B 3408   1.932   4.987   4.925  0.1269  0.0494 -0.0024
  253POPC   C4B 3409   1.490   5.107   5.044 -0.0243 -0.2041  0.1004
  254POPC   NC3 3410   4.010   2.475   3.970 -0.0219 -0.0632  0.2731
  254POPC   PO4 3411   3.752   2.742   3.584  0.0631 -0.1604  0.1312
  254POPC   GL1 3412   3.651   2.993   3.952 -0.0537 -0.3475 -0.2693
  254POPC   GL2 3413   3.717   3.330   3.902 -0.0553  0.3331 -0.5256
  254POPC   C1A 3414   3.768   3.051   4.482  0.0530 -0.2625  0.0386
  254POPC   D2A 3415   3.792   3.415   4.753  0.0000 -0.1007 -0.4330
  254POPC   C3A 3416   3.909   3.599   5.087  0.0090 -0.1213 -0.2794
  254POPC   C4A 3417   3.623   3.741   5.394  0.0770 -0.0200  0.1143
  254POPC   C1B 3418   4.117   3.345   4.214 -0.3560 -0.0301  0.1291
  254POPC   C2B 3419   4.253   3.340   4.606 -0.0066 -0.0508 -0.3023
  254POPC   C3B 3420   4.652   3.288   4.582  0.1698  0.0129  0.0161
  254POPC   C4B 3421   5.147   3.201   4.697  0.0686  0.0758  0.0459
  255POPC   NC3 3422   7.507   3.600   4.558 -0.0624 -0.0484 -0.1169
  255POPC   PO4 3423   7.843   3.913   4.588 -0.0233  0.0927 -0.0749
  255POPC   GL1 3424   7.568   3.977   4.916  0.0520 -0.0956  0.0476
  255POPC   GL2 3425   7.381   4.334   4.989 -0.1183 -0.3047 -0.1638
  255POPC   C1A 3426   7.640   3.973   5.379 -0.0382 -0.2010 -0.0491
  255POPC   D2A 3427   7.593   4.119   5.712 -0.0864 -0.0451 -0.0036
  255POPC   C3A 3428   7.917   3.971   5.912  0.0918  0.1453  0.3985
  255POPC   C4A 3429   7.963   3.606   6.109 -0.0853  0.1609 -0.0893
  255POPC   C1B 3430   7.403   4.486   5.405 -0.0382  0.0043  0.0824
  255POPC   C2B 3431   7.203   4.489   5.756  0.0031 -0.0472 -0.2861
  255POPC   C3B 3432   7.211   4.251   6.172  0.2482 -0.0916 -0.2242
  255POPC   C4B 3433   7.008   4.337   6.583  0.0911  0.0906  0.1364
  256POPC   NC3 3434   4.561   3.312   3.446  0.0181 -0.1314 -0.0150
  256POPC   PO4 3435   4.791   3.522   3.816 -0.1947 -0.1266 -0.2691
  256POPC   GL1 3436   4.735   3.624   4.234  0.2276  0.0005 -0.1205
  256POPC   GL2 3437   4.994   3.679   4.399 -0.0266  0.0816  0.2670
  256POPC   C1A 3438   4.342   3.797   4.410 -0.0169  0.3536  0.1854
  256POPC   D2A 3439   3.879   3.745   4.356 -0.2295 -0.3179 -0.1803
  256POPC   C3A 3440   3.514   3.761   4.067  0.2351 -0.0723 -0.2443
  256POPC   C4A 3441   3.099   3.816   3.892  0.4065 -0.1852  0.0688
  256POPC   C1B 3442   4.739   3.777   4.696 -0.1160  0.0668 -0.2443
  256POPC   C2B 3443   4.377   3.995   4.905 -0.4116 -0.0191 -0.1744
  256POPC   C3B 3444   3.954   4.091   4.901  0.0359 -0.1537 -0.1108
  256POPC   C4B 3445   3.508   4.216   4.894  0.0546  0.0350 -0.0412
  257POPC   NC3 3446   6.450   0.226   4.527  0.3938 -0.0072 -0.3267
  257POPC   PO4 3447   6.670   0.689   4.672 -0.2086  0.0922  0.1315
  257POPC   GL1 3448   6.744   0.520   5.145 -0.0477 -0.0344 -0.1262
  257POPC   GL2 3449   6.969   0.194   5.266 -0.3017 -0.0750 -0.1049
  257POPC   C1A 3450   6.557   0.539   5.532  0.0142  0.1151 -0.0441
  257POPC   D2A 3451   6.349   0.471   5.821 -0.2805  0.5506 -0.0225
  257POPC   C3A 3452   6.769   0.323   6.108 -0.1054  0.1037  0.0104
  257POPC   C4A 3453   7.123   0.071   5.974 -0.0698 -0.1331 -0.0346
  257POPC   C1B 3454   6.677   0.025   5.654  0.2242 -0.3258 -0.2294
  257POPC   C2B 3455   6.626  -0.211   6.101  0.3842 -0.2278 -0.1157
  257POPC   C3B 3456   6.626  -0.516   6.491  0.0963 -0.2398  0.0189
  257POPC   C4B 3457   6.555  -0.398   6.947  0.1378  0.1694  0.1410
  258POPC   NC3 3458   1.275   8.034   4.855  0.1101 -0.0078 -0.1368
  258POPC   PO4 3459   1.708   7.916   4.722 -0.2073  0.0371 -0.4726
  258POPC   GL1 3460   1.640   7.797   5.130 -0.4131 -0.0553  0.2201
  258POPC   GL2 3461   1.587   7.453   5.159  0.2006 -0.4691 -0.1377
  258POPC   C1A 3462   1.622   7.976   5.546  0.2364 -0.0441 -0.0006
  258POPC   D2A 3463   1.558   8.044   6.035 -0.1756  0.3276  0.0035
  258POPC   C3A 3464   1.309   8.395   6.226  0.2392 -0.2727  0.0675
  258POPC   C4A 3465   0.865   8.604   6.217  0.0246  0.1858  0.0168
  258POPC   C1B 3466   1.557   7.460   5.594 -0.1393  0.3366  0.0438
  258POPC   C2B 3467   1.268   7.247   5.937 -0.0506  0.0694  0.2592
  258POPC   C3B 3468   1.434   7.032   6.329  0.0533 -0.0992 -0.0090
  258POPC   C4B 3469   1.796   6.937   6.518 -0.1402  0.0992 -0.2545
  259POPC   NC3 3470   0.049   9.025   5.161  0.1415 -0.0755  0.0355
  259POPC   PO4 3471   0.397   9.318   5.146 -0.0418  0.0995 -0.1679
  259POPC   GL1 3472   0.389   9.096   5.537 -0.2106 -0.2303  0.2491
  259POPC   GL2 3473   0.337   8.711   5.446 -0.0473  0.2458  0.4392
  259POPC   C1A 3474   0.531   9.098   5.890 -0.0698  0.0713 -0.3366
  259POPC   D2A 3475   0.533   9.078   6.349  0.3565 -0.1454  0.2724
  259POPC   C3A 3476   0.504   8.730   6.628 -0.0788  0.3384 -0.0959
  259POPC   C4A 3477   0.190   8.474   6.618  0.4594 -0.2045 -0.3649
  259POPC   C1B 3478   0.015   8.718   5.753 -0.2654 -0.3038  0.1940
  259POPC   C2B 3479  -0.119   9.038   5.847 -0.2464 -0.2614 -0.2274
  259POPC   C3B 3480  -0.269   9.399   5.937 -0.1916  0.0838 -0.2554
  259POPC   C4B 3481  -0.055   9.895   6.151 -0.0099  0.0579 -0.1459
  260POPC   NC3 3482   9.602   3.166   4.248 -0.0188 -0.1639  0.0304
  260POPC   PO4 3483   9.422   3.499   4.459 -0.4645 -0.0203  0.2454
  260POPC   GL1 3484   9.552   3.435   4.944  0.0716  0.2158  0.0131
  260POPC   GL2 3485   9.664   3.769   5.119  0.4113 -0.1607 -0.0698
  260POPC   C1A 3486   9.510   3.412   5.456 -0.1682 -0.1518  0.1789
  260POPC   D2A 3487   9.570   3.441   5.917  0.2250  0.2032 -0.0888
  260POPC   C3A 3488   9.257   3.718   6.233 -0.2187 -0.2400 -0.1452
  260POPC   C4A 3489   8.882   3.840   6.293 -0.1533  0.0593  0.2515
  260POPC   C1B 3490  10.084   3.891   5.350  0.1014 -0.3454 -0.3559
  260POPC   C2B 3491  10.483   3.835   5.335 -0.1538  0.4595  0.0193
  260POPC   C3B 3492  10.675   3.750   5.608 -0.0814  0.1012 -0.0526
  260POPC   C4B 3493  11.016   3.449   5.722 -0.1375 -0.1549 -0.3156
  261POPC   NC3 3494   1.286   0.554   4.888 -0.2327  0.1380  0.1951
  261POPC   PO4 3495   0.872   0.407   4.893  0.0452 -0.0414  0.1760
  261POPC   GL1 3496   0.610   0.550   5.139  0.0314 -0.0497 -0.0877
  261POPC   GL2 3497   0.259   0.476   5.310  0.3951 -0.0906  0.0939
  261POPC   C1A 3498   0.701   0.836   5.535 -0.1326 -0.1326  0.0739
  261POPC   D2A 3499   0.961   0.942   5.825 -0.2189 -0.1186 -0.3779
  261POPC   C3A 3500   1.200   1.208   6.036 -0.2834 -0.1752 -0.1125
  261POPC   C4A 3501   1.004   1.593   6.062  0.0604 -0.2506  0.0586
  261POPC   C1B 3502   0.187   0.463   5.712  0.0772  0.0771  0.3508
  261POPC   C2B 3503  -0.206   0.364   5.859 -0.0386 -0.0862  0.1943
  261POPC   C3B 3504  -0.532   0.419   6.186  0.2086  0.1710  0.0203
  261POPC   C4B 3505  -0.860   0.104   6.393 -0.1279  0.1202  0.0308
  262POPC   NC3 3506   6.785   4.366   3.825  0.1746 -0.1980  0.1118
  262POPC   PO4 3507   6.464   4.781   4.016  0.1751 -0.0491 -0.0176
  262POPC   GL1 3508   6.377   4.792   4.436  0.2114 -0.0527 -0.1194
  262POPC   GL2 3509   6.178   4.953   4.630 -0.0309  0.3168 -0.2580
  262POPC   C1A 3510   6.396   4.582   4.811 -0.1750  0.1956  0.1277
  262POPC   D2A 3511   6.357   4.822   5.244 -0.2613  0.0215  0.0444
  262POPC   C3A 3512   6.142   5.094   5.383  0.1680 -0.1058 -0.3140
  262POPC   C4A 3513   6.120   5.265   5.870 -0.1316 -0.0507  0.2163
  262POPC   C1B 3514   5.937   4.598   4.964 -0.2478  0.1018  0.0443
  262POPC   C2B 3515   6.053   4.306   5.252 -0.0631 -0.0789 -0.2931
  262POPC   C3B 3516   6.155   4.219   5.719 -0.1316  0.1362 -0.1837
  262POPC   C4B 3517   6.356   4.445   6.018 -0.0247 -0.0023  0.3977
  263POPC   NC3 3518   0.860   7.050   4.462  0.0515  0.1550  0.1084
  263POPC   PO4 3519   0.634   6.825   4.259 -0.1942 -0.0238 -0.1957
  263POPC   GL1 3520   0.394   6.808   4.693 -0.1659  0.1450  0.1914
  263POPC   GL2 3521   0.256   7.140   4.862 -0.0051 -0.0703 -0.0767
  263POPC   C1A 3522   0.378   6.709   5.076  0.0937 -0.1228 -0.0210
  263POPC   D2A 3523   0.188   6.941   5.354  0.0062 -0.3935  0.1615
  263POPC   C3A 3524   0.180   6.934   5.770 -0.0667  0.2232  0.3197
  263POPC   C4A 3525   0.044   6.677   6.187 -0.0058  0.1078 -0.0228
  263POPC   C1B 3526  -0.187   7.226   5.077 -0.0855 -0.3863  0.2224
  263POPC   C2B 3527  -0.289   7.140   5.479  0.3307  0.0636  0.2401
  263POPC   C3B 3528  -0.603   7.373   5.777 -0.0214 -0.3117 -0.1317
  263POPC   C4B 3529  -0.719   7.149   6.160  0.2280  0.5742  0.0688
  264POPC   NC3 3530   7.701   8.418   4.651  0.1149 -0.2754  0.2697
  264POPC   PO4 3531   7.806   8.770   4.763  0.1035  0.0525 -0.0602
  264POPC   GL1 3532   7.711   8.496   5.170  0.0126 -0.1573 -0.0378
  264POPC   GL2 3533   7.782   8.145   5.157 -0.0954  0.1994  0.1754
  264POPC   C1A 3534   7.665   8.670   5.555 -0.0750  0.1013 -0.1484
  264POPC   D2A 3535   7.595   8.680   6.063  0.0034  0.1228 -0.1307
  264POPC   C3A 3536   7.511   8.379   6.302  0.0401 -0.4032  0.0737
  264POPC   C4A 3537   7.487   8.155   6.712  0.1236  0.1363  0.1284
  264POPC   C1B 3538   7.710   8.177   5.511 -0.4053 -0.0567  0.0484
  264POPC   C2B 3539   7.868   8.242   5.910 -0.0051  0.2869 -0.3388
  264POPC   C3B 3540   8.138   8.354   6.278  0.2211 -0.2006 -0.5516
  264POPC   C4B 3541   8.543   8.553   6.317 -0.2859 -0.0355  0.1497
  265POPC   NC3 3542   6.689   5.197   4.388 -0.0793 -0.3437  0.1297
  265POPC   PO4 3543   6.610   5.685   4.363 -0.3493 -0.1701  0.0604
  265POPC   GL1 3544   6.315   5.541   4.653 -0.3407  0.2090  0.1487
  265POPC   GL2 3545   5.996   5.601   4.802 -0.3082 -0.0127 -0.0963
  265POPC   C1A 3546   6.346   5.290   4.972 -0.1066 -0.1029 -0.2002
  265POPC   D2A 3547   6.702   5.198   5.297 -0.1408 -0.2000  0.0516
  265POPC   C3A 3548   7.014   4.942   5.661 -0.0375 -0.2696 -0.0440
  265POPC   C4A 3549   7.219   5.038   5.957  0.0508  0.0110 -0.4610
  265POPC   C1B 3550   5.859   5.555   5.164  0.2543 -0.1234  0.0752
  265POPC   C2B 3551   5.635   5.332   5.442  0.2383 -0.3583  0.1955
  265POPC   C3B 3552   5.613   5.056   5.698  0.1208  0.0539 -0.2658
  265POPC   C4B 3553   5.416   5.039   6.064 -0.2198  0.0398 -0.1914
  266POPC   NC3 3554   2.149   9.623   5.166 -0.2070  0.0610  0.0795
  266POPC   PO4 3555   2.478   9.388   5.084 -0.3705 -0.1486  0.0807
  266POPC   GL1 3556   2.436   9.236   5.541 -0.2360  0.2942 -0.1158
  266POPC   GL2 3557   2.661   8.953   5.740 -0.0671  0.1021  0.0104
  266POPC   C1A 3558   2.388   9.407   5.980  0.1324  0.3935 -0.2928
  266POPC   D2A 3559   2.321   9.619   6.348  0.0365  0.5322  0.0396
  266POPC   C3A 3560   2.625   9.657   6.563 -0.1244 -0.4155 -0.0731
  266POPC   C4A 3561   2.817   9.990   6.836  0.0312  0.0012  0.2082
  266POPC   C1B 3562   2.829   8.619   5.818  0.1188 -0.1851 -0.0934
  266POPC   C2B 3563   3.199   8.570   6.012 -0.0629  0.2553  0.0651
  266POPC   C3B 3564   3.607   8.387   5.985 -0.1089 -0.1595  0.0722
  266POPC   C4B 3565   3.629   8.088   5.669 -0.2735  0.0913 -0.1099
  267POPC   NC3 3566   4.614   4.992   4.035  0.3091 -0.2850 -0.1141
  267POPC   PO4 3567   4.160   5.187   3.869  0.3324 -0.1430  0.0616
  267POPC   GL1 3568   3.925   5.376   4.230 -0.2209 -0.1699 -0.1173
  267POPC   GL2 3569   3.747   5.161   4.129  0.1746 -0.0557 -0.0431
  267POPC   C1A 3570   3.646   5.486   4.541 -0.0043 -0.0361 -0.0552
  267POPC   D2A 3571   3.156   5.440   4.575  0.1296  0.1635  0.0557
  267POPC   C3A 3572   2.866   5.773   4.759  0.1282  0.0635 -0.0808
  267POPC   C4A 3573   2.650   6.100   4.963 -0.2014  0.1475 -0.0038
  267POPC   C1B 3574   3.516   5.014   4.444  0.1881  0.0341 -0.3375
  267POPC   C2B 3575   3.024   4.936   4.450  0.1028 -0.0733  0.4002
  267POPC   C3B 3576   2.816   4.649   4.366 -0.1495 -0.0605  0.0815
  267POPC   C4B 3577   2.775   4.363   4.264  0.3838 -0.0822 -0.0913
  268POPC   NC3 3578   7.316   4.542   4.145  0.2097  0.0999 -0.2736
  268POPC   PO4 3579   7.187   4.241   4.407  0.1497  0.0682 -0.1525
  268POPC   GL1 3580   6.887   4.321   4.742 -0.0314 -0.0256 -0.2464
  268POPC   GL2 3581   6.619   4.049   4.909  0.1998  0.0393  0.0671
  268POPC   C1A 3582   6.849   4.615   5.090  0.2214 -0.1267  0.0441
  268POPC   D2A 3583   6.715   4.622   5.545 -0.0095  0.0715  0.4295
  268POPC   C3A 3584   6.498   4.953   5.684 -0.4855  0.1148 -0.1705
  268POPC   C4A 3585   6.635   5.294   5.871 -0.2425 -0.0868 -0.2388
  268POPC   C1B 3586   6.647   4.162   5.313 -0.1711 -0.2289 -0.2446
  268POPC   C2B 3587   6.718   4.154   5.748  0.4568  0.1347 -0.1012
  268POPC   C3B 3588   6.758   4.038   6.242 -0.1777  0.1432 -0.1042
  268POPC   C4B 3589   7.051   3.772   6.408 -0.0035  0.0158  0.0087
  269POPC   NC3 3590   5.227   5.963   4.092  0.0293 -0.0237 -0.1363
  269POPC   PO4 3591   5.514   6.044   4.474  0.1846 -0.3604  0.2764
  269POPC   GL1 3592   5.567   5.839   4.822  0.2384 -0.2453  0.5734
  269POPC   GL2 3593   5.883   6.034   4.999 -0.2215  0.2034 -0.1760
  269POPC   C1A 3594   5.298   5.814   5.198 -0.1003  0.0398  0.0546
  269POPC   D2A 3595   5.032   5.386   5.274  0.1571 -0.0192 -0.1367
  269POPC   C3A 3596   4.624   5.361   5.449 -0.0709  0.1452  0.2004
  269POPC   C4A 3597   4.347   5.232   5.283  0.0772 -0.1507  0.0014
  269POPC   C1B 3598   5.672   6.121   5.369  0.0990  0.1047 -0.2711
  269POPC   C2B 3599   5.422   5.950   5.712  0.0819 -0.1609 -0.2111
  269POPC   C3B 3600   5.452   6.042   6.103 -0.3977  0.0112  0.0005
  269POPC   C4B 3601   5.521   5.843   6.410 -0.0777  0.1660 -0.0188
  270POPC   NC3 3602   9.555   0.973   4.355  0.0446 -0.1045  0.5580
  270POPC   PO4 3603   9.262   0.671   4.567 -0.0133  0.2821 -0.0347
  270POPC   GL1 3604   9.239   0.634   5.059 -0.0026  0.0013 -0.1630
  270POPC   GL2 3605   8.936   0.629   5.127 -0.1752  0.1788 -0.0008
  270POPC   C1A 3606   9.305   0.474   5.546  0.1524 -0.4460  0.0290
  270POPC   D2A 3607   9.318   0.842   5.853 -0.1269  0.2339 -0.2008
  270POPC   C3A 3608   9.376   0.939   6.307 -0.1182 -0.0720  0.1042
  270POPC   C4A 3609   9.337   0.780   6.764 -0.0908  0.0990  0.1755
  270POPC   C1B 3610   8.974   1.109   5.283 -0.0450 -0.2750 -0.3858
  270POPC   C2B 3611   8.929   1.539   5.550 -0.1559 -0.2115 -0.4597
  270POPC   C3B 3612   8.839   1.707   5.916  0.0647 -0.0914 -0.2857
  270POPC   C4B 3613   8.487   1.588   6.283  0.1302  0.0858 -0.1183
  271POPC   NC3 3614   0.875   0.907   4.905 -0.2855 -0.3136  0.2600
  271POPC   PO4 3615   1.268   1.105   5.053  0.1270 -0.3161  0.1177
  271POPC   GL1 3616   1.279   0.851   5.315 -0.4214 -0.2272 -0.2043
  271POPC   GL2 3617   1.074   0.583   5.313  0.0735 -0.1162  0.1823
  271POPC   C1A 3618   1.481   0.853   5.736  0.0590 -0.0618 -0.1853
  271POPC   D2A 3619   1.718   0.516   5.858 -0.1454  0.1248 -0.3529
  271POPC   C3A 3620   2.066   0.812   5.941  0.3786 -0.3735  0.0142
  271POPC   C4A 3621   2.060   1.051   6.350 -0.0682 -0.1343  0.0447
  271POPC   C1B 3622   1.058   0.499   5.655  0.3346  0.1279  0.0510
  271POPC   C2B 3623   1.254   0.423   6.096  0.0363  0.2238  0.2032
  271POPC   C3B 3624   1.161   0.746   6.516  0.0024  0.2040  0.1135
  271POPC   C4B 3625   1.548   0.909   6.828  0.1205 -0.0872  0.4143
  272POPC   NC3 3626   4.735   6.850   4.368 -0.1970 -0.0685  0.5900
  272POPC   PO4 3627   4.943   6.736   4.773  0.1304  0.6304 -0.1954
  272POPC   GL1 3628   4.973   6.883   5.153  0.0491 -0.0783  0.1375
  272POPC   GL2 3629   5.071   7.073   5.396 -0.1557  0.1868 -0.0597
  272POPC   C1A 3630   4.846   6.640   5.493  0.0133  0.0238 -0.1907
  272POPC   D2A 3631   4.581   6.224   5.408  0.0304  0.1574  0.2178
  272POPC   C3A 3632   4.948   5.825   5.549  0.2678  0.0323 -0.1830
  272POPC   C4A 3633   5.265   5.449   5.756 -0.1413  0.0943 -0.0557
  272POPC   C1B 3634   4.999   7.301   5.756  0.3030  0.0284 -0.1707
  272POPC   C2B 3635   4.779   7.285   6.191  0.1246  0.0426 -0.1315
  272POPC   C3B 3636   4.589   7.706   6.425  0.0613  0.0545 -0.1054
  272POPC   C4B 3637   4.134   7.712   6.536  0.2231  0.1239  0.0490
  273POPC   NC3 3638   4.008   8.858   4.952 -0.2395 -0.1354 -0.0109
  273POPC   PO4 3639   3.917   8.417   4.855  0.0355 -0.1929 -0.3084
  273POPC   GL1 3640   4.041   8.396   5.379  0.1913 -0.1699  0.2604
  273POPC   GL2 3641   4.191   8.763   5.421  0.2146  0.0238 -0.1789
  273POPC   C1A 3642   4.083   8.509   5.871  0.2278 -0.1170  0.0207
  273POPC   D2A 3643   4.012   8.659   6.256  0.0109 -0.0623 -0.2152
  273POPC   C3A 3644   4.016   9.115   6.337  0.2289  0.4861  0.2230
  273POPC   C4A 3645   3.956   9.388   5.949  0.1766  0.2962  0.0820
  273POPC   C1B 3646   3.890   9.065   5.585  0.0786  0.0176 -0.1044
  273POPC   C2B 3647   3.537   9.385   5.653  0.2881  0.1806 -0.0689
  273POPC   C3B 3648   3.461   9.530   6.149  0.1823  0.3107 -0.1741
  273POPC   C4B 3649   3.118   9.703   6.471 -0.2507 -0.4334  0.1342
  274POPC   NC3 3650   2.463   8.178   4.755 -0.0197 -0.3322 -0.1666
  274POPC   PO4 3651   2.691   8.465   4.900  0.2258  0.1555  0.3805
  274POPC   GL1 3652   2.607   8.207   5.266 -0.1604 -0.1963  0.1482
  274POPC   GL2 3653   2.475   8.391   5.522 -0.0609  0.0737  0.1585
  274POPC   C1A 3654   2.727   7.735   5.476  0.2035  0.0071 -0.2266
  274POPC   D2A 3655   2.941   7.330   5.563  0.1848  0.0473 -0.1062
  274POPC   C3A 3656   2.868   6.886   5.736 -0.0007  0.1018 -0.0536
  274POPC   C4A 3657   2.630   6.699   6.100 -0.1813  0.1718  0.0469
  274POPC   C1B 3658   2.340   8.453   5.956  0.1256  0.0878  0.1241
  274POPC   C2B 3659   2.125   8.105   6.151 -0.0952 -0.4286 -0.1123
  274POPC   C3B 3660   1.991   7.681   6.152 -0.0246  0.1147 -0.2170
  274POPC   C4B 3661   1.740   7.301   6.033  0.0747 -0.2084 -0.0713
  275POPC   NC3 3662   1.342   4.107   2.967 -0.2922  0.1839 -0.1955
  275POPC   PO4 3663   1.150   3.999   3.277  0.0193 -0.1236  0.2595
  275POPC   GL1 3664   1.067   4.243   3.598 -0.4155  0.0793 -0.1019
  275POPC   GL2 3665   1.280   3.997   3.766  0.0585 -0.3924  0.1659
  275POPC   C1A 3666   1.244   4.495   3.941 -0.3009 -0.1450 -0.0748
  275POPC   D2A 3667   1.423   4.462   4.305  0.0570 -0.0743 -0.1509
  275POPC   C3A 3668   1.834   4.534   4.582  0.0736 -0.1700  0.2173
  275POPC   C4A 3669   1.909   4.494   4.997 -0.1317  0.2796  0.0236
  275POPC   C1B 3670   0.991   3.958   4.122 -0.0027  0.0004 -0.1790
  275POPC   C2B 3671   0.931   4.108   4.594 -0.0559 -0.4009  0.2216
  275POPC   C3B 3672   0.813   3.959   4.975 -0.0703  0.0851  0.0834
  275POPC   C4B 3673   1.113   3.914   5.317 -0.0812 -0.0660 -0.1385
  276POPC   NC3 3674   5.785   3.745   4.060  0.1937 -0.0136 -0.2454
  276POPC   PO4 3675   5.653   4.111   4.100 -0.2397  0.5106  0.0172
  276POPC   GL1 3676   5.395   4.023   4.440  0.0637 -0.4536 -0.1206
  276POPC   GL2 3677   5.655   3.885   4.531  0.1841  0.1649 -0.0709
  276POPC   C1A 3678   5.302   3.696   4.813  0.0538  0.2312  0.0839
  276POPC   D2A 3679   4.922   3.473   5.005 -0.0213 -0.0264 -0.3993
  276POPC   C3A 3680   4.691   3.705   5.209 -0.0437  0.0478  0.3106
  276POPC   C4A 3681   4.725   3.875   5.608 -0.2388 -0.2378  0.1055
  276POPC   C1B 3682   5.814   3.547   4.791 -0.2668  0.0190  0.0128
  276POPC   C2B 3683   5.982   3.276   5.135  0.3773  0.3204 -0.1237
  276POPC   C3B 3684   6.337   3.176   5.449 -0.0162  0.0536 -0.2175
  276POPC   C4B 3685   6.585   3.267   5.794 -0.0960  0.0674 -0.2005
  277POPC   NC3 3686   6.838   1.935   4.739 -0.0619 -0.0723  0.0160
  277POPC   PO4 3687   6.305   1.965   4.728 -0.0365  0.3032 -0.3060
  277POPC   GL1 3688   6.023   2.281   4.971  0.0718  0.1751 -0.0667
  277POPC   GL2 3689   5.622   2.154   5.009  0.0596 -0.0713  0.1852
  277POPC   C1A 3690   5.775   2.421   5.395  0.0624 -0.2842 -0.0960
  277POPC   D2A 3691   5.381   2.317   5.638  0.1682 -0.4918  0.0321
  277POPC   C3A 3692   5.409   2.588   6.018  0.1801  0.0114 -0.2001
  277POPC   C4A 3693   5.266   2.869   6.325  0.1033 -0.3756  0.0540
  277POPC   C1B 3694   5.503   1.880   5.425  0.1187  0.4290 -0.1784
  277POPC   C2B 3695   5.514   1.895   5.854  0.1371 -0.2089  0.3029
  277POPC   C3B 3696   5.367   1.731   6.191  0.3709 -0.2321  0.2635
  277POPC   C4B 3697   5.009   1.872   6.547 -0.2590 -0.1906  0.0763
  278POPC   NC3 3698   5.341   2.041   4.311 -0.0134  0.1917 -0.0444
  278POPC   PO4 3699   5.309   2.449   4.414  0.2751  0.0153 -0.0565
  278POPC   GL1 3700   5.238   2.357   4.771 -0.2761 -0.1591  0.1593
  278POPC   GL2 3701   5.193   2.680   4.840 -0.0796  0.1177  0.1744
  278POPC   C1A 3702   5.098   2.295   5.202  0.1351 -0.0991 -0.1804
  278POPC   D2A 3703   4.902   2.346   5.575  0.0341 -0.3760  0.3465
  278POPC   C3A 3704   4.551   2.153   5.767  0.3170  0.2183 -0.1541
  278POPC   C4A 3705   4.663   1.724   5.871 -0.0150 -0.0067 -0.0678
  278POPC   C1B 3706   4.827   2.918   4.928  0.0769  0.1619  0.1674
  278POPC   C2B 3707   4.615   3.060   5.215  0.1786 -0.2675 -0.3854
  278POPC   C3B 3708   4.758   3.029   5.643 -0.1091  0.0808 -0.0470
  278POPC   C4B 3709   4.871   3.141   6.082 -0.1152  0.3517 -0.1314
  279POPC   NC3 3710   1.218   5.462   3.184  0.1004 -0.6620  0.0751
  279POPC   PO4 3711   0.989   5.655   3.502  0.1575  0.2091 -0.0211
  279POPC   GL1 3712   0.981   5.389   3.867  0.1416 -0.1982 -0.1587
  279POPC   GL2 3713   0.888   5.515   4.240  0.2001 -0.1831 -0.0387
  279POPC   C1A 3714   0.949   5.008   4.275  0.2277  0.3296  0.2362
  279POPC   D2A 3715   0.896   4.616   4.470  0.1346  0.3658  0.2117
  279POPC   C3A 3716   0.713   4.497   4.857 -0.0081 -0.1394  0.2537
  279POPC   C4A 3717   0.953   4.761   5.201  0.4862 -0.0054 -0.0423
  279POPC   C1B 3718   1.059   5.455   4.646 -0.0488 -0.1488 -0.1309
  279POPC   C2B 3719   0.904   5.386   5.025 -0.3141 -0.1394  0.0296
  279POPC   C3B 3720   0.592   5.539   5.335 -0.2568  0.2043 -0.1326
  279POPC   C4B 3721   0.466   5.944   5.677  0.0691 -0.2864 -0.2492
  280POPC   NC3 3722   6.075   6.048   4.547 -0.2956 -0.2603 -0.2649
  280POPC   PO4 3723   6.500   6.258   4.440  0.0450  0.3336 -0.0637
  280POPC   GL1 3724   6.619   5.979   4.721  0.0800  0.1539 -0.0004
  280POPC   GL2 3725   6.808   6.068   5.038  0.1794  0.5004 -0.0482
  280POPC   C1A 3726   6.338   5.810   5.095 -0.1951 -0.0374 -0.2424
  280POPC   D2A 3727   6.334   5.542   5.495 -0.2641  0.5631 -0.1953
  280POPC   C3A 3728   6.386   5.680   5.998  0.2113  0.0329  0.0352
  280POPC   C4A 3729   6.422   5.727   6.399  0.1673 -0.1476 -0.1026
  280POPC   C1B 3730   6.735   5.864   5.492 -0.1661 -0.3411 -0.2313
  280POPC   C2B 3731   6.751   6.073   5.894  0.0279  0.0295  0.4949
  280POPC   C3B 3732   6.978   6.331   6.308  0.0723 -0.0898 -0.3782
  280POPC   C4B 3733   7.338   6.310   6.530  0.2977  0.1041  0.1446
  281POPC   NC3 3734   4.166   1.636   4.229 -0.3586  0.0127  0.0686
  281POPC   PO4 3735   4.465   1.816   4.562  0.1098  0.1588 -0.0251
  281POPC   GL1 3736   4.230   1.611   4.997 -0.1126 -0.0772  0.1111
  281POPC   GL2 3737   4.251   1.331   5.075  0.2407  0.0835  0.2137
  281POPC   C1A 3738   4.238   1.917   5.320 -0.0904  0.2953  0.0996
  281POPC   D2A 3739   4.105   1.828   5.790  0.1145 -0.1122 -0.0187
  281POPC   C3A 3740   4.190   2.052   6.119 -0.1164  0.1492  0.2343
  281POPC   C4A 3741   4.149   1.982   6.438  0.1381  0.2491 -0.1195
  281POPC   C1B 3742   3.966   1.084   5.463  0.1612  0.5170 -0.0377
  281POPC   C2B 3743   4.061   0.959   5.811  0.1550 -0.1556 -0.2068
  281POPC   C3B 3744   4.114   0.732   6.127 -0.0972 -0.0051  0.1916
  281POPC   C4B 3745   4.321   0.824   6.511 -0.0222 -0.1230 -0.2345
  282POPC   NC3 3746   0.247   3.300   3.459 -0.4004 -0.0025  0.0363
  282POPC   PO4 3747   0.141   3.281   3.910  0.0605 -0.0614 -0.2829
  282POPC   GL1 3748   0.455   3.377   4.163  0.2074  0.3307 -0.1990
  282POPC   GL2 3749   0.452   3.661   4.074 -0.1877  0.4077  0.1714
  282POPC   C1A 3750   0.475   3.312   4.612 -0.2709 -0.2479 -0.3427
  282POPC   D2A 3751   0.623   3.503   4.982  0.0536 -0.3155 -0.0259
  282POPC   C3A 3752   1.019   3.490   5.019  0.2538  0.0137 -0.0024
  282POPC   C4A 3753   1.330   3.377   4.669 -0.0258 -0.0473  0.2898
  282POPC   C1B 3754   0.524   4.007   4.084 -0.1904 -0.0442  0.0930
  282POPC   C2B 3755   0.481   4.343   4.416  0.2323  0.1511 -0.1514
  282POPC   C3B 3756   0.462   4.811   4.506  0.0211 -0.0448  0.1483
  282POPC   C4B 3757   0.581   5.246   4.515  0.2638  0.0071  0.2461
  283POPC   NC3 3758   5.688   9.891   4.699 -0.4083  0.0626 -0.2586
  283POPC   PO4 3759   5.662   9.572   4.967 -0.0948 -0.0894  0.3545
  283POPC   GL1 3760   5.779   9.714   5.366 -0.1115 -0.2313 -0.2935
  283POPC   GL2 3761   5.907  10.039   5.128  0.0733 -0.3335 -0.2207
  283POPC   C1A 3762   5.622   9.881   5.682  0.0802  0.2959  0.1323
  283POPC   D2A 3763   5.687   9.912   6.189 -0.5553 -0.2688  0.2334
  283POPC   C3A 3764   5.802  10.179   6.423  0.1805  0.0703 -0.0889
  283POPC   C4A 3765   5.714  10.336   6.832  0.0778 -0.3205 -0.0769
  283POPC   C1B 3766   6.151  10.044   5.526  0.1566 -0.0640  0.3137
  283POPC   C2B 3767   5.851  10.304   5.883 -0.2947  0.4674 -0.1898
  283POPC   C3B 3768   5.892  10.602   6.243  0.2441 -0.2517 -0.0743
  283POPC   C4B 3769   6.098  10.819   6.583  0.0681 -0.0051  0.1277
  284POPC   NC3 3770   7.407   9.112   4.660 -0.0501 -0.2556 -0.1777
  284POPC   PO4 3771   6.960   8.986   4.594 -0.0922  0.0752 -0.3241
  284POPC   GL1 3772   6.889   9.009   4.995 -0.0458  0.2034  0.1105
  284POPC   GL2 3773   6.546   9.119   5.100  0.0223 -0.1718  0.0064
  284POPC   C1A 3774   7.034   8.926   5.350  0.0050  0.1323  0.0162
  284POPC   D2A 3775   6.870   9.161   5.676  0.1957 -0.1008 -0.0242
  284POPC   C3A 3776   6.695   8.952   6.020  0.3077  0.0020 -0.4353
  284POPC   C4A 3777   6.461   8.976   6.408 -0.1701 -0.1520  0.1796
  284POPC   C1B 3778   6.304   9.042   5.508  0.0729  0.1541  0.2089
  284POPC   C2B 3779   5.955   8.928   5.763  0.0064 -0.0213 -0.3373
  284POPC   C3B 3780   5.833   9.002   6.246  0.3976  0.0219  0.2149
  284POPC   C4B 3781   5.415   8.945   6.436 -0.5287 -0.1048  0.2176
  285POPC   NC3 3782   6.943   3.097   4.649 -0.2076 -0.1900  0.1917
  285POPC   PO4 3783   6.769   2.608   4.506 -0.1947  0.0552 -0.0751
  285POPC   GL1 3784   6.489   2.834   4.823 -0.2332  0.4368 -0.1711
  285POPC   GL2 3785   6.541   3.108   4.976  0.1210 -0.0742  0.0940
  285POPC   C1A 3786   6.175   2.816   5.113  0.1427  0.0498 -0.1395
  285POPC   D2A 3787   5.881   2.888   5.454  0.0288  0.0586  0.3298
  285POPC   C3A 3788   5.864   2.732   5.847  0.2137  0.1367 -0.0131
  285POPC   C4A 3789   5.857   2.293   5.906 -0.2800  0.0928 -0.1472
  285POPC   C1B 3790   6.755   3.493   5.160 -0.0235 -0.1330 -0.2706
  285POPC   C2B 3791   6.708   3.717   5.551  0.0339  0.1801 -0.1311
  285POPC   C3B 3792   6.442   3.785   5.926 -0.1434  0.3118 -0.1521
  285POPC   C4B 3793   6.133   4.040   6.166  0.2920  0.0258 -0.1323
  286POPC   NC3 3794   6.210   6.300   3.992 -0.0263 -0.2027 -0.3502
  286POPC   PO4 3795   5.879   6.410   4.300 -0.2914 -0.2142  0.0030
  286POPC   GL1 3796   5.933   6.464   4.678 -0.3490 -0.0309  0.1132
  286POPC   GL2 3797   6.187   6.459   4.794 -0.1034 -0.1815 -0.2419
  286POPC   C1A 3798   5.854   6.622   5.181  0.3379  0.3192 -0.0968
  286POPC   D2A 3799   5.902   6.714   5.549  0.3102 -0.1236 -0.1548
  286POPC   C3A 3800   6.223   6.673   5.779 -0.5115  0.1762 -0.0225
  286POPC   C4A 3801   6.712   6.711   5.909 -0.1011 -0.1751 -0.2435
  286POPC   C1B 3802   6.266   6.335   5.161  0.1309  0.1527  0.0262
  286POPC   C2B 3803   6.234   6.069   5.500  0.4760 -0.1697 -0.1524
  286POPC   C3B 3804   5.907   5.764   5.659  0.0435  0.0128  0.2825
  286POPC   C4B 3805   5.705   5.508   6.004  0.1114 -0.1092  0.1604
  287W        W 3806   0.422   9.907   3.897 -0.2151 -0.3529 -0.2763
  288W        W 3807   1.830   4.439   0.109  0.3028 -0.1894  0.2720
  289W        W 3808   6.733   7.741  10.916  0.0459  0.1288 -0.3186
  290W        W 3809   6.800   1.920   3.385 -0.0451 -0.0065  0.0722
  291W        W 3810   7.360   9.080   9.628 -0.0816 -0.0488 -0.0609
  292W        W 3811   4.087   1.936   1.068 -0.0898 -0.1812  0.0962
  293W        W 3812   3.854   2.273   1.388  0.2610 -0.0744  0.2414
  294W        W 3813   6.258   6.306   8.748 -0.1625 -0.3097 -0.1538
  295W        W 3814   1.134   6.719   1.785 -0.0537  0.3692  0.0539
  296W        W 3815   0.967   7.769  10.476 -0.0083 -0.3023 -0.2859
  297W        W 3816   9.062   7.072   2.917 -0.0118 -0.1164  0.1778
  298W        W 3817   7.788   1.327  10.843  0.0111 -0.2822 -0.0363
  299W        W 3818   8.919   3.429  10.677  0.0424  0.1109 -0.4623
  300W        W 3819   0.088   8.558   8.871 -0.2141 -0.1736 -0.5263
  301W        W 3820   3.295   7.514   0.988  0.0188  0.1311  0.3046
  302W        W 3821   4.191   1.246   3.480 -0.4338  0.1194  0.2024
  303W        W 3822   5.326   5.389   4.243 -0.2048 -0.0734  0.0738
  304W        W 3823   9.563   3.168   1.561 -0.1329 -0.1203 -0.2071
  305W        W 3824   0.198   7.636   1.315 -0.3191 -0.0795  0.1102
  306W        W 3825   4.978   3.056  11.001  0.0182  0.3321  0.0053
  307W        W 3826   4.549   5.533  10.694 -0.1737 -0.1219 -0.3016
  308W        W 3827   9.755   2.423   3.546  0.3026  0.1232  0.1062
  309W        W 3828   4.864   0.907   3.889  0.1510 -0.3935 -0.0556
  310W        W 3829   8.740   5.998   3.655  0.0788  0.1070 -0.1988
  311W        W 3830   7.972   5.431   1.928 -0.1352 -0.0832 -0.0601
  312W        W 3831   2.423   6.768  10.389  0.1842  0.2412 -0.0299
  313W        W 3832   6.505   8.485   9.431 -0.1412 -0.0645  0.0130
  314W        W 3833   2.550   4.603   9.433  0.2313 -0.2197  0.1712
  315W        W 3834   8.176   6.611   0.447  0.1834  0.0564 -0.3137
  316W        W 3835   2.356   9.607   9.943  0.1149 -0.0627  0.0523
  317W        W 3836   0.594   9.665   1.518 -0.0199 -0.1819  0.1919
  318W        W 3837   6.871   6.148   2.271  0.0771  0.3057  0.0881
  319W        W 3838   3.329   6.042   2.761  0.0423  0.2494  0.0436
  320W        W 3839   0.477   5.249   1.205  0.0427  0.0609 -0.0458
  321W        W 3840   8.858   1.370   1.224 -0.2202  0.0771  0.0714
  322W        W 3841   2.599   0.019   5.065 -0.1495  0.0033  0.1722
  323W        W 3842   7.941   3.022   2.490  0.4329  0.2094 -0.0618
  324W        W 3843   3.991   5.677  11.636 -0.1259  0.1170 -0.1084
  325W        W 3844   0.587   9.482   3.095  0.3834  0.1045  0.2514
  326W        W 3845   0.363   2.142  11.526  0.0011  0.0797 -0.0834
  327W        W 3846   0.029   7.938  11.057 -0.0128 -0.0557 -0.1020
  328W        W 3847   8.380   9.438   4.463  0.1190  0.0560 -0.0629
  329W        W 3848   1.919   0.216   3.386 -0.0899 -0.2513 -0.1314
  330W        W 3849   6.153   9.728   8.658 -0.0061 -0.0579 -0.1461
  331W        W 3850   6.553   1.562   0.696 -0.1282 -0.1076  0.0934
  332W        W 3851   7.119   0.669   4.865 -0.1383  0.3400  0.0143
  333W        W 3852   5.322   2.586   2.080 -0.2243  0.0360  0.3407
  334W        W 3853   4.915   5.351   0.739  0.3896  0.2448  0.0976
  335W        W 3854   2.564   1.059   3.256 -0.2643 -0.3656 -0.1420
  336W        W 3855   9.766   4.957   1.205  0.2110  0.0711 -0.0104
  337W        W 3856   0.233   9.331   9.279  0.2791 -0.0794 -0.0910
  338W        W 3857   2.372   4.246   1.659 -0.3615  0.3578 -0.2728
  339W        W 3858   4.259   0.339  11.372 -0.1682 -0.1071  0.1534
  340W        W 3859   6.790   8.360   0.704 -0.6035  0.1873 -0.0723
  341W        W 3860   9.620   7.873   3.372 -0.0101  0.0262 -0.0072
  342W        W 3861   4.580   7.444   4.371 -0.0591  0.1278 -0.2813
  343W        W 3862   3.419   2.517   3.232 -0.2300  0.6290 -0.2723
  344W        W 3863   9.779   8.342   3.133  0.2097 -0.0094 -0.1603
  345W        W 3864   0.129   0.267  11.514 -0.2428 -0.2062 -0.1317
  346W        W 3865   4.820   8.226   0.051 -0.0150 -0.0022  0.0971
  347W        W 3866   2.425   0.960   2.313 -0.0551  0.1663 -0.1785
  348W        W 3867   6.380   5.760  11.128  0.0908  0.1462  0.2539
  349W        W 3868   8.245   5.549   0.401 -0.1169  0.3370 -0.2318
  350W        W 3869   5.329   5.905   0.181  0.4691 -0.0010 -0.1988
  351W        W 3870   4.580   2.932   8.532 -0.1023  0.2143 -0.3322
  352W        W 3871   1.609   8.999   2.386  0.1063 -0.4805  0.2041
  353W        W 3872   7.254   9.618   3.325 -0.3667  0.1393 -0.0015
  354W        W 3873   4.819   4.442   3.699  0.2062  0.0899  0.0978
  355W        W 3874   5.934   4.559   2.602  0.2686  0.1105  0.1136
  356W        W 3875   3.267   4.141   8.086 -0.3515  0.1382  0.2700
  357W        W 3876   6.143   2.414   3.295 -0.2373  0.3121 -0.3267
  358W        W 3877   1.424   8.549   2.364  0.1291  0.1766 -0.0918
  359W        W 3878   3.986   8.324   1.656  0.2540 -0.1130 -0.3091
  360W        W 3879   5.492   8.040   2.138  0.1117 -0.0184  0.0376
  361W        W 3880   1.998   0.673   4.350  0.2818  0.0833 -0.0925
  362W        W 3881   1.862   2.816   9.801  0.2905 -0.0938 -0.3260
  363W        W 3882   6.508   5.422   3.941  0.1482 -0.0024 -0.0148
  364W        W 3883   3.760   3.287  10.390 -0.2668  0.1896 -0.0054
  365W        W 3884   2.382   1.057   4.225  0.0751 -0.3188  0.1192
  366W        W 3885   8.988   8.699  10.905  0.2501  0.1998  0.1775
  367W        W 3886   2.149   5.922  11.141  0.1755 -0.0344  0.0086
  368W        W 3887   7.962   9.391   0.803  0.0530 -0.3993  0.0563
  369W        W 3888   9.519   3.937   9.906  0.1880 -0.1029  0.0670
  370W        W 3889   3.064   0.941   4.593 -0.1665 -0.0162  0.0025
  371W        W 3890   2.878   4.697  10.665 -0.1297 -0.0701  0.2017
  372W        W 3891   8.316   2.870   1.491  0.0717  0.1585  0.4523
  373W        W 3892   1.850   0.493   4.757 -0.3984 -0.0419 -0.4834
  374W        W 3893   9.635   9.607   4.212  0.3626  0.3074  0.1624
  375W        W 3894   2.891   4.409   9.746  0.2221 -0.5490 -0.4077
  376W        W 3895   0.605   9.931  11.528  0.2415 -0.1658 -0.0712
  377W        W 3896   0.797   0.754   0.923  0.0896  0.0772  0.1338
  378W        W 3897   3.745   5.745   8.619  0.0044  0.0246 -0.0889
  379W        W 3898   0.218   0.871   4.953  0.1501 -0.0731  0.1757
  380W        W 3899   7.399   5.619   0.981  0.0107  0.0593 -0.3342
  381W        W 3900   6.172   0.775   4.349 -0.0033  0.1977 -0.2165
  382W        W 3901   3.209   8.553  10.108 -0.0058  0.0028 -0.0518
  383W        W 3902   7.787   3.964   8.782  0.3734 -0.0774 -0.4730
  384W        W 3903   6.007   9.698   0.535  0.0970  0.1278 -0.1021
  385W        W 3904   8.016   4.255  10.428  0.1312 -0.2594 -0.2063
  386W        W 3905   2.086   4.273   9.494 -0.0979  0.0179  0.0898
  387W        W 3906   2.286   3.550  11.172 -0.3033 -0.0178  0.0650
  388W        W 3907   3.092   5.299   0.364  0.0402  0.3311  0.1059
  389W        W 3908   8.874   8.422   2.998  0.0046  0.2341 -0.1090
  390W        W 3909   9.653   5.212   9.434  0.2926 -0.0539  0.1524
  391W        W 3910   1.322   1.870   3.761 -0.2146  0.0712  0.1043
  392W        W 3911   2.156   1.920   2.352  0.0481  0.0107  0.0971
  393W        W 3912   5.086   7.658   2.274  0.0361 -0.3405 -0.0757
  394W        W 3913   3.393   4.460   0.519  0.2526 -0.0098 -0.5415
  395W        W 3914   0.663   8.027   4.200 -0.0802  0.4774 -0.2741
  396W        W 3915   3.751   7.218  11.867 -0.0862 -0.0478  0.0328
  397W        W 3916   7.919   7.071  11.329 -0.3668  0.1691 -0.0927
  398W        W 3917   7.820   1.146   8.568  0.0670 -0.0920 -0.1084
  399W        W 3918   3.649   1.539   4.248  0.0305  0.4426 -0.0009
  400W        W 3919   3.246   6.981   2.022  0.1252  0.1308 -0.0045
  401W        W 3920   6.623   6.065   2.746  0.0447 -0.1434 -0.0195
  402W        W 3921   3.257   5.877   0.995  0.1926  0.1285  0.1052
  403W        W 3922   3.146   9.450   2.792 -0.0327 -0.1070  0.1554
  404W        W 3923   5.023   3.080   3.620  0.3608 -0.0328  0.2954
  405W        W 3924   1.213   4.687   9.946 -0.0339 -0.0929 -0.3087
  406W        W 3925   4.058   8.500  10.710  0.0396 -0.3360 -0.2154
  407W        W 3926   2.961   4.853   9.853 -0.1573 -0.1564 -0.3213
  408W        W 3927   9.398   4.041   3.129  0.0839  0.1505 -0.0697
  409W        W 3928   0.036   3.958  10.804  0.2228  0.1250 -0.0192
  410W        W 3929   6.462   9.379   3.207  0.2662  0.0116  0.4509
  411W        W 3930   5.243   8.019  11.029 -0.4204  0.1215 -0.0137
  412W        W 3931   3.583   1.063  10.182  0.2190 -0.0171  0.0066
  413W        W 3932   1.403   2.115  10.601  0.2226 -0.0698  0.0124
  414W        W 3933   7.719   9.464   0.034  0.1098 -0.2411  0.2467
  415W        W 3934   6.698   2.148   9.776 -0.1311 -0.1936 -0.0157
  416W        W 3935   4.605   0.143   2.414 -0.1619 -0.2127  0.0410
  417W        W 3936   6.908   2.990  10.801 -0.2252 -0.0228 -0.2844
  418W        W 3937   3.601   8.022   3.231 -0.1618  0.0702  0.0254
  419W        W 3938   1.662   6.715   1.828  0.2931  0.0950 -0.1044
  420W        W 3939   2.044   3.550  10.702  0.0086  0.2264 -0.2188
  421W        W 3940   4.285   9.653   2.293 -0.0790  0.1726  0.3137
  422W        W 3941   9.343   7.855   9.895  0.0211 -0.3069 -0.4346
  423W        W 3942   4.286   8.634   1.913 -0.1002 -0.4389 -0.1550
  424W        W 3943   9.821   9.074   4.238  0.0730  0.2060 -0.0058
  425W        W 3944   8.151   9.413   0.279  0.0113 -0.0356 -0.0847
  426W        W 3945   8.710   4.612   0.145  0.0048 -0.0407  0.0154
  427W        W 3946   2.195   8.269   1.033 -0.0455  0.2308 -0.0970
  428W        W 3947   4.570   4.988   8.625 -0.0139 -0.0424  0.3268
  429W        W 3948   7.014   5.001   1.533 -0.1139 -0.0930 -0.0174
  430W        W 3949   9.058   2.703   9.045  0.1236 -0.0373  0.1104
  431W        W 3950   7.230   8.290   0.479  0.1877  0.0586 -0.0934
  432W        W 3951   4.188   8.892   0.339 -0.0313  0.1408  0.2139
  433W        W 3952   9.122   2.806   0.712 -0.1983 -0.0004 -0.1750
  434W        W 3953   2.291   2.280   8.896 -0.0383 -0.1705  0.1936
  435W        W 3954   0.797   5.081   9.673  0.0145  0.1541 -0.1222
  436W        W 3955   5.073   0.067  10.393 -0.2660  0.0437 -0.0474
  437W        W 3956   1.917   7.117  11.814 -0.2343  0.3296  0.0709
  438W        W 3957   3.283   4.733   1.568 -0.1810 -0.4119  0.4310
  439W        W 3958   9.660   1.101   0.983  0.1375  0.2029  0.1390
  440W        W 3959   7.648   7.318   1.945 -0.0410 -0.1783 -0.0573
  441W        W 3960   5.475   3.287   0.993 -0.0637  0.0847  0.0371
  442W        W 3961   9.202   1.853  11.282 -0.1643 -0.1813 -0.0683
  443W        W 3962   0.313   2.722   4.780 -0.1920 -0.0066  0.2369
  444W        W 3963   7.723   6.808  11.719  0.1383 -0.1882 -0.0621
  445W        W 3964   4.023   6.845   1.280 -0.2379 -0.0846  0.4145
  446W        W 3965   5.346   2.758  10.171  0.1370 -0.2705  0.3710
  447W        W 3966   0.773   0.037   1.920  0.1874  0.0883  0.2694
  448W        W 3967   4.657   4.184  10.399 -0.0880  0.0991  0.4140
  449W        W 3968   9.210   7.957   4.802 -0.1210  0.0655  0.3228
  450W        W 3969   4.439   5.226   1.502 -0.2917 -0.0720 -0.3256
  451W        W 3970   7.773   9.630   2.488 -0.5059 -0.2680  0.2294
  452W        W 3971   4.456   5.464   4.206 -0.3816 -0.2874  0.3870
  453W        W 3972   0.695   7.827  11.677 -0.3540  0.0846  0.1238
  454W        W 3973   0.343   1.113  11.049  0.1693 -0.1663  0.3077
  455W        W 3974   5.430   7.478  10.370  0.0969  0.1393 -0.1913
  456W        W 3975   6.222   2.567   1.790 -0.1885  0.0890 -0.1289
  457W        W 3976   5.861   4.675   1.444 -0.0910 -0.1136 -0.1036
  458W        W 3977   7.585   4.908   1.701  0.3864  0.1367  0.0408
  459W        W 3978   3.752   6.709   8.575 -0.2893 -0.4042 -0.0972
  460W        W 3979   1.315   7.489   9.172 -0.1396 -0.0452 -0.1197
  461W        W 3980   6.803   0.494   3.159 -0.0098 -0.1274  0.1133
  462W        W 3981   7.648   1.785   9.024 -0.0175  0.0593  0.0558
  463W        W 3982   3.131   3.148   9.057 -0.5347  0.1375  0.2308
  464W        W 3983   0.725   6.001   4.412  0.2650 -0.0754  0.0824
  465W        W 3984   2.315   8.940   2.875  0.0538  0.1519 -0.1288
  466W        W 3985   5.609   7.675   1.317 -0.0562 -0.2323  0.2453
  467W        W 3986   0.137   2.967   1.493  0.0003  0.0185 -0.0198
  468W        W 3987   2.728   9.610   1.313  0.1411 -0.0111  0.0236
  469W        W 3988   7.086   5.482   0.612 -0.1733 -0.1760  0.1218
  470W        W 3989   3.622   8.617  11.055  0.0024  0.2110  0.3108
  471W        W 3990   3.753   9.644   9.829  0.0214 -0.1353 -0.0632
  472W        W 3991   9.644   0.539  11.378  0.0372  0.1788 -0.0646
  473W        W 3992   5.055   9.623   2.038 -0.2789 -0.4017 -0.0002
  474W        W 3993   6.872   8.841   3.712  0.0619 -0.0311 -0.0210
  475W        W 3994   7.017   5.954   0.890  0.0120  0.0746 -0.0797
  476W        W 3995   6.617   1.842   9.449 -0.0365  0.0465 -0.1977
  477W        W 3996   4.817   7.136   2.988 -0.0266 -0.0524 -0.2003
  478W        W 3997   9.344   6.598   3.052  0.1090  0.0673 -0.0280
  479W        W 3998   4.317   4.733  10.925 -0.3043  0.0810 -0.2092
  480W        W 3999   3.200   0.972  11.328 -0.1411  0.1605 -0.0817
  481W        W 4000   6.872   1.832  10.224 -0.0776 -0.1547  0.3627
  482W        W 4001   5.017   9.940  11.610 -0.1102  0.1040 -0.0031
  483W        W 4002   3.084   2.850  10.229 -0.0957 -0.1023  0.2475
  484W        W 4003   0.560   1.302   3.770 -0.2040  0.0572  0.1226
  485W        W 4004   4.634   5.847   8.952  0.0468  0.1410 -0.0632
  486W        W 4005   0.771   8.784   5.715 -0.1569  0.2608  0.1901
  487W        W 4006   4.236   5.042   9.037 -0.1366  0.2470 -0.1179
  488W        W 4007   4.336   9.771   0.278  0.1611  0.3194 -0.2759
  489W        W 4008   2.316   0.370   4.060  0.0552  0.2377 -0.0237
  490W        W 4009   6.527   5.325   2.808  0.1310 -0.0904 -0.0260
  491W        W 4010   5.638   8.926   9.420  0.0144 -0.0228  0.1874
  492W        W 4011   5.013   0.050   0.747  0.2267  0.0722 -0.1058
  493W        W 4012   7.243   2.224  11.875  0.3396 -0.4206 -0.2385
  494W        W 4013   3.388   2.225  11.047 -0.1413  0.0807  0.0491
  495W        W 4014   1.417   3.772   0.797  0.4369  0.3628  0.1788
  496W        W 4015   3.209   2.244   2.098  0.0118  0.0406  0.2751
  497W        W 4016   1.618   8.425   8.896 -0.1512  0.0690  0.0957
  498W        W 4017   2.927   1.377  11.154  0.1323 -0.1750 -0.3179
  499W        W 4018   7.873   5.400   2.473 -0.2450 -0.1316  0.0083
  500W        W 4019   6.220   3.548   1.701  0.0338  0.3348 -0.0602
  501W        W 4020   6.746   6.740   9.260 -0.2017 -0.0984  0.2328
  502W        W 4021   9.216   5.879   2.329 -0.1242  0.0929 -0.3909
  503W        W 4022   2.313   2.316   1.464  0.2516 -0.4093 -0.1315
  504W        W 4023   6.365   1.121   0.668 -0.0917 -0.1872  0.1255
  505W        W 4024   6.749   0.338   2.708  0.2824 -0.2450 -0.0632
  506W        W 4025   1.904   1.670   1.496 -0.0397 -0.0642  0.1682
  507W        W 4026   2.926   5.703   0.652 -0.4628  0.0619  0.2766
  508W        W 4027   5.100   6.233   3.206 -0.3900 -0.0421 -0.2643
  509W        W 4028   9.783   4.122   1.986  0.5133 -0.1890 -0.2432
  510W        W 4029   8.026   3.734   9.254 -0.0297 -0.1423 -0.2092
  511W        W 4030   3.507   2.498   8.346  0.1622  0.1617 -0.5847
  512W        W 4031   2.054   1.717   4.010 -0.0603  0.2182 -0.1152
  513W        W 4032   2.818   1.113   9.469 -0.1007  0.0820  0.1931
  514W        W 4033   2.968   3.515   1.321  0.1021 -0.0305 -0.1137
  515W        W 4034   1.683   0.807   3.465  0.0238 -0.1797 -0.0491
  516W        W 4035   4.484   0.785  10.564  0.0265 -0.1581  0.1581
  517W        W 4036   9.493   8.645  10.871  0.1165  0.0184 -0.0515
  518W        W 4037   2.464   5.334   8.072 -0.0522  0.1523 -0.3278
  519W        W 4038   8.929   4.141   2.738 -0.1323  0.2360  0.0152
  520W        W 4039   7.234   2.631  10.905 -0.0123 -0.0195  0.4568
  521W        W 4040   2.694   1.130   8.974 -0.4119  0.1897  0.1837
  522W        W 4041   6.393   6.690   0.686  0.0655  0.1688  0.0685
  523W        W 4042   8.546   3.970  10.512 -0.0347  0.0521  0.1405
  524W        W 4043   2.159   3.765   2.516  0.1576  0.1847  0.1691
  525W        W 4044   3.981   4.663  11.766  0.2229  0.1871 -0.2315
  526W        W 4045   5.213   2.061   8.812 -0.2849 -0.0059 -0.0610
  527W        W 4046   3.280   1.146   2.713  0.0780 -0.0581  0.0349
  528W        W 4047   0.892   3.631   1.796 -0.0737  0.0081  0.1485
  529W        W 4048   6.176   3.682   9.506 -0.0751 -0.0093  0.0428
  530W        W 4049   8.923   3.497   9.393  0.4726 -0.1540 -0.1960
  531W        W 4050   0.564   8.247  10.974 -0.0715 -0.1153  0.0902
  532W        W 4051   5.776   9.026  11.490  0.0195 -0.2680  0.1800
  533W        W 4052   3.634   1.860  10.673 -0.0640 -0.0726  0.0002
  534W        W 4053   5.055   6.735   3.094  0.2528  0.1245  0.2215
  535W        W 4054   7.509   1.139   2.339 -0.1496  0.1311  0.1149
  536W        W 4055   7.522   6.139   1.035  0.1093  0.1588 -0.0550
  537W        W 4056   7.517   0.121   3.556 -0.2236  0.1087 -0.1673
  538W        W 4057   0.118   1.286   5.105  0.0621 -0.5282  0.0780
  539W        W 4058   4.784   1.309   1.900  0.0528 -0.2365 -0.1308
  540W        W 4059   2.805   8.240   9.747 -0.1533  0.0204 -0.0277
  541W        W 4060   4.798   9.639   4.302 -0.0464  0.0137 -0.2372
  542W        W 4061   9.716   2.855   3.352 -0.0653  0.0183  0.2014
  543W        W 4062   7.231   5.451   8.661 -0.1965  0.3410 -0.0186
  544W        W 4063   8.133   3.258   5.018  0.4558  0.0405  0.2164
  545W        W 4064   8.491   4.550   4.661  0.1767  0.1240  0.2337
  546W        W 4065   1.008   8.725   9.367  0.2417  0.2706 -0.1176
  547W        W 4066   2.929   7.811   0.682 -0.0158  0.1117  0.1589
  548W        W 4067   3.089   6.777   9.956 -0.0503  0.1001 -0.3470
  549W        W 4068   4.868   1.103  10.834 -0.1272 -0.2806 -0.1960
  550W        W 4069   9.370   2.513   1.058  0.1339  0.4548 -0.1116
  551W        W 4070   1.929   9.766   1.882 -0.3420 -0.2239 -0.0724
  552W        W 4071   2.444   6.608  10.840 -0.0798  0.1389  0.1596
  553W        W 4072   0.608   9.038   3.670 -0.5158 -0.0337  0.1791
  554W        W 4073   6.579   0.876  10.512  0.0180 -0.3983  0.2411
  555W        W 4074   1.047   3.110   7.977  0.1501 -0.0235  0.0768
  556W        W 4075   3.211   9.902  11.744  0.1829 -0.0932  0.0228
  557W        W 4076   6.192   4.038   0.874  0.0393  0.0268  0.1815
  558W        W 4077   5.159   4.846   3.894 -0.1059 -0.2182 -0.0832
  559W        W 4078   3.264   5.566   8.686  0.0636 -0.1897 -0.0292
  560W        W 4079   0.840   3.315   1.343  0.0488 -0.3002 -0.0695
  561W        W 4080   4.461   7.254   1.123 -0.2429 -0.1155  0.1619
  562W        W 4081   4.641   7.911   2.226  0.0905  0.1834 -0.0089
  563W        W 4082   5.746   6.860  11.469 -0.2689  0.2184  0.1072
  564W        W 4083   1.450   3.224   2.576  0.2478  0.3984 -0.1533
  565W        W 4084   7.846   0.723   1.012 -0.2771 -0.0887  0.0965
  566W        W 4085   1.057   2.770   2.929  0.1347 -0.1223 -0.2646
  567W        W 4086   7.448   9.205   2.385 -0.1523  0.2246 -0.1780
  568W        W 4087   2.789   9.232  11.161 -0.0410  0.0522 -0.0323
  569W        W 4088   6.050   8.874   0.803  0.1205 -0.0141 -0.3744
  570W        W 4089   2.949   6.618   8.564 -0.0648 -0.2564  0.2968
  571W        W 4090   0.956   2.081  10.183  0.0616  0.0941  0.3820
  572W        W 4091   3.926   1.951   9.242  0.1296  0.0786  0.0797
  573W        W 4092   6.736   1.728   1.993 -0.2298 -0.1557 -0.1466
  574W        W 4093   8.235   3.826   2.942 -0.1381 -0.1546  0.1086
  575W        W 4094   2.411   9.475  10.905  0.1048 -0.0659 -0.0735
  576W        W 4095   3.200   2.823   2.031  0.0170  0.1430  0.1548
  577W        W 4096   4.495   1.367  10.697  0.2923 -0.0492  0.0319
  578W        W 4097   2.788   9.122   2.976  0.1238  0.0961 -0.0896
  579W        W 4098   8.902   1.247  10.892  0.1057 -0.1258  0.0345
  580W        W 4099   2.388   7.087  10.866 -0.1625  0.0488  0.2720
  581W        W 4100   0.174   2.415   2.832 -0.1558 -0.1847  0.2316
  582W        W 4101   4.579   0.302   4.330  0.4304  0.0147  0.0101
  583W        W 4102   6.758   0.911   3.553 -0.0488  0.0350 -0.0477
  584W        W 4103   5.140   2.203   9.718 -0.0820 -0.0356 -0.0089
  585W        W 4104   0.149   2.463   9.037 -0.0056 -0.3037  0.1139
  586W        W 4105   2.985   3.603  10.838 -0.1920 -0.0222 -0.2821
  587W        W 4106   1.133   3.671   0.339  0.1524  0.2830 -0.1739
  588W        W 4107   3.978   9.156   2.264  0.4077 -0.0263  0.1179
  589W        W 4108   5.418   6.443   4.089 -0.1975  0.0729  0.0896
  590W        W 4109   2.356   8.798   2.005 -0.0412  0.2474 -0.3002
  591W        W 4110   3.197   5.718   2.290 -0.0915  0.0712  0.2120
  592W        W 4111   3.195   3.201   8.376 -0.0358  0.0169  0.0919
  593W        W 4112   8.977   5.754   1.805 -0.0047  0.1262 -0.1022
  594W        W 4113   0.271   2.023   1.797 -0.0257 -0.4824 -0.3356
  595W        W 4114   4.497   4.576   2.539 -0.0782 -0.0412 -0.0759
  596W        W 4115   3.963   9.078   2.833  0.0773 -0.0118  0.1877
  597W        W 4116   0.162   8.268  10.644 -0.1542  0.1929  0.3071
  598W        W 4117   3.524   8.944   9.878 -0.2082 -0.0516 -0.0524
  599W        W 4118   2.644   7.759   4.961  0.2138 -0.1535  0.3927
  600W        W 4119   7.384   6.802   3.823  0.1027 -0.2039  0.0804
  601W        W 4120   7.448   3.785   9.207 -0.3275  0.0033  0.0083
  602W        W 4121   3.344   3.958  10.742 -0.2169  0.0548 -0.0181
  603W        W 4122   1.539   3.655  11.922  0.3408 -0.0243 -0.2829
  604W        W 4123   7.509   5.919   9.248 -0.0481 -0.0579  0.1776
  605W        W 4124   8.065   3.057   1.987 -0.1073  0.0553 -0.0306
  606W        W 4125   0.272   4.089   1.773  0.0175 -0.1231 -0.0514
  607W        W 4126   2.180   8.439   3.380  0.1834 -0.1176  0.0705
  608W        W 4127   0.335   5.075  10.190 -0.1037  0.1060 -0.0370
  609W        W 4128   6.492   7.144  11.073  0.1422 -0.1148 -0.0200
  610W        W 4129   7.180   5.091   4.372  0.2430 -0.1049 -0.0762
  611W        W 4130   6.212   5.762   1.489 -0.3147 -0.5132  0.1202
  612W        W 4131   2.486   9.889   2.756 -0.0213  0.1406  0.0516
  613W        W 4132   8.710   1.519   1.827 -0.0356  0.1914 -0.2075
  614W        W 4133   7.549   8.056   9.858  0.2192  0.0895  0.2418
  615W        W 4134   7.816   1.611  10.232  0.0277  0.1228  0.3210
  616W        W 4135   0.881   7.800   3.619 -0.0154  0.2315  0.0711
  617W        W 4136   6.659   9.927   3.204 -0.0151  0.0297 -0.1721
  618W        W 4137   7.115   1.594   3.216 -0.2525 -0.1748 -0.4557
  619W        W 4138   2.606   3.581   0.984 -0.2674 -0.4963 -0.0721
  620W        W 4139   7.883   2.197   8.963  0.0095  0.2268 -0.1467
  621W        W 4140   8.574   2.619  10.290 -0.3121  0.0100  0.1989
  622W        W 4141   8.444   2.897   9.357  0.0013 -0.0961  0.1329
  623W        W 4142   3.528   7.078   3.133 -0.1662  0.0110 -0.0329
  624W        W 4143   5.907   3.243  11.847 -0.4070  0.0136  0.1995
  625W        W 4144   9.303   7.338   3.793 -0.0995 -0.1342 -0.0999
  626W        W 4145   0.647   8.542   3.451  0.1656  0.0036  0.1635
  627W        W 4146   6.722   2.462   9.398 -0.1355 -0.1838 -0.1245
  628W        W 4147   1.095   4.227   9.245 -0.2856 -0.0763  0.1249
  629W        W 4148   3.582   8.074   8.855 -0.1669 -0.0066  0.0594
  630W        W 4149   1.770   3.134   0.057 -0.2389 -0.0316  0.0095
  631W        W 4150   5.202   7.065   0.493  0.0393 -0.0539 -0.3170
  632W        W 4151   9.130   9.489   1.824 -0.1079 -0.1580 -0.0543
  633W        W 4152   7.387   4.437  11.115 -0.1838  0.0813 -0.2095
  634W        W 4153   1.364   8.448   2.895 -0.0469 -0.2583  0.3204
  635W        W 4154   4.405   2.627   0.133 -0.1515  0.0656  0.2496
  636W        W 4155   2.569   3.801   1.439 -0.1650  0.0999 -0.0425
  637W        W 4156   4.564   5.164   0.469 -0.0286  0.0760 -0.0547
  638W        W 4157   6.754   0.234  10.917 -0.0843 -0.0701  0.2005
  639W        W 4158   1.231   4.617   0.880 -0.1321  0.0383 -0.3221
  640W        W 4159   8.241   0.616   8.946  0.1155 -0.1671 -0.0844
  641W        W 4160   3.426   1.590   3.373  0.3961  0.4775  0.3503
  642W        W 4161   2.085   3.154   0.454 -0.2091  0.0617 -0.1058
  643W        W 4162   4.408   0.977   2.125  0.0061 -0.2056 -0.3303
  644W        W 4163   9.326   6.350   1.293  0.2253 -0.1545  0.1304
  645W        W 4164   6.342   6.133   9.826 -0.1218 -0.0279  0.0059
  646W        W 4165   9.337   1.016   9.469  0.0379  0.1389  0.3909
  647W        W 4166   5.323   8.887  11.449  0.3904 -0.1113 -0.0480
  648W        W 4167   7.099   4.442   2.436 -0.3879  0.2828 -0.1285
  649W        W 4168   4.928   4.975   9.832 -0.1737  0.0264  0.2386
  650W        W 4169   2.620   1.498   8.601 -0.0643  0.2101  0.2549
  651W        W 4170   8.283   6.670   0.915 -0.0644 -0.2408  0.1818
  652W        W 4171   1.118   5.179  10.060 -0.1575  0.0344 -0.0947
  653W        W 4172   9.484   0.064   9.821 -0.0218 -0.0411 -0.1219
  654W        W 4173   4.577   3.727   1.119  0.4905  0.0735 -0.1312
  655W        W 4174   9.568   9.445   0.037 -0.1071  0.0004  0.0737
  656W        W 4175   0.742   3.144   8.368 -0.0980  0.1598 -0.0697
  657W        W 4176   6.661   0.288  10.392  0.0073  0.1447 -0.2619
  658W        W 4177   3.176   5.500   9.981 -0.0005  0.0510  0.0413
  659W        W 4178   3.091   1.884   9.482 -0.1154 -0.0707 -0.0668
  660W        W 4179   5.849   9.518   9.026  0.1708 -0.1396 -0.1327
  661W        W 4180   6.786   0.449   3.792  0.1295 -0.2538 -0.2601
  662W        W 4181   8.529   3.449   0.824 -0.0502 -0.2960  0.0106
  663W        W 4182   0.688   6.477   3.198 -0.0805 -0.1273 -0.0806
  664W        W 4183   1.909   4.622   2.229  0.2066 -0.0563 -0.2604
  665W        W 4184   0.275   2.552   1.200 -0.1040  0.0786 -0.0443
  666W        W 4185   9.114   5.915  11.581  0.0370 -0.5592  0.0211
  667W        W 4186   4.583   8.169   1.797 -0.0875 -0.1888  0.0983
  668W        W 4187   3.789   4.921  10.958  0.0877  0.1503  0.1644
  669W        W 4188   1.823   1.924   8.692  0.2515 -0.0769  0.2121
  670W        W 4189   6.110   0.494   0.091  0.1486 -0.3612  0.2791
  671W        W 4190   8.865   7.570  10.123  0.0742  0.0489  0.1136
  672W        W 4191   3.560   4.783  11.345 -0.2767  0.3639  0.3816
  673W        W 4192   1.071   7.389   1.134 -0.1414  0.3069 -0.1528
  674W        W 4193   0.709   4.344  11.182  0.2371 -0.0562  0.1066
  675W        W 4194   5.540   8.146   1.129 -0.3236  0.1095  0.1466
  676W        W 4195   0.073   1.191  11.633  0.1596 -0.3695 -0.1616
  677W        W 4196   2.144   9.337   4.663  0.1384  0.0644  0.1339
  678W        W 4197   8.354   8.163   0.053 -0.0199 -0.0556 -0.0140
  679W        W 4198   3.194   8.674   9.546  0.1288 -0.0950 -0.0530
  680W        W 4199   8.345   2.206  10.073  0.1531 -0.0821 -0.1432
  681W        W 4200   0.437   5.599   3.412  0.0848  0.0132 -0.2846
  682W        W 4201   0.838   9.033   3.219  0.1029 -0.3394  0.0442
  683W        W 4202   5.352   6.519   8.783  0.0648 -0.1915 -0.0731
  684W        W 4203   3.523   9.062   8.919  0.1943  0.1039 -0.0959
  685W        W 4204   9.275   1.577   0.003  0.2052  0.1753 -0.2780
  686W        W 4205   7.907   9.300   1.574  0.0773  0.0661  0.2657
  687W        W 4206   6.225   3.999   0.393  0.1216  0.4677  0.0399
  688W        W 4207   2.959   1.571   9.075  0.0053  0.1329 -0.0685
  689W        W 4208   1.807   0.754   9.071  0.1268  0.0843  0.2108
  690W        W 4209   2.063   0.063   9.693  0.0016 -0.0939  0.1380
  691W        W 4210   6.087   3.319  10.537  0.0259  0.1242 -0.0140
  692W        W 4211   2.303   2.768   8.763  0.0635 -0.0698 -0.4196
  693W        W 4212   7.515   1.120  11.159  0.3132 -0.0432  0.0998
  694W        W 4213   1.368   2.483  10.189  0.0408  0.0753  0.1650
  695W        W 4214   3.938   3.436   9.915  0.1426  0.2625 -0.2491
  696W        W 4215   5.088   3.657   2.812  0.2511  0.3137 -0.3933
  697W        W 4216   3.779   6.078   3.046  0.1711  0.2499  0.1056
  698W        W 4217   0.334   7.704  11.375  0.0013  0.0037 -0.1533
  699W        W 4218   7.939   0.695  10.346  0.1276 -0.1777  0.6103
  700W        W 4219   2.685   9.510   3.474  0.0264  0.4680  0.0898
  701W        W 4220   7.261   6.060  10.705 -0.0709  0.5226 -0.5136
  702W        W 4221   8.546   3.969   9.309  0.0775 -0.3923 -0.1762
  703W        W 4222   0.852   8.243  11.434  0.0331  0.2022 -0.1845
  704W        W 4223   6.137   7.345   3.489  0.1608 -0.3107  0.0843
  705W        W 4224   1.390   6.021   3.526  0.1128 -0.4082 -0.0383
  706W        W 4225   0.317   1.001   8.268 -0.2373 -0.1270  0.2669
  707W        W 4226   2.870   7.667   1.374 -0.3195 -0.0785 -0.2711
  708W        W 4227   1.078   2.790   3.426 -0.1707 -0.1146 -0.2202
  709W        W 4228   3.050   5.216   2.428  0.1525  0.0990  0.2283
  710W        W 4229   5.517   7.270   2.777  0.0519  0.2216  0.1060
  711W        W 4230   9.775   8.425  11.607 -0.0150 -0.2297 -0.0660
  712W        W 4231   5.763   8.628   4.764 -0.0454 -0.2099  0.2674
  713W        W 4232   6.510   3.256   1.315  0.0083 -0.5145  0.0079
  714W        W 4233   3.711   5.193  11.734 -0.1874  0.1695 -0.0897
  715W        W 4234   1.252   3.295   0.684  0.0358 -0.4289 -0.2312
  716W        W 4235   9.883   2.288  11.894 -0.0277 -0.0802 -0.0558
  717W        W 4236   0.063   1.959   3.069  0.0793  0.1090 -0.1861
  718W        W 4237   2.845   1.546  10.664  0.1601 -0.0568 -0.0947
  719W        W 4238   2.023   0.286   0.511 -0.1286  0.3487  0.0611
  720W        W 4239   3.336   0.884   3.171  0.3776 -0.0023 -0.1122
  721W        W 4240   4.874   1.987   0.540  0.1024  0.2565 -0.2281
  722W        W 4241   8.692   2.483   2.055  0.0962 -0.0472 -0.4600
  723W        W 4242   8.427   8.016  11.272  0.1761 -0.3288 -0.0348
  724W        W 4243   8.274   8.563   0.429 -0.2364 -0.3227  0.3082
  725W        W 4244   4.843   1.649  10.516  0.4009 -0.2997 -0.1176
  726W        W 4245   2.412   5.254   2.548 -0.5482 -0.0825 -0.3167
  727W        W 4246   9.460   0.630   2.427 -0.3941  0.4256 -0.1162
  728W        W 4247   2.835   8.506   0.499  0.0863 -0.2518  0.0911
  729W        W 4248   5.572   9.853  11.805  0.0808 -0.1496 -0.1888
  730W        W 4249   1.894   8.682  10.735 -0.1038  0.0633 -0.1685
  731W        W 4250   8.904   0.066   3.823  0.2769 -0.2544  0.0829
  732W        W 4251   3.375   1.166   0.132  0.1370  0.2576 -0.1513
  733W        W 4252   8.410   1.317  10.905 -0.1278 -0.0400  0.3130
  734W        W 4253   4.993   0.836  11.519 -0.3458  0.1679 -0.0301
  735W        W 4254   8.640   7.788   0.185 -0.3106  0.1921 -0.0063
  736W        W 4255   3.268   4.285   9.433 -0.0068 -0.0894 -0.1449
  737W        W 4256   6.523   3.049   1.795  0.4058 -0.1001  0.2105
  738W        W 4257   3.657   6.215   9.363 -0.0310  0.0724 -0.1947
  739W        W 4258   5.710   9.481   4.339  0.1028  0.3938 -0.0289
  740W        W 4259   5.220   1.353   0.290 -0.1909  0.1625  0.3333
  741W        W 4260   0.363   7.568   0.013  0.1311  0.0087 -0.0076
  742W        W 4261   4.049   3.764   1.703 -0.1772 -0.0836  0.0644
  743W        W 4262   1.334   4.199   1.693 -0.0834 -0.2745  0.1478
  744W        W 4263   6.230   8.981   9.400 -0.3647  0.3529 -0.5263
  745W        W 4264   5.217   1.557  10.136  0.3084 -0.0084 -0.3273
  746W        W 4265   9.048   1.357   0.414  0.0600 -0.1575  0.0601
  747W        W 4266   6.360   7.434   8.179 -0.3365 -0.0281  0.0656
  748W        W 4267   1.271   9.424   4.016 -0.1727  0.1952  0.0138
  749W        W 4268   6.202   5.892   3.089 -0.2930 -0.1606 -0.1664
  750W        W 4269   1.166   1.043   1.072 -0.0594  0.0228 -0.0664
  751W        W 4270   6.674   7.809   8.394 -0.0772  0.0633 -0.2478
  752W        W 4271   6.710   9.707   9.075  0.1779 -0.1698 -0.0919
  753W        W 4272   2.799   6.469   9.543  0.0109  0.1104 -0.2201
  754W        W 4273   3.800   2.197   3.529  0.1518  0.1920 -0.3268
  755W        W 4274   4.055   1.707  10.510  0.0975  0.2641 -0.0259
  756W        W 4275   1.580   0.929   4.678  0.4650 -0.1755  0.1661
  757W        W 4276   7.726   3.997   9.545 -0.0432  0.0323  0.2322
  758W        W 4277   5.968   0.708   9.681  0.0594 -0.1087  0.2037
  759W        W 4278   8.221   8.515   2.127  0.1025  0.1191  0.0381
  760W        W 4279   7.248   3.169   0.845 -0.0513 -0.1682  0.3958
  761W        W 4280   2.745   1.864  11.035 -0.2914  0.1086 -0.3603
  762W        W 4281   9.925   7.972   9.618  0.1644  0.0525  0.0661
  763W        W 4282   9.181   1.548   9.319  0.3029  0.1692  0.3464
  764W        W 4283   0.260   4.899  10.624 -0.0052  0.0993  0.3905
  765W        W 4284   7.759   5.413  11.229 -0.1706  0.1549 -0.0791
  766W        W 4285   5.019   5.886   3.594 -0.3009 -0.1942 -0.2250
  767W        W 4286   7.330   4.648   0.331  0.3904  0.2756  0.2585
  768W        W 4287   0.612   3.392  11.632  0.0733  0.0302  0.0432
  769W        W 4288   2.275   3.639   0.601 -0.1188  0.1282  0.2586
  770W        W 4289   9.021   0.576   3.039 -0.0934  0.1024 -0.3631
  771W        W 4290   8.704   8.266   2.358 -0.1783  0.1149 -0.0438
  772W        W 4291   3.347   3.222   1.097  0.0510 -0.1950  0.2101
  773W        W 4292   2.811   7.614  11.551 -0.0616  0.1326 -0.1143
  774W        W 4293   2.297   8.038   2.635 -0.0820 -0.0781  0.2655
  775W        W 4294   0.087   1.377   0.604  0.1254  0.1504 -0.0175
  776W        W 4295   4.502   4.255   0.970  0.2606  0.3503  0.1597
  777W        W 4296   1.232   0.646   0.713  0.0814 -0.0195  0.0281
  778W        W 4297   1.159   4.547   6.834  0.5347 -0.1427  0.0385
  779W        W 4298   4.014   2.847   2.263 -0.0229  0.0934  0.0879
  780W        W 4299   1.832   8.353   9.828 -0.1543  0.4181 -0.0289
  781W        W 4300   9.000   6.410   9.162 -0.1940  0.0888  0.1048
  782W        W 4301   6.567   5.015   1.012 -0.0292  0.0100  0.3469
  783W        W 4302   8.125   5.783  11.329  0.2399 -0.0207  0.1471
  784W        W 4303   6.195   9.519   3.626  0.2163 -0.3324 -0.6039
  785W        W 4304   3.405   7.937   2.764 -0.0025  0.1379  0.0967
  786W        W 4305   8.607   0.169  10.689  0.1384 -0.0265  0.1238
  787W        W 4306   6.273   0.517   1.378  0.1054  0.1314 -0.3205
  788W        W 4307   3.948   7.568   3.557 -0.4645 -0.1354 -0.0906
  789W        W 4308   5.530   6.831   1.925 -0.0686  0.1283  0.1557
  790W        W 4309   1.957   0.872   9.908 -0.1456 -0.2722 -0.0038
  791W        W 4310   1.195   6.752  10.224  0.1137  0.0386  0.0489
  792W        W 4311   6.599   7.499   0.528  0.2791 -0.0673 -0.0942
  793W        W 4312   2.868   5.228   7.664 -0.0274 -0.0439 -0.2048
  794W        W 4313   4.391   1.881  10.813 -0.0565 -0.3869 -0.2819
  795W        W 4314   9.487   4.085  10.705  0.1232 -0.3031  0.2117
  796W        W 4315   3.686   9.209   0.095 -0.0411 -0.1837  0.0736
  797W        W 4316   9.317   5.185  11.056 -0.2782  0.2775 -0.5619
  798W        W 4317   7.054   3.722  10.246 -0.0643 -0.0594  0.4705
  799W        W 4318   1.943   2.916   3.231 -0.0782  0.0200 -0.1805
  800W        W 4319   0.188   8.353  10.127  0.1942  0.0865  0.1401
  801W        W 4320   4.910   4.733  11.127 -0.4436 -0.1467  0.1204
  802W        W 4321   7.987   4.297   2.342  0.1070  0.1141 -0.1514
  803W        W 4322   5.082   1.207   5.247  0.1342  0.1796  0.0129
  804W        W 4323   8.802   2.721   1.648  0.0206  0.0905  0.0434
  805W        W 4324   2.951   6.340   0.056  0.1713 -0.1085 -0.2950
  806W        W 4325   1.088   8.862   1.395 -0.0238  0.2911  0.3332
  807W        W 4326   9.246   7.725   2.570  0.1021 -0.1942  0.2459
  808W        W 4327   6.796   6.287   8.909 -0.1448 -0.0478 -0.2337
  809W        W 4328   5.703   3.950   9.183 -0.2123 -0.0181  0.2281
  810W        W 4329   1.058   7.213   2.472 -0.2826  0.0338 -0.1363
  811W        W 4330   7.713   8.753   9.352 -0.1668 -0.2163  0.0726
  812W        W 4331   8.347   9.942   3.097 -0.2002 -0.0773 -0.0740
  813W        W 4332   0.869   4.525   2.150  0.2644 -0.0447  0.0564
  814W        W 4333   0.428   9.536   3.571  0.1859  0.0918  0.2436
  815W        W 4334   2.339   2.204  11.044  0.2819 -0.0069 -0.0414
  816W        W 4335   8.214   0.152   2.090  0.0099  0.0858 -0.1003
  817W        W 4336   3.014   2.718   8.259 -0.1577  0.0314 -0.1442
  818W        W 4337   1.552   0.888   4.134 -0.2966 -0.0606 -0.1837
  819W        W 4338   1.226   1.983  11.151 -0.0299  0.4414 -0.1327
  820W        W 4339   0.086   3.577   4.383  0.1953  0.1952  0.1242
  821W        W 4340   6.516   9.386   0.061  0.2087  0.1213  0.3662
  822W        W 4341   6.313   1.548   1.619  0.2063  0.0500 -0.1184
  823W        W 4342   3.900   8.575   0.632 -0.0570  0.3636 -0.2895
  824W        W 4343   6.905   6.290  11.735  0.1433  0.0711 -0.3292
  825W        W 4344   8.931   0.019   2.801  0.1363 -0.2250 -0.3845
  826W        W 4345   0.894   0.596   9.440  0.1760 -0.0206  0.1021
  827W        W 4346   0.450   1.468   1.453 -0.3053 -0.1790 -0.1788
  828W        W 4347   6.803   1.359   0.322 -0.2136 -0.1748  0.0507
  829W        W 4348   7.055   7.411   1.535  0.1098  0.2746 -0.0257
  830W        W 4349   3.745   5.089   2.865 -0.1303  0.1079 -0.0085
  831W        W 4350   7.327   7.787   3.855 -0.1412 -0.0767  0.0996
  832W        W 4351   8.463   4.870  11.704  0.1306  0.0776  0.0729
  833W        W 4352   2.719   3.377   3.765  0.2677 -0.3132 -0.1239
  834W        W 4353   8.584   8.615   3.991 -0.4622 -0.0031 -0.2250
  835W        W 4354   9.607   7.850   2.911  0.0594  0.0730  0.1606
  836W        W 4355   8.430   4.543   2.265 -0.0382 -0.1911  0.1273
  837W        W 4356   5.784   2.441   1.102  0.3650  0.0968 -0.3657
  838W        W 4357   6.150   9.621   4.687  0.0890  0.1204 -0.0061
  839W        W 4358   7.486   5.409   1.841 -0.0760 -0.3404  0.0026
  840W        W 4359   7.804   5.422   3.668 -0.0846 -0.0360 -0.3060
  841W        W 4360   2.978   3.954  11.540 -0.1075 -0.0951  0.1202
  842W        W 4361   8.674   9.428   2.512  0.2427 -0.1982 -0.0860
  843W        W 4362   2.830   5.236   0.831 -0.2433  0.2101 -0.0625
  844W        W 4363   0.861   2.521  10.413  0.3620  0.1930 -0.1616
  845W        W 4364   0.382   1.559   0.916  0.2150 -0.0909 -0.2045
  846W        W 4365   9.325   9.527   8.108  0.1990 -0.0558 -0.0876
  847W        W 4366   1.437   0.260  10.864  0.1622 -0.1780 -0.0339
  848W        W 4367   0.003   9.732   2.819  0.0542  0.2130 -0.0725
  849W        W 4368   8.856   5.340   4.144 -0.1080  0.2029 -0.1820
  850W        W 4369   7.145   5.733  11.825  0.0370  0.1224  0.1996
  851W        W 4370   4.731   3.892  11.293  0.0369 -0.2153 -0.1968
  852W        W 4371   4.268   7.415   8.430 -0.0590  0.3424 -0.4149
  853W        W 4372   9.483   0.289   3.474 -0.2781 -0.2668  0.0524
  854W        W 4373   6.511   3.791  11.453  0.1917 -0.0374 -0.3249
  855W        W 4374   3.050   0.269   2.803  0.1028  0.2156 -0.0474
  856W        W 4375   1.261   0.649  11.637  0.0584  0.1164  0.1045
  857W        W 4376   1.746   8.516   9.365 -0.1268 -0.1139 -0.2551
  858W        W 4377   4.378   9.090   9.353 -0.1545  0.1035  0.1146
  859W        W 4378   0.745   0.927   9.920 -0.0553  0.3943 -0.3628
  860W        W 4379   5.319   7.061   9.104 -0.1865  0.0356 -0.1503
  861W        W 4380   6.398   8.406   0.330  0.1909  0.2169 -0.1731
  862W        W 4381   3.410   6.409  11.756 -0.1841  0.1611  0.2883
  863W        W 4382   9.588   0.393  10.857  0.0579 -0.3022  0.2995
  864W        W 4383   2.878   9.027   3.527  0.3771 -0.2627 -0.2071
  865W        W 4384   3.864   7.798   0.782  0.0962  0.2154 -0.0161
  866W        W 4385   6.844   8.980  10.364  0.0499 -0.0872  0.0236
  867W        W 4386   4.423   4.820   1.163 -0.1404  0.0486  0.2757
  868W        W 4387   5.888   9.712  10.233  0.1794  0.1666  0.0414
  869W        W 4388   6.355   2.505  10.791  0.0886  0.0653  0.1707
  870W        W 4389   6.162   9.278   9.952  0.1236  0.0340 -0.2931
  871W        W 4390   6.150   6.076  11.830 -0.1214 -0.2703 -0.0385
  872W        W 4391   2.316   6.179   9.495  0.0703 -0.3619  0.0117
  873W        W 4392   5.804   3.468   2.109 -0.3553 -0.1472 -0.0249
  874W        W 4393   1.210   7.044   9.778 -0.1260 -0.0243  0.0945
  875W        W 4394   4.765   3.921   7.786  0.0563 -0.3066  0.2880
  876W        W 4395   0.769   4.521   0.406  0.0047 -0.1107  0.1374
  877W        W 4396   4.561   3.589   9.670  0.1869 -0.0711 -0.0684
  878W        W 4397   7.539   7.477  10.256 -0.1210 -0.2407  0.0600
  879W        W 4398   3.244   2.600   9.055  0.4481 -0.2224  0.1103
  880W        W 4399   3.006   9.731   8.631 -0.2699  0.0549  0.1307
  881W        W 4400   9.046   7.965   0.420 -0.0640  0.0925 -0.2996
  882W        W 4401   8.559   0.623   3.256  0.0938  0.2718 -0.2068
  883W        W 4402   1.443   1.595   2.356  0.0765  0.0635  0.1322
  884W        W 4403   7.538   4.481   2.167  0.1478  0.1241  0.0391
  885W        W 4404   9.896   1.786  10.253  0.0710  0.1390 -0.0744
  886W        W 4405   8.731   3.627  11.886  0.1454  0.1478 -0.0258
  887W        W 4406   1.454   3.266   9.967  0.0266 -0.0978 -0.0624
  888W        W 4407   6.303   4.997   8.899  0.1180 -0.2348 -0.3773
  889W        W 4408   6.290   3.593   2.387  0.3465  0.0347 -0.1060
  890W        W 4409   8.502   1.435  11.399 -0.0769  0.0123  0.0560
  891W        W 4410   7.408   2.274   9.136  0.2689 -0.0420  0.1778
  892W        W 4411   0.525   6.028   1.690  0.2071 -0.0499  0.2451
  893W        W 4412   5.167   7.501   4.197  0.0110 -0.0510 -0.3253
  894W        W 4413   8.840   8.189   9.449 -0.2569  0.0004 -0.1134
  895W        W 4414   4.860   8.276   4.241 -0.1812 -0.0036  0.0014
  896W        W 4415   0.921   5.840  11.832 -0.2435  0.0870  0.1055
  897W        W 4416   7.938   5.280   0.160  0.2312 -0.0161 -0.2962
  898W        W 4417   0.471   8.650   9.275 -0.0026 -0.2398 -0.0566
  899W        W 4418   4.507   7.582   9.316  0.2183 -0.0030  0.0414
  900W        W 4419   7.502   4.075   3.204 -0.1149 -0.0190 -0.0257
  901W        W 4420   4.843   7.232   3.899  0.0621  0.2777  0.2168
  902W        W 4421   8.223   6.751   3.037 -0.0223  0.1307  0.1294
  903W        W 4422   4.407   8.501  11.112  0.0946  0.0740  0.1729
  904W        W 4423   1.057   9.318   0.670 -0.1082 -0.0159  0.1703
  905W        W 4424   4.438   0.265   9.426 -0.0571  0.4266 -0.0274
  906W        W 4425   3.677   8.916   1.512  0.3482 -0.1270 -0.2247
  907W        W 4426   0.816   8.283   9.448 -0.2964  0.1390 -0.0067
  908W        W 4427   5.990   9.074   2.473  0.2704 -0.3938 -0.3348
  909W        W 4428   0.949   5.031  11.645 -0.0778 -0.2209  0.2564
  910W        W 4429   8.417   9.334  11.794  0.3133  0.1053 -0.2181
  911W        W 4430   4.960   6.281   2.263 -0.3951  0.0356  0.0346
  912W        W 4431   9.363   3.037   8.788  0.1220 -0.1058  0.2267
  913W        W 4432   7.930   8.587   3.895  0.0269 -0.0303 -0.1589
  914W        W 4433   0.155   6.518  10.474  0.0257 -0.2653 -0.2935
  915W        W 4434   1.247   2.335   9.729 -0.1649  0.2995  0.2125
  916W        W 4435   2.354   0.398   4.600  0.0266  0.1998 -0.0960
  917W        W 4436   3.306   5.965  10.149 -0.2124  0.3515 -0.3025
  918W        W 4437   1.929   8.929   3.326 -0.1624 -0.0215  0.1981
  919W        W 4438   9.640   2.451   3.026 -0.1726 -0.1475 -0.0008
  920W        W 4439   5.354   1.120   1.617  0.3564  0.2493 -0.1326
  921W        W 4440   8.891   5.323   2.112  0.0650 -0.1733  0.0603
  922W        W 4441   5.111   5.595  11.778 -0.0058  0.0600 -0.0061
  923W        W 4442   2.935   7.734   3.013 -0.1897  0.1073  0.1227
  924W        W 4443   1.965   5.463   1.698  0.2076 -0.1516 -0.0147
  925W        W 4444   6.934   5.474   1.092  0.4359 -0.3656  0.3081
  926W        W 4445   1.578   6.688   2.390 -0.2206 -0.0454 -0.0215
  927W        W 4446   9.904   8.080   4.190  0.3331 -0.0443  0.1890
  928W        W 4447   7.850   3.559   1.457  0.2056 -0.2000 -0.0129
  929W        W 4448   3.885   6.214   1.777 -0.2388 -0.1921 -0.2604
  930W        W 4449   7.051   3.867   1.371  0.0915 -0.1661 -0.3005
  931W        W 4450   8.845   0.488   4.180 -0.3110  0.1620 -0.2737
  932W        W 4451   4.520   9.417   8.957 -0.1369 -0.2239  0.2672
  933W        W 4452   7.789   4.496  10.105  0.4038 -0.1357  0.2769
  934W        W 4453   6.134   3.703   8.957  0.0970 -0.2448  0.1569
  935W        W 4454   9.383   6.981   8.758 -0.0618 -0.3817 -0.1492
  936W        W 4455   7.912   5.306   1.402  0.0190 -0.0661  0.2461
  937W        W 4456   9.623   9.712   9.126 -0.1813 -0.1633 -0.3110
  938W        W 4457   3.400   3.738  11.264  0.0594 -0.6079 -0.2043
  939W        W 4458   5.560   7.290   4.406 -0.2753 -0.1474  0.1126
  940W        W 4459   5.789   0.670   1.315 -0.0861  0.0862  0.0219
  941W        W 4460   0.115   9.123   3.748 -0.0105  0.2969 -0.0645
  942W        W 4461   3.272   8.893   3.846 -0.0650 -0.0919  0.0176
  943W        W 4462   1.522   4.999   2.399 -0.0035 -0.2984 -0.1344
  944W        W 4463   3.278   8.859  11.831  0.0294  0.0685 -0.1184
  945W        W 4464   0.957   8.748   2.490 -0.1088 -0.1462  0.0662
  946W        W 4465   6.478   7.521  11.396 -0.0432  0.0226  0.0061
  947W        W 4466   2.244   4.156   2.156  0.2449  0.0274 -0.2024
  948W        W 4467   7.844   3.796   0.211 -0.1226  0.0044  0.1247
  949W        W 4468   6.016   9.211   1.973  0.2175 -0.0047  0.0214
  950W        W 4469   0.067   0.578   2.206  0.1188  0.1014 -0.0282
  951W        W 4470   9.219   8.309   9.763 -0.2877  0.0286  0.0600
  952W        W 4471   1.151   0.512   1.258 -0.1673 -0.0610  0.3074
  953W        W 4472   2.852   0.163  11.078 -0.0689 -0.0480  0.1135
  954W        W 4473   4.273   4.124  11.440 -0.4451 -0.1815 -0.1475
  955W        W 4474   8.152   7.017   0.032  0.1337 -0.0073  0.1573
  956W        W 4475   5.321   2.791   8.586 -0.2300  0.0754 -0.1074
  957W        W 4476   5.317   2.667  11.019  0.1292  0.1945  0.3399
  958W        W 4477   1.173   1.980   0.370 -0.2822 -0.0684 -0.4542
  959W        W 4478   2.935   6.223   0.569  0.2137  0.0396  0.0747
  960W        W 4479   7.389   0.190  11.618  0.2109 -0.3507  0.1686
  961W        W 4480   7.127   1.423   2.074  0.4161  0.0472  0.3265
  962W        W 4481   6.434   0.675  10.931 -0.1079 -0.3675  0.0453
  963W        W 4482   6.927   0.466   4.300  0.0573 -0.0227 -0.2259
  964W        W 4483   7.689   9.784  10.774 -0.0815  0.3394  0.3391
  965W        W 4484   3.374   1.721  11.896  0.1798 -0.0545  0.1669
  966W        W 4485   1.527   8.454   5.640 -0.0148 -0.2808 -0.0457
  967W        W 4486   7.513   7.039   3.412  0.0198 -0.0972  0.0681
  968W        W 4487   5.792   5.692   9.027  0.1421  0.0026 -0.2895
  969W        W 4488   7.504   3.866  10.464 -0.1730  0.0817 -0.1426
  970W        W 4489   7.926   8.830   3.123  0.1652 -0.1053 -0.2008
  971W        W 4490   2.962   8.578   2.250 -0.1115 -0.2478  0.0643
  972W        W 4491   3.936   9.654   4.265  0.1085 -0.0852 -0.4639
  973W        W 4492   6.985   9.045   0.953  0.0934 -0.0402  0.1016
  974W        W 4493   5.560   6.044   9.364  0.3790 -0.4505 -0.0999
  975W        W 4494   1.707   2.868   1.450 -0.3775 -0.0736 -0.0194
  976W        W 4495   2.217   7.534   4.129  0.0440 -0.0235  0.0742
  977W        W 4496   9.590   9.049  10.273 -0.0316 -0.2630 -0.0194
  978W        W 4497   1.333   5.788   2.276 -0.0781 -0.1341 -0.0723
  979W        W 4498   3.452   8.455   1.367 -0.0678  0.1208  0.3041
  980W        W 4499   4.047   1.716   9.934  0.2875 -0.0734 -0.1206
  981W        W 4500   4.761   1.511   9.339  0.0531 -0.1169  0.0766
  982W        W 4501   1.127   0.001   1.359  0.0041  0.1559  0.1343
  983W        W 4502   4.400   1.693   3.558 -0.3105  0.1407 -0.0784
  984W        W 4503   2.756   8.201  10.249 -0.1711 -0.1255 -0.0816
  985W        W 4504   5.864   9.054   8.128 -0.1042 -0.0076  0.3038
  986W        W 4505   8.983   9.532   3.665 -0.0012  0.0950  0.0289
  987W        W 4506   8.975   0.448  11.164 -0.3908 -0.0016  0.0381
  988W        W 4507   6.993   6.884   1.457  0.1661  0.1075  0.0518
  989W        W 4508   1.553   9.667   1.600  0.0293 -0.0911 -0.1385
  990W        W 4509   5.585   6.815   0.198  0.0076  0.0457 -0.0375
  991W        W 4510   7.668   5.113   0.975 -0.0061  0.0457 -0.3674
  992W        W 4511   1.641   9.725  11.718 -0.4939  0.0551 -0.1556
  993W        W 4512   1.616   8.273   5.167  0.3755 -0.3192 -0.4556
  994W        W 4513   3.641   9.429   1.982 -0.2266 -0.1104  0.0914
  995W        W 4514   7.347   7.036   9.065 -0.0089 -0.2310  0.1218
  996W        W 4515   9.809   5.138   3.819 -0.2580  0.0032 -0.0457
  997W        W 4516   5.477   1.745  11.747 -0.2946 -0.0969  0.1738
  998W        W 4517   9.941   4.786   1.790 -0.1709 -0.1871  0.3552
  999W        W 4518   7.473   0.647   2.193 -0.1382 -0.1572 -0.1248
 1000W        W 4519   5.199   8.781   9.264  0.1579  0.2612 -0.0220
 1001W        W 4520   0.660   9.749   0.980 -0.0798  0.1083  0.0356
 1002W        W 4521   8.005   3.782   8.378  0.0748  0.1711 -0.3188
 1003W        W 4522   6.618   9.746  11.175 -0.2601 -0.1974  0.0238
 1004W        W 4523   4.381   1.812   2.541  0.0421 -0.0770  0.0457
 1005W        W 4524   5.220   1.497   3.429 -0.2039 -0.0315  0.1132
 1006W        W 4525   8.799   7.373  11.753 -0.0837  0.3850  0.4898
 1007W        W 4526   1.450   0.234   0.972  0.1570 -0.2282  0.1741
 1008W        W 4527   3.613   1.655  10.189 -0.0947 -0.1853  0.2242
 1009W        W 4528   0.123   1.747   9.162 -0.4692 -0.1793  0.0686
 1010W        W 4529   8.106   9.100   9.943  0.0389  0.1430 -0.0768
 1011W        W 4530   1.740   7.376   3.696  0.1123 -0.0628 -0.0947
 1012W        W 4531   4.462   1.044  10.091  0.0122 -0.1373 -0.2381
 1013W        W 4532   3.181   2.034   1.541 -0.1940  0.1795  0.1815
 1014W        W 4533   0.552   6.249   9.263 -0.2048  0.4186  0.3958
 1015W        W 4534   7.886   5.838   0.273  0.0170 -0.0492  0.0532
 1016W        W 4535   2.110   1.383  10.339  0.1956  0.0338  0.0477
 1017W        W 4536   8.609   2.341   1.363 -0.0432 -0.0313 -0.0151
 1018W        W 4537   3.678   8.803   9.329 -0.0630 -0.0007  0.0683
 1019W        W 4538   5.716   6.280   0.134 -0.2627 -0.1282 -0.1666
 1020W        W 4539   3.907   3.660   0.351  0.3850  0.0526  0.1262
 1021W        W 4540   9.032   2.503   0.135 -0.0174 -0.2267  0.2537
 1022W        W 4541   7.197   6.630  11.536  0.3250 -0.1364  0.0603
 1023W        W 4542   6.551   1.485   3.055  0.5562 -0.0219 -0.4054
 1024W        W 4543   0.435   0.531   1.805  0.3016  0.0337  0.0771
 1025W        W 4544   4.696   6.465   3.937 -0.5548 -0.0306 -0.2378
 1026W        W 4545   5.164   1.586   8.692  0.1027 -0.1711 -0.2352
 1027W        W 4546   9.190   5.801   2.844  0.1027  0.1727 -0.1366
 1028W        W 4547   3.569   7.903   3.786  0.3198  0.1078 -0.0764
 1029W        W 4548   6.854   8.191   9.130 -0.2078 -0.2302 -0.1121
 1030W        W 4549   9.246   7.236   0.794 -0.0762 -0.1102  0.0420
 1031W        W 4550   6.466   2.348  10.282 -0.1472  0.0902 -0.1289
 1032W        W 4551   8.502   2.120   0.958 -0.0027 -0.0017  0.1408
 1033W        W 4552   6.293   1.078   9.819  0.1849  0.2605  0.3198
 1034W        W 4553   9.703   5.847   9.416  0.3150  0.1543 -0.0319
 1035W        W 4554   9.590   8.076  10.751 -0.0351  0.2304 -0.0738
 1036W        W 4555   1.998   0.429  10.627  0.0490 -0.0771 -0.3800
 1037W        W 4556   3.501   9.234   3.587  0.1076 -0.0950  0.0742
 1038W        W 4557   5.503   9.338   1.866 -0.1484 -0.2167 -0.0792
 1039W        W 4558   5.299   0.907   4.907 -0.1094 -0.0439  0.0624
 1040W        W 4559   1.506   0.286  11.883 -0.0180  0.1768 -0.0281
 1041W        W 4560   8.697   6.559   2.675  0.1388  0.4319  0.0267
 1042W        W 4561   1.398   9.883   2.403  0.0495 -0.0137  0.2375
 1043W        W 4562   0.463   0.331  10.629  0.1385  0.3785  0.0764
 1044W        W 4563   2.614   3.469   2.533  0.0276  0.0241  0.2379
 1045W        W 4564   7.929   6.686   8.404  0.1334  0.1205 -0.1540
 1046W        W 4565   3.462   5.931   4.469  0.0391  0.0128  0.0040
 1047W        W 4566   9.289   0.717   8.889 -0.0206  0.2187  0.5252
 1048W        W 4567   2.554   8.266   2.256 -0.1308  0.3452  0.0019
 1049W        W 4568   4.511   2.888  11.156  0.1867 -0.0112  0.2332
 1050W        W 4569   7.173   6.505  10.180  0.1468 -0.1579  0.0803
 1051W        W 4570   1.970   1.221   0.330  0.0221 -0.1421 -0.1951
 1052W        W 4571   6.994   6.632   3.595  0.0332 -0.1122 -0.0853
 1053W        W 4572   9.357   5.321  10.245 -0.2672 -0.0406  0.0339
 1054W        W 4573   0.633   0.860   9.045  0.0241  0.1588 -0.1843
 1055W        W 4574   0.661   6.670   3.726 -0.0361 -0.2300 -0.1017
 1056W        W 4575   3.690   0.154   4.257  0.0664  0.0142  0.0540
 1057W        W 4576   2.953   5.856   0.142 -0.4651  0.1465  0.0272
 1058W        W 4577   8.377   2.184   9.183 -0.3091 -0.0267  0.0448
 1059W        W 4578   4.220   7.116   4.380 -0.1321 -0.1024 -0.0022
 1060W        W 4579   5.632   1.360  10.358 -0.3198  0.2901 -0.2592
 1061W        W 4580   0.384   4.723   9.796  0.2678  0.5282 -0.1137
 1062W        W 4581   3.901   3.293   3.430  0.0477  0.1317  0.1492
 1063W        W 4582   4.713   2.830   3.299  0.0057  0.2292 -0.1326
 1064W        W 4583   6.156   9.436  11.156 -0.3269 -0.3042 -0.0865
 1065W        W 4584   5.494   7.703   1.764 -0.2538 -0.1165 -0.2315
 1066W        W 4585   3.069   3.468   0.744 -0.0533 -0.3488  0.0886
 1067W        W 4586   1.123   3.840   1.370 -0.4055 -0.1835 -0.1441
 1068W        W 4587   7.102   1.947   1.176 -0.1771  0.0201  0.1879
 1069W        W 4588   6.673   9.304   9.891  0.0371 -0.0782  0.1357
 1070W        W 4589   1.827   2.324  10.315 -0.0481  0.1309  0.1698
 1071W        W 4590   0.012   8.599   1.170  0.3187  0.0439  0.1030
 1072W        W 4591   9.834   2.260   1.551  0.3236  0.0408 -0.2165
 1073W        W 4592   3.564   3.701   8.169  0.0412  0.0202 -0.1322
 1074W        W 4593   5.492   5.568   0.804 -0.1889 -0.1270  0.4013
 1075W        W 4594   4.185   5.805   1.750 -0.0502 -0.4855 -0.0910
 1076W        W 4595   7.470   2.052   3.224  0.1811 -0.1433  0.1873
 1077W        W 4596   6.201   9.747   3.200 -0.0072 -0.1621  0.5202
 1078W        W 4597   7.980   8.266  11.404  0.3380  0.1009 -0.0144
 1079W        W 4598   0.663   6.364  11.795  0.3142  0.0936 -0.1915
 1080W        W 4599   6.935   1.018   9.547 -0.1098  0.3249 -0.1402
 1081W        W 4600   2.585   1.373   0.561 -0.1588 -0.1548 -0.0399
 1082W        W 4601   7.955   5.752  10.817 -0.1239 -0.2124 -0.0382
 1083W        W 4602   2.427   4.898   1.497 -0.2119  0.0047 -0.0886
 1084W        W 4603   4.732   3.270   1.433  0.1533 -0.1527  0.0298
 1085W        W 4604   9.484   6.657   9.116  0.0097  0.3043  0.0532
 1086W        W 4605   8.196   5.777   2.187  0.2621  0.1084 -0.0849
 1087W        W 4606   3.450   9.549   0.427 -0.0139 -0.4581  0.1711
 1088W        W 4607   7.787   3.951  10.056 -0.2170 -0.1043  0.0236
 1089W        W 4608   9.176   4.379   0.836 -0.0879  0.1251  0.1965
 1090W        W 4609   4.929   7.169   9.960 -0.1429  0.0841  0.0349
 1091W        W 4610   9.426   5.387   0.950  0.1602 -0.0088 -0.0249
 1092W        W 4611   3.156   7.312   9.788 -0.2999  0.0444 -0.0877
 1093W        W 4612   9.858   7.746   0.839  0.0598 -0.2787 -0.1039
 1094W        W 4613   6.686   5.396   9.732  0.4294 -0.1789 -0.1026
 1095W        W 4614   1.956   3.404   2.800  0.0237 -0.1814  0.0384
 1096W        W 4615   9.141   2.948   1.280  0.0883  0.0075  0.1737
 1097W        W 4616   0.780   3.248   3.782 -0.3547  0.0788  0.2330
 1098W        W 4617   8.960   8.749   1.120 -0.3060 -0.0376  0.1409
 1099W        W 4618   7.923   0.571   4.435  0.4184 -0.0976 -0.1701
 1100W        W 4619   9.667   7.301   9.063 -0.0740 -0.2243  0.0618
 1101W        W 4620   0.907   1.681   3.535 -0.2276 -0.1520 -0.2131
 1102W        W 4621   9.232   3.360   3.919  0.0746 -0.0739  0.0753
 1103W        W 4622   1.640   4.149  10.210 -0.1028 -0.0623 -0.2915
 1104W        W 4623   1.200   6.364   2.655 -0.1925  0.1275 -0.0014
 1105W        W 4624   4.764   8.833   1.177 -0.0341 -0.0070  0.0542
 1106W        W 4625   8.331   0.818   4.364 -0.1501 -0.0524  0.0666
 1107W        W 4626   2.708   5.153  11.373 -0.1478  0.1771  0.1603
 1108W        W 4627   8.041   1.223  11.256  0.0389 -0.0441  0.0950
 1109W        W 4628   8.502   3.979   0.859 -0.0053 -0.4388 -0.0117
 1110W        W 4629   9.388   0.160   3.968  0.3343  0.1399 -0.0571
 1111W        W 4630   6.352   0.517   1.877 -0.1365  0.0800 -0.2113
 1112W        W 4631   3.740   8.180   0.378  0.1773  0.0359 -0.1016
 1113W        W 4632   5.329   6.054   0.784 -0.1869 -0.2242  0.0714
 1114W        W 4633   2.761   2.490   9.025  0.0538  0.0839  0.0400
 1115W        W 4634   9.306   7.847  11.186 -0.1570  0.2052  0.1841
 1116W        W 4635   2.833   5.641   2.683  0.1794 -0.2909 -0.0380
 1117W        W 4636   3.730   7.542   1.866 -0.2657 -0.4084  0.1827
 1118W        W 4637   7.609   3.980   2.114  0.1800  0.1637  0.1690
 1119W        W 4638   6.600   8.062  11.309  0.0124 -0.2136  0.2828
 1120W        W 4639   7.357   8.546   1.488  0.0032 -0.0589 -0.2498
 1121W        W 4640   5.985   5.953   3.563 -0.1314 -0.4274  0.3768
 1122W        W 4641   0.396   3.871   8.900 -0.0014  0.4977  0.2703
 1123W        W 4642   5.046   0.193   2.223 -0.2923  0.0562 -0.1602
 1124W        W 4643   9.282   5.959   1.033 -0.0313  0.0927  0.1333
 1125W        W 4644   0.220   7.864   8.389 -0.3392  0.1630  0.1442
 1126W        W 4645   6.255   7.068  10.594 -0.0044 -0.2356 -0.0483
 1127W        W 4646   4.465   2.295   9.243  0.3040  0.2336  0.0486
 1128W        W 4647   5.865   5.766   2.285  0.2525 -0.1100 -0.2157
 1129W        W 4648   7.853   2.184   4.603 -0.0984  0.0127  0.1092
 1130W        W 4649   4.028   8.183   3.608  0.4008 -0.0463 -0.1183
 1131W        W 4650   6.858   1.108   0.785 -0.1067 -0.0307 -0.0063
 1132W        W 4651   5.082   1.917   3.158 -0.3047  0.0590 -0.2165
 1133W        W 4652   2.701   3.224   0.574 -0.2280 -0.0593 -0.0178
 1134W        W 4653   7.135   7.923   1.367  0.1012 -0.0309  0.1261
 1135W        W 4654   0.660   7.415  10.351  0.1178 -0.0172  0.0336
 1136W        W 4655   3.603   4.704   8.570 -0.4394 -0.0802 -0.0543
 1137W        W 4656   7.079   0.947   1.424  0.1489  0.2448  0.2194
 1138W        W 4657   5.143   8.369   9.955  0.4004  0.5570 -0.0565
 1139W        W 4658   0.109   9.858  10.771 -0.2530  0.0340 -0.0792
 1140W        W 4659   8.074   1.695   9.836 -0.1029 -0.0172  0.1631
 1141W        W 4660   9.877   4.931  11.012 -0.0617 -0.1709 -0.1112
 1142W        W 4661   2.306   0.766   1.535  0.2325 -0.1004  0.1206
 1143W        W 4662   3.900   6.032   0.070 -0.1806 -0.0996  0.0267
 1144W        W 4663   2.374   8.001  10.460 -0.1906 -0.0676 -0.1615
 1145W        W 4664   8.679   8.250   4.852  0.0872  0.0659  0.1707
 1146W        W 4665   0.602   1.220  11.892 -0.0988 -0.1924  0.1329
 1147W        W 4666   4.201   6.980   2.511  0.0687  0.2613 -0.0460
 1148W        W 4667   4.485   2.109   0.115 -0.0396 -0.0395  0.0498
 1149W        W 4668   5.294   3.576   0.085 -0.2766  0.0920  0.0846
 1150W        W 4669   9.101   8.208  10.720  0.1175  0.0900 -0.1433
 1151W        W 4670   4.057   7.601  11.045 -0.1479 -0.0454  0.2104
 1152W        W 4671   1.935   9.637  11.320 -0.0138 -0.2356 -0.1261
 1153W        W 4672   8.739   3.820   1.739 -0.0560  0.0736  0.2822
 1154W        W 4673   5.693   1.635   2.196  0.0131 -0.0284  0.3738
 1155W        W 4674   6.850   0.581   0.740 -0.1995 -0.0241 -0.1593
 1156W        W 4675   7.613   2.954   0.504 -0.2971 -0.1295 -0.0488
 1157W        W 4676   4.035   5.442   1.408  0.0627  0.2986 -0.1005
 1158W        W 4677   1.230   9.423  11.576  0.0575 -0.0274 -0.0187
 1159W        W 4678   8.706   5.270   3.438  0.1245  0.0526  0.0174
 1160W        W 4679   9.863   0.314   3.129  0.0315 -0.3694  0.0561
 1161W        W 4680   3.327   5.123   3.183  0.0710  0.1110  0.2436
 1162W        W 4681   0.512   4.768   9.278 -0.0367  0.4331  0.2408
 1163W        W 4682   7.151   3.874   9.773  0.0527 -0.0706 -0.1765
 1164W        W 4683   9.893   9.705   9.683  0.0434  0.2101  0.0358
 1165W        W 4684   8.054   4.224   3.398 -0.2163  0.0472  0.1295
 1166W        W 4685   4.895   1.509   0.892 -0.2829  0.1871 -0.0017
 1167W        W 4686   6.483   9.490   1.773  0.0063 -0.2356 -0.0905
 1168W        W 4687   2.606   2.353   2.597  0.0593 -0.1398  0.0188
 1169W        W 4688   8.127   5.239   0.904 -0.0613  0.2032 -0.3027
 1170W        W 4689   3.650   4.220   3.817  0.0786 -0.1384 -0.0854
 1171W        W 4690   4.726   2.897   0.375  0.0543  0.2395 -0.0457
 1172W        W 4691   4.702   1.325  11.893 -0.0643  0.1031  0.1785
 1173W        W 4692   2.558   5.211   8.538  0.0390 -0.0129  0.0217
 1174W        W 4693   4.625   0.882   0.549 -0.0130 -0.0592 -0.1671
 1175W        W 4694   6.918   8.589   1.154  0.0724  0.1284 -0.0488
 1176W        W 4695   2.726   4.873   2.641 -0.1754  0.1260  0.1193
 1177W        W 4696   6.759   6.587   0.323 -0.0642 -0.0039  0.1683
 1178W        W 4697   9.088   9.894  10.226  0.2255 -0.2313 -0.2349
 1179W        W 4698   6.420   4.522  10.265 -0.0386  0.0732 -0.0549
 1180W        W 4699   9.521   9.199   3.134 -0.1135  0.1919 -0.1454
 1181W        W 4700   4.402   4.678   3.602  0.1869 -0.0758  0.0521
 1182W        W 4701   3.655   6.580   3.344 -0.2352 -0.2293  0.1359
 1183W        W 4702   8.111   8.969   1.876  0.0762  0.3369  0.1090
 1184W        W 4703   1.667   7.382  11.423 -0.2134 -0.1673 -0.0589
 1185W        W 4704   1.614   5.078  10.049 -0.0902  0.1340 -0.0464
 1186W        W 4705   1.163   3.176   9.287  0.0826  0.1293  0.0856
 1187W        W 4706   8.184   8.254   3.497 -0.0129  0.0643 -0.0944
 1188W        W 4707   3.118   8.670   0.910  0.0463 -0.1916 -0.1177
 1189W        W 4708   7.557   9.627   1.584 -0.0002  0.2473 -0.0836
 1190W        W 4709   7.731   2.785  11.000  0.0808  0.1747 -0.0437
 1191W        W 4710   3.573   9.356   2.540 -0.1460 -0.0546 -0.0271
 1192W        W 4711   5.137   8.601   0.369 -0.1452  0.0800  0.0854
 1193W        W 4712   2.155   6.670   0.754  0.3237 -0.1274 -0.0067
 1194W        W 4713   0.200   6.698   9.982 -0.3044 -0.0160 -0.0615
 1195W        W 4714   2.317   0.371   9.317  0.2156  0.1734 -0.2405
 1196W        W 4715   4.108   6.646  11.257  0.2101  0.1696 -0.0839
 1197W        W 4716   1.913   0.101   3.878 -0.2121 -0.2690  0.1287
 1198W        W 4717   5.073   9.090   3.046 -0.1728 -0.1340  0.1683
 1199W        W 4718   0.463   2.294  11.009 -0.3251 -0.2000  0.0525
 1200W        W 4719   5.136   3.896  10.299  0.2139 -0.2780  0.2006
 1201W        W 4720   9.857   4.285   9.698 -0.2688 -0.2513 -0.1094
 1202W        W 4721   3.900   1.165   2.068 -0.0917 -0.1633  0.1533
 1203W        W 4722   2.627   9.200   3.946  0.0116  0.0496 -0.0803
 1204W        W 4723   1.144   0.814  10.223 -0.0918  0.1833 -0.1741
 1205W        W 4724   4.201   1.630   8.007  0.3685 -0.2637  0.3790
 1206W        W 4725   9.691   3.563   3.962 -0.1467 -0.1695  0.0652
 1207W        W 4726   6.425   1.065   3.204  0.0184  0.5046 -0.1758
 1208W        W 4727   4.865   5.269   8.230 -0.2148  0.0461 -0.0191
 1209W        W 4728   1.720   9.097   4.229  0.2791  0.2755 -0.3530
 1210W        W 4729   5.434   6.385   5.021 -0.0904  0.2009  0.2477
 1211W        W 4730   6.116   0.319   8.659 -0.3410  0.2494  0.1353
 1212W        W 4731   3.885   1.150  11.287 -0.4434  0.3843  0.2024
 1213W        W 4732   4.992   7.361   9.472 -0.1880 -0.1327 -0.4196
 1214W        W 4733   6.280   5.188  10.212  0.2339  0.1259 -0.1207
 1215W        W 4734   5.583   4.347   8.921 -0.2473 -0.1268  0.2072
 1216W        W 4735   6.684   9.305   1.360 -0.1987 -0.1457 -0.2140
 1217W        W 4736   4.553   4.672   3.053  0.1573 -0.0744  0.0850
 1218W        W 4737   0.453   2.269   4.862 -0.2742  0.1202  0.0656
 1219W        W 4738   3.063   0.346   0.555  0.2369  0.1021 -0.0762
 1220W        W 4739   6.773   2.486   3.195  0.1613  0.0453 -0.0735
 1221W        W 4740   2.814   1.494   9.787 -0.1138  0.2205 -0.5033
 1222W        W 4741   4.326   6.441  10.870  0.1312  0.0418 -0.0102
 1223W        W 4742   5.924   8.639   0.265 -0.0206  0.4152 -0.2962
 1224W        W 4743   6.983   8.899   1.549  0.0563  0.0638 -0.2269
 1225W        W 4744   5.243   8.734   1.952  0.2193  0.2773 -0.0686
 1226W        W 4745   8.427   3.896   3.509  0.1360 -0.1935  0.2158
 1227W        W 4746   8.308   8.628   9.816  0.0098 -0.0136 -0.2221
 1228W        W 4747   5.465   5.213  11.915  0.2129  0.1211 -0.0476
 1229W        W 4748   7.577   6.763   1.522  0.0423 -0.0522 -0.2503
 1230W        W 4749   0.163   3.906   9.903 -0.0325  0.1236 -0.2049
 1231W        W 4750   4.855   8.174  10.291 -0.0116  0.4449 -0.0058
 1232W        W 4751   4.017   4.459   0.965 -0.0613  0.4163  0.1027
 1233W        W 4752   5.910   6.906   4.519 -0.3709 -0.1083 -0.1344
 1234W        W 4753   3.056   3.863   9.638 -0.2077  0.0373  0.0524
 1235W        W 4754   8.353   6.586   1.930 -0.2721 -0.0462 -0.2313
 1236W        W 4755   0.693   1.592  10.884  0.0010 -0.1169 -0.0061
 1237W        W 4756   8.106   0.239   0.441  0.0983  0.0466 -0.1211
 1238W        W 4757   6.390   5.889   8.966  0.0834 -0.1427 -0.1596
 1239W        W 4758   0.999   1.459   3.962 -0.0643 -0.0323  0.2444
 1240W        W 4759   6.876   6.401   1.383  0.0067 -0.2815 -0.2215
 1241W        W 4760   7.237   5.228   9.933  0.0078 -0.1712 -0.0772
 1242W        W 4761   9.373   3.610  10.610  0.0086 -0.2171 -0.1401
 1243W        W 4762   5.665   4.965   2.170 -0.1431  0.3588 -0.2705
 1244W        W 4763   4.334   2.808   9.412  0.1478 -0.5294 -0.0149
 1245W        W 4764   5.258   2.548   1.193 -0.1367  0.0776 -0.3682
 1246W        W 4765   2.337   0.076  10.730  0.0007 -0.2706 -0.1136
 1247W        W 4766   4.350   3.631  11.671  0.1701 -0.0085  0.1307
 1248W        W 4767   6.735   2.412   2.634  0.0520  0.0542  0.1482
 1249W        W 4768   2.792   7.224   0.059  0.1683  0.0246  0.2569
 1250W        W 4769   2.467   1.236  10.698  0.0195 -0.0657  0.1875
 1251W        W 4770   9.850   6.682   0.299 -0.1084 -0.0111 -0.0486
 1252W        W 4771   2.134   8.581   9.105 -0.0818  0.1975 -0.1698
 1253W        W 4772   3.265   6.408   9.668 -0.5677  0.1116  0.3071
 1254W        W 4773   4.987   9.100  10.872  0.2111  0.1302 -0.0647
 1255W        W 4774   2.362   4.959   2.999  0.1020  0.0388  0.0778
 1256W        W 4775   9.190   1.689   1.508  0.0679 -0.0225  0.0064
 1257W        W 4776   8.023   2.075   4.078 -0.1875  0.0835 -0.0200
 1258W        W 4777   5.711   1.060   9.386  0.1213 -0.1058 -0.1405
 1259W        W 4778   1.594   7.656  10.319  0.2795 -0.3679  0.1505
 1260W        W 4779   4.606   6.297   3.066  0.1233  0.4861 -0.2538
 1261W        W 4780   6.709   4.744   2.749  0.0320  0.1274  0.2527
 1262W        W 4781   7.191   2.752   9.439 -0.4298 -0.0047 -0.3471
 1263W        W 4782   2.944   6.602  10.419 -0.3113  0.0842  0.2407
 1264W        W 4783   5.288   8.466   8.197  0.2932  0.0723  0.2255
 1265W        W 4784   9.685   0.374   5.311  0.0866 -0.1429  0.1359
 1266W        W 4785   8.068   2.195  11.437 -0.0094  0.0068 -0.2098
 1267W        W 4786   7.170   2.285   9.655 -0.2308  0.2352  0.4957
 1268W        W 4787   1.434   9.416   2.060 -0.1011 -0.2467 -0.2106
 1269W        W 4788   2.244   3.142   1.856 -0.0811 -0.0395  0.1582
 1270W        W 4789   6.873   7.247  10.142 -0.0006 -0.0737 -0.0219
 1271W        W 4790   7.667   3.484   2.465  0.3206 -0.0003  0.1615
 1272W        W 4791   8.338   0.054   8.922  0.0771  0.0813 -0.1834
 1273W        W 4792   3.091   6.299   9.186  0.1872 -0.0408  0.0564
 1274W        W 4793   3.402   6.902  10.565 -0.4557 -0.0052 -0.0011
 1275W        W 4794   3.047   7.778   9.704 -0.2179  0.4698 -0.3338
 1276W        W 4795   4.290   0.522  10.025  0.2647 -0.1699 -0.0881
 1277W        W 4796   7.150   5.841   4.028 -0.2322  0.1413  0.0875
 1278W        W 4797   4.250   9.399  10.074 -0.0046 -0.2741  0.0121
 1279W        W 4798   4.875   6.513  10.962 -0.1947 -0.0529 -0.1994
 1280W        W 4799   7.377   4.688   8.321 -0.1399  0.0821 -0.0363
 1281W        W 4800   8.283   0.774   9.550 -0.4290  0.1383  0.1256
 1282W        W 4801   7.820   3.495   1.979  0.0224  0.1750  0.0474
 1283W        W 4802   5.297   0.567  10.179  0.3507  0.1379  0.2055
 1284W        W 4803   7.328   3.328  10.196  0.0492  0.0673 -0.0408
 1285W        W 4804   7.774   9.346   2.056 -0.0222  0.1895 -0.2272
 1286W        W 4805   7.528   3.465   9.614 -0.2532 -0.2010  0.1163
 1287W        W 4806   5.607   9.116   2.799 -0.1157 -0.1970 -0.0268
 1288W        W 4807   5.692   0.433   3.479  0.0140 -0.0922 -0.0341
 1289W        W 4808   8.449   5.108   8.809 -0.0214  0.2348 -0.3013
 1290W        W 4809   6.527   7.006   0.230 -0.0102 -0.3070 -0.0361
 1291W        W 4810   3.434   7.342   2.248  0.0357 -0.0567  0.1914
 1292W        W 4811   0.691   7.006   9.929 -0.0285  0.4406 -0.3376
 1293W        W 4812   1.818   7.261   2.942  0.0345  0.0505 -0.1284
 1294W        W 4813   9.611   7.461   4.173 -0.3361 -0.1205  0.1422
 1295W        W 4814   1.860   0.921  10.492  0.1752 -0.0673  0.0957
 1296W        W 4815   6.728   0.046   0.635 -0.1620 -0.2321 -0.3337
 1297W        W 4816   8.218   1.257   3.892 -0.2053  0.0292 -0.2045
 1298W        W 4817   9.177   0.100   4.457 -0.4133 -0.0853  0.1964
 1299W        W 4818   3.539   8.152   1.928  0.0763  0.0736  0.0662
 1300W        W 4819   6.425   7.551  10.286 -0.0747 -0.1022 -0.1177
 1301W        W 4820   3.307   3.328   1.935 -0.0881  0.0149  0.0932
 1302W        W 4821   9.606   5.689   2.652 -0.6102 -0.5638 -0.0277
 1303W        W 4822   0.731   3.877  11.497  0.1586 -0.2206  0.2396
 1304W        W 4823   0.359   4.876   3.478  0.0256 -0.4510  0.3130
 1305W        W 4824   5.252   5.791   3.018  0.1988  0.1697  0.1180
 1306W        W 4825   4.268   0.559   2.589 -0.1015 -0.0380 -0.0713
 1307W        W 4826   0.738   5.210   3.398  0.1231 -0.0003  0.0217
 1308W        W 4827   9.753   2.798  11.375  0.0521 -0.3013 -0.3022
 1309W        W 4828   8.803   1.878   3.191 -0.1830 -0.3868 -0.1941
 1310W        W 4829   6.879   3.514   1.047  0.2395  0.2808 -0.1159
 1311W        W 4830   3.038   7.848   3.521  0.0735  0.0015  0.0046
 1312W        W 4831   5.839   2.782   0.327 -0.1180 -0.1025 -0.0624
 1313W        W 4832   9.654   8.956   0.290  0.0645  0.2283 -0.0701
 1314W        W 4833   7.782   1.939   5.453 -0.1209 -0.2455 -0.5054
 1315W        W 4834   3.655   7.126   9.563 -0.1221  0.1547 -0.1791
 1316W        W 4835   3.287   4.397   7.670  0.2106  0.3490  0.6432
 1317W        W 4836   8.774   8.090   9.950 -0.0379  0.1437 -0.0298
 1318W        W 4837   1.189   8.630  11.817 -0.0222 -0.0096 -0.0268
 1319W        W 4838   3.557   0.657   1.825  0.0985 -0.0640  0.0109
 1320W        W 4839   0.817   8.754   4.559 -0.1335 -0.1433 -0.0337
 1321W        W 4840   5.695   1.539   9.320 -0.0251 -0.0100 -0.3829
 1322W        W 4841   5.465   6.574   3.330 -0.2494  0.0925 -0.0267
 1323W        W 4842   6.971   2.293   3.678  0.0850 -0.2361  0.2413
 1324W        W 4843   4.656   0.792   1.698  0.3239 -0.1993  0.2149
 1325W        W 4844   1.942   2.830   0.906 -0.1123  0.0275 -0.1750
 1326W        W 4845   0.534   1.696   2.332  0.0101  0.3043  0.2178
 1327W        W 4846   0.562   8.361   0.777 -0.0384 -0.1695 -0.0169
 1328W        W 4847   5.601   5.082   0.694  0.0742  0.3216  0.1679
 1329W        W 4848   8.228   1.283  11.790 -0.0199  0.0332 -0.1453
 1330W        W 4849   8.350   8.517   3.106  0.1738  0.0442 -0.0711
 1331W        W 4850   3.168   4.988  11.681  0.1852 -0.1148  0.2533
 1332W        W 4851   0.702   4.393  10.114  0.1930 -0.0055  0.1444
 1333W        W 4852   8.522   2.320   2.919 -0.3979 -0.0564 -0.1355
 1334W        W 4853   5.303   6.884   3.688 -0.2276 -0.2607  0.2692
 1335W        W 4854   4.975   2.176   9.230 -0.0819 -0.0358 -0.2609
 1336W        W 4855   9.413   9.407   1.019 -0.1539 -0.1459 -0.2038
 1337W        W 4856   6.326   9.708  11.571 -0.1034 -0.1179  0.0605
 1338W        W 4857   9.716   1.292   9.343  0.0380 -0.1340 -0.2705
 1339W        W 4858   5.448   4.775   8.695  0.2499  0.0114  0.1250
 1340W        W 4859   3.895   9.669   3.671 -0.3179  0.2759  0.1757
 1341W        W 4860   4.287   7.919   2.581  0.1992  0.3001  0.0851
 1342W        W 4861   2.746   6.693   2.141  0.0723 -0.1734  0.2113
 1343W        W 4862   9.749   3.305  10.442 -0.1894  0.2063  0.3218
 1344W        W 4863   1.875   1.211   4.408  0.1607 -0.0202  0.0496
 1345W        W 4864   3.464   9.720   3.407 -0.0232 -0.2857 -0.1926
 1346W        W 4865   1.815   4.252   1.899  0.2352  0.0452  0.1997
 1347W        W 4866   1.518   5.352   2.686  0.0527  0.1063 -0.1495
 1348W        W 4867   8.832   8.285   0.058 -0.2349 -0.0119 -0.1127
 1349W        W 4868   3.223   6.509   3.674  0.0159  0.0193 -0.2266
 1350W        W 4869   8.702   1.098   8.205  0.3845  0.1661 -0.0253
 1351W        W 4870   9.306   8.659   0.408 -0.2313 -0.0733 -0.0057
 1352W        W 4871   6.703   0.875  10.075 -0.1192  0.0080  0.1609
 1353W        W 4872   7.354   5.622   7.884 -0.0771  0.0624  0.3192
 1354W        W 4873   0.758   6.084   9.714 -0.3503  0.0113  0.0909
 1355W        W 4874   8.783   6.197  10.489 -0.0014 -0.1260 -0.2856
 1356W        W 4875   0.258   3.722   3.058 -0.0811 -0.2484  0.2935
 1357W        W 4876   5.051   4.964   0.322 -0.3071  0.1850 -0.0084
 1358W        W 4877   6.437   8.439   8.930 -0.0310 -0.0632  0.1140
 1359W        W 4878   2.934   8.048  11.658  0.3600 -0.3283  0.2740
 1360W        W 4879   3.105   9.413   3.809  0.1857 -0.1149  0.4250
 1361W        W 4880   1.632   1.725  10.957 -0.2008 -0.1199 -0.4866
 1362W        W 4881   3.111   4.318   1.960 -0.1403  0.0311 -0.1165
 1363W        W 4882   7.435   4.365   9.715 -0.0017 -0.0039 -0.2670
 1364W        W 4883   4.034   4.684   2.684 -0.2432 -0.0002 -0.1119
 1365W        W 4884   2.693   9.662  11.766 -0.0645 -0.0225 -0.1153
 1366W        W 4885   7.435   6.003   0.134  0.0719 -0.0448 -0.2660
 1367W        W 4886   0.697   8.663   4.086  0.0121 -0.0147 -0.2700
 1368W        W 4887   1.961   9.149   9.918 -0.1595 -0.0374 -0.1506
 1369W        W 4888   7.059   8.728   2.437  0.1041 -0.1173  0.2080
 1370W        W 4889   8.810   5.102   2.949 -0.0014  0.1500 -0.1292
 1371W        W 4890   7.885   8.976  11.062 -0.2951  0.3151 -0.0993
 1372W        W 4891   2.767   4.342  11.265  0.0034  0.1076  0.1975
 1373W        W 4892   9.612   3.312  11.437 -0.2062 -0.2411  0.2659
 1374W        W 4893   6.346   2.070   7.731  0.1593  0.0853  0.5394
 1375W        W 4894   6.883   5.879   9.866 -0.3547 -0.1114  0.1784
 1376W        W 4895   3.014   6.138   4.477 -0.0526  0.1529 -0.2697
 1377W        W 4896   2.014   3.445   9.866  0.1684 -0.2311 -0.1064
 1378W        W 4897   8.346   5.321   2.346  0.0301 -0.0007  0.2880
 1379W        W 4898   3.338   5.868   9.653 -0.0893 -0.2392  0.4694
 1380W        W 4899   4.297   4.424   9.968  0.0147 -0.0245  0.2023
 1381W        W 4900   9.271   8.152   2.308 -0.1642 -0.1334  0.0570
 1382W        W 4901   0.969   4.659   1.640  0.0129 -0.0466 -0.1144
 1383W        W 4902   4.085   7.847   0.282 -0.2256  0.2948 -0.2273
 1384W        W 4903   6.280   7.952  10.001 -0.1074  0.1720  0.0277
 1385W        W 4904   4.790   8.013   9.774 -0.1627  0.3770  0.1500
 1386W        W 4905   1.028   7.772   9.497  0.0219  0.0517 -0.1094
 1387W        W 4906   4.350   9.891   9.802 -0.1507 -0.3212  0.0024
 1388W        W 4907   3.312   4.690   8.052 -0.5601 -0.2775  0.0318
 1389W        W 4908   4.323   7.470   2.083 -0.0025 -0.0020  0.4251
 1390W        W 4909   5.845   0.588   0.454  0.0432  0.0180 -0.3075
 1391W        W 4910   3.132   0.461  11.853  0.2839  0.0249  0.2469
 1392W        W 4911   6.259   5.925   0.858 -0.0034 -0.1206 -0.2412
 1393W        W 4912   9.683   1.244   0.035 -0.0243 -0.0111 -0.1753
 1394W        W 4913   9.503   4.275   9.267  0.0227  0.0882 -0.3282
 1395W        W 4914   2.322   7.718   9.378 -0.0112  0.0477 -0.0035
 1396W        W 4915   7.412   4.330   1.224 -0.3073 -0.4500 -0.1663
 1397W        W 4916   7.664   0.619   3.057  0.1751 -0.0270  0.2335
 1398W        W 4917   2.208   7.574  11.599 -0.1884 -0.0932 -0.0888
 1399W        W 4918   1.425   4.165   1.098 -0.1290  0.1182  0.1527
 1400W        W 4919   0.824   6.774   0.443  0.2240 -0.0270  0.1397
 1401W        W 4920   2.569   5.400   0.344  0.0702  0.2066 -0.1533
 1402W        W 4921   4.968   4.741   2.182  0.2246 -0.0802 -0.0866
 1403W        W 4922   7.939   4.553  11.151  0.1944 -0.1040 -0.1298
 1404W        W 4923   2.487   0.579   8.475 -0.0874  0.1410  0.0958
 1405W        W 4924   8.628   8.556   4.478  0.0603 -0.1095  0.1233
 1406W        W 4925   8.518   2.787   4.125  0.3224  0.1240  0.0540
 1407W        W 4926   7.951   9.635   9.966 -0.3279 -0.1012  0.0153
 1408W        W 4927   3.599   4.570   1.912 -0.0214  0.2478  0.1315
 1409W        W 4928   5.173   8.344   3.434  0.3513  0.3079  0.0518
 1410W        W 4929   0.974   2.597   1.758 -0.2518  0.2485  0.0747
 1411W        W 4930   3.414   6.060   1.465  0.0497  0.1329  0.1219
 1412W        W 4931   8.257   9.653   1.749 -0.0584  0.3371  0.1869
 1413W        W 4932   9.294   2.110   0.125 -0.2928  0.1612  0.0191
 1414W        W 4933   5.162   2.512  10.578 -0.0462  0.1628  0.0863
 1415W        W 4934   5.807   5.290  10.551 -0.1015 -0.1546  0.0182
 1416W        W 4935   4.349   3.311   1.087 -0.3638 -0.2324  0.0418
 1417W        W 4936   1.963   9.534   9.508 -0.1724 -0.1164 -0.0613
 1418W        W 4937   7.235   4.213  10.160  0.0582  0.1131 -0.0255
 1419W        W 4938   7.977   7.311   1.053 -0.2229 -0.1851 -0.0487
 1420W        W 4939   8.579   0.364   2.824  0.5279  0.1039 -0.1841
 1421W        W 4940   1.368   6.445   3.916 -0.0916  0.1739  0.0947
 1422W        W 4941   5.719   7.354   8.810  0.2544 -0.0647  0.3338
 1423W        W 4942   5.398   1.642   1.050 -0.0346 -0.2485  0.0162
 1424W        W 4943   0.926   0.158   9.163  0.2859 -0.1247  0.0655
 1425W        W 4944   1.172   9.883  10.567 -0.2136 -0.2412  0.0069
 1426W        W 4945   2.610   4.811  10.214  0.2153 -0.0955 -0.0503
 1427W        W 4946   7.686   3.249   4.109 -0.3205 -0.1702  0.0085
 1428W        W 4947   7.543   1.894  11.702  0.1834 -0.1369 -0.0907
 1429W        W 4948   9.727   6.070   3.065  0.2014 -0.0979  0.1361
 1430W        W 4949   6.913   5.704  10.980  0.0687  0.0179 -0.0189
 1431W        W 4950   2.334   7.879   8.355 -0.2093 -0.2250 -0.4457
 1432W        W 4951   6.466   2.242   3.656 -0.0959 -0.1434 -0.2954
 1433W        W 4952   7.922   6.054   2.522 -0.4357  0.1033 -0.0801
 1434W        W 4953   2.343   1.728  10.619 -0.0872 -0.0117  0.0999
 1435W        W 4954   0.047   6.515   2.827  0.2489  0.0429 -0.3105
 1436W        W 4955   3.459   1.450   2.317 -0.1710 -0.1129 -0.2101
 1437W        W 4956   7.554   1.701   2.400  0.1013  0.2724  0.2204
 1438W        W 4957   5.977   4.323  10.323 -0.0551 -0.1555 -0.0034
 1439W        W 4958   7.316   8.695   0.174  0.0349 -0.0330 -0.0360
 1440W        W 4959   4.421   2.854   1.876  0.2330 -0.0037  0.0041
 1441W        W 4960   4.566   5.083   9.453  0.1561  0.1080  0.1192
 1442W        W 4961   9.037   6.309   2.163  0.0784 -0.2066  0.0899
 1443W        W 4962   7.159   4.865  11.854  0.1977  0.0849  0.0344
 1444W        W 4963   3.624   9.220   5.129 -0.2486  0.0567 -0.0427
 1445W        W 4964   5.144   5.326   3.546  0.1232 -0.1385  0.1846
 1446W        W 4965   4.927   6.465   1.086  0.0933 -0.2772  0.0411
 1447W        W 4966   6.397   5.068   2.421 -0.0352  0.1570  0.6658
 1448W        W 4967   9.477   6.115   1.748 -0.1606 -0.1131 -0.1092
 1449W        W 4968   1.525   7.950   8.987 -0.0003  0.0378 -0.0814
 1450W        W 4969   7.706   8.526   0.550  0.1722  0.1517  0.3125
 1451W        W 4970   5.725   7.709   0.140  0.0082  0.1299  0.2185
 1452W        W 4971   6.997   6.912  10.963 -0.1417  0.0022 -0.1528
 1453W        W 4972   4.965   4.984   3.166 -0.1710  0.3040  0.1477
 1454W        W 4973   5.334   0.950  10.688  0.1623  0.0349  0.0189
 1455W        W 4974   4.557   1.701   1.216 -0.0224 -0.1500 -0.1040
 1456W        W 4975   5.745   6.014   3.993 -0.1805 -0.0560 -0.1894
 1457W        W 4976   6.660   2.777  10.397  0.2288 -0.1285  0.0734
 1458W        W 4977   9.002   7.203   9.746  0.2196  0.0667  0.0544
 1459W        W 4978   5.877   3.638   2.646 -0.1259 -0.0739  0.0838
 1460W        W 4979   6.020   1.040   7.925 -0.3672  0.0062  0.2447
 1461W        W 4980   8.001   1.971   9.404  0.1338  0.2348 -0.1368
 1462W        W 4981   2.151   8.883   1.513 -0.0488 -0.0691 -0.2068
 1463W        W 4982   0.367   7.697   3.831 -0.0443  0.3633 -0.0190
 1464W        W 4983   7.372   8.566   9.655  0.0704  0.2134  0.1210
 1465W        W 4984   0.211   4.564   8.824 -0.0016  0.2037 -0.1808
 1466W        W 4985   3.394   6.458  10.247  0.0536 -0.0366 -0.0216
 1467W        W 4986   9.395   7.936   9.359  0.1310  0.1993  0.2181
 1468W        W 4987   0.776   1.397   9.780  0.0420  0.1290 -0.0934
 1469W        W 4988   7.254   8.858  10.113  0.0716  0.1304 -0.1579
 1470W        W 4989   2.006   7.012   1.131 -0.3051 -0.1673 -0.0175
 1471W        W 4990   2.020   1.995   0.960 -0.1327 -0.2521  0.0965
 1472W        W 4991   7.847   3.205  10.742  0.0052  0.1567 -0.1441
 1473W        W 4992   8.598   4.445   3.653  0.1680  0.0165 -0.2215
 1474W        W 4993   0.052   9.705   2.282  0.0320  0.0293 -0.1578
 1475W        W 4994   9.231   1.248  10.533  0.0655  0.1912  0.1658
 1476W        W 4995   6.903   8.352   1.612  0.0569 -0.1868 -0.1239
 1477W        W 4996   8.931   3.183   3.166 -0.3152 -0.5741  0.2026
 1478W        W 4997   9.722   4.299  11.164  0.1328  0.2056 -0.2275
 1479W        W 4998   0.730   2.426   3.199 -0.0369  0.1078  0.0606
 1480W        W 4999   3.268   5.444   1.889  0.0449  0.2100  0.2672
 1481W        W 5000   6.015   3.545  10.068  0.0837 -0.0300 -0.1002
 1482W        W 5001   4.846   3.325  11.549  0.1469  0.1444  0.2795
 1483W        W 5002   7.146   3.316   4.255  0.2715 -0.0641 -0.0710
 1484W        W 5003   7.587   6.043  11.089  0.1914 -0.0394 -0.2184
 1485W        W 5004   6.236   0.294  10.657 -0.0855  0.0096  0.1137
 1486W        W 5005   0.721   1.253   2.123  0.0835  0.0583  0.1012
 1487W        W 5006   3.429   4.823   9.528  0.0787 -0.1863  0.0309
 1488W        W 5007   1.916   8.461  11.192 -0.1243 -0.3284 -0.1740
 1489W        W 5008   4.482   2.534   2.350 -0.0730 -0.1854 -0.1246
 1490W        W 5009   1.775   9.025   1.926  0.1800 -0.2670 -0.0834
 1491W        W 5010   2.455   7.883   9.833 -0.0702  0.0623 -0.0452
 1492W        W 5011   6.426   2.805   2.926 -0.0037  0.0451  0.1069
 1493W        W 5012   0.827   4.606   3.409 -0.0237 -0.0170  0.2457
 1494W        W 5013   8.450   2.371  11.688 -0.3356  0.2118  0.1064
 1495W        W 5014   6.442   5.980   7.740  0.0506 -0.2313  0.0690
 1496W        W 5015   5.796   2.275   4.482  0.0188 -0.0231 -0.1502
 1497W        W 5016   2.426   1.406   0.105  0.1942 -0.2433  0.1316
 1498W        W 5017   1.652   1.031   1.934  0.0522  0.0251 -0.0468
 1499W        W 5018   9.900   5.084   0.732 -0.2430 -0.3187  0.1557
 1500W        W 5019   0.286   0.506   0.461  0.0848 -0.1328  0.3092
 1501W        W 5020   2.018   1.112   1.177  0.1139 -0.2361  0.1543
 1502W        W 5021   5.797   6.766   8.971  0.0528  0.2635 -0.0907
 1503W        W 5022   9.463   6.220  11.203  0.1731 -0.0044 -0.2093
 1504W        W 5023   6.716   1.731   8.362 -0.0666 -0.1115 -0.2671
 1505W        W 5024   4.296   0.516   3.357 -0.0530  0.0929  0.2002
 1506W        W 5025   7.293   5.723  11.346 -0.0389  0.3241  0.2690
 1507W        W 5026   9.402   0.128   2.431 -0.0434  0.1421  0.1402
 1508W        W 5027   9.664   7.916  11.667 -0.0799 -0.0524  0.0975
 1509W        W 5028   2.679   3.977   1.977 -0.1703  0.0098  0.1774
 1510W        W 5029   4.935   0.568   2.584 -0.1527  0.0281  0.1582
 1511W        W 5030   2.941   0.557   1.101  0.6298  0.1451  0.2317
 1512W        W 5031   6.278   4.594   1.058 -0.0589  0.0635  0.0108
 1513W        W 5032   0.981   4.307   1.218  0.2597 -0.0575  0.2148
 1514W        W 5033   2.738   6.603   1.575 -0.1654  0.0391  0.0059
 1515W        W 5034   4.006   7.210   0.953  0.0549 -0.0931 -0.0701
 1516W        W 5035   3.586   0.276   2.147 -0.2365 -0.2011 -0.1872
 1517W        W 5036   1.561   5.754   0.071 -0.1837  0.2751  0.1497
 1518W        W 5037   6.028   1.273   4.286  0.0299 -0.0046  0.3449
 1519W        W 5038   5.607   0.970   3.683  0.0076 -0.1551 -0.1168
 1520W        W 5039   2.966   3.166   2.573  0.0046 -0.0500  0.0688
 1521W        W 5040   7.878   0.955   1.973  0.1439 -0.2713  0.2213
 1522W        W 5041   3.983   0.803  10.358 -0.2494  0.3268  0.2870
 1523W        W 5042   5.661   3.046   2.423 -0.2231 -0.1034  0.0985
 1524W        W 5043   8.019   8.555   1.015  0.4150  0.0522 -0.0632
 1525W        W 5044   5.976   8.154   0.536 -0.2018  0.0603 -0.3326
 1526W        W 5045   3.637   0.297  10.905  0.2450 -0.2086 -0.0853
 1527W        W 5046   2.286   7.359   0.094  0.2803  0.1250 -0.1713
 1528W        W 5047   3.984   2.722  11.922  0.0560  0.2499  0.4275
 1529W        W 5048   7.275   1.604  10.323 -0.0309 -0.2625  0.1009
 1530W        W 5049   9.526   7.828   1.345 -0.0289 -0.1029  0.3517
 1531W        W 5050   2.706   4.105   8.622 -0.2637 -0.2591 -0.3724
 1532W        W 5051   5.411   4.701   1.831  0.0396 -0.0222  0.0287
 1533W        W 5052   2.606   4.937   0.454 -0.0378 -0.0556 -0.1576
 1534W        W 5053   2.504   6.912   0.385 -0.0801  0.2195  0.1052
 1535W        W 5054   4.522   7.927   4.512 -0.1331  0.1142 -0.0549
 1536W        W 5055   9.359   6.346  10.310  0.0475  0.0934  0.2491
 1537W        W 5056   1.452   3.775   9.849 -0.0920 -0.1307 -0.2414
 1538W        W 5057   8.296   0.476   0.896  0.2186 -0.0580 -0.3016
 1539W        W 5058   0.797   0.767  11.871  0.0131 -0.1467 -0.0974
 1540W        W 5059   9.121   0.718   9.886  0.0608 -0.2396 -0.0373
 1541W        W 5060   0.206   7.392   2.230 -0.1283  0.2279  0.0469
 1542W        W 5061   1.968   2.501   2.375 -0.2642 -0.0243  0.0916
 1543W        W 5062   9.632   5.690  10.409 -0.4109  0.1188  0.1868
 1544W        W 5063   7.742   8.491   3.443  0.0099 -0.0931  0.3137
 1545W        W 5064   4.073   6.822   9.478 -0.3343  0.0983  0.1216
 1546W        W 5065   4.284   0.865   1.329 -0.0693  0.1225 -0.1386
 1547W        W 5066   6.000   4.086  11.830 -0.0840  0.1220  0.0199
 1548W        W 5067   4.869   3.430   9.061 -0.0307 -0.0260  0.2400
 1549W        W 5068   0.087   5.025  11.825  0.3326 -0.1714  0.2414
 1550W        W 5069   8.178   9.084   2.494  0.1517  0.2242 -0.3370
 1551W        W 5070   6.308   4.014   2.076 -0.1908  0.0582 -0.0105
 1552W        W 5071   6.439   1.243  10.870 -0.1531  0.0344 -0.1418
 1553W        W 5072   5.010   3.752   2.339  0.0583 -0.0667  0.1932
 1554W        W 5073   7.691   2.124   2.237  0.0832  0.0095  0.0609
 1555W        W 5074   6.345   6.250   1.519  0.0658  0.1975 -0.0023
 1556W        W 5075   0.266   2.366   9.530 -0.0979 -0.0228  0.3659
 1557W        W 5076   5.335   3.851  10.805  0.0214 -0.0064  0.1227
 1558W        W 5077   5.323   8.607  10.870  0.1038 -0.0372  0.2210
 1559W        W 5078   6.307   1.830   3.413 -0.0242  0.2874  0.1721
 1560W        W 5079   3.901   1.402   4.707  0.0768  0.0601  0.0867
 1561W        W 5080   5.003   7.730  10.532 -0.0599 -0.0292 -0.0705
 1562W        W 5081   8.731   9.665  10.529 -0.0010  0.3034  0.0055
 1563W        W 5082   5.864   7.197   1.953  0.3324  0.1959  0.1233
 1564W        W 5083   8.736   2.620  11.319  0.0414 -0.4015  0.0398
 1565W        W 5084   0.814   7.430  10.822 -0.2023 -0.3334  0.0355
 1566W        W 5085   3.717   8.137  10.865  0.1516  0.2143  0.0710
 1567W        W 5086   9.237   7.784   0.888  0.1250  0.0784  0.2036
 1568W        W 5087   8.238   4.491   8.129  0.0337  0.0710  0.2064
 1569W        W 5088   7.346   7.954   0.063 -0.0966 -0.0454 -0.1195
 1570W        W 5089   7.035   0.597   9.851  0.1316 -0.2132  0.2349
 1571W        W 5090   3.377   2.320   1.184  0.0053  0.0180 -0.1837
 1572W        W 5091   8.652   3.036   1.155 -0.0187 -0.0048 -0.3287
 1573W        W 5092   5.320   9.180   4.406  0.0518  0.0588 -0.1419
 1574W        W 5093   0.163   7.178   3.962 -0.4600  0.0755 -0.0623
 1575W        W 5094   1.839   0.368  10.138 -0.1330 -0.1006  0.0468
 1576W        W 5095   2.339   4.750   8.180  0.1930 -0.0353 -0.1659
 1577W        W 5096   9.889   0.191   9.181 -0.3190  0.1846 -0.0642
 1578W        W 5097   6.510   2.402   8.708  0.1135 -0.0349 -0.1844
 1579W        W 5098   7.136   9.922   1.598 -0.2477  0.1380 -0.0130
 1580W        W 5099   5.333   0.178   3.145  0.0482 -0.0187  0.2462
 1581W        W 5100   9.823   3.294   3.059 -0.1886 -0.2299  0.2803
 1582W        W 5101   3.370   0.680   2.750  0.2208  0.0132  0.2176
 1583W        W 5102   4.314   4.231   2.978 -0.0662  0.3034 -0.1111
 1584W        W 5103   8.973   7.330   2.437 -0.0436  0.0671 -0.2831
 1585W        W 5104   0.676   6.602  10.318  0.4665 -0.0233 -0.0856
 1586W        W 5105   5.718   9.917   3.394  0.0730 -0.3986 -0.0404
 1587W        W 5106   9.130   1.144   0.867  0.0214 -0.1397  0.2945
 1588W        W 5107   0.249   1.071   2.164 -0.2401 -0.1553  0.2654
 1589W        W 5108   0.564   8.027   0.344  0.0284  0.1888 -0.0152
 1590W        W 5109   4.843   4.503   0.076 -0.0670  0.0812 -0.1482
 1591W        W 5110   3.035   5.980  11.594 -0.3498  0.2114  0.0178
 1592W        W 5111   7.284   7.022   2.591  0.2058  0.2672  0.0227
 1593W        W 5112   0.478   5.787  10.925 -0.2278 -0.0341 -0.0445
 1594W        W 5113   4.378   2.573  11.600 -0.0739 -0.1079 -0.0497
 1595W        W 5114   9.035   9.783   2.317  0.0268  0.0668 -0.0928
 1596W        W 5115   0.924   1.952   2.941 -0.2325  0.1222  0.1824
 1597W        W 5116   9.835   0.388   2.650 -0.1395 -0.1006 -0.1696
 1598W        W 5117   8.303   6.844   3.671 -0.1023  0.1514  0.0872
 1599W        W 5118   6.615   3.869   9.586  0.3337 -0.4312  0.4003
 1600W        W 5119   2.160   8.769   9.624  0.1154  0.1534 -0.2182
 1601W        W 5120   5.835   2.257   0.476  0.1554  0.1807 -0.2785
 1602W        W 5121   0.129   3.910   1.293  0.2258 -0.1494 -0.1330
 1603W        W 5122   3.949   1.906   2.866 -0.0467  0.0270  0.2238
 1604W        W 5123   2.179   1.817  11.288  0.0154  0.3189  0.0698
 1605W        W 5124   2.961   5.029   3.526 -0.1570 -0.2173  0.0931
 1606W        W 5125   7.050   1.791   4.283  0.0067  0.1990  0.1689
 1607W        W 5126   8.770   0.382  10.279 -0.0928  0.1259 -0.0602
 1608W        W 5127   6.181   9.770   9.789 -0.0057  0.1898  0.0501
 1609W        W 5128   5.391   7.256   2.259  0.1023 -0.0281 -0.3194
 1610W        W 5129   4.031   2.138  11.735 -0.0666 -0.1765 -0.0860
 1611W        W 5130   9.815   9.919   0.641  0.2128  0.2244  0.1393
 1612W        W 5131   2.258   5.418  11.684 -0.0278 -0.0203  0.0500
 1613W        W 5132   5.382   5.346   9.037  0.0467  0.0392  0.1320
 1614W        W 5133   1.213   6.602   3.092 -0.0464 -0.3434 -0.1494
 1615W        W 5134   6.205   4.450  11.579 -0.1359  0.2346  0.2146
 1616W        W 5135   7.007   3.615   9.331  0.0548  0.0055 -0.0900
 1617W        W 5136   5.111   5.417  10.588 -0.0877  0.1870  0.0435
 1618W        W 5137   4.352   5.480   9.296  0.0106  0.2338 -0.1176
 1619W        W 5138   6.151   1.521  11.140  0.0869 -0.3117 -0.3575
 1620W        W 5139   8.460   0.940  11.239  0.0473  0.2538  0.1354
 1621W        W 5140   7.289   0.179   9.963 -0.0743 -0.0838  0.4480
 1622W        W 5141   4.241   9.075   3.256 -0.4040  0.2992  0.0558
 1623W        W 5142   4.797   0.256   9.020  0.2126 -0.0463 -0.1837
 1624W        W 5143   2.091   7.699   0.498  0.1045  0.1272 -0.0286
 1625W        W 5144   2.616   1.844   3.690  0.1542  0.1153  0.0585
 1626W        W 5145   1.338   3.855  11.416  0.1155 -0.0542  0.1991
 1627W        W 5146   0.542   6.707  10.784 -0.0433  0.0951 -0.0331
 1628W        W 5147   4.868   2.701   2.705  0.3820 -0.4125  0.0597
 1629W        W 5148   6.630   4.338   0.597 -0.3898  0.4726 -0.1620
 1630W        W 5149   4.566   7.574  10.280 -0.0322 -0.0165  0.1304
 1631W        W 5150   4.088   3.272  10.830 -0.2262  0.1837 -0.3313
 1632W        W 5151   9.473   3.126   0.985 -0.1228  0.0790  0.0788
 1633W        W 5152   5.706   0.773   1.757  0.1232  0.0747  0.2341
 1634W        W 5153   9.676   3.603   1.276  0.1636 -0.1710 -0.0361
 1635W        W 5154   7.641   4.368   4.569 -0.2871  0.0085 -0.1141
 1636W        W 5155   5.828   9.777   1.067 -0.0215 -0.1846 -0.1955
 1637W        W 5156   9.469   3.819   2.249  0.3428 -0.0812 -0.3276
 1638W        W 5157   7.545   5.897   3.478  0.2219  0.2371  0.0185
 1639W        W 5158   8.817   3.079  11.084 -0.0867  0.0672 -0.0021
 1640W        W 5159   3.974   2.325   0.411 -0.1169  0.0113 -0.1213
 1641W        W 5160   0.549   5.521   1.782 -0.0773 -0.1483 -0.1828
 1642W        W 5161   6.474   0.965   0.078  0.0579 -0.1253 -0.1142
 1643W        W 5162   9.319   3.247  11.031 -0.0598  0.1034  0.1234
 1644W        W 5163   8.616   3.787   2.593 -0.0471  0.1407 -0.4381
 1645W        W 5164   2.540   6.251  10.449  0.0195  0.0738 -0.2204
 1646W        W 5165   5.119   0.519   3.550  0.0092  0.0848  0.2182
 1647W        W 5166   7.975   1.896   0.604 -0.1277 -0.0086  0.1662
 1648W        W 5167   0.719   4.414   3.931 -0.0276 -0.1332 -0.1497
 1649W        W 5168   3.625   5.800   7.874 -0.0629  0.2096 -0.0298
 1650W        W 5169   5.472   5.624  10.287 -0.0853  0.0675 -0.0540
 1651W        W 5170   8.392   6.899   4.153  0.1692  0.1899  0.3988
 1652W        W 5171   2.683   3.998   9.902  0.1259  0.1043 -0.0892
 1653W        W 5172   6.910   7.045   1.952  0.1466  0.0300  0.2867
 1654W        W 5173   6.595   5.161   1.916  0.0357 -0.0636 -0.1297
 1655W        W 5174   8.016   1.735   1.947 -0.2799 -0.0375  0.1206
 1656W        W 5175   7.539   2.511  10.090  0.0029  0.0859 -0.3463
 1657W        W 5176   2.035   5.448   3.034  0.1290  0.0039 -0.2131
 1658W        W 5177   5.161   7.872   0.861 -0.1447 -0.0774  0.1331
 1659W        W 5178   5.789   8.552   9.161  0.3979  0.0238 -0.2246
 1660W        W 5179   8.503   3.345  11.514  0.3094  0.2270  0.0374
 1661W        W 5180   0.810   0.138   3.045  0.0915 -0.0250  0.0128
 1662W        W 5181   4.929   1.191  10.361  0.1493  0.0924  0.0542
 1663W        W 5182   9.128   9.164   5.192  0.0186  0.0430  0.1060
 1664W        W 5183   9.451   8.264   0.076  0.2974 -0.0179  0.0376
 1665W        W 5184   9.643   6.334   4.005  0.2688 -0.0516 -0.2135
 1666W        W 5185   1.938   9.414   0.819 -0.2234 -0.1550 -0.1050
 1667W        W 5186   3.758   5.354   7.652  0.1166  0.0081  0.0799
 1668W        W 5187   0.258   6.041   9.640  0.2285 -0.1166 -0.2002
 1669W        W 5188   3.314   8.192  11.175 -0.1422  0.1647 -0.0251
 1670W        W 5189   4.706   9.442   9.714  0.3973  0.0157  0.0616
 1671W        W 5190   0.127   5.840  10.625 -0.1316 -0.0344  0.0465
 1672W        W 5191   1.686   3.209   9.468 -0.0761 -0.1616  0.0350
 1673W        W 5192   0.326   8.940   3.245 -0.0426 -0.0510 -0.0885
 1674W        W 5193   9.940   4.471  10.727 -0.0486  0.0783 -0.2045
 1675W        W 5194   5.496   6.000   2.043  0.0504 -0.0623 -0.2454
 1676W        W 5195   4.052   8.724   4.385 -0.2142 -0.0446 -0.0392
 1677W        W 5196   3.201   5.122   8.496  0.1660  0.1439 -0.0534
 1678W        W 5197   4.837   1.579   2.270 -0.2640  0.4090 -0.0463
 1679W        W 5198   1.652   2.271  11.154  0.0280  0.2716  0.0480
 1680W        W 5199   1.650   2.896  10.224 -0.1716  0.1661 -0.4956
 1681W        W 5200   1.678   1.869  11.451  0.3312  0.0014 -0.1587
 1682W        W 5201   8.113   7.665   0.240  0.0015 -0.3933  0.1605
 1683W        W 5202   4.308   5.748   0.148  0.2022  0.0385  0.2339
 1684W        W 5203   6.608   5.502   2.378 -0.1689  0.1136  0.2324
 1685W        W 5204   2.246   2.622   2.890 -0.0163  0.0019  0.1682
 1686W        W 5205   1.258   7.682   2.196  0.0748  0.1170  0.3050
 1687W        W 5206   4.517   1.658   1.694 -0.0081  0.1346 -0.0003
 1688W        W 5207   4.842   3.344   1.969 -0.1172 -0.1571  0.2179
 1689W        W 5208   7.175   8.199   0.955 -0.0737 -0.1147  0.1699
 1690W        W 5209   1.146   5.543  10.387 -0.0636 -0.0770 -0.2076
 1691W        W 5210   2.659   8.354   3.557 -0.2296 -0.0797  0.2773
 1692W        W 5211   1.359   2.370  11.709 -0.2090  0.0068  0.1705
 1693W        W 5212   8.312   6.763   2.436  0.2846 -0.0427 -0.1796
 1694W        W 5213   3.574   8.449   2.968 -0.1536  0.1187 -0.1543
 1695W        W 5214   8.807   8.002  10.448 -0.1178 -0.0840  0.0817
 1696W        W 5215   1.669   7.569   1.941 -0.0283  0.3031  0.1300
 1697W        W 5216   7.988   3.520   8.806 -0.1236 -0.0090  0.2790
 1698W        W 5217   7.998   6.282   1.744 -0.0514  0.1143 -0.0973
 1699W        W 5218   1.942   5.815  11.687  0.0482 -0.0404  0.0980
 1700W        W 5219   8.601   2.919   5.074 -0.2317  0.1011  0.1523
 1701W        W 5220   2.068   4.695   0.535 -0.0192  0.1074  0.1242
 1702W        W 5221   2.055   6.562   2.520  0.2550  0.0537 -0.1795
 1703W        W 5222   4.919   2.883   1.612 -0.0469 -0.1314 -0.1689
 1704W        W 5223   6.307   0.605  11.453  0.2671 -0.0116 -0.0163
 1705W        W 5224   3.629   8.182   5.215  0.0123  0.0033 -0.0352
 1706W        W 5225   6.850   4.021   8.281 -0.0261 -0.1013  0.4882
 1707W        W 5226   2.019   2.597  11.162 -0.1215 -0.1696  0.3853
 1708W        W 5227   6.583   2.752   9.037 -0.3137  0.0652 -0.0608
 1709W        W 5228   5.308   7.646  11.378 -0.2407 -0.3157 -0.1814
 1710W        W 5229   8.078   4.967  10.328 -0.0426 -0.1814  0.3334
 1711W        W 5230   4.758   5.521   0.174  0.0397 -0.2839 -0.1828
 1712W        W 5231   1.158   8.064   0.412 -0.5217  0.1107 -0.2652
 1713W        W 5232   6.070   3.031   1.598  0.0593 -0.2889 -0.3018
 1714W        W 5233   8.360   0.360   0.024 -0.0298  0.1738 -0.2361
 1715W        W 5234   5.756   4.960  10.916  0.2831 -0.0040  0.1041
 1716W        W 5235   6.404   9.289   0.562  0.0332  0.0215 -0.2063
 1717W        W 5236   1.357   7.732   0.804  0.1745 -0.0085  0.0966
 1718W        W 5237   3.692   8.488   9.765 -0.1025  0.1666 -0.0085
 1719W        W 5238   5.219   7.564   8.883 -0.1839  0.2696  0.1062
 1720W        W 5239   6.543   0.695   9.667 -0.1464 -0.0248  0.0520
 1721W        W 5240   3.557   7.716  11.101 -0.0197 -0.0215 -0.2866
 1722W        W 5241   5.096   2.078   1.085 -0.0883  0.1639 -0.0870
 1723W        W 5242   5.010   7.712  10.058  0.2577  0.2121 -0.1802
 1724W        W 5243   3.911   6.629  10.507 -0.0060 -0.0579  0.0041
 1725W        W 5244   8.918   2.979   0.226 -0.0334  0.1069 -0.1771
 1726W        W 5245   4.496   5.768   1.370 -0.1809 -0.0761  0.1642
 1727W        W 5246   4.268   5.562  11.223 -0.1466  0.2908 -0.2707
 1728W        W 5247   0.300   7.032  10.369 -0.1491  0.2918  0.0682
 1729W        W 5248   7.105   9.488   8.962 -0.0710  0.1773  0.2344
 1730W        W 5249   8.262   6.226   8.472  0.2376 -0.0819 -0.2446
 1731W        W 5250   5.545   6.079  10.350  0.5187 -0.0842 -0.0789
 1732W        W 5251   6.720   9.837   1.230 -0.0383 -0.0842  0.0837
 1733W        W 5252   9.564   1.710   4.178  0.0448  0.1013  0.1165
 1734W        W 5253   4.226   2.181   8.832 -0.0263  0.1855 -0.1604
 1735W        W 5254   6.099   5.352   2.025  0.1321  0.1194  0.0828
 1736W        W 5255   4.627   9.708  10.214 -0.2275  0.1540  0.0867
 1737W        W 5256   6.000   7.525  10.627  0.1798 -0.1263 -0.1114
 1738W        W 5257   6.667   6.553   4.919  0.3771  0.0432 -0.0797
 1739W        W 5258   3.173   9.464  10.435 -0.2691 -0.0396  0.1350
 1740W        W 5259   1.460   8.947   1.044  0.2020  0.0646  0.2259
 1741W        W 5260   6.188   3.622  11.908  0.0779 -0.1216  0.0061
 1742W        W 5261   5.357   4.119   0.914  0.0019 -0.0728 -0.2506
 1743W        W 5262   0.125   6.179   3.818  0.0534 -0.1532  0.1035
 1744W        W 5263   8.658   2.590   4.548 -0.0640  0.2963 -0.0155
 1745W        W 5264   9.035   4.702   3.600 -0.0518 -0.1097 -0.0470
 1746W        W 5265   3.202   6.839  11.201 -0.0612  0.1546 -0.1405
 1747W        W 5266   5.339   6.752   1.035  0.0593  0.0881 -0.1105
 1748W        W 5267   0.704   0.483   2.690 -0.0418  0.0031  0.0058
 1749W        W 5268   3.210   1.124  10.834  0.0248 -0.3851  0.1655
 1750W        W 5269   3.168   7.963   2.197 -0.0281 -0.0105 -0.1438
 1751W        W 5270   4.227   3.568  10.390  0.1151 -0.2362 -0.4423
 1752W        W 5271   0.167   6.889   2.032 -0.0663 -0.1349 -0.0104
 1753W        W 5272   9.708   0.741  11.806  0.1852  0.1343 -0.2110
 1754W        W 5273   0.646   5.898   2.704 -0.1619 -0.4708 -0.0055
 1755W        W 5274   3.310   8.212   9.712  0.1974 -0.0775 -0.3709
 1756W        W 5275   8.602   9.101   5.327  0.2532  0.1291 -0.2651
 1757W        W 5276   8.536   1.785   0.440  0.0461 -0.2313 -0.0132
 1758W        W 5277   2.369   1.787   1.371  0.1051  0.0408  0.0940
 1759W        W 5278   2.451   6.970   1.319 -0.0053  0.2345 -0.0475
 1760W        W 5279   1.466   7.462   9.657 -0.2051 -0.3889 -0.2833
 1761W        W 5280   0.780   2.114   2.079 -0.2745  0.2207  0.4574
 1762W        W 5281   3.463   8.848   4.409  0.0429 -0.0938  0.2155
 1763W        W 5282   5.832   5.142   4.929  0.0678  0.1110  0.0175
 1764W        W 5283   4.157   8.998   0.797  0.1003 -0.1758 -0.1176
 1765W        W 5284   5.958   0.538   2.665  0.0465 -0.1756 -0.2218
 1766W        W 5285   0.227   3.868   3.622  0.0769 -0.0318  0.0681
 1767W        W 5286   0.484   6.805   0.013 -0.0524 -0.1785  0.1114
 1768W        W 5287   6.625   8.128   1.151  0.3600  0.0265 -0.0576
 1769W        W 5288   4.829   5.450   2.939  0.1248 -0.2573 -0.1051
 1770W        W 5289   7.592   1.158  10.347 -0.1974 -0.1392 -0.4013
 1771W        W 5290   8.166   3.064   8.841 -0.3422  0.0306 -0.1282
 1772W        W 5291   1.226   6.253   1.575 -0.3139 -0.3549  0.1588
 1773W        W 5292   8.899   9.181   2.909 -0.1728  0.1463 -0.1235
 1774W        W 5293   9.885   6.961   9.333  0.1673 -0.0570  0.0140
 1775W        W 5294   7.813   8.431   1.873  0.0104 -0.0777 -0.1753
 1776W        W 5295   0.979   6.234   0.574  0.0638  0.1133 -0.4184
 1777W        W 5296   4.816   9.232  11.370  0.1827 -0.3258  0.1343
 1778W        W 5297   6.597   7.224   1.527  0.3101 -0.0679 -0.1701
 1779W        W 5298   7.666   3.349   3.609 -0.1692 -0.1012 -0.0750
 1780W        W 5299   1.248   0.833   1.702  0.0933  0.2350 -0.3606
 1781W        W 5300   6.174   6.437   1.076 -0.0134  0.1000  0.0236
 1782W        W 5301   1.885   7.366   0.823 -0.0439  0.0903 -0.2568
 1783W        W 5302   1.917   6.751  10.701 -0.1072  0.0268 -0.2702
 1784W        W 5303   9.790   5.306  10.061 -0.0145  0.1117  0.3197
 1785W        W 5304   3.276   8.057  10.178 -0.0494 -0.0447 -0.3148
 1786W        W 5305   1.642   0.927  11.881  0.1643 -0.2843  0.1441
 1787W        W 5306   2.931   1.434   0.199  0.2713  0.2058 -0.0108
 1788W        W 5307   9.705   0.482   4.303  0.3589 -0.0296 -0.3379
 1789W        W 5308   8.765   3.194   3.947 -0.2920 -0.2189  0.1736
 1790W        W 5309   8.881   7.346   1.353  0.0313 -0.1546  0.0619
 1791W        W 5310   9.877   7.569   8.695  0.1791  0.3356  0.0160
 1792W        W 5311   4.444   0.606   3.819  0.2262 -0.1847 -0.1306
 1793W        W 5312   5.823   4.580   3.843 -0.1410  0.0444  0.1197
 1794W        W 5313   2.431   8.321  11.919  0.4392  0.0451  0.1794
 1795W        W 5314   3.102   2.766  11.799 -0.0342  0.1572 -0.1454
 1796W        W 5315   5.147   1.779   5.103 -0.1308 -0.3829 -0.3072
 1797W        W 5316   5.693   3.662   9.699 -0.1723 -0.1521  0.1935
 1798W        W 5317   0.077   4.051   4.055  0.1390  0.1471  0.0759
 1799W        W 5318   5.909   3.353   3.572  0.1905 -0.0202 -0.1355
 1800W        W 5319   6.438   2.082   2.360  0.0632 -0.2392 -0.0810
 1801W        W 5320   5.258   8.062  11.770  0.1489  0.1770  0.2082
 1802W        W 5321   8.591   0.600   1.393 -0.2220  0.0019  0.3655
 1803W        W 5322   5.795   8.526   3.670 -0.0532  0.0352 -0.1718
 1804W        W 5323   9.698   6.006   2.200 -0.2518  0.0837 -0.1661
 1805W        W 5324   7.349   6.116   2.306  0.2765  0.0081 -0.1042
 1806W        W 5325   4.099   8.585   3.128 -0.1540  0.0209 -0.2294
 1807W        W 5326   2.931   7.627  10.160  0.0451 -0.2827 -0.2739
 1808W        W 5327   3.199   8.242   0.642 -0.0883 -0.0591  0.0506
 1809W        W 5328   5.872   2.127  11.514  0.3100  0.1426 -0.1083
 1810W        W 5329   4.410   0.518   4.726  0.0096  0.1202  0.2864
 1811W        W 5330   5.185   0.952   4.414  0.1325  0.0264  0.0894
 1812W        W 5331   7.972   1.122   1.515  0.0142  0.3039 -0.2296
 1813W        W 5332   2.998   7.128  10.304 -0.1105  0.3629 -0.1124
 1814W        W 5333   6.777   9.186   9.241  0.0040  0.2234 -0.1333
 1815W        W 5334   7.675   7.473   3.591  0.1054  0.5688  0.2498
 1816W        W 5335   2.249   7.442   1.159 -0.2552  0.0752 -0.0112
 1817W        W 5336   7.136   0.900   4.410  0.1181 -0.0801 -0.3808
 1818W        W 5337   2.998   9.873   3.616  0.0371  0.2949 -0.1093
 1819W        W 5338   5.137   4.323   0.486  0.0121 -0.0682  0.2855
 1820W        W 5339   8.752   6.236   3.190  0.1417  0.0431 -0.0703
 1821W        W 5340   4.357   0.563   0.310  0.0128 -0.1732 -0.0667
 1822W        W 5341   0.772   2.709  10.896 -0.2027  0.2143 -0.1631
 1823W        W 5342   7.516   5.889   2.785  0.2952 -0.1926 -0.3519
 1824W        W 5343   6.001   0.866   3.225 -0.3337  0.1789 -0.0649
 1825W        W 5344   6.733   7.073   5.051 -0.2570  0.0108 -0.0259
 1826W        W 5345   2.663   9.412   0.234 -0.0771  0.0564 -0.0077
 1827W        W 5346   3.223   6.642   2.424  0.1235  0.0127  0.0102
 1828W        W 5347   5.392   4.646  11.112 -0.2277 -0.0779  0.0520
 1829W        W 5348   0.449   0.256   0.814 -0.0567 -0.1147 -0.1061
 1830W        W 5349   4.937   3.062   9.939  0.0078  0.1993 -0.1909
 1831W        W 5350   7.110   1.620   0.780 -0.1071  0.0074  0.0426
 1832W        W 5351   9.853   2.430   8.494  0.0933 -0.2649 -0.0123
 1833W        W 5352   9.159   7.828   3.119 -0.1963 -0.1048  0.0070
 1834W        W 5353   4.561   1.267   2.594 -0.0299  0.0276  0.4303
 1835W        W 5354   5.448   5.768  10.780 -0.0729 -0.2615 -0.0726
 1836W        W 5355   7.996   1.985   3.560  0.0695 -0.0715 -0.0242
 1837W        W 5356   1.047   6.567   9.061  0.0289  0.2694 -0.1472
 1838W        W 5357   6.514   8.650   1.383 -0.4582 -0.0190 -0.0819
 1839W        W 5358   4.747   3.127   9.425 -0.0683  0.2653 -0.1034
 1840W        W 5359   5.711   5.048   3.910  0.0506  0.4036  0.1910
 1841W        W 5360   8.691   1.079  11.760 -0.2291 -0.3751  0.0384
 1842W        W 5361   0.832   8.376   8.924  0.0897  0.1163 -0.1752
 1843W        W 5362   3.848   7.074   3.493 -0.0232 -0.2426  0.0900
 1844W        W 5363   6.770   9.684  10.170  0.0523  0.0651 -0.0334
 1845W        W 5364   1.991   4.585   8.517 -0.0590  0.2746  0.0388
 1846W        W 5365   9.699   9.133   2.337 -0.0943  0.1943 -0.0150
 1847W        W 5366   4.814   3.432   8.515  0.0212  0.2713 -0.3138
 1848W        W 5367   8.009   9.918   3.691  0.0778  0.1296 -0.3115
 1849W        W 5368   4.652   7.780   0.914 -0.0791  0.4970  0.0940
 1850W        W 5369   5.063   3.477   3.335 -0.0590  0.0023  0.0106
 1851W        W 5370   9.022   2.100   1.025 -0.2109  0.1248  0.0567
 1852W        W 5371   7.675   8.763   8.827 -0.1249  0.0886  0.2733
 1853W        W 5372   3.371   3.928   2.939  0.0667  0.2823  0.0298
 1854W        W 5373   0.101   1.902   4.215  0.0082  0.1530  0.2144
 1855W        W 5374   3.449   7.554   4.873  0.4186 -0.0209  0.0141
 1856W        W 5375   4.534   8.192   9.326 -0.1189 -0.0031  0.0166
 1857W        W 5376   8.588   5.177   0.310 -0.2403 -0.0092  0.1898
 1858W        W 5377   4.764   3.920   8.549 -0.0527  0.0660  0.3920
 1859W        W 5378   1.441   5.522  10.863 -0.1412  0.2557  0.0598
 1860W        W 5379   9.125   6.285   2.689 -0.3290  0.0019  0.0541
 1861W        W 5380   2.041   3.988  11.051  0.2238 -0.0532  0.2360
 1862W        W 5381   7.622   9.744   0.978  0.1484  0.2709 -0.0055
 1863W        W 5382   7.370   5.266   1.375  0.0684  0.1519 -0.1324
 1864W        W 5383   6.156   3.379   0.368  0.2632  0.3132 -0.2668
 1865W        W 5384   6.693   7.140   3.656 -0.0144 -0.0348 -0.2164
 1866W        W 5385   2.904   8.524  11.909  0.1158  0.0265 -0.2555
 1867W        W 5386   8.684   9.625   8.966 -0.0732  0.0377 -0.0400
 1868W        W 5387   9.548   4.052   1.519  0.0412 -0.0551  0.1812
 1869W        W 5388   4.844   8.897  10.049  0.1998  0.1464 -0.0300
 1870W        W 5389   4.038   4.982   1.597  0.2892 -0.0797  0.4626
 1871W        W 5390   3.118   8.823   9.024  0.0146  0.0827 -0.1433
 1872W        W 5391   6.293   2.025  11.869 -0.2437  0.3815 -0.2784
 1873W        W 5392   6.037   0.789  10.651  0.0240  0.1474  0.1265
 1874W        W 5393   7.276   7.890  10.965  0.1321 -0.1885  0.0648
 1875W        W 5394   9.529   0.595   9.616  0.4518  0.3279 -0.2372
 1876W        W 5395   2.898   1.903  11.941 -0.0220  0.1016 -0.0299
 1877W        W 5396   0.738   3.099   3.240 -0.0094  0.2984  0.2380
 1878W        W 5397   0.508   2.412   0.035 -0.1202 -0.2001  0.0843
 1879W        W 5398   9.203   3.673   2.668  0.0662 -0.1856  0.0213
 1880W        W 5399   7.896   3.451   9.926  0.0407  0.0726 -0.2913
 1881W        W 5400   5.658   7.357  11.707  0.1727 -0.2083 -0.0371
 1882W        W 5401   0.216   5.670  10.178 -0.1799  0.0927  0.3014
 1883W        W 5402   6.220   0.827   8.778 -0.1323  0.4969  0.2676
 1884W        W 5403   2.574   8.678   2.551  0.1357 -0.0073 -0.3052
 1885W        W 5404   7.269   4.833   2.776  0.0453 -0.3122  0.0381
 1886W        W 5405   6.946   2.997   3.282 -0.2844  0.4109  0.1915
 1887W        W 5406   6.183   9.687   2.305  0.0216  0.2442 -0.1722
 1888W        W 5407   6.889   8.057   3.874 -0.0084  0.1101  0.3150
 1889W        W 5408   2.322   2.591   9.297 -0.2126 -0.0751 -0.1553
 1890W        W 5409   6.219   0.292   2.300  0.1686 -0.3226  0.2338
 1891W        W 5410   7.387   5.123  10.442 -0.0983 -0.0856 -0.1168
 1892W        W 5411   5.422   4.346   3.704 -0.0770  0.0779  0.0858
 1893W        W 5412   3.764   1.425   1.616  0.0307  0.0654 -0.2047
 1894W        W 5413   1.298   6.634   0.412  0.1866 -0.0728  0.2374
 1895W        W 5414   8.480   7.445   1.944  0.1990 -0.1808 -0.0559
 1896W        W 5415   8.846   5.484   2.585  0.2685  0.2719 -0.0381
 1897W        W 5416   0.070   6.655  11.770  0.1444 -0.0272  0.4000
 1898W        W 5417   0.395   5.273  10.893 -0.0165  0.2341 -0.3849
 1899W        W 5418   6.758   9.537   3.540 -0.2248  0.0524 -0.1967
 1900W        W 5419   3.196   0.001  10.673  0.0055 -0.0195 -0.2146
 1901W        W 5420   5.525   4.972  11.481  0.3897 -0.1621  0.1695
 1902W        W 5421   2.325   8.515  10.502 -0.0015 -0.2800  0.0138
 1903W        W 5422   2.007   0.424   1.237 -0.3177 -0.0024  0.1474
 1904W        W 5423   0.698   1.131   4.241 -0.1859 -0.2926  0.1047
 1905W        W 5424   2.834   3.830   0.538  0.1738  0.0618  0.1287
 1906W        W 5425   8.778   4.215   1.321 -0.0149 -0.1720  0.0382
 1907W        W 5426   4.458   6.549   0.890 -0.0816 -0.0641  0.0227
 1908W        W 5427   0.566   3.081  10.391  0.0019  0.2771 -0.1973
 1909W        W 5428   8.639   0.250   2.257 -0.0657  0.1232  0.2699
 1910W        W 5429   8.339   6.438   3.397  0.2171 -0.0167  0.0657
 1911W        W 5430   5.275   4.550   9.646  0.1448 -0.0341 -0.2085
 1912W        W 5431   7.043   4.137   9.383 -0.1763  0.1420  0.1638
 1913W        W 5432   2.586   0.736   3.644 -0.0772 -0.0284 -0.1488
 1914W        W 5433   6.120   8.478  10.170 -0.0112  0.1006  0.2222
 1915W        W 5434   0.084   5.352  10.501  0.0880  0.1572  0.0444
 1916W        W 5435   8.083   0.731   3.940  0.3677 -0.0125 -0.0438
 1917W        W 5436   6.609   2.575  11.684 -0.0995  0.4165  0.2180
 1918W        W 5437   8.025   3.386   2.812 -0.0082 -0.2278 -0.1187
 1919W        W 5438   1.296   6.278  11.058  0.1099 -0.0643  0.2891
 1920W        W 5439   1.807   0.672   1.579 -0.0166 -0.0591 -0.2003
 1921W        W 5440   2.644   6.039   2.460  0.2125  0.1595  0.2911
 1922W        W 5441   8.942   5.415  10.021  0.0117 -0.0732 -0.2496
 1923W        W 5442   6.464   1.245  11.434  0.0004 -0.0677 -0.3846
 1924W        W 5443   7.530   0.846  10.694 -0.2759  0.2077  0.2250
 1925W        W 5444   4.086   5.378   3.240 -0.1838 -0.0647  0.0595
 1926W        W 5445   6.748   9.504   0.907  0.1067  0.1140 -0.0691
 1927W        W 5446   8.790   2.737   2.876  0.1407  0.2092  0.3572
 1928W        W 5447   5.073   3.626   1.114  0.0157 -0.0026 -0.0369
 1929W        W 5448   3.411   4.339  10.438 -0.0241 -0.1818  0.2166
 1930W        W 5449   1.967   4.103   1.387  0.1243  0.3608 -0.2437
 1931W        W 5450   8.265   1.400   2.875 -0.0920  0.3444 -0.2238
 1932W        W 5451   7.820   0.816   2.558  0.2325  0.2845 -0.0758
 1933W        W 5452   2.966   6.318   1.043 -0.2895 -0.0384  0.0703
 1934W        W 5453   2.042   7.448   3.344 -0.0287 -0.1806  0.3528
 1935W        W 5454   3.217   2.749   1.018 -0.1169 -0.1765  0.0487
 1936W        W 5455   9.844   1.278  10.299 -0.1182  0.0592  0.1488
 1937W        W 5456   0.186   0.987   3.951  0.1680  0.0615  0.3276
 1938W        W 5457   0.687   9.416   8.122  0.2727  0.1415  0.1197
 1939W        W 5458   6.159   4.301   4.082  0.0368 -0.2953  0.1392
 1940W        W 5459   5.885   2.067   3.605 -0.0467  0.0443 -0.0931
 1941W        W 5460   8.263   4.909   1.234 -0.2072  0.2978  0.1162
 1942W        W 5461   0.963   0.404   1.745 -0.0297 -0.0565  0.1055
 1943W        W 5462   1.582   0.260   1.515  0.0624  0.1354 -0.0875
 1944W        W 5463   6.991   6.686   2.894 -0.1277 -0.0022  0.2376
 1945W        W 5464   1.222   2.392   4.251 -0.1976  0.0863 -0.1109
 1946W        W 5465   4.517   3.629   1.703  0.0045  0.1604  0.0159
 1947W        W 5466   6.115   1.545  10.631 -0.1279  0.0684  0.0518
 1948W        W 5467   7.811   7.927  10.983  0.2191 -0.1789 -0.0062
 1949W        W 5468   7.279   6.548   4.704  0.1759  0.1178  0.0591
 1950W        W 5469   5.218   7.056  11.745  0.3379  0.2122 -0.1455
 1951W        W 5470   4.986   7.731   4.619  0.0340 -0.2322  0.1767
 1952W        W 5471   6.044   8.033   3.364  0.0510  0.1866 -0.0276
 1953W        W 5472   4.305   2.793   2.810  0.1608  0.2099 -0.0672
 1954W        W 5473   9.369   6.029   9.817  0.0168  0.1749  0.0431
 1955W        W 5474   7.887   2.708   0.917 -0.0705 -0.3056  0.0395
 1956W        W 5475   5.038   3.191   4.153 -0.0193  0.0831 -0.2185
 1957W        W 5476   0.853   3.850   9.065  0.0697 -0.0473  0.0362
 1958W        W 5477   6.092   4.455   0.579  0.1832  0.0395  0.0838
 1959W        W 5478   0.813   5.708   1.393 -0.1790  0.1191 -0.1683
 1960W        W 5479   4.849   4.994   2.691  0.1622 -0.1278 -0.2478
 1961W        W 5480   1.601   8.224  10.925 -0.0533 -0.0735  0.3004
 1962W        W 5481   9.019   1.543   2.501 -0.1483  0.1236  0.3141
 1963W        W 5482   9.348   6.667  11.497  0.1902 -0.0565  0.2156
 1964W        W 5483   6.250   8.811  11.181  0.2878 -0.1562 -0.0907
 1965W        W 5484   9.589   9.333   1.491  0.0473 -0.0760 -0.2882
 1966W        W 5485   5.344   4.651   0.070 -0.2116 -0.0416  0.2478
 1967W        W 5486   6.831   5.553   3.555 -0.3096  0.1923 -0.0853
 1968W        W 5487   0.628   9.219  10.579 -0.0087 -0.1996  0.4942
 1969W        W 5488   3.803   7.392   0.383  0.0934 -0.2275  0.0494
 1970W        W 5489   1.379   7.084   2.118 -0.2259  0.2859  0.1155
 1971W        W 5490   8.741   1.670   0.861  0.0833  0.0775  0.2599
 1972W        W 5491   4.021   1.483   2.539  0.0668  0.0506  0.0295
 1973W        W 5492   0.146   6.250   0.080 -0.0970 -0.0665 -0.2290
 1974W        W 5493   4.222   9.343   8.538  0.1585 -0.1219 -0.0810
 1975W        W 5494   9.444   7.468   9.562  0.0994 -0.1637 -0.0982
 1976W        W 5495   9.772   1.637   1.049 -0.3514  0.2246 -0.3126
 1977W        W 5496   7.290   4.606   8.823  0.0175 -0.1527  0.3332
 1978W        W 5497   5.699   6.973   7.878  0.1985  0.1153  0.0983
 1979W        W 5498   3.729   4.928   8.147 -0.0627  0.3025 -0.1256
 1980W        W 5499   0.064   9.345   9.987  0.2452 -0.0976  0.2006
 1981W        W 5500   0.280   1.519   0.165  0.4349  0.1157  0.0618
 1982W        W 5501   2.700   7.464   9.631 -0.0928  0.3491 -0.1263
 1983W        W 5502   9.381   5.112   8.918  0.1803 -0.0248 -0.1133
 1984W        W 5503   0.473   9.570   4.496 -0.1783  0.1905  0.2834
 1985W        W 5504   1.293   0.928  11.230 -0.1775 -0.1710 -0.0673
 1986W        W 5505   2.780   0.184  11.602  0.1820 -0.1375  0.1554
 1987W        W 5506   4.638   9.365   0.497  0.2175  0.0140 -0.0577
 1988W        W 5507   4.433   1.634  10.183 -0.3410 -0.2496  0.0531
 1989W        W 5508   0.642   2.580   9.130 -0.3652  0.0063  0.0169
 1990W        W 5509   1.642   1.211  10.164  0.0066  0.1621  0.4093
 1991W        W 5510   0.748   6.906   1.986  0.0852  0.2996 -0.1347
 1992W        W 5511   5.313   0.584   0.517  0.1788  0.2076 -0.0879
 1993W        W 5512   9.131   8.679   1.575 -0.0222 -0.0877  0.0393
 1994W        W 5513   5.925   7.582   2.799  0.0555  0.0414  0.1192
 1995W        W 5514   1.435   8.987   3.246 -0.2718 -0.0159  0.0837
 1996W        W 5515   9.267   6.558   1.790  0.2790 -0.0385 -0.0345
 1997W        W 5516   2.610   1.553  11.641 -0.2023 -0.1107 -0.0829
 1998W        W 5517   0.192   5.187   1.614  0.0873 -0.1135  0.0601
 1999W        W 5518   9.272   8.714   3.129  0.0467 -0.2013 -0.0903
 2000W        W 5519   1.143   8.693   3.536  0.0588 -0.1088  0.1952
 2001W        W 5520   0.973   5.681   9.829  0.2382  0.3470  0.2235
 2002W        W 5521   2.725   1.175   2.645 -0.0038  0.2628  0.0704
 2003W        W 5522   6.737   0.651  11.768 -0.0033 -0.0681 -0.0674
 2004W        W 5523   1.662   0.666   0.369 -0.4394 -0.1331  0.1169
 2005W        W 5524   9.854   4.173  11.664  0.3220 -0.0919  0.1135
 2006W        W 5525   2.959   0.370  10.361  0.1093  0.0930 -0.2812
 2007W        W 5526   0.562   9.645  10.815 -0.4310 -0.2756 -0.0005
 2008W        W 5527   1.493   7.791   3.812 -0.0295  0.0494 -0.1125
 2009W        W 5528   0.052   4.514   0.029  0.0935  0.0314  0.0658
 2010W        W 5529   3.591   9.318  10.209  0.0904 -0.0614  0.0172
 2011W        W 5530   4.790   2.155  11.704  0.0800  0.3262  0.1094
 2012W        W 5531   4.509   6.226   9.974  0.1754  0.1422 -0.1850
 2013W        W 5532   9.046   3.482   4.822 -0.0942  0.1519 -0.1286
 2014W        W 5533   4.519   0.843  11.177  0.1670 -0.1778  0.2824
 2015W        W 5534   0.895   0.169   3.982 -0.0719  0.0876 -0.0586
 2016W        W 5535   9.498   1.644   8.341  0.0471  0.0911  0.0742
 2017W        W 5536   9.357   7.407   1.585  0.0065  0.0668  0.1564
 2018W        W 5537   6.418   4.276   8.016 -0.1037  0.0521 -0.1809
 2019W        W 5538   6.704   4.108   1.081 -0.1678  0.2481  0.1011
 2020W        W 5539   2.820   4.285   0.329  0.2438 -0.0421  0.0241
 2021W        W 5540   7.239   2.565   3.352 -0.0384 -0.0394 -0.0664
 2022W        W 5541   0.485   2.102   9.100 -0.1346  0.0602  0.1768
 2023W        W 5542   7.140   5.428   9.479  0.0184 -0.0411 -0.3795
 2024W        W 5543   8.548   0.483   0.488 -0.0234 -0.3650  0.1159
 2025W        W 5544   3.113   1.219   2.046 -0.0996  0.1104 -0.0887
 2026W        W 5545   4.776   2.813  11.831  0.2676  0.2607 -0.0785
 2027W        W 5546   9.409   7.402   3.265 -0.1514  0.2363 -0.0646
 2028W        W 5547   3.950   1.576  11.568 -0.2931 -0.0487 -0.0081
 2029W        W 5548   6.596   5.425  11.933 -0.1841 -0.0688 -0.3856
 2030W        W 5549   0.435   9.724   9.034  0.2017 -0.0730  0.0964
 2031W        W 5550   7.040   2.160   2.934  0.1461  0.1003  0.0472
 2032W        W 5551   4.049   8.060  10.411  0.0683  0.0500 -0.0205
 2033W        W 5552   1.583   1.632   9.768  0.4692 -0.0805  0.0749
 2034W        W 5553   1.137   7.417   3.490  0.0754 -0.0538 -0.1273
 2035W        W 5554   8.836   2.290   9.993  0.0262 -0.4235  0.0959
 2036W        W 5555   1.714   0.252   2.057  0.2183  0.0070 -0.1120
 2037W        W 5556   1.072   5.763   0.324 -0.1131 -0.4153  0.2361
 2038W        W 5557   0.274   1.998   0.209 -0.1663 -0.3295  0.0860
 2039W        W 5558   8.508   4.816  11.184 -0.0124 -0.3919 -0.2014
 2040W        W 5559   1.585   5.026   9.199  0.1710  0.0553  0.1246
 2041W        W 5560   2.990   8.635  11.418 -0.0229  0.2843  0.0551
 2042W        W 5561   7.128   0.458   0.037 -0.0521 -0.1515  0.0377
 2043W        W 5562   5.736   9.031   8.958  0.0525  0.0564 -0.2433
 2044W        W 5563   2.909   0.614  11.410 -0.1307 -0.3455 -0.2142
 2045W        W 5564   2.266   1.831   1.866  0.0849 -0.1463  0.0313
 2046W        W 5565   0.901   6.838   2.792  0.3623 -0.1014  0.0492
 2047W        W 5566   7.859   6.663   3.397  0.0238  0.0685  0.1505
 2048W        W 5567   5.547   8.033   9.260 -0.1080  0.1230  0.6091
 2049W        W 5568   5.372   1.183   8.871 -0.0582  0.0814  0.1252
 2050W        W 5569   1.868   2.670   0.279  0.1526  0.2161 -0.1665
 2051W        W 5570   9.107   8.288   0.847  0.0153 -0.0278  0.0770
 2052W        W 5571   9.643   8.059   2.042 -0.0800  0.1723 -0.1146
 2053W        W 5572   9.864   4.824   9.944 -0.1860  0.3277  0.0289
 2054W        W 5573   5.316   8.284   3.948 -0.1574 -0.1246 -0.0551
 2055W        W 5574   5.015   0.168   1.305  0.3207 -0.2735  0.1052
 2056W        W 5575   6.703   7.344  10.659 -0.1508 -0.1854 -0.1243
 2057W        W 5576   6.318   1.911   9.939  0.2474  0.1089 -0.2365
 2058W        W 5577   7.769   2.120  10.456 -0.2680 -0.1706  0.0467
 2059W        W 5578   2.847   9.939   1.906  0.0449 -0.1492  0.1218
 2060W        W 5579   9.431   2.260  10.910  0.2055 -0.0837 -0.0019
 2061W        W 5580   5.761   2.499   1.571  0.2709 -0.1855  0.1297
 2062W        W 5581   1.124   8.373   4.484 -0.3264  0.3286 -0.2127
 2063W        W 5582   3.787   4.789   9.864 -0.1237 -0.0704  0.0890
 2064W        W 5583   7.013   2.762   3.779  0.2988  0.0338 -0.2275
 2065W        W 5584   8.548   8.824  10.375  0.1346 -0.1244  0.0169
 2066W        W 5585   7.199   7.094  10.546  0.3770  0.1525  0.1625
 2067W        W 5586   3.419   3.849   2.026 -0.1336 -0.1144 -0.1010
 2068W        W 5587   5.492   4.583   2.811 -0.2889  0.1016  0.0361
 2069W        W 5588   5.787   8.084   1.579  0.0552  0.2213  0.1943
 2070W        W 5589   2.970   9.839   3.101  0.0149  0.0440 -0.2219
 2071W        W 5590   3.837   0.691   2.296 -0.0437  0.0842 -0.2889
 2072W        W 5591   3.682   5.664   9.938 -0.1739 -0.2271 -0.1151
 2073W        W 5592   3.091   3.771   3.316  0.1345  0.1068  0.1197
 2074W        W 5593   2.949   4.731   7.697  0.0917  0.1206 -0.0437
 2075W        W 5594   7.770   0.575   0.338 -0.5656 -0.0646  0.1355
 2076W        W 5595   5.556   2.107   2.292  0.2668 -0.0040  0.0382
 2077W        W 5596   1.171   2.642   9.198  0.3532 -0.1543  0.1289
 2078W        W 5597   0.426   7.046   9.448 -0.1401 -0.0264  0.3211
 2079W        W 5598   1.090   9.029   4.858  0.0902  0.0216 -0.2203
 2080W        W 5599   2.957   1.059   3.549 -0.4081 -0.0189 -0.2848
 2081W        W 5600   4.846   2.114  10.824  0.0130 -0.0264 -0.3482
 2082W        W 5601   4.865   8.012   2.641 -0.1364  0.0537 -0.1721
 2083W        W 5602   7.472   4.269   2.743  0.2361 -0.1502  0.3957
 2084W        W 5603   0.508   1.022   3.114 -0.1067 -0.0092 -0.0965
 2085W        W 5604   9.099   1.080   2.861  0.0217 -0.0404  0.1992
 2086W        W 5605   7.073   1.949   9.252 -0.1478 -0.0602  0.0229
 2087W        W 5606   7.650   3.208  11.190  0.1198 -0.2339 -0.1469
 2088W        W 5607   9.581   6.895   4.723  0.0854 -0.0480 -0.1379
 2089W        W 5608   4.628   5.475   2.495 -0.0627  0.3325  0.2508
 2090W        W 5609   4.736   7.553   3.494  0.3107  0.0712  0.1089
 2091W        W 5610   1.059   0.578   3.564 -0.2011  0.0211 -0.2426
 2092W        W 5611   0.161   8.004   2.959  0.1277 -0.1282  0.1590
 2093W        W 5612   1.034   3.325   2.829  0.2700 -0.0164  0.0356
 2094W        W 5613   5.879   6.542  10.710 -0.0599  0.0095 -0.1828
 2095W        W 5614   1.210   1.655  10.684 -0.0957  0.0686  0.3753
 2096W        W 5615   5.666   3.873  10.190  0.0563  0.1147  0.0945
 2097W        W 5616   3.631   4.742   7.677  0.0097 -0.0654  0.1481
 2098W        W 5617   6.487   7.530   9.774 -0.0211 -0.2226  0.0314
 2099W        W 5618   1.874   2.383   1.221  0.0097  0.1999 -0.1886
 2100W        W 5619   2.396   2.780  11.460  0.0792 -0.1769  0.3889
 2101W        W 5620   0.219   7.292   0.896 -0.1125 -0.0136  0.2916
 2102W        W 5621   2.624   5.955  10.918  0.1723 -0.0470  0.1041
 2103W        W 5622   9.251   6.089   0.049 -0.1295 -0.2555  0.1928
 2104W        W 5623   1.661   2.110   3.475 -0.5151 -0.1561 -0.0497
 2105W        W 5624   1.458   0.321   9.066  0.0632 -0.5428 -0.2206
 2106W        W 5625   9.714   6.236   0.946  0.0029  0.0524 -0.0597
 2107W        W 5626   4.347   7.968  11.381 -0.0459  0.0648  0.1496
 2108W        W 5627   8.636   7.070   2.180  0.0087  0.3407 -0.3003
 2109W        W 5628   8.372   3.133   0.066  0.1779  0.0110  0.1701
 2110W        W 5629   9.739   2.770   1.872  0.2187 -0.1068  0.0037
 2111W        W 5630   0.465   3.309   2.895  0.0993  0.1331  0.0345
 2112W        W 5631   6.376   1.637   4.369 -0.2866  0.2206 -0.2038
 2113W        W 5632   8.154   3.518   0.460 -0.0170 -0.0043 -0.0607
 2114W        W 5633   0.482   3.066   1.116 -0.3552  0.0816  0.1341
 2115W        W 5634   5.145   1.095   2.910  0.3982 -0.0636 -0.1762
 2116W        W 5635   5.709   5.638   2.793  0.0901 -0.0189 -0.4626
 2117W        W 5636   3.147   9.377   8.951 -0.0096 -0.2289 -0.0782
 2118W        W 5637   2.353   8.269   9.453  0.2152  0.1459 -0.0239
 2119W        W 5638   5.632   2.172   8.533  0.1579  0.0723  0.2180
 2120W        W 5639   4.015   7.613  10.145 -0.2207 -0.0786  0.0829
 2121W        W 5640   1.043   7.792   3.158  0.2467 -0.1844 -0.1431
 2122W        W 5641   8.058   4.421   0.901  0.1632 -0.0731  0.0801
 2123W        W 5642   9.334   4.762   4.011 -0.0788 -0.0260  0.1939
 2124W        W 5643   4.482   8.268   2.872 -0.0646  0.0284 -0.0351
 2125W        W 5644   3.120   1.763   2.005 -0.4390 -0.2530 -0.2279
 2126W        W 5645   3.191   2.263   0.655 -0.0493  0.0569  0.0031
 2127W        W 5646   6.537   8.501   1.880  0.1818  0.0289 -0.1989
 2128W        W 5647   8.364   7.625   4.129  0.0536  0.0409 -0.3818
 2129W        W 5648   2.652   6.545   3.300 -0.1043 -0.4197  0.1995
 2130W        W 5649   1.990   9.075   9.215  0.2720  0.1405 -0.1372
 2131W        W 5650   9.240   9.133   0.251  0.0210  0.0884  0.1176
 2132W        W 5651   0.781   7.412   9.705  0.3109  0.0540 -0.2930
 2133W        W 5652   8.792   9.832   9.497 -0.4239 -0.1116 -0.0466
 2134W        W 5653   6.220   8.066   2.862  0.1513 -0.0150  0.0074
 2135W        W 5654   9.481   9.200   3.906  0.0923 -0.1026  0.1097
 2136W        W 5655   4.656   1.985  11.282  0.1320  0.1070  0.0152
 2137W        W 5656   8.578   7.067   2.784  0.0647  0.0455  0.1735
 2138W        W 5657   4.834   0.035   4.700 -0.1419  0.0200  0.0522
 2139W        W 5658   1.104   4.613  10.909  0.2300  0.0539 -0.2921
 2140W        W 5659   3.916   3.013   9.163 -0.1574  0.3382 -0.2693
 2141W        W 5660   3.096   9.527   2.044 -0.1016  0.0319 -0.0408
 2142W        W 5661   1.891   4.630   7.977 -0.3488 -0.0555  0.2886
 2143W        W 5662   4.164   2.413  10.489  0.0057  0.3120  0.0699
 2144W        W 5663   5.235   2.081   0.168 -0.1625  0.1359 -0.0131
 2145W        W 5664   9.058   3.819   4.067 -0.3720 -0.0496  0.1757
 2146W        W 5665   0.448   9.121   1.787 -0.1925  0.2131  0.1098
 2147W        W 5666   7.429   5.487   0.273  0.0957  0.1108  0.2799
 2148W        W 5667   4.528   6.958  11.184 -0.0548 -0.0096  0.1425
 2149W        W 5668   8.104   0.907  10.790 -0.1012  0.3811  0.3447
 2150W        W 5669   0.829   2.420  11.359 -0.0951 -0.1047  0.1876
 2151W        W 5670   8.383   6.179  11.436 -0.1423 -0.0019  0.0821
 2152W        W 5671   1.002   3.393  10.269 -0.1305 -0.1123  0.0455
 2153W        W 5672   2.186   7.936   2.000  0.0726  0.3614  0.1914
 2154W        W 5673   1.633   4.406   0.745 -0.0296  0.2132 -0.2693
 2155W        W 5674   0.278   6.359   1.346  0.1027  0.0667  0.0643
 2156W        W 5675   7.207   7.618   4.742  0.1778  0.1033 -0.2095
 2157W        W 5676   9.168   6.127  10.753  0.0693  0.2345  0.1750
 2158W        W 5677   2.082   0.681   2.063 -0.0358 -0.3201  0.0934
 2159W        W 5678   4.142   7.882   8.990  0.3968 -0.1664 -0.1965
 2160W        W 5679   6.052   1.448   0.941  0.1408  0.0619  0.1869
 2161W        W 5680   3.909   3.796  11.682  0.0122 -0.0438 -0.1199
 2162W        W 5681   8.073   1.868   2.613  0.0562  0.0608 -0.0224
 2163W        W 5682   2.881   9.642   9.921  0.0913  0.1653  0.1497
 2164W        W 5683   1.610   1.158  10.863  0.0764  0.0043  0.3067
 2165W        W 5684   4.512   2.875   0.851  0.0664  0.1334  0.1465
 2166W        W 5685   2.688   2.794   0.139  0.2698 -0.0701  0.0213
 2167W        W 5686   3.272   7.389   9.318 -0.1629  0.0629 -0.2965
 2168W        W 5687   6.811   0.827   2.740  0.0013  0.4884  0.0904
 2169W        W 5688   8.950   2.784   8.557 -0.0772 -0.1448  0.1156
 2170W        W 5689   6.763   3.941  10.585  0.1104 -0.1662  0.0572
 2171W        W 5690   8.531   1.924  11.404  0.2421  0.0025  0.0307
 2172W        W 5691   8.270   8.181   1.200 -0.0579  0.1644 -0.1226
 2173W        W 5692   2.510   8.869  11.449 -0.1272 -0.0044 -0.1802
 2174W        W 5693   8.607   1.314   2.519 -0.2207  0.2738 -0.2301
 2175W        W 5694   8.205   2.391   9.644  0.2927  0.1078  0.1174
 2176W        W 5695   2.040   3.212   1.403  0.0772  0.2930  0.1466
 2177W        W 5696   3.007   7.601   4.609  0.2561  0.0179 -0.2957
 2178W        W 5697   7.488   3.678   3.970 -0.1165 -0.0512 -0.1435
 2179W        W 5698   2.700   2.078   1.245  0.1494 -0.1739 -0.3534
 2180W        W 5699   9.829   1.758   1.534  0.1139 -0.0376 -0.1045
 2181W        W 5700   9.111   8.530   3.691  0.2456 -0.3294  0.2399
 2182W        W 5701   6.748   9.045  11.277  0.0580  0.0855  0.1615
 2183W        W 5702   1.757   8.893   0.038 -0.0455  0.0301  0.2976
 2184W        W 5703   3.504   9.766   3.923 -0.1721  0.1165  0.0828
 2185W        W 5704   7.432   4.976   2.322 -0.2410  0.0084 -0.2187
 2186W        W 5705   2.065   1.193   3.383 -0.1134  0.0726  0.0203
 2187W        W 5706   8.556   4.698   2.871  0.0247  0.0130 -0.1916
 2188W        W 5707   2.255   7.404   2.096 -0.0905  0.0596  0.2752
 2189W        W 5708   0.894   1.124  10.971  0.5827  0.0627  0.0112
 2190W        W 5709   5.305   4.134   3.017 -0.0068  0.1548  0.1232
 2191W        W 5710   2.374   0.118   0.053  0.1668  0.4212 -0.2130
 2192W        W 5711   2.710   6.963   9.778 -0.0362  0.0261 -0.0137
 2193W        W 5712   3.410   6.374   8.404  0.1396  0.1152  0.4912
 2194W        W 5713   5.703   9.936   9.220 -0.3001 -0.0187  0.1378
 2195W        W 5714   2.478   7.854  11.237 -0.0111 -0.0890  0.0368
 2196W        W 5715   4.029   1.901   2.126  0.2331 -0.2493 -0.3521
 2197W        W 5716   4.720   8.305   0.523  0.2407 -0.1193  0.0358
 2198W        W 5717   9.253   4.831   3.080 -0.1018 -0.3224  0.2523
 2199W        W 5718   6.096   2.566   0.754 -0.3296  0.1626  0.3391
 2200W        W 5719   4.751   3.577  10.238 -0.2131 -0.0927  0.0859
 2201W        W 5720   3.133   1.780   8.638 -0.1338  0.0750 -0.0344
 2202W        W 5721   6.202   5.739   0.219 -0.1022  0.0036 -0.3408
 2203W        W 5722   3.902   1.585  11.006  0.3798 -0.0559 -0.2787
 2204W        W 5723   5.233   0.090   0.195 -0.0339 -0.0861  0.0507
 2205W        W 5724   1.686   5.407   8.894  0.0942  0.0144 -0.0445
 2206W        W 5725   7.035   8.621  10.568 -0.2573 -0.2238 -0.0382
 2207W        W 5726   3.526   6.167   2.156  0.1039  0.0657  0.1002
 2208W        W 5727   3.292   0.712   3.754 -0.0569  0.3625  0.3631
 2209W        W 5728   7.390   1.714   4.701 -0.0571  0.3459  0.3674
 2210W        W 5729   8.667   9.595   2.031 -0.0924 -0.2993  0.1836
 2211W        W 5730   4.389   5.295   0.974 -0.6671  0.0297 -0.3618
 2212W        W 5731   5.891   3.295   3.051 -0.0585  0.1568  0.2168
 2213W        W 5732   6.562   0.882   1.471 -0.1897 -0.1961 -0.1574
 2214W        W 5733   3.709   2.549   0.855 -0.1010  0.0721  0.1267
 2215W        W 5734   0.585   0.814   3.645 -0.0494  0.0803 -0.0530
 2216W        W 5735   6.065   6.667   1.879 -0.1126 -0.2347  0.1974
 2217W        W 5736   1.534   2.524   3.234  0.1169  0.3448 -0.0286
 2218W        W 5737   8.940   8.921   8.455 -0.3392 -0.0180  0.2458
 2219W        W 5738   7.308   2.795  11.477 -0.0146  0.2952  0.0967
 2220W        W 5739   3.717   7.061   1.643 -0.2658  0.1740 -0.0833
 2221W        W 5740   0.114   7.386   2.758  0.1579 -0.3712 -0.1257
 2222W        W 5741   3.702   9.371   3.161 -0.1945 -0.0641  0.1655
 2223W        W 5742   9.397   4.439   9.794  0.2624 -0.2915 -0.2672
 2224W        W 5743   4.190   9.092  10.920 -0.0815 -0.0536 -0.3281
 2225W        W 5744   8.799   9.420  11.457  0.0826  0.2678 -0.0628
 2226W        W 5745   5.565   7.796   4.068  0.1515  0.1420  0.2856
 2227W        W 5746   4.866   0.100   3.376  0.2769 -0.2333 -0.0638
 2228W        W 5747   0.660   1.022  11.412  0.0293 -0.0804 -0.0743
 2229W        W 5748   3.646   1.082  11.711 -0.0937 -0.0924  0.1444
 2230W        W 5749   6.667   3.835   0.641 -0.0530  0.0404 -0.1728
 2231W        W 5750   0.066   6.950   2.507  0.2538  0.1945 -0.1321
 2232W        W 5751   9.520   0.003  11.650 -0.0511 -0.0917 -0.0007
 2233W        W 5752   9.229   9.181   4.328  0.2378 -0.0634 -0.0000
 2234W        W 5753   8.095   7.210   3.340 -0.1330  0.0994  0.1897
 2235W        W 5754   2.156   8.132  10.897 -0.5513 -0.0763  0.0171
 2236W        W 5755   3.939   2.421   3.024 -0.0987  0.0584  0.0352
 2237W        W 5756   6.490   2.047   3.000  0.2926 -0.1609 -0.0845
 2238W        W 5757   3.398   6.887   4.664 -0.0732  0.1150 -0.0855
 2239W        W 5758   1.447   2.767  11.925  0.1086 -0.1095  0.2501
 2240W        W 5759   6.698   1.869   8.885  0.1642  0.1114  0.0783
 2241W        W 5760   9.126   9.137  11.138 -0.2343  0.2396  0.1025
 2242W        W 5761   4.772   5.331   9.069 -0.2151  0.1031  0.1589
 2243W        W 5762   6.769   0.870   4.100  0.1033 -0.0113  0.1286
 2244W        W 5763   5.523   0.845  11.537 -0.1847  0.0151 -0.0038
 2245W        W 5764   1.799   7.394  10.811 -0.0417  0.2149 -0.0839
 2246W        W 5765   2.634   5.690   1.632 -0.3426  0.0809  0.1218
 2247W        W 5766   9.526   2.624  10.549 -0.0881 -0.2231  0.1434
 2248W        W 5767   9.451   6.527  11.927  0.3125  0.0283 -0.4602
 2249W        W 5768   4.092   0.978   9.802 -0.3292 -0.0678 -0.2216
 2250W        W 5769   5.515   1.281   0.668  0.1466  0.1104 -0.1783
 2251W        W 5770   5.103   2.705   9.725  0.0263  0.1739  0.6087
 2252W        W 5771   7.874   2.644   3.501  0.1663  0.1565 -0.2150
 2253W        W 5772   5.556   1.292   9.784  0.0401 -0.1118  0.0253
 2254W        W 5773   0.011   1.202   3.446 -0.2116 -0.0143  0.0946
 2255W        W 5774   0.607   7.321   2.780 -0.1843  0.1507 -0.1688
 2256W        W 5775   1.589   0.234   8.529  0.1432  0.2135  0.3146
 2257W        W 5776   0.587   9.432   0.491 -0.0041  0.0215 -0.2750
 2258W        W 5777   4.109   0.474   9.117  0.0859 -0.0096  0.0178
 2259W        W 5778   3.581   4.214   2.528  0.3558  0.0242 -0.0520
 2260W        W 5779   5.431   4.024   2.418  0.2549  0.2752 -0.2895
 2261W        W 5780   7.549   5.448   4.215 -0.2498 -0.2493  0.2806
 2262W        W 5781   2.193   2.653  10.139  0.0694 -0.0495  0.0422
 2263W        W 5782   9.033   5.252   0.636  0.0137  0.1022 -0.3024
 2264W        W 5783   6.932   0.451   2.282  0.1083  0.0964  0.1723
 2265W        W 5784   4.263   8.902  10.454 -0.1761  0.3230  0.0561
 2266W        W 5785   8.741   4.988   0.954  0.0221 -0.1755  0.2989
 2267W        W 5786   7.037   1.780   9.768 -0.2091 -0.0714  0.2562
 2268W        W 5787   5.257   6.428   0.389 -0.0952  0.0100 -0.0188
 2269W        W 5788   2.460   3.814  10.742 -0.1698 -0.0532 -0.0330
 2270W        W 5789   4.061   0.182   0.883  0.1347  0.1392 -0.2129
 2271W        W 5790   8.011   3.690   4.108 -0.1380 -0.1180  0.1608
 2272W        W 5791   0.292   5.556  11.353 -0.0024  0.0118  0.0399
 2273W        W 5792   6.732   5.423   8.603 -0.0879 -0.0685  0.0307
 2274W        W 5793   6.961   2.331  11.377 -0.1269  0.0178  0.0893
 2275W        W 5794   6.112   9.017   3.494 -0.0776  0.1592  0.0192
 2276W        W 5795   7.629   2.800   1.725 -0.1532  0.2682  0.0162
 2277W        W 5796   3.714   4.133   8.504  0.2613 -0.1112 -0.1654
 2278W        W 5797   0.639   4.472   2.574  0.0778  0.2604  0.1567
 2279W        W 5798   6.323   4.406   3.612 -0.0381  0.2359  0.0532
 2280W        W 5799   0.529   7.055   2.384 -0.0986 -0.1843  0.0017
 2281W        W 5800   8.649   6.949   0.556  0.0333 -0.1345  0.4447
 2282W        W 5801   6.083   3.364   8.577  0.0457 -0.1570 -0.3266
 2283W        W 5802   2.181   0.834  11.400  0.0938  0.0070  0.3895
 2284W        W 5803   3.013   3.931   0.991 -0.1641  0.1176 -0.0249
 2285W        W 5804   9.725   3.122   0.527  0.2284  0.0099  0.3141
 2286W        W 5805   1.589   7.687   3.280  0.0059  0.1724  0.1648
 2287W        W 5806   6.123   6.191  11.042  0.2455 -0.2257 -0.2944
 2288W        W 5807   7.954   3.230  11.628 -0.0693  0.1115  0.4753
 2289W        W 5808   0.759   3.285   0.143 -0.3406 -0.3300 -0.0586
 2290W        W 5809   6.944   7.777   0.902  0.1567 -0.2019  0.0141
 2291W        W 5810   2.161   2.507  10.617 -0.1631 -0.0724  0.0301
 2292W        W 5811   1.969   0.453  11.951 -0.0982  0.0486 -0.0591
 2293W        W 5812   8.051   9.417  10.960 -0.1262 -0.0705  0.0324
 2294W        W 5813   4.174   6.645   4.175  0.1664  0.0753 -0.2319
 2295W        W 5814   1.367   1.270   4.431  0.0634  0.0987 -0.0181
 2296W        W 5815   4.763   6.497   1.742 -0.0542  0.2370  0.1874
 2297W        W 5816   9.328   0.060  11.138  0.0266 -0.0576  0.1297
 2298W        W 5817   3.468   7.626  10.066 -0.2463  0.0094  0.4029
 2299W        W 5818   6.021   2.932   3.354  0.4053  0.2017 -0.1125
 2300W        W 5819   1.618   3.379   6.649  0.0809 -0.0251 -0.1152
 2301W        W 5820   8.964   4.938   8.547 -0.4004  0.1647 -0.1207
 2302W        W 5821   6.657   8.916   8.806  0.1914 -0.2610  0.3067
 2303W        W 5822   6.236   0.570   9.250  0.2467 -0.1633 -0.0472
 2304W        W 5823   1.031   9.010  11.344 -0.2473  0.1460 -0.1885
 2305W        W 5824   6.910   0.201   4.762 -0.2980  0.3388 -0.0412
 2306W        W 5825   0.226   3.303  10.680  0.1327  0.0878  0.2704
 2307W        W 5826   2.848   8.106   2.672 -0.0933  0.1455  0.2399
 2308W        W 5827   3.864   5.407   9.101  0.4234 -0.1410  0.0693
 2309W        W 5828   3.272   9.140   1.673  0.0456  0.1158 -0.1159
 2310W        W 5829   5.295   2.609   9.242  0.2803 -0.1562  0.1633
 2311W        W 5830   8.196   4.146   3.969  0.0053  0.1013  0.3374
 2312W        W 5831   7.047   7.778  11.387 -0.1971  0.1078  0.0597
 2313W        W 5832   2.172   4.992  11.378  0.1893  0.0754 -0.1654
 2314W        W 5833   6.907   1.115  11.807 -0.5023 -0.2786  0.0153
 2315W        W 5834   3.335   5.620   4.065  0.0558 -0.0868 -0.1397
 2316W        W 5835   6.931   4.244  11.351  0.0303 -0.2653  0.0533
 2317W        W 5836   9.562   2.083  11.643 -0.0955  0.3497 -0.0064
 2318W        W 5837   8.121   8.614   4.365 -0.0380  0.0765 -0.0345
 2319W        W 5838   9.122   5.278   9.416  0.0092  0.0289  0.2679
 2320W        W 5839   0.318   6.351  11.444 -0.0118  0.0213 -0.1864
 2321W        W 5840   3.672   9.074   0.572  0.0531 -0.3308  0.1992
 2322W        W 5841   2.981   7.154  11.532 -0.1173 -0.0203  0.1329
 2323W        W 5842   2.923   1.838   0.487 -0.0331 -0.3879  0.1444
 2324W        W 5843   0.985   1.091   9.360  0.0113  0.0112 -0.0297
 2325W        W 5844   3.444   4.690   1.036 -0.0929  0.0672 -0.0370
 2326W        W 5845   7.745   8.922   4.300 -0.1590  0.2913 -0.0684
 2327W        W 5846   4.351   8.014  10.899 -0.1709  0.0781 -0.1822
 2328W        W 5847   9.335   9.855   0.646  0.2813  0.0577 -0.1220
 2329W        W 5848   8.682   8.439   3.485  0.0695  0.2027 -0.0859
 2330W        W 5849   8.527   2.641   0.167 -0.2917  0.1087  0.4744
 2331W        W 5850   5.063   8.459   0.880  0.3535 -0.1137  0.1363
 2332W        W 5851   7.808   3.032  10.246  0.0391 -0.2022 -0.1308
 2333W        W 5852   6.578   0.072   8.744  0.3373  0.1343  0.1455
 2334W        W 5853   4.364   2.667   8.914 -0.0013 -0.1108  0.0648
 2335W        W 5854   7.089   7.796   1.900 -0.1403 -0.0895  0.0136
 2336W        W 5855   1.312   0.209  10.159  0.2365  0.0599  0.1818
 2337W        W 5856   4.519   6.189   8.353  0.1566  0.1812  0.2821
 2338W        W 5857   0.284   2.874   9.580  0.0453  0.1107 -0.1159
 2339W        W 5858   4.654   4.653   0.538  0.2937  0.0346  0.1323
 2340W        W 5859   1.964   5.476   2.466  0.2293 -0.1781 -0.3656
 2341W        W 5860   8.388   8.543  11.182  0.1102 -0.3681  0.2305
 2342W        W 5861   3.946   4.690   3.798 -0.1893 -0.0554 -0.1054
 2343W        W 5862   8.937   2.029   3.727 -0.1405 -0.3591 -0.1991
 2344W        W 5863   7.169   0.463   1.723 -0.1140 -0.3034 -0.0111
 2345W        W 5864   5.814   4.869  10.314 -0.0032 -0.1722  0.3151
 2346W        W 5865   7.939   6.235   4.396  0.3171  0.0014 -0.2337
 2347W        W 5866   6.504   3.627   8.608 -0.0742 -0.0260 -0.0819
 2348W        W 5867   3.143   4.056   2.379 -0.2357  0.0615  0.1561
 2349W        W 5868   2.982   9.656   9.430  0.1396  0.0455  0.3127
 2350W        W 5869   1.119   0.697   8.914  0.3831 -0.0911  0.1246
 2351W        W 5870   8.155   0.176   1.572  0.2716  0.1833 -0.2546
 2352W        W 5871   8.115   6.973   9.134 -0.0463 -0.2015  0.0113
 2353W        W 5872   5.836   4.772  11.822  0.1398  0.0124  0.4825
 2354W        W 5873   0.969   4.161   0.062 -0.0743  0.1688 -0.2968
 2355W        W 5874   3.629   6.740   9.892 -0.2290 -0.0274 -0.2003
 2356W        W 5875   0.593   0.916   0.330 -0.0826 -0.4072 -0.1136
 2357W        W 5876   9.007   8.745   2.625  0.0155 -0.1783  0.2193
 2358W        W 5877   0.870   2.148   3.668  0.1680 -0.2692 -0.0999
 2359W        W 5878   4.812   2.003   1.493  0.1374 -0.3183 -0.2327
 2360W        W 5879   4.563   2.131   1.031 -0.1533 -0.1080 -0.2241
 2361W        W 5880   5.625   4.401   9.942  0.3402 -0.3383 -0.3771
 2362W        W 5881   3.882   1.450   9.371  0.3997 -0.0324 -0.1925
 2363W        W 5882   6.382   4.249  10.679  0.0251 -0.1686 -0.1489
 2364W        W 5883   9.342   8.179  10.293 -0.1632  0.1470 -0.2435
 2365W        W 5884   0.053   8.396   2.096 -0.2552  0.0428  0.0957
 2366W        W 5885   2.740   0.779  10.056 -0.3270  0.0742  0.0270
 2367W        W 5886   3.095   9.391   3.270  0.2810 -0.2278  0.1515
 2368W        W 5887   8.445   9.363   0.673  0.0728  0.0574 -0.1249
 2369W        W 5888   4.523   3.966   2.392  0.3005 -0.1494 -0.1648
 2370W        W 5889   4.549   6.790   1.351 -0.1579  0.1089 -0.2474
 2371W        W 5890   7.435   5.500  10.799  0.1873 -0.1982 -0.4538
 2372W        W 5891   4.811   1.952   2.618 -0.1891  0.1267  0.1988
 2373W        W 5892   6.882   4.348   8.694 -0.2562 -0.3981  0.0555
 2374W        W 5893   7.482   1.514   5.251  0.2337  0.0695  0.1207
 2375W        W 5894   5.256   1.679   9.643 -0.1276 -0.0314 -0.0996
 2376W        W 5895   1.600   8.853   9.695  0.0819  0.1095 -0.3007
 2377W        W 5896   9.218   5.007   1.270  0.1486  0.2419 -0.0838
 2378W        W 5897   3.497   2.135   0.225 -0.2000 -0.0978 -0.1645
 2379W        W 5898   5.311   8.859   9.948 -0.1021 -0.0207 -0.0476
 2380W        W 5899   4.872   8.088   3.711  0.1027 -0.3780 -0.3332
 2381W        W 5900   9.286   1.902   3.423  0.2047  0.0965  0.3086
 2382W        W 5901   1.233   6.364   4.494  0.1572  0.0356  0.1773
 2383W        W 5902   6.654   5.233  11.223  0.1269  0.2390  0.2416
 2384W        W 5903   3.950   6.684   2.840 -0.0128 -0.0305  0.1810
 2385W        W 5904   8.847   8.715  11.439  0.1224  0.0733 -0.0886
 2386W        W 5905   6.639   6.143  10.908 -0.0587  0.1379  0.0288
 2387W        W 5906   0.932   5.284   0.948 -0.0785  0.0715  0.0589
 2388W        W 5907   6.081   0.963  11.179 -0.1742 -0.3208 -0.3133
 2389W        W 5908   0.799   1.460   2.991 -0.1167 -0.1065 -0.1954
 2390W        W 5909   1.556   6.928   3.811  0.2882 -0.2503 -0.0131
 2391W        W 5910   8.396   0.481  11.038 -0.1238 -0.2654 -0.4290
 2392W        W 5911   4.582   0.815   4.378 -0.0712  0.2093 -0.1242
 2393W        W 5912   7.377   0.980   0.043  0.5200  0.0949  0.2082
 2394W        W 5913   7.629   5.633   8.359 -0.1768 -0.0983 -0.0693
 2395W        W 5914   2.139   1.302  11.618  0.0367 -0.3157  0.3166
 2396W        W 5915   5.472   5.394   2.214 -0.1515 -0.3688 -0.2297
 2397W        W 5916   7.897   5.097   4.033 -0.2435  0.4421 -0.0152
 2398W        W 5917   1.709   1.925   3.042  0.0403  0.1001 -0.0462
 2399W        W 5918   5.506   5.603   8.606  0.5915  0.0269 -0.0332
 2400W        W 5919   1.606   4.058   9.048  0.1666 -0.0244 -0.0568
 2401W        W 5920   4.222   7.222   1.644  0.2436  0.3387  0.1238
 2402W        W 5921   0.800   0.919   8.569  0.0720 -0.0379 -0.1471
 2403W        W 5922   7.795   0.264   4.007 -0.1309 -0.0208  0.1635
 2404W        W 5923   2.708   4.567   5.401 -0.1433 -0.1018 -0.0848
 2405W        W 5924   1.845   7.812   2.375 -0.0923  0.0561 -0.4317
 2406W        W 5925   5.152   7.234   1.793 -0.0346 -0.1490 -0.1629
 2407W        W 5926   0.203   0.129   1.260 -0.0588  0.0087 -0.2837
 2408W        W 5927   0.007   8.866   9.356 -0.0793  0.1901 -0.3344
 2409W        W 5928   7.504   1.623  11.190 -0.3255  0.0849 -0.1236
 2410W        W 5929   8.497   4.836   3.374 -0.1903 -0.0790  0.1338
 2411W        W 5930   2.875   0.751   2.988 -0.0215 -0.1269  0.1795
 2412W        W 5931   4.111   7.343   9.447  0.2193  0.0538 -0.0844
 2413W        W 5932   8.027   8.580   2.629 -0.0270  0.1287 -0.0253
 2414W        W 5933   9.215   7.806  11.943  0.2469 -0.2440  0.1280
 2415W        W 5934   5.230   6.900   4.221 -0.1541 -0.1728 -0.0592
 2416W        W 5935   0.629   2.155   0.928  0.1175  0.2939  0.3601
 2417W        W 5936   1.736   0.854   5.169 -0.0065 -0.1918  0.1292
 2418W        W 5937   0.257   4.115  11.277  0.4745  0.0234 -0.2499
 2419W        W 5938   0.276   2.165   2.341  0.1224  0.0831  0.1605
 2420W        W 5939   6.662   8.926  11.746  0.1492  0.1016  0.2504
 2421W        W 5940   7.870   4.589   4.077  0.1172 -0.1331 -0.3010
 2422W        W 5941   9.462   1.998   1.227 -0.2479  0.2807 -0.1169
 2423W        W 5942   0.726   9.560   9.349 -0.0853  0.1721  0.1146
 2424W        W 5943   6.881   4.798   0.529  0.1166  0.1609 -0.2925
 2425W        W 5944   6.411   2.051   1.789 -0.0410 -0.4735 -0.0672
 2426W        W 5945   3.120   2.054  10.661  0.1396  0.1308  0.1543
 2427W        W 5946   4.136   5.075  11.432  0.0942  0.0666  0.2173
 2428W        W 5947   1.679   4.028   2.425  0.1428 -0.0609  0.0728
 2429W        W 5948   9.119   9.072   9.691 -0.0589  0.1246  0.0861
 2430W        W 5949   5.622   0.809  11.021  0.2012  0.0025 -0.1613
 2431W        W 5950   3.364   5.545   0.044  0.0145 -0.1048 -0.3642
 2432W        W 5951   1.762   0.570  11.474 -0.0647 -0.1870  0.0605
 2433W        W 5952   3.622   0.178   9.082  0.0081  0.2036 -0.0034
 2434W        W 5953   2.618   6.722   2.723 -0.2043 -0.2774 -0.1741
 2435W        W 5954   9.069   6.626   0.351  0.4309 -0.1629 -0.2254
 2436W        W 5955   7.560   8.635  11.263  0.0000  0.0034 -0.0450
 2437W        W 5956   9.847   2.019   2.632  0.0437 -0.1606  0.0108
 2438W        W 5957   8.840   8.155   4.240 -0.0302 -0.1976 -0.2283
 2439W        W 5958   0.010   3.182   2.102  0.0382  0.1895 -0.1354
 2440W        W 5959   1.478   3.180  11.526  0.0821  0.2240  0.3413
 2441W        W 5960   7.461   2.251   3.677 -0.1274 -0.0872 -0.0181
 2442W        W 5961   8.407   4.444   9.600  0.0995 -0.2502 -0.0434
 2443W        W 5962   4.256   9.327   0.033  0.3809  0.0567 -0.3645
 2444W        W 5963   3.489   4.163   3.352 -0.1197  0.0206  0.4360
 2445W        W 5964   1.567   5.111   8.360 -0.0485 -0.3136 -0.0892
 2446W        W 5965   6.804   6.721   1.029  0.3892 -0.0452  0.0911
 2447W        W 5966   5.037   2.217   2.276  0.2697  0.2028  0.0079
 2448W        W 5967   0.665   4.956   0.664  0.1272  0.0795 -0.4866
 2449W        W 5968   5.023   5.685   1.070  0.0280  0.0689  0.0108
 2450W        W 5969   0.766   2.096   4.134  0.0242 -0.1242 -0.2546
 2451W        W 5970   8.699   4.909   9.724  0.0936  0.1497  0.0474
 2452W        W 5971   3.759   9.582   0.898 -0.0739  0.2395  0.0522
 2453W        W 5972   7.200   0.754   3.792 -0.0034 -0.0787 -0.0577
 2454W        W 5973   8.390   3.052   2.885  0.1195 -0.0962  0.0763
 2455W        W 5974   4.231   5.197  10.879  0.0423  0.1108  0.1132
 2456W        W 5975   6.781   1.393   4.049  0.0413 -0.1460 -0.1899
 2457W        W 5976   6.940   8.524   4.109  0.0313  0.0807  0.0319
 2458W        W 5977   4.908   3.901   1.900 -0.0078  0.0693  0.0912
 2459W        W 5978   1.530   9.306  11.212  0.1888  0.0862 -0.2269
 2460W        W 5979   7.616   4.891   4.425  0.0469  0.2123  0.1269
 2461W        W 5980   2.698   0.696   9.193  0.0332 -0.1946  0.3009
 2462W        W 5981   8.843   3.017  11.695 -0.2350 -0.2528 -0.2225
 2463W        W 5982   6.905   2.167   8.525 -0.0362 -0.0314  0.1605
 2464W        W 5983   1.994   6.470   9.740  0.0295 -0.3711  0.1330
 2465W        W 5984   2.252   2.420   0.060  0.1048  0.4703  0.0644
 2466W        W 5985   3.127   7.583   2.553 -0.0601 -0.3206 -0.4764
 2467W        W 5986   7.625   7.554   0.185 -0.0608 -0.2106 -0.0530
 2468W        W 5987   3.689   8.307   4.110 -0.2564 -0.0936  0.1358
 2469W        W 5988   9.268   0.638   4.030 -0.1065 -0.2299  0.0433
 2470W        W 5989   0.493   4.625  11.586 -0.4189 -0.6369 -0.2981
 2471W        W 5990   5.868   2.352   2.034  0.3162 -0.0636 -0.0217
 2472W        W 5991   8.145   3.013   0.544  0.0184  0.0434 -0.0302
 2473W        W 5992   0.204   0.440   4.104  0.0351  0.3039  0.2545
 2474W        W 5993   9.056   6.486   3.489 -0.0610  0.4126 -0.0373
 2475W        W 5994   7.190   7.291   3.735  0.1864  0.0606  0.1720
 2476W        W 5995   0.243   9.914   3.255 -0.2622 -0.1569  0.3641
 2477W        W 5996   7.955   6.453  10.267 -0.0072  0.1176  0.0224
 2478W        W 5997   3.086   0.238   9.868  0.2114  0.1074  0.1658
 2479W        W 5998   0.613   6.423   2.674 -0.1518 -0.1981 -0.1459
 2480W        W 5999   8.364   7.581   2.451  0.1298  0.1774 -0.1064
 2481W        W 6000   4.113   8.074   3.120  0.1551 -0.2504 -0.1188
 2482W        W 6001   6.849   2.960   0.445 -0.0832 -0.2926  0.0224
 2483W        W 6002   1.217   3.835   8.693 -0.1497 -0.0137  0.2400
 2484W        W 6003   9.219   6.815   3.927 -0.3200  0.0019  0.4320
 2485W        W 6004   0.080   0.643   9.240  0.3973 -0.4458  0.0926
 2486W        W 6005   0.638   6.014   0.306 -0.0108 -0.1618  0.1794
 2487W        W 6006   6.765   2.098  11.750 -0.0564  0.3201  0.1520
 2488W        W 6007   4.425   1.222   0.870  0.2765  0.0101  0.0725
 2489W        W 6008   0.889   9.163   2.097 -0.2021  0.1961 -0.2544
 2490W        W 6009   6.149   3.431   8.116  0.0625  0.3396  0.0739
 2491W        W 6010   2.506   5.510   3.228 -0.0614 -0.2787 -0.1542
 2492W        W 6011   6.220   6.864   3.789 -0.4133  0.2571 -0.1242
 2493W        W 6012   5.634   2.617  10.611 -0.2004 -0.0678  0.0535
 2494W        W 6013   7.471   3.058   2.688 -0.1324  0.0347  0.3323
 2495W        W 6014   3.242   9.122  11.419 -0.0646  0.1169  0.1925
 2496W        W 6015   2.512   8.370  11.307  0.1342  0.1587 -0.0614
 2497W        W 6016   7.016   1.971   5.179 -0.1344  0.0496 -0.1044
 2498W        W 6017   7.395   8.889   3.207  0.3243 -0.0676 -0.3853
 2499W        W 6018   7.887   9.184   9.025  0.1221 -0.0495  0.2096
 2500W        W 6019   7.965   3.367   4.547  0.0906  0.0889  0.0508
 2501W        W 6020   9.418   5.693  11.072 -0.1445 -0.1414 -0.3161
 2502W        W 6021   2.202   5.889   1.719  0.1317  0.0018  0.1019
 2503W        W 6022   2.288   9.418   1.290 -0.2137  0.0298  0.1026
 2504W        W 6023   9.726   8.944  11.737  0.0713 -0.1327  0.1762
 2505W        W 6024   3.949   8.269  11.275 -0.1845  0.0360  0.2627
 2506W        W 6025   2.354   7.121   0.798  0.2025 -0.2284  0.1769
 2507W        W 6026   3.746   6.510   1.465  0.2578 -0.0375  0.0271
 2508W        W 6027   0.044   1.938   8.383 -0.0566  0.0662 -0.2461
 2509W        W 6028   6.546   5.001  10.575 -0.2004 -0.1800 -0.0514
 2510W        W 6029   0.775   4.965  10.669 -0.2059  0.0209 -0.1517
 2511W        W 6030   4.474   0.408  10.871 -0.1978  0.1726  0.0864
 2512W        W 6031   2.089   6.274  10.713 -0.0267 -0.2124  0.2003
 2513W        W 6032   5.446   2.198   0.804  0.1113 -0.0185  0.0061
 2514W        W 6033   4.012   1.852   1.583 -0.1793  0.3520 -0.1876
 2515W        W 6034   1.404   8.649  10.104 -0.1389  0.1123  0.0471
 2516W        W 6035   9.462   4.462   3.318 -0.1900 -0.1673 -0.2495
 2517W        W 6036   8.030   4.013   0.597  0.0302 -0.1474  0.3343
 2518W        W 6037   5.353   4.172   1.907  0.2003  0.0402  0.1295
 2519W        W 6038   2.049   3.973  10.520  0.3041  0.0113  0.4337
 2520W        W 6039   1.944   2.168   9.266 -0.2119  0.2031 -0.0898
 2521W        W 6040   8.849   7.535   2.917 -0.2417  0.0711  0.3379
 2522W        W 6041   6.476   4.234  11.152  0.1728 -0.2533  0.0251
 2523W        W 6042   0.084   9.022   1.438 -0.0219  0.0559  0.2534
 2524W        W 6043   6.080   8.326  11.395  0.4315  0.0355 -0.0020
 2525W        W 6044   1.720   1.436   3.152  0.3450  0.0165 -0.2168
 2526W        W 6045   9.683   1.615  10.703 -0.2202 -0.2628  0.0656
 2527W        W 6046   5.280   9.414  11.252  0.0438 -0.0532 -0.0773
 2528W        W 6047   1.532   9.167   0.575 -0.1014 -0.0285 -0.1437
 2529W        W 6048   9.919   4.151   0.408 -0.2860 -0.1827  0.0155
 2530W        W 6049   8.793   8.859   3.314 -0.1292  0.0306  0.1363
 2531W        W 6050   9.207   0.113   1.828 -0.2293 -0.1697  0.1373
 2532W        W 6051   7.259   1.888   2.052 -0.0648  0.0344 -0.2236
 2533W        W 6052   9.209   0.435   1.439  0.1567 -0.2347 -0.3504
 2534W        W 6053   5.851   7.399   0.982 -0.0225  0.2968  0.4280
 2535W        W 6054   9.356   7.301  10.054  0.1269 -0.1792  0.0153
 2536W        W 6055   4.107   4.012   3.899  0.0423  0.1347  0.0267
 2537W        W 6056   0.894   7.031  10.549  0.1640 -0.1795  0.1468
 2538W        W 6057   4.112   9.627  11.126 -0.0627  0.2753 -0.0669
 2539W        W 6058   3.015   3.964   1.596  0.0549 -0.3977 -0.1432
 2540W        W 6059   5.140   1.722   3.970 -0.2343  0.1801  0.0504
 2541W        W 6060   3.320   5.224   0.919  0.3002 -0.2198 -0.0258
 2542W        W 6061   5.174   3.058   0.099  0.1294 -0.1301 -0.1184
 2543W        W 6062   4.582   2.449   9.743 -0.1653 -0.3753 -0.2285
 2544W        W 6063   2.053   7.769   3.742 -0.0409  0.0798  0.3126
 2545W        W 6064   7.802   9.060   3.574  0.0404 -0.1802 -0.3557
 2546W        W 6065   7.532   1.691   3.536  0.0851  0.1653 -0.2955
 2547W        W 6066   4.167   6.933  10.836 -0.0321  0.0705  0.2487
 2548W        W 6067   9.146   9.168   1.418 -0.2380  0.1052  0.0068
 2549W        W 6068   2.860   0.937   0.119 -0.2041 -0.2182 -0.0253
 2550W        W 6069   0.933   9.229   4.412  0.3950 -0.0419 -0.3449
 2551W        W 6070   8.463   7.907   1.590  0.0287  0.1267 -0.2642
 2552W        W 6071   0.292   3.595  11.024  0.0277  0.3487  0.0516
 2553W        W 6072   6.128   4.200   9.260  0.1273 -0.1568  0.3126
 2554W        W 6073   5.513   7.161   1.310  0.0365 -0.0139 -0.0026
 2555W        W 6074   1.681   5.346  11.723  0.1251 -0.0229 -0.0022
 2556W        W 6075   7.598   1.667   8.582 -0.1084  0.2803  0.2923
 2557W        W 6076   2.662   4.391   2.765 -0.3006 -0.3702 -0.3328
 2558W        W 6077   9.340   3.373  10.169  0.1063  0.0741  0.0582
 2559W        W 6078   2.498   0.125   3.564  0.1493  0.3563 -0.0615
 2560W        W 6079   9.112   1.493   9.817 -0.0081 -0.0803 -0.2764
 2561W        W 6080   5.755   2.840   2.939 -0.1984  0.1829  0.1331
 2562W        W 6081   1.581   8.336  11.598  0.2002  0.1026 -0.1021
 2563W        W 6082   2.629   9.860   4.019 -0.2428 -0.0758  0.3780
 2564W        W 6083   1.964   3.140  11.472 -0.1022 -0.0356  0.0378
 2565W        W 6084   5.201   3.303   1.593  0.1221  0.0947  0.1787
 2566W        W 6085   1.341   0.099   2.891  0.1523 -0.1048 -0.0870
 2567W        W 6086   2.181   8.120  11.523  0.0319 -0.1882 -0.5509
 2568W        W 6087   1.557   9.045   3.779 -0.0208  0.2262 -0.0718
 2569W        W 6088   2.853   6.892   3.587 -0.0612  0.1846 -0.0553
 2570W        W 6089   7.659   1.516   0.666  0.2106 -0.0362  0.0014
 2571W        W 6090   5.750   3.885   1.707 -0.0669 -0.0899 -0.2140
 2572W        W 6091   2.202   2.904  11.938 -0.0693  0.3377 -0.1437
 2573W        W 6092   5.789   8.152  10.447 -0.1596 -0.2581 -0.3678
 2574W        W 6093   8.373   0.584   1.896 -0.0637 -0.3475  0.1705
 2575W        W 6094   1.933   7.746   2.864 -0.2005  0.1960  0.0595
 2576W        W 6095   4.902   5.432   3.934  0.1237  0.0042 -0.2012
 2577W        W 6096   9.849   0.076  10.188 -0.0420 -0.3831 -0.0479
 2578W        W 6097   8.536   5.427   0.778 -0.0944  0.2454 -0.1501
 2579W        W 6098   2.675   6.138   1.967  0.2627  0.3169 -0.0939
 2580W        W 6099   6.613   2.732   1.429  0.1708  0.0583  0.2813
 2581W        W 6100   1.891   3.491   2.079 -0.5073 -0.0958  0.1493
 2582W        W 6101   8.469   7.330  10.325  0.2323  0.0189  0.1778
 2583W        W 6102   5.647   8.089   5.334  0.2387 -0.0499  0.1829
 2584W        W 6103   1.974   9.873   1.317  0.0337 -0.2244  0.2013
 2585W        W 6104   8.940   1.539   8.282 -0.0292 -0.0411  0.0012
 2586W        W 6105   9.775   4.598   0.854  0.0285  0.0401 -0.0229
 2587W        W 6106   1.996   1.816   9.614  0.0386 -0.3537  0.0100
 2588W        W 6107   8.756   6.611   8.277  0.0248 -0.1436  0.4434
 2589W        W 6108   8.423   0.300   3.842 -0.1885 -0.1414 -0.0704
 2590W        W 6109   7.511   2.950   3.176 -0.0663 -0.3420  0.1270
 2591W        W 6110   2.600   5.264  10.001 -0.0619 -0.2134 -0.0981
 2592W        W 6111   9.639   0.839  10.430 -0.1489  0.0215  0.0005
 2593W        W 6112   8.363   6.176   9.225 -0.4582  0.0225  0.0561
 2594W        W 6113   0.114   6.026   9.166  0.0878 -0.1061 -0.2110
 2595W        W 6114   7.933   4.856   2.146  0.1575 -0.2303 -0.0582
 2596W        W 6115   5.451   3.091   9.739 -0.1266  0.0011 -0.1909
 2597W        W 6116   4.236   1.250   1.731  0.3023  0.1210 -0.1216
 2598W        W 6117   2.066   0.127  11.586  0.0573  0.4882 -0.2606
 2599W        W 6118   4.507   8.360  10.551 -0.1651 -0.0032  0.1426
 2600W        W 6119   5.832   8.073   2.523  0.0589 -0.2619  0.4194
 2601W        W 6120   6.326   0.010   1.869 -0.4282 -0.4413 -0.2837
 2602W        W 6121   8.162   2.571  11.081  0.3266 -0.0163  0.0310
 2603W        W 6122   1.894   9.261  10.908  0.0357 -0.3067  0.0568
 2604W        W 6123   3.246   9.371  10.960  0.7682 -0.0135  0.0749
 2605W        W 6124   1.287   1.002   3.063 -0.1004 -0.0743  0.0159
 2606W        W 6125   9.613   7.884   4.525  0.1156 -0.0396 -0.1629
 2607W        W 6126   6.542   3.541   9.176  0.0341 -0.2261 -0.3464
 2608W        W 6127   9.912   0.580   1.049  0.2020 -0.0751 -0.3518
 2609W        W 6128   3.973   0.900   9.324 -0.0507 -0.3435 -0.0232
 2610W        W 6129   8.940   0.034   0.163  0.4785  0.1677 -0.0366
 2611W        W 6130   1.824   4.197   8.202  0.3664  0.0101 -0.0619
 2612W        W 6131   9.903   4.716   3.154  0.0403  0.1478  0.2011
 2613W        W 6132   4.922   8.733  11.212  0.1696  0.2146  0.3407
 2614W        W 6133   7.217   4.635   9.344 -0.2453 -0.0792 -0.1235
 2615W        W 6134   3.663   1.111   0.565  0.1913 -0.1661 -0.3756
 2616W        W 6135   0.101   0.501  10.987  0.1786 -0.2165 -0.0269
 2617W        W 6136   1.137   2.494   2.198 -0.1289  0.1654  0.2243
 2618W        W 6137   4.224   3.886   9.948  0.0332 -0.2470  0.0177
 2619W        W 6138   9.033   1.013   2.363 -0.0889 -0.0991 -0.3017
 2620W        W 6139   8.386   2.641   0.965  0.0091  0.1252  0.3566
 2621W        W 6140   1.348   5.014   9.623 -0.1185  0.0845  0.0991
 2622W        W 6141   0.404   0.336   9.001  0.1798 -0.0156  0.0816
 2623W        W 6142   3.573   4.428   8.998 -0.3850  0.1062 -0.1288
 2624W        W 6143   2.964   0.067   0.211 -0.4933  0.0154  0.2533
 2625W        W 6144   4.667   7.794   0.378 -0.4545  0.0881  0.1680
 2626W        W 6145   9.134   5.843  10.273 -0.0520 -0.4493  0.0954
 2627W        W 6146   7.456   6.595   8.358  0.1283  0.1727 -0.2403
 2628W        W 6147   6.092   9.299   5.110 -0.0528 -0.1594 -0.0418
 2629W        W 6148   9.561   5.012   3.426 -0.1537 -0.0317  0.1344
 2630W        W 6149   5.081   8.110   1.355 -0.2585  0.0144 -0.5573
 2631W        W 6150   8.500   4.162   8.338 -0.0274  0.1631 -0.0523
 2632W        W 6151   2.159   7.966   5.087  0.0692  0.0321  0.0253
 2633W        W 6152   8.910   4.340   4.084 -0.0031  0.0081  0.1687
 2634W        W 6153   9.190   1.806  10.759 -0.0959 -0.2961 -0.1080
 2635W        W 6154   8.418   6.266   9.955 -0.2592 -0.1529 -0.1594
 2636W        W 6155   0.053   8.633   4.132  0.0575  0.0747  0.1505
 2637W        W 6156   8.757   2.435   0.643 -0.2049  0.3194 -0.0061
 2638W        W 6157   9.400   2.034   2.943  0.0777  0.0019 -0.0676
 2639W        W 6158   4.691   7.332   1.566 -0.1905 -0.1549 -0.1191
 2640W        W 6159   3.132   6.944   9.444  0.1561 -0.0564  0.0657
 2641W        W 6160   1.564   1.074   1.397 -0.0329  0.0398 -0.2212
 2642W        W 6161   1.271   8.307   9.188 -0.0293 -0.1885 -0.2901
 2643W        W 6162   8.869   3.509   3.566  0.1437  0.4167  0.3679
 2644W        W 6163   6.418   8.337  10.949 -0.0995  0.0265 -0.0452
 2645W        W 6164   4.205   3.731   2.729  0.1763 -0.2376  0.1287
 2646W        W 6165   0.353   2.457  10.521  0.1188  0.3314  0.1091
 2647W        W 6166   2.802   9.683  10.842 -0.0161  0.1150 -0.1394
 2648W        W 6167   6.113   7.270   2.457 -0.2208 -0.2034 -0.0226
 2649W        W 6168   4.444   1.288   4.560 -0.3660 -0.1768  0.0995
 2650W        W 6169   4.681   3.738   3.087 -0.0413 -0.1504 -0.3353
 2651W        W 6170   2.117   6.017   2.484 -0.0665 -0.1826 -0.0497
 2652W        W 6171   9.233   4.922   0.193  0.0126 -0.0287 -0.1649
 2653W        W 6172   8.339   1.788   3.242  0.2100 -0.2413  0.0102
 2654W        W 6173   6.375   1.236   3.866 -0.0054  0.6002 -0.0240
 2655W        W 6174   9.243   1.623   3.821 -0.0579 -0.1174  0.2032
 2656W        W 6175   1.446   7.531   2.756  0.0221  0.2147 -0.1504
 2657W        W 6176   3.790   4.245  10.119  0.2483  0.0385  0.0115
 2658W        W 6177   3.720   2.897   1.873 -0.0480 -0.1275 -0.0195
 2659W        W 6178   8.802   4.724   1.367  0.1896  0.0957  0.2424
 2660W        W 6179   0.946   6.081   2.348  0.0457  0.1394 -0.2162
 2661W        W 6180   1.326   8.470   1.162 -0.0955  0.0669  0.0734
 2662W        W 6181   8.253   2.377   0.534 -0.2536  0.1293  0.1084
 2663W        W 6182   9.093   1.713   5.119  0.0891 -0.1213 -0.1195
 2664W        W 6183   4.923   4.094   1.209 -0.1780  0.0541  0.2326
 2665W        W 6184   5.332   0.276   9.717 -0.0408 -0.2981  0.1045
 2666W        W 6185   9.305   9.156  11.608  0.0837 -0.0633 -0.1271
 2667W        W 6186   0.221   0.921  10.579  0.3866 -0.0299 -0.0765
 2668W        W 6187   2.064   4.400  10.239  0.1195  0.0662  0.2852
 2669W        W 6188   8.597   8.374  10.744  0.2400  0.0192  0.1705
 2670W        W 6189   4.966   2.290   7.938  0.3915 -0.1090 -0.1048
 2671W        W 6190   5.019   9.165   1.907 -0.3317 -0.1322  0.0150
 2672W        W 6191   1.144   9.240   9.235 -0.1160 -0.1025  0.0559
 2673W        W 6192   3.174   8.400   4.286  0.0424 -0.3605  0.1195
 2674W        W 6193   7.566   3.472   0.604  0.0165 -0.0692  0.2012
 2675W        W 6194   9.384   3.340   2.072 -0.0142 -0.1013 -0.2396
 2676W        W 6195   4.946   6.079   1.398  0.0770  0.1378 -0.1294
 2677W        W 6196   8.692   1.333   5.013  0.2887  0.0426 -0.2438
 2678W        W 6197   1.419   4.176  11.886  0.0126 -0.0075  0.2807
 2679W        W 6198   6.133   9.502   8.188 -0.0726  0.0322 -0.0101
 2680W        W 6199   5.083   8.585   8.710 -0.2017  0.0263 -0.0373
 2681W        W 6200   6.351   6.427   2.972  0.0074 -0.0146  0.2614
 2682W        W 6201   6.447   9.113   3.834  0.2882  0.0176  0.0130
 2683W        W 6202   7.174   4.745   3.472  0.2772  0.0987  0.0171
 2684W        W 6203   2.295   4.898   0.965  0.1555  0.1376  0.3021
 2685W        W 6204   1.755   8.228   2.631  0.0790 -0.1379 -0.0136
 2686W        W 6205   7.167   1.664   8.864 -0.2758  0.2374  0.0041
 2687W        W 6206   6.499   9.925   3.657  0.2385 -0.1584  0.0287
 2688W        W 6207   2.054   2.366   3.256 -0.0638  0.0664  0.2515
 2689W        W 6208   7.243   7.496  11.740  0.2883  0.2846  0.0928
 2690W        W 6209   2.014   3.941   9.910 -0.0946  0.2715 -0.1228
 2691W        W 6210   1.602   8.035   9.451 -0.1459 -0.4822 -0.0228
 2692W        W 6211   8.957   7.708   9.582  0.3985  0.1748  0.0820
 2693W        W 6212   8.072   9.007  11.925  0.2013  0.1034 -0.0133
 2694W        W 6213   6.220   9.915   1.413 -0.0262  0.0438  0.1102
 2695W        W 6214   6.232   2.382  11.383  0.2687 -0.2559  0.0839
 2696W        W 6215   2.716   8.549   1.748  0.1625  0.2682  0.3029
 2697W        W 6216   7.813   3.283   0.153 -0.2184  0.0021  0.3151
 2698W        W 6217   2.093   7.160  10.464  0.2699  0.1897  0.2353
 2699W        W 6218   4.598   0.347   2.895 -0.0684 -0.1351 -0.1090
 2700W        W 6219   7.086   3.576   8.325 -0.2202  0.2035 -0.0655
 2701W        W 6220   8.387   3.387   9.177 -0.1202  0.1426  0.0334
 2702W        W 6221   6.482   8.732   4.701 -0.2279  0.2753 -0.0676
 2703W        W 6222   0.028   1.520   8.713  0.0853 -0.2235  0.1555
 2704W        W 6223   5.121   2.876  11.454 -0.2004 -0.1811 -0.2841
 2705W        W 6224   2.126   5.169   8.413  0.0988  0.1849 -0.1559
 2706W        W 6225   6.068   1.365   3.436  0.0332  0.2433 -0.0206
 2707W        W 6226   8.401   9.003   3.058 -0.0275  0.0873 -0.1827
 2708W        W 6227   7.761   7.322   9.191 -0.1453  0.0295  0.2776
 2709W        W 6228   5.098   1.014   0.704  0.0892 -0.2836 -0.0502
 2710W        W 6229   9.076   1.888  10.119  0.1582 -0.0431 -0.3101
 2711W        W 6230   6.715   1.816   1.483 -0.0287 -0.0352 -0.0767
 2712W        W 6231   1.460   6.353   0.929 -0.1835 -0.0937  0.0984
 2713W        W 6232   6.900   0.050   9.720  0.0374  0.1990  0.2467
 2714W        W 6233   5.735   5.107   7.919  0.3521  0.2020 -0.0995
 2715W        W 6234   3.859   1.336   0.115  0.3315 -0.0191  0.0228
 2716W        W 6235   6.810   2.966   4.175  0.1931  0.1454 -0.1517
 2717W        W 6236   6.971   1.835   2.475  0.0162 -0.1807  0.3409
 2718W        W 6237   0.506   9.105   4.703 -0.2308 -0.0183  0.0599
 2719W        W 6238   9.713   2.891   9.240  0.2489 -0.1176  0.0457
 2720W        W 6239   1.928   1.150   2.399  0.1002 -0.2428  0.0429
 2721W        W 6240   7.698   4.092   4.124 -0.1813  0.0542  0.3733
 2722W        W 6241   8.974   4.441   9.538 -0.0912 -0.0640  0.0195
 2723W        W 6242   5.792   7.030   3.509 -0.2189 -0.3294 -0.1899
 2724W        W 6243   0.983   3.557  11.206 -0.0952 -0.0844  0.2744
 2725W        W 6244   1.079   1.100   0.568 -0.3985 -0.2422  0.2410
 2726W        W 6245   2.253   7.418   2.716  0.2234  0.1916 -0.2355
 2727W        W 6246   1.548   9.650   1.099  0.0892 -0.2677  0.1784
 2728W        W 6247   8.213   3.945  10.900 -0.4466 -0.0444  0.2033
 2729W        W 6248   1.935   7.120   9.545 -0.0978 -0.0516  0.0467
 2730W        W 6249   7.989   8.007   1.772  0.1706  0.1259 -0.1822
 2731W        W 6250   2.049   1.759   0.489  0.0495  0.0774  0.1522
 2732W        W 6251   4.584   9.402  10.900 -0.0987 -0.0656 -0.2858
 2733W        W 6252   9.459   1.053  11.385 -0.1500 -0.0636  0.1769
 2734W        W 6253   3.251   1.398  10.361 -0.0142 -0.2236  0.1016
 2735W        W 6254   2.428   7.307   3.660  0.2046 -0.1333 -0.0397
 2736W        W 6255   8.037   2.573  10.063 -0.3040  0.0986  0.1430
 2737W        W 6256   8.352   8.873   0.831 -0.2172 -0.2546 -0.1757
 2738W        W 6257   6.803   9.608   0.343 -0.0309  0.0557  0.0571
 2739W        W 6258   7.414   9.118   1.322  0.0116  0.0369 -0.1456
 2740W        W 6259   8.997   3.953  10.628 -0.3059 -0.2903 -0.0415
 2741W        W 6260   6.253   4.908   0.643  0.0382  0.1633 -0.1219
 2742W        W 6261   1.494   1.465   0.494  0.1533 -0.3069  0.1348
 2743W        W 6262   1.769   4.912   1.823  0.3267  0.1188 -0.1488
 2744W        W 6263   1.642   7.840  11.619 -0.2528  0.0833  0.1558
 2745W        W 6264   9.939   8.733   2.512  0.1281  0.1108  0.0712
 2746W        W 6265   0.994   0.319   0.003  0.1674 -0.2132  0.0752
 2747W        W 6266   7.864   4.417   0.345  0.1239 -0.3558  0.0532
 2748W        W 6267   7.838   7.696   0.724 -0.2268 -0.0715 -0.1750
 2749W        W 6268   1.693   6.864   9.923  0.0696  0.0119 -0.0281
 2750W        W 6269   2.118   6.869   2.944  0.4087  0.0867  0.2186
 2751W        W 6270   6.243   0.519   4.904  0.2448  0.1357  0.1882
 2752W        W 6271   5.469   4.511   2.262 -0.0257 -0.1346 -0.1201
 2753W        W 6272   5.746   4.067   0.649  0.0103 -0.0414  0.0917
 2754W        W 6273   7.376   5.046   0.555 -0.1008 -0.1964 -0.1260
 2755W        W 6274   5.831   8.142   9.835 -0.0484  0.2982  0.0623
 2756W        W 6275   1.428   7.959   2.911 -0.1397 -0.0477 -0.1652
 2757W        W 6276   6.221   8.659   2.682 -0.1028  0.2777 -0.1738
 2758W        W 6277   7.854   9.869   3.180  0.1201 -0.1502 -0.0590
 2759W        W 6278   7.050   0.577   9.336  0.0477  0.0206 -0.2705
 2760W        W 6279   4.294   6.323   2.671 -0.1633 -0.3420  0.2573
 2761W        W 6280   0.118   5.526   9.179  0.1975  0.1101 -0.1163
 2762W        W 6281   8.348   8.117   9.745 -0.2856  0.1344  0.0138
 2763W        W 6282   4.499   4.124   3.435  0.2125  0.3470  0.2019
 2764W        W 6283   7.725   0.154  10.179 -0.1584 -0.2583  0.1496
 2765W        W 6284   7.324   0.083   2.108  0.0363 -0.1948  0.1855
 2766W        W 6285   0.779   2.708   7.942  0.0765 -0.0390 -0.3278
 2767W        W 6286   5.905   9.696   1.798  0.1236 -0.1143 -0.1128
 2768W        W 6287   2.136   7.995   4.164  0.0732  0.2234  0.1380
 2769W        W 6288   4.619   9.585  11.664 -0.0018  0.0686 -0.1274
 2770W        W 6289   7.593   0.835   4.680 -0.1358  0.2494  0.0236
 2771W        W 6290   6.969   0.373  11.379 -0.2224 -0.1776  0.1580
 2772W        W 6291   5.608   3.272   0.378 -0.0466 -0.2676 -0.0309
 2773W        W 6292   8.676   5.778  11.652  0.3426  0.2217 -0.1861
 2774W        W 6293   7.378   0.603   1.037 -0.2642  0.0471 -0.1573
 2775W        W 6294   8.300   3.118  10.128 -0.1549  0.0058 -0.2633
 2776W        W 6295   9.667   3.392   9.002  0.1420 -0.1045 -0.1505
 2777W        W 6296   3.647   4.926   0.641  0.3298 -0.2015 -0.2617
 2778W        W 6297   6.337   7.450  11.889  0.1313  0.0188 -0.1172
 2779W        W 6298   5.890   0.526   4.035 -0.3483 -0.0965  0.1824
 2780W        W 6299   4.442   6.950   3.892  0.0442  0.0624 -0.2522
 2781W        W 6300   2.365   5.742   2.811 -0.2307  0.1085  0.1952
 2782W        W 6301   4.920   7.429   8.463 -0.4653 -0.0431 -0.3251
 2783W        W 6302   8.861   4.832   4.060 -0.0559  0.3654  0.3931
 2784W        W 6303   6.020   8.561  10.717 -0.1959 -0.1381  0.0106
 2785W        W 6304   0.496   7.487   3.275 -0.1224 -0.0574 -0.0516
 2786W        W 6305   1.768   7.299   2.448 -0.0792  0.0267  0.2789
 2787W        W 6306   2.953   4.723   8.654  0.2303 -0.1011 -0.1789
 2788W        W 6307   4.127   5.567   2.378 -0.1315  0.1235 -0.0754
 2789W        W 6308   2.581   9.318   4.467 -0.0057 -0.2441  0.1227
 2790W        W 6309   6.634   4.699  11.639  0.1691  0.2858 -0.1523
 2791W        W 6310   4.789   6.480   2.651 -0.0767 -0.3165  0.0204
 2792W        W 6311   4.518   6.708   0.219 -0.0419  0.0239  0.0539
 2793W        W 6312   9.687   9.762   3.256 -0.1299  0.0092  0.3820
 2794W        W 6313   1.041   6.576   0.952  0.0666  0.1499 -0.1213
 2795W        W 6314   6.489   1.914   0.339 -0.0196 -0.1769  0.1332
 2796W        W 6315   4.938   7.089   1.115 -0.2620  0.1716 -0.2503
 2797W        W 6316   8.164   4.105   0.027  0.0295  0.0027  0.0572
 2798W        W 6317   4.808   6.438  11.768 -0.0772  0.2328  0.0538
 2799W        W 6318   6.172   5.630   9.735  0.1133  0.1948  0.1445
 2800W        W 6319   9.229   3.501   8.220  0.2745 -0.0039 -0.0521
 2801W        W 6320   9.655   6.991  11.807  0.3534 -0.0041  0.0701
 2802W        W 6321   0.280   4.478  10.304  0.2409 -0.2105  0.0313
 2803W        W 6322   9.168   2.678  10.893 -0.1769 -0.1339  0.1588
 2804W        W 6323   9.374   0.241   8.746 -0.0435 -0.4726 -0.1242
 2805W        W 6324   2.514   8.926   9.230  0.3402 -0.0634 -0.2013
 2806W        W 6325   5.261   1.458  10.778 -0.0013 -0.0202  0.2316
 2807W        W 6326   2.707   0.743  10.602  0.1667 -0.2344  0.1147
 2808W        W 6327   8.902   9.036   1.847  0.0079 -0.0439 -0.0416
 2809W        W 6328   7.130   5.214  11.105 -0.0351  0.0823  0.0276
 2810W        W 6329   6.396   7.070  10.105  0.2550  0.2517 -0.0778
 2811W        W 6330   8.430   5.974  10.864  0.0052 -0.0028  0.0448
 2812W        W 6331   3.774   5.999   0.753  0.0879 -0.0096 -0.0913
 2813W        W 6332   5.602   7.777  10.759  0.0569 -0.0942 -0.3987
 2814W        W 6333   8.451   8.811   1.319  0.1174  0.0204  0.1221
 2815W        W 6334   4.880   2.988  10.459 -0.1071  0.2226  0.2989
 2816W        W 6335   2.438   5.203  10.445  0.0035 -0.1927 -0.1390
 2817W        W 6336   3.536   2.468  11.779  0.0276  0.1309  0.1187
 2818W        W 6337   6.981   4.347   1.479 -0.0760 -0.0955 -0.0722
 2819W        W 6338   7.100   8.761  11.596 -0.0204  0.0978  0.0905
 2820W        W 6339   8.095   4.224   9.168  0.1149  0.3145 -0.2039
 2821W        W 6340   9.046   7.528   8.227 -0.1357 -0.0058  0.3417
 2822W        W 6341   5.829   2.051   8.984  0.1156 -0.2487 -0.2201
 2823W        W 6342   8.675   4.107  11.867 -0.0858  0.0402  0.0979
 2824W        W 6343   7.630   4.342   1.692  0.0982 -0.0202  0.0648
 2825W        W 6344   3.860   0.442   0.387  0.3891  0.2092  0.2356
 2826W        W 6345   9.330   7.840   3.826 -0.1478 -0.0637  0.0517
 2827W        W 6346   1.125   9.927  11.512  0.3277  0.0093 -0.1947
 2828W        W 6347   7.974   7.813   3.834  0.3260 -0.0626 -0.3553
 2829W        W 6348   6.524   3.141   8.745  0.0432  0.1001 -0.1364
 2830W        W 6349   7.344   3.375  11.656  0.1693  0.0286  0.4418
 2831W        W 6350   1.605   8.558   3.477 -0.1792 -0.2947  0.0484
 2832W        W 6351   0.078   8.202   0.546  0.3027  0.1622  0.0350
 2833W        W 6352   5.881   3.999  10.737 -0.2707 -0.0799 -0.3679
 2834W        W 6353   4.803   8.636   3.768 -0.0503 -0.0276  0.1584
 2835W        W 6354   9.739   3.676  11.792  0.0374  0.1124 -0.1338
 2836W        W 6355   1.295   5.572   8.541 -0.1233  0.0470  0.0501
 2837W        W 6356   2.132   3.691   7.840  0.1500  0.3560  0.2602
 2838W        W 6357   5.261   1.982  10.573 -0.0475  0.1552  0.0519
 2839W        W 6358   9.751   0.503   0.623  0.4031  0.0558 -0.0465
 2840W        W 6359   0.642   4.449   0.843  0.0470 -0.0161  0.0531
 2841W        W 6360   3.727   9.695  11.943  0.3056 -0.2079 -0.0852
 2842W        W 6361   9.143   4.606   8.873  0.1076 -0.0080  0.0390
 2843W        W 6362   4.567   3.310  10.632 -0.0723 -0.0572  0.1061
 2844W        W 6363   2.972   2.370   9.487  0.0613 -0.1933 -0.0488
 2845W        W 6364   8.562   4.505   0.955 -0.1381  0.4652  0.0334
 2846W        W 6365   1.743   3.803   8.624 -0.0229  0.2684 -0.0918
 2847W        W 6366   7.786   8.260   1.398 -0.5444  0.0006 -0.2508
 2848W        W 6367   5.965   2.690  11.047  0.0536  0.2939  0.0740
 2849W        W 6368   1.827   3.386   0.864  0.3443 -0.1400  0.0872
 2850W        W 6369   9.404   9.003   0.741  0.2386 -0.1084  0.0961
 2851W        W 6370   0.587   4.896   0.068 -0.0086 -0.3009  0.0281
 2852W        W 6371   8.294   6.223   2.793  0.1143  0.1145 -0.0449
 2853W        W 6372   8.817   5.276  11.831  0.0092 -0.1731 -0.2982
 2854W        W 6373   9.053   1.737   8.789  0.2383  0.0293  0.0278
 2855W        W 6374   0.571   9.169  10.042  0.4176  0.0040 -0.3420
 2856W        W 6375   1.539   1.993   1.222  0.0542  0.0387 -0.1532
 2857W        W 6376   6.540   4.766   1.433 -0.3382  0.0227  0.1027
 2858W        W 6377   3.366   2.853   1.462 -0.0843 -0.2110  0.0770
 2859W        W 6378   5.950   5.032   1.094 -0.1534  0.1002  0.1933
 2860W        W 6379   1.133   7.271   3.002 -0.1142 -0.1222 -0.1765
 2861W        W 6380   5.700   8.482   4.160 -0.0358  0.1535 -0.3018
 2862W        W 6381   6.284   2.485   0.127 -0.0865 -0.2909  0.1389
 2863W        W 6382   9.024   1.853   4.231  0.1742 -0.1444 -0.0840
 2864W        W 6383   1.503   8.469   0.235 -0.0782 -0.1022  0.1740
 2865W        W 6384   1.587   7.613   1.235  0.1390 -0.1585 -0.0234
 2866W        W 6385   9.326   0.683   0.927 -0.1318  0.1437  0.0143
 2867W        W 6386   5.512   2.051   1.297 -0.1359  0.1253 -0.1437
 2868W        W 6387   4.030   3.492   9.022 -0.1580 -0.0758  0.2422
 2869W        W 6388   6.847   5.856  10.457  0.1062 -0.1823  0.3491
 2870W        W 6389   3.531   4.661   3.371  0.0765  0.0064 -0.0128
 2871W        W 6390   3.194   2.608   2.508  0.3647 -0.0497 -0.2383
 2872W        W 6391   5.771   1.307  10.907  0.0851  0.3066 -0.0035
 2873W        W 6392   9.308   3.539   3.168 -0.3936 -0.1381 -0.1223
 2874W        W 6393   1.298   5.007   1.181  0.1312 -0.2858  0.0897
 2875W        W 6394   3.844   6.310  10.906  0.1084 -0.2094  0.4773
 2876W        W 6395   7.058   6.727   8.842  0.1957  0.0319  0.0241
 2877W        W 6396   3.729   8.506  10.283 -0.0972  0.2514 -0.0614
 2878W        W 6397   6.771   7.253   9.114  0.4227  0.0275 -0.0764
 2879W        W 6398   1.775   8.281   1.281  0.3366  0.2403  0.1115
 2880W        W 6399   7.558   0.353   9.117  0.5571 -0.1734 -0.0787
 2881W        W 6400   0.210   1.562   1.921  0.3809  0.3305 -0.4770
 2882W        W 6401   0.204   1.448  10.629 -0.2976  0.3140 -0.1899
 2883W        W 6402   3.472   1.164   3.678  0.0778 -0.3826 -0.0952
 2884W        W 6403   1.499   8.195   0.787 -0.4610  0.1445 -0.1861
 2885W        W 6404   4.786   4.065   2.755  0.1548 -0.0169  0.0632
 2886W        W 6405   9.848   1.025   2.509 -0.2569  0.2393 -0.0626
 2887W        W 6406   9.578   6.291   2.585  0.5626 -0.0508 -0.1518
 2888W        W 6407   9.191   5.254   1.742  0.2431  0.2106  0.0336
 2889W        W 6408   2.874   5.167   1.693 -0.2018  0.1071 -0.1833
 2890W        W 6409   7.268   1.693   1.602 -0.2095  0.1700  0.2851
 2891W        W 6410   5.326   7.045   9.581 -0.1514 -0.1549 -0.0562
 2892W        W 6411   2.602   2.728   1.767 -0.0048 -0.2444  0.2949
 2893W        W 6412   9.368   3.767   9.180 -0.0112 -0.2428  0.0702
 2894W        W 6413   6.649   7.801  11.788 -0.2376  0.0120  0.3221
 2895W        W 6414   6.895   9.755   2.023 -0.0319 -0.0876 -0.2069
 2896W        W 6415   5.899   5.431  11.234 -0.0819 -0.2210  0.1562
 2897W        W 6416   9.018   2.321   3.093  0.1008  0.2384  0.1222
 2898W        W 6417   6.294   3.051   3.872 -0.2787 -0.3796  0.0942
 2899W        W 6418   7.576   1.788  10.764  0.1148 -0.2426  0.0123
 2900W        W 6419   1.874   9.838  10.878  0.0232 -0.2014 -0.0910
 2901W        W 6420   6.583   1.338   1.257  0.4048  0.3594  0.0221
 2902W        W 6421   8.495   7.884   9.305 -0.0862 -0.1086  0.2268
 2903W        W 6422   8.272   7.699  10.873  0.0771  0.1099  0.0730
 2904W        W 6423   1.577   1.030   0.713 -0.0341  0.1303  0.1701
 2905W        W 6424   5.071   3.924   8.984  0.0795 -0.0132  0.3797
 2906W        W 6425   8.315   4.485  10.833  0.0794  0.3450  0.0321
 2907W        W 6426   6.381   3.016  10.839 -0.0251  0.0997  0.1071
 2908W        W 6427   9.001   1.945   0.510 -0.0349  0.1490  0.0112
 2909W        W 6428   3.712   9.129  11.148 -0.0129  0.0067 -0.0149
 2910W        W 6429   5.584   9.360   9.961 -0.1874  0.0048  0.3316
 2911W        W 6430   3.788   2.913   1.206  0.1411 -0.0686 -0.0075
 2912W        W 6431   8.686   3.731   9.779 -0.0641  0.0925 -0.0783
 2913W        W 6432   0.572   1.747  11.773 -0.0688 -0.0728  0.0060
 2914W        W 6433   1.793   8.649   0.790 -0.3842  0.2297  0.2479
 2915W        W 6434   5.585   8.035   3.586  0.0858  0.1011 -0.1163
 2916W        W 6435   3.921   5.632   2.843 -0.1362  0.4647 -0.2323
 2917W        W 6436   7.887   3.249   9.306  0.1627 -0.1167 -0.2585
 2918W        W 6437   4.852   0.338   1.727 -0.0754  0.0074  0.4364
 2919W        W 6438   7.027   5.183   0.201 -0.0545  0.1115  0.2393
 2920W        W 6439   0.282   2.922   3.139  0.5123 -0.1962 -0.1466
 2921W        W 6440   3.461   2.914   8.716  0.0351  0.2312 -0.0570
 2922W        W 6441   2.153   4.065   8.612 -0.0527 -0.0247  0.0551
 2923W        W 6442   0.837   4.333   3.008  0.0789 -0.1625  0.0762
 2924W        W 6443   5.330   4.061   9.646 -0.1469  0.1858  0.1852
 2925W        W 6444   2.989   3.456  10.047 -0.0456 -0.0074  0.0745
 2926W        W 6445   9.158   9.169   3.426 -0.1227  0.0666 -0.2243
 2927W        W 6446   1.700   2.048   3.984 -0.1434  0.0159  0.3020
 2928W        W 6447   7.417   6.267   9.692 -0.0873 -0.1307  0.2093
 2929W        W 6448   2.939   1.555   8.243 -0.3060  0.1271  0.0117
 2930W        W 6449   4.317   2.466  11.045 -0.1568 -0.2327 -0.1118
 2931W        W 6450   9.627   3.182  11.929 -0.2005 -0.0310 -0.2694
 2932W        W 6451   5.310   9.423   3.962 -0.0252 -0.3084 -0.2240
 2933W        W 6452   7.423   6.455   3.186  0.1361  0.0906  0.1146
 2934W        W 6453   9.904   8.079   8.765  0.1565  0.1742 -0.0524
 2935W        W 6454   5.976   6.578  11.826  0.2791 -0.2663 -0.2343
 2936W        W 6455   1.500   0.602  10.473 -0.1920  0.0349 -0.0354
 2937W        W 6456   4.106   0.932   0.592  0.1796  0.1618 -0.0245
 2938W        W 6457   0.216   3.169  11.368 -0.0827  0.0699  0.0094
 2939W        W 6458   6.642   2.119   4.332  0.0197  0.1337 -0.2226
 2940W        W 6459   4.648   6.018   1.837 -0.1603 -0.3468 -0.1373
 2941W        W 6460   2.692   0.968  11.035 -0.0434  0.2011 -0.3692
 2942W        W 6461   4.017   0.830   3.836  0.0985 -0.2638 -0.0192
 2943W        W 6462   7.805   9.868   1.970 -0.0214  0.0255  0.1808
 2944W        W 6463   0.543   0.206   0.035 -0.0875 -0.0267 -0.0131
 2945W        W 6464   4.895   4.024   9.440 -0.0206  0.0364  0.1231
 2946W        W 6465   7.570   7.543  11.259  0.1163 -0.0264 -0.0978
 2947W        W 6466   7.391   7.106  11.425 -0.0476 -0.0270  0.2761
 2948W        W 6467   0.951   5.881   1.841  0.0379  0.1475 -0.1331
 2949W        W 6468   8.769   6.890  11.472 -0.0949  0.1777  0.1890
 2950W        W 6469   5.173   1.190   1.155 -0.0172 -0.6181  0.2137
 2951W        W 6470   7.299   8.025  10.455 -0.2982 -0.0539 -0.0670
 2952W        W 6471   8.908   8.279  11.196  0.1592 -0.0980  0.1813
 2953W        W 6472   4.292   3.763  10.965 -0.3142 -0.0003  0.1228
 2954W        W 6473   1.254   8.405   1.706  0.1158 -0.1981 -0.0825
 2955W        W 6474   2.448   7.516   1.608  0.1438  0.1115 -0.2994
 2956W        W 6475   7.639   1.398   1.917 -0.2627  0.1045  0.0861
 2957W        W 6476   0.686   3.664   0.543  0.0835 -0.0633 -0.0266
 2958W        W 6477   8.187   1.499   9.411  0.0536  0.2539 -0.0909
 2959W        W 6478   8.203   9.923  11.047 -0.3325 -0.0360 -0.0419
 2960W        W 6479   2.796   2.946   8.696  0.3352 -0.0426  0.0641
 2961W        W 6480   8.052   7.140   2.775 -0.1877  0.0031  0.4183
 2962W        W 6481   9.658   6.526   9.926 -0.0884  0.0076  0.1637
 2963W        W 6482   5.616   1.967   1.807  0.1253  0.0810 -0.3431
 2964W        W 6483   0.628   2.555   2.224  0.0322  0.0973  0.1565
 2965W        W 6484   3.659   5.132   1.929 -0.3019 -0.0462  0.1021
 2966W        W 6485   8.336   4.372  11.384  0.0431 -0.0998  0.2250
 2967W        W 6486   1.577   5.265   0.247 -0.3856 -0.0417 -0.1930
 2968W        W 6487   7.801   0.456   1.862 -0.0474  0.0480  0.0087
 2969W        W 6488   3.085   6.168   2.306 -0.0966  0.0063  0.1393
 2970W        W 6489   2.706   9.818  10.367 -0.1393 -0.0591  0.0535
 2971W        W 6490   8.295   6.243   1.351 -0.0604  0.4837  0.2524
 2972W        W 6491   8.072   2.213   5.099  0.1415  0.0033 -0.3699
 2973W        W 6492   1.808   2.224   9.791  0.1339  0.1524 -0.0132
 2974W        W 6493   1.466   6.913   9.306  0.0346  0.1619 -0.0504
 2975W        W 6494   1.136   4.204  10.048 -0.3576  0.2138 -0.1446
 2976W        W 6495   0.656   3.693  10.087 -0.2149 -0.1563 -0.2406
 2977W        W 6496   8.425   9.080  11.297 -0.0016  0.0748 -0.0057
 2978W        W 6497   9.826   5.771   8.788 -0.1665 -0.1174 -0.4342
 2979W        W 6498   3.006   3.162   0.207 -0.1601  0.1770 -0.0583
 2980W        W 6499   6.472   7.963   3.597 -0.1360 -0.2117 -0.1649
 2981W        W 6500   9.424   9.015   1.913  0.0746  0.3031  0.2618
 2982W        W 6501   4.655   4.427   1.982  0.2674  0.2038  0.0508
 2983W        W 6502   0.085   2.767  11.800  0.0851  0.1192  0.2673
 2984W        W 6503   7.073   8.320  11.162  0.2186  0.0546  0.1248
 2985W        W 6504   8.869   6.413  11.569 -0.1100  0.1294  0.3031
 2986W        W 6505   7.458   4.088   0.396 -0.1907 -0.0971 -0.0644
 2987W        W 6506   0.475   4.239   0.043 -0.1559  0.1128  0.0527
 2988W        W 6507   8.939   0.514   0.096 -0.2526  0.1625 -0.0555
 2989W        W 6508   7.067   2.710   2.303  0.2578  0.3069 -0.0812
 2990W        W 6509   9.215   1.051   0.053  0.0419  0.2840 -0.3144
 2991W        W 6510   8.496   7.352  11.121  0.1268  0.4005 -0.0068
 2992W        W 6511   7.784   6.706   0.793  0.0330  0.1570  0.2716
 2993W        W 6512   4.001   2.313   2.483 -0.1418  0.0237 -0.2334
 2994W        W 6513   6.891   5.002   4.785 -0.1803 -0.0789 -0.1961
 2995W        W 6514   9.397   5.127  11.695 -0.2839  0.0186 -0.3632
 2996W        W 6515   7.771   3.890   3.629  0.3855 -0.0240  0.3839
 2997W        W 6516   0.720   9.122   8.998 -0.2532  0.0796 -0.1880
 2998W        W 6517   9.828   6.138  10.181 -0.4844  0.0496 -0.2673
 2999W        W 6518   8.533   0.089   1.222 -0.1153  0.3678 -0.0568
 3000W        W 6519   7.727   0.306   2.356  0.1195  0.3216 -0.1876
 3001W        W 6520   7.925   5.043  11.660 -0.0314 -0.2407  0.0442
 3002W        W 6521   9.733   5.913   0.063 -0.1423 -0.0122  0.2911
 3003W        W 6522   8.976   0.527   3.629  0.1054 -0.0208  0.1171
 3004W        W 6523   3.158   0.059   4.153 -0.1131  0.3122 -0.3103
 3005W        W 6524   3.651   6.863   0.279 -0.1411  0.0550  0.2453
 3006W        W 6525   7.329   1.027   1.815 -0.0918  0.0514 -0.2194
 3007W        W 6526   1.744   1.606   3.612  0.2329 -0.0071 -0.1786
 3008W        W 6527   5.926   4.372  11.144  0.2032 -0.1624  0.2558
 3009W        W 6528   0.217   2.428   3.292 -0.1869  0.1043  0.1319
 3010W        W 6529   6.565   0.216  11.597 -0.0736  0.0412  0.2507
 3011W        W 6530   3.368   8.956   2.981  0.1855  0.3472  0.0372
 3012W        W 6531   7.479   1.294   8.918 -0.2922  0.0317 -0.0863
 3013W        W 6532   0.962   2.518   1.281 -0.0379  0.0377 -0.4228
 3014W        W 6533   5.411   5.743  11.261 -0.1802 -0.1067  0.1527
 3015W        W 6534   4.821   1.563  11.045  0.2310  0.3338 -0.1100
 3016W        W 6535   6.124   8.766   3.975 -0.0789  0.2336  0.1072
 3017W        W 6536   8.251   8.848  10.760  0.4367  0.2144 -0.0434
 3018W        W 6537   2.812   8.665   3.908  0.0579 -0.0968 -0.2667
 3019W        W 6538   3.628   6.036   4.018  0.0691  0.2622  0.1528
 3020W        W 6539   0.262   2.189  10.058 -0.0494  0.0172  0.0933
 3021W        W 6540   3.448   0.734   0.310 -0.2336 -0.0719 -0.0121
 3022W        W 6541   4.413   6.833   9.035  0.0720  0.1427 -0.1634
 3023W        W 6542   0.569   6.795   0.948  0.1448  0.0147 -0.0590
 3024W        W 6543   0.242   5.102   2.116  0.0685  0.0805  0.3817
 3025W        W 6544   2.747   2.824   2.832 -0.2140  0.5146 -0.1669
 3026W        W 6545   7.427   8.788   3.918 -0.2714  0.0329 -0.0543
 3027W        W 6546   5.027   9.097   3.617 -0.4114  0.1529 -0.1270
 3028W        W 6547   6.059   0.250   9.594  0.4184 -0.0940  0.2664
 3029W        W 6548   2.607   1.041   1.853  0.0338  0.4296 -0.0812
 3030W        W 6549   5.191   6.455  10.633  0.4488 -0.2640  0.3052
 3031W        W 6550   6.496   8.827   3.239  0.2174 -0.1346 -0.0299
 3032W        W 6551   7.419   5.268  11.678 -0.0880  0.2406 -0.0018
 3033W        W 6552   9.602   8.561   4.450 -0.0539  0.3015  0.0969
 3034W        W 6553   9.267   2.090   9.105 -0.3288  0.0866  0.1750
 3035W        W 6554   4.725   0.364   5.098  0.0165 -0.1472  0.2011
 3036W        W 6555   5.219   2.303   1.639  0.0693  0.4634 -0.2766
 3037W        W 6556   3.876   3.072  11.230 -0.0174 -0.1516  0.1470
 3038W        W 6557   3.638   0.811  10.719  0.1093  0.1496 -0.1541
 3039W        W 6558   3.161   4.381   2.939  0.0605  0.0841 -0.4346
 3040W        W 6559   9.731   7.132   3.563 -0.0540  0.1097 -0.1870
 3041W        W 6560   2.629   2.819   3.307 -0.0593 -0.4555 -0.1102
 3042W        W 6561   1.764   8.550   1.928  0.1056  0.1362  0.1075
 3043W        W 6562   5.216   2.237   2.763  0.1499  0.0928  0.0601
 3044W        W 6563   5.458   2.152   9.297 -0.0559  0.3282  0.1807
 3045W        W 6564   3.699   3.194   8.331  0.1859  0.0153  0.0712
 3046W        W 6565   8.896   1.979   2.090 -0.0465  0.1575  0.1702
 3047W        W 6566   0.742   7.392  11.349 -0.1061 -0.1950  0.3205
 3048W        W 6567   3.979   5.183  10.048  0.1199  0.1204 -0.1234
 3049W        W 6568   6.186   8.347   2.276  0.0630  0.0849  0.0140
 3050W        W 6569   0.294   2.610  11.365 -0.1528 -0.3326  0.4687
 3051W        W 6570   5.635   9.518  10.996 -0.2321  0.0489 -0.0388
 3052W        W 6571   0.422   4.651   2.034  0.4041 -0.3476 -0.2289
 3053W        W 6572   3.444   7.552   3.317 -0.1679  0.0145 -0.0245
 3054W        W 6573   0.568   0.521  11.481 -0.0799  0.1550 -0.0052
 3055W        W 6574   2.594   0.009   0.999 -0.0659 -0.2451 -0.0580
 3056W        W 6575   9.423   0.145   2.972  0.0555 -0.0497 -0.1217
 3057W        W 6576   0.640   2.900   1.581 -0.2096  0.1213  0.1491
 3058W        W 6577   5.732   9.571   3.809 -0.1093 -0.0763  0.1434
 3059W        W 6578   2.337   7.029   2.432 -0.1271 -0.1023  0.2240
 3060W        W 6579   7.660   2.448   9.614  0.0561 -0.0772  0.0080
 3061W        W 6580   6.580   4.597   3.244  0.2164  0.0180  0.1073
 3062W        W 6581   7.455   9.319   4.148 -0.1898 -0.0907  0.1941
 3063W        W 6582   5.718   3.094   8.844 -0.0276  0.2100  0.0947
 3064W        W 6583   5.543   4.939   9.687  0.2106 -0.2456  0.0870
 3065W        W 6584   7.728   2.273  10.953  0.1384  0.0827  0.0625
 3066W        W 6585   8.806   7.101   3.831 -0.0067  0.1726 -0.1978
 3067W        W 6586   0.354   6.485   1.879 -0.0158 -0.0584 -0.0132
 3068W        W 6587   4.135   1.022   2.558 -0.0058  0.2681 -0.3657
 3069W        W 6588   9.057   9.539  11.825 -0.2965 -0.0596 -0.0482
 3070W        W 6589   4.971   6.759   9.282  0.0317  0.0474 -0.1341
 3071W        W 6590   4.996   8.382   9.505 -0.0036  0.2213  0.5362
 3072W        W 6591   6.523   2.849   2.352 -0.2650  0.1001 -0.0412
 3073W        W 6592   2.682   4.946   2.094 -0.1991  0.0217  0.3231
 3074W        W 6593   3.644   0.401  11.841  0.1958 -0.3054 -0.1030
 3075W        W 6594   0.908   6.385   4.101 -0.1788  0.2520 -0.0702
 3076W        W 6595   1.893   1.595   2.675  0.0492  0.0466 -0.0357
 3077W        W 6596   7.463   3.860  11.333  0.0189 -0.2053  0.2051
 3078W        W 6597   1.105   0.285   8.672  0.2147 -0.0487 -0.1063
 3079W        W 6598   7.955   0.500   9.850  0.2865  0.1943  0.0791
 3080W        W 6599   9.211   4.300  11.050 -0.1118  0.0546  0.1047
 3081W        W 6600   1.283   0.025   1.930  0.2562  0.0758  0.3101
 3082W        W 6601   3.154   8.822  10.991 -0.0583  0.7328 -0.0044
 3083W        W 6602   5.892   5.288   2.472  0.3408 -0.0918 -0.2724
 3084W        W 6603   7.781   0.082   9.648  0.1310  0.0540 -0.0252
 3085W        W 6604   7.388   2.122   8.639 -0.1560 -0.2771  0.2230
 3086W        W 6605   2.450   5.155   3.563  0.1976  0.0238  0.1225
 3087W        W 6606   5.745   4.978   2.901 -0.2621 -0.5200  0.0654
 3088W        W 6607   1.317   8.044  11.329  0.0642  0.2303  0.1595
 3089W        W 6608   2.157   0.855  10.905 -0.0704  0.0230 -0.0212
 3090W        W 6609   5.891   3.619   0.763 -0.1646  0.0314 -0.0414
 3091W        W 6610   5.456   1.737   0.495  0.3092  0.0135  0.2700
 3092W        W 6611   5.184   6.931   2.623 -0.3964 -0.0109  0.0119
 3093W        W 6612   5.500   9.036  10.989 -0.2519  0.1408  0.1515
 3094W        W 6613   8.602   2.955   0.633  0.0798 -0.0502  0.0960
 3095W        W 6614   5.277   3.131   9.214  0.0218 -0.0979  0.1159
 3096W        W 6615   1.781   4.603   9.860 -0.2277 -0.1122 -0.1522
 3097W        W 6616   6.533   0.254   9.919  0.0094  0.1672  0.1779
 3098W        W 6617   5.039   6.469   3.607 -0.0600 -0.0122  0.0270
 3099W        W 6618   5.466   0.463   4.989 -0.3668 -0.3976 -0.1754
 3100W        W 6619   8.188   5.535   4.134  0.0871  0.5279  0.2243
 3101W        W 6620   6.118   6.778   8.551 -0.0125  0.2698 -0.1179
 3102W        W 6621   6.654   8.804  10.867 -0.5098  0.2578  0.2454
 3103W        W 6622   6.994   5.362   4.011  0.2678  0.2616  0.0810
 3104W        W 6623   8.762   8.168   1.894 -0.0162 -0.0660 -0.0522
 3105W        W 6624   9.179   7.088   1.964  0.0053  0.0742 -0.0926
 3106W        W 6625   2.066   8.628  11.652  0.0270  0.3251  0.1397
 3107W        W 6626   6.161   0.781   3.704  0.1520 -0.0669  0.4333
 3108W        W 6627   7.621   0.146   0.130  0.1927  0.0953  0.2779
 3109W        W 6628   7.080   9.590   3.951  0.0054  0.0376  0.1621
 3110W        W 6629   4.283   0.279   1.636 -0.0298  0.1466 -0.0382
 3111W        W 6630   3.456   9.854   1.905 -0.0167 -0.0425  0.1081
 3112W        W 6631   2.117   3.490   0.017 -0.0933  0.0406 -0.0076
 3113W        W 6632   8.159   0.798  11.610 -0.1254  0.2403  0.0277
 3114W        W 6633   8.530   9.898   0.479  0.1604 -0.0633 -0.2085
 3115W        W 6634   5.615   8.953   3.339  0.0972 -0.1132 -0.0572
 3116W        W 6635   3.364   7.705   0.489 -0.3598  0.0749 -0.0412
 3117W        W 6636   0.885   0.177  10.919  0.0122 -0.2028 -0.3544
 3118W        W 6637   1.197   8.147   2.527 -0.2472 -0.1377  0.1982
 3119W        W 6638   1.340   7.792  10.858  0.0403  0.2318 -0.2875
 3120W        W 6639   4.605   7.312  10.804  0.0315 -0.1661  0.0804
 3121W        W 6640   7.477   3.016   9.852 -0.0709  0.2906 -0.1677
 3122W        W 6641   2.971   1.580   2.481  0.1211 -0.1039  0.3093
 3123W        W 6642   5.524   9.447   0.336  0.1001  0.0890  0.2562
 3124W        W 6643   1.126   5.417   9.461  0.0948 -0.2633  0.0531
 3125W        W 6644   3.291   1.748  11.003 -0.2291  0.0081 -0.0101
 3126W        W 6645   9.107   2.147   9.616  0.2040 -0.1462  0.4324
 3127W        W 6646   2.779   1.247  10.265 -0.0288  0.1884  0.1750
 3128W        W 6647   2.971   9.577   4.308 -0.0238  0.0107 -0.1016
 3129W        W 6648   4.997   7.215  10.472 -0.0314  0.0472 -0.0539
 3130W        W 6649   2.562   4.707  11.033  0.1859 -0.0660  0.0940
 3131W        W 6650   2.276   9.067  10.592 -0.0693 -0.0344 -0.0031
 3132W        W 6651   2.523   3.277   1.463 -0.1440  0.0064 -0.1821
 3133W        W 6652   2.857   0.922   1.440 -0.2669 -0.1047 -0.3967
 3134W        W 6653   0.689   8.932  11.922  0.1762  0.2885  0.2617
 3135W        W 6654   0.377   0.481   9.724 -0.0510 -0.1151  0.2375
 3136W        W 6655   7.440   0.876   9.246 -0.3297  0.1066 -0.1378
 3137W        W 6656   8.508   1.960   9.653 -0.0574 -0.2082 -0.0995
 3138W        W 6657   6.949   3.739  11.192 -0.0936  0.0798 -0.1030
 3139W        W 6658   2.394   3.792   2.944  0.0607  0.1332  0.0505
 3140W        W 6659   8.043   4.267   2.907 -0.1634  0.2078 -0.0067
 3141W        W 6660   8.226   1.394   4.935 -0.2956  0.2356 -0.2036
 3142W        W 6661   9.797   2.350   7.981  0.0624  0.1002 -0.2114
 3143W        W 6662   0.011   8.898  10.737  0.0407  0.0266  0.0285
 3144W        W 6663   3.531   6.916   1.185  0.1068  0.3541 -0.0280
 3145W        W 6664   0.387   1.515  11.399 -0.0419  0.0999 -0.1153
 3146W        W 6665   7.685   7.028  10.413  0.1702  0.2664  0.3785
 3147W        W 6666   3.008   2.327   3.011 -0.2222  0.0442 -0.2912
 3148W        W 6667   9.361   4.234   2.491 -0.2568  0.1947  0.3140
 3149W        W 6668   6.674   3.354  11.180 -0.2367  0.1883  0.2192
 3150W        W 6669   6.883   3.298   0.002 -0.3522 -0.0168  0.1281
 3151W        W 6670   8.754   5.197   1.555 -0.0030 -0.6347 -0.2340
 3152W        W 6671   5.862   0.392  10.980 -0.1774 -0.1511  0.1784
 3153W        W 6672   7.148   7.802  10.034  0.0181 -0.1829  0.2623
 3154W        W 6673   1.951   1.948   8.119  0.1011  0.2666  0.0350
 3155W        W 6674   3.593   3.281   9.534  0.3452  0.0162 -0.4552
 3156W        W 6675   3.946   6.276  11.573 -0.0165 -0.0963 -0.2358
 3157W        W 6676   6.463   5.529  10.633 -0.2214 -0.5448  0.1010
 3158W        W 6677   3.523   2.391  10.567 -0.1919 -0.3075  0.0260
 3159W        W 6678   2.384   2.795   1.316  0.0909 -0.1001  0.2282
 3160W        W 6679   0.229   6.564   9.496 -0.0633 -0.4044 -0.3994
 3161W        W 6680   5.563   3.822   3.550 -0.3193 -0.1346  0.1059
 3162W        W 6681   6.856   2.416  10.653  0.0264 -0.2758 -0.1244
 3163W        W 6682   4.655   1.826   4.065 -0.1057 -0.0121 -0.1090
 3164W        W 6683   8.178   9.833   0.037 -0.1405  0.1125  0.0165
 3165W        W 6684   0.687   3.570   3.231  0.1390  0.0821  0.2245
 3166W        W 6685   9.385   8.693  11.379  0.2362 -0.1068 -0.2495
 3167W        W 6686   8.860   5.326  10.952 -0.1966 -0.2432 -0.0308
 3168W        W 6687   4.978   7.773   1.738 -0.0096 -0.0875  0.0215
 3169W        W 6688   3.094   2.565  10.711  0.2382  0.0298 -0.0620
 3170W        W 6689   1.761   1.560   0.964 -0.0568  0.0260  0.0629
 3171W        W 6690   5.079   9.518   0.564 -0.1530 -0.3174 -0.1448
 3172W        W 6691   8.502   6.962  10.675  0.0362  0.1265 -0.0557
 3173W        W 6692   5.223   0.786   1.958  0.0455  0.1329  0.1188
 3174W        W 6693   2.434   1.314  11.215  0.1045 -0.3672 -0.2412
 3175W        W 6694   9.398   0.629   0.227  0.0869  0.2814 -0.0905
 3176W        W 6695   0.846   9.602  11.225  0.1282 -0.0072 -0.0650
 3177W        W 6696   7.497   9.784   8.809 -0.1029  0.1676 -0.1508
 3178W        W 6697   4.708   8.851   0.640 -0.1933 -0.0930  0.2123
 3179W        W 6698   5.155   9.931   9.163  0.1077 -0.3338 -0.1247
 3180W        W 6699   2.394   4.322   9.029  0.1992  0.1316 -0.0244
 3181W        W 6700   7.071   6.157  11.257  0.0057  0.4798  0.1559
 3182W        W 6701   8.744   1.705  11.029  0.0606 -0.0884  0.0072
 3183W        W 6702   0.225   3.716   2.542  0.0561 -0.2003  0.0156
 3184W        W 6703   5.770   2.840   1.912  0.0662  0.0655 -0.0316
 3185W        W 6704   1.543   4.453   2.665  0.1074 -0.1702  0.0179
 3186W        W 6705   0.179   3.701  11.473 -0.3127 -0.2842 -0.1450
 3187W        W 6706   8.973   0.513   2.533 -0.0220  0.1195 -0.0716
 3188W        W 6707   8.369   3.273   9.644  0.4277  0.3518 -0.4294
 3189W        W 6708   5.033   2.452   3.574 -0.0723 -0.0786  0.0295
 3190W        W 6709   8.778   3.813   3.091  0.0319 -0.0974 -0.1784
 3191W        W 6710   0.502   7.817   8.820  0.2714 -0.1136  0.0215
 3192W        W 6711   1.084   5.304   2.403 -0.1078  0.3185 -0.0403
 3193W        W 6712   7.139   4.722   1.926 -0.2487  0.1031  0.1536
 3194W        W 6713   1.486   8.125   2.142 -0.2411  0.0488 -0.0208
 3195W        W 6714   3.307   5.480  11.498  0.0433  0.1633 -0.0159
 3196W        W 6715   1.753   9.080   8.217 -0.1704  0.0406 -0.2914
 3197W        W 6716   6.178   1.720   8.998  0.3024  0.1632 -0.4343
 3198W        W 6717   2.421   5.492  11.136 -0.0783  0.2133 -0.0771
 3199W        W 6718   5.774   3.060  10.139  0.1176 -0.2374 -0.1686
 3200W        W 6719   1.559   6.416  11.954  0.0128  0.0778 -0.2103
 3201W        W 6720   6.173   5.075   3.680 -0.3171  0.0737  0.1094
 3202W        W 6721   4.617   0.863   3.396 -0.0540 -0.2899 -0.1335
 3203W        W 6722   3.801   8.926  10.681  0.2882 -0.1187 -0.0676
 3204W        W 6723   3.502   9.790  11.045 -0.0453  0.2624 -0.1506
 3205W        W 6724   7.158   9.364  10.054 -0.1591  0.1778 -0.0917
 3206W        W 6725   8.454   1.689   9.017 -0.0792 -0.1475  0.0655
 3207W        W 6726   7.494   4.942   9.539  0.1792 -0.0961  0.2016
 3208W        W 6727   7.279   8.698   4.415  0.1126  0.3201  0.0857
 3209W        W 6728   0.622   7.242   0.242 -0.2784  0.2702  0.1798
 3210W        W 6729   1.698   0.015  10.436  0.0487  0.1062  0.0976
 3211W        W 6730   8.347   3.257   4.187  0.2581  0.1837  0.1150
 3212W        W 6731   3.530   3.049  10.766 -0.0302 -0.0835 -0.0749
 3213W        W 6732   1.579   3.022   8.993 -0.0448 -0.0291 -0.0442
 3214W        W 6733   1.021   6.483  10.657  0.0323  0.0322 -0.0327
 3215W        W 6734   4.627   3.377  11.139 -0.2102 -0.1188  0.0798
 3216W        W 6735   0.896   8.487   0.375  0.2544 -0.0583  0.1498
 3217W        W 6736   2.688   0.508   0.125  0.1128  0.3218 -0.0731
 3218W        W 6737   4.156   2.544   9.945  0.1382 -0.1791  0.0506
 3219W        W 6738   4.130   7.662   4.421  0.2801 -0.0235 -0.3224
 3220W        W 6739   3.678   2.034   0.715  0.1110 -0.2571  0.0138
 3221W        W 6740   7.527   7.814   4.291 -0.3584 -0.0043  0.0918
 3222W        W 6741   2.243   7.446   9.807  0.1314  0.1049  0.1609
 3223W        W 6742   6.652   5.944   1.211 -0.2423 -0.1044 -0.0974
 3224W        W 6743   1.762   7.127   4.265 -0.4925  0.0322 -0.2423
 3225W        W 6744   0.319   6.807  11.214  0.0035  0.0362 -0.3187
 3226W        W 6745   8.926   6.268   9.989  0.3172 -0.0886  0.1431
 3227W        W 6746   6.474   1.919  10.521  0.2161  0.2090 -0.1785
 3228W        W 6747   5.608   7.849   8.725  0.2029  0.0532 -0.0839
 3229W        W 6748   1.941   4.532   8.982 -0.1807  0.3193 -0.0985
 3230W        W 6749   9.121   7.418   9.225  0.1248  0.2054  0.0621
 3231W        W 6750   7.216   0.043  10.897 -0.1874  0.0253 -0.0595
 3232W        W 6751   8.405   7.489   4.769 -0.1134  0.3425  0.0920
 3233W        W 6752   0.537   2.005   3.339 -0.0062  0.3335  0.1133
 3234W        W 6753   7.733   8.076   0.311  0.1021  0.3256  0.1150
 3235W        W 6754   7.727   7.474   3.030  0.1445  0.0938 -0.1409
 3236W        W 6755   5.759   8.730   8.520  0.2310  0.0669 -0.0060
 3237W        W 6756   2.309   2.696   0.587 -0.0439 -0.1211  0.2882
 3238W        W 6757   0.490   8.635   9.857 -0.1570  0.0560  0.4511
 3239W        W 6758   6.132   5.277   4.268  0.1818 -0.2265 -0.0587
 3240W        W 6759   9.699   1.870  11.152  0.0002 -0.0390 -0.0714
 3241W        W 6760   1.322   8.427   9.636 -0.0413  0.1933  0.1093
 3242W        W 6761   6.462   4.163   8.565 -0.0792  0.1412 -0.0378
 3243W        W 6762   3.829   4.362   9.564  0.0623 -0.1700  0.0079
 3244W        W 6763   4.790   0.396  11.342  0.1457  0.0350 -0.0462
 3245W        W 6764   5.029   1.620  11.503 -0.0849  0.1263  0.1461
 3246W        W 6765   9.801   0.160   2.023  0.3190 -0.0215 -0.2287
 3247W        W 6766   6.276   7.811   2.419  0.1843  0.1557  0.0312
 3248W        W 6767   8.635   2.665  10.837  0.3422  0.0772  0.1070
 3249W        W 6768   3.066   8.803   1.372 -0.0970 -0.2843  0.0609
 3250W        W 6769   7.988   1.001   0.135  0.2636 -0.0465  0.3646
 3251W        W 6770   2.798   5.185  10.876 -0.1710 -0.0874 -0.0683
 3252W        W 6771   4.446   2.386   0.586  0.1401 -0.1865 -0.1397
 3253W        W 6772   5.197   0.138   4.244  0.1407  0.0164  0.1413
 3254W        W 6773   2.929   4.997   9.365  0.1488 -0.1169  0.3242
 3255W        W 6774   8.515   7.346   0.250  0.3181  0.3097  0.1756
 3256W        W 6775   5.239   9.241   1.367 -0.0092 -0.0842 -0.0477
 3257W        W 6776   2.697   3.865  11.174 -0.1547  0.0087 -0.3475
 3258W        W 6777   8.107   1.448   0.423  0.4905  0.0160 -0.1353
 3259W        W 6778   5.966   9.066  10.850 -0.0246  0.0250  0.0585
 3260W        W 6779   8.721   6.678   9.705  0.1220 -0.3230  0.0147
 3261W        W 6780   5.412   1.784   4.716  0.0172 -0.0410  0.0678
 3262W        W 6781   6.321   8.128   1.565  0.1386 -0.1104 -0.0523
 3263W        W 6782   4.132   1.934  11.267  0.0887  0.0303 -0.2052
 3264W        W 6783   6.957   2.354  10.161 -0.0581 -0.3104  0.0519
 3265W        W 6784   6.718   6.078   4.012 -0.0636  0.1528  0.0340
 3266W        W 6785   2.379   9.825   1.629  0.0217  0.1347  0.0392
 3267W        W 6786   8.753   3.265   1.578 -0.1811 -0.0665  0.3566
 3268W        W 6787   9.829   8.813   3.047 -0.2313  0.1052  0.1212
 3269W        W 6788   4.666   9.099  11.904 -0.1295 -0.2985 -0.0150
 3270W        W 6789   6.784   1.882   7.896  0.1399 -0.0706  0.3038
 3271W        W 6790   4.977   4.193   8.204  0.4635  0.0255 -0.1611
 3272W        W 6791   3.025   1.241   3.111 -0.0010  0.2542 -0.1039
 3273W        W 6792   7.699   8.982   5.206  0.0545 -0.0664  0.0003
 3274W        W 6793   0.924   9.651   3.479 -0.0113 -0.0503  0.1300
 3275W        W 6794   1.440   2.463   1.542  0.0154 -0.1846 -0.2618
 3276W        W 6795   9.424   2.758   3.885  0.0672  0.1202 -0.0471
 3277W        W 6796   8.805   4.307   5.034  0.1169 -0.0233  0.1332
 3278W        W 6797   4.163   1.435   1.262  0.1139 -0.2064 -0.0289
 3279W        W 6798   8.742   5.968   2.707 -0.1038  0.0943  0.3097
 3280W        W 6799   3.140   9.170   0.671 -0.1248 -0.4443 -0.1259
 3281W        W 6800   0.739   6.410   1.404 -0.1340  0.3121 -0.2022
 3282W        W 6801   4.169   0.229   2.154 -0.0029 -0.1003 -0.0543
 3283W        W 6802   7.997   7.787   3.290 -0.0609  0.1134 -0.1514
 3284W        W 6803   3.635   3.899   8.966  0.0768 -0.0336  0.1547
 3285W        W 6804   9.878   9.619   3.667 -0.3079  0.0076  0.1541
 3286W        W 6805   3.858   0.007   3.163  0.2823  0.0947 -0.3246
 3287W        W 6806   9.804   7.039   3.096  0.0797  0.0763 -0.2096
 3288W        W 6807   2.075   6.288  11.539  0.1451 -0.2690  0.4040
 3289W        W 6808   7.403   1.386  11.599 -0.0269 -0.0503  0.0070
 3290W        W 6809   4.452   6.565  10.331 -0.1167  0.3861 -0.2308
 3291W        W 6810   3.479   2.662   9.982  0.0216  0.1924 -0.0275
 3292W        W 6811   9.513   1.524  11.514 -0.3237 -0.2198 -0.1121
 3293W        W 6812   1.677   6.006   1.185 -0.1105 -0.0930  0.0152
 3294W        W 6813   6.134   8.539   4.441  0.0887  0.3964  0.0643
 3295W        W 6814   8.397   8.082   4.433  0.1814  0.0948  0.1810
 3296W        W 6815   1.752   3.601   8.183 -0.0311 -0.3515 -0.0944
 3297W        W 6816   1.797   7.398   4.694  0.0607  0.2758 -0.0395
 3298W        W 6817   6.787   3.550   3.140 -0.2056  0.1241  0.0199
 3299W        W 6818   8.398   1.832   3.760 -0.0559 -0.1320 -0.0525
 3300W        W 6819   2.226   1.790  11.806  0.0010  0.3122  0.1717
 3301W        W 6820   1.370   0.052   4.091  0.0088  0.0332  0.1661
 3302W        W 6821   6.488   8.323   3.923  0.0974 -0.1798 -0.0985
 3303W        W 6822   7.116   8.053   3.383  0.1682 -0.0153  0.3423
 3304W        W 6823   5.963   3.215   4.230  0.1043 -0.1408 -0.0599
 3305W        W 6824   9.203   2.396   3.575 -0.0106 -0.1140  0.3137
 3306W        W 6825   6.069   7.190  11.344 -0.0383 -0.1080  0.1235
 3307W        W 6826   4.568   9.382   1.951  0.2357  0.3219 -0.3478
 3308W        W 6827   8.741   3.126   8.980  0.3278 -0.1875  0.1715
 3309W        W 6828   5.852   6.603   1.426  0.0714  0.1280 -0.0724
 3310W        W 6829   4.704   2.384   1.789 -0.1300 -0.1691  0.2153
 3311W        W 6830   8.604   0.934   2.849  0.2397  0.0136 -0.0104
 3312W        W 6831   7.172   1.587   0.052  0.1457 -0.0092  0.1111
 3313W        W 6832   8.700   9.514   3.204  0.0180 -0.0131 -0.1378
 3314W        W 6833   0.063   6.107   1.753 -0.0029 -0.3304 -0.2415
 3315W        W 6834   6.898   2.045   0.695 -0.2122 -0.1522  0.0827
 3316W        W 6835   6.469   0.754   2.347 -0.1082  0.0664  0.1093
 3317W        W 6836   5.946   7.295   9.921 -0.1697  0.1137  0.3226
 3318W        W 6837   7.620   8.904  11.759  0.0011  0.3551 -0.0142
 3319W        W 6838   4.621   8.464   9.910  0.1992 -0.3577 -0.2021
 3320W        W 6839   7.601   3.989   0.893  0.3667 -0.0313  0.2572
 3321W        W 6840   4.273   6.132   0.608 -0.1764  0.1791  0.1558
 3322W        W 6841   0.345   0.155   2.236  0.1862 -0.1906  0.1564
 3323W        W 6842   4.189   7.065  11.592  0.1537  0.0610 -0.1320
 3324W        W 6843   6.812   6.237   3.210  0.0340 -0.1869 -0.0719
 3325W        W 6844   2.811   1.709   1.606  0.1360  0.2238 -0.0811
 3326W        W 6845   6.146   7.644   0.641  0.0953  0.1532 -0.1074
 3327W        W 6846   6.589   5.966   0.002  0.0334  0.2157  0.2405
 3328W        W 6847   3.119   0.117   1.146 -0.2209 -0.0802  0.1215
 3329W        W 6848   7.078   3.912   1.924  0.1264  0.2269  0.1687
 3330W        W 6849   2.027   6.053   0.199  0.1968 -0.2307  0.0156
 3331W        W 6850   3.320   7.497  11.545 -0.0233 -0.3148 -0.1025
 3332W        W 6851   0.950   4.309   8.076  0.2397  0.3498  0.0877
 3333W        W 6852   3.580   1.899   1.840  0.1279 -0.2611  0.1939
 3334W        W 6853   0.599   3.304   8.841 -0.1230 -0.4916  0.1809
 3335W        W 6854   3.995   9.653   8.196  0.0396  0.0838  0.1831
 3336W        W 6855   3.646   7.816   2.353  0.4193  0.0597 -0.1175
 3337W        W 6856   3.494   1.575   0.401  0.1485  0.0415 -0.2268
 3338W        W 6857   0.265   1.109  10.027 -0.0661  0.0422  0.0385
 3339W        W 6858   5.971   6.216   2.695  0.3850 -0.0696 -0.0654
 3340W        W 6859   7.895   1.205   9.910 -0.0376  0.3818 -0.0833
 3341W        W 6860   0.658   4.499  10.667  0.2211 -0.0155 -0.2357
 3342W        W 6861   0.937   2.906   8.826 -0.0029 -0.0670  0.1346
 3343W        W 6862   8.226   2.904  10.567  0.3383 -0.0785 -0.2395
 3344W        W 6863   4.479   6.026   9.476  0.0782 -0.1469  0.1911
 3345W        W 6864   6.983   1.034   9.094 -0.1413 -0.1126  0.1162
 3346W        W 6865   2.370   4.176   8.120  0.1614 -0.0097  0.1850
 3347W        W 6866   8.944   9.493   4.569 -0.0304  0.0833  0.2338
 3348W        W 6867   1.093   5.039   0.263 -0.1439 -0.0598 -0.0558
 3349W        W 6868   5.186   8.702   2.412  0.2128 -0.0196 -0.1733
 3350W        W 6869   6.004   1.510   9.901  0.1448 -0.1419 -0.0028
 3351W        W 6870   3.421   0.031   9.575  0.1899  0.1609 -0.1162
 3352W        W 6871   8.020   5.136   9.682 -0.0166 -0.2033 -0.1043
 3353W        W 6872   8.468   9.508   9.707  0.1107 -0.2103 -0.2352
 3354W        W 6873   5.316   8.163  10.545  0.1612 -0.3286  0.3833
 3355W        W 6874   8.429   4.223   2.616  0.0344 -0.4937 -0.0035
 3356W        W 6875   4.986   9.621   1.561  0.0116 -0.0363  0.0384
 3357W        W 6876   0.720   6.295   8.798  0.0286  0.1024  0.2065
 3358W        W 6877   0.598   9.159  11.049  0.0456  0.0223 -0.0185
 3359W        W 6878   4.187   2.147   4.320  0.2115  0.2814 -0.0361
 3360W        W 6879   5.817   8.889   9.962 -0.1818 -0.1995  0.1754
 3361W        W 6880   7.206   0.188   0.447  0.1619 -0.4327  0.0381
 3362W        W 6881   8.613   1.102  10.488 -0.1583 -0.3375  0.1380
 3363W        W 6882   4.303   3.566   2.165 -0.0381  0.1251  0.0509
 3364W        W 6883   6.733   7.979  10.247  0.1394  0.1579  0.2529
 3365W        W 6884   6.845   8.191  10.692 -0.0088 -0.2121 -0.0686
 3366W        W 6885   4.818   9.346   1.154  0.1772  0.0499 -0.0680
 3367W        W 6886   8.871   2.595   1.070 -0.1912 -0.0381  0.0116
 3368W        W 6887   8.751   6.184   9.537 -0.2776 -0.0933  0.1048
 3369W        W 6888   1.421   6.694   1.362 -0.3166 -0.1325  0.2002
 3370W        W 6889   5.669   7.297   0.520  0.2839 -0.2712  0.3175
 3371W        W 6890   9.936   1.744  11.686  0.4332 -0.1737  0.0354
 3372W        W 6891   3.884   2.094  10.242 -0.0605  0.1722 -0.3983
 3373W        W 6892   9.448   2.798   0.279  0.1317 -0.2158 -0.1037
 3374W        W 6893   9.478   6.895   1.191 -0.1075 -0.3777 -0.0146
 3375W        W 6894   6.708   6.241  10.170 -0.0805 -0.0824  0.0126
 3376W        W 6895   9.351   7.074  10.539 -0.0856  0.1795 -0.2254
 3377W        W 6896   6.026   2.764  11.743 -0.2091  0.1348  0.0284
 3378W        W 6897   0.093   7.629   4.361 -0.1261  0.0556 -0.0647
 3379W        W 6898   9.258   9.156   9.186 -0.0116  0.1976  0.2278
 3380W        W 6899   9.773   9.714   1.097 -0.1188 -0.3768 -0.1954
 3381W        W 6900   0.317   8.163   9.181  0.3024  0.0164  0.2440
 3382W        W 6901   6.273   9.130   8.484  0.0116 -0.2668 -0.1726
 3383W        W 6902   0.920   2.120  11.854  0.1676 -0.0081 -0.1047
 3384W        W 6903   1.201   2.263   0.883 -0.1747  0.0001 -0.0282
 3385W        W 6904   1.336   6.245   2.052  0.1812  0.1343 -0.1500
 3386W        W 6905   0.196   3.288  11.909  0.0040 -0.0900  0.0390
 3387W        W 6906   0.716   3.353   9.366 -0.1779 -0.0924 -0.3336
 3388W        W 6907   3.618   7.686   0.021 -0.0156  0.0884  0.1853
 3389W        W 6908   0.882   9.860   0.338 -0.1305 -0.1998 -0.0650
 3390W        W 6909   5.309   2.118  11.462 -0.2852 -0.1177  0.3434
 3391W        W 6910   1.538   2.913   0.602  0.1656 -0.3036 -0.1654
 3392W        W 6911   0.262   6.328  10.937  0.1036 -0.1486 -0.4043
 3393W        W 6912   2.593   0.426   2.572  0.1212 -0.2539  0.0934
 3394W        W 6913   7.306   2.241  10.543  0.2022 -0.0504 -0.3534
 3395W        W 6914   2.545   1.340   3.717 -0.1516 -0.2876  0.1081
 3396W        W 6915   9.273   9.480  10.458 -0.2589 -0.2352  0.0030
 3397W        W 6916   4.705   1.240  11.415  0.2377  0.1237 -0.2342
 3398W        W 6917   5.747   6.840   9.730  0.1258 -0.2567  0.1027
 3399W        W 6918   8.686   6.630   1.406 -0.1360  0.1931 -0.2445
 3400W        W 6919   0.904   0.408  10.410 -0.2216 -0.0004  0.0196
 3401W        W 6920   0.237   5.724   0.199 -0.0329  0.1387  0.3779
 3402W        W 6921   7.087   2.751   0.005  0.0451 -0.0310  0.0092
 3403W        W 6922   3.078   1.430   0.753 -0.0707  0.3048 -0.0120
 3404W        W 6923   8.023   0.964   3.475 -0.2367  0.2434 -0.1051
 3405W        W 6924   9.701   2.673   0.714 -0.0325 -0.0348  0.0401
 3406W        W 6925   5.410   9.377  11.725 -0.0345 -0.1405  0.2764
 3407W        W 6926   3.100   7.627   0.021 -0.0244 -0.0276 -0.1019
 3408W        W 6927   9.862   4.611   2.263 -0.0052  0.1841  0.2146
 3409W        W 6928   1.755   5.890   8.911 -0.0299  0.1033  0.1775
 3410W        W 6929   0.366   0.796   1.283  0.4406 -0.0986  0.1022
 3411W        W 6930   7.690   3.049   8.750 -0.0091 -0.2438 -0.1727
 3412W        W 6931   0.781   8.703   1.799 -0.0529 -0.1540  0.2225
 3413W        W 6932   5.113   8.609  10.422  0.1726 -0.0724 -0.2879
 3414W        W 6933   9.738   3.513  10.940 -0.0063  0.1407 -0.0712
 3415W        W 6934   1.258   7.081   8.825 -0.0144 -0.1463  0.0327
 3416W        W 6935   4.512   7.393   2.603 -0.0819  0.0118  0.2757
 3417W        W 6936   4.901   2.880   8.930  0.1697  0.2243 -0.0079
 3418W        W 6937   5.651   1.747  10.740 -0.3625  0.1503 -0.4277
 3419W        W 6938   2.557   8.145   1.411  0.0739  0.0487  0.0140
 3420W        W 6939   5.638   7.798   0.687 -0.1098  0.1611 -0.0592
 3421W        W 6940   0.464   8.747   1.173 -0.1468  0.0446 -0.0244
 3422W        W 6941   7.069   9.461  11.099 -0.3343 -0.1956 -0.1015
 3423W        W 6942   2.683   5.110  11.902  0.0765 -0.0021  0.3448
 3424W        W 6943   1.788   1.684   9.130 -0.0416  0.0956 -0.0235
 3425W        W 6944   0.065   2.869  10.445 -0.0569  0.0535 -0.1303
 3426W        W 6945   5.389   6.908  10.615  0.1635  0.0010  0.3232
 3427W        W 6946   7.783   5.926   2.006 -0.0014 -0.0478  0.0065
 3428W        W 6947   5.932   7.633   4.337 -0.2718 -0.0122  0.4149
 3429W        W 6948   9.682   3.770   2.839  0.5501 -0.0146  0.2435
 3430W        W 6949   1.820   8.223   3.768 -0.0901 -0.0023 -0.0682
 3431W        W 6950   1.870   6.517   0.353  0.1523 -0.3210  0.1186
 3432W        W 6951   1.929   8.291   0.014  0.3624  0.0423 -0.0650
 3433W        W 6952   3.606   1.320  10.682 -0.2831 -0.1419 -0.0320
 3434W        W 6953   6.802   5.325  10.217 -0.1969 -0.0530  0.1146
 3435W        W 6954   4.194   3.276   1.596 -0.0251 -0.1773 -0.1861
 3436W        W 6955   5.197   9.712   1.114  0.1334 -0.3000  0.2015
 3437W        W 6956   1.860   9.426   3.334  0.2146  0.2272 -0.0328
 3438W        W 6957   8.130   4.487   1.864  0.0856  0.1245  0.2396
 3439W        W 6958   3.269   0.295  11.309 -0.0909 -0.0967 -0.1010
 3440W        W 6959   1.390   1.159   2.613  0.0399 -0.4315 -0.3480
 3441W        W 6960   8.293   8.163   2.671 -0.0788 -0.1368 -0.0819
 3442W        W 6961   9.353   9.021   8.708  0.2068 -0.0480  0.0754
 3443W        W 6962   8.190   8.141  10.617  0.3586 -0.2917  0.0311
 3444W        W 6963   0.099   9.787  11.761  0.3907  0.0467  0.0630
 3445W        W 6964   1.358   1.433  11.275  0.0303  0.1532 -0.0959
 3446W        W 6965   8.143   0.766   3.002  0.0714  0.2166  0.1510
 3447W        W 6966   6.640   1.247   2.229  0.3397  0.0402  0.0047
 3448W        W 6967   9.688   5.057   2.426  0.0082  0.1920  0.0215
 3449W        W 6968   6.581   8.271   2.490  0.0133 -0.3295  0.0871
 3450W        W 6969   4.128   5.368   1.905 -0.1148  0.3331 -0.0087
 3451W        W 6970   1.808   5.825   2.099 -0.2176  0.0342  0.1190
 3452W        W 6971   1.322   2.582   8.131 -0.0525 -0.0859  0.3237
 3453W        W 6972   0.913   0.156   2.394  0.1475 -0.0693 -0.2286
 3454W        W 6973   3.868   2.213  10.937 -0.0850 -0.3319 -0.0176
 3455W        W 6974   6.101   2.038  11.024  0.0508  0.1243 -0.0915
 3456W        W 6975   6.287   2.805   9.435 -0.0230 -0.0940  0.1403
 3457W        W 6976   6.671   9.756  10.633 -0.0864  0.2468 -0.0669
 3458W        W 6977   9.468   2.045   1.788 -0.1321 -0.0155  0.1547
 3459W        W 6978   7.521   7.709   1.568  0.1177 -0.1650 -0.3913
 3460W        W 6979   0.329   8.480   3.035 -0.0698 -0.3451 -0.0337
 3461W        W 6980   0.617   5.944  11.416  0.1623  0.2142 -0.4093
 3462W        W 6981   5.160   3.091   0.635 -0.1052  0.0791 -0.0344
 3463W        W 6982   0.141   4.989   9.032 -0.1632 -0.3088  0.2549
 3464W        W 6983   5.002   4.245  10.859 -0.1579 -0.0742  0.0453
 3465W        W 6984   6.691   4.266   2.751  0.2053 -0.1512 -0.0231
 3466W        W 6985   0.247   5.196   0.276 -0.1496  0.4375  0.1758
 3467W        W 6986   7.426   8.093   9.370 -0.0652  0.0412  0.4631
 3468W        W 6987   4.063   6.325   9.603 -0.0661 -0.0190 -0.0040
 3469W        W 6988   9.504   5.637   1.908 -0.3597  0.3277  0.2954
 3470W        W 6989   9.812   5.489  11.926  0.2657  0.1765 -0.1541
 3471W        W 6990   9.737   2.708   1.297 -0.1485  0.1336  0.3484
 3472W        W 6991   9.119   3.745   0.242 -0.1322  0.2008  0.0300
 3473W        W 6992   8.721   0.165   1.751 -0.2108 -0.1296 -0.0622
 3474W        W 6993   2.759   8.763   9.810  0.1544 -0.3423 -0.3633
 3475W        W 6994   2.315   9.334  11.382  0.3063 -0.0474  0.0755
 3476W        W 6995   9.242   4.986   9.841 -0.2100  0.0261 -0.0241
 3477W        W 6996   2.933   2.859  11.249 -0.0844 -0.0836 -0.3015
 3478W        W 6997   1.124   3.415   3.393 -0.2647  0.4917 -0.2273
 3479W        W 6998   4.113   4.731   7.926 -0.1546  0.1668  0.2205
 3480W        W 6999   9.318   8.294   2.821  0.1265  0.0990  0.3056
 3481W        W 7000   4.514   0.142   0.662 -0.3643  0.0594 -0.0792
 3482W        W 7001   6.315   0.030   2.737  0.3081  0.1137 -0.2587
 3483W        W 7002   1.649   5.526  10.353 -0.0809 -0.1131 -0.1798
 3484W        W 7003   7.893   8.296   9.591 -0.2981  0.0603  0.0334
 3485W        W 7004   3.221   4.329   8.572  0.0920 -0.0424  0.2522
 3486W        W 7005   5.065   7.184   4.587 -0.3926 -0.2153 -0.2693
 3487W        W 7006   0.309   0.160   2.756  0.1734  0.2212 -0.2277
 3488W        W 7007   8.224   8.054   8.796  0.2460  0.0066  0.1458
 3489W        W 7008   0.523   9.650   0.017  0.0574 -0.1179 -0.0555
 3490W        W 7009   7.739   6.826   0.319 -0.1336 -0.1115  0.1705
 3491W        W 7010   4.053   9.369   0.496 -0.1247  0.3342 -0.1389
 3492W        W 7011   5.237   8.626   4.451  0.0925 -0.0985 -0.3328
 3493W        W 7012   1.293   0.264   9.540  0.0383  0.0855 -0.1492
 3494W        W 7013   3.022   8.905   0.263 -0.0711  0.2755 -0.2823
 3495W        W 7014   8.013   7.733   4.505  0.0632  0.2494  0.1380
 3496W        W 7015   9.423   0.140   0.157 -0.3046  0.0852 -0.2756
 3497W        W 7016   9.475   9.428   9.936 -0.1352  0.2119  0.1687
 3498W        W 7017   6.153   9.851   4.168 -0.2489 -0.0014  0.0873
 3499W        W 7018   3.757   5.507   1.025  0.0384  0.1312 -0.1446
 3500W        W 7019   5.288   9.561   3.466 -0.1079  0.3352  0.0841
 3501W        W 7020   4.242   7.347   8.920  0.0542  0.0220  0.1974
 3502W        W 7021   8.543   1.250   0.706  0.1331 -0.1517 -0.0098
 3503W        W 7022   1.388   2.972   2.179 -0.1132  0.2863  0.0408
 3504W        W 7023   4.063   4.124   9.176 -0.2938 -0.0290 -0.0643
 3505W        W 7024   7.524   6.973  10.980 -0.2079  0.2627 -0.0407
 3506W        W 7025   5.995   5.722  10.782  0.3619  0.0981  0.1098
 3507W        W 7026   9.168   1.362   4.277  0.4518 -0.2307 -0.2520
 3508W        W 7027   4.789   2.632   9.321  0.0006  0.2193 -0.1593
 3509W        W 7028   8.108   2.586   2.060 -0.2260  0.1868 -0.0013
 3510W        W 7029   3.279   8.988  10.569  0.0997 -0.4879 -0.1240
 3511W        W 7030   4.378   0.415   8.685  0.0684 -0.0979  0.0700
 3512W        W 7031   0.934   8.841   9.861 -0.0992  0.0706 -0.2787
 3513W        W 7032   4.947   3.931   0.214  0.1130 -0.0212  0.1526
 3514W        W 7033   1.583   3.762   1.784  0.2015  0.2137  0.2166
 3515W        W 7034   3.727   6.699   0.741  0.5219 -0.0991 -0.3115
 3516W        W 7035   5.744   2.350  11.946  0.1815 -0.2722  0.2119
 3517W        W 7036   8.582   9.001   2.224  0.1019  0.2345  0.1729
 3518W        W 7037   4.477   8.938   4.810  0.2490 -0.0264 -0.3070
 3519W        W 7038   2.100   5.549   0.292 -0.2875  0.1163  0.1551
 3520W        W 7039   8.829   4.934   9.090  0.0155 -0.0952 -0.1804
 3521W        W 7040   7.033   6.412   0.703 -0.0150  0.0846  0.1125
 3522W        W 7041   8.826   7.856  11.520  0.0776  0.2247 -0.0311
 3523W        W 7042   9.350   3.114   2.783  0.0077  0.1502  0.1655
 3524W        W 7043   5.445   4.790   1.126 -0.1022  0.1449 -0.0488
 3525W        W 7044   2.889   0.576   4.290  0.3781  0.4069  0.3341
 3526W        W 7045   8.701   5.853   1.405  0.2406 -0.0704 -0.5210
 3527W        W 7046   4.286   4.150   8.654  0.2976 -0.0984 -0.0141
 3528W        W 7047   5.624   1.093   2.169  0.5184  0.1000 -0.0509
 3529W        W 7048   3.469   4.153   1.633  0.5637 -0.2822  0.4116
 3530W        W 7049   1.353   2.584   8.700 -0.0725  0.2650 -0.0712
 3531W        W 7050   2.803   8.232  10.867  0.2918  0.0166  0.3870
 3532W        W 7051   2.766   4.579   1.690  0.1654 -0.3629 -0.3545
 3533W        W 7052   9.399   1.131  10.044 -0.2272  0.2613 -0.1089
 3534W        W 7053   4.791   8.234  11.357  0.3304 -0.1682  0.1798
 3535W        W 7054   4.621   6.007  11.131  0.1129  0.1487  0.0828
 3536W        W 7055   7.685   6.660   9.862 -0.2319 -0.1841 -0.0007
 3537W        W 7056   4.213   8.126   0.671 -0.1768  0.0025  0.0533
 3538W        W 7057   4.615   4.318   9.058 -0.2456  0.1396  0.0160
 3539W        W 7058   6.750   2.292   0.254 -0.1421 -0.2784 -0.0577
 3540W        W 7059   0.771   6.525   4.582  0.0301  0.2575 -0.0950
 3541W        W 7060   4.244   2.964   3.292 -0.0397 -0.0448  0.1240
 3542W        W 7061   7.007   0.041   3.609 -0.0415  0.4387 -0.0346
 3543W        W 7062   8.957   3.751   0.711 -0.1139  0.0438  0.0458
 3544W        W 7063   6.248   8.541   3.555  0.1351 -0.3999  0.2944
 3545W        W 7064   4.643   7.230   0.197 -0.2611  0.0781  0.3590
 3546W        W 7065   4.850   2.437   0.227  0.1494  0.1003  0.0134
 3547W        W 7066   5.424   0.292   1.038 -0.4085  0.1006 -0.1456
 3548W        W 7067   4.663   6.957  11.693 -0.3344 -0.0586 -0.1043
 3549W        W 7068   3.868   8.176   2.690 -0.3130 -0.0326  0.0890
 3550W        W 7069   6.407   5.477   1.107  0.1594 -0.1625 -0.0474
 3551W        W 7070   5.115   0.535   8.262 -0.1843  0.0702  0.0652
 3552W        W 7071   5.095   9.399  10.013  0.1618 -0.1303  0.0681
 3553W        W 7072   9.699   3.429   2.495  0.0603  0.0127  0.0905
 3554W        W 7073   7.070   0.538  10.593 -0.2603  0.3401 -0.0067
 3555W        W 7074   6.341   1.033   1.888 -0.3754  0.0716  0.1630
 3556W        W 7075   5.798   5.984   0.572 -0.0530 -0.1273 -0.0019
 3557W        W 7076   6.453   3.172   3.234  0.1440 -0.1354  0.3225
 3558W        W 7077   3.116   1.719   2.958  0.2817  0.3099  0.0871
 3559W        W 7078   0.026   8.879   9.878  0.0296 -0.2641  0.0425
 3560W        W 7079   6.258   0.617  10.240 -0.1498  0.0122 -0.3394
 3561W        W 7080   9.359   2.464   9.969  0.2961  0.0642  0.1664
 3562W        W 7081   2.065   8.445   2.318 -0.0803 -0.0673 -0.1013
 3563W        W 7082   0.604   9.233   1.257 -0.1795 -0.1029 -0.1208
 3564W        W 7083   0.429   6.243  10.032  0.0392  0.1595 -0.0476
 3565W        W 7084   7.425   2.095   0.765  0.0398  0.0195  0.2784
 3566W        W 7085   3.514   4.487   0.029  0.1496 -0.0080 -0.3089
 3567W        W 7086   6.021   8.181   9.402  0.0181  0.0557  0.3103
 3568W        W 7087   1.094   6.907   3.634  0.2225  0.1906  0.0526
 3569W        W 7088   0.504   7.683   9.323 -0.2465  0.0302  0.4941
 3570W        W 7089   0.540   7.320   1.253 -0.2268 -0.2263  0.2023
 3571W        W 7090   6.485   6.787   3.318  0.0867  0.1246  0.0159
 3572W        W 7091   4.801   2.414   8.785 -0.0376  0.1328 -0.2071
 3573W        W 7092   7.722   1.010   0.494 -0.0196 -0.0846 -0.1547
 3574W        W 7093   8.764   1.670  11.747  0.2652  0.0574  0.2371
 3575W        W 7094   9.569   4.074   0.064  0.1447  0.0129 -0.1863
 3576W        W 7095   8.064   7.228  10.828  0.0571 -0.1036 -0.3004
 3577W        W 7096   9.248   3.811  11.717  0.0228  0.0637 -0.2608
 3578W        W 7097   6.903   0.474   1.233 -0.3083 -0.0332  0.0738
 3579W        W 7098   7.655   0.268   0.759  0.1250 -0.2449  0.0098
 3580W        W 7099   8.084   7.082   0.604  0.3001  0.5589 -0.1102
 3581W        W 7100   0.311   4.424   3.601  0.1001  0.0617 -0.5531
 3582W        W 7101   7.129   0.152   8.973  0.2080  0.0853 -0.0095
 3583W        W 7102   9.490   1.867   9.817 -0.1163 -0.1455  0.3405
 3584W        W 7103   3.125   7.986   1.638 -0.1208  0.1295  0.1309
 3585W        W 7104   3.633   6.956   2.518  0.1368 -0.2068 -0.1240
 3586W        W 7105   3.302   5.110  10.640  0.0974  0.0966 -0.0471
 3587W        W 7106   4.834   4.599   1.089  0.0635 -0.0469 -0.1075
 3588W        W 7107   0.384   2.708  10.056 -0.1466 -0.0291 -0.1546
 3589W        W 7108   1.420   4.277  10.664  0.1350 -0.1154 -0.0078
 3590W        W 7109   4.960   4.236   2.307  0.1101  0.1789 -0.0888
 3591W        W 7110   7.233   1.370   9.387  0.1295 -0.1586 -0.1743
 3592W        W 7111   3.146   8.154   3.116 -0.3936  0.0260  0.2524
 3593W        W 7112   3.543   0.116   4.962  0.0138  0.0551  0.0524
 3594W        W 7113   8.207   4.815   0.186  0.2025 -0.2893 -0.2420
 3595W        W 7114   8.647   1.008   1.794  0.2211  0.0560  0.2469
 3596W        W 7115   8.510   5.388   9.757 -0.0831 -0.0955 -0.1765
 3597W        W 7116   3.300   7.230   0.173 -0.0354 -0.1063  0.2875
 3598W        W 7117   9.889   7.107   9.830  0.2505 -0.2488  0.2546
 3599W        W 7118   6.221   2.881   1.119  0.1888 -0.3186 -0.0352
 3600W        W 7119   1.993   5.928  10.372  0.1551  0.0181 -0.1661
 3601W        W 7120   1.782   3.800   9.489 -0.1903 -0.0041  0.1618
 3602W        W 7121   3.120   1.875   1.014 -0.0123 -0.1412  0.2426
 3603W        W 7122   5.507   3.116   3.348 -0.0758  0.1712  0.1362
 3604W        W 7123   1.038   8.253  10.877 -0.0757  0.1416 -0.0045
 3605W        W 7124   3.464   9.273   4.114 -0.1476 -0.0226 -0.0489
 3606W        W 7125   7.678   2.752   8.238 -0.0498 -0.1513 -0.3659
 3607W        W 7126   2.869   8.677   5.362 -0.0820  0.1977  0.2258
 3608W        W 7127   6.653   3.215   2.720 -0.2432 -0.1102  0.3926
 3609W        W 7128   6.059   4.438   8.360  0.0986  0.0740  0.0472
 3610W        W 7129   4.823   1.802   9.859  0.0209 -0.2372 -0.2021
 3611W        W 7130   3.152   9.705   1.545 -0.0448 -0.3185 -0.0991
 3612W        W 7131   8.864   1.161  10.080  0.0180  0.0409 -0.0922
 3613W        W 7132   3.412   0.907   2.230 -0.1014 -0.0684  0.0038
 3614W        W 7133   0.261   8.680  11.762  0.2634 -0.0524 -0.0037
 3615W        W 7134   3.776   9.867  10.584 -0.0209 -0.1471 -0.5112
 3616W        W 7135   9.721   0.608   3.832  0.1309 -0.3977 -0.1835
 3617W        W 7136   6.485   3.760   8.130 -0.0220  0.0252  0.3480
 3618W        W 7137   4.211   5.906  10.816 -0.2399  0.0018  0.1978
 3619W        W 7138   2.588   1.081  11.597  0.0377 -0.0010  0.0035
 3620W        W 7139   0.921   0.687   3.113 -0.0687  0.1687 -0.0235
 3621W        W 7140   5.816   6.532   3.698  0.2067 -0.1790  0.1955
 3622W        W 7141   8.352   5.948   3.222  0.1723 -0.0846 -0.3408
 3623W        W 7142   9.519   6.878   2.620  0.0765 -0.1901  0.3655
 3624W        W 7143   0.310   8.257  11.389  0.0757 -0.3427 -0.2404
 3625W        W 7144   8.354   7.508   3.010 -0.2243 -0.0868  0.1023
 3626W        W 7145   8.942   7.353  11.286 -0.0198  0.1361  0.0712
 3627W        W 7146   8.906   4.381   2.256  0.2185 -0.2461 -0.0704
 3628W        W 7147   5.105   0.637   1.410 -0.2284  0.1457 -0.0285
 3629W        W 7148   4.625   2.586  10.226  0.2354  0.4848  0.0296
 3630W        W 7149   8.999   4.421   3.188 -0.2647  0.0557 -0.2547
 3631W        W 7150   5.715   5.452   0.321 -0.0341  0.0721  0.2524
 3632W        W 7151   3.792   9.116   4.650  0.1367 -0.0913  0.0864
 3633W        W 7152   5.373   4.037  11.305 -0.0809  0.1719  0.0069
 3634W        W 7153   1.315   8.853   4.450  0.0934 -0.0839  0.2390
 3635W        W 7154   9.808   7.672   3.782  0.2851  0.2548 -0.1342
 3636W        W 7155   8.660   7.235   3.272  0.1070 -0.1449  0.1288
 3637W        W 7156   7.891   8.183   2.354 -0.2018 -0.0513  0.0467
 3638W        W 7157   2.541   0.427   2.088  0.1806 -0.2040  0.0877
 3639W        W 7158   9.556   4.589   2.766 -0.1741 -0.2758 -0.0506
 3640W        W 7159   3.841   4.484   0.389  0.0313  0.1782 -0.0290
 3641W        W 7160   6.245   5.529   8.653  0.3966  0.0422  0.1681
 3642W        W 7161   0.684   3.234  10.936 -0.3847 -0.0431 -0.0352
 3643W        W 7162   1.173   0.551   2.173  0.2140  0.0871 -0.2312
 3644W        W 7163   9.453   0.051   8.274  0.1697 -0.2322 -0.1420
 3645W        W 7164   0.280   4.199   2.263 -0.1744 -0.0648 -0.5532
 3646W        W 7165   7.891   2.529   1.401 -0.2419 -0.4678  0.3674
 3647W        W 7166   2.065   0.764   3.859  0.3526  0.3121  0.0319
 3648W        W 7167   2.540   1.804   2.726 -0.0813  0.1964  0.0090
 3649W        W 7168   4.342   1.503   2.135  0.1248 -0.2800  0.0458
 3650W        W 7169   6.884   5.691   2.020  0.3730 -0.0437  0.0003
 3651W        W 7170   8.318   7.237  11.563  0.0232  0.1495  0.1327
 3652W        W 7171   1.670   9.848   0.671  0.0590 -0.3307 -0.1666
 3653W        W 7172   1.110   4.683   2.606  0.0939  0.3294  0.0464
 3654W        W 7173   7.971   3.644  10.499 -0.2383 -0.2942  0.1133
 3655W        W 7174   8.362   0.951   1.097 -0.0132  0.0616  0.3250
 3656W        W 7175   6.326   1.822   1.160  0.3581 -0.3263  0.2252
 3657W        W 7176   5.893   5.902  11.381 -0.3783 -0.0444 -0.2993
 3658W        W 7177   6.281   6.614   9.186 -0.0409  0.0527  0.2255
 3659W        W 7178   0.603   3.764   0.051  0.0005 -0.0990  0.3311
 3660W        W 7179   8.727   5.663  10.606  0.2039 -0.1421  0.2964
 3661W        W 7180   0.847   9.002   8.497  0.0784  0.2882  0.0514
 3662W        W 7181   4.476   2.239   3.869 -0.0819  0.3197  0.0153
 3663W        W 7182   0.155   8.145   3.488  0.4206 -0.1105  0.1631
 3664W        W 7183   5.549   2.538  11.405  0.0426  0.0944 -0.2699
 3665W        W 7184   9.041   0.113  11.603 -0.4081  0.0657 -0.1026
 3666W        W 7185   3.166   6.746   0.829 -0.0350 -0.1376 -0.0696
 3667W        W 7186   2.536   7.574   3.266  0.2390 -0.2259 -0.1557
 3668W        W 7187   3.247   4.746  10.243  0.1319 -0.1280  0.0893
 3669W        W 7188   4.565   9.894  11.267  0.1158 -0.1083  0.1106
 3670W        W 7189   8.396   4.577   4.102 -0.1838 -0.0653 -0.0431
 3671W        W 7190   1.274   6.874   4.241 -0.1395 -0.1102 -0.2784
 3672W        W 7191   2.323   0.936  10.299  0.1254 -0.0127  0.0192
 3673W        W 7192   1.297   7.334  10.628 -0.0989 -0.0620 -0.0272
 3674W        W 7193   5.841   7.693  10.155 -0.0802 -0.2055 -0.0615
 3675W        W 7194   9.563   9.916  10.594 -0.2669  0.1786 -0.1612
 3676W        W 7195   3.151   9.394   0.082 -0.2471  0.0626  0.0449
 3677W        W 7196   6.005   5.645  10.260 -0.0319 -0.0264  0.2698
 3678W        W 7197   7.079   7.596  10.477  0.5576  0.3605  0.2026
 3679W        W 7198   5.956   6.669   3.243  0.2709  0.1261 -0.0804
 3680W        W 7199   5.075   3.463  10.679  0.1228  0.0214 -0.1167
 3681W        W 7200   5.963   1.920   2.596 -0.6105 -0.2772  0.5962
 3682W        W 7201   7.196   7.402   2.170  0.3209 -0.0009  0.1982
 3683W        W 7202   6.193   7.812  11.017 -0.0275 -0.2280  0.1801
 3684W        W 7203   4.026   9.735   1.293 -0.0101  0.0293 -0.0213
 3685W        W 7204   5.301   5.183  10.197 -0.0327  0.3721 -0.1826
 3686W        W 7205   4.369   3.583   8.730 -0.0909 -0.1780  0.0905
 3687W        W 7206   4.646   9.832   1.117 -0.1300 -0.1126 -0.0680
 3688W        W 7207   3.887   3.692   8.531 -0.4712  0.1226 -0.1726
 3689W        W 7208   7.024   9.502   9.550 -0.0894  0.0852 -0.0691
 3690W        W 7209   7.559   6.399   0.515 -0.4019  0.2336  0.1885
 3691W        W 7210   4.632   4.084  11.807 -0.0302 -0.3388 -0.1764
 3692W        W 7211   2.722   5.729   3.644  0.0603  0.1042 -0.2371
 3693W        W 7212   5.294   7.967   9.698  0.1727 -0.2333 -0.2082
 3694W        W 7213   8.212   6.617   4.776  0.1909 -0.4096  0.1800
 3695W        W 7214   1.274   7.283  11.161 -0.0600  0.1475 -0.0677
 3696W        W 7215   2.073   5.582  10.740  0.1247 -0.1139  0.0816
 3697W        W 7216   1.639   3.546   9.064  0.0378 -0.0225  0.0149
 3698W        W 7217   2.471   6.533   9.955 -0.0855  0.4445  0.0457
 3699W        W 7218   6.219   3.865  10.361 -0.0862 -0.2454  0.0577
 3700W        W 7219   4.202   3.275   9.520  0.3372  0.0703  0.0889
 3701W        W 7220   6.761   6.868  10.528 -0.2543 -0.2191  0.1451
 3702W        W 7221   4.355   0.589   0.865  0.2937  0.3959  0.2939
 3703W        W 7222   8.216   0.554   2.443 -0.1350 -0.0957  0.1616
 3704W        W 7223   7.111   3.919   0.830  0.1920  0.2065 -0.1419
 3705W        W 7224   4.481   4.838  11.860  0.1553  0.0472 -0.0765
 3706W        W 7225   1.432   8.093  10.009  0.0643 -0.2945 -0.3162
 3707W        W 7226   3.684   6.554   3.889 -0.0821 -0.1461  0.1322
 3708W        W 7227   9.851   3.752   9.397  0.0661 -0.4351 -0.0118
 3709W        W 7228   5.157   5.516   2.585 -0.2327 -0.1762 -0.3600
 3710W        W 7229   2.296   3.010   9.658 -0.0232 -0.0456 -0.1101
 3711W        W 7230   9.090   6.559  11.083 -0.1627  0.2256 -0.3662
 3712W        W 7231   2.159   0.872   9.348  0.2274  0.2811  0.0216
 3713W        W 7232   9.170   3.979   1.133 -0.1430 -0.1055 -0.0670
 3714W        W 7233   9.835   8.535   0.153 -0.3098  0.2012  0.0129
 3715W        W 7234   5.253   1.189   3.931  0.0306 -0.1971  0.0316
 3716W        W 7235   0.993   6.031   9.206 -0.0857 -0.1784  0.1291
 3717W        W 7236   4.181   9.533   9.379  0.0669 -0.1300 -0.2282
 3718W        W 7237   0.297   3.503   9.644 -0.0113  0.2902 -0.2291
 3719W        W 7238   8.410   2.741   2.485 -0.0510 -0.1312  0.1011
 3720W        W 7239   7.919   1.268   1.016  0.4637  0.1124  0.2146
 3721W        W 7240   8.458   6.103   1.850 -0.4141 -0.0234 -0.0600
 3722W        W 7241   2.119   0.291   2.947 -0.1197  0.1723 -0.4331
 3723W        W 7242   4.897   1.757   0.032  0.1616  0.1382  0.0120
 3724W        W 7243   9.471   8.701   3.968  0.1909 -0.1469 -0.3307
 3725W        W 7244   6.465   1.457  10.081 -0.1578  0.1719  0.0388
 3726W        W 7245   8.011   4.524  11.784  0.2616  0.2904  0.2939
 3727W        W 7246   9.038   9.625  10.904  0.2186  0.0695  0.0682
 3728W        W 7247   9.665   5.521   3.113  0.0138 -0.0218  0.0930
 3729W        W 7248   8.943   2.158  11.603 -0.2574 -0.1943 -0.0009
 3730W        W 7249   0.325   5.085   2.960  0.3803  0.0564 -0.0927
 3731W        W 7250   5.766   0.178   1.427 -0.0535  0.0540  0.1693
 3732W        W 7251   5.230   7.449  10.884  0.3850  0.0407  0.0683
 3733W        W 7252   2.766   5.786   9.995 -0.2565  0.0387 -0.0595
 3734W        W 7253   6.394   3.652   3.438  0.0581 -0.1013 -0.0093
 3735W        W 7254   2.977   9.100   4.291 -0.0698 -0.0279  0.2410
 3736W        W 7255   2.423   5.296   1.779 -0.0593  0.0981 -0.0298
 3737W        W 7256   2.482   0.948   1.106 -0.2162 -0.2319 -0.0659
 3738W        W 7257   5.360   7.224   3.268 -0.2861  0.0546  0.0909
 3739W        W 7258   7.526   9.671  10.319 -0.4057  0.1635  0.1635
 3740W        W 7259   0.551   9.713   2.551  0.0698  0.1360 -0.0484
 3741W        W 7260   5.731   0.013  10.632  0.0333  0.0302 -0.0605
 3742W        W 7261   6.308   3.071  10.144 -0.0906  0.3380 -0.3190
 3743W        W 7262   1.771   8.242   3.135 -0.0408 -0.0980  0.1564
 3744W        W 7263   3.472   0.351   3.110  0.2875 -0.1672  0.0557
 3745W        W 7264   4.052   6.056   2.227 -0.1973  0.0899  0.1481
 3746W        W 7265   8.451   1.327   4.493 -0.0403 -0.0102  0.2323
 3747W        W 7266   5.603   3.489  10.588  0.1259 -0.0571  0.0018
 3748W        W 7267   9.415   9.714   3.659 -0.0587 -0.0821  0.0666
 3749W        W 7268   2.626   3.220   8.255 -0.0492 -0.2789  0.0297
 3750W        W 7269   8.392   1.353   1.478  0.2579 -0.0412 -0.0126
 3751W        W 7270   6.705   1.426   3.588 -0.1665 -0.1636  0.0938
 3752W        W 7271   8.101   4.932   1.687  0.2539  0.2520 -0.1758
 3753W        W 7272   2.418   5.904   0.530 -0.1780 -0.0225  0.0598
 3754W        W 7273   2.174   5.233   1.283 -0.1587 -0.0827 -0.0178
 3755W        W 7274   5.937   4.711   8.812 -0.0704 -0.0678 -0.3845
 3756W        W 7275   8.643   6.774   0.083  0.1178  0.1089 -0.1461
 3757W        W 7276   9.631   1.781   9.345 -0.0488  0.1573 -0.1055
 3758W        W 7277   5.632   8.898   1.618 -0.1325 -0.1100  0.2610
 3759W        W 7278   8.858   1.563   4.610 -0.0960 -0.3726  0.2421
 3760W        W 7279   2.096   4.599   1.405 -0.2399 -0.0019 -0.0765
 3761W        W 7280   5.212   0.845   9.715 -0.1739 -0.2452  0.2720
 3762W        W 7281   6.292   2.929  11.334  0.0004  0.2707 -0.3280
 3763W        W 7282   5.818   6.867   0.916  0.0090  0.1129  0.0051
 3764W        W 7283   8.627   9.888  11.797 -0.0438 -0.0012 -0.1520
 3765W        W 7284   4.911   5.512  10.072 -0.0673 -0.0701 -0.0522
 3766W        W 7285   0.250   3.490   9.153 -0.0261  0.1159  0.0493
 3767W        W 7286   9.769   8.628   0.720  0.0049  0.0566 -0.0076
 3768W        W 7287   5.252   5.380   9.691 -0.2407 -0.3336 -0.1792
 3769W        W 7288   4.182   4.157  10.424 -0.1272  0.1692 -0.0461
 3770W        W 7289   7.036   9.852  11.429 -0.2273 -0.0692  0.1597
 3771W        W 7290   3.439   0.591   9.985  0.0819  0.2437 -0.1501
 3772W        W 7291   6.496   8.326   3.096 -0.3601 -0.1381 -0.0881
 3773W        W 7292   8.156   7.131   2.168  0.1610 -0.2489 -0.1879
 3774W        W 7293   2.527   5.448   9.125 -0.2070  0.0734 -0.2015
 3775W        W 7294   5.018   4.722   8.415 -0.0346 -0.0649  0.0364
 3776W        W 7295   2.462   1.129   9.815  0.0460  0.2519  0.0460
 3777W        W 7296   2.898   6.489  10.968  0.2330 -0.0917  0.1956
 3778W        W 7297   6.387   2.140   0.775 -0.1819 -0.1397  0.2848
 3779W        W 7298   4.553   9.093   3.667  0.2690 -0.0840 -0.1636
 3780W        W 7299   3.055   3.562   2.270  0.1144  0.2128 -0.0078
 3781W        W 7300   1.513   4.276   8.627  0.2577  0.0582  0.1832
 3782W        W 7301   4.062   2.694   1.532  0.0409  0.0497 -0.2426
 3783W        W 7302   9.621   6.628   2.151 -0.0306 -0.0680  0.0015
 3784W        W 7303   2.585   7.470   0.488  0.3194 -0.2634  0.0114
 3785W        W 7304   4.867   9.675   3.771 -0.0492  0.4560 -0.0373
 3786W        W 7305   6.509   5.696  10.140 -0.2787  0.0101  0.3801
 3787W        W 7306   8.458   8.666  11.907 -0.0672 -0.2361 -0.1025
 3788W        W 7307   2.396   0.463   0.929 -0.0069  0.0502  0.2088
 3789W        W 7308   7.541   0.723   4.144 -0.1428 -0.0198 -0.1475
 3790W        W 7309   4.084   0.130  10.970  0.1340 -0.0539  0.4584
 3791W        W 7310   1.051   0.478  11.257 -0.1747 -0.0005  0.2461
 3792W        W 7311   0.199   7.306   1.642  0.3012 -0.2443  0.3160
 3793W        W 7312   2.354   1.758   4.487 -0.2157  0.1509  0.0587
 3794W        W 7313   5.407   9.596   2.978  0.2939 -0.1428 -0.2399
 3795W        W 7314   7.262   5.330   3.596 -0.0820 -0.3904  0.2294
 3796W        W 7315   4.995   4.385   1.609  0.1124  0.0587  0.2633
 3797W        W 7316   0.135   4.241   9.225 -0.1143  0.2204  0.2389
 3798W        W 7317   3.292   7.278  11.026 -0.0822 -0.4249 -0.2092
 3799W        W 7318   6.324   2.243   9.198 -0.0847 -0.1277  0.0720
 3800W        W 7319   4.960   0.483   9.442  0.2060  0.2138 -0.0196
 3801W        W 7320   4.564   0.684   9.113  0.1292  0.2267  0.4401
 3802W        W 7321   0.324   5.783   1.275 -0.1544 -0.1531 -0.2677
 3803W        W 7322   4.838   0.148   9.881  0.2191  0.0334  0.1246
 3804W        W 7323   5.131   9.734   9.644 -0.2657  0.1215  0.2868
 3805W        W 7324   8.690   1.363   4.066  0.1289  0.0803 -0.0882
 3806W        W 7325   9.640   5.144   1.970  0.0355 -0.0028 -0.2546
 3807W        W 7326   0.974   5.194   1.480  0.0972 -0.0198 -0.1315
 3808W        W 7327   1.437   6.121   3.048  0.0418  0.3187 -0.0225
 3809W        W 7328   9.616   9.029  11.171 -0.1066  0.1005  0.1652
 3810W        W 7329   0.091   6.035   2.623 -0.1793  0.2822  0.0721
 3811W        W 7330   0.237   1.997   1.296 -0.2180  0.1621  0.1830
 3812W        W 7331   6.770   7.766   8.926  0.0314 -0.1282 -0.0366
 3813W        W 7332   7.319   8.707   4.944  0.1737 -0.1792 -0.3218
 3814W        W 7333   9.343   8.678  10.028 -0.2382  0.2132  0.0492
 3815W        W 7334   2.523   6.319  11.794 -0.0707  0.1777 -0.2974
 3816W        W 7335   4.581   6.497  11.373 -0.4122 -0.5439  0.0974
 3817W        W 7336   0.290   5.174   9.491 -0.0753  0.0030 -0.0652
 3818W        W 7337   0.068   8.638   3.600  0.4276 -0.3158  0.0495
 3819W        W 7338   5.370   0.299   1.754  0.0110 -0.0836 -0.0975
 3820W        W 7339   4.075   0.366  10.543  0.4309  0.0519 -0.1214
 3821W        W 7340   7.982   6.405   2.226  0.1157 -0.1242  0.0821
 3822W        W 7341   9.760   1.806   0.173 -0.3073  0.2271 -0.2724
 3823W        W 7342   9.169   9.617   3.177 -0.1821 -0.2460 -0.2858
 3824W        W 7343   4.999   0.536   4.700 -0.2433 -0.1541 -0.3798
 3825W        W 7344   6.786   0.867  11.323 -0.0796  0.0066  0.1578
 3826W        W 7345   9.031   6.602  10.555 -0.0402 -0.0256  0.1326
 3827W        W 7346   3.378   6.444  10.796  0.0935  0.1849  0.5485
 3828W        W 7347   7.298   7.112   0.093 -0.0239 -0.1307  0.0983
 3829W        W 7348   7.841   9.922  11.651  0.2256  0.1763 -0.1227
 3830W        W 7349   9.596   2.474   2.525  0.2153 -0.0917 -0.0819
 3831W        W 7350   5.296   8.746   1.148 -0.2416  0.0241  0.0584
 3832W        W 7351   5.926   6.138   1.704  0.2928  0.3673  0.0593
 3833W        W 7352   7.424   5.345   2.737 -0.2219  0.0109  0.0508
 3834W        W 7353   3.633   3.271   1.533  0.1712 -0.1948  0.1265
 3835W        W 7354   7.284   6.589   0.157  0.0555 -0.0955  0.1769
 3836W        W 7355   1.974   5.207   0.638  0.0826  0.0627 -0.3114
 3837W        W 7356   2.890   1.826  10.268  0.0480  0.1651 -0.2428
 3838W        W 7357   0.178   3.699   0.271 -0.2439  0.0118 -0.0594
 3839W        W 7358   4.505   7.454   9.817  0.0141  0.1786  0.0638
 3840W        W 7359   2.816   8.653  10.406  0.1403  0.2134 -0.0943
 3841W        W 7360   6.658   7.754   1.525  0.2725  0.1721  0.1822
 3842W        W 7361   6.200   3.862   4.350  0.0313 -0.1486  0.1921
 3843W        W 7362   7.935   9.012   0.483  0.0582 -0.1534 -0.0554
 3844W        W 7363   4.103   4.570   8.965  0.1693  0.2961  0.0155
 3845W        W 7364   9.825   2.451  10.187 -0.1712  0.0074 -0.1205
 3846W        W 7365   1.280   9.409   3.064  0.0036  0.0345 -0.2276
 3847W        W 7366   8.417   5.420   1.287 -0.0231 -0.0963  0.0549
 3848W        W 7367   9.292   7.594   2.065  0.0680  0.3281 -0.0091
 3849W        W 7368   6.528   7.490   2.761  0.0400 -0.2437 -0.0678
 3850W        W 7369   2.257   9.691   0.389 -0.1547 -0.1878  0.5899
 3851W        W 7370   4.411   2.306   2.853 -0.0925  0.2258  0.1537
 3852W        W 7371   8.841   7.989   2.725 -0.1369  0.0878 -0.0841
 3853W        W 7372   3.484   5.130  10.080 -0.1031  0.0480  0.2998
 3854W        W 7373   8.683   1.350   8.711  0.2087  0.1891 -0.1877
 3855W        W 7374   4.920   4.528  10.031  0.1091 -0.0520 -0.0202
 3856W        W 7375   0.582   8.064   3.215  0.2555 -0.2372 -0.0993
 3857W        W 7376   9.451   1.580  10.289  0.3589 -0.0408  0.3009
 3858W        W 7377   8.049   5.826   9.201 -0.0239  0.1368 -0.0265
 3859W        W 7378   6.366   7.089   1.959  0.1783  0.0879 -0.0235
 3860W        W 7379   3.005   2.519   1.506  0.1955  0.1967  0.3412
 3861W        W 7380   3.294   3.603   9.252  0.1921  0.2218 -0.0407
 3862W        W 7381   2.654   7.053   9.222 -0.2568 -0.3271  0.1260
 3863W        W 7382   9.125   3.982   9.605 -0.0392 -0.2513  0.0080
 3864W        W 7383   2.719   6.603   8.993  0.2094  0.2531 -0.0488
 3865W        W 7384   7.901   7.683   2.151 -0.0542 -0.0426 -0.1732
 3866W        W 7385   0.725   3.925   2.255 -0.1397 -0.4130  0.1281
 3867W        W 7386   5.187   1.234  11.219  0.1487 -0.2319 -0.0043
 3868W        W 7387   3.270   6.232   3.206 -0.0007  0.2888  0.1475
 3869W        W 7388   6.795   4.526   0.119  0.1017 -0.2803 -0.1709
 3870W        W 7389   1.768   5.996   9.867 -0.2446 -0.1483 -0.2061
 3871W        W 7390   2.161   3.263   2.403  0.0962  0.0793 -0.2846
 3872W        W 7391   0.189   5.588   2.920  0.0159  0.0060  0.0584
 3873W        W 7392   9.439   4.000   0.559 -0.2147 -0.0038 -0.4051
 3874W        W 7393   0.272   0.977   0.838 -0.2705 -0.3481 -0.1415
 3875W        W 7394   2.505   3.735   8.939  0.0209 -0.0580  0.0416
 3876W        W 7395   7.151   7.420  10.925  0.0610 -0.1814 -0.2077
 3877W        W 7396   8.339   5.200   2.891  0.1779  0.0080 -0.2254
 3878W        W 7397   8.181   6.649   9.686  0.0502  0.1207  0.1824
 3879W        W 7398   1.116   3.027  10.608 -0.0828  0.0751  0.0924
 3880W        W 7399   1.264   1.467   3.322  0.1685  0.0770  0.2487
 3881W        W 7400   3.046   9.193   5.254 -0.1402  0.1623 -0.0601
 3882W        W 7401   8.243   9.609  11.431 -0.0920  0.3741  0.3119
 3883W        W 7402   8.776   6.254   1.044 -0.0650 -0.3723 -0.2018
 3884W        W 7403   4.357   1.203   9.122 -0.2214 -0.2564 -0.1734
 3885W        W 7404   8.419   9.398  10.285 -0.2054  0.4922 -0.0038
 3886W        W 7405   1.369   0.231   3.357  0.2549  0.0225 -0.1761
 3887W        W 7406   1.211   1.489  10.127  0.1473  0.0834 -0.0204
 3888W        W 7407   1.191   0.745   0.226  0.0149  0.0440 -0.3718
 3889W        W 7408   9.027   7.229   0.271 -0.0994 -0.1041  0.2915
 3890W        W 7409   7.708   2.576   2.423 -0.1657 -0.0489 -0.0298
 3891W        W 7410   8.633   6.367   0.582 -0.0642 -0.0854 -0.0967
 3892W        W 7411   1.905   8.196  10.325 -0.1418  0.1184  0.0591
 3893W        W 7412   1.847   3.929   0.798 -0.2174  0.0935 -0.1164
 3894W        W 7413   2.772   9.113  11.793  0.2257 -0.2196 -0.0805
 3895W        W 7414   4.699   9.818   9.396  0.1387  0.0081  0.1090
 3896W        W 7415   8.648   0.500  11.563  0.0586  0.0654 -0.0049
 3897W        W 7416   9.848   9.145   1.010  0.1703 -0.0387  0.2330
 3898W        W 7417   6.247   0.197   0.539  0.0306 -0.0715 -0.1520
 3899W        W 7418   9.806   2.288   0.402 -0.1605  0.0323  0.0280
 3900W        W 7419   3.385   6.963   3.606  0.1409  0.2246  0.0007
 3901W        W 7420   3.628   6.659   2.102  0.0712  0.4274  0.2309
 3902W        W 7421   8.310   5.689   2.694 -0.2679 -0.2029  0.1344
 3903W        W 7422   5.898   5.509   3.801  0.0616  0.0852 -0.0781
 3904W        W 7423   7.098   2.675   1.592  0.3143 -0.0689 -0.2627
 3905W        W 7424   5.186   6.774   1.526 -0.1648 -0.1550 -0.0104
 3906W        W 7425   1.320   2.670  11.296 -0.2307  0.1313  0.5122
 3907W        W 7426   2.957   4.505   9.147  0.2615 -0.1531 -0.1763
 3908W        W 7427   0.083   2.764   0.318 -0.0487 -0.0273  0.2276
 3909W        W 7428   0.699   9.514   3.990  0.0004 -0.1785 -0.2037
 3910W        W 7429   3.089   4.520   2.431 -0.0884 -0.3104  0.0910
 3911W        W 7430   5.123   4.888   0.801 -0.0292  0.0331 -0.1690
 3912W        W 7431   0.775   7.813   1.277  0.1787 -0.2691  0.1368
 3913W        W 7432   4.805   1.429   3.698 -0.0103  0.3519 -0.1191
 3914W        W 7433   1.074   6.257   0.100 -0.0047  0.0762  0.1847
 3915W        W 7434   5.202   7.650   3.694 -0.3269 -0.3235 -0.3616
 3916W        W 7435   8.898   2.138   4.639  0.2864 -0.0327  0.2041
 3917W        W 7436   5.420   7.052  10.077  0.2779  0.2222  0.2037
 3918W        W 7437   5.277   1.237  11.732 -0.0586  0.4032 -0.1420
 3919W        W 7438   7.687   9.576   3.599  0.0708  0.2129  0.2103
 3920W        W 7439   0.815   2.823   9.573  0.1847 -0.1277 -0.1946
 3921W        W 7440   6.028   7.093   0.141 -0.3280  0.1586  0.0177
 3922W        W 7441   1.455   1.980   2.044 -0.2414 -0.0878  0.1908
 3923W        W 7442   0.819   4.029  10.433 -0.1970 -0.0086  0.1054
 3924W        W 7443   4.654   3.118   8.104  0.0721 -0.1279  0.0309
 3925W        W 7444   0.046   6.940   1.256  0.0326 -0.2012 -0.2326
 3926W        W 7445   6.963   9.115   2.116  0.0286  0.0698  0.1074
 3927W        W 7446   4.065   9.226   3.676 -0.0817 -0.1941 -0.0760
 3928W        W 7447   3.659   8.501  11.621 -0.3266 -0.2539  0.3591
 3929W        W 7448   1.596   0.779   2.335 -0.0906  0.1254  0.0305
 3930W        W 7449   4.146   9.546   3.228 -0.1988 -0.2411  0.1589
 3931W        W 7450   5.813   5.126   1.711 -0.1138  0.1442  0.1599
 3932W        W 7451   7.646   2.047   1.606  0.1934  0.1042 -0.1390
 3933W        W 7452   3.908   9.875   0.473  0.2727 -0.1910 -0.1605
 3934W        W 7453   1.358   2.456   0.354  0.1300  0.1237 -0.1217
 3935W        W 7454   4.476   3.764   9.165  0.0650 -0.4270 -0.0763
 3936W        W 7455   0.131   9.263   2.751  0.1102 -0.1412 -0.1738
 3937W        W 7456   0.744   5.106   1.992  0.1204 -0.1597  0.1467
 3938W        W 7457   7.541   8.414  10.225 -0.1514  0.0627  0.1263
 3939W        W 7458   5.008   8.269   5.272  0.1099 -0.2646 -0.2591
 3940W        W 7459   3.897   5.537  10.848  0.0050  0.0277  0.3221
 3941W        W 7460   9.659   9.388   0.583  0.0196  0.0974  0.1984
 3942W        W 7461   6.593   5.799   9.439  0.0931  0.1072 -0.2200
 3943W        W 7462   0.808   5.391   2.834  0.3187 -0.2014  0.2952
 3944W        W 7463   1.682   3.537   0.409  0.1294 -0.0750  0.1211
 3945W        W 7464   2.746   1.496   1.088  0.3474 -0.0833  0.1255
 3946W        W 7465   9.748   4.162   3.545 -0.0837 -0.0824  0.2994
 3947W        W 7466   7.497   6.452   8.845 -0.1466 -0.2254  0.1033
 3948W        W 7467   8.498   4.257   3.156  0.4068  0.0984 -0.3106
 3949W        W 7468   9.280   3.500   9.684 -0.2676  0.0362  0.1302
 3950W        W 7469   1.283   8.852   1.955  0.1086 -0.1833  0.0472
 3951W        W 7470   2.541   3.399   9.725  0.0605 -0.1154 -0.1586
 3952W        W 7471   7.465   7.963   2.953 -0.0964 -0.2379  0.2637
 3953W        W 7472   6.428   9.871   0.143  0.1572  0.0112  0.1515
 3954W        W 7473   4.718   2.722   3.831 -0.2991 -0.2249  0.1696
 3955W        W 7474   0.110   2.689   2.323 -0.1108 -0.3370 -0.0084
 3956W        W 7475   7.781   4.563   8.729 -0.2158 -0.1621  0.1114
 3957W        W 7476   2.849   4.923   8.157  0.3404  0.2265 -0.0166
 3958W        W 7477   1.070   9.078  10.416 -0.1337  0.1075 -0.2240
 3959W        W 7478   2.702   6.875  11.247 -0.5564 -0.3330 -0.1026
 3960W        W 7479   9.138   3.026   3.579 -0.0098  0.1979  0.2656
 3961W        W 7480   9.797   2.660   9.718  0.0469 -0.3182 -0.0754
 3962W        W 7481   9.296   4.285   3.754 -0.2355 -0.0263 -0.1042
 3963W        W 7482   7.809   1.208   3.025  0.0585  0.1467  0.0521
 3964W        W 7483   7.553   5.437   3.204 -0.1086  0.0391  0.0227
 3965W        W 7484   0.971   2.641   0.105  0.0763 -0.0463  0.2368
 3966W        W 7485   6.282   4.781   1.998  0.3589  0.1305 -0.0875
 3967W        W 7486   5.597   8.977   0.046 -0.1781  0.0632 -0.0530
 3968W        W 7487   6.090   1.663   3.815 -0.1491 -0.1969  0.1113
 3969W        W 7488   4.699   9.457   3.380 -0.1881  0.2252  0.1675
 3970W        W 7489   9.214   8.703  11.877 -0.0769 -0.0895  0.0908
 3971W        W 7490   0.887   6.983  11.043  0.3103  0.1812 -0.0303
 3972W        W 7491   4.051   8.784  11.287  0.2201 -0.1778  0.0125
 3973W        W 7492   6.640   1.381   9.628  0.0675 -0.2294  0.0253
 3974W        W 7493   8.214   2.362  10.600 -0.5505  0.1259  0.1754
 3975W        W 7494   4.633   9.195  10.437  0.2181  0.2222  0.1206
 3976W        W 7495   8.163   9.423   3.349  0.0063  0.0192  0.1939
 3977W        W 7496   5.695   3.691  11.699 -0.0469 -0.0545  0.0003
 3978W        W 7497   3.923   5.027   0.200 -0.0219 -0.0105 -0.0667
 3979W        W 7498   4.839   3.412   0.188 -0.0176  0.0727 -0.0566
 3980W        W 7499   8.532   7.090   9.891 -0.1149  0.2606  0.1937
 3981W        W 7500   6.830   6.645   4.441 -0.0300 -0.3510 -0.2583
 3982W        W 7501   0.996   5.960  10.665  0.1712 -0.1277  0.0078
 3983W        W 7502   3.884   5.032   1.098 -0.5213 -0.0241  0.1707
 3984W        W 7503   3.512   0.248   0.775  0.0502 -0.0715  0.1710
 3985W        W 7504   7.708   1.447   9.447  0.1013 -0.1374  0.2395
 3986W        W 7505   9.782   4.642   3.703 -0.0158  0.0460 -0.1578
 3987W        W 7506   6.222   2.376   2.763 -0.0904  0.1944  0.0983
 3988W        W 7507   5.690   8.478   2.030  0.2284 -0.2976 -0.0893
 3989W        W 7508   0.500   6.084   2.222  0.2131 -0.0549  0.2713
 3990W        W 7509   4.201   8.728   1.310 -0.0350 -0.0326 -0.0496
 3991W        W 7510   2.205   9.792   3.135 -0.0725  0.0371  0.0785
 3992W        W 7511   0.229   0.027   1.750 -0.4669  0.1093 -0.4117
 3993W        W 7512   3.478   6.527   2.846 -0.1162  0.2784 -0.1690
 3994W        W 7513   9.595   1.177   3.087  0.1882 -0.0205 -0.1810
 3995W        W 7514   8.028   3.597   0.912 -0.5742  0.1333  0.2649
 3996W        W 7515   9.763   6.862  10.305 -0.0382  0.0568 -0.0610
 3997W        W 7516   5.703   6.435   0.782  0.1767 -0.0113 -0.1960
 3998W        W 7517   2.636   8.663   3.186 -0.0777  0.0070 -0.1617
 3999W        W 7518   2.331   6.772   9.422  0.2112  0.1224 -0.0337
 4000W        W 7519   0.553   5.456  11.848 -0.2066 -0.0715  0.0573
 4001W        W 7520   5.237   4.358  10.399 -0.2527 -0.1429 -0.0369
 4002W        W 7521   3.876   1.319   3.885 -0.1828  0.1480 -0.0187
 4003W        W 7522   7.366   4.793  10.025  0.0505  0.1303 -0.4400
 4004W        W 7523   0.476   2.230   8.615 -0.0338 -0.3574 -0.2747
 4005W        W 7524   6.874   7.599   5.208 -0.2036 -0.0470 -0.0707
 4006W        W 7525   6.954   5.273  11.622  0.0453 -0.0798  0.3933
 4007W        W 7526   2.858   6.482   4.002 -0.3069 -0.3135  0.1517
 4008W        W 7527   4.827   7.655  11.657 -0.0893  0.0186 -0.1111
 4009W        W 7528   9.545   2.885  10.155 -0.1437  0.1523 -0.0015
 4010W        W 7529   3.484   2.687  11.128 -0.4177  0.0527 -0.2034
 4011W        W 7530   7.279   2.278   2.488  0.3074  0.2196  0.0369
 4012W        W 7531   7.765   4.690   1.317 -0.1906  0.0469  0.0654
 4013W        W 7532   3.420   3.218   9.997  0.2377  0.2296  0.0335
 4014W        W 7533   4.786   0.594   2.131 -0.0529 -0.3795 -0.0335
 4015W        W 7534   5.520   2.711   0.770 -0.1277 -0.3332  0.1984
 4016W        W 7535   7.535   6.249   1.543  0.3023 -0.1662 -0.1915
 4017W        W 7536   3.413   4.997   0.176 -0.1967  0.0482 -0.0913
 4018W        W 7537   1.584   4.906   0.583  0.1284  0.0946  0.4306
 4019W        W 7538   5.047   1.902   1.930  0.2924  0.2236  0.2441
 4020W        W 7539   4.016   3.554  11.282 -0.3262  0.3349 -0.1590
 4021W        W 7540   4.600   5.270   3.516  0.0190 -0.0045 -0.0783
 4022W        W 7541   8.773   9.671   1.494  0.0814  0.1250  0.0035
 4023W        W 7542   7.557   3.068   2.132 -0.0936 -0.3010  0.0917
 4024W        W 7543   3.777   7.258  10.641 -0.1892 -0.0786  0.1171
 4025W        W 7544   6.343   3.529   2.919  0.3518 -0.1640  0.0032
 4026W        W 7545   5.475   0.526   4.428 -0.1458  0.0791 -0.0496
 4027W        W 7546   8.668   2.217   4.141 -0.1207  0.1581 -0.0829
 4028W        W 7547   6.826   7.579   3.493  0.2897 -0.0801  0.1722
 4029W        W 7548   4.679   1.355   3.211  0.1871  0.2674  0.0383
 4030W        W 7549   4.519   5.911   4.507  0.1327  0.1662 -0.0562
 4031W        W 7550   9.085   9.220   2.323  0.1782  0.0946  0.0167
 4032W        W 7551   1.253   0.580   2.705 -0.2748  0.1721  0.1744
 4033W        W 7552   2.619   1.994   2.203  0.1195  0.1273  0.1832
 4034W        W 7553   6.309   6.700   4.273 -0.1684  0.1113 -0.1479
 4035W        W 7554   7.311   3.689   3.459 -0.0938 -0.0434 -0.0906
 4036W        W 7555   1.040   0.348   4.455 -0.1698  0.1900  0.1389
 4037W        W 7556   3.588   4.761   2.404  0.1665  0.2099 -0.0551
 4038W        W 7557   2.524   3.889   0.206  0.0312  0.1192 -0.1872
 4039W        W 7558   5.261   9.697   2.525 -0.3147  0.2656  0.3508
 4040W        W 7559   2.315   0.566   9.781 -0.3698  0.2199  0.0372
 4041W        W 7560   3.379   5.525   2.808  0.0209 -0.2496  0.1963
 4042W        W 7561   1.754   5.363   1.069  0.1657 -0.0190  0.2299
 4043W        W 7562   2.252   0.906  11.944 -0.0200 -0.0348  0.1038
 4044W        W 7563   1.162   5.421  11.910 -0.2763  0.0545  0.0419
 4045W        W 7564   6.098   4.692   9.382  0.1746  0.1302 -0.1312
 4046W        W 7565   0.404   0.140  11.065 -0.0661  0.3015  0.0924
 4047W        W 7566   2.259   4.710   1.896 -0.0990 -0.0621 -0.2045
 4048W        W 7567   4.953   5.815   0.599 -0.1385 -0.3488  0.4354
 4049W        W 7568   6.321   5.652  11.644  0.0202  0.0460  0.1334
 4050W        W 7569   0.727   1.229   1.144  0.2615 -0.1279 -0.1038
 4051W        W 7570   2.195   9.150   0.473 -0.1187 -0.0734  0.3229
 4052W        W 7571   0.153   9.288  11.772  0.2569  0.0188  0.0738
 4053W        W 7572   5.785   1.274  11.475 -0.2551 -0.0695 -0.0202
 4054W        W 7573   0.306   4.928   8.420  0.1069 -0.1017  0.0120
 4055W        W 7574   0.320   2.855  10.924  0.2204 -0.0885 -0.2546
 4056W        W 7575   4.289   4.647   9.442  0.2801 -0.3237 -0.0656
 4057W        W 7576   8.227   3.878   9.669  0.1722  0.0654 -0.1516
 4058W        W 7577   4.462   9.888  10.671  0.1319  0.2088  0.0199
 4059W        W 7578   1.182   7.388  10.125  0.2389  0.1256  0.0886
 4060W        W 7579   2.204   9.415   2.758  0.3274  0.0338  0.2475
 4061W        W 7580   9.366   1.416  11.050 -0.0346 -0.2588  0.1677
 4062W        W 7581   9.463   4.543   1.282 -0.3661  0.1398 -0.0643
 4063W        W 7582   1.327   5.352   0.665 -0.1624  0.0360 -0.1772
 4064W        W 7583   2.342   6.947   1.944 -0.4447 -0.1569 -0.1255
 4065W        W 7584   5.762   3.605  11.199  0.2085 -0.1118  0.2020
 4066W        W 7585   0.629   1.370   0.521  0.3754  0.0896  0.1312
 4067W        W 7586   3.445   8.366   2.444  0.0042 -0.0337  0.1258
 4068W        W 7587   8.217   6.076   4.021 -0.0100  0.1277  0.0242
 4069W        W 7588   5.679   2.921   3.838 -0.1492  0.0483  0.1933
 4070W        W 7589   0.502   8.209   3.811  0.1109  0.0128 -0.3696
 4071W        W 7590   7.151   0.120   3.079  0.0578 -0.2042  0.0633
 4072W        W 7591   9.592   7.441   4.719 -0.0015 -0.0571 -0.1608
 4073W        W 7592   4.214   7.619  10.578  0.3267 -0.1323 -0.5740
 4074W        W 7593   7.006   7.067   3.300  0.0138  0.1755 -0.1539
 4075W        W 7594   3.101   6.713   3.148 -0.0123 -0.1420 -0.0831
 4076W        W 7595   2.167   2.251   0.503 -0.1348 -0.2250  0.0155
 4077W        W 7596   3.477   6.314   1.041 -0.0471 -0.0341  0.2668
 4078W        W 7597   6.966   4.644  10.355  0.2815 -0.1598  0.2987
 4079W        W 7598   1.410   4.421   2.160 -0.0560  0.1068  0.3770
 4080W        W 7599   4.880   9.525   2.895 -0.0884  0.1853 -0.1084
 4081W        W 7600   6.884   0.010  11.895  0.1634  0.2955  0.3701
 4082W        W 7601   6.340   5.218   8.251 -0.0985  0.0128  0.1390
 4083W        W 7602   6.920   9.093   3.269 -0.0913  0.2167  0.0509
 4084W        W 7603   6.076   0.168  11.706 -0.0724  0.1591 -0.0534
 4085W        W 7604   7.029   3.208   2.397 -0.2568 -0.2938 -0.1107
 4086W        W 7605   7.809   3.178   0.955 -0.2256 -0.3366  0.1405
 4087W        W 7606   8.721   3.416   0.364  0.0958 -0.2321 -0.2019
 4088W        W 7607   3.595   8.383   3.592 -0.2754 -0.1545  0.4050
 4089W        W 7608   5.701   5.702  11.787 -0.0819  0.2105 -0.1440
 4090W        W 7609   1.610   7.852   0.267  0.1225  0.0168  0.0182
 4091W        W 7610   5.487   4.838   9.207 -0.0610 -0.2823 -0.2245
 4092W        W 7611   4.534   7.123   9.441  0.1594  0.2193 -0.1634
 4093W        W 7612   7.565   9.763   4.022  0.1322 -0.0860 -0.2556
 4094W        W 7613   3.957   4.090   1.249  0.0924 -0.0576  0.0794
 4095W        W 7614   5.840   0.251  10.137 -0.1054  0.1790 -0.0009
 4096W        W 7615   3.965   4.419  10.764 -0.0301  0.2093  0.0269
 4097W        W 7616   9.651   5.348   1.502 -0.0491  0.2249  0.0568
 4098W        W 7617   8.053   3.179   8.336 -0.1406 -0.0672 -0.0951
 4099W        W 7618   0.854   5.905   8.505  0.0555  0.0377 -0.1039
 4100W        W 7619   9.224   0.563  11.655 -0.0729 -0.0146  0.0045
 4101W        W 7620   6.157   2.147   4.083 -0.2912  0.1674  0.1083
 4102W        W 7621   3.084   2.287  11.595 -0.1907  0.2597 -0.1304
 4103W        W 7622   0.727   0.611   4.069 -0.1627 -0.0563  0.0778
 4104W        W 7623   6.432   3.290  11.639 -0.2706 -0.2088 -0.1157
 4105W        W 7624   8.844   4.259   8.692  0.3272 -0.0708  0.1418
 4106W        W 7625   4.173   5.767   0.972  0.1964 -0.0098 -0.0444
 4107W        W 7626   5.312   3.104   2.046 -0.1330 -0.0954 -0.4734
 4108W        W 7627   6.437   0.671   0.495  0.4831 -0.2798  0.4295
 4109W        W 7628   6.485   6.600  10.889  0.0791 -0.3049  0.2821
 4110W        W 7629   8.031   8.735  11.489 -0.3529 -0.1016 -0.0210
 4111W        W 7630   8.834   3.859   4.610  0.1173 -0.0759  0.1221
 4112W        W 7631   1.433   9.237  10.086 -0.1243 -0.0812  0.0013
 4113W        W 7632   7.629   7.226   1.415 -0.0985  0.1218 -0.0726
 4114W        W 7633   3.369   9.843   2.427 -0.1473  0.0861  0.0705
 4115W        W 7634   8.690   9.184   1.064  0.1474 -0.0716 -0.1439
 4116W        W 7635   9.324   7.463  10.895  0.0683  0.0390  0.0667
 4117W        W 7636   8.843   9.452  10.037 -0.1519 -0.1495 -0.2158
 4118W        W 7637   8.695   1.504   9.489 -0.0705  0.0160  0.0814
 4119W        W 7638   0.489   1.971   2.752  0.3895 -0.1803 -0.5386
 4120W        W 7639   1.465   2.682   1.061  0.0187  0.0539 -0.3311
 4121W        W 7640   7.897   6.658  10.685 -0.1387  0.2163 -0.0421
 4122W        W 7641   7.701   2.393   0.465  0.0294  0.0207  0.6078
 4123W        W 7642   1.342   0.237   0.452 -0.0320 -0.0161 -0.0341
 4124W        W 7643   7.908   4.103  11.512 -0.0307  0.3690 -0.0980
 4125W        W 7644   5.060   9.129   0.225  0.0490 -0.0758 -0.0702
 4126W        W 7645   2.711   2.000   8.804  0.3936 -0.0193  0.1464
 4127W        W 7646   5.356   6.235   7.755 -0.2817 -0.1761 -0.0843
 4128W        W 7647   8.891   4.003  11.392  0.1817  0.1208 -0.3461
 4129W        W 7648   8.667   0.074  11.283  0.3126  0.0508  0.0317
 4130W        W 7649   6.612   4.012   1.640 -0.3941 -0.1523 -0.0300
 4131W        W 7650   2.765   6.104   1.434 -0.0315  0.0051 -0.1283
 4132W        W 7651   7.824   2.840   4.350 -0.5635 -0.1948 -0.1345
 4133W        W 7652   1.224   6.992   0.715  0.0264  0.0161  0.2892
 4134W        W 7653   5.873   2.403   9.332 -0.4189  0.0308  0.0658
 4135W        W 7654   3.602   1.529   2.883  0.1224  0.2707 -0.0231
 4136W        W 7655   6.122   8.965   1.339  0.2842 -0.2275 -0.2273
 4137W        W 7656   4.926   7.280  11.351 -0.2721 -0.4470 -0.1529
 4138W        W 7657   2.699   3.002   9.978 -0.0065  0.1194 -0.2328
 4139W        W 7658   6.202   6.690   8.087 -0.1678  0.4404  0.4076
 4140W        W 7659   8.370   9.507   1.189 -0.1315 -0.2578 -0.1222
 4141W        W 7660   7.199   9.554   0.661  0.1150  0.0679 -0.3028
 4142W        W 7661   0.782   4.867  10.195 -0.1722  0.3324  0.1271
 4143W        W 7662   1.212   1.739  11.742 -0.1535 -0.4214  0.1390
 4144W        W 7663   6.643   6.523   3.884  0.1233 -0.1233 -0.1146
 4145W        W 7664   3.109   2.827   9.683  0.1549 -0.0435  0.1919
 4146W        W 7665   6.860   3.086   9.314  0.0165 -0.0502  0.0081
 4147W        W 7666   0.730   7.441   2.124 -0.1634  0.0109  0.1641
 4148W        W 7667   5.427   1.455   4.298  0.0814 -0.2613 -0.1521
 4149W        W 7668   4.858   8.334  10.895 -0.2705  0.2024  0.3785
 4150W        W 7669   6.150   5.215   0.170 -0.2027  0.2520 -0.1326
 4151W        W 7670   7.587   6.429   2.038 -0.2057 -0.1608 -0.0578
 4152W        W 7671   5.689   1.660   3.403  0.1625  0.1700 -0.1319
 4153W        W 7672   2.494   2.023   0.219 -0.1904  0.0199 -0.0030
 4154W        W 7673   7.284   1.216   0.464  0.2207 -0.1858 -0.1841
 4155W        W 7674   7.859   4.905   0.574  0.0953 -0.0984  0.2307
 4156W        W 7675   7.472   3.304   1.662 -0.2030 -0.0140  0.0308
 4157W        W 7676   8.434   2.069   1.772  0.1066  0.1946 -0.1258
 4158W        W 7677   8.831   8.595   9.802  0.2718  0.0670  0.1401
 4159W        W 7678   5.515   8.466   9.596 -0.3651 -0.0816  0.0912
 4160W        W 7679   7.741   5.975   5.054  0.0614 -0.0421 -0.1326
 4161W        W 7680   8.939   8.481  10.321 -0.2114 -0.0330  0.0673
 4162W        W 7681   6.031   0.912  11.793  0.0785  0.0125 -0.2096
 4163W        W 7682   0.631   8.703  11.349 -0.1131 -0.0913 -0.0988
 4164W        W 7683   9.779   7.365  10.397  0.2938 -0.1388 -0.1900
 4165W        W 7684   5.336   0.085   3.751  0.0946  0.1216  0.0538
 4166W        W 7685   5.198   3.779   3.966 -0.1218  0.2404 -0.1916
 4167W        W 7686   7.328   1.115   0.944 -0.0880  0.1569 -0.1601
 4168W        W 7687   2.145   5.874   1.194  0.0212  0.2736  0.2276
 4169W        W 7688   6.580   4.951   0.149  0.2553  0.3265  0.3436
 4170W        W 7689   4.946   0.026   2.803 -0.1277  0.0410  0.0932
 4171W        W 7690   0.912   0.483   9.947 -0.0725  0.2524  0.2381
 4172W        W 7691   6.878   6.878  11.829  0.0886 -0.2340 -0.0669
 4173W        W 7692   6.261   6.223   0.396 -0.1325 -0.1990 -0.2469
 4174W        W 7693   8.529   9.175   3.634  0.1847 -0.1917  0.2585
 4175W        W 7694   3.325   0.736   0.842  0.2660 -0.0452 -0.0339
 4176W        W 7695   2.860   5.461   9.519 -0.3101 -0.1470 -0.3140
 4177W        W 7696   8.828   9.065  11.908  0.3782  0.0951  0.5134
 4178W        W 7697   6.309   6.022  10.459  0.1584  0.0416 -0.2901
 4179W        W 7698   2.716   0.064   4.475  0.3487  0.1638  0.0754
 4180W        W 7699   8.579   0.034   4.217 -0.0360 -0.0379 -0.1526
 4181W        W 7700   2.080   8.681   0.280  0.4725  0.6413 -0.0608
 4182W        W 7701   6.571   8.774   0.680  0.0269 -0.0455  0.1839
 4183W        W 7702   1.192   8.764   5.432  0.0159 -0.1085 -0.2436
 4184W        W 7703   5.019   9.600   0.083  0.1972  0.0381 -0.1922
 4185W        W 7704   1.570   8.413   4.730 -0.0732  0.1005  0.0918
 4186W        W 7705   7.603   4.306   9.126  0.0919  0.1434 -0.1181
 4187W        W 7706   6.508   2.317   4.982 -0.2147 -0.3087 -0.1653
 4188W        W 7707   1.709   6.831   0.682 -0.1134  0.1524 -0.0683
 4189W        W 7708   3.497   3.572   2.514 -0.0514 -0.0632 -0.0017
 4190W        W 7709   4.148   8.786  11.774 -0.3537  0.0796  0.0425
 4191W        W 7710   2.031   8.287   4.564 -0.0108  0.0583 -0.1521
 4192W        W 7711   1.882   5.492  11.235  0.0155 -0.0778  0.0047
 4193W        W 7712   4.362   5.125   2.886 -0.1053  0.0759  0.0254
 4194W        W 7713   1.359   5.754  11.556  0.0681 -0.0742 -0.2986
 4195W        W 7714   0.523   7.682   1.708 -0.0472  0.0167 -0.2690
 4196W        W 7715   0.752   6.299  11.092  0.0230 -0.0063 -0.0743
 4197W        W 7716   8.770   6.228   0.143 -0.3032  0.1569  0.2878
 4198W        W 7717   9.880   8.309   8.329 -0.2677 -0.2166 -0.0608
 4199W        W 7718   7.593   4.269  11.924 -0.1073  0.1085  0.4304
 4200W        W 7719   1.746   1.408  11.930  0.0968 -0.1115 -0.0218
 4201W        W 7720   9.519   6.169   8.459  0.0627  0.1768 -0.1828
 4202W        W 7721   0.151   6.686   3.813  0.4058 -0.2297 -0.1923
 4203W        W 7722   9.254   1.650   0.961 -0.3631  0.0185 -0.2455
 4204W        W 7723   3.654   8.242   0.919 -0.0862 -0.1742  0.1045
 4205W        W 7724   7.544   4.903  11.037  0.3570 -0.1742 -0.1383
 4206W        W 7725   3.614   0.599   4.103 -0.1094  0.0663 -0.2019
 4207W        W 7726   6.799   1.362  10.514  0.0958  0.2295  0.1813
 4208W        W 7727   2.112   3.007   9.203 -0.0544  0.1757  0.0710
 4209W        W 7728   9.942   7.095   4.420 -0.4641 -0.1887  0.0467
 4210W        W 7729   8.824   7.470   0.815  0.1967  0.2150  0.1809
 4211W        W 7730   8.011   2.255   3.151  0.0368  0.0876  0.1388
 4212W        W 7731   1.204   2.975   8.440 -0.1025 -0.1208  0.1479
 4213W        W 7732   8.729   8.372   1.453 -0.3256  0.2844 -0.0689
 4214W        W 7733   7.461   4.679  11.530 -0.0781 -0.1487 -0.0441
 4215W        W 7734   6.605   9.045   2.774 -0.0730 -0.1727 -0.0949
 4216W        W 7735   0.954   1.316   1.702 -0.1939  0.4275  0.1646
 4217W        W 7736   0.577   2.863   0.380 -0.1342  0.0935  0.0963
 4218W        W 7737   8.761   3.691   1.222  0.0103  0.0074  0.5078
 4219W        W 7738   6.046   3.207   9.672  0.2615 -0.4564  0.1403
 4220W        W 7739   2.691   0.921   5.196  0.1765  0.0324  0.1655
 4221W        W 7740   8.586   0.841   3.885 -0.0278 -0.1665  0.0445
 4222W        W 7741   4.888   5.134  11.847  0.3630 -0.2632 -0.0215
 4223W        W 7742   8.063   1.778   8.675 -0.0329  0.0685  0.0456
 4224W        W 7743   1.013   6.313  10.075  0.2981 -0.2005 -0.2423
 4225W        W 7744   5.722   6.937   2.411  0.1790 -0.0115 -0.0996
 4226W        W 7745   1.204   1.200  11.697  0.1487  0.0340  0.3128
 4227W        W 7746   4.386   3.792   0.207 -0.2912 -0.1049  0.1805
 4228W        W 7747   1.695   5.669   0.541 -0.0658 -0.5737  0.1543
 4229W        W 7748   9.368   3.018   9.725  0.2502 -0.0999  0.3238
 4230W        W 7749   1.888   0.982   2.969  0.0215  0.0681 -0.0600
 4231W        W 7750   3.762   2.996   3.108  0.2733 -0.0493 -0.0006
 4232W        W 7751   6.245   5.748   2.585 -0.0929  0.1043 -0.0822
 4233W        W 7752   5.735   4.136   2.810  0.1001 -0.2021 -0.0965
 4234W        W 7753   2.970   4.449   0.840  0.1873  0.1797  0.0821
 4235W        W 7754   7.994   5.308   8.639  0.0118  0.4499 -0.0345
 4236W        W 7755   9.444   9.463   2.713  0.1837 -0.1393 -0.3653
 4237W        W 7756   8.981   4.945  11.433 -0.0754  0.0741 -0.1159
 4238W        W 7757   4.544   3.108   4.096 -0.0385  0.0849 -0.1466
 4239W        W 7758   7.222   9.569   1.182 -0.0637  0.0926 -0.1882
 4240W        W 7759   2.217   8.413   1.698  0.1941  0.1680 -0.0803
 4241W        W 7760   1.802   2.426   2.842 -0.1391 -0.0176  0.3732
 4242W        W 7761   6.793   0.017   4.085  0.0917 -0.0076  0.0786
 4243W        W 7762   5.503   4.328   1.469 -0.2330  0.0461 -0.4067
 4244W        W 7763   2.658   2.721  10.412  0.1836 -0.4667 -0.2306
 4245W        W 7764   5.234   3.276   8.704 -0.0872 -0.1955  0.1660
 4246W        W 7765   4.859   0.206   3.867  0.0526  0.4792  0.1434
 4247W        W 7766   0.477   0.147  10.154  0.0592 -0.0833  0.2374
 4248W        W 7767   5.719   8.605   2.547 -0.1243 -0.1329 -0.1098
 4249W        W 7768   9.728   1.632   3.389  0.2187  0.1723  0.4298
 4250W        W 7769   7.308   7.039  10.059 -0.3320 -0.0826 -0.1497
 4251W        W 7770   3.471   9.087   1.015  0.1355  0.2318  0.0658
 4252W        W 7771   5.831   8.604   1.157  0.0610 -0.1659 -0.1803
 4253W        W 7772   2.865   6.180   3.545 -0.1828 -0.1101 -0.0196
 4254W        W 7773   0.048   0.260   3.569  0.0699 -0.0688 -0.4278
 4255W        W 7774   6.933   8.638   3.056 -0.1047  0.1302  0.0921
 4256W        W 7775   5.631   4.452  10.701  0.2299  0.1666  0.0598
 4257W        W 7776   0.570   1.853   9.525 -0.3673 -0.1248 -0.2996
 4258W        W 7777   4.436   4.892   1.889  0.1070 -0.1549  0.0197
 4259W        W 7778   2.981   5.714   9.020  0.0745  0.3048  0.1026
 4260W        W 7779   2.739   2.877   3.849 -0.1896  0.0739  0.1544
 4261W        W 7780   2.463   7.132  11.550 -0.0616 -0.0255 -0.0235
 4262W        W 7781   0.643   9.346  11.586  0.0117  0.2693 -0.2244
 4263W        W 7782   1.088   9.458   1.200  0.2815 -0.0585 -0.0214
 4264W        W 7783   3.573   2.768   9.474 -0.1052 -0.1200  0.2081
 4265W        W 7784   7.310   0.026   9.405 -0.1061 -0.0485 -0.1873
 4266W        W 7785   6.642   5.751   0.544  0.4485  0.0254 -0.0970
 4267W        W 7786   3.558   6.443  11.287 -0.3744 -0.1277  0.0441
 4268W        W 7787   1.557   1.923   0.688  0.1469 -0.0665 -0.1030
 4269W        W 7788   9.883   1.373  11.181  0.0581 -0.2233 -0.1464
 4270W        W 7789   8.773   0.790  10.865 -0.0797  0.3143  0.1008
 4271W        W 7790   0.444   6.481   0.408 -0.2514 -0.0203  0.2842
 4272W        W 7791   4.008   4.306   3.461  0.0047  0.3054 -0.0075
 4273W        W 7792   6.358   7.067   1.043 -0.0016 -0.2484 -0.2433
 4274W        W 7793   3.529   2.315   2.732  0.0589 -0.0024  0.0561
 4275W        W 7794   5.537   6.215  10.983  0.0498 -0.1581 -0.1133
 4276W        W 7795   9.792   5.125   2.908 -0.0855 -0.4463  0.1635
 4277W        W 7796   9.153   9.658   4.136 -0.0924 -0.0073 -0.1261
 4278W        W 7797   7.151   6.445   1.828  0.1630  0.0208 -0.3032
 4279W        W 7798   5.403   6.325   1.238  0.0224  0.0990 -0.3801
 4280W        W 7799   3.813   0.967   1.518  0.1500 -0.0546  0.4135
 4281W        W 7800   6.672   2.655  11.150 -0.2212  0.1527 -0.0818
 4282W        W 7801   3.889   6.010   1.319 -0.0566 -0.1930 -0.1910
 4283W        W 7802   5.572   2.482   8.882 -0.2653  0.1282  0.3019
 4284W        W 7803   6.147   7.143   8.986  0.0782 -0.1364  0.2881
 4285W        W 7804   7.363   0.040   4.849  0.0779 -0.2463 -0.0075
 4286W        W 7805   1.456   1.469   1.750 -0.1230 -0.1543  0.1070
 4287W        W 7806   5.083   7.935   8.573  0.4896  0.1872 -0.1238
 4288W        W 7807   7.633   5.411   9.407  0.3251  0.1749  0.0068
 4289W        W 7808   5.832   6.255   9.006 -0.0150  0.1996  0.0234
 4290W        W 7809   2.136   5.682   3.542  0.2898  0.0585  0.1312
 4291W        W 7810   5.949   9.139   0.443  0.1272 -0.1371 -0.0056
 4292W        W 7811   1.243   6.722  11.275  0.0462 -0.1514  0.1713
 4293W        W 7812   3.422   0.243   3.678  0.0988  0.0807  0.0740
 4294W        W 7813   0.019   7.735   9.133  0.3293 -0.1619  0.0521
 4295W        W 7814   4.436   6.865   4.735 -0.0125 -0.0530 -0.1743
 4296W        W 7815   6.094   5.336   3.024 -0.0283 -0.1866 -0.1427
 4297W        W 7816   0.440   7.892  10.229  0.0981  0.1498 -0.0840
 4298W        W 7817   5.592   1.251   3.177  0.0514  0.0681  0.0423
 4299W        W 7818   0.023   8.531  11.071  0.0254 -0.1589 -0.0447
 4300W        W 7819   7.633   9.220  10.041  0.0824 -0.2120  0.0335
 4301W        W 7820   8.790   1.529   3.597 -0.2654  0.0360 -0.2793
 4302W        W 7821   4.652   0.329  10.388  0.3570  0.2837  0.3129
 4303W        W 7822   5.843   1.833  10.248  0.1067 -0.2158 -0.2004
 4304W        W 7823   5.124   0.654  11.094 -0.1214  0.0267 -0.2588
 4305W        W 7824   4.458   5.661   0.602 -0.0641 -0.1081  0.2086
 4306W        W 7825   1.101   8.193   3.900 -0.0749  0.2477 -0.1281
 4307W        W 7826   7.127   4.283  11.762  0.0365 -0.0052 -0.1985
 4308W        W 7827   7.997   3.623  11.221 -0.1865 -0.2809  0.0922
 4309W        W 7828   1.090   4.198   0.628  0.2047 -0.2699  0.2730
 4310W        W 7829   0.359   1.648  10.044 -0.3329  0.0090  0.1716
 4311W        W 7830   2.635   5.830   1.054 -0.1181 -0.3028  0.0984
 4312W        W 7831   1.826   1.735   4.461 -0.0181 -0.0235 -0.0876
 4313W        W 7832   7.999   9.732   1.341  0.0002  0.1326 -0.2964
 4314W        W 7833   1.811   9.819   2.878  0.0745 -0.2994  0.1921
 4315W        W 7834   7.430   4.459  10.573  0.0118 -0.1820  0.3829
 4316W        W 7835   7.241   3.828   2.426  0.1533 -0.1467  0.0242
 4317W        W 7836   0.426   2.981   1.990 -0.1149 -0.1035 -0.1613
 4318W        W 7837   3.798   6.122   3.557  0.1040 -0.0868 -0.2556
 4319W        W 7838   5.367   3.022  10.640  0.0626 -0.0612 -0.2874
 4320W        W 7839   2.343   2.358   0.976 -0.1684 -0.1139  0.0703
 4321W        W 7840   2.545   8.707  10.920 -0.2251 -0.1485  0.0927
 4322W        W 7841   1.042   3.395   9.747  0.0369 -0.0493  0.2654
 4323W        W 7842   7.912   3.073   1.427  0.1741 -0.0269  0.2392
 4324W        W 7843   8.047   1.710  11.130 -0.0221 -0.1224  0.1884
 4325W        W 7844   0.965   7.719   2.629  0.3531 -0.1101  0.1260
 4326W        W 7845   3.868   4.111   0.712  0.2746  0.0431 -0.1094
 4327W        W 7846   0.391   3.697   2.010 -0.0796  0.2498 -0.1674
 4328W        W 7847   9.472   1.316   2.389 -0.3346 -0.4298 -0.0404
 4329W        W 7848   3.421   9.079   2.160  0.2981  0.2985 -0.0145
 4330W        W 7849   9.896   2.508  10.837  0.1186  0.0599 -0.2420
 4331W        W 7850   3.337   1.055   1.652 -0.0497  0.1291 -0.4681
 4332W        W 7851   4.962   5.245   2.106 -0.6250  0.0232 -0.2537
 4333W        W 7852   0.234   1.862  11.096  0.1065  0.2067 -0.1003
 4334W        W 7853   8.412   5.964   0.915 -0.0933  0.0509  0.1050
 4335W        W 7854   2.487   5.909  11.469  0.0889  0.2146 -0.1076
 4336W        W 7855   5.136   4.388   4.629  0.2338 -0.2260 -0.1670
 4337W        W 7856   4.174   7.860   1.772  0.0628  0.0084 -0.0642
 4338W        W 7857   8.017   1.347   8.984 -0.1257  0.3428  0.3544
 4339W        W 7858   6.012   4.124   8.770  0.0109 -0.0514  0.2948
 4340W        W 7859   5.005   7.550   1.215  0.1201  0.1961 -0.3037
 4341W        W 7860   6.467   9.261   2.243  0.2051  0.2957  0.2906
 4342W        W 7861   1.799   7.309  10.040 -0.0094 -0.0758  0.2181
 4343W        W 7862   3.752   0.671   3.374  0.2870 -0.2032 -0.1621
 4344W        W 7863   8.092   5.521   9.986  0.1008 -0.3146  0.0848
 4345W        W 7864   2.764   4.099   3.086  0.0070 -0.2721 -0.2411
 4346W        W 7865   0.854   1.213   5.309 -0.1745 -0.1245 -0.0575
 4347W        W 7866   5.419   9.513   9.253 -0.0294 -0.0109 -0.0629
 4348W        W 7867   1.125   6.550   8.519  0.3903  0.0702 -0.1814
 4349W        W 7868   5.969   7.130   3.028  0.0467 -0.3239 -0.1488
 4350W        W 7869   4.317   1.368   9.666 -0.0093 -0.0693  0.1360
 4351W        W 7870   4.511   6.301   9.046 -0.1572  0.0915 -0.3392
 4352W        W 7871   5.754   1.378   0.067 -0.0961  0.0723  0.2626
 4353W        W 7872   5.980   2.760   9.833 -0.0386 -0.1320  0.3872
 4354W        W 7873   8.914   7.695   1.709  0.3194  0.2431 -0.0360
 4355W        W 7874   6.880   4.671   4.357  0.0834  0.1190 -0.0662
 4356W        W 7875   8.875   4.698   0.606 -0.0696 -0.1660  0.1313
 4357W        W 7876   1.568   5.396   2.066  0.1307  0.2957  0.1235
 4358W        W 7877   0.697   0.917  10.494 -0.1342  0.2073  0.2307
 4359W        W 7878   4.131   9.475  10.604  0.4236 -0.1482 -0.2829
 4360W        W 7879   0.044   5.311   3.390  0.0956 -0.2878  0.2455
 4361W        W 7880   3.934   2.742  10.860  0.0172 -0.0564 -0.1673
 4362W        W 7881   9.147   2.557   2.586 -0.2553  0.0840 -0.0171
 4363W        W 7882   1.286   1.079   9.808 -0.0335 -0.2642 -0.2989
 4364W        W 7883   7.526   7.571   9.623 -0.0902 -0.0046  0.2726
 4365W        W 7884   8.220   0.104   8.409 -0.0569 -0.1483 -0.0867
 4366W        W 7885   7.373   9.551   2.788 -0.0092 -0.2084 -0.0394
 4367W        W 7886   9.693   3.562   0.347 -0.0822 -0.1546  0.0143
 4368W        W 7887   3.001   4.919   1.183  0.1154 -0.0855  0.1003
 4369W        W 7888   9.228   1.559   1.986  0.3243  0.1150  0.1914
 4370W        W 7889   4.441   4.136   9.534  0.1222  0.1579 -0.0666
 4371W        W 7890   8.962   2.039   2.662 -0.0253 -0.0780 -0.0741
 4372W        W 7891   9.531   2.048   3.803 -0.0719 -0.1042 -0.1217
 4373W        W 7892   5.001   7.018  10.950  0.3374  0.0283 -0.2899
 4374W        W 7893   0.336   5.079  11.404  0.4246  0.1719 -0.0449
 4375W        W 7894   4.865   5.518  11.097 -0.2465 -0.3096 -0.2106
 4376W        W 7895   4.946   9.706  11.092  0.1218  0.0140 -0.0071
 4377W        W 7896   4.833   7.196   9.052  0.1911  0.6483  0.1416
 4378W        W 7897   1.960   6.966   3.430 -0.2210  0.0820  0.0259
 4379W        W 7898   6.978   4.826   3.898 -0.4100  0.1750  0.1902
 4380W        W 7899   3.396   4.253  11.175 -0.0586  0.0244 -0.1668
 4381W        W 7900   5.771   8.955   4.256  0.4220  0.0098 -0.4309
 4382W        W 7901   9.081   1.105   3.818  0.0726  0.1393 -0.1651
 4383W        W 7902   4.460   3.164   0.026  0.0146 -0.0492 -0.2046
 4384W        W 7903   7.545   8.696   1.057  0.0633  0.0319 -0.0188
 4385W        W 7904   0.468   2.826   8.648  0.3294  0.2301 -0.1858
 4386W        W 7905   8.357   7.681  11.783 -0.1543  0.0113 -0.1635
 4387W        W 7906   8.373   2.049  10.909 -0.0851  0.1027  0.0198
 4388W        W 7907   2.096   9.529  10.472  0.5475 -0.3354  0.5179
 4389W        W 7908   2.800   3.075   1.106  0.3200 -0.1776  0.1664
 4390W        W 7909   6.779   5.269   9.091  0.3377  0.0939  0.1702
 4391W        W 7910   7.404   8.269   4.091 -0.0195  0.1690 -0.1115
 4392W        W 7911   1.263   8.614   0.685  0.1003  0.0223 -0.2166
 4393W        W 7912   9.292   2.364   0.582 -0.2222 -0.4409  0.2940
 4394W        W 7913   7.775   6.871   9.429 -0.0216 -0.0836  0.1137
 4395W        W 7914   4.233   7.455  11.950 -0.1996 -0.1324 -0.3115
 4396W        W 7915   4.037   4.727   3.222 -0.0912 -0.0646 -0.0691
 4397W        W 7916   6.355   5.059  11.679  0.0070  0.3539  0.0249
 4398W        W 7917   2.844   0.346   3.815  0.0247 -0.0781 -0.0923
 4399W        W 7918   7.657   8.974   2.774 -0.0386  0.0246  0.0436
 4400W        W 7919   4.925   0.932   0.137 -0.0410 -0.2023  0.3351
 4401W        W 7920   2.345   8.579   0.700  0.1522  0.0937  0.1463
 4402W        W 7921   9.116   6.179   0.519  0.0121 -0.0443 -0.0093
 4403W        W 7922   2.832   5.974   9.500  0.3951 -0.3103 -0.1316
 4404W        W 7923   7.482   0.490   9.624  0.1538 -0.1403  0.0822
 4405W        W 7924   9.661   8.293   3.701 -0.1092 -0.0018  0.1615
 4406W        W 7925   2.504   6.388  11.234  0.2270 -0.0135 -0.1080
 4407W        W 7926   0.279   7.271   8.994  0.0267  0.0007 -0.1811
 4408W        W 7927   2.331   3.130   2.907 -0.1182 -0.0677 -0.2250
 4409W        W 7928   8.871   8.879   8.958  0.1622  0.1380  0.1194
 4410W        W 7929   1.898   6.342   2.068 -0.0830 -0.2208 -0.0061
 4411W        W 7930   4.242   1.449   2.985 -0.1132 -0.1038 -0.1377
 4412W        W 7931   3.739   5.717   1.982 -0.0319 -0.1532  0.0940
 4413W        W 7932   1.898   7.774  11.180 -0.1613 -0.0766  0.0443
 4414W        W 7933   9.429   6.637   0.780  0.1017  0.0251 -0.1190
 4415W        W 7934   8.203   6.741  11.608  0.2525  0.4239  0.1894
 4416W        W 7935   2.982   7.054   1.218 -0.1124 -0.2294  0.3211
 4417W        W 7936   8.536   2.649   8.859  0.3016 -0.2681 -0.0109
 4418W        W 7937   3.933   8.164  11.904 -0.2947  0.0593  0.1462
 4419W        W 7938   1.463   9.293  11.944 -0.3096 -0.1707 -0.1019
 4420W        W 7939   3.112   9.012   2.544 -0.0314 -0.1106  0.0075
 4421W        W 7940   2.750   7.339   2.802  0.1839 -0.1426 -0.0697
 4422W        W 7941   3.108   6.118   8.714  0.0643 -0.0070 -0.1668
 4423W        W 7942   1.505   7.434  11.924  0.1053 -0.0480 -0.0658
 4424W        W 7943   3.505   2.453   1.724  0.0046 -0.2503 -0.2393
 4425W        W 7944   2.017   0.656   2.549  0.0133  0.1507 -0.3144
 4426W        W 7945   6.324   1.407   0.261  0.0022 -0.2365 -0.1865
 4427W        W 7946   5.644   1.699   8.306  0.1613 -0.1634 -0.1101
 4428W        W 7947   7.138   7.670   8.538 -0.0717  0.1427 -0.1022
 4429W        W 7948   7.548   4.587   3.098 -0.4029 -0.1376 -0.3350
 4430W        W 7949   7.088   6.224   2.755 -0.1909  0.1885 -0.0703
 4431W        W 7950   1.276   3.717   2.595  0.2660  0.1975  0.3110
 4432W        W 7951   6.378   4.424   2.346 -0.0782 -0.0846  0.1529
 4433W        W 7952   1.908   6.153   0.705 -0.0453  0.0897 -0.1698
 4434W        W 7953   2.628   2.511  11.733  0.0064 -0.1318  0.1871
 4435W        W 7954   0.448   8.411   4.432  0.0525  0.1555  0.1685
 4436W        W 7955   9.696   9.781   1.646  0.3371 -0.1426 -0.0599
 4437W        W 7956   7.197   0.640   8.822  0.0118 -0.2054 -0.0392
 4438W        W 7957   3.702   1.386   9.813 -0.1781  0.3231 -0.0200
 4439W        W 7958   3.354   5.914   0.444 -0.1262  0.0656  0.0241
 4440W        W 7959   3.878   7.086   8.275  0.1848 -0.0367  0.0977
 4441W        W 7960   8.419   0.613  10.523  0.0585  0.1204  0.2517
 4442W        W 7961   4.086   2.768   0.534  0.0141  0.1220 -0.0161
 4443W        W 7962   5.918   5.289  11.693 -0.1065  0.0242 -0.1709
 4444W        W 7963   4.502   7.781   1.405  0.1045 -0.3590  0.1292
 4445W        W 7964   2.800   2.506   1.044 -0.2276 -0.1686 -0.3401
 4446W        W 7965   8.178   9.058   4.145 -0.4839  0.2221  0.1543
 4447W        W 7966   2.923   3.675   0.051  0.2390 -0.1541 -0.1837
 4448W        W 7967   9.903   7.335   0.241  0.0475 -0.0659 -0.2100
 4449W        W 7968   6.525   6.269   9.393 -0.0236  0.1979  0.1113
 4450W        W 7969   7.946   2.801   2.974 -0.1646 -0.3953  0.2653
 4451W        W 7970   1.076   3.574  11.740  0.0693  0.1304  0.2009
 4452W        W 7971   2.669   6.715   0.852 -0.2952 -0.1087 -0.0337
 4453W        W 7972   9.428   0.401  10.281  0.0762 -0.1586  0.0787
 4454W        W 7973   8.412   1.709   2.262  0.2153  0.2292 -0.5376
 4455W        W 7974   2.301   4.111  11.423  0.1945  0.0110 -0.0587
 4456W        W 7975   1.763   2.651   9.356 -0.1491  0.0180 -0.3227
 4457W        W 7976   5.907   4.456   1.981  0.3107 -0.2622  0.2391
 4458W        W 7977   0.006   0.472  10.451 -0.1219  0.3804  0.1335
 4459W        W 7978   3.000   7.279   3.249 -0.0730  0.3482  0.1637
 4460W        W 7979   1.720   2.063   2.451  0.1763 -0.2847  0.0113
 4461W        W 7980   0.996   7.057   9.324  0.0493 -0.0466 -0.1607
 4462W        W 7981   4.161   9.781  11.584 -0.0281  0.2299 -0.0684
 4463W        W 7982   0.483   0.904   9.490 -0.1582  0.0914  0.1397
 4464W        W 7983   0.859   7.729   0.659 -0.0157  0.1689  0.0736
 4465W        W 7984   1.326   5.847   0.807  0.0178  0.2628 -0.2393
 4466W        W 7985   3.424   5.177   1.398 -0.4741  0.0863 -0.1134
 4467W        W 7986   7.307   6.824   0.583 -0.1511  0.2030 -0.0117
 4468W        W 7987   7.434   5.002   3.889 -0.2293  0.0319  0.1324
 4469W        W 7988   2.224   6.798  11.277  0.0852  0.2116 -0.0185
 4470W        W 7989   1.898   3.665  11.457 -0.0126  0.0558 -0.2062
 4471W        W 7990   8.842   6.709   1.963 -0.0312 -0.0376 -0.3312
 4472W        W 7991   9.608   1.115   3.794  0.1309 -0.0591  0.1596
 4473W        W 7992   6.687   5.688   3.084  0.2886 -0.0176  0.0808
 4474W        W 7993   6.671   4.088  10.016  0.0052  0.1490 -0.1912
 4475W        W 7994   6.000   8.182  11.933 -0.1887 -0.4923  0.1923
 4476W        W 7995   0.475   7.305   4.424  0.0653 -0.3525 -0.1861
 4477W        W 7996   6.601   3.740   0.144 -0.2041  0.0355 -0.3085
 4478W        W 7997   0.789   4.140   1.688 -0.1770 -0.2589 -0.1876
 4479W        W 7998   0.582   3.160   9.917  0.2086  0.2372 -0.0105
 4480W        W 7999   6.832   5.502   4.881  0.0973  0.0682 -0.0412
 4481W        W 8000   1.148   3.496  10.733  0.2879  0.2210  0.1687
 4482W        W 8001   7.317   6.494  11.042 -0.1354  0.1407 -0.1174
 4483W        W 8002   1.222   4.920   2.000 -0.1526 -0.0879 -0.2642
 4484W        W 8003   8.515   9.186   1.581 -0.1029  0.2320 -0.1772
 4485W        W 8004   6.793   7.790   2.411 -0.0077 -0.1782 -0.2446
 4486W        W 8005   4.576   0.198  11.931 -0.3252  0.0683 -0.0358
 4487W        W 8006   0.357   5.314   2.565 -0.2559  0.2622 -0.1122
 4488W        W 8007   3.276   1.152   1.145 -0.1083  0.3087 -0.1952
 4489W        W 8008   3.977   3.255   2.607 -0.0249  0.0943 -0.0667
 4490W        W 8009   0.091   1.478   2.483  0.3804 -0.2136 -0.1219
 4491W        W 8010   7.152   3.390   2.857 -0.0104  0.3412  0.1641
 4492W        W 8011   0.035   3.799   0.761  0.1018 -0.2471  0.0145
 4493W        W 8012   6.246   8.914  10.429 -0.3599 -0.2851  0.2644
 4494W        W 8013   0.203   5.935  11.648 -0.2210 -0.0350 -0.3035
 4495W        W 8014   6.480   7.696   4.023  0.1284  0.2435  0.2214
 4496W        W 8015   3.853   1.072   1.042 -0.0804  0.0999  0.1757
 4497W        W 8016   8.909   3.420   4.364 -0.2413  0.3594  0.2825
 4498W        W 8017   5.725   2.897   9.334  0.2744 -0.0212  0.0624
 4499W        W 8018   2.137   3.282   8.753  0.0098  0.1358 -0.4451
 4500W        W 8019   4.313   7.158   3.364  0.0274  0.0286 -0.2971
 4501W        W 8020   0.278   3.272   0.515 -0.2897  0.0665 -0.1459
 4502W        W 8021   5.174   6.261  11.274 -0.0676 -0.5094  0.2328
 4503W        W 8022   1.570   6.450  10.635  0.5202 -0.0131 -0.2335
 4504W        W 8023   4.044   8.136   4.471 -0.2886  0.2160 -0.2521
 4505W        W 8024   2.782   3.348   3.026  0.3024 -0.1647 -0.1924
 4506W        W 8025   1.925   5.141  10.493 -0.1283 -0.3386  0.0595
 4507W        W 8026   1.892   9.368   0.171  0.0605  0.1193  0.0869
 4508W        W 8027   4.788   3.904   0.667  0.0280 -0.0079  0.0943
 4509W        W 8028   8.402   3.835  11.435  0.1691 -0.0912  0.0076
 4510W        W 8029   9.240   2.760   3.118  0.0893 -0.2173 -0.3870
 4511W        W 8030   6.680   1.591  11.796 -0.1349 -0.0382  0.1880
 4512W        W 8031   1.053   2.979  11.686 -0.0224  0.1766 -0.0610
 4513W        W 8032   5.959   7.775   9.078  0.0613 -0.1775 -0.4467
 4514W        W 8033   9.339   2.585   9.468 -0.2456  0.2690  0.2304
 4515W        W 8034   9.846   5.490  10.935 -0.2412  0.1913 -0.0874
 4516W        W 8035   5.510   7.526   9.763  0.1519  0.2291 -0.2279
 4517W        W 8036   8.170   5.202   3.359  0.1078 -0.1395 -0.1704
 4518W        W 8037   7.701   4.855   0.050  0.2803  0.2390  0.2971
 4519W        W 8038   2.080   7.834   1.363 -0.0455 -0.1571 -0.2412
 4520W        W 8039   1.905   0.135   4.344 -0.0087  0.0725 -0.2453
 4521W        W 8040   8.488   3.433   3.201 -0.0934 -0.1533  0.0512
 4522W        W 8041   2.265   1.504   0.946  0.1061  0.2309  0.2184
 4523W        W 8042   1.439   6.985   2.771 -0.0594 -0.0981 -0.1265
 4524W        W 8043   6.561   2.569   3.986  0.0282 -0.4703 -0.0162
 4525W        W 8044   1.956   4.799   9.406  0.0527  0.4370  0.0764
 4526W        W 8045   9.925   0.983   9.628 -0.1395  0.1329 -0.2162
 4527W        W 8046   4.638   3.525   2.600  0.1896  0.0532  0.1026
 4528W        W 8047   3.911   2.916   9.745 -0.0852  0.1931  0.1273
 4529W        W 8048   7.397   0.991   9.733 -0.0555  0.1570  0.0896
 4530W        W 8049   2.080   2.295  11.556  0.2954 -0.2193  0.0763
 4531W        W 8050   1.510   8.914   9.208 -0.1140 -0.2099  0.3183
 4532W        W 8051   2.420   7.886   8.903 -0.0274  0.0481  0.1748
 4533W        W 8052   0.216   3.512  10.239  0.0356 -0.1587  0.1042
 4534W        W 8053   6.695   4.550   1.850  0.1756  0.2094 -0.2504
 4535W        W 8054   7.480   1.903   4.060  0.0689 -0.1167 -0.2818
 4536W        W 8055   2.894   2.338  11.137  0.0184 -0.2631  0.1036
 4537W        W 8056   2.391   9.225   9.617  0.2460 -0.2321 -0.0424
 4538W        W 8057   1.453   9.421  10.630 -0.2043 -0.0521  0.0537
 4539W        W 8058   2.412   1.667  10.034 -0.0730 -0.1809  0.3227
 4540W        W 8059   7.920   9.512   4.281 -0.1486  0.4038 -0.1122
 4541W        W 8060   4.975   3.575   8.045  0.3419 -0.1284  0.1368
 4542W        W 8061   8.701   9.061   4.365  0.0783  0.0761  0.1150
 4543W        W 8062   7.740   8.808   1.560  0.1291  0.0200 -0.0825
 4544W        W 8063   8.927   7.071  10.217  0.1980  0.2161 -0.1050
 4545W        W 8064   7.395   6.098   8.111  0.3205 -0.0908  0.2119
 4546W        W 8065   6.055   4.134   9.849 -0.2365 -0.2421  0.2235
 4547W        W 8066   4.379   8.443   4.655  0.1468 -0.1073  0.0496
 4548W        W 8067   4.961   0.553   4.210  0.0762  0.0208  0.0710
 4549W        W 8068   5.405   5.869   9.831 -0.0280 -0.0776 -0.0424
 4550W        W 8069   9.722   8.247   2.539 -0.0389 -0.1055 -0.1875
 4551W        W 8070   1.638   9.865   9.533  0.0142  0.2488 -0.2416
 4552W        W 8071   9.752   1.251   1.838 -0.2539  0.0075 -0.1279
 4553W        W 8072   6.451   9.083   1.008 -0.1306  0.1828  0.0271
 4554W        W 8073   5.137   9.084   0.823  0.2662  0.1031 -0.3118
 4555W        W 8074   9.866   7.419  10.901  0.2428 -0.0303  0.0407
 4556W        W 8075   5.127   5.250  11.399 -0.0480  0.0104 -0.1277
 4557W        W 8076   3.633   4.548   2.914  0.2709 -0.1122 -0.0767
 4558W        W 8077   9.878   0.700   9.997 -0.0432  0.3549  0.0229
 4559W        W 8078   2.874   5.222   2.979  0.2237  0.5738 -0.3211
 4560W        W 8079   8.449   2.925   3.654 -0.1842 -0.0616 -0.0422
 4561W        W 8080   9.530   0.665   2.978  0.0966  0.0798 -0.1074
 4562W        W 8081   0.560   7.988   9.718  0.1171 -0.1418 -0.0636
 4563W        W 8082   9.084   6.906   1.499 -0.0181 -0.0538 -0.1568
 4564W        W 8083   5.321   3.635   9.342  0.2967  0.0369  0.0163
 4565W        W 8084   9.470   4.810  10.301  0.0649 -0.1087  0.2283
 4566W        W 8085   6.893   9.517   3.035  0.0062  0.1179  0.0106
 4567W        W 8086   5.630   8.035  11.413  0.1605  0.0892 -0.0509
 4568W        W 8087   2.857   1.013   4.084  0.0742 -0.4727  0.3161
 4569W        W 8088   9.513   7.322   2.749  0.1408  0.2565  0.4273
 4570W        W 8089   0.377   4.515   3.113 -0.2855  0.0613 -0.5187
 4571W        W 8090   4.080   1.961   3.832  0.0720 -0.0808 -0.3183
 4572W        W 8091   0.564   2.758   3.560 -0.0586 -0.0172  0.0276
 4573W        W 8092   1.744   6.673   4.284  0.3175  0.1622 -0.2074
 4574W        W 8093   0.041   6.578   9.005 -0.3272 -0.1725  0.2965
 4575W        W 8094   7.463   8.380  11.733 -0.2185 -0.1584  0.3960
 4576W        W 8095   7.521   1.895   0.295 -0.0610  0.1418 -0.1377
 4577W        W 8096   8.887   3.211   9.863  0.1088 -0.2622  0.3006
 4578W        W 8097   7.446   5.923   0.617 -0.1741  0.1560  0.2166
 4579W        W 8098   9.070   5.669   3.822 -0.0967  0.1470  0.4090
 4580W        W 8099   1.748   9.489   3.860 -0.3406 -0.2429 -0.1254
 4581W        W 8100   1.621   4.261  11.137  0.1605  0.3166 -0.1038
 4582W        W 8101   1.118   7.113   0.215 -0.1701  0.1353  0.3715
 4583W        W 8102   6.014   8.778   2.082  0.1074  0.3640  0.2541
 4584W        W 8103   5.744   9.415   1.403  0.1131 -0.1517  0.3155
 4585W        W 8104   7.656   9.349   3.123  0.0298  0.1016  0.1193
 4586W        W 8105   5.332   6.558  11.736 -0.3481  0.3060 -0.2351
 4587W        W 8106   1.598   3.843  10.809  0.0421  0.0365  0.2271
 4588W        W 8107   9.459   8.044   8.456  0.0041 -0.0178  0.2273
 4589W        W 8108   3.534   0.492   9.505 -0.2628  0.1738 -0.0193
 4590W        W 8109   0.291   9.590  11.282  0.0571  0.0093 -0.1594
 4591W        W 8110   2.338   6.496   1.850  0.2231 -0.0511 -0.2473
 4592W        W 8111   4.933   5.957   2.660 -0.0643  0.0689 -0.0213
 4593W        W 8112   5.810   4.816   0.313 -0.1247 -0.0479  0.0381
 4594W        W 8113   6.709   1.594  11.053 -0.2387  0.0283 -0.1204
 4595W        W 8114   7.424   7.637   1.043 -0.0029  0.0227  0.1860
 4596W        W 8115   1.840   1.611   2.081 -0.1742  0.1886  0.4112
 4597W        W 8116   7.745   4.337   8.174  0.2911  0.0808  0.4222
 4598W        W 8117   6.576   7.263   3.166  0.0000 -0.3017 -0.1953
 4599W        W 8118   5.087   1.010   3.469  0.1019  0.1847  0.2205
 4600W        W 8119   4.038   6.517  10.047 -0.2418 -0.0188 -0.3784
 4601W        W 8120   4.508   5.660   8.221 -0.1891  0.2854  0.1896
 4602W        W 8121   5.634   9.767   9.666 -0.0290 -0.3275 -0.1869
 4603W        W 8122   6.234   7.181   9.513 -0.0956 -0.0145  0.0715
 4604W        W 8123   9.203   7.002   3.436 -0.2824 -0.1567  0.1052
 4605W        W 8124   0.040   8.067   1.567  0.1572  0.1533 -0.2272
 4606W        W 8125   7.739   5.682  11.811  0.0865  0.0395  0.5924
 4607W        W 8126   0.255   0.744   2.674  0.1993 -0.0315  0.0026
 4608W        W 8127   4.634   0.450   1.315 -0.1696 -0.1431 -0.1145
 4609W        W 8128   5.696   5.584   9.530 -0.1185  0.0409  0.2381
 4610W        W 8129   9.143   6.175   3.897  0.1505 -0.0488  0.3800
 4611W        W 8130   8.260   1.271   2.108  0.0678  0.0277  0.0569
 4612W        W 8131   6.161   1.781   2.100  0.0219  0.1383 -0.1762
 4613W        W 8132   7.052   8.335  10.134 -0.0831 -0.1168 -0.2551
 4614W        W 8133   0.065   8.210   4.686  0.1881 -0.3415  0.2985
 4615W        W 8134   5.424   0.291   2.673  0.0167 -0.1675  0.2477
 4616W        W 8135   7.107   0.080   2.559 -0.1194 -0.0637 -0.0926
 4617W        W 8136   4.720   4.198   4.473  0.1017  0.0667  0.4291
 4618W        W 8137   3.941   9.230   1.177 -0.0532  0.1187 -0.4328
 4619W        W 8138   6.736   3.692   2.665 -0.1277 -0.2338  0.0706
 4620W        W 8139   4.982   6.100   9.557  0.4210 -0.0793  0.1568
 4621W        W 8140   9.365   4.253  11.516 -0.1280 -0.0420 -0.3227
 4622W        W 8141   2.146   0.112   2.404 -0.2877 -0.0914  0.2356
 4623W        W 8142   4.781   6.010   0.129 -0.3524 -0.1593  0.4538
 4624W        W 8143   0.926   4.603  11.897  0.1506  0.3393  0.2050
 4625W        W 8144   2.919   4.219  10.807  0.1178  0.0343  0.0306
 4626W        W 8145   9.800   3.868   4.693 -0.2968  0.1881 -0.1932
 4627W        W 8146   1.182   1.129  10.575 -0.0986  0.4649 -0.1995
 4628W        W 8147   1.183   9.780   0.774 -0.1109 -0.2410 -0.4566
 4629W        W 8148   9.311   1.356   3.423 -0.0647  0.4426  0.0389
 4630W        W 8149   7.619   2.427   4.138 -0.1201  0.0272  0.1964
 4631W        W 8150   6.360   6.242   2.185 -0.0749  0.0860 -0.1255
 4632W        W 8151   1.983   6.508  10.226 -0.1467  0.0379 -0.0650
 4633W        W 8152   6.954   2.328   8.973 -0.1383  0.0154 -0.0051
 4634W        W 8153   7.033   5.316   3.132 -0.0204  0.2404 -0.1815
 4635W        W 8154   3.074   5.653   1.455  0.1261 -0.1316 -0.1074
 4636W        W 8155   4.266   5.312  11.905 -0.2080  0.1620 -0.1767
 4637W        W 8156   1.573   9.499   9.124  0.0087  0.0429  0.0651
 4638W        W 8157   8.162   6.832   1.396  0.2517  0.2723 -0.1279
 4639W        W 8158   2.624   2.050  11.550 -0.1793 -0.0838 -0.2341
 4640W        W 8159   1.995   0.489   8.497 -0.0782 -0.2917  0.2035
 4641W        W 8160   8.469   0.830   0.171  0.0622 -0.0773  0.7444
 4642W        W 8161   4.474   2.957   9.857  0.1141 -0.0573  0.2413
 4643W        W 8162   6.066   9.139  11.931  0.4374 -0.0973 -0.0327
 4644W        W 8163   0.923   5.407  10.893 -0.0397  0.0762 -0.0599
 4645W        W 8164   5.435   3.373   3.757  0.3316 -0.0036 -0.3678
 4646W        W 8165   8.874   0.972   4.316  0.1820 -0.0036  0.2197
 4647W        W 8166   8.265   9.931   9.509  0.0033 -0.2212 -0.1165
 4648W        W 8167   2.876   3.468   8.665 -0.0749 -0.1871  0.2395
 4649W        W 8168   8.439   6.242   2.317  0.0737 -0.0450  0.0027
 4650W        W 8169   9.088   2.399  10.446 -0.2177  0.1813  0.0488
 4651W        W 8170   4.348   6.251   0.088  0.1909  0.1600 -0.0120
 4652W        W 8171   7.067   5.969   9.414 -0.3114 -0.4281  0.1808
 4653W        W 8172   5.853   1.923   0.987 -0.0684 -0.0067  0.1891
 4654W        W 8173   0.923   2.986   2.475 -0.0728  0.1589  0.0355
 4655W        W 8174   8.089   1.225  10.393  0.0335 -0.1203  0.1615
 4656W        W 8175   9.032   4.432   4.555  0.0160 -0.2396 -0.1591
 4657W        W 8176   9.820   4.103   2.502 -0.0798 -0.3468  0.1657
 4658W        W 8177   3.093   1.765  11.450  0.0024  0.1658 -0.2332
 4659W        W 8178   6.979   4.056   0.288  0.1733 -0.2219  0.0139
 4660W        W 8179   8.394   1.228   9.826  0.0354  0.2234 -0.3356
 4661W        W 8180   8.984   7.929   1.306  0.1032  0.1513  0.1138
 4662W        W 8181   3.781   6.730  11.734 -0.0378 -0.2647  0.0004
 4663W        W 8182   3.304   7.453  10.559  0.1866  0.2676 -0.1469
 4664W        W 8183   1.733   5.797   2.764  0.0363  0.2779  0.2078
 4665W        W 8184   3.930   3.613   1.153  0.1911  0.2678  0.5743
 4666W        W 8185   9.672   3.222   3.648 -0.2685  0.0152  0.0482
 4667W        W 8186   3.282   1.354   9.489 -0.2276 -0.0728 -0.0692
 4668W        W 8187   6.156   7.139   0.626 -0.2891  0.1016  0.1551
 4669W        W 8188   6.995   5.709   2.709  0.1355 -0.0949  0.1077
 4670W        W 8189   6.244   5.202  10.946 -0.3408  0.1119 -0.2190
 4671W        W 8190   4.490   6.903   2.053  0.2406 -0.0739  0.0032
 4672W        W 8191   8.907   4.195   0.416  0.3425  0.0730 -0.0740
 4673W        W 8192   6.990   8.273   9.569  0.0088  0.2835  0.0640
 4674W        W 8193   8.366   4.853   0.680 -0.2043  0.0365 -0.6280
 4675W        W 8194   4.732   5.081  10.829 -0.0140 -0.1404  0.2142
 4676W        W 8195   3.249   3.809   8.541 -0.2984 -0.0360  0.1111
 4677W        W 8196   2.823   6.006   3.067 -0.0786 -0.0890 -0.3092
 4678W        W 8197   1.594   6.568   3.422 -0.0604  0.2642 -0.1934
 4679W        W 8198   8.716   6.876   5.108 -0.0870 -0.0466 -0.2125
 4680W        W 8199   7.551   6.017  10.188  0.0458 -0.0522 -0.1812
 4681W        W 8200   7.166   0.099   0.989 -0.1096  0.2613 -0.0941
 4682W        W 8201   3.642   8.834   2.540  0.2395  0.2595 -0.1774
 4683W        W 8202   5.319   2.585   0.290 -0.0926  0.2478 -0.0399
 4684W        W 8203   3.407   4.652  10.825  0.0409  0.2384 -0.0245
 4685W        W 8204   6.047   1.927   9.455 -0.3161 -0.2481 -0.1553
 4686W        W 8205   6.706   2.241   1.189 -0.0422  0.0473 -0.1242
 4687W        W 8206   7.572   6.419   4.161  0.0844  0.3916 -0.1709
 4688W        W 8207   8.547   5.380   9.225 -0.3167 -0.1477 -0.3089
 4689W        W 8208   0.697   1.453  10.424 -0.2193  0.4192  0.0121
 4690W        W 8209   4.499   4.103   1.614 -0.1249 -0.3700  0.2036
 4691W        W 8210   6.243   5.491   3.480 -0.1875 -0.0755 -0.1813
 4692W        W 8211   3.833   2.291   9.702 -0.2709 -0.1666  0.2451
 4693W        W 8212   1.487   5.827   1.602  0.1979 -0.1003 -0.0626
 4694W        W 8213   5.401   6.698  11.086 -0.0826  0.0979 -0.1415
 4695W        W 8214   3.795   6.271   2.575  0.0737  0.0714 -0.1222
 4696W        W 8215   1.876   7.827   9.835 -0.1493  0.2741  0.1294
 4697W        W 8216   1.403   8.590   4.000 -0.2133  0.0941  0.2840
 4698W        W 8217   3.915   1.866   0.154  0.1430  0.1358 -0.1152
 4699W        W 8218   2.578   0.160   0.545  0.3370 -0.2721 -0.0458
 4700W        W 8219   8.187   0.912   0.586  0.1018  0.1051  0.0215
 4701W        W 8220   1.420   4.888  11.855  0.3263 -0.0820 -0.0890
 4702W        W 8221   3.168   8.250   3.773  0.1485 -0.1069 -0.1610
 4703W        W 8222   2.548   0.127   9.920  0.0461  0.0106 -0.0361
 4704W        W 8223   5.840   5.127   9.298 -0.0297 -0.2194  0.2724
 4705W        W 8224   2.179   9.303   1.771  0.2129  0.3299  0.0145
 4706W        W 8225   0.775   5.431  11.353 -0.0797  0.0400  0.0933
 4707W        W 8226   8.989   7.018  10.925  0.1177  0.0121  0.0760
 4708W        W 8227   5.538   1.740   2.884 -0.0761 -0.2493  0.0628
 4709W        W 8228   7.267   4.009  10.828  0.1640  0.1968 -0.2600
 4710W        W 8229   0.721   8.731  10.338  0.2253  0.2727 -0.2963
 4711W        W 8230   5.558   7.330   3.880 -0.2165  0.1030  0.0631
 4712W        W 8231   8.945   4.834   1.873 -0.1900 -0.0098 -0.2838
 4713W        W 8232   6.230   4.369   3.002 -0.0318 -0.0844 -0.0798
 4714W        W 8233   1.464   3.210   1.140 -0.2849  0.1008 -0.0068
 4715W        W 8234   9.522   0.236   1.072  0.0722  0.3000  0.0457
 4716W        W 8235   9.174   2.993   1.813 -0.2283  0.0129  0.0786
 4717W        W 8236   2.709   7.933   1.892 -0.0154  0.0018  0.0848
 4718W        W 8237   4.434   9.264   2.855 -0.1731 -0.0902  0.0013
 4719W        W 8238   0.266   1.391   9.585 -0.0546 -0.0727 -0.1423
 4720W        W 8239   2.027   0.770   0.746 -0.1013 -0.3511  0.2028
 4721W        W 8240   0.703   5.564   2.268 -0.1184  0.0444 -0.0782
 4722W        W 8241   1.233   7.886   4.341  0.0913 -0.3377 -0.0970
 4723W        W 8242   3.690   7.764  10.534  0.0773 -0.1082 -0.1882
 4724W        W 8243   3.306   7.910   9.270  0.2253  0.0280  0.1151
 4725W        W 8244   1.493   9.343   9.591 -0.0954 -0.1430 -0.0842
 4726W        W 8245   2.264   2.330   1.983  0.1763 -0.2194  0.4437
 4727W        W 8246   2.880   1.822   4.603 -0.0268 -0.4060 -0.2500
 4728W        W 8247   8.292   9.481   5.146 -0.3512 -0.1387  0.0898
 4729W        W 8248   8.137   3.778   2.388 -0.2075 -0.1650 -0.1066
 4730W        W 8249   7.349   2.038  10.067 -0.0057  0.0918  0.0516
 4731W        W 8250   8.828   1.969   9.222 -0.0428  0.4535 -0.1755
 4732W        W 8251   7.278   0.838  11.511 -0.1506 -0.3863 -0.1625
 4733W        W 8252   8.915   2.266  11.006 -0.1524  0.1744  0.3713
 4734W        W 8253   2.207   9.703   3.625  0.3609 -0.0241  0.0159
 4735W        W 8254   1.825   9.237   1.279 -0.1996  0.1468  0.0347
 4736W        W 8255   2.541   7.773   2.317  0.0064  0.1698 -0.1215
 4737W        W 8256   9.064   9.469   0.592  0.2193  0.2586  0.1470
 4738W        W 8257   3.927   6.429   0.359  0.0390  0.0510 -0.3354
 4739W        W 8258   4.434   1.797  11.653  0.0022  0.0786 -0.0411
 4740W        W 8259   8.338   2.411   3.807 -0.2651 -0.1802 -0.0788
 4741W        W 8260   4.630   8.800  10.775 -0.2727  0.0369  0.0718
 4742W        W 8261   4.971   4.441   3.213  0.3342  0.1616  0.1930
 4743W        W 8262   1.282   9.743  11.036 -0.0395 -0.0984 -0.2812
 4744W        W 8263   0.397   3.229   2.400  0.1822 -0.4977  0.0820
 4745W        W 8264   7.251   8.755   0.656  0.1067 -0.3021  0.0960
 4746W        W 8265   0.663   5.728   9.428  0.1041 -0.1346 -0.2657
 4747W        W 8266   0.741   8.288   5.211 -0.1862 -0.0702 -0.1723
 4748W        W 8267   6.995   9.073   4.095 -0.0693  0.1233  0.1998
 4749W        W 8268   3.753   4.270  11.556  0.2462 -0.1199 -0.1980
 4750W        W 8269   5.139   2.472  11.778 -0.0840  0.2658  0.1248
 4751W        W 8270   0.554   3.798   1.479 -0.0289 -0.1214  0.0364
 4752W        W 8271   5.822   7.084  10.337 -0.0983 -0.3183  0.0148
 4753W        W 8272   1.765   1.081  11.383  0.3202 -0.1487  0.1610
 4754W        W 8273   2.827   3.528   1.822  0.1172  0.2671 -0.1987
 4755W        W 8274   3.505   5.469  10.447  0.1176 -0.1681  0.0496
 4756W        W 8275   3.099   9.042  10.134 -0.1588  0.0568 -0.0965
 4757W        W 8276   4.759   0.889   1.077  0.0974 -0.0954 -0.0739
 4758W        W 8277   5.318   5.383   4.763  0.2046  0.1705  0.2161
 4759W        W 8278   2.547   8.628   1.168  0.2003  0.0878  0.3040
 4760W        W 8279   7.398   9.064   1.834  0.2260 -0.3792  0.2186
 4761W        W 8280   3.427   3.745  11.758  0.0755 -0.0622 -0.0906
 4762W        W 8281   0.285   2.526   1.830 -0.2484  0.3318  0.1884
 4763W        W 8282   5.520   2.229   3.146 -0.1646  0.0411 -0.0910
 4764W        W 8283   9.258   4.307  10.279 -0.0176  0.0231 -0.0065
 4765W        W 8284   4.003   0.525   9.614 -0.1886 -0.1510  0.0364
 4766W        W 8285   3.061   4.369   1.333 -0.0308 -0.1739  0.1184
 4767W        W 8286   3.211   6.832  11.823 -0.0594  0.4264  0.1708
 4768W        W 8287   7.881   9.289  11.569 -0.1317 -0.1417 -0.2869
 4769W        W 8288   5.453   3.461   4.366 -0.0565 -0.0346  0.0249
 4770W        W 8289   0.941   1.106   3.464  0.0563 -0.0434  0.0398
 4771W        W 8290   6.428   7.014  11.594 -0.0336 -0.0169 -0.0636
 4772W        W 8291   3.605   3.774   9.767  0.0923 -0.2289  0.1789
 4773W        W 8292   7.246   8.148   4.615 -0.0208 -0.1414 -0.0670
 4774W        W 8293   1.139   7.598  11.541 -0.1782 -0.5837  0.0866
 4775W        W 8294   3.488   3.736   1.287 -0.0734  0.0849 -0.1653
 4776W        W 8295   6.487   0.772   0.979  0.1870 -0.1005 -0.2892
 4777W        W 8296   1.815   9.469   2.401  0.0970 -0.3171 -0.2861
 4778W        W 8297   0.610   4.091   3.396 -0.0324 -0.0830 -0.0044
 4779W        W 8298   6.117   7.267   4.026  0.2175 -0.0469 -0.1492
 4780W        W 8299   3.932   7.418   2.470 -0.2631  0.1088  0.0500
 4781W        W 8300   0.331   6.905   2.973  0.2154 -0.0441  0.2446
 4782W        W 8301   1.675   7.935   1.641  0.0288  0.0997 -0.2693
 4783W        W 8302   0.049   1.910   9.683 -0.0284 -0.5128 -0.0297
 4784W        W 8303   8.994   6.875   9.325  0.1656 -0.2166 -0.2376
 4785W        W 8304   2.809   5.558   2.076 -0.0132  0.2069  0.2061
 4786W        W 8305   9.680   3.813  11.324 -0.0120 -0.1327 -0.1119
 4787W        W 8306   1.604   2.504   2.037  0.1256  0.0989 -0.0957
 4788W        W 8307   7.919   6.301  11.575  0.0518  0.0044 -0.0104
 4789W        W 8308   6.049   9.361   0.898  0.0593 -0.0339  0.0847
 4790W        W 8309   3.474   1.706   9.047  0.1918 -0.1827  0.2028
 4791W        W 8310   3.295   5.885   3.613  0.0704  0.0694 -0.2119
 4792W        W 8311   0.992   3.600   0.962 -0.0244 -0.1898  0.1057
 4793W        W 8312   7.996   7.545  10.453 -0.2124  0.1369  0.2147
 4794W        W 8313   8.386   7.563   1.226  0.0217 -0.1188  0.0125
 4795W        W 8314   3.247   3.915  10.154 -0.0269 -0.0241 -0.0406
 4796W        W 8315   2.973   8.085   0.223  0.3220  0.1218 -0.2762
 4797W        W 8316   9.170   1.140   4.865 -0.1342  0.3388  0.0423
 4798W        W 8317   2.656   3.978   2.466 -0.0543  0.2206 -0.0169
 4799W        W 8318   2.928   3.765   2.814  0.0285  0.1034 -0.0967
 4800W        W 8319   4.573   8.961   1.661  0.0980  0.1374 -0.0602
 4801W        W 8320   5.404   2.291  10.180 -0.0522 -0.3447  0.1082
 4802W        W 8321   3.865   3.215   0.751 -0.0497 -0.2314  0.0164
 4803W        W 8322   7.383   8.592   2.032 -0.0782  0.0629 -0.1677
 4804W        W 8323   5.257   1.238   9.357  0.1226  0.1336 -0.1074
 4805W        W 8324   7.336   0.422   4.496 -0.2501  0.2182 -0.0497
 4806W        W 8325   8.635   9.427   4.047 -0.1175 -0.3177  0.3209
 4807W        W 8326   4.125   5.864   3.300 -0.0181 -0.1031  0.0262
 4808W        W 8327   1.443   2.658   2.616  0.2682 -0.1424 -0.0676
 4809W        W 8328   8.192   9.834   0.835  0.3333 -0.0070 -0.0352
 4810W        W 8329   3.365   9.155   9.388 -0.0273  0.2378  0.2606
 4811W        W 8330   7.970   1.611   1.392 -0.3515 -0.2522  0.0519
 4812W        W 8331   4.255   3.762   0.705  0.2268 -0.0727  0.0348
 4813W        W 8332   0.850   2.595   4.756 -0.1572 -0.1531  0.1737
 4814W        W 8333   2.391   4.265  10.908 -0.2325 -0.0732  0.0622
 4815W        W 8334   2.063   0.358  11.128  0.1968 -0.1564  0.2488
 4816W        W 8335   1.785   9.616   9.983 -0.1713 -0.1569 -0.0877
 4817W        W 8336   2.259   4.683   2.546 -0.2851  0.1454  0.0445
 4818W        W 8337   6.332   9.226  11.571 -0.0968  0.2938  0.4467
 4819W        W 8338   3.054   4.751  11.183  0.0640 -0.2567 -0.2601
 4820W        W 8339   9.934   4.466   1.369  0.2112  0.0669  0.4205
 4821W        W 8340   7.393   3.280   9.104  0.3226  0.0755  0.0306
 4822W        W 8341   6.401   8.903   0.235  0.2010 -0.2176 -0.0857
 4823W        W 8342   7.290   5.578   2.279  0.0840  0.2171 -0.0482
 4824W        W 8343   7.504   9.216   0.815 -0.3330 -0.1621 -0.1322
 4825W        W 8344   8.470   4.594  10.244 -0.1419 -0.0672 -0.0115
 4826W        W 8345   7.759   3.843   2.772 -0.0217 -0.2191  0.2372
 4827W        W 8346   1.551   3.140   8.004 -0.0774  0.0875 -0.0089
 4828W        W 8347   3.330   4.871   8.941 -0.0507  0.2344  0.1743
 4829W        W 8348   7.075   3.910   4.088  0.4599 -0.1427 -0.1118
 4830W        W 8349   6.987   0.898   5.387  0.1160 -0.1784  0.0917
 4831W        W 8350   6.811   2.991  11.541 -0.0312  0.1026  0.0795
 4832W        W 8351   0.832   0.819   1.440 -0.5121 -0.1760  0.1124
 4833W        W 8352   5.746   7.143  10.875  0.0128  0.0231  0.0825
 4834W        W 8353   7.051   8.213   2.256 -0.0328 -0.2482 -0.0797
 4835W        W 8354   3.393   5.392   3.637  0.0705  0.1637  0.1579
 4836W        W 8355   8.036   8.672  10.363  0.1885  0.0887  0.2557
 4837W        W 8356   9.301   0.805  10.922 -0.1761 -0.0943  0.2053
 4838W        W 8357   9.377   2.010   2.307 -0.1927 -0.3637  0.2664
 4839W        W 8358   8.672   3.420  10.264 -0.2396 -0.1472  0.1581
 4840W        W 8359   5.130   8.040   0.403  0.2147 -0.0333  0.0228
 4841W        W 8360   2.521   2.649  10.922  0.0537 -0.0091  0.1238
 4842W        W 8361   4.732   3.185   2.931 -0.1293  0.1209 -0.2223
 4843W        W 8362   4.774   4.638  10.657  0.3563  0.1740 -0.1334
 4844W        W 8363   8.525   5.301  11.396 -0.1105 -0.3227  0.0657
 4845W        W 8364   1.747   9.212   2.828  0.0348  0.1312 -0.3595
 4846W        W 8365   4.817   7.300   2.140 -0.2261 -0.2916  0.1674
 4847W        W 8366   6.271   4.386   1.640 -0.2138  0.0342  0.0788
 4848W        W 8367   5.637   1.360   7.827 -0.2114  0.0218 -0.0970
 4849W        W 8368   9.746   8.187   1.012 -0.1690  0.2085 -0.0994
 4850W        W 8369   1.771   4.842   1.074 -0.1225  0.1684 -0.1077
 4851W        W 8370   5.450   0.763   3.178 -0.1641 -0.3737 -0.1306
 4852W        W 8371   1.673   4.799  10.889  0.3281  0.3576  0.0850
 4853W        W 8372   9.870   5.509   2.308  0.1911  0.0181  0.3597
 4854W        W 8373   9.046   8.576   2.066 -0.3373 -0.0679 -0.0165
 4855W        W 8374   7.848   1.746   3.104  0.1203 -0.2921 -0.0837
 4856W        W 8375   9.127   4.365  11.935  0.2334  0.0898  0.0440
 4857W        W 8376   8.203   2.463   4.307 -0.0019  0.3168  0.0704
 4858W        W 8377   5.658   2.240  10.993  0.3221  0.1374 -0.1117
 4859W        W 8378   8.959   4.724  11.008  0.4096 -0.2962 -0.2050
 4860W        W 8379   7.666   5.940   4.059 -0.1977  0.0767  0.1369
 4861W        W 8380   2.345   6.379   0.389  0.0802 -0.0953  0.2295
 4862W        W 8381   9.755   3.518   9.916  0.0818  0.3153  0.1254
 4863W        W 8382   6.423   7.669   1.054 -0.1904 -0.0627 -0.0550
 4864W        W 8383   5.568   4.550   0.713 -0.0471  0.0003  0.2411
 4865W        W 8384   3.704   6.872  11.001 -0.0971  0.3423  0.2953
 4866W        W 8385   1.731   2.393   0.698  0.0006  0.2344 -0.1650
 4867W        W 8386   2.163   3.692   1.720  0.0838 -0.1236  0.4870
 4868W        W 8387   1.907   7.900   0.898  0.1760 -0.1581  0.0488
 4869W        W 8388   1.108   4.035  10.974 -0.0441 -0.0141  0.1617
 4870W        W 8389   8.536   6.653   9.208  0.1831 -0.1413 -0.2243
 4871W        W 8390   8.350   3.859   1.397  0.0885 -0.3462 -0.0574
 4872W        W 8391   7.136   4.996   1.049 -0.1859  0.2288 -0.0997
 4873W        W 8392   7.830   0.339   4.987  0.3237  0.0567 -0.1025
 4874W        W 8393   1.718   6.740  11.526  0.0787  0.3186 -0.2123
 4875W        W 8394   6.380   3.360   0.828 -0.0437 -0.0012  0.2740
 4876W        W 8395   8.165   7.341   3.790  0.1931 -0.0982 -0.0791
 4877W        W 8396   6.669   5.533   1.589 -0.0446  0.1134  0.0129
 4878W        W 8397   6.901   4.478   9.778 -0.1845 -0.2156 -0.0161
 4879W        W 8398   4.105   6.994   0.144 -0.3672 -0.0020  0.2029
 4880W        W 8399   9.224   1.586   2.976 -0.1209  0.0584 -0.1478
 4881W        W 8400   5.557   6.145   3.011 -0.0485  0.3699 -0.0488
 4882W        W 8401   4.225   9.220  11.465  0.0093  0.1027  0.0770
 4883W        W 8402   2.347   3.845   9.564  0.0177  0.1409  0.0671
 4884W        W 8403   4.639   0.883   2.877 -0.0165  0.2076 -0.3019
 4885W        W 8404   9.663   7.175   2.219  0.1245  0.0994  0.0001
 4886W        W 8405   7.943   8.492  10.910  0.0087  0.2131 -0.4336
 4887W        W 8406   4.764   8.762   3.238  0.0168 -0.0517 -0.4026
 4888W        W 8407   0.054   2.065  10.682  0.0986  0.0157 -0.1192
 4889W        W 8408   3.714   4.723  10.374 -0.3104  0.1034 -0.1581
 4890W        W 8409   4.638   5.065  11.399 -0.1053 -0.0466  0.1147
 4891W        W 8410   7.460   2.305   1.196  0.0848 -0.2142 -0.0422
 4892W        W 8411   7.615   6.382   2.674  0.2590  0.0344 -0.0983
 4893W        W 8412   4.983   3.229   2.439 -0.0180  0.2647 -0.1168
 4894W        W 8413   5.322   5.217   1.743 -0.1938  0.0712 -0.3559
 4895W        W 8414   7.597   0.763   1.511 -0.1534 -0.1115 -0.1169
 4896W        W 8415   8.582   8.315  11.610 -0.0909  0.0926 -0.1967
 4897W        W 8416   3.872   5.162  10.505  0.0082 -0.0866  0.0849
 4898W        W 8417   7.102   3.082   1.905  0.2080  0.3110 -0.1272
 4899W        W 8418   4.854   6.689   8.796 -0.0372  0.0775 -0.3376
 4900W        W 8419   3.815   0.100  11.443 -0.1360 -0.1502  0.2915
 4901W        W 8420   4.003   0.628  11.013 -0.0628  0.2891  0.0546
 4902W        W 8421   5.845   0.081   0.225 -0.4056  0.1987 -0.1838
 4903W        W 8422   1.041   9.519   1.721  0.0987  0.2084 -0.0482
 4904W        W 8423   7.215   6.766   9.652 -0.1868 -0.4389 -0.0679
 4905W        W 8424   0.677   8.448  11.828  0.1063 -0.0061 -0.0039
 4906W        W 8425   9.862   7.059  11.306 -0.2172 -0.1489 -0.0584
 4907W        W 8426   5.264   3.156   2.838  0.1445  0.1232  0.0022
 4908W        W 8427   6.895   7.218  11.463 -0.1251  0.2918 -0.1382
 4909W        W 8428   7.369   2.385   1.973 -0.0052  0.0278  0.0173
 4910W        W 8429   5.189   7.557   0.001 -0.3751  0.0540  0.0438
 4911W        W 8430   0.258   6.961   0.480 -0.0159 -0.1017  0.1112
 4912W        W 8431   6.262   8.040  10.554 -0.4642  0.2251 -0.1136
 4913W        W 8432   1.235   6.124   8.758 -0.1780  0.1930 -0.0442
 4914W        W 8433   2.878   9.849   2.424  0.1093 -0.3101  0.1104
 4915W        W 8434   6.790   7.003   0.645 -0.1310 -0.3492  0.1667
 4916W        W 8435   9.853   0.045   4.037  0.0289  0.1781  0.0975
 4917W        W 8436   8.109   4.813   4.465  0.0585  0.1455  0.0523
 4918W        W 8437   5.265   8.791   3.983  0.1633  0.3716  0.2435
 4919W        W 8438   2.030   9.110   5.150  0.0473  0.0282 -0.0676
 4920W        W 8439   6.421   8.821   9.859 -0.1111  0.0390  0.4763
 4921W        W 8440   2.613   9.035   1.523  0.0589 -0.3110  0.0347
 4922W        W 8441   3.868   5.908  11.175  0.1494 -0.1011 -0.1699
 4923W        W 8442   7.165   7.303   9.613  0.2415  0.1736 -0.0212
 4924W        W 8443   4.676   6.024   0.975  0.2490  0.1906 -0.2109
 4925W        W 8444   1.034   8.383   2.148 -0.2526 -0.0395 -0.1339
 4926W        W 8445   3.378   0.568   8.263 -0.1355 -0.2709 -0.1729
 4927W        W 8446   9.226   5.564   0.001  0.1846 -0.2244 -0.0619
 4928W        W 8447   0.590   6.284   0.900  0.1276 -0.1306  0.0338
 4929W        W 8448   7.690   0.593   3.641  0.1074 -0.0852  0.0384
 4930W        W 8449   0.303   0.701  11.881  0.4250  0.2303 -0.0206
 4931W        W 8450   2.172   7.760   4.648 -0.1253 -0.1585 -0.4027
 4932W        W 8451   8.150   5.923  10.353  0.0107  0.0513  0.1653
 4933W        W 8452   3.001   6.394   2.780  0.1814  0.0260 -0.3774
 4934W        W 8453   7.779   8.806   2.242  0.1658 -0.2192  0.2025
 4935W        W 8454   4.855   9.141   4.126  0.2578  0.1612  0.2376
 4936W        W 8455   6.571   0.227   9.361 -0.0783  0.0529 -0.0960
 4937W        W 8456   3.097   0.716   9.519  0.0949  0.0848 -0.0057
 4938W        W 8457   3.960   9.119   4.158 -0.0373 -0.2075 -0.0120
 4939W        W 8458   6.803   3.039   0.941  0.1324 -0.3433  0.2085
 4940W        W 8459   3.814   0.615   0.837  0.0687 -0.2070  0.0339
 4941W        W 8460   2.779   4.256   3.752  0.1901  0.0259 -0.0484
 4942W        W 8461   2.568   2.552   9.856 -0.2259  0.0941 -0.3889
 4943W        W 8462   4.179   4.822   0.604 -0.0282  0.2058 -0.1246
 4944W        W 8463   0.257   9.008   8.917 -0.1658  0.0526  0.0290
 4945W        W 8464   4.002   9.552   8.922 -0.2955 -0.0256 -0.0761
 4946W        W 8465   4.985   3.996   3.527  0.2293 -0.1147  0.1872
 4947W        W 8466   2.669   8.708   4.435 -0.1548 -0.0735 -0.3329
 4948W        W 8467   2.419   1.346   1.444  0.0121  0.1623  0.1150
 4949W        W 8468   2.312   5.509   0.872 -0.0589  0.0944 -0.2438
 4950W        W 8469   5.508   0.463   2.222 -0.0708 -0.0182  0.0172
 4951W        W 8470   3.158   2.195   4.518  0.0997 -0.0264 -0.1200
 4952W        W 8471   0.562   0.677   2.259  0.0243 -0.3678  0.1612
 4953W        W 8472   8.237   7.486   9.031 -0.2654 -0.0306 -0.1291
 4954W        W 8473   6.340   7.948   8.768  0.2416 -0.1185  0.1010
 4955W        W 8474   0.176   4.041   8.486 -0.1890  0.0307  0.1855
 4956W        W 8475   3.266   8.645   1.892 -0.0578 -0.0904  0.1323
 4957W        W 8476   3.572   3.424   8.823  0.0155  0.0714 -0.2266
 4958W        W 8477   5.396   5.342   1.243 -0.0230  0.1624  0.3089
 4959W        W 8478   8.802   2.982  10.508  0.2770 -0.2648  0.4521
 4960W        W 8479   5.714   0.740   8.851 -0.1089 -0.0093  0.3184
 4961W        W 8480   6.114   9.269   4.184 -0.0398 -0.1287 -0.0867
 4962W        W 8481   5.335   8.279   2.589  0.1869 -0.0830 -0.2482
 4963W        W 8482   3.130   1.082   9.917  0.0220  0.0202  0.0474
 4964W        W 8483   8.783   5.721   3.154  0.0773  0.0883 -0.2447
 4965W        W 8484   3.704   4.060   0.127 -0.3740  0.0499 -0.0129
 4966W        W 8485   1.447   1.164   3.696 -0.0903  0.0090  0.1989
 4967W        W 8486   1.616   3.956   3.417 -0.1676 -0.0017  0.0730
 4968W        W 8487   2.992   2.382   0.191  0.0648  0.4947  0.0258
 4969W        W 8488   3.067   1.312  11.637 -0.0181 -0.1440  0.0056
 4970W        W 8489   0.503   9.556   2.049  0.0675 -0.2456  0.0552
 4971W        W 8490   8.346   2.869  11.651  0.0346  0.1342  0.1117
 4972W        W 8491   5.785   6.844   4.066 -0.2021  0.0805  0.1179
 4973W        W 8492   8.977   9.048   3.893  0.2267 -0.1296  0.2493
 4974W        W 8493   7.586   7.203   0.732 -0.0221 -0.1559 -0.4119
 4975W        W 8494   3.460   0.094   0.258 -0.2269 -0.0606 -0.1464
 4976W        W 8495   9.278   5.619   1.410  0.0170  0.2225 -0.0557
 4977W        W 8496   3.593   0.720   9.051 -0.2923 -0.0828  0.3000
 4978W        W 8497   7.910   6.769   1.894  0.2163  0.2337 -0.2051
 4979W        W 8498   1.922   7.331   1.563 -0.1243  0.1775 -0.0902
 4980W        W 8499   6.377   4.508   9.747 -0.3808  0.0051 -0.1411
 4981W        W 8500   0.977   3.887   9.690  0.2102  0.1663 -0.0710
 4982W        W 8501   0.272   0.369   4.776  0.2303  0.1996 -0.0709
 4983W        W 8502   0.747   5.908  10.169  0.0501 -0.4534 -0.0640
 4984W        W 8503   3.333   9.426   9.797  0.3700 -0.2031  0.0830
 4985W        W 8504   3.155   0.915  10.364 -0.2359  0.0746  0.0539
 4986W        W 8505   3.564   6.310   8.848  0.2149  0.0076  0.1410
 4987W        W 8506   4.989   6.818   2.139  0.0469  0.1793  0.0485
 4988W        W 8507   3.072   9.677  11.327  0.0696  0.1185 -0.1391
 4989W        W 8508   2.537   0.540  11.162  0.1751 -0.4262  0.0843
 4990W        W 8509   3.589   0.034   1.199 -0.2143  0.0242  0.4403
 4991W        W 8510   1.310   6.557   9.612  0.0275 -0.2378  0.2838
 4992W        W 8511   8.060   2.924   3.925  0.1028  0.1173 -0.1822
 4993W        W 8512   8.938   0.869   0.471 -0.1105 -0.2209  0.1306
 4994W        W 8513   5.256   1.454   2.009 -0.0417 -0.0047 -0.1910
 4995W        W 8514   4.989   1.524   1.480  0.1250  0.1311  0.1556
 4996W        W 8515   8.557   3.692   4.065 -0.1763 -0.1507  0.2982
 4997W        W 8516   8.625   6.401  11.070  0.0292  0.1377 -0.0187
 4998W        W 8517   2.166   0.663   3.322  0.0052  0.2488 -0.1987
 4999W        W 8518   0.185   1.181   9.153 -0.1192 -0.1171  0.2288
 5000W        W 8519   7.834   6.966   3.857 -0.1220  0.0394  0.0638
 5001W        W 8520   4.788   7.736   4.035  0.3206 -0.2676  0.0686
 5002W        W 8521   1.835   3.890   2.902  0.3101  0.3123  0.1112
 5003W        W 8522   8.804   8.562   0.443 -0.0384 -0.0485 -0.0048
 5004W        W 8523   0.772   6.605   9.615 -0.1109  0.4515 -0.2719
 5005W        W 8524   7.262   4.667   4.695 -0.2597  0.1668 -0.5011
 5006W        W 8525   7.534   8.055   1.979 -0.1232 -0.2254 -0.1732
 5007W        W 8526   6.626   6.614   1.953  0.0906 -0.0210  0.2712
 5008W        W 8527   6.530   1.809   3.930  0.4192 -0.2835 -0.0161
 5009W        W 8528   4.639   4.461   8.567  0.2435 -0.1765 -0.0786
 5010W        W 8529   0.460   7.718   2.590 -0.2725  0.0473 -0.0013
 5011W        W 8530   5.855   5.547   1.144 -0.1977 -0.2885 -0.1528
 5012W        W 8531   3.967   0.032   8.621 -0.0023  0.0955  0.0452
 5013W        W 8532   3.559   2.000   3.133 -0.2504 -0.0927  0.2882
 5014W        W 8533   9.068   0.466   8.431 -0.0544 -0.3943 -0.0204
 5015W        W 8534   7.616   8.045   3.477  0.0200  0.0776 -0.0723
 5016W        W 8535   5.402   6.019   8.884 -0.0943 -0.2365  0.0533
 5017W        W 8536   8.097   7.239   9.554 -0.3351 -0.0364 -0.0775
 5018W        W 8537   2.908   5.174   8.884 -0.3635 -0.0330 -0.1254
 5019W        W 8538   9.559   2.920   2.317 -0.0430 -0.1048 -0.2284
 5020W        W 8539   1.404   9.941   4.595  0.0587  0.0785 -0.0996
 5021W        W 8540   8.828   1.081   3.395  0.0056 -0.0169  0.0521
 5022W        W 8541   8.593   9.044   9.785  0.1186  0.0200  0.2048
 5023W        W 8542   8.774   0.373   4.640  0.1759  0.0821 -0.0269
 5024W        W 8543   1.659   5.653   9.405  0.0964 -0.0459  0.2045
 5025W        W 8544   8.686   9.251   9.336 -0.1271 -0.0070 -0.3889
 5026W        W 8545   7.103   9.096   2.834 -0.1109  0.3961  0.0894
 5027W        W 8546   5.780   5.291   9.943  0.3711  0.1073  0.0765
 5028W        W 8547   6.155   3.082   2.127 -0.1458  0.0685 -0.1900
 5029W        W 8548   2.003   5.019  11.873 -0.0455 -0.1552 -0.2861
 5030W        W 8549   6.520   6.849   8.838  0.0856 -0.0368  0.0078
 5031W        W 8550   4.201   0.941   3.090 -0.0801  0.1780 -0.0036
 5032W        W 8551   2.313   0.742   8.878  0.0850 -0.0911 -0.2001
 5033W        W 8552   2.361   8.495   4.105 -0.0486 -0.2212  0.4248
 5034W        W 8553   6.725   7.151   2.415  0.0132  0.2843 -0.0535
 5035W        W 8554   9.412   7.318  11.441 -0.2153 -0.1716 -0.2613
 5036W        W 8555   3.155   4.874   0.627 -0.1746  0.3092 -0.0850
 5037W        W 8556   8.168   5.841   1.599  0.0981  0.3036  0.2086
 5038W        W 8557   3.967   0.469   2.961 -0.0024 -0.2146 -0.0593
 5039W        W 8558   9.915   0.284   0.068  0.3057  0.2065 -0.3295
 5040W        W 8559   7.700   8.153   0.922 -0.0259 -0.2359 -0.5580
 5041W        W 8560   5.011   6.250   8.098  0.2763  0.0803  0.2758
 5042W        W 8561   0.739   2.438   9.838 -0.1891  0.0878 -0.0413
 5043W        W 8562   1.821   0.510   9.504  0.1439  0.3635 -0.0648
 5044W        W 8563   6.814   9.439  11.606  0.0924  0.0385  0.1384
 5045W        W 8564   1.565   8.827  11.511  0.4208  0.2886  0.0293
 5046W        W 8565   4.074   5.959   9.034  0.0636 -0.4474 -0.1916
 5047W        W 8566   6.609   0.360   0.219  0.2058 -0.0676 -0.0183
 5048W        W 8567   6.980   8.237  11.651  0.0716  0.0337 -0.4302
 5049W        W 8568   6.651   4.047   9.072 -0.1796  0.0729  0.1611
 5050W        W 8569   5.377   2.049   3.662 -0.0537 -0.2687  0.2141
 5051W        W 8570   1.271   5.578   1.246 -0.1570 -0.2313  0.1005
 5052W        W 8571   8.683   2.090   0.079 -0.0042 -0.1858 -0.1974
 5053W        W 8572   3.429   2.134   9.995  0.2311  0.1954 -0.0798
 5054W        W 8573   9.562   4.626  11.796 -0.0316 -0.0180 -0.0210
 5055W        W 8574   2.113   3.646   1.155 -0.0871  0.0335  0.0706
 5056W        W 8575   8.547   3.857   0.319 -0.0389 -0.1204 -0.1678
 5057W        W 8576   6.407   4.527   8.910 -0.1092 -0.0575 -0.0463
 5058W        W 8577   4.148   9.773   1.820  0.3515 -0.0119  0.2849
 5059W        W 8578   0.538   5.453   9.846 -0.2757 -0.0235 -0.0848
 5060W        W 8579   9.518   0.632   1.898 -0.1298 -0.0347  0.0168
 5061W        W 8580   7.804   6.294   9.378 -0.3830 -0.0481  0.1732
 5062W        W 8581   1.284   4.594   3.132 -0.0059  0.0079 -0.1151
 5063W        W 8582   2.077   7.626  10.318 -0.1548  0.2142 -0.0149
 5064W        W 8583   2.033   4.560  11.186  0.1903  0.1761 -0.0401
 5065W        W 8584   7.473   9.696   9.842  0.0015  0.0419 -0.3336
 5066W        W 8585   5.343   3.613   2.029 -0.1942 -0.0527  0.0756
 5067W        W 8586   9.454   4.758   1.757  0.3072 -0.1343 -0.0998
 5068W        W 8587   4.464   9.800   2.974  0.2621  0.0583 -0.0114
 5069W        W 8588   4.806   0.386   0.350 -0.3271  0.1036  0.0543
 5070W        W 8589   3.056   3.298   9.561  0.1250  0.2717  0.2991
 5071W        W 8590   2.355   0.442  10.332 -0.1615  0.0484  0.2739
 5072W        W 8591   4.447   5.034   2.377  0.3432 -0.2104 -0.0551
 5073W        W 8592   9.531   8.846   1.380 -0.1625 -0.2375  0.1288
 5074W        W 8593   9.265   2.914  11.422  0.2423  0.2957  0.0210
 5075W        W 8594   9.101   0.159   4.924 -0.1300 -0.1393  0.0852
 5076W        W 8595   0.862   8.569   3.011  0.4851 -0.0882  0.1075
 5077W        W 8596   9.670   8.309   9.930  0.2186 -0.0041 -0.0631
 5078W        W 8597   3.401   3.097   0.610 -0.2851  0.3256 -0.1015
 5079W        W 8598   9.182   3.322   0.468  0.1511  0.4226 -0.0579
 5080W        W 8599   2.914   6.968  10.787 -0.1687  0.0335 -0.1917
 5081W        W 8600   9.400   5.347   4.127  0.1120 -0.2845 -0.2048
 5082W        W 8601   7.620   7.384   2.452 -0.1711 -0.1976 -0.3544
 5083W        W 8602   4.711   6.938   2.520  0.2036  0.0730 -0.3679
 5084W        W 8603   0.983   7.823   9.997  0.1401  0.4577  0.1877
 5085W        W 8604   1.821   2.160   1.740  0.0603  0.0396 -0.0719
 5086W        W 8605   5.688   5.118   3.361 -0.1241  0.0203  0.0980
 5087W        W 8606   2.239   7.615  10.843 -0.2754  0.2040  0.1953
 5088W        W 8607   7.766   6.346   0.074 -0.0175  0.1739 -0.1448
 5089W        W 8608   5.245   2.695   3.081  0.0041 -0.0612 -0.1306
 5090W        W 8609   8.543   8.002   3.115  0.2551 -0.0411 -0.1862
 5091W        W 8610   8.150   0.311  11.490 -0.0554  0.0473 -0.0046
 5092W        W 8611   5.500   9.418   0.850  0.2229 -0.1871  0.0054
 5093W        W 8612   0.450   2.376   3.803  0.1026  0.0249  0.3058
 5094W        W 8613   6.372   6.907   2.827 -0.0072  0.3312  0.1527
 5095W        W 8614   3.564   5.619   1.534 -0.2813 -0.0922  0.1590
 5096W        W 8615   2.533   3.102  11.029  0.0771  0.0895 -0.0760
 5097W        W 8616   4.543   5.814  10.275 -0.0824  0.1391 -0.1190
 5098W        W 8617   0.461   9.114   4.200 -0.3328  0.1034 -0.1168
 5099W        W 8618   2.153   5.790   9.233 -0.1358  0.0338  0.0807
 5100W        W 8619   6.611   4.904  10.010  0.0111  0.0964 -0.3356
 5101W        W 8620   2.180   3.106  10.241 -0.1506 -0.0687  0.4241
 5102W        W 8621   7.827   5.149   2.872 -0.1141 -0.0380  0.2477
 5103W        W 8622   1.274   0.104   5.068  0.0570 -0.1640 -0.1307
 5104W        W 8623   7.358   9.545   2.053 -0.0629 -0.1517 -0.0891
 5105W        W 8624   4.268   4.340   0.524  0.4207  0.2187 -0.3558
 5106W        W 8625   3.739   0.188   1.672 -0.0505  0.1390 -0.2027
 5107W        W 8626   8.693   5.808   2.228 -0.5104 -0.1147  0.1929
 5108W        W 8627   6.844   8.555   0.124 -0.2279  0.5165 -0.0026
 5109W        W 8628   9.706   9.483  11.433  0.3358  0.0331  0.1662
 5110W        W 8629   3.213   4.160   0.032  0.0943  0.2266  0.0112
 5111W        W 8630   4.991   0.626   8.775  0.1373 -0.2679 -0.2128
 5112W        W 8631   1.346   8.092  10.479 -0.1469  0.0327 -0.0729
 5113W        W 8632   3.276   5.327   9.208  0.6981  0.0742  0.0702
 5114W        W 8633   2.113   7.290  11.237  0.3025  0.0822  0.0179
 5115W        W 8634   4.602   8.704  11.617  0.1417 -0.1496 -0.0294
 5116W        W 8635   5.317   7.351   0.898 -0.2156  0.0519 -0.0335
 5117W        W 8636   2.501   8.051   0.461 -0.1502 -0.0184  0.1736
 5118W        W 8637   7.685   2.111   2.785  0.6468  0.1236  0.2934
 5119W        W 8638   4.612   6.851  10.672 -0.1397  0.1672  0.0656
 5120W        W 8639   4.766   6.667   8.237  0.1422 -0.1065 -0.1806
 5121W        W 8640   1.811   9.259  11.622 -0.4447  0.1843  0.2922
 5122W        W 8641   7.712   9.739   0.488 -0.0862  0.0225  0.2204
 5123W        W 8642   1.100   9.222   3.571 -0.0146 -0.0653  0.3509
 5124W        W 8643   8.818   1.027   9.601  0.1280  0.0543  0.1764
 5125W        W 8644   8.981   0.897  11.346 -0.1482 -0.0962 -0.1036
 5126W        W 8645   5.946   9.332   9.519  0.1503 -0.2898  0.2013
 5127W        W 8646   2.711   3.148  11.638 -0.0738 -0.1949 -0.1221
 5128W        W 8647   9.440   9.706   4.703  0.1401  0.0674  0.1926
 5129W        W 8648   2.342   6.320   2.859  0.0372  0.0325  0.0901
 5130W        W 8649   0.862   0.047   9.752 -0.2236  0.2076 -0.0599
 5131W        W 8650   8.070   5.324   9.171  0.1143  0.0548 -0.0562
 5132W        W 8651   2.567   4.461   1.225 -0.2189  0.1169 -0.0556
 5133W        W 8652   4.378   8.582   0.838 -0.0438 -0.0804  0.0070
 5134W        W 8653   4.286   2.115   3.336 -0.0609  0.0690 -0.4785
 5135W        W 8654   7.057   3.184   1.386  0.1112  0.3336  0.0407
 5136W        W 8655   5.658   1.209   1.199  0.3779  0.5384  0.0294
 5137W        W 8656   4.911   2.508   0.773 -0.1572 -0.0904 -0.4230
 5138W        W 8657   5.433   4.071  11.900 -0.1180  0.2759 -0.3075
 5139W        W 8658   3.038   3.057  10.792 -0.5665 -0.0655 -0.0761
 5140W        W 8659   6.226   9.448   1.370  0.0510  0.0162 -0.0126
 5141W        W 8660   2.137   5.002  10.065  0.3558 -0.1932  0.1522
 5142W        W 8661   3.246   1.673   9.893 -0.0212 -0.1271  0.2539
 5143W        W 8662   8.248   8.797   3.556  0.0287  0.2643  0.2028
 5144W        W 8663   8.864   9.178  10.639  0.1716 -0.1391 -0.2267
 5145W        W 8664   2.742   3.133   2.073  0.2016  0.0448  0.2276
 5146W        W 8665   9.765   0.922  11.018  0.1497  0.4017  0.2476
 5147W        W 8666   6.281   4.465   0.127 -0.0195  0.0507  0.2174
 5148W        W 8667   0.516   4.222   9.695  0.2305  0.1254 -0.0133
 5149W        W 8668   2.555   3.674  11.641 -0.3680 -0.1851 -0.0557
 5150W        W 8669   5.785   0.007  11.254  0.1190  0.2053  0.1243
 5151W        W 8670   7.335   4.158   3.773  0.0539  0.0123  0.1647
 5152W        W 8671   5.883   5.395   8.312 -0.1909 -0.0449 -0.0062
 5153W        W 8672   1.625   5.914  11.087 -0.1464  0.0493 -0.1093
 5154W        W 8673   1.060   1.642   2.060 -0.2639 -0.1184 -0.1210
 5155W        W 8674   5.843   3.987   2.167 -0.1294  0.0449  0.2396
 5156W        W 8675   3.522   5.437   8.280  0.2259  0.0254  0.0814
 5157W        W 8676   1.271   9.479   4.624  0.1980  0.0157 -0.0876
 5158W        W 8677   7.231   3.677   0.105 -0.1128 -0.1600 -0.3955
 5159W        W 8678   6.784   4.771   2.278 -0.2468  0.0331 -0.0859
 5160W        W 8679   7.037   1.256  11.276  0.1714 -0.1956  0.1422
 5161W        W 8680   1.382   7.112   1.613  0.0865 -0.0731  0.0736
 5162W        W 8681   3.519   5.787   9.085  0.1212 -0.2178 -0.2988
 5163W        W 8682   7.368   6.930   1.964  0.1060  0.1139 -0.2089
 5164W        W 8683   9.552   8.705   9.599 -0.1408  0.1901 -0.3447
 5165W        W 8684   1.132   0.824   4.441 -0.1307  0.1630  0.0467
 5166W        W 8685   6.034   6.502  10.012 -0.2499  0.0214  0.1046
 5167W        W 8686   0.392   5.435   0.754 -0.1943 -0.0437  0.2058
 5168W        W 8687   5.265   4.866  10.646  0.0826  0.1489 -0.0181
 5169W        W 8688   1.034   6.051   1.133 -0.0692 -0.2116  0.0938
 5170W        W 8689   7.661   1.083   3.794  0.0652  0.2803  0.0491
 5171W        W 8690   2.322   3.675  10.256  0.2595  0.2526 -0.1576
 5172W        W 8691   2.511   9.413   0.826  0.0369  0.1578  0.2259
 5173W        W 8692   6.982   6.094   0.365 -0.0758  0.0052  0.2201
 5174W        W 8693   1.902   5.200   9.675 -0.1154  0.1065  0.0095
 5175W        W 8694   7.769   2.614  10.513 -0.1944  0.2150 -0.2034
 5176W        W 8695   5.671   9.086   3.809  0.1494  0.0462  0.0568
 5177W        W 8696   8.475   0.359   9.802 -0.1203  0.1892 -0.0745
 5178W        W 8697   6.084   2.656  10.360  0.0466  0.1303 -0.1265
 5179W        W 8698   0.079   2.815   3.720  0.3189  0.3765 -0.0582
 5180W        W 8699   0.515   8.230   1.854 -0.0098 -0.4103  0.0505
 5181W        W 8700   7.469   8.033  11.416  0.1748 -0.0755  0.2471
 5182W        W 8701   8.023   0.374  10.748 -0.1905  0.4209 -0.0208
 5183W        W 8702   6.581   8.486  10.394 -0.0296  0.0645 -0.0842
 5184W        W 8703   0.567   1.965  10.498  0.0722  0.1902  0.1660
 5185W        W 8704   6.446   8.265  11.796 -0.3083  0.0554 -0.0069
 5186W        W 8705   9.285   2.382  11.347 -0.2151 -0.0642  0.1385
 5187W        W 8706   7.291   3.183   0.232 -0.0437  0.0104 -0.0202
 5188W        W 8707   1.729   6.533   2.942  0.2554 -0.4943  0.3495
 5189W        W 8708   7.092   9.391   1.645  0.0345 -0.0247  0.3127
 5190W        W 8709   4.633   8.301   1.169  0.1181 -0.2145 -0.1061
 5191W        W 8710   8.357   5.823   9.624 -0.0168 -0.2578 -0.0614
 5192W        W 8711   4.279   7.460   0.645 -0.1273  0.0967  0.1054
 5193W        W 8712   1.261   8.002   1.316 -0.2575  0.0532  0.1614
 5194W        W 8713   1.076   6.703   2.332 -0.0707  0.1075 -0.1688
 5195W        W 8714   6.473   4.727   8.447 -0.0575 -0.2491  0.2232
 5196W        W 8715   1.445   7.016   3.347  0.0442  0.1450 -0.0801
 5197W        W 8716   4.043   3.772   9.531  0.0157 -0.0278 -0.0682
 5198W        W 8717   2.764   2.057   9.825  0.2019 -0.0541  0.1863
 5199W        W 8718   9.036   1.374  11.451 -0.1624 -0.0403 -0.2393
 5200W        W 8719   4.730   2.600  10.763 -0.0244  0.2158 -0.0450
 5201W        W 8720   2.967   0.773   2.417 -0.2153 -0.1196 -0.1978
 5202W        W 8721   1.869   5.599   8.417 -0.2095 -0.0029 -0.0101
 5203W        W 8722   1.855   2.959   2.668 -0.0918 -0.0900 -0.1319
 5204W        W 8723   8.234   5.695   5.023  0.0836  0.0462 -0.1025
 5205W        W 8724   6.580   8.849   4.255 -0.1972  0.1551  0.1932
 5206W        W 8725   1.500   4.510   9.246 -0.1383 -0.2002  0.1394
 5207W        W 8726   5.452   9.574  10.510 -0.2253  0.3266 -0.0161
 5208W        W 8727   2.784   7.359  11.108  0.2183 -0.1832  0.4382
 5209W        W 8728   2.918   9.217   9.629 -0.0169  0.1745 -0.2168
 5210W        W 8729   0.719   8.934   0.466  0.0377 -0.1397  0.0822
 5211W        W 8730   5.860   0.999   2.732 -0.0148 -0.0253  0.1827
 5212W        W 8731   9.086   4.597   2.702  0.1764 -0.3051 -0.1510
 5213W        W 8732   2.187   8.429   2.897 -0.0790 -0.0474  0.1499
 5214W        W 8733   2.643   9.216   2.501 -0.2490 -0.2029  0.0376
 5215W        W 8734   6.830   7.989   0.328 -0.2080 -0.1604  0.0656
 5216W        W 8735   6.002   1.664   0.514 -0.2640 -0.2870  0.0885
 5217W        W 8736   7.099   1.793  11.414 -0.1033  0.1252 -0.1913
 5218W        W 8737   3.436   9.851  10.220  0.0584 -0.3080  0.1646
 5219W        W 8738   7.488   8.434   2.615  0.0738 -0.1505  0.3734
 5220W        W 8739   3.793   4.556   1.408  0.0601 -0.1183  0.1182
 5221W        W 8740   3.151   5.947   1.877 -0.0230 -0.1961 -0.2667
 5222W        W 8741   8.312   1.751  10.403  0.0947 -0.2124  0.3284
 5223W        W 8742   3.901   7.717  11.560  0.0794  0.0382  0.1950
 5224W        W 8743   7.774   5.498   0.652  0.3452 -0.1047  0.1410
 5225W        W 8744   6.004   7.070   1.398 -0.0617 -0.2406 -0.4236
 5226W        W 8745   4.442   3.059   2.427 -0.4219 -0.2303 -0.0201
 5227W        W 8746   3.121   1.533   3.784 -0.2614  0.1328  0.1329
 5228W        W 8747   4.133   6.414   3.244  0.0222  0.2069 -0.4040
 5229W        W 8748   0.015   5.625   1.782  0.0523  0.3151 -0.1731
 5230W        W 8749   4.331   1.143   0.232  0.1655 -0.0884 -0.0129
 5231W        W 8750   6.712   0.263   1.703 -0.0592  0.2012  0.1978
 5232W        W 8751   6.019   0.123   8.254 -0.2039 -0.0727 -0.1471
 5233W        W 8752   7.989   8.456   8.475  0.0793 -0.1321 -0.0475
 5234W        W 8753   0.072   2.013   3.574  0.3427 -0.1996 -0.2501
 5235W        W 8754   5.939   0.325   4.549  0.1266 -0.1525  0.1760
 5236W        W 8755   8.184   8.095   0.652 -0.0040 -0.0797 -0.0822
 5237W        W 8756   2.475   9.816   9.475  0.0014 -0.4042 -0.0358
 5238W        W 8757   9.137   8.644   9.394  0.0679 -0.3552  0.0752
 5239W        W 8758   3.609   9.460   1.412  0.2070 -0.2720 -0.2831
 5240W        W 8759   5.384   2.676   2.593  0.0822  0.0354 -0.1885
 5241W        W 8760   6.954   5.308  10.671 -0.1882  0.1764  0.1572
 5242W        W 8761   2.916   7.414   3.746 -0.0493  0.1284 -0.0817
 5243W        W 8762   0.843   6.385   1.981 -0.1280 -0.5065  0.0927
 5244W        W 8763   9.804   3.672   3.367  0.1277 -0.1995 -0.1875
 5245W        W 8764   9.324   8.252   4.199  0.2572  0.0401  0.0646
 5246W        W 8765   3.007   8.558   2.806  0.1703  0.0801 -0.2900
 5247W        W 8766   9.545   0.788   1.375 -0.1899 -0.0045  0.1979
 5248W        W 8767   5.416   0.372   8.870  0.2709 -0.0020  0.2762
 5249W        W 8768   3.967   9.582   2.776 -0.1179 -0.2282  0.1054
 5250W        W 8769   1.323   1.654   2.859  0.1233 -0.2067 -0.0570
 5251W        W 8770   2.775   9.106  10.631 -0.0506 -0.1791  0.3485
 5252W        W 8771   9.336   0.803   3.429 -0.0078 -0.2160  0.1321
 5253W        W 8772   1.538   6.412  10.036 -0.1900 -0.1695 -0.2554
 5254W        W 8773   5.032   5.105   8.692 -0.1952  0.0601  0.1486
 5255W        W 8774   6.773   7.826   3.031 -0.1362 -0.0629 -0.3645
 5256W        W 8775   1.959   2.072  10.739 -0.0168 -0.2536 -0.3873
 5257W        W 8776   1.865   7.082   2.033 -0.1652 -0.0731  0.1479
 5258W        W 8777   8.210   0.208  10.235 -0.0822 -0.2414  0.1638
 5259W        W 8778   8.636   5.783   4.151 -0.2207 -0.2532  0.0891
 5260W        W 8779   9.267   5.225   2.723 -0.3446 -0.1133  0.1564
 5261W        W 8780   2.665   2.217  10.660 -0.2375 -0.3069  0.1909
 5262W        W 8781   1.133   2.010   2.443  0.2023  0.0081 -0.1603
 5263W        W 8782   0.055   1.214   1.340 -0.0924 -0.2538 -0.4240
 5264W        W 8783   0.093   9.403   3.223 -0.1095  0.0214  0.0083
 5265W        W 8784   6.770   4.092   2.267 -0.2031  0.0301 -0.1512
 5266W        W 8785   2.433   4.920   9.004  0.0724 -0.0495 -0.2711
 5267W        W 8786   6.969   1.849  10.726  0.0325 -0.1089  0.0260
 5268W        W 8787   6.701   7.486   1.983 -0.1369  0.0420  0.0638
 5269W        W 8788   3.753   2.775  10.397  0.1277  0.1094 -0.0791
 5270W        W 8789   5.797   5.159   8.814 -0.1255  0.0683 -0.2076
 5271W        W 8790   1.298   4.484   0.264  0.2960  0.1295 -0.2595
 5272W        W 8791   5.397   7.182  11.293  0.0467  0.4836 -0.0131
 5273W        W 8792   5.674   3.409   1.590  0.0837  0.0624 -0.2823
 5274W        W 8793   2.665   5.396   1.263  0.2065 -0.0982  0.2302
 5275W        W 8794   5.005   0.597   3.076  0.1316 -0.0317 -0.0361
 5276W        W 8795   0.047   0.781   3.217  0.2429 -0.2343 -0.1204
 5277W        W 8796   0.036   7.696   4.842  0.0707 -0.1740  0.1123
 5278W        W 8797   8.076   5.040  11.157 -0.3869  0.0683  0.1072
 5279W        W 8798   6.094   7.676   1.495  0.1127  0.2387 -0.1997
 5280W        W 8799   9.536   1.991   0.734  0.3153 -0.0390 -0.1164
 5281W        W 8800   9.875   4.183   3.074 -0.0772 -0.0149  0.0464
 5282W        W 8801   5.233   9.172   9.574  0.4005  0.0147  0.2631
 5283W        W 8802   9.505   2.542   8.939  0.1071 -0.0057  0.0645
 5284W        W 8803   3.577   3.624   0.749  0.0128  0.2769 -0.0501
 5285W        W 8804   8.570   8.710   1.813 -0.0183 -0.2411 -0.0736
 5286W        W 8805   0.119   0.816   4.400 -0.1023 -0.2744  0.0803
 5287W        W 8806   9.612   8.750   5.373  0.0609  0.1410 -0.3267
 5288W        W 8807   8.674   3.665  11.028  0.0960 -0.2671 -0.0532
 5289W        W 8808   2.893   2.506   4.215  0.3758 -0.0509 -0.2867
 5290W        W 8809   8.058   6.371   8.905 -0.2150  0.0378  0.0345
 5291W        W 8810   7.721   7.186   9.873 -0.1366 -0.0378  0.1710
 5292W        W 8811   3.386   4.442   9.899  0.1912 -0.1751  0.0694
 5293W        W 8812   3.047   3.973   8.959  0.0421 -0.1111 -0.1429
 5294W        W 8813   6.387   9.401  10.362  0.0959  0.0643  0.2757
 5295W        W 8814   1.150   5.740   2.756  0.0126  0.0677  0.0640
 5296W        W 8815   3.862   5.544   0.180  0.0366 -0.0583 -0.1826
 5297W        W 8816   1.960   8.706  10.198 -0.1892  0.0355  0.0484
 5298W        W 8817   2.164   4.212   2.720  0.0809  0.2608 -0.1233
 5299W        W 8818   6.674   4.527   9.309 -0.0679  0.0255  0.1058
 5300W        W 8819   2.572   3.187   9.035 -0.1208 -0.0523 -0.2492
 5301W        W 8820   1.046   6.225  11.505  0.2577 -0.0016 -0.1253
 5302W        W 8821   8.472   7.051   1.147  0.0424 -0.0458  0.2487
 5303W        W 8822   0.811   9.687  10.282  0.0027  0.2374 -0.1214
 5304W        W 8823   3.860   2.575  11.404 -0.3163 -0.2575  0.0927
 5305W        W 8824   5.693   1.637   8.792  0.1065 -0.2442  0.2115
 5306W        W 8825   2.987   4.330  10.208  0.2412 -0.2916 -0.0944
 5307W        W 8826   1.650   3.194   1.775  0.3904  0.0812 -0.2609
 5308W        W 8827   5.791   0.764  10.249 -0.1904  0.0339  0.2183
 5309W        W 8828   9.830   0.000  11.189  0.2376 -0.0346 -0.0395
 5310W        W 8829   8.323   7.503   0.708  0.1578  0.0063  0.0371
 5311W        W 8830   5.956   4.806   9.834 -0.3058  0.1778  0.0661
 5312W        W 8831   4.298   7.910   9.652 -0.1493 -0.0991 -0.1009
 5313W        W 8832   2.163   9.691   4.166 -0.4407  0.0231  0.0931
 5314W        W 8833   0.991   9.625   2.198  0.0394 -0.1582 -0.3620
 5315W        W 8834   7.918   7.696   9.981  0.1292  0.2179  0.0662
 5316W        W 8835   1.075   6.400   3.536  0.1727 -0.1352  0.2917
 5317W        W 8836   1.659   3.703   1.278 -0.3230  0.2963 -0.0962
 5318W        W 8837   3.115   8.576   3.378  0.0995 -0.0707 -0.1048
 5319W        W 8838   6.973   1.361   4.578 -0.0048 -0.0852 -0.0905
 5320W        W 8839   1.313   4.738  11.374  0.1096 -0.0447 -0.0977
 5321W        W 8840   4.643   2.560   1.290  0.0396 -0.0285 -0.1633
 5322W        W 8841   6.336   1.142   2.701 -0.3124 -0.0943 -0.1699
 5323W        W 8842   1.793   6.283   1.594  0.0588  0.3204  0.0722
 5324W        W 8843   2.139   2.091   2.819 -0.1348  0.0037  0.1844
 5325W        W 8844   6.395   0.414   4.086  0.0074 -0.3204  0.0444
 5326W        W 8845   0.779   4.938  11.161  0.1210 -0.1198  0.0435
 5327W        W 8846   5.429   9.810   1.515  0.1128  0.0029  0.1277
 5328W        W 8847   9.924   9.394   1.879 -0.2886  0.1019 -0.2352
 5329W        W 8848   2.764   5.546  11.673  0.2240  0.1749 -0.0489
 5330W        W 8849   8.101   4.738   3.060  0.3277  0.4830 -0.3067
 5331W        W 8850   9.910   1.306   4.288 -0.1009  0.0704 -0.1787
 5332W        W 8851   0.852   2.336   2.666  0.1626 -0.3506 -0.3111
 5333W        W 8852   1.279   3.433   1.568  0.2546 -0.0964  0.2221
 5334W        W 8853   1.797   9.116  10.426 -0.1860 -0.3143 -0.0798
 5335W        W 8854   9.656   6.930   4.067  0.0501 -0.0438  0.0062
 5336W        W 8855   5.399   2.834   1.640 -0.0706 -0.1507 -0.0422
 5337W        W 8856   9.206   2.309   4.097  0.5002 -0.0227 -0.0441
 5338W        W 8857   8.853   6.774   4.326  0.0496  0.2309  0.1128
 5339W        W 8858   6.841   2.828   8.511 -0.0027 -0.0222  0.0522
 5340W        W 8859   0.220   1.440   2.974  0.1272 -0.1859  0.0429
 5341W        W 8860   3.547   9.523  11.510 -0.2244 -0.0843  0.0028
 5342W        W 8861   6.620   6.278   0.852  0.2076  0.0465 -0.0945
 5343W        W 8862   5.514   8.354   0.649 -0.2193 -0.1948  0.3351
 5344W        W 8863   2.092   2.991  10.726 -0.1184  0.1950  0.3403
 5345W        W 8864   7.074   5.592   4.489 -0.0586  0.0217 -0.1203
 5346W        W 8865   3.231   4.896   2.739 -0.1275  0.2297 -0.2525
 5347W        W 8866   1.332   6.039   9.610  0.0215 -0.0108  0.0400
 5348W        W 8867   1.975   1.852  10.106 -0.0757 -0.0654 -0.0859
 5349W        W 8868   4.860   1.898   3.597  0.1756 -0.0412 -0.1804
 5350W        W 8869   7.872   6.440   1.190 -0.1040 -0.1150 -0.1279
 5351W        W 8870   5.116   9.179   2.488  0.0978 -0.1147  0.1222
 5352W        W 8871   1.371   7.086  11.626  0.1692 -0.0035 -0.4557
 5353W        W 8872   6.694   5.077   3.562  0.2353 -0.1359 -0.0235
 5354W        W 8873   9.825   2.308  11.340 -0.0462 -0.1105  0.0375
 5355W        W 8874   5.071   6.279   9.120 -0.3242 -0.1717 -0.1422
 5356W        W 8875   3.308   2.695   3.739 -0.2168  0.2569 -0.0881
 5357W        W 8876   3.136   6.405   1.837 -0.0654 -0.2428 -0.0678
 5358W        W 8877   4.061   7.644   1.291  0.2815  0.0601  0.1705
 5359W        W 8878   1.184   8.981   2.835 -0.0736 -0.3877 -0.3119
 5360W        W 8879   0.628   1.421   9.217  0.3743 -0.2290 -0.1115
 5361W        W 8880   7.282   9.696   0.160  0.2841 -0.2341  0.3088
 5362W        W 8881   1.221   8.886   0.261  0.1126  0.2170 -0.0389
 5363W        W 8882   8.399   4.342   0.485 -0.1741 -0.0388  0.0884
 5364W        W 8883   9.543   6.150   3.561 -0.3340  0.2861  0.3939
 5365W        W 8884   4.806   5.543   9.563 -0.0026  0.0565  0.0205
 5366W        W 8885   3.949   9.134   9.673 -0.0471  0.2914 -0.1224
 5367W        W 8886   0.451   0.472   3.134 -0.0724  0.1757  0.0433
 5368W        W 8887   1.247   8.558  11.251 -0.2454  0.0818  0.2231
 5369W        W 8888   6.631   8.262   4.399 -0.0708  0.0488 -0.0886
 5370W        W 8889   7.123   5.867   1.375  0.2333 -0.1998 -0.1119
 5371W        W 8890   2.966   0.982   0.606  0.0444  0.0295  0.2252
 5372W        W 8891   4.610   1.825   3.087 -0.1650  0.1059  0.0686
 5373W        W 8892   3.457   3.106   0.061 -0.3433  0.0229  0.0453
 5374W        W 8893   0.661   4.940   2.472 -0.1565 -0.2045 -0.2978
 5375W        W 8894   0.939   0.271   0.875  0.2233 -0.1288  0.3171
 5376W        W 8895   5.984   8.624   3.096  0.2446 -0.1456  0.0962
 5377W        W 8896   0.488   6.858   1.443  0.0331  0.3754 -0.0673
 5378W        W 8897   7.512   9.469   9.275  0.0448  0.2047 -0.0122
 5379W        W 8898   4.893   5.497   1.543  0.0310 -0.2088  0.1447
 5380W        W 8899   1.040   9.334  10.872 -0.1047  0.1623 -0.3062
 5381W        W 8900   2.671   1.356   4.621  0.3569  0.0556 -0.1192
 5382W        W 8901   6.705   1.467   9.167 -0.3160  0.4463 -0.2789
 5383W        W 8902   2.400   3.578   2.093  0.0893 -0.3676 -0.0878
 5384W        W 8903   9.247   8.166   1.776 -0.0347 -0.1180 -0.0118
 5385W        W 8904   2.145   6.866   8.938 -0.0767 -0.0828  0.1934
 5386W        W 8905   0.391   7.286  10.987 -0.0360 -0.0564 -0.0773
 5387W        W 8906   4.985   6.223  10.091  0.1687 -0.1476 -0.1168
 5388W        W 8907   0.922   7.870   9.013 -0.0668  0.2187 -0.2319
 5389W        W 8908   7.854   1.086   4.307  0.1148 -0.4254 -0.0787
 5390W        W 8909   1.141   2.086   1.588 -0.1028  0.0677 -0.2998
 5391W        W 8910   4.732   1.911   8.804 -0.2051 -0.0979  0.0576
 5392W        W 8911   0.927   1.782   9.125  0.0033  0.3635 -0.1482
 5393W        W 8912   7.918   6.150   9.836  0.0066  0.0449  0.0813
 5394W        W 8913   7.899   5.692   1.113  0.0496  0.0395  0.1828
 5395W        W 8914   9.728   4.300  10.222  0.0973  0.2122  0.0372
 5396W        W 8915   5.919   4.139   3.659  0.0492  0.0379 -0.0692
 5397W        W 8916   2.848   4.422   8.223 -0.3810  0.0478 -0.2783
 5398W        W 8917   4.536   6.574   9.564 -0.1168  0.1506 -0.1474
 5399W        W 8918   9.751   6.254  11.630 -0.4734 -0.0082 -0.1213
 5400W        W 8919   8.659   4.418   1.798  0.0459  0.2286  0.1822
 5401W        W 8920   3.535   0.944   9.674  0.2759  0.1395  0.0655
 5402W        W 8921   1.626   0.531   3.023 -0.1583 -0.4182  0.2100
 5403W        W 8922   2.966   3.068   1.552 -0.1086 -0.2952 -0.1352
 5404W        W 8923   5.551   4.409  11.587 -0.1654 -0.0902 -0.1143
 5405W        W 8924   7.856   1.600   4.013  0.3353  0.0800 -0.0848
 5406W        W 8925   0.774   7.035   3.253 -0.0247 -0.0795 -0.2008
 5407W        W 8926   0.946   1.434   2.540 -0.0387 -0.0421  0.3755
 5408W        W 8927   8.052   0.563   8.401 -0.2384  0.0051  0.0654
 5409W        W 8928   6.584   9.505   4.076  0.0275  0.0169 -0.0349
 5410W        W 8929   8.061   6.268  10.998  0.0001 -0.3501 -0.0555
 5411W        W 8930   7.656   3.831   7.788 -0.1015  0.1020  0.0578
 5412W        W 8931   6.536   7.978   1.999 -0.0287  0.1872  0.2446
 5413W        W 8932   8.752   1.393   3.016  0.1565 -0.1019  0.0275
 5414W        W 8933   0.468   3.526   0.972  0.2787  0.1502  0.1363
 5415W        W 8934   9.531   8.642   2.251  0.2785 -0.1184 -0.3413
 5416W        W 8935   2.891   2.319  10.202 -0.2097  0.0775  0.0680
 5417W        W 8936   7.553   0.313  10.615  0.0388  0.0467 -0.0237
 5418W        W 8937   5.267   3.362  10.201  0.0741  0.0739  0.0468
 5419W        W 8938   2.616   8.179   3.104  0.1178 -0.0617  0.1189
 5420W        W 8939   3.469   4.154   1.026  0.3597  0.0944 -0.2126
 5421W        W 8940   2.591   3.231  10.537 -0.2171 -0.2261 -0.0044
 5422W        W 8941   8.704   9.461   0.247  0.3002  0.0766 -0.0980
 5423W        W 8942   7.798   7.414   4.144 -0.0606  0.0142  0.0366
 5424W        W 8943   4.379   9.908   3.430 -0.2661  0.3057  0.0456
 5425W        W 8944   4.052   1.287  10.260 -0.2709  0.0353 -0.0376
 5426W        W 8945   6.928   0.851   0.299  0.2450  0.0243  0.0679
 5427W        W 8946   2.206   5.533   8.802  0.1034  0.0415  0.2040
 5428W        W 8947   0.554   0.038   8.592  0.0422  0.0398  0.1491
 5429W        W 8948   5.036   3.600   9.774 -0.1875  0.0384  0.1850
 5430W        W 8949   3.521   7.406   2.789  0.0017 -0.0408  0.0222
 5431W        W 8950   3.765   0.896   2.843  0.0083  0.0277  0.2350
 5432W        W 8951   7.761   7.301  11.726  0.3345  0.2432  0.0558
 5433W        W 8952   3.513   2.628   0.403  0.1745  0.0766 -0.1976
 5434W        W 8953   8.012   8.159  10.052  0.2563  0.2891 -0.3430
 5435W        W 8954   4.160   4.218  11.957 -0.0117  0.0874  0.2000
 5436W        W 8955   6.172   8.839   8.938  0.0921  0.0408 -0.0043
 5437W        W 8956   3.325   3.264  11.170 -0.1330  0.0284 -0.1462
 5438W        W 8957   1.703   2.785   8.353 -0.3591 -0.3340  0.1937
 5439W        W 8958   1.279   7.633   1.629  0.0959  0.1050  0.1591
 5440W        W 8959   5.220   2.765   3.934 -0.3863 -0.1147 -0.0917
 5441W        W 8960   6.566   4.056   3.222  0.0065  0.0765 -0.1248
 5442W        W 8961   7.191   3.321   3.749  0.0044 -0.1314  0.1352
 5443W        W 8962   0.168   4.685   2.684 -0.1051  0.0961 -0.2130
 5444W        W 8963   5.402   5.276  10.974  0.1135 -0.0226  0.1241
 5445W        W 8964   7.330   0.695   0.501 -0.0362  0.2541  0.2699
 5446W        W 8965   4.326   2.578   3.541 -0.2570 -0.2321  0.1589
 5447W        W 8966   7.262   0.547   3.375  0.1776  0.0041  0.1501
 5448W        W 8967   9.768   7.612   9.924  0.2189 -0.2450  0.3396
 5449W        W 8968   1.587   6.226  11.525 -0.0610  0.1727  0.3171
 5450W        W 8969   8.134   9.402   3.825  0.0688  0.1042  0.0211
 5451W        W 8970   9.163   8.275  11.611  0.0145  0.3511  0.3169
 5452W        W 8971   2.248   6.985   9.939  0.0541 -0.1042 -0.2937
 5453W        W 8972   0.042   5.639   3.895 -0.1085 -0.2014 -0.2487
 5454W        W 8973   0.991   2.962   1.033  0.1354 -0.0379 -0.1191
 5455W        W 8974   2.399   8.777   3.622  0.0848  0.4569 -0.2223
 5456W        W 8975   7.426   6.164  11.571 -0.1885 -0.1855  0.1769
 5457W        W 8976   6.204   7.568   1.988 -0.1371 -0.1729 -0.1219
 5458W        W 8977   2.548   3.303   0.094  0.0096 -0.1632 -0.0385
 5459W        W 8978   8.883   6.276   4.281  0.0216  0.0239 -0.0359
 5460W        W 8979   3.910   1.725   3.400 -0.0565  0.1181 -0.0481
 5461W        W 8980   7.615   5.718   1.528 -0.4974 -0.1116  0.1610
 5462W        W 8981   1.505   7.327   0.484  0.1622  0.0312 -0.1737
 5463W        W 8982   3.366   8.333   0.110 -0.2552 -0.0493 -0.1246
 5464W        W 8983   9.007   5.078  10.439  0.0568 -0.1612 -0.1650
 5465W        W 8984   3.263   2.917   2.917  0.1068 -0.0130  0.0056
 5466W        W 8985   5.837   0.054   2.466 -0.4163 -0.2441  0.1422
 5467W        W 8986   7.700   1.455   0.121  0.2524  0.1839 -0.2157
 5468W        W 8987   7.455   2.563   2.895 -0.2823 -0.3409  0.4046
 5469W        W 8988   7.317   5.923   1.853  0.0789  0.0215  0.2736
 5470W        W 8989   7.182   1.285   3.721  0.0204  0.0192 -0.0183
 5471W        W 8990   7.452   1.506   9.838  0.1429 -0.3465 -0.1829
 5472W        W 8991   2.682   6.771  11.837 -0.0463  0.0094  0.1070
 5473W        W 8992   2.559   6.001   9.016 -0.0374  0.0205  0.2854
 5474W        W 8993   6.006   1.432   2.930  0.1203  0.3065 -0.2406
 5475W        W 8994   5.418   9.873  10.074 -0.0744 -0.2584 -0.1194
 5476W        W 8995   6.041   8.585   1.645  0.1748  0.2705  0.1050
 5477W        W 8996   0.434   4.111   0.544 -0.1951  0.2890  0.0841
 5478W        W 8997   6.632   8.345   9.915  0.1532  0.3471  0.0877
 5479W        W 8998   9.887   0.253   9.718  0.0778  0.3951 -0.1580
 5480W        W 8999   2.455   4.625   0.130 -0.0830  0.0663  0.0221
 5481W        W 9000   1.271   5.065  10.566  0.1424  0.0042 -0.0000
 5482W        W 9001   8.489   7.698   3.533  0.1615 -0.0567  0.2471
 5483W        W 9002   9.326   4.677   2.268  0.0061 -0.0554  0.1467
 5484W        W 9003   0.426   7.812   0.914 -0.0262 -0.2603  0.0277
 5485W        W 9004   9.416   3.579   0.815  0.1264  0.0774  0.0341
 5486W        W 9005   8.601   4.458   9.108  0.0211  0.0771 -0.0290
 5487W        W 9006   6.021   1.010   0.306 -0.0375 -0.1572  0.2092
 5488W        W 9007   1.329   4.617   8.233 -0.0240 -0.1519 -0.2094
 5489W        W 9008   0.394   5.637   4.263  0.1816 -0.0448 -0.0261
 5490W        W 9009   1.101   5.451   1.924 -0.1224 -0.0607  0.4161
 5491W        W 9010   6.537   3.496  10.582  0.0795 -0.2521  0.2475
 5492W        W 9011   0.462   9.638   9.823  0.1626  0.1082  0.0506
 5493W        W 9012   5.449   6.079  11.694  0.1173  0.0107 -0.2428
 5494W        W 9013   7.278   7.591   9.118 -0.0079 -0.1094  0.0637
 5495W        W 9014   2.831   3.295   6.955  0.2333  0.1717  0.0421
 5496W        W 9015   8.707   4.923   2.452  0.1185 -0.1907  0.1215
 5497W        W 9016   9.256   9.784   1.321 -0.0518  0.0616 -0.0790
 5498W        W 9017   0.409   7.139  11.588  0.0071 -0.2159 -0.1244
 5499W        W 9018   4.432   7.628   3.033  0.0063  0.1503  0.0212
 5500W        W 9019   4.752   6.304   0.533  0.0044 -0.0839  0.0281
 5501W        W 9020   0.647   7.164   3.914  0.2627  0.3318  0.1854
 5502W        W 9021   9.540   5.544   3.578  0.2532 -0.2206 -0.0217
 5503W        W 9022   7.078   3.915   2.970  0.3619 -0.4562  0.0767
 5504W        W 9023   3.722   8.666   2.059 -0.0426 -0.1988  0.0783
 5505W        W 9024   7.291   7.845   2.431  0.0905 -0.0441  0.2268
 5506W        W 9025   7.075   1.425   1.201 -0.2414 -0.1688  0.1196
 5507W        W 9026   1.699   7.643   4.284 -0.0943 -0.0500 -0.1033
 5508W        W 9027   8.051   0.282   2.864 -0.0252  0.2369  0.0763
 5509W        W 9028   9.058   5.450  11.423 -0.0082 -0.2984 -0.3147
 5510W        W 9029   9.623   8.503   1.729 -0.1048 -0.0871  0.0546
 5511W        W 9030   1.444   3.597   3.058 -0.5424  0.0998 -0.0642
 5512W        W 9031   5.010   6.751   0.123 -0.2272 -0.4784 -0.2301
 5513W        W 9032   5.895   0.307   1.940  0.2686  0.1096  0.2076
 5514W        W 9033   6.060   5.960   9.342  0.2091  0.2105  0.1244
 5515W        W 9034   2.185   9.188   3.774  0.0390 -0.1247  0.2109
 5516W        W 9035   8.849   3.815   8.442  0.1167  0.1167 -0.4874
 5517W        W 9036   2.830   5.652   4.277 -0.1796 -0.0947 -0.3903
 5518W        W 9037   8.792   7.712   2.226 -0.1339  0.0943  0.1243
 5519W        W 9038   6.940   5.795   8.964  0.1778 -0.2500  0.1807
 5520W        W 9039   3.680   9.734   5.374 -0.2175 -0.0616  0.0396
 5521W        W 9040   7.997   1.662   4.483 -0.2259  0.3204 -0.0821
 5522W        W 9041   2.131   7.939   3.233 -0.1739  0.1665  0.0136
 5523W        W 9042   8.951   0.352   1.027  0.1091  0.0979  0.0518
 5524W        W 9043   4.471   4.256  10.926 -0.0149 -0.2761  0.3916
 5525W        W 9044   6.912   7.731   9.488  0.1511  0.0272  0.0062
 5526W        W 9045   3.010   0.435   3.340  0.1392 -0.1454 -0.0111
 5527W        W 9046   1.246   1.523   9.458  0.1810  0.1412 -0.1059
 5528W        W 9047   6.387   0.644   2.861  0.0347  0.0038  0.3584
 5529W        W 9048   7.909   8.168   4.222 -0.2498  0.0230 -0.0629
 5530W        W 9049   9.168   3.319  11.911  0.1083 -0.2202 -0.0973
 5531W        W 9050   8.259   6.420   0.012 -0.1605  0.1675  0.3545
 5532W        W 9051   3.782   8.275   9.331  0.0666 -0.2614 -0.0362
 5533W        W 9052   9.349   4.836   0.705  0.1873  0.2564 -0.0551
 5534W        W 9053   1.111   0.991   3.964  0.2116 -0.0349  0.4286
 5535W        W 9054   4.504   6.897   9.945 -0.5579 -0.1851 -0.1933
 5536W        W 9055   2.274   1.806   8.990 -0.1050 -0.1271  0.1665
 5537W        W 9056   5.375   0.281  11.404  0.1825  0.2407 -0.1707
 5538W        W 9057   7.838   2.677  11.508 -0.3056  0.1001  0.1190
 5539W        W 9058   9.085   0.235  10.674 -0.1157 -0.1372  0.1152
 5540W        W 9059   8.974   0.253   9.774 -0.1121  0.3867 -0.0154
 5541W        W 9060   9.839   2.259   1.000 -0.2803 -0.0841  0.0382
 5542W        W 9061   8.074   0.659   1.455 -0.0089  0.2530 -0.1266
 5543W        W 9062   6.646   4.199   4.281 -0.1251  0.1357  0.0518
 5544W        W 9063   5.013   2.250   4.009  0.1197 -0.2251 -0.1690
 5545W        W 9064   1.464   9.699   3.513  0.2552  0.1234  0.0635
 5546W        W 9065   9.214   5.552  10.661 -0.3209 -0.3303  0.1406
 5547W        W 9066   6.775   3.526   1.612  0.2378  0.5321 -0.3412
 5548W        W 9067   6.834   3.243  10.248  0.4285  0.1856 -0.0813
 5549W        W 9068   8.192   5.926  11.856  0.1696  0.1796  0.2744
 5550W        W 9069   3.994   7.066   2.089 -0.0673 -0.0257  0.2938
 5551W        W 9070   1.826   6.408  11.116 -0.3105 -0.0615 -0.1846
 5552W        W 9071   0.170   0.824  11.370 -0.1938  0.3477  0.2820
 5553W        W 9072   7.121   0.989  10.356  0.1970  0.1367  0.0367
 5554W        W 9073   1.129   6.660  11.784 -0.1024 -0.0183 -0.0927
 5555W        W 9074   6.862   1.290   1.675  0.0967  0.0685 -0.2391
 5556W        W 9075   5.423   0.812   2.599 -0.1331  0.2292 -0.3174
 5557W        W 9076   2.740   2.215   1.772  0.2104 -0.1269 -0.3335
 5558W        W 9077   8.649   6.645  10.225  0.3533 -0.0570  0.2660
 5559W        W 9078   2.085   7.843   0.056  0.0352 -0.2402  0.0716
 5560W        W 9079   6.178   1.127  10.336 -0.1218  0.0249  0.0635
 5561W        W 9080   5.857   9.414   3.324 -0.3272  0.2891  0.2851
 5562W        W 9081   8.560   9.467  11.006  0.2944  0.0966 -0.0969
 5563W        W 9082   7.114   7.373   0.597  0.2113 -0.0790  0.4488
 5564W        W 9083   9.498   2.574  11.789  0.1183  0.3161 -0.2623
 5565W        W 9084   6.659   2.533   0.702  0.1030 -0.2484  0.2898
 5566W        W 9085   2.310   1.439   2.313 -0.0974  0.2242 -0.1219
 5567W        W 9086   7.299   9.034   9.085  0.2537  0.1396 -0.1029
 5568W        W 9087   4.078   7.142   9.908  0.0341  0.0198 -0.1073
 5569W        W 9088   5.465   6.594   9.315  0.1660  0.4137  0.0275
 5570W        W 9089   5.917   0.305   0.954  0.0466 -0.3810  0.3500
 5571W        W 9090   6.010   3.916   3.175  0.0563  0.1330  0.1040
 5572W        W 9091   6.705   8.839   8.315 -0.0080  0.0805  0.1927
 5573W        W 9092   0.112   7.459   9.546  0.0126 -0.1360  0.0619
 5574W        W 9093   7.833   5.224  10.726  0.0373  0.3676 -0.1002
 5575W        W 9094   0.559   6.131   3.532 -0.0065 -0.2611  0.1679
 5576W        W 9095   0.014   4.701  11.465  0.2936 -0.0856 -0.0428
 5577W        W 9096   8.480   1.765   4.327  0.0959 -0.2635  0.2002
 5578W        W 9097   9.632   9.282   9.467 -0.0962  0.1533 -0.2114
 5579W        W 9098   1.339   5.692   9.031  0.3922 -0.0426  0.2484
 5580W        W 9099   6.191   3.179   9.109  0.2606 -0.0454 -0.3234
 5581W        W 9100   0.216   2.828   0.782 -0.1796 -0.0652 -0.4133
 5582W        W 9101   2.629   1.554   3.227 -0.1921 -0.2754 -0.0487
 5583W        W 9102   2.265   1.326   2.918  0.0031 -0.0019  0.1024
 5584W        W 9103   0.782   0.459   0.390 -0.0074  0.1047 -0.3864
 5585W        W 9104   7.998   3.969   1.755 -0.3045  0.0294 -0.2803
 5586W        W 9105   6.437   6.174  11.447  0.0479 -0.0717 -0.1213
 5587W        W 9106   5.973   7.711   3.788 -0.0006 -0.0783  0.0080
 5588W        W 9107   9.740   3.619   1.878 -0.2601  0.0274 -0.0221
 5589W        W 9108   0.554   4.024  10.858  0.1760 -0.0803 -0.0797
 5590W        W 9109   0.765   1.914  11.332 -0.0534  0.0987 -0.1226
 5591W        W 9110   5.901   2.306  10.039 -0.1018  0.0876  0.0759
 5592W        W 9111   8.833   1.627  10.487 -0.0127  0.2839 -0.1529
 5593W        W 9112   4.373   5.431   9.841 -0.1510  0.1107 -0.1764
 5594W        W 9113   0.073   9.555   0.280  0.1439 -0.0726  0.4842
 5595W        W 9114   6.215   6.647  11.357  0.0767  0.0232  0.3075
 5596W        W 9115   3.105   0.299   2.254  0.1517 -0.0502  0.0891
 5597W        W 9116   7.536   1.289   1.371  0.1787 -0.3277  0.0267
 5598W        W 9117   5.026   3.831  11.668 -0.1603  0.0546  0.0528
 5599W        W 9118   4.756   9.625   2.421  0.0947 -0.0669  0.0279
 5600W        W 9119   3.699   3.550  10.923  0.2193  0.0181  0.4446
 5601W        W 9120   5.816   1.878   0.099 -0.2259 -0.3716  0.1251
 5602W        W 9121   4.114   8.134   1.172  0.1345 -0.2472  0.0504
 5603W        W 9122   6.993   4.191   3.419 -0.1553  0.2390 -0.2482
 5604W        W 9123   1.370   4.015   8.187  0.0227  0.0023 -0.1529
 5605W        W 9124   8.545   8.639   2.593  0.1466 -0.1278 -0.0457
 5606W        W 9125   4.950   1.262   9.835 -0.0191  0.1144  0.2406
 5607W        W 9126   7.508   2.861   1.244  0.1402  0.0740 -0.1386
 5608W        W 9127   7.053   6.070   3.632  0.4275  0.1500 -0.0713
 5609W        W 9128   0.291   9.136   8.383 -0.1259 -0.2594 -0.1516
 5610W        W 9129   2.142   5.067   2.172  0.0173  0.0600 -0.4689
 5611W        W 9130   0.866   8.345   9.940  0.2341 -0.1656  0.0044
 5612W        W 9131   2.236   9.835   4.630 -0.4195 -0.3691  0.0554
 5613W        W 9132   4.010   5.299   0.612  0.1243 -0.0787  0.3970
 5614W        W 9133   3.528   3.080   2.344  0.0489 -0.1643  0.0558
 5615W        W 9134   0.260   8.342   2.580  0.0310 -0.1826 -0.0806
 5616W        W 9135   7.974   8.497  11.957  0.0360  0.0725  0.2389
 5617W        W 9136   7.449   9.110   0.358  0.1633 -0.1089 -0.0423
 5618W        W 9137   7.299   2.821   4.302  0.4261  0.1498 -0.3835
 5619W        W 9138   1.428   8.668  10.703  0.0707 -0.2525 -0.0556
 5620W        W 9139   4.384   9.484   3.969  0.0191  0.0368  0.1817
 5621W        W 9140   7.893   9.914   9.161 -0.0556 -0.1176 -0.0651
 5622W        W 9141   5.739   8.650  11.151  0.3402  0.2239 -0.0325
 5623W        W 9142   4.451   6.778   2.953  0.1823  0.1368  0.0249
 5624W        W 9143   9.583   9.263   5.438 -0.2947 -0.2430 -0.0659
 5625W        W 9144   3.835   9.797   2.253 -0.0021 -0.3039  0.1928
 5626W        W 9145   6.527   3.576   9.992 -0.1292  0.2760  0.1610
 5627W        W 9146   4.380   2.131  10.099  0.2813  0.1618 -0.2724
 5628W        W 9147   7.911   4.652   9.487 -0.0347  0.1226 -0.1186
 5629W        W 9148   3.919   7.631   3.036 -0.0822  0.1878 -0.3084
 5630W        W 9149   5.750   3.189  10.941  0.2636  0.0399  0.1185
 5631W        W 9150   0.404   8.484   0.280  0.0560 -0.1526  0.0370
 5632W        W 9151   4.561   5.553   1.960 -0.0987 -0.2343 -0.4204
 5633W        W 9152   2.703   1.481   2.029 -0.0939  0.3353  0.1190
 5634W        W 9153   7.927   6.057   0.730 -0.0651  0.1149 -0.0028
 5635W        W 9154   8.385   1.260   3.398 -0.0048 -0.1130 -0.1204
 5636W        W 9155   3.987   3.188   0.121 -0.5731  0.1480 -0.2095
 5637W        W 9156   9.703   2.258   9.409  0.0223 -0.0631 -0.2084
 5638W        W 9157   1.413   9.191   1.574 -0.1241 -0.0756  0.3119
 5639W        W 9158   8.629   6.479   3.865 -0.2085  0.0616  0.1634
 5640W        W 9159   8.273   5.430  10.434 -0.0419 -0.0127 -0.1994
 5641W        W 9160   1.785   8.071   8.555 -0.0472  0.0735  0.0101
 5642W        W 9161   1.327   3.230   0.145  0.0204  0.0017 -0.0038
 5643W        W 9162   5.442   8.622   2.985  0.0623  0.0549  0.4823
 5644W        W 9163   0.956   1.512   0.159  0.2618 -0.1978  0.0072
 5645W        W 9164   9.575   8.791   9.082  0.3317 -0.1044 -0.0423
 5646W        W 9165   9.444   1.315   1.421 -0.1698  0.3105  0.0505
 5647W        W 9166   4.465   9.105   2.395 -0.0961 -0.1286  0.3152
 5648W        W 9167   2.183   4.538  11.721  0.0785 -0.0275  0.1152
 5649W        W 9168   8.859   9.009   0.641  0.0097  0.0402  0.1578
 5650W        W 9169   8.639   7.954   0.819  0.0726  0.1815  0.2694
 5651W        W 9170   2.185   9.623  11.793  0.1027  0.4758 -0.1663
 5652W        W 9171   3.581   7.191  10.184 -0.1451  0.1083 -0.0534
 5653W        W 9172   5.716   4.363   3.280  0.4277 -0.0635  0.0923
 5654W        W 9173   8.809   5.913  11.201 -0.0406  0.2464 -0.1022
 5655W        W 9174   5.586   2.409   3.972  0.0381  0.1600 -0.0821
 5656W        W 9175   6.033   2.654   2.415 -0.2920 -0.3186 -0.1082
 5657W        W 9176   6.482   8.985   1.768  0.2458  0.4511  0.0075
 5658W        W 9177   8.556   2.768   9.838 -0.0309  0.1999  0.0031
 5659W        W 9178   6.601   8.626   5.261  0.1362  0.2145 -0.1580
 5660W        W 9179   1.435   1.967   9.431 -0.0106  0.0063  0.0441
 5661W        W 9180   2.317   2.202   9.647 -0.1039 -0.0081 -0.1734
 5662W        W 9181   8.829   7.734   3.963  0.1916  0.3152  0.0992
 5663W        W 9182   0.275   7.060   3.442  0.1477  0.0378 -0.0455
 5664W        W 9183   0.307   3.985  10.385  0.2895 -0.2100  0.5107
 5665W        W 9184   8.299   5.390  11.841 -0.1504  0.2995  0.1558
 5666W        W 9185   1.126   5.228   8.929  0.2716  0.2774 -0.0637
 5667W        W 9186   5.662   8.110   3.050  0.1806 -0.0925 -0.1719
 5668W        W 9187   0.313   7.479   9.975  0.2613  0.2537  0.3420
 5669W        W 9188   5.697   4.396   9.395  0.0618 -0.0151  0.0499
 5670W        W 9189   2.730   4.135   9.343  0.1884  0.1812  0.0281
 5671W        W 9190   2.308   9.297   3.260 -0.2620  0.0378 -0.0813
 5672W        W 9191   9.733   5.834   1.386 -0.0509  0.2912 -0.2842
 5673W        W 9192   3.035   6.798   0.291 -0.0232  0.2681 -0.1451
 5674W        W 9193   8.294   1.013   8.625 -0.1881  0.3305  0.0714
 5675W        W 9194   4.819   7.342   0.679  0.0223  0.2893 -0.0936
 5676W        W 9195   0.731   3.180   0.693  0.0967 -0.2278  0.3870
 5677W        W 9196   8.655   5.499   4.623 -0.0465  0.0682  0.0138
 5678W        W 9197   0.020   9.371   4.613  0.0629 -0.1562  0.0140
 5679W        W 9198   8.280   4.428   1.374  0.1597 -0.1022  0.1937
 5680W        W 9199   7.704   6.832   2.977  0.2545 -0.1757 -0.0383
 5681W        W 9200   5.140   8.608  11.802  0.1863  0.0339  0.2577
 5682W        W 9201   1.694   2.564  10.741  0.2252 -0.1998  0.0133
 5683W        W 9202   6.222   3.565   3.901 -0.2313  0.2283 -0.1750
 5684W        W 9203   0.909   2.135  10.776  0.2081  0.0057 -0.0519
 5685W        W 9204   0.886   8.330   1.360  0.0476  0.2721  0.3184
 5686W        W 9205   9.289   2.177   4.914  0.0422  0.1282 -0.0357
 5687W        W 9206   1.668   6.187   2.510 -0.1506  0.0543  0.0589
 5688W        W 9207   4.112   0.686   1.833 -0.0794 -0.0242 -0.0787
 5689W        W 9208   2.973   4.710   0.080 -0.0059  0.1810 -0.0357
 5690W        W 9209   8.092   2.409   2.701 -0.0148 -0.0462 -0.0417
 5691W        W 9210   2.242   7.318   9.148  0.1360 -0.0710  0.2031
 5692W        W 9211   7.418   0.590  10.210 -0.0841 -0.1055 -0.1143
 5693W        W 9212   4.910   4.906   1.693 -0.1074 -0.0102  0.1188
 5694W        W 9213   8.917   6.234   1.659  0.0558  0.0776  0.1400
 5695W        W 9214   5.755   4.377   0.151 -0.1655 -0.3433 -0.3163
 5696W        W 9215   9.579   5.159  10.651  0.1548  0.0600 -0.1893
 5697W        W 9216   8.603   5.813  10.127 -0.1446 -0.1074  0.3768
 5698W        W 9217   6.376   7.545   9.218  0.0074 -0.0332  0.2306
 5699W        W 9218   4.795   8.933   9.541  0.0208 -0.2449  0.0511
 5700W        W 9219   6.042   0.142   3.727  0.0901  0.2756 -0.1788
 5701W        W 9220   4.763   1.327   0.422 -0.0336 -0.2583 -0.2103
 5702W        W 9221   2.295   6.114   3.860 -0.3898  0.2528 -0.0233
 5703W        W 9222   6.682   6.577   2.508 -0.3021 -0.0741  0.2585
 5704W        W 9223   6.784   5.775  11.474  0.1379 -0.2480  0.2117
 5705W        W 9224   8.282   3.776  10.137  0.1110  0.0035 -0.2902
 5706W        W 9225   5.839   0.531  11.455  0.0938  0.0732  0.1409
 5707W        W 9226   3.665   5.780   2.476  0.1806  0.0917 -0.0718
 5708W        W 9227   8.038   2.635   9.194 -0.2753  0.2771  0.0135
 5709W        W 9228   0.592   0.116   4.420 -0.0958  0.0452  0.4147
 5710W        W 9229   0.461   8.725  10.770  0.2018  0.1437 -0.2133
 5711W        W 9230   1.559   8.196   4.234  0.2220  0.1882  0.0265
 5712W        W 9231   8.214   4.887   2.550 -0.2048 -0.0688  0.1056
 5713W        W 9232   3.879   8.956  10.182 -0.1147 -0.0236  0.0532
 5714W        W 9233   8.871   5.472   1.132  0.1104  0.0832 -0.1676
 5715W        W 9234   9.377   7.725  10.459  0.2372  0.1145  0.0413
 5716W        W 9235   9.843   2.875   2.766  0.2817 -0.2334 -0.1535
 5717W        W 9236   4.553   6.138   3.616 -0.1785 -0.1563 -0.1958
 5718W        W 9237   8.564   6.997   4.635  0.1208 -0.1821 -0.2834
 5719W        W 9238   0.951   7.959   1.755  0.1901 -0.0681  0.1760
 5720W        W 9239   0.582   6.215  10.613 -0.0664 -0.1717 -0.0525
 5721W        W 9240   0.484   2.758   2.701  0.0443  0.1370  0.0700
 5722W        W 9241   4.329   1.439  11.200  0.4168 -0.1029 -0.0324
 5723W        W 9242   4.954   4.530   2.739 -0.2087  0.0164  0.2997
 5724W        W 9243   3.655   0.308   2.633 -0.1206 -0.0269 -0.0043
 5725W        W 9244   9.774   3.793  10.369 -0.2840 -0.0603  0.1979
 5726W        W 9245   4.861   2.768   4.358 -0.2567  0.1749 -0.2311
 5727W        W 9246   6.896   8.721   9.209  0.0334 -0.0475  0.0200
 5728W        W 9247   3.534   1.937   2.327 -0.0116  0.1655 -0.3444
 5729W        W 9248   6.769   3.555   2.157  0.1030  0.0610 -0.2240
 5730W        W 9249   4.611   4.037   3.935 -0.1593  0.3369  0.0874
 5731W        W 9250   6.005   8.115   4.106 -0.0027  0.1568  0.0018
 5732W        W 9251   8.221   9.786  10.526 -0.0227  0.1000 -0.0755
 5733W        W 9252   7.899   1.412   3.525  0.2340  0.1658  0.0128
 5734W        W 9253   6.554   2.664   9.901 -0.0730  0.0326  0.0382
 5735W        W 9254   1.312   5.963  10.112  0.1943 -0.0580  0.3418
 5736W        W 9255   5.667   1.920   9.774  0.1134  0.1128  0.0750
 5737W        W 9256   6.306   9.768   0.913  0.0532 -0.2002 -0.2578
 5738W        W 9257   0.351   2.348   0.555  0.0853 -0.4215  0.1047
 5739W        W 9258   0.721   6.677  11.435  0.1796 -0.1855  0.3816
 5740W        W 9259   2.800   7.573   9.132  0.0552 -0.0604 -0.1131
 5741W        W 9260   1.806   2.254   0.031  0.3067  0.0074 -0.0594
 5742W        W 9261   6.269   1.045   8.347 -0.0159 -0.1512 -0.0082
 5743W        W 9262   1.331   5.319  11.360 -0.0653 -0.1692 -0.0322
 5744W        W 9263   1.800   4.373   3.148  0.0895  0.1988 -0.1218
 5745W        W 9264   1.511   2.201   8.996 -0.0785  0.0986  0.1322
 5746W        W 9265   9.664   1.514   2.781 -0.1244 -0.3069 -0.1165
 5747W        W 9266   5.484   6.148   3.598 -0.1427 -0.2013  0.1387
 5748W        W 9267   6.803   6.780  10.000  0.0366 -0.0930  0.0665
 5749W        W 9268   5.562   2.485   9.682  0.4112  0.1404  0.1149
 5750W        W 9269   8.725   5.868   9.049  0.2459  0.0039  0.0791
 5751W        W 9270   1.539   4.066   0.414  0.2232 -0.0572  0.0874
 5752W        W 9271   4.365   9.455   0.937 -0.0360  0.1841  0.1227
 5753W        W 9272   5.027   6.640   9.748 -0.2422 -0.2038  0.0470
 5754W        W 9273   5.552   8.889   0.658  0.1262  0.0697 -0.1215
 5755W        W 9274   7.588   2.900  11.862  0.1255  0.3527  0.0670
 5756W        W 9275   8.624   0.916   4.799 -0.1837 -0.0896  0.2535
 5757W        W 9276   3.743   3.766   3.533 -0.1126 -0.0956 -0.0713
 5758W        W 9277   1.941   3.992   0.039 -0.3603  0.4154  0.0379
 5759W        W 9278   2.023   1.430  10.912 -0.0214  0.0725  0.0657
 5760W        W 9279   9.340   9.046  10.696 -0.2122 -0.1342  0.1004
 5761W        W 9280   7.007   2.641   1.108  0.1103  0.2256 -0.0202
 5762W        W 9281   4.917   7.025   3.446  0.2908 -0.4245 -0.0172
 5763W        W 9282   8.573   7.058   1.686  0.0333  0.0166  0.0364
 5764W        W 9283   0.985   1.619   0.717  0.0488 -0.0358 -0.0797
 5765W        W 9284   1.337   6.878  10.764  0.0195  0.1466  0.1043
 5766W        W 9285   5.642   9.463   2.396 -0.3767 -0.3931  0.1147
 5767W        W 9286   3.952   0.051   9.469  0.1089 -0.2207  0.1816
 5768W        W 9287   5.426   3.518   2.499 -0.1359  0.2947  0.0252
 5769W        W 9288   9.529   1.510   0.484 -0.0710  0.2938 -0.1877
 5770W        W 9289   6.632   0.028   2.380  0.2910  0.2288  0.1957
 5771W        W 9290   1.648   5.700   3.253 -0.2530 -0.0862 -0.1270
 5772W        W 9291   7.735   6.845   2.418 -0.1450 -0.1761 -0.0547
 5773W        W 9292   3.824   8.907   3.384 -0.2432  0.0594 -0.0993
 5774W        W 9293   7.332   1.349   4.191  0.0015  0.0361 -0.1539
 5775W        W 9294   1.130   4.195   2.515  0.3215 -0.0653 -0.6246
 5776W        W 9295   7.918   1.397   2.448  0.6217  0.2494 -0.0867
 5777W        W 9296   5.578   0.494  11.890 -0.1986  0.0651  0.0434
 5778W        W 9297   1.665   3.030  11.051  0.1637 -0.2826 -0.3392
 5779W        W 9298   0.828   5.635   8.883 -0.0628 -0.2705  0.4196
 5780W        W 9299   7.273   2.079  11.077 -0.0034 -0.0410  0.1093
 5781W        W 9300   0.586   2.880  11.820 -0.3480 -0.2600 -0.1056
 5782W        W 9301   7.595   3.508   3.053  0.2834 -0.1566 -0.2580
 5783W        W 9302   4.332   2.860  10.612  0.0458 -0.1226  0.2528
 5784W        W 9303   7.301   0.273   3.966  0.1845 -0.0191 -0.1053
 5785W        W 9304   7.738   4.163  10.855  0.0589 -0.1520  0.3603
 5786W        W 9305   5.762   6.637   2.784  0.2124 -0.1018 -0.1637
 5787W        W 9306   1.192   9.717   9.406 -0.1454  0.1294 -0.3639
 5788W        W 9307   7.432   1.527   2.842 -0.2000 -0.3043  0.2717
 5789W        W 9308   4.183   8.519  10.143  0.0664 -0.0343 -0.1312
 5790W        W 9309   8.598   1.632  10.009  0.1603  0.0403  0.2348
 5791W        W 9310   5.820   8.188  10.949 -0.5098 -0.4331 -0.5443
 5792W        W 9311   1.631   0.674  11.004 -0.0165  0.0911 -0.0327
 5793W        W 9312   3.564   1.226   9.045 -0.0077 -0.0950 -0.3477
 5794W        W 9313   2.350   5.559   9.597 -0.0107  0.1233  0.0264
 5795W        W 9314   2.219   1.243   8.979  0.1273  0.1050 -0.1907
 5796W        W 9315   1.028   8.148   0.869 -0.0887  0.0898  0.1247
 5797W        W 9316   3.299   3.445   2.947 -0.2877 -0.0773  0.2265
 5798W        W 9317   0.141   9.481   1.380  0.2563  0.0270 -0.2561
 5799W        W 9318   6.316   8.459   0.917 -0.0224 -0.1647 -0.2126
 5800W        W 9319   6.487   0.284   0.998  0.1756 -0.1485 -0.0861
 5801W        W 9320   3.671   7.779   4.407 -0.2142  0.2846  0.2314
 5802W        W 9321   3.413   5.663  11.005  0.0959 -0.0782 -0.0903
 5803W        W 9322   2.995   7.163   8.891  0.1586  0.0301 -0.0546
 5804W        W 9323   5.800   7.189   9.322  0.0388  0.0619 -0.0519
 5805W        W 9324   9.723   6.363   9.455  0.2606  0.2829  0.1516
 5806W        W 9325   8.824   4.185  10.010  0.1938  0.0603 -0.0309
 5807W        W 9326   0.162   4.279   0.933  0.2032  0.1228 -0.1638
 5808W        W 9327   1.404   0.713   9.414 -0.3603 -0.2040 -0.0267
 5809W        W 9328   1.307   3.857  10.393  0.0644  0.0054  0.0189
 5810W        W 9329   2.579   7.787   0.024  0.1549  0.0515  0.2133
 5811W        W 9330   9.093   6.886  11.854  0.1717 -0.2912 -0.2332
 5812W        W 9331   8.305   3.387   3.714 -0.1034  0.1589 -0.1277
 5813W        W 9332   8.710   4.213  10.978 -0.0086  0.2088  0.1197
 5814W        W 9333   8.002   7.719   9.468 -0.0652  0.0968  0.0306
 5815W        W 9334   4.788   4.776   9.010  0.1865 -0.1591  0.1825
 5816W        W 9335   9.732   3.294   9.486 -0.1932 -0.1654 -0.1291
 5817W        W 9336   4.085   4.216   2.530 -0.1013  0.1740  0.0146
 5818W        W 9337   9.424   5.521   9.766  0.1624  0.1133  0.0905
 5819W        W 9338   9.777   5.625   0.682  0.1643 -0.1385 -0.0581
 5820W        W 9339   1.786   5.344   5.984 -0.1209 -0.0155  0.0253
 5821W        W 9340   8.492   4.949   1.989 -0.0427  0.0027  0.2990
 5822W        W 9341   2.552   2.125   3.261  0.1192 -0.0589 -0.1448
 5823W        W 9342   8.239   3.143  11.093 -0.0201 -0.5051 -0.2990
 5824W        W 9343   8.531   1.334   0.220 -0.0338 -0.3231 -0.0879
 5825W        W 9344   1.083   2.785   0.613 -0.2511 -0.0400  0.2437
 5826W        W 9345   3.765   4.929   9.189 -0.0126  0.0318 -0.0764
 5827W        W 9346   6.815   7.365   1.104  0.1320  0.3106 -0.3161
 5828W        W 9347   4.279   6.938   0.639  0.2801  0.3715 -0.0733
 5829W        W 9348   8.046   7.508   1.677  0.3427 -0.3547  0.0624
 5830W        W 9349   7.025   3.503   0.499 -0.0168 -0.3575  0.0421
 5831W        W 9350   2.449   0.535  11.652  0.1888 -0.2305  0.1139
 5832W        W 9351   4.426   7.950  11.871  0.0362  0.0981  0.0086
 5833W        W 9352   5.884   6.372   9.502  0.3301 -0.1818  0.1412
 5834W        W 9353   3.167   8.001   1.100 -0.1887  0.2715 -0.1192
 5835W        W 9354   4.688   5.930   4.040 -0.1213 -0.0803  0.0623
 5836W        W 9355   9.490   4.671  10.823  0.3719  0.0747  0.2527
 5837W        W 9356   3.472   2.198   9.388 -0.4799 -0.1004 -0.1702
 5838W        W 9357   4.452   6.270   1.382 -0.1697  0.1430 -0.2255
 5839W        W 9358   9.513   9.529  10.914  0.1737 -0.0563 -0.1546
 5840W        W 9359   9.045   6.853   2.430  0.0994  0.0290  0.1099
 5841W        W 9360   3.207   6.590   1.390  0.0774  0.0897 -0.2294
 5842W        W 9361   4.596   1.218   1.414  0.0067 -0.0272 -0.0053
 5843W        W 9362   6.367   5.088   9.531  0.2167 -0.0535 -0.1180
 5844W        W 9363   0.616   4.009   1.025 -0.1101  0.4272 -0.1156
 5845W        W 9364   8.335   7.957   2.107 -0.0484 -0.1472 -0.2229
 5846W        W 9365   0.881   1.644   4.405 -0.1364 -0.0295 -0.1032
 5847W        W 9366   4.980   6.748  10.265 -0.0422 -0.2956 -0.1570
 5848W        W 9367   3.754   8.683   0.120  0.2984  0.2397 -0.0127
 5849W        W 9368   0.479   3.869   9.393  0.3770  0.0458 -0.0093
 5850W        W 9369   3.734   8.707   1.070  0.1886  0.0085 -0.1735
 5851W        W 9370   8.852   7.343   4.290  0.0588  0.0720  0.1738
 5852W        W 9371   2.029   8.936  11.281  0.2061  0.0578 -0.2181
 5853W        W 9372   4.868   9.740   8.843 -0.0506  0.3038 -0.0843
 5854W        W 9373   2.205   9.027   4.261  0.2311 -0.3726  0.1489
 5855W        W 9374   9.003   3.274   0.922 -0.0632 -0.1480 -0.2577
 5856W        W 9375   3.070   5.611  10.652 -0.1820  0.0038 -0.1067
 5857W        W 9376   0.449   0.638  10.177  0.2683  0.0355 -0.2163
 5858W        W 9377   6.759   8.413   3.503 -0.0804 -0.0903  0.0250
 5859W        W 9378   1.512   0.450   4.370  0.1150  0.0456 -0.2228
 5860W        W 9379   8.798   0.791   0.898  0.3840 -0.4563 -0.1596
 5861W        W 9380   5.267   1.888  11.033  0.1833  0.2159 -0.1150
 5862W        W 9381   9.055   0.903   1.325  0.0394  0.3875 -0.3245
 5863W        W 9382   8.566   1.778   2.776 -0.2807 -0.3391  0.0362
 5864W        W 9383   4.510   6.348   2.160 -0.0636 -0.1153  0.1210
 5865W        W 9384   7.158   8.980  10.967  0.1655  0.2885 -0.0195
 5866W        W 9385   3.302   8.350   9.127  0.1985 -0.2637 -0.0393
 5867W        W 9386   5.561   2.891   4.292 -0.1012  0.0601 -0.0157
 5868W        W 9387   3.547   5.301   9.615  0.0048 -0.1194  0.0836
 5869W        W 9388   3.282   9.198   4.727 -0.1065 -0.0845 -0.0715
 5870W        W 9389   2.781   8.981   4.859 -0.1388  0.2524 -0.2700
 5871W        W 9390   8.052   3.609   3.327  0.2851 -0.2052  0.3374
 5872W        W 9391   1.572   6.949   0.186  0.0272 -0.3513 -0.0577
 5873W        W 9392   3.985   1.031   4.336 -0.0020  0.1314 -0.4404
 5874W        W 9393   6.461   1.519   4.829 -0.3004  0.1063 -0.3296
 5875W        W 9394   8.099   0.399   3.377 -0.1568 -0.0480 -0.4198
 5876W        W 9395   7.878   9.266   4.782 -0.2268 -0.1208 -0.0618
 5877W        W 9396   4.725   8.700   2.106 -0.6073 -0.1780  0.2547
 5878W        W 9397   3.975   0.314   3.713 -0.1155 -0.1831 -0.0458
 5879W        W 9398   9.783   5.290  11.368  0.0659 -0.3989  0.2004
 5880W        W 9399   5.268   6.327   1.727 -0.1213 -0.0398  0.2115
 5881W        W 9400   7.922   2.236   0.984  0.1772  0.3134 -0.0204
 5882W        W 9401   8.480   8.383  10.260 -0.0950  0.1123  0.3870
 5883W        W 9402   7.884   4.111   1.274  0.1550  0.0200 -0.0427
 5884W        W 9403   6.123   0.360   3.194 -0.0530  0.1801 -0.2350
 5885W        W 9404   7.481   4.688   0.888  0.1044 -0.0044  0.2035
 5886W        W 9405   4.972   0.629  10.533 -0.1157 -0.1323  0.0600
 5887W        W 9406   6.577   7.149   4.176 -0.0654 -0.2141  0.1068
 5888W        W 9407   6.951   3.786  11.709 -0.2868  0.0541  0.0699
 5889W        W 9408   4.079   0.765  11.585  0.1859  0.0427  0.0991
 5890W        W 9409   8.769   5.674   0.214  0.1340  0.1604  0.6097
 5891W        W 9410   2.652   4.221  11.791  0.1314 -0.0534  0.3550
 5892W        W 9411   0.159   9.005  11.360  0.0260  0.0634 -0.0443
 5893W        W 9412   4.649   5.811   3.270 -0.0500  0.0093 -0.1178
 5894W        W 9413   0.767   5.731   0.784  0.2056  0.0128  0.1579
 5895W        W 9414   6.472   1.029   9.296 -0.2010 -0.0048 -0.3556
 5896W        W 9415   3.221   4.905   2.082  0.1927 -0.2455 -0.0712
 5897W        W 9416   9.732   3.015  10.910  0.0058  0.0558  0.0590
 5898W        W 9417   6.810   6.156   8.076 -0.0635 -0.1550 -0.0174
 5899W        W 9418   7.503   3.856   1.658  0.0938  0.2287 -0.1218
 5900W        W 9419   0.323   0.028   0.433 -0.1563  0.0815  0.1959
 5901W        W 9420   5.822   4.345   1.064  0.0580  0.2943  0.0128
 5902W        W 9421   5.988   0.762   2.204  0.1407  0.0117 -0.1855
 5903W        W 9422   8.928   1.135   9.134 -0.2411 -0.2785  0.1809
 5904W        W 9423   3.116   7.773   4.157  0.1784 -0.2167 -0.0002
 5905W        W 9424   7.356   0.992   2.804  0.2906  0.0625  0.0974
 5906W        W 9425   6.005   8.079   1.049  0.3211  0.1394 -0.2597
 5907W        W 9426   7.337   0.551  11.072 -0.1221 -0.0192 -0.3594
 5908W        W 9427   2.166   0.319   1.736 -0.1396  0.0768  0.0160
 5909W        W 9428   2.319   1.475   9.406 -0.1389 -0.0832  0.1836
 5910W        W 9429   4.038   7.174   2.931  0.2421 -0.2239  0.1200
 5911W        W 9430   5.331   5.277   3.022 -0.0510 -0.3039 -0.1280
 5912W        W 9431   2.429   0.720   2.888 -0.0150  0.1761 -0.2057
 5913W        W 9432   7.553   6.370   3.658 -0.3975  0.0033 -0.0774
 5914W        W 9433   0.876   7.258   1.648  0.0155  0.0074  0.2566
 5915W        W 9434   4.833   9.218   4.587  0.1014  0.2147 -0.0302
 5916W        W 9435   7.099   0.010  10.455  0.0817 -0.0441  0.0159
 5917W        W 9436   8.951   3.883   2.206  0.0157 -0.1861  0.1087
 5918W        W 9437   7.268   9.206   3.624 -0.0802  0.1727  0.0354
 5919W        W 9438   8.411   6.445   4.355  0.0778 -0.1414  0.0629
 5920W        W 9439   1.879   9.901   0.163  0.1528  0.2423  0.1148
 5921W        W 9440   7.859   2.127   9.972  0.1112 -0.0570 -0.1752
 5922W        W 9441   4.973   8.390   2.926 -0.0698  0.0276 -0.2315
 5923W        W 9442   0.280   7.900   2.113  0.2011  0.2744  0.2016
 5924W        W 9443   0.992   7.627   0.158 -0.0486  0.1800 -0.1272
 5925W        W 9444   6.775   6.583  11.290  0.4441 -0.0008 -0.2477
 5926W        W 9445   5.988   2.198  10.577  0.1148  0.0245  0.2188
 5927W        W 9446   2.928   6.282  10.034  0.1051 -0.3872  0.0422
 5928W        W 9447   4.515   8.322   3.407 -0.0251  0.0968 -0.0759
 5929W        W 9448   5.695   1.694  11.216 -0.1402  0.2342  0.0687
 5930W        W 9449   9.293   8.277   3.337 -0.1242 -0.2086  0.3293
 5931W        W 9450   5.577   6.634  10.272 -0.4408  0.2125 -0.1415
 5932W        W 9451   3.926   6.954   8.983 -0.0642  0.0762  0.0282
 5933W        W 9452   8.232   9.503   2.249 -0.0537 -0.1847 -0.2552
 5934W        W 9453   7.537   2.610   8.695  0.1741 -0.2127 -0.1571
 5935W        W 9454   9.742   9.255   8.989 -0.2706 -0.0415 -0.1357
 5936W        W 9455   5.451   7.970  10.108  0.1263 -0.0956  0.0869
 5937W        W 9456   6.937   8.755   9.734 -0.0101  0.0262 -0.0702
 5938W        W 9457   9.877   7.857  10.369 -0.0991 -0.1716 -0.2183
 5939W        W 9458   2.449   5.807   0.041 -0.0673 -0.0459 -0.1773
 5940W        W 9459   1.825   2.547   8.899 -0.1275 -0.0228 -0.0441
 5941W        W 9460   7.814   7.916  11.742  0.0520  0.1606  0.1283
 5942W        W 9461   2.776   8.114   4.029  0.1344  0.0088  0.1693
 5943W        W 9462   0.029   0.806   1.690  0.1845 -0.1643  0.3629
 5944W        W 9463   8.251   8.435   1.638  0.1557  0.1565  0.0021
 5945W        W 9464   4.247   3.028  11.574 -0.0758  0.1167  0.0010
 5946W        W 9465   7.496   7.019   4.283  0.0766  0.0494  0.0024
 5947W        W 9466   4.182   3.770   3.281 -0.0980  0.2372 -0.2097
 5948W        W 9467   0.259   7.585   0.506  0.1210 -0.2927 -0.1647
 5949W        W 9468   4.810   0.686   9.952  0.0378  0.0214 -0.0159
 5950W        W 9469   2.205   5.128  10.910  0.0610  0.1210  0.0062
 5951W        W 9470   7.597   2.803   9.213 -0.0744 -0.0000 -0.1381
 5952W        W 9471   7.012   6.939   4.064  0.3693  0.0998 -0.0279
 5953W        W 9472   4.439   1.789   0.661 -0.1270 -0.1175 -0.0732
 5954W        W 9473   2.058   4.389   0.991  0.2271  0.3287 -0.4575
 5955W        W 9474   7.497   2.877   3.790 -0.0423  0.3192 -0.1630
 5956W        W 9475   4.900   0.175   8.520  0.2076 -0.1473 -0.2857
 5957W        W 9476   7.067   8.210   2.775 -0.2879 -0.0294  0.0432
 5958W        W 9477   9.828   7.654   1.850  0.0946  0.1576  0.2683
 5959W        W 9478   9.086   9.424   8.644  0.2222 -0.1561 -0.0872
 5960W        W 9479   9.505   1.498   8.943 -0.1939  0.1321  0.4213
 5961W        W 9480   4.436   7.477  11.323 -0.0975 -0.2989  0.1247
 5962W        W 9481   2.978   6.530  11.516 -0.0675 -0.0940  0.1412
 5963W        W 9482   3.501   2.936  11.558  0.2903  0.1436  0.1045
 5964W        W 9483   5.663   3.853   1.178  0.1012  0.1893  0.2436
 5965W        W 9484   4.719   3.807  10.717 -0.2433 -0.0609  0.1276
 5966W        W 9485   9.940   7.519   3.302 -0.0992  0.1594 -0.1831
 5967W        W 9486   2.359   4.015   0.916 -0.0349 -0.1439  0.3453
 5968W        W 9487   8.454   9.043   0.295 -0.0431 -0.0981 -0.1836
 5969W        W 9488   2.573   7.816   3.734  0.2762  0.2922 -0.1251
 5970W        W 9489   7.530   5.020   8.615  0.0045 -0.1140 -0.0809
 5971W        W 9490   6.483   6.545  11.849  0.1570  0.2201 -0.0885
 5972W        W 9491   7.182   7.420   4.276  0.1354  0.0401  0.0048
 5973W        W 9492   9.575   5.769  11.592 -0.2854 -0.0495  0.1492
 5974W        W 9493   8.936   3.989   3.557 -0.2026 -0.1721  0.1310
 5975W        W 9494   9.528   7.526   0.535 -0.1586 -0.2728  0.2480
 5976W        W 9495   1.509   6.305   9.090  0.1037  0.0715  0.2648
 5977W        W 9496   1.990   4.831   3.327 -0.2155  0.1158 -0.0378
 5978W        W 9497   9.699   8.548  10.355  0.2510  0.0301  0.0328
 5979W        W 9498   3.656   3.387  11.568 -0.1957  0.0343 -0.3521
 5980W        W 9499   1.864   6.152   3.518  0.1271 -0.0794 -0.0275
 5981W        W 9500   2.972   0.704   1.891 -0.1098  0.4609 -0.0663
 5982W        W 9501   6.422   3.776  10.959  0.1022  0.1553  0.2066
 5983W        W 9502   6.167   6.642   2.436 -0.2048 -0.1947  0.1919
 5984W        W 9503   0.867   7.097  11.698  0.0206  0.1760 -0.0950
 5985W        W 9504   0.985   9.758   4.313  0.0237  0.2677 -0.2598
 5986W        W 9505   7.762   2.330  11.899 -0.1944 -0.2386 -0.3198
 5987W        W 9506   4.759   3.983   9.989 -0.1083 -0.1511  0.1146
 5988W        W 9507   6.884   4.358  10.823 -0.0491 -0.0059  0.0623
 5989W        W 9508   0.731   7.971   2.232 -0.2546  0.1443  0.1831
 5990W        W 9509   4.369   6.008  11.634 -0.3541 -0.1618 -0.4117
 5991W        W 9510   3.827   0.192   9.942 -0.2516 -0.0052 -0.2355
 5992W        W 9511   8.699   8.390   8.947  0.0162  0.3794 -0.0740
 5993W        W 9512   8.242   1.756  11.952 -0.1427  0.1152  0.1439
 5994W        W 9513   5.550   8.272   0.188 -0.2840 -0.0240  0.2115
 5995W        W 9514   7.106   7.494   2.734 -0.0867 -0.0656 -0.1656
 5996W        W 9515   0.120   6.102   0.581 -0.1684  0.0659 -0.1392
 5997W        W 9516   7.167   5.826   3.188  0.1845 -0.2467 -0.0903
 5998W        W 9517   9.017   6.739   0.992 -0.1065 -0.0454 -0.0269
 5999W        W 9518   3.026   2.778   0.507  0.0418  0.2821  0.2454
 6000W        W 9519   8.512   9.708   3.650 -0.1871 -0.1507  0.0382
 6001W        W 9520   2.616   4.701  11.614 -0.1593  0.2760  0.0640
 6002W        W 9521   7.594   1.742   1.142  0.6359 -0.1004 -0.1068
 6003W        W 9522   0.575   0.313   3.567  0.0437 -0.0814 -0.1666
 6004W        W 9523   3.377   7.391   3.911 -0.3348 -0.1014  0.0265
 6005W        W 9524   2.067   2.679   1.715  0.0345  0.1400 -0.1247
 6006W        W 9525   8.827   5.826   0.685 -0.2793  0.2872 -0.2154
 6007W        W 9526   2.034   1.378   9.821  0.1194 -0.1586  0.0916
 6008W        W 9527   2.154   4.200   0.424 -0.2298  0.0518  0.2173
 6009W        W 9528   0.051   4.696   9.435  0.2041 -0.1033  0.1264
 6010W        W 9529   8.079   4.701   3.642  0.0806 -0.4300  0.1021
 6011W        W 9530   9.051   3.786  10.167  0.1587  0.3125  0.2354
 6012W        W 9531   9.914   7.370  11.697  0.0778 -0.1065  0.1482
 6013W        W 9532   9.576   8.281  11.214  0.2446  0.0276  0.1109
 6014W        W 9533   6.534   9.324  10.832  0.2128  0.2317  0.1193
 6015W        W 9534   5.301   1.373   8.274 -0.3168  0.4036 -0.1805
 6016W        W 9535   0.412   0.553   8.539  0.0293  0.0415 -0.2829
 6017W        W 9536   9.412   4.466   0.328 -0.1626  0.1266  0.0537
 6018W        W 9537   1.243   2.944   1.531 -0.0520 -0.3122  0.0786
 6019W        W 9538   2.324   6.026   9.953 -0.1831  0.1746 -0.1900
 6020W        W 9539   3.825   8.728   3.900 -0.0895 -0.1219 -0.1240
 6021W        W 9540   7.789   6.617  11.196  0.2187  0.3343  0.2763
 6022W        W 9541   4.078   6.567   2.262  0.1617 -0.3995 -0.0053
 6023W        W 9542   9.563   6.265   0.411 -0.1111  0.2884  0.1547
 6024W        W 9543   4.799   5.029  10.342  0.1365 -0.0552  0.0385
 6025W        W 9544   7.107   6.435   4.049 -0.3639  0.2132  0.2956
 6026W        W 9545   8.994   4.721  10.118  0.2279 -0.1619  0.1572
 6027W        W 9546   0.907   7.555   4.186 -0.1572  0.0152 -0.0132
 6028W        W 9547   7.704   5.183  10.067 -0.2536 -0.1454  0.0362
 6029W        W 9548   8.659   8.688   9.389  0.3080  0.1791 -0.0477
 6030W        W 9549   7.510   5.616   9.842 -0.0557 -0.0100 -0.0081
 6031W        W 9550   9.557   5.829   4.065 -0.0061 -0.3486  0.0339
 6032W        W 9551   2.514   4.302  10.332  0.3006 -0.1590 -0.4602
 6033W        W 9552   8.588   0.307   9.323  0.0550 -0.0055 -0.2144
 6034W        W 9553   5.519   9.898   2.058  0.0685 -0.1660  0.1538
 6035W        W 9554   2.482   5.731  10.439 -0.0865 -0.2079 -0.3020
 6036W        W 9555   1.315   9.374   2.551  0.0141 -0.1931  0.1768
 6037W        W 9556   4.239   1.209  11.710 -0.1278 -0.0388  0.0328
 6038W        W 9557   6.625   5.250   0.501  0.0166 -0.0728 -0.1026
 6039W        W 9558   2.405   2.815   2.237  0.1665  0.2561  0.0721
 6040W        W 9559   3.826   4.096   2.940  0.1411 -0.1348 -0.0994
 6041W        W 9560   5.168   4.501   9.164 -0.0725  0.1058  0.1231
 6042W        W 9561   7.003   1.361  10.015  0.1590  0.1231  0.0262
 6043W        W 9562   4.627   6.142  10.619 -0.2252 -0.2357  0.0555
 6044W        W 9563   2.966   7.190   0.591 -0.0839 -0.1202 -0.0893
 6045W        W 9564   0.217   8.578   1.614 -0.1232  0.0886 -0.2227
 6046W        W 9565   9.768   6.515   1.543 -0.0390  0.0212 -0.1128
 6047W        W 9566   3.208   2.174   3.891  0.0356  0.0513 -0.0068
 6048W        W 9567   9.937   1.545   3.811  0.0584  0.1311  0.0428
 6049W        W 9568   6.449   9.516   9.466  0.1621 -0.0089 -0.4728
 6050W        W 9569   5.812   6.025   1.249 -0.1878  0.2571 -0.0672
 6051W        W 9570   7.491   0.980   3.325 -0.0347 -0.1942  0.1229
 6052W        W 9571   5.325   4.999   2.497 -0.0167 -0.3292 -0.2258
 6053W        W 9572   3.032   7.893  10.566 -0.2910 -0.0916 -0.1296
 6054W        W 9573   6.438   3.722   1.206  0.0916 -0.1094  0.1866
 6055W        W 9574   1.411   1.965  10.098 -0.2170  0.1680 -0.0620
 6056W        W 9575   2.712   8.239   0.897  0.1195  0.1277 -0.1595
 6057W        W 9576   9.277   3.725   1.794 -0.1868  0.3408 -0.0151
 6058W        W 9577   6.158   1.077   1.354 -0.0422 -0.2927 -0.1503
 6059W        W 9578   2.967   5.207  10.320 -0.0227 -0.0694 -0.2125
 6060W        W 9579   3.570   2.575   2.203 -0.2427 -0.2252  0.1346
 6061W        W 9580   6.357   7.879   0.210  0.3098  0.0181 -0.1491
 6062W        W 9581   4.643   9.913   1.982 -0.1681  0.0152 -0.0386
 6063W        W 9582   9.068   0.752  10.451  0.1611  0.0958 -0.0491
 6064W        W 9583   8.213   4.238  10.007 -0.0350  0.0080 -0.1702
 6065W        W 9584   4.391   8.022  10.114 -0.2229 -0.0059 -0.1194
 6066W        W 9585   9.638   4.120   1.021 -0.0716 -0.0152  0.2787
 6067W        W 9586   8.344   6.468  10.578 -0.1700 -0.0982  0.1284
 6068W        W 9587   4.029   6.415   1.030  0.0089 -0.2323  0.0353
 6069W        W 9588   2.030   5.971   3.055  0.1785 -0.2917  0.3379
 6070W        W 9589   0.049   9.352  10.924  0.2690 -0.0475 -0.1015
 6071W        W 9590   0.529   1.233   4.685 -0.0542  0.0056  0.1683
 6072W        W 9591   6.943   6.439  10.649  0.0598 -0.2673 -0.1732
 6073W        W 9592   7.113   4.378   0.709  0.0073 -0.0175  0.0681
 6074W        W 9593   1.589   0.427   3.818  0.0239 -0.0759  0.0642
 6075W        W 9594   6.890   2.188   2.156 -0.1385 -0.1255  0.0456
 6076W        W 9595   8.139   9.010   9.417 -0.2749 -0.0586 -0.0952
 6077W        W 9596   6.082   8.557   9.655 -0.1006 -0.0794  0.1674
 6078W        W 9597   0.088   3.129   9.942  0.2330  0.1834  0.0754
 6079W        W 9598   0.715   2.917  11.367  0.3448  0.0764  0.0390
 6080W        W 9599   3.910   0.821   0.119  0.1926  0.2420  0.2308
 6081W        W 9600   4.771   2.338   3.202 -0.0866  0.0996 -0.0315
 6082W        W 9601   9.227   5.829   3.359  0.2395  0.0656  0.1533
 6083W        W 9602   5.257   7.778   3.208  0.3853  0.0254  0.0515
 6084W        W 9603   4.963   6.196   8.667 -0.1057 -0.1985 -0.0112
 6085W        W 9604   0.063   9.864   4.521  0.0361 -0.1966 -0.1912
 6086W        W 9605   0.202   9.534   0.820 -0.0877 -0.1344  0.0341
 6087W        W 9606   3.601   1.832   1.344  0.1227 -0.0515 -0.0651
 6088W        W 9607   2.114   6.633  11.857 -0.1609 -0.1471 -0.1028
 6089W        W 9608   1.290   8.118   3.404  0.1410  0.0524 -0.1449
 6090W        W 9609   9.300   3.072  10.583  0.0243 -0.0517 -0.0754
 6091W        W 9610   0.458   1.802   3.866  0.0133  0.2543 -0.1901
 6092W        W 9611   6.002   6.664   0.414 -0.1845  0.1079 -0.0223
 6093W        W 9612   4.353   7.850   3.501  0.3558  0.2028 -0.1346
 6094W        W 9613   0.808   9.266   2.642 -0.2862  0.2255 -0.1154
 6095W        W 9614   7.801   8.223   9.065 -0.2455  0.1403  0.0202
 6096W        W 9615   8.883   9.755   0.972  0.2356  0.0995 -0.0733
 6097W        W 9616   4.248   5.463   8.777 -0.3462 -0.6125  0.1229
 6098W        W 9617   7.783   8.705   9.891 -0.3361 -0.3047  0.0966
 6099W        W 9618   8.945   2.882   9.521 -0.0560 -0.2135  0.0736
 6100W        W 9619   3.818   3.365   2.051 -0.2264 -0.3597 -0.3873
 6101W        W 9620   4.568   4.552  11.490  0.2138  0.4420  0.0298
 6102W        W 9621   6.526   9.515   2.680 -0.0390 -0.0161  0.1420
 6103W        W 9622   4.003   2.417   9.213 -0.3949 -0.0186 -0.0541
 6104W        W 9623   5.754   6.401   2.312  0.0868 -0.0649 -0.2523
 6105W        W 9624   2.665   4.466   2.223 -0.3054  0.0467  0.1239
 6106W        W 9625   1.591   0.699   1.086 -0.2578  0.1939  0.1289
 6107W        W 9626   3.312   3.976   0.490  0.0978  0.2404 -0.2868
 6108W        W 9627   2.723   7.431   0.993 -0.0035  0.3018 -0.0741
 6109W        W 9628   4.935   0.208  10.852  0.0710 -0.1043 -0.0237
 6110W        W 9629   0.855   3.450   2.399  0.4148 -0.0875 -0.1225
 6111W        W 9630   8.976   0.097   3.300  0.0524 -0.1521 -0.0533
 6112W        W 9631   9.469   7.406   0.007  0.0746 -0.1626 -0.2937
 6113W        W 9632   6.899   0.901  10.849 -0.1622 -0.2331  0.1747
 6114W        W 9633   3.644   0.625  11.338 -0.0575  0.2593 -0.0160
 6115W        W 9634   1.241   3.964   2.067 -0.0091 -0.0328  0.0639
 6116W        W 9635   7.026   1.771   3.805  0.1231 -0.1992  0.1858
 6117W        W 9636   1.135   0.690  10.788 -0.0801  0.0296  0.0086
 6118W        W 9637   6.260   2.323   9.714  0.0675 -0.3804  0.0401
 6119W        W 9638   0.972   6.884   1.325  0.0913 -0.2567  0.1983
 6120W        W 9639   7.091   5.203   2.022  0.0862  0.0899 -0.0407
 6121W        W 9640   3.866   5.745   9.490  0.0587 -0.1481  0.2675
 6122W        W 9641   5.267   3.836   1.518 -0.1911 -0.2792 -0.0973
 6123W        W 9642   8.896   2.645   3.864  0.2518 -0.0394  0.2348
 6124W        W 9643   3.290   1.521   1.547 -0.0355 -0.4032  0.3610
 6125W        W 9644   8.170   2.071   1.384  0.0709 -0.3985  0.0677
 6126W        W 9645   0.587   9.025   9.510 -0.0853  0.4562 -0.1105
 6127W        W 9646   5.341   3.754   0.597  0.0662 -0.2571  0.0158
 6128W        W 9647   1.814   6.138   9.425  0.1497  0.2201  0.3610
 6129W        W 9648   7.537   9.319   8.648  0.0830  0.3413  0.0710
 6130W        W 9649   9.033   8.695   4.191  0.0235 -0.0874  0.0125
 6131W        W 9650   9.830   3.853   8.903 -0.2100 -0.0766  0.1604
 6132W        W 9651   7.759   3.676  11.700 -0.1937 -0.2017 -0.0041
 6133W        W 9652   5.088   1.076   2.316  0.0409 -0.3047 -0.0402
 6134W        W 9653   8.967   7.520   3.491 -0.0118 -0.0719  0.2153
 6135W        W 9654   4.280   6.641  11.747  0.0750  0.0813 -0.1390
 6136W        W 9655   8.670   9.220   4.872  0.4705 -0.0718  0.1168
 6137W        W 9656   7.702   0.193  11.177 -0.2498  0.1698 -0.2996
 6138W        W 9657   2.819   3.817  10.368 -0.1721  0.4117 -0.0971
 6139W        W 9658   3.841   5.165   8.604 -0.0969 -0.0962 -0.2272
 6140W        W 9659   4.752   3.303   0.784 -0.0115  0.1214  0.0562
 6141W        W 9660   3.795   3.863  10.530 -0.1253  0.0973  0.2433
 6142W        W 9661   5.756   7.600   2.359  0.2301 -0.1478 -0.1090
 6143W        W 9662   8.094   9.028   8.526 -0.1709  0.1377 -0.0536
 6144W        W 9663   1.764   3.643  10.246  0.1133 -0.1236 -0.0341
 6145W        W 9664   2.584   3.819   3.499 -0.1548 -0.0623  0.0710
 6146W        W 9665   0.321   7.735  10.709 -0.2838  0.1062  0.2981
 6147W        W 9666   5.149   3.543  11.227 -0.0069 -0.1144  0.0894
 6148W        W 9667   4.230   5.863   9.869  0.2151 -0.1822 -0.0940
 6149W        W 9668   7.987   3.071   3.341  0.0576 -0.3987  0.3097
 6150W        W 9669   6.361   5.771   2.036 -0.0344 -0.0797  0.3680
 6151W        W 9670   7.271   8.506   3.583 -0.2299 -0.3413 -0.0360
 6152W        W 9671   4.932   0.503   0.842 -0.0557  0.0263 -0.0448
 6153W        W 9672   2.278   5.644   2.134  0.2933  0.2435  0.0829
 6154W        W 9673   0.655   2.633   0.823  0.0101 -0.1368  0.0702
 6155W        W 9674   6.711   7.092   9.636  0.0683  0.3044  0.2596
 6156W        W 9675   1.510   7.108   1.113  0.1474  0.2974  0.2081
 6157W        W 9676   8.544   5.109  10.146 -0.0100  0.0760  0.0975
 6158W        W 9677   8.811   2.756   3.358 -0.1437  0.1472 -0.1471
 6159W        W 9678   8.225   3.622  11.881  0.0496  0.0616 -0.1397
 6160W        W 9679   2.118   1.215   1.889 -0.1114 -0.1172 -0.0723
 6161W        W 9680   8.332   2.683   3.253 -0.1574  0.3150 -0.1028
 6162W        W 9681   7.769   4.692   2.628 -0.1966  0.1558  0.5397
 6163W        W 9682   2.879   9.066   2.026  0.1281  0.0619 -0.4619
 6164W        W 9683   2.431   6.244   0.895 -0.3256 -0.0401  0.0585
 6165W        W 9684   4.522   8.460   5.134  0.0605 -0.2111  0.3984
 6166W        W 9685   0.900   4.498   9.609 -0.0576  0.0829 -0.3053
 6167W        W 9686   3.037   7.517   1.968 -0.0180  0.2712 -0.4787
 6168W        W 9687   2.576   0.277   3.091 -0.1549  0.0230  0.3477
 6169W        W 9688   2.713   7.486  10.647 -0.2861  0.0755  0.0963
 6170W        W 9689   3.015   5.629   3.259  0.0951  0.2063 -0.2738
 6171W        W 9690   1.704   4.487  11.594  0.4363 -0.0860 -0.1657
 6172W        W 9691   5.284   8.390  11.338 -0.0973  0.3281  0.1214
 6173W        W 9692   6.297   9.898  10.268 -0.1256 -0.1145 -0.1077
 6174W        W 9693   3.172   2.030   3.399  0.1081 -0.0913 -0.1231
 6175W        W 9694   3.136   0.368   9.152 -0.0628  0.1318  0.4880
 6176W        W 9695   2.089   5.542  10.024 -0.1321  0.0779  0.0886
 6177W        W 9696   4.466   3.140   9.012  0.1118 -0.2279 -0.0356
 6178W        W 9697   8.739   6.745   3.202 -0.3256  0.0508  0.2048
 6179W        W 9698   2.309   6.328   1.418 -0.5623  0.1205  0.4359
 6180W        W 9699   0.372   4.132   2.760 -0.1361  0.1907  0.2792
 6181W        W 9700   6.825   4.573   1.026 -0.1220  0.1955  0.0436
 6182W        W 9701   0.133   1.891   0.700 -0.0427 -0.0620  0.2233
 6183W        W 9702   3.392   6.444   0.445 -0.2176  0.0573  0.2086
 6184W        W 9703   0.511   4.782   1.590 -0.0383 -0.2035  0.3690
 6185W        W 9704   0.780   3.845   8.293  0.3177 -0.3345  0.2145
 6186W        W 9705   7.045   3.389   9.804 -0.1012 -0.2750  0.0700
 6187W        W 9706   9.767   7.028   0.728 -0.1417 -0.1329  0.1940
 6188W        W 9707   5.531   1.599   1.538  0.1591 -0.1170 -0.1550
 6189W        W 9708   3.763   7.723   9.506  0.2111 -0.0143 -0.1173
 6190W        W 9709   1.502   3.481  11.161 -0.0215 -0.2034 -0.1645
 6191W        W 9710   4.379   5.295  10.308 -0.0022 -0.3057 -0.1321
 6192W        W 9711   6.818   3.736   3.668 -0.2918  0.0752  0.2541
 6193W        W 9712   7.843   9.234  10.501 -0.0395  0.1303 -0.0464
 6194W        W 9713   0.412   1.502   4.259  0.0176  0.2195  0.0938
 6195W        W 9714   0.694   5.382   0.372  0.0685  0.3775 -0.0008
 6196W        W 9715   2.323   8.847   4.792  0.0324  0.2271  0.1652
 6197W        W 9716   9.224   9.604  11.358 -0.0301 -0.0562  0.2169
 6198W        W 9717   3.206   0.302   1.657 -0.2020 -0.0450  0.0122
 6199W        W 9718   9.832   6.539  11.208 -0.1023  0.3523  0.1242
 6200W        W 9719   8.742   7.736   5.146 -0.0868 -0.2863 -0.1674
 6201W        W 9720   8.485   2.188   2.461  0.0226 -0.2933  0.0453
 6202W        W 9721   0.043   6.849  10.823 -0.0268  0.0777 -0.2535
 6203W        W 9722   3.590   1.793   3.777 -0.2558  0.1441 -0.2112
 6204W        W 9723   2.039   7.035   0.407 -0.1366 -0.0487  0.4047
 6205W        W 9724   7.413   6.590  10.598 -0.0024  0.0256  0.3966
 6206W        W 9725   3.635   9.392  10.717 -0.1275  0.1591  0.5186
 6207W        W 9726   6.509   8.789   2.325  0.0634 -0.0538  0.0336
 6208W        W 9727   7.727   4.994   3.426  0.1416 -0.0470  0.1543
 6209W        W 9728   4.983   5.747   4.469  0.0100 -0.0442  0.0134
 6210W        W 9729   4.667   8.668   0.162  0.0861 -0.1181  0.0158
 6211W        W 9730   7.908   7.747   1.265 -0.0742  0.0460 -0.0284
 6212W        W 9731   1.952   8.707   3.821  0.2192  0.1264 -0.1966
 6213W        W 9732   8.398   9.091   8.961  0.3335  0.3477 -0.2640
 6214W        W 9733   0.012   0.901   0.296  0.1411 -0.0910  0.2690
 6215W        W 9734   1.039   9.714   2.767  0.0433  0.1356  0.0922
 6216W        W 9735   6.075   4.010   1.374 -0.4698  0.1324 -0.0527
 6217W        W 9736   6.639   2.120  11.008  0.1444 -0.2487 -0.3706
 6218W        W 9737   7.250   5.631  10.321  0.1534 -0.3301  0.2729
 6219W        W 9738   7.852   4.718  10.663  0.1436 -0.1669  0.3167
 6220W        W 9739   4.321   7.475   3.957 -0.0428  0.1500  0.0977
 6221W        W 9740   8.408   7.829  10.232 -0.2555 -0.3517 -0.0846
 6222W        W 9741   2.358   3.676   8.291 -0.1657 -0.2138 -0.1324
 6223W        W 9742   4.158   2.492   1.034  0.0682  0.0624 -0.1886
 6224W        W 9743   3.697   8.987  11.623  0.0365 -0.1424  0.1563
 6225W        W 9744   8.012   7.592  11.430 -0.2204 -0.4177  0.1447
 6226W        W 9745   8.434   4.051   2.142  0.0975  0.1231  0.1136
 6227W        W 9746   7.969   5.634   3.178 -0.3179  0.0278 -0.0594
 6228W        W 9747   9.789   7.697   2.402  0.2840 -0.5525 -0.1025
 6229W        W 9748   3.651   7.977   1.380 -0.2384 -0.0886  0.2642
 6230W        W 9749   9.817   7.875   0.235 -0.1608  0.2333 -0.0174
 6231W        W 9750   9.124   2.871   4.237  0.2755  0.3443 -0.2345
 6232W        W 9751   5.755   7.566  11.179  0.1194  0.3334 -0.1423
 6233W        W 9752   9.499   8.107   0.598 -0.1469 -0.0130  0.0371
 6234W        W 9753   9.031   3.388  11.425  0.1821 -0.1925  0.0095
 6235W        W 9754   4.072   8.175   2.115  0.0813 -0.1405  0.0525
 6236W        W 9755   8.442   1.061   9.173  0.0664  0.1546  0.3380
 6237W        W 9756   8.176   1.983   8.221 -0.1535 -0.2700  0.0184
 6238W        W 9757   8.694   2.419   9.511  0.0133  0.0956 -0.1759
 6239W        W 9758   6.388   6.557  10.345  0.1337 -0.1851  0.1672
 6240W        W 9759   8.310   5.464  10.942 -0.2373 -0.0551 -0.1244
 6241W        W 9760   1.727   4.978  11.356  0.2616  0.2416 -0.1066
 6242W        W 9761   2.643   0.289   1.446  0.3406 -0.0287  0.1496
 6243W        W 9762   4.565   0.797  11.808  0.2366 -0.1051 -0.3367
 6244W        W 9763   4.340   2.236   1.522  0.1413 -0.1269 -0.0456
 6245W        W 9764   4.343   3.221   0.495  0.1081 -0.0335 -0.1147
 6246W        W 9765   1.579   4.591  10.316 -0.0721 -0.1310 -0.1340
 6247W        W 9766   3.372   3.506   0.317  0.2780 -0.0410  0.1468
 6248W        W 9767   9.917   5.274   8.680  0.1429 -0.0270 -0.1743
 6249W        W 9768   7.729   6.164  10.610  0.1396  0.1701  0.0596
 6250W        W 9769   0.930   0.941   2.584 -0.1759  0.1207  0.2259
 6251W        W 9770   2.379   9.672   2.153 -0.1020 -0.0436  0.1519
 6252W        W 9771   3.996   9.037   9.015 -0.3847 -0.1003 -0.0139
 6253W        W 9772   4.364   4.916   9.890 -0.1361  0.1687  0.0781
 6254W        W 9773   8.209   8.037   8.300 -0.0433  0.2499  0.1281
 6255W        W 9774   5.363   0.653   3.946 -0.4148 -0.0862  0.3097
 6256W        W 9775   4.217   3.548   3.767 -0.0534  0.0134  0.3368
 6257W        W 9776   0.205   8.989   0.190  0.0030 -0.1768  0.0764
 6258W        W 9777   3.664   1.993  11.399  0.1749  0.1821  0.2284
 6259W        W 9778   0.135   8.820   4.573 -0.0137 -0.1338  0.1245
 6260W        W 9779   0.427   8.196   1.264 -0.0286 -0.3142 -0.1542
 6261W        W 9780   5.642   9.060   1.111 -0.0025  0.0172 -0.0861
 6262W        W 9781   8.006   5.991   3.592  0.0924  0.0457 -0.0136
 6263W        W 9782   6.224   5.803   4.039 -0.0970 -0.1979  0.1090
 6264W        W 9783   6.453   3.983   3.869 -0.0172 -0.1533  0.0471
 6265W        W 9784   4.271   2.060   9.603  0.1686 -0.1961 -0.0243
 6266W        W 9785   2.144   9.892   0.815  0.0855 -0.1166 -0.2719
 6267W        W 9786   8.280   9.418   2.820 -0.1489  0.1078 -0.3642
 6268W        W 9787   3.378   3.493  10.516 -0.0367 -0.4594 -0.0803
 6269W        W 9788   1.734   6.962  11.113  0.1962  0.2711 -0.2364
 6270W        W 9789   0.482   2.463   4.332 -0.0111 -0.1985  0.0261
 6271W        W 9790   2.584   9.348  10.263  0.6106  0.0338 -0.0167
 6272W        W 9791   6.133   3.138   2.631 -0.2242 -0.0867  0.1193
 6273W        W 9792   5.631   0.497   9.364 -0.1191  0.2306 -0.0443
 6274W        W 9793   4.843   6.766   0.633 -0.0335 -0.1011 -0.1902
 6275W        W 9794   6.099   5.428   0.661 -0.2212 -0.0549 -0.0088
 6276W        W 9795   4.938   7.806   9.293  0.1190  0.1661  0.0657
 6277W        W 9796   1.327   1.839   4.296  0.0249 -0.2405  0.2800
 6278W        W 9797   4.827   5.134   1.180 -0.0607  0.4130 -0.2068
 6279W        W 9798   8.665   2.134  10.494 -0.4543  0.1287  0.3521
 6280W        W 9799   3.485   9.639   4.499 -0.0545  0.0428  0.0333
 6281W        W 9800   9.233   5.697   0.479 -0.1735  0.2297  0.3572
 6282W        W 9801   0.204   6.486   2.396  0.0320  0.0656  0.2183
 6283W        W 9802   1.642   0.342   5.303  0.0710  0.0311 -0.1693
 6284W        W 9803   1.204   2.137   3.305  0.0569  0.3237  0.0848
 6285W        W 9804   2.758   3.617   9.349 -0.0047 -0.2328 -0.0604
 6286W        W 9805   8.310   6.052   0.390  0.0909  0.0525 -0.1746
 6287W        W 9806   8.361   6.735   8.750  0.1491  0.1900  0.1149
 6288W        W 9807   4.236   8.667   3.638  0.0229 -0.1761 -0.2152
 6289W        W 9808   2.457   7.084   3.199  0.1181 -0.2439 -0.2730
 6290W        W 9809   3.520   8.027  11.671 -0.0300 -0.0314  0.1039
 6291W        W 9810   2.372   2.197  10.169  0.4015  0.1115 -0.0192
 6292W        W 9811   8.826   3.695   8.941  0.0262 -0.1579  0.1727
 6293W        W 9812   6.578   3.141   9.703 -0.0201  0.1079 -0.2488
 6294W        W 9813   2.164   3.468   9.335  0.1379  0.1394  0.0438
 6295W        W 9814   5.342   7.807   2.673  0.1426  0.1471 -0.2056
 6296W        W 9815   3.981   0.477   1.302 -0.0030 -0.2631  0.1374
 6297W        W 9816   0.980   9.350   9.748  0.1202  0.3323 -0.0781
 6298W        W 9817   1.463   0.565   9.894 -0.1662 -0.0508 -0.0980
 6299W        W 9818   1.872   2.959   2.156  0.0968  0.2175  0.0298
 6300W        W 9819   5.330   6.459   2.650  0.1655  0.1761  0.0824
 6301W        W 9820   9.564   6.650   3.578  0.0757  0.0853  0.3652
 6302W        W 9821   4.063   1.443   0.629  0.0850  0.1863  0.2161
 6303W        W 9822   0.277   8.964   0.735 -0.0991 -0.1728  0.3595
 6304W        W 9823   3.762   2.766   2.683  0.2843 -0.1969  0.0695
 6305W        W 9824   4.109   0.087   2.636  0.2187  0.0853  0.0041
 6306W        W 9825   3.134   0.016   4.698  0.1651 -0.0836  0.1129
 6307W        W 9826   4.490   3.643   8.177  0.0618  0.0776 -0.2612
 6308W        W 9827   8.039   2.821   9.628 -0.1243  0.1281  0.0285
 6309W        W 9828   3.487   1.439  11.305 -0.2930 -0.1633  0.0062
 6310W        W 9829   3.781   5.083   3.489  0.0495  0.2896 -0.0278
 6311W        W 9830   2.016   8.092   9.077  0.1075  0.3564  0.0062
 6312W        W 9831   0.322   4.775   1.030  0.1114  0.2536  0.0929
 6313W        W 9832   2.202   9.050   2.356 -0.0971 -0.0591 -0.0688
 6314W        W 9833   6.033   2.665   8.917 -0.3536 -0.1273  0.3508
 6315W        W 9834   7.725   0.542  11.727  0.4136 -0.1782  0.2078
 6316W        W 9835   4.779   4.607   9.479 -0.2801 -0.1276 -0.2248
 6317W        W 9836   3.032   7.807  11.166  0.1962  0.2160  0.3571
 6318W        W 9837   4.840   7.749  11.110  0.2510  0.0212 -0.2510
 6319W        W 9838   2.718   2.861   9.376 -0.2500  0.2694 -0.1965
 6320W        W 9839   4.116   6.135  10.431 -0.1911 -0.4535  0.0078
 6321W        W 9840   7.343   7.790   0.557 -0.0575 -0.2533  0.0808
 6322W        W 9841   5.371   3.307  11.632  0.1854  0.1217 -0.0404
 6323W        W 9842   3.171   9.291   8.483  0.2914  0.0095  0.2129
 6324W        W 9843   5.724   2.969   1.259 -0.1854 -0.0237 -0.2876
 6325W        W 9844   7.324   6.581   1.137 -0.0167  0.3553  0.0122
 6326W        W 9845   2.672   9.424   1.790  0.1934 -0.4634 -0.0006
 6327W        W 9846   7.414   3.572   1.110 -0.0591 -0.1058 -0.0291
 6328W        W 9847   8.026   7.787   2.813 -0.1018  0.3594 -0.0229
 6329W        W 9848   6.386   7.840   4.492 -0.0501 -0.5165  0.0328
 6330W        W 9849   5.305   9.069  10.425  0.4386 -0.2640 -0.1908
 6331W        W 9850   0.316   1.586   3.435  0.2071  0.0341  0.1428
 6332W        W 9851   7.486   9.324  10.839 -0.1768  0.0971  0.1430
 6333W        W 9852   5.654   8.523  11.652 -0.1021  0.0822  0.2240
 6334W        W 9853   0.635   3.587  10.601  0.2669 -0.1479  0.1040
 6335W        W 9854   2.121   9.936  10.179  0.0263  0.0327 -0.0415
 6336W        W 9855   2.837   7.090   1.690  0.0775 -0.1036  0.3476
 6337W        W 9856   0.895   8.823   0.935 -0.1159 -0.0602 -0.0328
 6338W        W 9857   7.510   8.818  10.608  0.0301  0.1153  0.0820
 6339W        W 9858   7.765   4.940   9.035  0.1344  0.2287  0.0741
 6340W        W 9859   0.323   4.630  11.111 -0.1286 -0.1242  0.1634
 6341W        W 9860   2.484   4.623   8.658  0.3326  0.1165  0.0400
 6342W        W 9861   7.095   4.819  10.834  0.0410  0.2203  0.3718
 6343W        W 9862   7.225   4.005   8.833 -0.0584 -0.0833  0.1414
 6344W        W 9863   1.625   8.748   1.469 -0.1084  0.1247  0.3150
 6345W        W 9864   8.857   3.237   2.680  0.0424 -0.0533  0.2806
 6346W        W 9865   9.170   3.715  11.107  0.0129  0.1155 -0.0050
 6347W        W 9866   8.373   9.924   2.551 -0.2440  0.0814 -0.2603
 6348W        W 9867   4.448   9.453   1.432  0.1736 -0.1796 -0.0371
 6349W        W 9868   3.295   5.197  11.102 -0.0044 -0.2528  0.0861
 6350W        W 9869   1.048   5.831  11.116 -0.0586  0.0064 -0.1076
 6351W        W 9870   5.664   8.743  10.471 -0.1501 -0.6213 -0.0823
 6352W        W 9871   0.708   1.746   1.762  0.2237  0.0443 -0.0704
 6353W        W 9872   9.698   7.361   1.131 -0.2667  0.1113  0.0766
 6354W        W 9873   1.442   4.631   1.417 -0.0497 -0.0976 -0.0561
 6355W        W 9874   2.999   6.122  10.589 -0.2857  0.0152  0.0838
 6356W        W 9875   8.655   2.314   3.415  0.0182 -0.1082 -0.0755
 6357W        W 9876   3.128   3.362  11.682 -0.2078 -0.0091 -0.0090
 6358W        W 9877   5.480   0.800   0.934  0.5812 -0.0866  0.1750
 6359W        W 9878   5.322   1.050  10.161 -0.0184  0.2904  0.0797
 6360W        W 9879   7.590   7.579  10.730  0.4043  0.4375 -0.0699
 6361W        W 9880   5.483   7.574   9.273 -0.1680  0.0143 -0.1349
 6362W        W 9881   1.602   1.653   8.347 -0.0336 -0.0762 -0.0761
 6363W        W 9882   1.365   2.843   9.723  0.3753  0.0090  0.1893
 6364W        W 9883   3.820   7.492   4.043 -0.2896 -0.1087  0.0480
 6365W        W 9884   9.338   2.543   1.586 -0.2746 -0.1212 -0.0996
 6366W        W 9885   6.420   1.871  11.400 -0.0467  0.1421  0.0963
 6367W        W 9886   8.235   6.738  11.064  0.2121  0.1536  0.0619
 6368W        W 9887   1.737   9.621   4.416 -0.0296  0.2077 -0.0218
 6369W        W 9888   2.338   8.390   9.960 -0.0649 -0.1643 -0.1572
 6370W        W 9889   4.206   3.339   3.012 -0.1278  0.1842 -0.2001
 6371W        W 9890   0.587   0.713   4.573 -0.1677  0.1905  0.0045
 6372W        W 9891   9.804   9.462  10.416  0.1667 -0.0716 -0.2502
 6373W        W 9892   7.169   3.261  11.180 -0.0706  0.0012 -0.0691
 6374W        W 9893   4.039   4.483  11.251  0.2961 -0.0925  0.0178
 6375W        W 9894   2.430   7.797   0.865 -0.2105  0.0097 -0.0842
 6376W        W 9895   5.159   7.073   8.621  0.1680  0.1681  0.0291
 6377W        W 9896   0.169   9.506   4.082  0.0451 -0.1072 -0.0210
 6378W        W 9897   3.753   5.390  11.306  0.2498 -0.1668  0.2810
 6379W        W 9898   2.913   5.575  11.174 -0.1980 -0.1354 -0.1519
 6380W        W 9899   1.905   0.047   9.172 -0.2538 -0.2127 -0.0992
 6381W        W 9900   2.748   7.230   2.283  0.0039 -0.0827 -0.0086
 6382W        W 9901   6.433   6.708   1.400 -0.3247  0.0152  0.0495
 6383W        W 9902   5.667   1.430   3.872 -0.0215  0.2807 -0.3519
 6384W        W 9903   0.955   8.796  10.905  0.0194  0.0773  0.0543
 6385W        W 9904   8.383   3.413  10.683  0.2884  0.1523  0.2188
 6386W        W 9905   0.242   8.921  10.322 -0.1980  0.0840 -0.0551
 6387W        W 9906   9.779   1.490   9.831 -0.1240 -0.3998 -0.0067
 6388W        W 9907   7.582   4.572   3.655  0.1069 -0.1279 -0.3691
 6389W        W 9908   3.620   1.564   0.905 -0.1194 -0.0841  0.0717
 6390W        W 9909   9.169   1.051   1.871 -0.1405 -0.0060  0.0958
 6391W        W 9910   2.200   3.000   3.689 -0.1127 -0.2818  0.2408
 6392W        W 9911   0.830   1.842   1.284  0.1022 -0.2520  0.3374
 6393W        W 9912   6.918   8.485   4.788 -0.2986  0.3831 -0.2259
 6394W        W 9913   1.607   1.442   4.062 -0.0968 -0.2158 -0.1365
 6395W        W 9914   6.952   3.622   8.853  0.4577  0.2226  0.1709
 6396W        W 9915   7.255   5.095   9.109  0.0481  0.0891 -0.1212
 6397W        W 9916   6.786   0.777   1.897 -0.0679  0.0076 -0.1430
 6398W        W 9917   5.699   2.362   2.734  0.1814 -0.1354  0.0247
 6399W        W 9918   6.227   5.466   9.225 -0.2125 -0.1536 -0.0432
 6400W        W 9919   0.617   4.326   8.954  0.1808 -0.3446 -0.3485
 6401W        W 9920   4.294   1.812   8.466  0.1264  0.0050 -0.0958
 6402W        W 9921   1.494   5.918  10.580 -0.2624  0.0640  0.1516
 6403W        W 9922   0.860   2.333   0.488 -0.1875 -0.1261 -0.1484
 6404W        W 9923   0.470   0.111   9.428  0.0913  0.0236 -0.0256
 6405W        W 9924   1.133   8.133  11.875 -0.0659  0.0939 -0.0215
 6406W        W 9925   6.971   9.517   2.461  0.1519 -0.2488 -0.2649
 6407W        W 9926   4.103   1.071  10.780 -0.0769 -0.5525  0.0683
 6408W        W 9927   6.443   8.028   0.660  0.0378 -0.1133 -0.4162
 6409W        W 9928   3.549   5.487   0.556 -0.0353 -0.1452  0.0350
 6410W        W 9929   0.288   4.738   4.002 -0.2674  0.0870  0.0992
 6411W        W 9930   6.872   4.517   8.206  0.3452 -0.1265 -0.2922
 6412W        W 9931   4.008   5.630  10.329 -0.2348 -0.1351 -0.0027
 6413W        W 9932   8.890   5.667   9.561  0.2473 -0.1987  0.2071
 6414W        W 9933   2.559   1.911   0.806  0.0434  0.0028  0.0205
 6415W        W 9934   4.884   5.994  11.555  0.2097 -0.1487  0.1291
 6416W        W 9935   0.833   4.834   1.127 -0.1215 -0.2688 -0.1873
 6417W        W 9936   7.258   6.408   9.265 -0.0665  0.2195  0.0799
 6418W        W 9937   7.355   3.516   2.059  0.0937 -0.3518 -0.0649
 6419W        W 9938   6.592   4.230  11.730 -0.1476  0.2589 -0.1442
 6420W        W 9939   9.008   2.824  10.105 -0.0017 -0.0049 -0.0954
 6421W        W 9940   2.956   2.483   3.517  0.1453 -0.2481  0.0539
 6422W        W 9941   1.255   3.668   9.370  0.0742  0.2297 -0.3601
 6423W        W 9942   1.048   1.848   9.760  0.2448  0.0694 -0.1922
 6424W        W 9943   7.046   2.823   9.900  0.2469  0.4069  0.2425
 6425W        W 9944   4.327   7.164  10.393  0.3099  0.0559  0.2086
 6426W        W 9945   0.726   8.242  10.453  0.1020 -0.1947  0.3392
 6427W        W 9946   7.373   8.046   8.880  0.1422 -0.2657 -0.1195
 6428W        W 9947   0.477   1.013   1.710 -0.1073 -0.2021 -0.1098
 6429W        W 9948   2.910   9.692   0.650  0.2004  0.1243  0.2957
 6430W        W 9949   8.410   0.808  10.092 -0.0616 -0.1120  0.0186
 6431W        W 9950   2.275   9.129  11.879  0.0904  0.4015 -0.0936
 6432W        W 9951   4.923   9.399   9.269  0.1852 -0.2629 -0.1244
 6433W        W 9952   5.534   3.675   3.085  0.2657 -0.1121 -0.3794
 6434W        W 9953   3.394   8.660   0.502 -0.3712 -0.0276  0.2903
 6435W        W 9954   8.996   0.598   9.393  0.0761 -0.1262  0.1062
 6436W        W 9955   5.065   0.469  11.858  0.0258  0.0237  0.1386
 6437W        W 9956   9.932   8.881   1.955  0.1655 -0.1391 -0.1603
 6438W        W 9957   3.749   7.998   9.925 -0.3095  0.0921  0.1097
 6439W        W 9958   8.120   3.384   7.881  0.0012  0.0899  0.0321
 6440W        W 9959   0.305   9.123   2.281  0.1488 -0.0494  0.3921
 6441W        W 9960   7.147   6.582   2.318 -0.1711 -0.0100  0.0373
 6442W        W 9961   4.892   7.572   2.831  0.1908  0.3890  0.0552
 6443W        W 9962   0.206   8.134  11.873 -0.0519  0.0939  0.2518
 6444W        W 9963   3.661   6.214   9.882  0.4356 -0.0724  0.3030
 6445W        W 9964   0.775   7.359   8.990  0.1522 -0.3395 -0.2595
 6446W        W 9965   5.981   2.051   1.486  0.1391 -0.1790 -0.0014
 6447W        W 9966   6.550   2.961   0.027 -0.1195  0.2355 -0.0236
 6448W        W 9967   9.400   4.717  11.294  0.0283  0.1603 -0.0578
 6449W        W 9968   1.227   3.345   8.822 -0.2246 -0.1054  0.2809
 6450W        W 9969   0.257   6.523   3.342  0.3521  0.1809  0.2529
 6451W        W 9970   2.278   3.198   0.939  0.3496 -0.0494 -0.1894
 6452W        W 9971   9.353   2.936   8.234 -0.0155  0.1077  0.0900
 6453W        W 9972   7.553   1.930   9.575  0.0601 -0.1792  0.0666
 6454W        W 9973   0.492   1.201   2.637 -0.0137  0.0247 -0.1406
 6455W        W 9974   4.280   5.711   3.809  0.0330  0.1363 -0.1281
 6456W        W 9975   3.286   9.552   1.038  0.0766  0.1825 -0.0692
 6457W        W 9976   7.501   2.339  11.407  0.0056 -0.0853 -0.0864
 6458W        W 9977   1.227   1.118   2.167  0.0480 -0.2899 -0.0022
 6459W        W 9978   6.290   0.188  11.165 -0.0239 -0.0184  0.0669
 6460W        W 9979   8.577   8.437   0.933 -0.1073 -0.1492  0.2195
 6461W        W 9980   1.502   3.002   3.030 -0.0896 -0.1978  0.0131
 6462W        W 9981   5.120   8.167   9.017  0.0777  0.0409  0.0189
 6463W        W 9982   4.594   6.646   3.465  0.3234 -0.1313  0.4150
 6464W        W 9983   8.950   5.409   8.950  0.2906  0.4103 -0.1207
 6465W        W 9984   4.437   9.038   9.821  0.0041 -0.2532 -0.2762
 6466W        W 9985   1.276   1.536   1.187  0.1830 -0.1050 -0.0356
 6467W        W 9986   5.283   0.797   9.197 -0.1821  0.2222  0.1459
 6468W        W 9987   6.069   3.939  11.374  0.1945  0.1092 -0.2026
 6469W        W 9988   4.229   1.250   8.401 -0.0077 -0.0432  0.3222
 6470W        W 9989   5.829   9.240  10.372 -0.1262  0.4543  0.1397
 6471W        W 9990   0.921   6.030   3.124 -0.0264  0.1215  0.0761
 6472W        W 9991   1.068   8.945   3.967  0.1836 -0.0303 -0.0486
 6473W        W 9992   5.570   0.018   0.624  0.1078 -0.2283 -0.1139
 6474W        W 9993   9.486   1.021   0.534  0.0216 -0.1526  0.2511
 6475W        W 9994   9.362   3.765   3.639  0.0480  0.0200  0.1369
 6476W        W 9995   5.923   3.062   0.764 -0.0414  0.0808 -0.0032
 6477W        W 9996   9.427   6.986   0.319 -0.1270  0.3578 -0.1439
 6478W        W 9997   5.438   8.436   1.520 -0.0851  0.4176 -0.2151
 6479W        W 9998   6.448   3.126   4.448  0.1798 -0.0284 -0.0880
 6480W        W 9999   7.565   0.176   1.519  0.2447  0.1820  0.0556
 6481W        W10000   9.363   5.370   2.281  0.1849  0.2445  0.5016
 6482W        W10001   2.060   3.923   9.105 -0.1351 -0.0147 -0.1488
 6483W        W10002   1.578   0.113  11.328 -0.0085  0.3544 -0.1162
 6484W        W10003   5.768   9.418   8.566  0.1195  0.0991 -0.0425
 6485W        W10004   8.381   5.589   3.655  0.1302  0.0609 -0.0379
 6486W        W10005   9.163   4.364   1.831 -0.1473 -0.0558  0.0169
 6487W        W10006   7.954   0.234   1.119 -0.1868 -0.2481 -0.3173
 6488W        W10007   4.674   5.802   5.089  0.0500  0.1162 -0.0591
 6489W        W10008   3.909   3.841   2.290  0.1938  0.1724  0.1319
 6490W        W10009   5.264   1.729   2.455  0.2429  0.0517 -0.3087
 6491W        W10010   7.124   2.457   0.527  0.1434 -0.0497  0.0849
 6492W        W10011   9.543   5.295   0.311  0.2666 -0.1455 -0.1415
 6493W        W10012   8.303   3.386   1.302  0.0361  0.2136 -0.1355
 6494W        W10013   3.521   7.149   0.735  0.2028 -0.3247  0.2053
 6495W        W10014   4.129   7.935   4.006  0.1256  0.0434 -0.0397
 6496W        W10015   0.963   3.164   1.932  0.1732  0.0335  0.0969
 6497W        W10016   5.411   0.464  10.645  0.3331 -0.0910  0.3122
 6498W        W10017   1.758   3.397   7.686  0.1167  0.2319  0.1457
 6499W        W10018   5.552   8.994   2.278  0.0013 -0.1269 -0.0703
 6500W        W10019   8.128   1.059   8.166  0.0485  0.0192  0.0488
 6501W        W10020   8.008   9.020   1.160  0.3018  0.2101  0.0210
 6502W        W10021   6.546   1.181   4.436 -0.0735  0.0686 -0.2005
 6503W        W10022   9.868   2.370   4.064  0.0167  0.3061  0.0710
 6504W        W10023   5.175   7.582   0.455  0.0294  0.0232  0.1459
 6505W        W10024   4.941   1.537   2.813 -0.2760  0.2545 -0.2106
 6506W        W10025   0.904   2.274   9.381  0.1081 -0.0618  0.1540
 6507W        W10026   9.713   8.300   9.212 -0.1716  0.0733 -0.3679
 6508W        W10027   2.248   4.744  10.554 -0.0719  0.3203 -0.1194
 6509W        W10028   0.653   1.910   0.484 -0.0731 -0.3572 -0.0438
 6510W        W10029   3.390   8.807   8.554 -0.1972  0.0408  0.7546
 6511W        W10030   2.221   9.008   1.022 -0.1109  0.2275 -0.0540
 6512W        W10031   9.500   2.134  10.426 -0.0461  0.1614  0.0071
 6513W        W10032   5.014   8.208   2.169 -0.1977 -0.1785  0.2567
 6514W        W10033   7.529   8.317  10.787 -0.0013  0.0268 -0.1848
 6515W        W10034   3.179   7.018   2.735  0.0954 -0.1463 -0.2667
 6516W        W10035   9.450   6.952   9.598 -0.1504 -0.1677 -0.3607
 6517W        W10036   3.636   1.820   9.648 -0.0049  0.0632  0.0890
 6518W        W10037   6.146   9.776  10.819 -0.3430 -0.0052  0.1756
 6519W        W10038   7.249   2.781  10.376  0.2789  0.1430  0.1975
 6520W        W10039   6.987   1.329   2.575 -0.3578  0.0594  0.0761
 6521W        W10040   1.257   9.773   0.024  0.3391  0.1728  0.0606
 6522W        W10041   6.204   9.854   9.097 -0.1899 -0.4649  0.1007
 6523W        W10042   0.254   4.632   0.536 -0.2548  0.0024 -0.1914
 6524W        W10043   5.869   1.327   1.739 -0.0320  0.0189 -0.1121
 6525W        W10044   7.681   9.634  11.236 -0.1790  0.1162 -0.0897
 6526W        W10045   3.763   1.199   3.302  0.0025 -0.2538 -0.3551
 6527W        W10046   6.267   5.206   1.523  0.0449  0.0467 -0.2778
 6528W        W10047   1.056   4.865   9.243  0.0614 -0.2386  0.0297
 6529W        W10048   1.979   4.118   7.741  0.2182  0.1047 -0.1508
 6530W        W10049   6.552   5.945   3.551  0.1380  0.0256 -0.1450
 6531W        W10050   4.101   2.421   1.959 -0.1599 -0.3047  0.0773
 6532W        W10051   8.798   4.509  11.495  0.1377 -0.1686 -0.0150
 6533W        W10052   7.008   2.875   2.756 -0.0010 -0.2631 -0.0933
 6534W        W10053   0.305   9.647  10.314  0.2499 -0.0171 -0.2813
 6535W        W10054   5.054   5.753   2.156 -0.1797  0.3181 -0.1192
 6536W        W10055   5.967   8.003   2.012 -0.0315  0.1639  0.0163
 6537W        W10056   2.525   0.116   8.250  0.2681  0.0929 -0.3029
 6538W        W10057   7.411   2.656   0.824 -0.3195  0.2209 -0.4143
 6539W        W10058   3.157   4.493  11.596 -0.0296 -0.3344 -0.4104
 6540W        W10059   1.642   7.010  10.376  0.2567  0.2261 -0.2088
 6541W        W10060   3.552   5.949  11.627  0.0506 -0.0454 -0.1039
 6542W        W10061   4.505   0.924   9.555  0.1506 -0.3014 -0.0626
 6543W        W10062   6.154   1.401   9.434  0.3116 -0.2587  0.1406
 6544W        W10063   5.223   1.725   9.173 -0.0656  0.1309  0.0871
 6545W        W10064   5.054   5.036   9.356 -0.1747  0.1321 -0.0673
 6546W        W10065   9.275   3.959   4.747 -0.1619  0.2586  0.1330
 6547W        W10066   5.720   3.439   9.184 -0.1151 -0.2769  0.0827
 6548W        W10067   7.667   5.556   8.932  0.1181  0.0533 -0.1066
 6549W        W10068   6.243   2.413   1.278  0.0089  0.1757 -0.1597
 6550W        W10069   8.134   4.275   8.604 -0.0386 -0.1926 -0.1122
 6551W        W10070   7.264   1.330  10.729 -0.2482 -0.0464  0.2375
 6552W        W10071   6.489   8.014   9.479 -0.1072 -0.1511 -0.2285
 6553W        W10072   2.476   4.489   0.735  0.0366 -0.0279  0.3982
 6554W        W10073   5.834   5.639   1.694  0.0335  0.4212  0.0131
 6555W        W10074   8.882   4.479  10.537 -0.3627 -0.0361 -0.0892
 6556W        W10075   0.716   5.285   9.183  0.0602  0.0111 -0.0493
 6557W        W10076   6.996   2.167   1.694  0.1085  0.2723 -0.1422
 6558W        W10077   4.908   8.509   1.608  0.1625  0.0817  0.1086
 6559W        W10078   9.210   5.313   3.230 -0.0078  0.3136 -0.3097
 6560W        W10079   4.249   4.518   1.678  0.0316 -0.0665  0.1269
 6561W        W10080   9.004   8.952  10.218 -0.3035 -0.0399  0.0840
 6562W        W10081   5.212   5.416   0.302 -0.1159 -0.0695  0.0315
 6563W        W10082   7.659   6.944   4.735 -0.0549 -0.1179  0.0832
 6564W        W10083   0.606   0.645  11.013  0.2248 -0.2768 -0.2953
 6565W        W10084   0.495   4.342   1.332  0.1377 -0.5635 -0.0340
 6566W        W10085   2.041   8.188   0.507  0.1904  0.0488  0.0307
 6567W        W10086   7.021   1.071   3.169  0.1834  0.1177  0.4497
 6568W        W10087   8.001   2.748   0.129  0.1185 -0.0064  0.1394
 6569W        W10088   0.638   2.213   1.506 -0.2076 -0.1378 -0.0651
 6570W        W10089   2.017   1.239   3.900  0.0897 -0.0577  0.1846
 6571W        W10090   3.491   0.613   1.314  0.0899  0.4545  0.0604
 6572W        W10091   5.200   3.758   8.478  0.1105  0.0280 -0.2470
 6573W        W10092   5.532   1.305   2.613 -0.1700 -0.1852 -0.0820
 6574W        W10093   7.259   7.553   3.238  0.1549 -0.0840 -0.4225
 6575W        W10094   2.998   6.005   3.999  0.2435 -0.3013  0.0681
 6576W        W10095   8.166   6.901  10.299 -0.2656 -0.4162 -0.2962
 6577W        W10096   3.504   1.051   4.221  0.0558  0.0879  0.3336
 6578W        W10097   1.824   7.881  10.672  0.2733 -0.0601 -0.3009
 6579W        W10098   9.190   3.486   1.315  0.0924 -0.4430 -0.3428
 6580W        W10099   1.512   4.252   9.683  0.0766  0.2232 -0.3399
 6581W        W10100   6.840   7.378   0.075 -0.0008 -0.1477 -0.0458
 6582W        W10101   5.556   2.827  11.828 -0.1392  0.3574  0.0574
 6583W        W10102   1.923   4.356  10.732 -0.3541 -0.1065  0.1312
 6584W        W10103   0.830   3.790   3.676 -0.0039 -0.1402 -0.0638
 6585W        W10104   4.129   4.160   2.004  0.1805  0.0283  0.0465
 6586W        W10105   0.865   1.462  11.462  0.3946  0.1641 -0.0940
 6587W        W10106   5.594   8.463  10.111  0.0588 -0.2372  0.0439
 6588W        W10107   8.305   2.212   8.667 -0.1710  0.0012 -0.2075
 6589W        W10108   1.084   4.519  10.424 -0.1947  0.1120  0.2755
 6590W        W10109   2.410   0.829   0.480 -0.0009 -0.0343 -0.0790
 6591W        W10110   0.009   5.889   3.461 -0.0445  0.0704 -0.0528
 6592W        W10111   7.371   8.418   3.106 -0.0337  0.1823 -0.1740
 6593W        W10112   5.936   1.942   3.063  0.0581  0.2379 -0.3509
 6594W        W10113   4.842   2.132  10.220  0.0079  0.1948 -0.3328
 6595W        W10114   9.170   0.368   0.591  0.1997 -0.0017  0.0604
 6596W        W10115   8.361   3.871   8.692 -0.1420 -0.1595  0.1898
 6597W        W10116   3.499   0.358  10.432  0.0451  0.3010 -0.2819
 6598W        W10117   8.994   2.181   1.657 -0.1812  0.1116 -0.0318
 6599W        W10118   2.810   2.526   2.165  0.0548 -0.1665 -0.2580
 6600W        W10119   4.118   6.682   1.760 -0.0375 -0.0496 -0.0017
 6601W        W10120   8.040   0.402   9.317  0.0063  0.0227 -0.0104
 6602W        W10121   7.710   6.417   4.788 -0.0602 -0.0729  0.2090
 6603W        W10122   6.729   6.086   1.764  0.0198 -0.1861 -0.1496
 6604W        W10123   9.459   8.941   2.719  0.2259  0.0574 -0.0193
 6605W        W10124   0.990   9.381   0.186  0.1346 -0.0668  0.0652
 6606W        W10125   2.401   8.892  10.121 -0.0112 -0.2124  0.2452
 6607W        W10126   9.323   8.327   1.299 -0.2320  0.3524 -0.0407
 6608W        W10127   8.514   5.595   1.824  0.3544 -0.0520  0.0670
 6609W        W10128   6.329   6.701   9.681 -0.2531  0.1992  0.0678
 6610W        W10129   4.269   0.033   4.020  0.3530  0.1333  0.2109
 6611W        W10130   0.643   0.362   1.280 -0.1427  0.0664 -0.0907
 6612W        W10131   5.056   3.037   1.155  0.2628  0.1430  0.1467
 6613W        W10132   7.754   7.973  10.475  0.0783  0.1156  0.0108
 6614W        W10133   3.314   8.450  10.656 -0.0935  0.3354  0.1197
 6615W        W10134   7.064   4.484   3.003  0.1905  0.0250  0.3005
 6616W        W10135   8.376   8.105   3.959  0.4176  0.0043 -0.0107
 6617W        W10136   6.285   6.386   3.462  0.1615  0.3790  0.0908
 6618W        W10137   3.760   7.277  11.244  0.2539  0.1935  0.4822
 6619W        W10138   0.953   2.055   4.575 -0.0379 -0.0889 -0.0598
 6620W        W10139   5.945   7.161   8.282  0.1509  0.0479 -0.0122
 6621W        W10140   0.777   4.870   3.835 -0.1227 -0.2233 -0.1868
 6622W        W10141   2.107   6.505   3.289 -0.1117  0.0171  0.1366
 6623W        W10142   6.261   4.869   2.846 -0.0695  0.0894  0.1248
 6624W        W10143   9.929   5.908  11.168 -0.0941 -0.0760  0.4563
 6625W        W10144   4.637   8.809   2.750  0.2644 -0.2954 -0.3692
 6626W        W10145   8.534   4.941  10.686  0.0845 -0.2804  0.2578
 6627W        W10146   0.737   8.156   2.727 -0.0221 -0.0686 -0.2452
 6628W        W10147   6.692   2.593   1.888 -0.0659  0.1567  0.1281
 6629W        W10148   7.441   9.181  11.342  0.3842 -0.2498  0.0571
 6630W        W10149   4.267   8.391   0.235 -0.1265 -0.5206 -0.1942
 6631W        W10150   6.094   1.275   2.265 -0.1641 -0.1644  0.0475
 6632W        W10151   2.412   6.051   3.350  0.2381 -0.1971 -0.1313
 6633W        W10152   9.726   4.814   0.344 -0.1729  0.0635  0.0761
 6634W        W10153   5.638   5.590   3.279  0.0352  0.2624 -0.1699
 6635W        W10154   6.023   0.916   0.965  0.1647 -0.2204  0.2573
 6636W        W10155   2.077   6.766   1.569 -0.2304  0.0008  0.0225
 6637W        W10156   9.251   6.768  10.021 -0.1995 -0.2616  0.0985
 6638W        W10157   9.557   8.829   3.507  0.4341  0.0802 -0.0101
 6639W        W10158   6.908   7.807   4.319  0.0446 -0.1167 -0.1420
 6640W        W10159   7.316   8.499   9.082  0.0886  0.2037  0.2224
 6641W        W10160   4.158   3.069  10.204 -0.0335  0.1198 -0.1466
 6642W        W10161   1.108   3.076  11.086 -0.5821  0.3059 -0.0259
 6643W        W10162   4.390   4.493   4.104  0.0348  0.3137 -0.0770
 6644W        W10163   4.069   0.210   0.018 -0.4435  0.4304  0.0591
 6645W        W10164   0.802   7.850  11.135 -0.1520  0.0417 -0.0208
 6646W        W10165   9.752   0.350   1.491  0.2350 -0.1573  0.1116
 6647W        W10166   6.306   1.048   4.816 -0.2483 -0.0545 -0.0954
 6648W        W10167   7.036   4.795  11.386  0.0045  0.3122 -0.1231
 6649W        W10168   3.140   0.631  10.886  0.2139  0.1794 -0.2404
 6650W        W10169   4.722   8.708   4.423 -0.0155  0.1532  0.0744
 6651W        W10170   2.440   5.097   9.515 -0.2170 -0.0517 -0.0308
 6652W        W10171   7.912   8.269   2.964 -0.0891  0.0418  0.1171
 6653W        W10172   5.797   3.758   0.214 -0.0529  0.1360 -0.1526
 6654W        W10173   9.937   3.284   0.977  0.1487  0.1843 -0.2532
 6655W        W10174   2.376   4.450   9.881  0.2560  0.1670  0.5652
 6656W        W10175   3.157   6.099  11.052 -0.1001  0.0653 -0.1177
 6657W        W10176   6.040   3.384   1.198  0.0612  0.1387 -0.1608
 6658W        W10177   7.548   1.243   8.121 -0.0333 -0.1486  0.0552
 6659W        W10178   9.369   0.275   9.275  0.0964 -0.2468  0.0214
 6660W        W10179   8.539   2.982   1.992  0.1496 -0.0491 -0.2880
 6661W        W10180   6.880   6.420   9.677  0.0329 -0.1092  0.3102
 6662W        W10181   0.828   3.823   2.813 -0.1265  0.0098  0.0112
 6663W        W10182   0.956   2.909  10.083 -0.0568 -0.0758 -0.4567
 6664W        W10183   6.177   7.752   4.964  0.2682  0.2981 -0.1455
 6665W        W10184   4.922   2.436  11.245 -0.3220 -0.0126 -0.4653
 6666W        W10185   4.043   5.189   9.520  0.2976  0.3173  0.2235
 6667W        W10186   4.581   5.511  11.605  0.3391 -0.3456  0.1168
 6668W        W10187   1.482   6.161   0.445 -0.3042 -0.2206 -0.0528
 6669W        W10188   5.662   0.949   4.209 -0.1906 -0.3433 -0.0284
 6670W        W10189   2.507   7.353  10.196  0.0083  0.1918  0.0746
 6671W        W10190   1.215   2.499  10.803 -0.0451 -0.1550  0.0877
 6672W        W10191   0.096   6.610   0.822 -0.0010  0.0048 -0.0982
 6673W        W10192   6.246   4.025   2.603 -0.0426  0.0536 -0.1338
 6674W        W10193   6.966   5.170   2.591  0.0412 -0.2943  0.1352
 6675W        W10194   5.171   1.361   4.733  0.0800  0.1168 -0.1144
 6676W        W10195   9.666   6.955   1.711  0.0718 -0.0940 -0.1508
 6677W        W10196   3.867   4.023  11.061 -0.1800 -0.0907 -0.2452
 6678W        W10197   1.480   5.527   9.865  0.0900 -0.0101 -0.2075
 6679W        W10198   5.948   5.905   8.631  0.1232  0.1346 -0.2916
 6680W        W10199   4.152   4.236   7.738 -0.2429  0.3718  0.0912
 6681W        W10200   7.372   3.092  10.725 -0.0278  0.0235 -0.2517
 6682W        W10201   9.105   5.156   3.755  0.1474  0.2157 -0.1925
 6683W        W10202   0.070   8.445   9.604 -0.0115 -0.1917 -0.0506
 6684W        W10203   1.596   8.883   8.635 -0.0491 -0.0056 -0.2514
 6685W        W10204   6.161   1.481  11.757  0.0332 -0.1678  0.1364
 6686W        W10205   3.337   7.484   1.587 -0.0849 -0.1757  0.0601
 6687W        W10206   1.323   3.449   2.138 -0.2957  0.1367 -0.1080
 6688W        W10207   0.008   5.456   1.147  0.1117  0.3317 -0.0615
 6689W        W10208   4.421   1.190   3.926 -0.0908  0.2196 -0.3658
 6690W        W10209   6.459   1.596   2.570  0.0848 -0.3394 -0.1897
 6691W        W10210   0.463   8.797   2.709 -0.0931  0.3406 -0.1475
 6692W        W10211   4.154   2.938   3.770  0.1877 -0.2870  0.1545
 6693W        W10212   0.353   6.119   3.074 -0.1378 -0.0943  0.0346
 6694W        W10213   5.402   5.969   2.531 -0.0889  0.1633  0.0794
 6695W        W10214   1.930   6.451   1.142  0.1928 -0.1912 -0.0290
 6696W        W10215   4.885   2.815   2.141 -0.0199 -0.0241 -0.3293
 6697W        W10216   6.209   8.587   8.404  0.3957 -0.0762  0.1845
 6698W        W10217   5.512   1.459   5.084 -0.1066  0.0859  0.0555
 6699W        W10218   5.669   0.019   4.185 -0.0119 -0.1859  0.1669
 6700W        W10219   5.390   5.765   1.561  0.2208 -0.1409  0.0153
 6701W        W10220   3.060   2.081   2.531  0.1319  0.2008  0.1713
 6702W        W10221   1.574   3.320  10.513  0.1062 -0.1585 -0.0505
 6703W        W10222   9.474   9.189   4.847  0.0887 -0.1444  0.1748
 6704W        W10223   1.644   1.674  10.444  0.1167  0.1520 -0.2360
 6705ION    NA+10224   7.050   3.476  10.701  0.1284  0.0530 -0.0033
 6706ION    NA+10225   8.174   4.715   9.890  0.0881  0.1352  0.0520
 6707ION    NA+10226   7.898   6.124   3.052  0.0283 -0.0161 -0.3043
 6708ION    NA+10227   6.140   4.688  10.768  0.2651 -0.3237  0.0792
 6709ION    NA+10228   4.353   1.760   9.108  0.3598  0.3954  0.2342
 6710ION    NA+10229   5.373   0.048  10.985 -0.0725 -0.1417  0.2550
 6711ION    NA+10230   5.153   7.389   5.041 -0.3920 -0.0257  0.0510
 6712ION    NA+10231   0.400   9.812   4.937 -0.2313  0.1358  0.0509
 6713ION    NA+10232   5.370   4.731   3.441 -0.0820 -0.1044 -0.0078
 6714ION    NA+10233   2.192   6.038   8.678 -0.2218 -0.0543 -0.0461
 6715ION    NA+10234   2.899   9.190   1.094  0.4112  0.1648 -0.2131
 6716ION    NA+10235   5.799   2.805   8.380 -0.0669  0.4581  0.0821
 6717ION    NA+10236   1.788   8.726   2.828 -0.0495 -0.1795 -0.1297
 6718ION    NA+10237   1.117   4.284  11.505 -0.0901 -0.0376 -0.0154
 6719ION    NA+10238   9.517   9.654   8.659 -0.1133  0.0080  0.2506
 6720ION    NA+10239   1.692   0.297   2.574  0.1474 -0.0998  0.2386
 6721ION    NA+10240   5.739   5.630   4.353  0.0676  0.1552  0.3788
 6722ION    NA+10241   5.487   6.381   9.849  0.4625 -0.0158 -0.0014
 6723ION    NA+10242   5.952   9.498   2.779  0.0416 -0.1766 -0.0216
 6724ION    NA+10243   4.415   5.864   2.809 -0.1470 -0.2424  0.1277
 6725ION    NA+10244   9.275   3.176   9.259  0.3791 -0.0126  0.1478
 6726ION    NA+10245   8.889   3.399   2.081  0.2435 -0.1246 -0.0383
 6727ION    NA+10246   9.508   7.027  11.034  0.2209 -0.0595  0.4322
 6728ION    NA+10247   5.039   5.979  10.895  0.0001 -0.0095  0.0253
 6729ION    NA+10248   0.072   5.567   9.703  0.3163 -0.0108  0.1570
 6730ION    NA+10249   2.534   8.820   0.198 -0.1871  0.1814  0.1260
 6731ION    NA+10250   5.804   1.234   8.319 -0.0725 -0.2043 -0.1377
 6732ION    NA+10251   9.714   1.712   2.110  0.0757 -0.0103  0.0992
 6733ION    NA+10252   9.695   6.168  10.782 -0.1442 -0.1960  0.0582
 6734ION    NA+10253   7.890   1.567  11.592  0.0208  0.1744 -0.0332
 6735ION    NA+10254   5.572   2.591   3.469  0.1511  0.0786 -0.1387
 6736ION    NA+10255   3.541   5.254   2.391  0.0030 -0.1118 -0.1839
 6737ION    NA+10256   4.482   8.365   2.408 -0.1026 -0.2119  0.2780
 6738ION    NA+10257   3.646   8.596   8.906 -0.0328 -0.2634 -0.2896
 6739ION    NA+10258   3.278   7.613   8.763 -0.0387 -0.0155 -0.0955
 6740ION    NA+10259   3.606   5.933  10.634 -0.0487  0.0591 -0.1077
 6741ION    NA+10260   5.784   6.368  11.420  0.1654  0.0697  0.1520
 6742ION    NA+10261   3.483   8.264   4.645  0.1882  0.5018 -0.0509
 6743ION    NA+10262   6.014   9.617   0.021  0.2237  0.0085 -0.0094
 6744ION    NA+10263   4.374   4.688  10.430  0.2239  0.1574 -0.1298
 6745ION    NA+10264   8.381   3.301   2.393 -0.2951 -0.3453 -0.0539
 6746ION    NA+10265   8.222   1.642   0.955 -0.0234 -0.0746 -0.0719
 6747ION    NA+10266   1.781   2.686  11.581 -0.1452 -0.1544 -0.1420
 6748ION    NA+10267   6.290   7.680   3.151 -0.1124  0.0429  0.3103
 6749ION    NA+10268   4.030   4.591   2.195 -0.0998  0.1693 -0.1823
 6750ION    NA+10269   7.818   0.700  11.162 -0.1775  0.1731 -0.2774
 6751ION    NA+10270   6.727   5.569   8.007  0.5454 -0.0678  0.2179
 6752ION    NA+10271   2.474   9.838  11.311 -0.4157  0.1138 -0.2843
 6753ION    NA+10272   8.906   7.431  10.581  0.2460  0.0713  0.0963
 6754ION    NA+10273   8.460   2.893   8.421 -0.1349  0.1149 -0.0337
 6755ION    NA+10274   6.063   7.724  11.572 -0.1083  0.3184  0.0550
 6756ION    NA+10275   4.969   4.280  11.434 -0.3902  0.0439  0.0187
 6757ION    NA+10276   4.566   1.994   2.120  0.2221  0.1438  0.3964
 6758ION    NA+10277   5.803   3.010  11.393  0.0170 -0.0791 -0.1846
 6759ION    NA+10278   9.128   6.055   8.799 -0.1526  0.0746  0.1508
 6760ION    NA+10279   6.301   2.448   4.519  0.1958 -0.2528  0.0815
 6761ION    NA+10280   6.348   2.860   0.455  0.0737  0.2429  0.0757
 6762ION    NA+10281   6.809   4.962   9.479 -0.1076 -0.1535 -0.4564
 6763ION    NA+10282   7.268   0.524   2.660 -0.3515 -0.1264 -0.0465
 6764ION    NA+10283   8.927   0.637   1.993  0.4164  0.1327  0.2763
 6765ION    NA+10284   7.263   9.185  11.840  0.1180 -0.2003  0.0562
 6766ION    NA+10285   5.986   3.885   8.286  0.3770  0.0387  0.2815
 6767ION    NA+10286   3.819   5.620   3.738  0.1198 -0.0727 -0.0997
 6768ION    NA+10287   4.115   9.905  10.247 -0.0172 -0.1353 -0.2414
 6769ION    NA+10288   0.840   1.964   8.355  0.1007  0.0177 -0.1504
 6770ION    NA+10289   6.648   8.575  11.394 -0.1273 -0.0377  0.1388
 6771ION    NA+10290   6.261   6.195   8.242  0.2183 -0.2857 -0.2942
 6772ION    NA+10291   7.211   7.111   1.064 -0.0004  0.2286 -0.2657
 6773ION    NA+10292   5.983   7.707   9.603  0.0314  0.1070  0.1725
 6774ION    NA+10293   3.883   9.637   4.882 -0.1112 -0.0710  0.0691
 6775ION    NA+10294   9.264   2.444   2.090 -0.2209  0.0594  0.3176
 6776ION    CL-10295   6.026   4.737   3.301  0.1251 -0.0261  0.1135
 6777ION    CL-10296   7.777   5.587  10.393  0.0978 -0.0149  0.0641
 6778ION    CL-10297   5.782   0.033   2.944 -0.2693  0.0387  0.1889
 6779ION    CL-10298   6.138   9.054   2.956 -0.2951 -0.0501  0.0277
 6780ION    CL-10299   7.078   0.905   2.272  0.0628  0.0898 -0.1177
 6781ION    CL-10300   9.471   6.584  10.791 -0.0277 -0.3534 -0.3171
 6782ION    CL-10301   8.871   7.808  10.886 -0.2173  0.1775 -0.3813
 6783ION    CL-10302   6.199   3.387  11.119  0.0677 -0.0360  0.1077
 6784ION    CL-10303   2.686   8.942   0.714  0.2866  0.0178  0.2519
 6785ION    CL-10304   8.997   2.882   2.247  0.3238  0.0430  0.1967
 6786ION    CL-10305   9.797   2.263   2.078  0.0604 -0.2384 -0.4087
 6787ION    CL-10306   1.480   5.293   1.576  0.0080 -0.1894 -0.3432
 6788ION    CL-10307   4.379   1.650   0.208  0.1075  0.0192 -0.1942
 6789ION    CL-10308   0.378   5.272   3.872  0.0894 -0.0422  0.1387
 6790ION    CL-10309   6.167   8.675  11.768 -0.2926  0.1715 -0.0573
 6791ION    CL-10310   4.832   8.005   3.184  0.0133  0.1397 -0.1852
 6792ION    CL-10311   5.747   7.607   3.293  0.0056 -0.0656  0.1582
 6793ION    CL-10312   2.774   0.274   9.487 -0.0561 -0.2748 -0.1339
 6794ION    CL-10313   6.647   5.969   8.533  0.0039 -0.1343  0.2052
 6795ION    CL-10314   2.054   5.265   9.210  0.0585  0.2519  0.0514
 6796ION    CL-10315   5.945   1.202   8.958 -0.0904  0.1645  0.1077
 6797ION    CL-10316   5.069   4.746  11.650 -0.3038 -0.3088  0.3044
 6798ION    CL-10317   9.211   6.510   9.624  0.1863 -0.2229 -0.1540
 6799ION    CL-10318   3.587   5.624   3.239 -0.2796 -0.0146 -0.2936
 6800ION    CL-10319   8.666   1.829   1.379  0.1103 -0.0262 -0.4456
 6801ION    CL-10320   1.849   8.615   4.287  0.2711 -0.1302  0.3615
 6802ION    CL-10321   8.549   0.876   2.282 -0.0813  0.1267 -0.2620
 6803ION    CL-10322   0.523   8.604   2.203  0.1469 -0.1543  0.0354
 6804ION    CL-10323   6.884   4.802   8.990  0.0896  0.1274  0.1018
 6805ION    CL-10324   6.951   9.086   0.371 -0.4358  0.4560 -0.0698
 6806ION    CL-10325   8.296   4.936   9.341 -0.1814  0.0220  0.2333
 6807ION    CL-10326   7.190   3.175   8.641  0.3266  0.1372  0.0904
 6808ION    CL-10327   5.092   5.743   9.203 -0.1595  0.3125  0.1909
 6809ION    CL-10328   7.593   0.085   2.755  0.0968 -0.1085 -0.1717
 6810ION    CL-10329   3.763   3.594   2.991  0.1479 -0.1182  0.0384
 6811ION    CL-10330   3.552   6.706   9.299  0.1040  0.2432  0.1460
 6812ION    CL-10331   8.451   7.594   9.783 -0.0016  0.2556 -0.1446
 6813ION    CL-10332   6.558   4.731  11.044  0.1123 -0.3568  0.1765
 6814ION    CL-10333   1.269   9.713   9.958 -0.2698  0.0422  0.1681
 6815ION    CL-10334   8.932   8.044   3.598 -0.0009  0.1578  0.3254
 6816ION    CL-10335   7.050   9.390  10.536 -0.4402 -0.1112  0.2153
 6817ION    CL-10336   5.826   9.521  11.497 -0.1934  0.0108  0.1763
 6818ION    CL-10337   7.447   9.589  11.634  0.1598 -0.0370 -0.1966
 6819ION    CL-10338   0.390   3.339   1.648 -0.0153 -0.2598 -0.1316
 6820ION    CL-10339   7.510   3.575  10.906  0.0726 -0.1516 -0.2251
 6821ION    CL-10340   3.976   5.030   2.306 -0.1242  0.0167  0.1424
 6822ION    CL-10341   2.138   7.064   3.964  0.0652  0.2840  0.2251
 6823ION    CL-10342   1.318   2.240   2.830  0.2576  0.0842  0.0231
 6824ION    CL-10343   4.566   5.899   2.350 -0.3321 -0.0505  0.1727
 6825ION    CL-10344   4.092   9.279   1.693  0.1932 -0.0477 -0.1269
 6826ION    CL-10345   0.759   7.240   0.748  0.0666 -0.0777 -0.0035
 6827ION    CL-10346   5.855   5.999   9.882  0.2213  0.1891 -0.1312
 6828ION    CL-10347   8.580   9.899  10.021  0.1629  0.2049 -0.0726
 6829ION    CL-10348   5.067   5.897  10.424  0.1480  0.0897 -0.0152
 6830ION    CL-10349   9.415   6.640   4.353  0.0303 -0.2720  0.2445
 6831ION    CL-10350   5.715   1.900   4.039  0.3054  0.1396  0.1491
 6832ION    CL-10351   4.113   8.731   2.499 -0.2179 -0.0769 -0.0772
 6833ION    CL-10352   8.065   6.504   3.921  0.2511  0.1181  0.1178
 6834ION    CL-10353   6.064   4.873  11.345 -0.1748 -0.1127  0.0532
 6835ION    CL-10354   8.317   3.474   1.879 -0.1691 -0.0394 -0.0270
 6836ION    CL-10355   2.639   2.055   9.300  0.0322 -0.0156  0.0765
 6837ION    CL-10356   6.473   2.755   3.469  0.3129 -0.0395 -0.1472
 6838ION    CL-10357   5.499   0.928   0.211  0.2459  0.0436 -0.0303
 6839ION    CL-10358   4.949   9.577  10.622  0.0914  0.2817  0.2105
 6840ION    CL-10359   0.683   5.367  10.367  0.1770  0.1487 -0.2296
 6841ION    CL-10360   4.362   8.385   4.091  0.1907  0.0144 -0.1683
 6842ION    CL-10361   7.722   1.060  11.608 -0.0572  0.0652 -0.0206
 6843ION    CL-10362   5.061   6.762  11.411  0.0925 -0.0478  0.1612
 6844ION    CL-10363   3.483   9.809   2.894 -0.1060  0.0433 -0.0325
 6845ION    CL-10364   2.665   2.334   0.600  0.0483  0.2479 -0.0145
 6846ION    CL-10365   5.407   5.649   3.795 -0.1365 -0.0050 -0.0667
   9.94242   9.94242  11.95833
