;STANDARD MD INPUT OPTIONS FOR MARTINI 2.1
;
; for use with GROMACS 4
;

; RUN CONTROL PARAMETERS
; MARTINI - Most simulations are stable with dt=40 fs, some (especially rings)
; require 20-30 fs.
; The range of time steps used for parametrization is 20-40 fs, using smaller
; time steps is therefore not recommended.
integrator               = md
; Start time and timestep in ps:
tinit                    = 0.0
dt                       = 0.025
nsteps                   = 400000000
bd-fric                  = 0
ld-seed                  = -1
; Number of steps for center of mass motion removal:
comm-mode                = linear
nstcomm                  = 100
; define                = -DPOSR
; OUTPUT CONTROL OPTIONS
; Output frequency for coords (x), velocities (v) and forces (f):
nstxout                  = 0
nstvout                  = 0
nstfout                  = 0
; Output frequency for energies to log (.log) file and energy (.edr) file:
nstlog                   = 400000
nstenergy                = 4000
; Output frequency and precision for .xtc file:
nstxtcout                = 400000
xtc_precision            = 100

; NEIGHBORSEARCHING PARAMETERS
; MARTINI - No need for more frequent updates or larger neighborlist cut-off
; due to the use of shifted potential energy functions.
; Neighborlist update frequency:
cutoff-scheme            = Verlet
nstlist                  = 20
ns_type                  = grid
pbc                      = xyz
verlet-buffer-tolerance  = 0.005

coulombtype              = cutoff
coulomb-modifier         = Potential-shift-verlet
rcoulomb                 = 1.1
epsilon_r                = 15   ; 2.5 (with polarizable water)
vdw_type                 = cutoff
vdw-modifier             = Potential-shift-verlet
rvdw                     = 1.1

; Apply long range dispersion corrections for Energy and Pressure?
DispCorr                 = No

; OPTIONS FOR WEAK COUPLING ALGORITHMS
; MARTINI -Normal temperature and pressure coupling schemes can be used. It
; is recommended to couple individual groups in your system seperately.
; Temperature coupling:
tcoupl                   = v-rescale
nsttcouple               = 1
; Groups to couple separately:

refcoord-scaling         = all
tc-grps                  = AU POPC W ION
; Time constant (ps) and reference temperature (K):
tau_t                    = 1 1 1 1
ref_t                    = 313 313 313 313 
; Pressure coupling:

Pcoupl                   = berendsen
Pcoupltype               = semiisotropic
; Time constant (ps), compressibility (1/bar) and reference P (bar):
tau_p                    = 3.0 
compressibility          = 3e-5 3e-5
ref_p                    = 1.0 1.0

;HEATING OPTIONS
;annealing                = no single
;annealing-npoints        = 0 5
;annealing-time           = 0 2000 4000 6000 8000
;annealing-temp           = 370 427 484 541 600

; GENERATE VELOCITIES FOR STARTUP RUN:
gen_vel                  = yes
;continuation          	 = yes
gen_temp                 = 313
gen_seed                 = -1

; OPTIONS FOR BONDS
; MARTINI - For ring systems constraints are defined which are best handled
; using Lincs.
constraints              = none
; Type of constraint algorithm:
constraint_algorithm     = Lincs
; Do not constrain the start configuration:
unconstrained_start      = no
; Highest order in the expansion of the constraint coupling matrix:
lincs_order              = 4
; Lincs will write a warning to the stderr if in one step a bond rotates over
; more degrees than:
lincs_warnangle          = 30
