Protein in INSANE! Membrane UpperLeaflet>POPC=1.0 LowerLeaflet>POPC=1.0
11530
    1AU     AUC    1   0.997   9.547   5.641  0.0048 -0.1167 -0.0109
    1AU     AUC    2   1.312   9.694   5.667  0.0266 -0.0000  0.1322
    1AU     AUC    3   1.074   9.707   5.913  0.0986  0.0476 -0.0661
    1AU     AUC    4   0.904   9.346   5.362 -0.1224  0.0819 -0.0783
    1AU     AUC    5   0.713   9.396   5.658  0.0414 -0.0387  0.0015
    1AU     AUC    6   0.804   9.657   5.475  0.0254  0.0034 -0.0552
    1AU     AUC    7   1.025   9.837   5.613  0.0506 -0.0734  0.0787
    1AU     AUC    8   0.985   9.207   5.679 -0.0718 -0.0527 -0.0221
    1AU     AUC    9   1.229   9.406   5.848 -0.0272 -0.1090 -0.0650
    1AU     AUC   10   0.898   9.409   5.933  0.0196 -0.0349  0.0986
    1AU     AUC   11   0.772   9.697   5.787 -0.0310 -0.0000 -0.0404
    1AU     AUC   12   1.226   9.377   5.484 -0.0438 -0.0048 -0.0782
    1AU     AUC   13   1.142   9.664   5.380  0.0286 -0.0738  0.0309
    1AU     AUC   14   1.621   9.840   5.704 -0.0140  0.0354 -0.0247
    1AU     AUC   15   1.449   9.885   5.965  0.1147  0.0238  0.0331
    1AU     AUC   16   1.154   9.873   6.213  0.1243 -0.0250  0.0441
    1AU     AUC   17   0.798   9.166   5.110 -0.0611  0.0160 -0.0194
    1AU     AUC   18   0.550   9.198   5.379  0.0089  0.0478 -0.0982
    1AU     AUC   19   0.383   9.250   5.670 -0.0041  0.0328  0.0130
    1AU     AUC   20   0.567   9.855   5.251  0.0282 -0.0486  0.0790
    1AU     AUC   21   0.823  10.059   5.379 -0.0155 -0.0916  0.0329
    1AU     AUC   22   1.028  10.169   5.555 -0.0470  0.0665 -0.0228
    1AU     AUC   23   0.978   8.834   5.665 -0.0090  0.0083  0.0335
    1AU     AUC   24   1.257   9.028   5.825 -0.1188 -0.0554 -0.0521
    1AU     AUC   25   1.459   9.265   6.024 -0.0912  0.0775 -0.0890
    1AU     AUC   26   0.795   9.238   6.236  0.1306  0.0258  0.0176
    1AU     AUC   27   0.617   9.533   6.105 -0.0041 -0.1413  0.0915
    1AU     AUC   28   0.517   9.858   5.946 -0.0017 -0.0350 -0.0036
    1AU     AUC   29   1.484   9.208   5.313 -0.0139 -0.0744  0.0813
    1AU     AUC   30   1.404   9.508   5.192 -0.0353  0.0099  0.0390
    1AU     AUC   31   1.290   9.797   5.085 -0.0519 -0.0464  0.0460
    1AU     AUC   32   0.975   9.533   6.265  0.0223 -0.0485 -0.0043
    1AU     AUC   33   0.798   9.845   6.124  0.1016 -0.0208 -0.0396
    1AU     AUC   34   1.585   9.496   5.506  0.0658  0.0485  0.0905
    1AU     AUC   35   1.523   9.823   5.366 -0.0535 -0.0342 -0.0789
    1AU     AUC   36   0.583   9.216   5.974  0.0002  0.0230  0.0608
    1AU     AUC   37   0.418   9.579   5.761  0.0058 -0.0073 -0.0418
    1AU     AUC   38   1.130   9.187   5.214  0.0136  0.0432  0.0001
    1AU     AUC   39   1.028   9.506   5.067 -0.0682  0.1127  0.0310
    1AU     AUC   40   1.345  10.046   5.680  0.0226 -0.1419 -0.0104
    1AU     AUC   41   1.104  10.024   5.917 -0.0132 -0.0175  0.1221
    1AU     AUC   42   0.676   9.498   5.151  0.0239 -0.0660 -0.0036
    1AU     AUC   43   0.453   9.561   5.453 -0.0152  0.0523 -0.1084
    1AU     AUC   44   1.556   9.538   5.873  0.0079  0.0010 -0.0545
    1AU     AUC   45   1.367   9.556   6.128 -0.0409  0.0138  0.0012
    1AU     AUC   46   0.838   9.010   5.403 -0.0761  0.0078  0.0153
    1AU     AUC   47   0.684   9.012   5.709  0.0696  0.0214  0.0324
    1AU     AUC   48   0.522   9.886   5.559 -0.0285 -0.0360  0.0261
    1AU     AUC   49   0.745  10.040   5.747 -0.0595 -0.0399  0.1038
    1AU     AUC   50   0.915   9.024   5.964  0.0101 -0.1055  0.0172
    1AU     AUC   51   1.164   9.232   6.148 -0.0002 -0.0064 -0.0681
    1AU     AUC   52   0.928   9.805   5.125  0.0818  0.0594 -0.0072
    1AU     AUC   53   1.226  10.001   5.325 -0.0449 -0.0057 -0.0193
    1AU     AUC   54   1.206   8.970   5.459 -0.0810  0.0447  0.0615
    1AU     AUC   55   1.496   9.200   5.649 -0.0976 -0.0085  0.0452
    1AU    AUSL   56   0.945   9.793   6.525  0.0135  0.0380 -0.1090
    1AU    AUSL   57   1.071   9.329   6.582 -0.0405 -0.0129  0.1270
    1AU     AUL   58   1.149   9.615   6.781 -0.0455  0.0232 -0.0027
    1AU       S   59   1.359   9.211   6.889  0.0585  0.0466  0.2003
    1AU     LIG   60   1.305   8.911   7.188  0.0038  0.0051  0.1930
    1AU     LIG   61   1.263   8.540   7.318 -0.0532 -0.3794  0.0493
    1AU       S   62   0.664   9.631   6.816 -0.0759  0.3308 -0.3087
    1AU     LIG   63   0.337   9.914   7.005  0.2203 -0.1280  0.1556
    1AU     LIG   64   0.486  10.247   7.279 -0.2434 -0.2635  0.1237
    1AU    AUSL   65   0.704   9.433   6.382 -0.0614 -0.0497 -0.0521
    1AU    AUSL   66   0.389   9.615   6.052 -0.0960  0.0721  0.0079
    1AU     AUL   67   0.271   9.580   6.533 -0.0209  0.0208 -0.0495
    1AU       S   68   0.652   9.372   6.692 -0.2221 -0.4466  0.1387
    1AU     LIG   69   0.793   8.953   6.753 -0.0948 -0.1754 -0.1075
    1AU     LIG   70   1.110   8.576   6.874 -0.5184  0.0165  0.2924
    1AU       S   71  -0.340   9.257   6.118 -0.1083 -0.4236 -0.1878
    1AU     LIG   72  -0.663   9.347   6.284  0.2154 -0.3173 -0.4535
    1AU     LIG   73  -1.041   9.425   6.201  0.3241  0.0474  0.3078
    1AU    AUSL   74   0.554   9.856   6.354  0.0673 -0.0324  0.0683
    1AU    AUSL   75   0.877  10.182   6.310  0.1445 -0.0364 -0.0161
    1AU     AUL   76   0.735  10.076   6.644 -0.0462  0.0187 -0.0132
    1AU       S   77   0.230  10.036   6.497 -0.2007  0.2875 -0.1014
    1AU     LIG   78   0.308  10.378   6.824  0.4761  0.1448  0.0406
    1AU     LIG   79   0.496  10.684   6.915  0.0835  0.1715  0.4056
    1AU       S   80   0.745  10.474   6.384  0.4622 -0.1383  0.0852
    1AU     LIG   81   1.040  10.867   6.507  0.0538  0.2416  0.1098
    1AU     LIG   82   1.047  11.262   6.536  0.1669 -0.1928  0.2727
    1AU    AUSL   83   1.842   9.778   5.365  0.0558  0.1181  0.0367
    1AU    AUSL   84   1.603  10.126   5.165 -0.0698  0.1178  0.0638
    1AU     AUL   85   2.004  10.028   5.094  0.1245 -0.0613 -0.0272
    1AU       S   86   2.078   9.578   5.045  0.2694 -0.2785  0.1154
    1AU     LIG   87   2.490   9.429   5.330 -0.2093  0.0505  0.0559
    1AU     LIG   88   2.757   9.241   5.679 -0.1149  0.0306 -0.1481
    1AU       S   89   1.842  10.431   5.246 -0.1272 -0.2300  0.2114
    1AU     LIG   90   1.726  10.649   4.915  0.1161 -0.1746 -0.0419
    1AU     LIG   91   1.518  10.806   4.486  0.0719 -0.0777  0.1195
    1AU    AUSL   92   1.700   9.385   5.244 -0.0034  0.0119 -0.0358
    1AU    AUSL   93   1.750   9.542   5.705  0.0898  0.0530  0.0086
    1AU     AUL   94   2.069   9.568   5.473  0.1054  0.0325 -0.0447
    1AU       S   95   2.280   9.000   5.865 -0.2360 -0.0687 -0.1486
    1AU     LIG   96   2.468   8.680   6.029  0.1842 -0.0451 -0.0237
    1AU     LIG   97   2.368   8.235   6.085  0.2988  0.0841 -0.2339
    1AU       S   98   2.044   9.272   5.079 -0.0480  0.0110 -0.4960
    1AU     LIG   99   1.917   8.901   4.924 -0.3121 -0.1450  0.0743
    1AU     LIG  100   1.667   8.508   4.866  0.1752 -0.0509  0.1773
    1AU    AUSL  101   1.624   9.743   4.981  0.0143 -0.0085 -0.0373
    1AU    AUSL  102   1.498   9.151   4.926 -0.0902 -0.0778  0.0595
    1AU     AUL  103   1.684   9.426   4.831 -0.0495  0.0026 -0.0728
    1AU       S  104   1.513   9.038   4.562  0.1966 -0.0503  0.0362
    1AU     LIG  105   1.683   9.437   4.319  0.2610  0.1572 -0.0431
    1AU     LIG  106   2.205   9.642   4.166  0.0108 -0.2171  0.0602
    1AU       S  107   2.161   9.490   4.974 -0.0472 -0.1469  0.0385
    1AU     LIG  108   2.447   9.188   4.827  0.0394 -0.1880 -0.0803
    1AU     LIG  109   2.788   9.129   4.730 -0.2576 -0.0658  0.0026
    1AU    AUSL  110   0.155   9.310   5.883  0.0548  0.0386 -0.0065
    1AU    AUSL  111   0.190   9.892   5.823 -0.0212 -0.0474  0.1178
    1AU     AUL  112   0.040   9.677   6.067  0.0470 -0.0029  0.0266
    1AU       S  113  -0.175   9.300   5.989 -0.0390  0.2642 -0.1455
    1AU     LIG  114  -0.610   9.122   5.796  0.0614 -0.1734  0.1509
    1AU     LIG  115  -0.920   9.275   5.468 -0.1411  0.0569  0.0406
    1AU       S  116  -0.141   9.897   5.646 -0.1803 -0.2791 -0.1438
    1AU     LIG  117  -0.283  10.112   5.974  0.1586 -0.1305  0.1676
    1AU     LIG  118  -0.741  10.266   6.282  0.2910 -0.2008 -0.0259
    1AU    AUSL  119   0.340   9.246   6.270 -0.0156 -0.0218 -0.0127
    1AU    AUSL  120   0.497   9.045   5.906 -0.0552 -0.1704  0.0317
    1AU     AUL  121   0.183   8.995   6.057 -0.0070  0.0473  0.0132
    1AU       S  122   0.317   8.618   6.324  0.1963 -0.1475  0.2364
    1AU     LIG  123  -0.131   8.691   6.313  0.1931  0.0218 -0.2717
    1AU     LIG  124  -0.555   8.664   6.300  0.1138  0.3308 -0.4177
    1AU       S  125  -0.078   9.306   6.316 -0.0476  0.0613  0.2626
    1AU     LIG  126  -0.011   9.169   6.633  0.2131  0.0821 -0.2656
    1AU     LIG  127   0.251   8.899   6.754 -0.2504 -0.4486  0.2589
    1AU    AUSL  128   1.067   9.118   4.848  0.0893 -0.0533 -0.0043
    1AU    AUSL  129   1.253   9.020   5.245 -0.0604  0.1473  0.0354
    1AU     AUL  130   1.343   8.859   4.935  0.0535 -0.0005  0.0242
    1AU       S  131   1.067   8.966   4.581 -0.0138 -0.1324 -0.2441
    1AU     LIG  132   0.745   8.621   4.428 -0.2132 -0.0545 -0.1344
    1AU     LIG  133   0.208   8.582   4.235 -0.1430  0.0100  0.1065
    1AU       S  134   1.025   8.484   4.863 -0.0110  0.0115  0.0446
    1AU     LIG  135   1.287   8.424   4.579  0.1295  0.2173 -0.0880
    1AU     LIG  136   1.515   8.606   4.279  0.2463 -0.0506 -0.1746
    1AU    AUSL  137   1.261   9.522   4.962  0.0956  0.0574  0.1151
    1AU    AUSL  138   0.803   9.446   4.845 -0.0006 -0.0465 -0.0476
    1AU     AUL  139   1.195   9.383   4.652  0.0254  0.0285  0.1309
    1AU       S  140   0.787   9.385   4.443 -0.0019  0.1524  0.0822
    1AU     LIG  141   0.803   9.172   4.201 -0.0921  0.2524  0.0084
    1AU     LIG  142   0.542   8.878   3.976 -0.1393 -0.3603 -0.0334
    1AU       S  143   1.238   8.944   4.432  0.2375  0.0630  0.0724
    1AU     LIG  144   1.431   9.050   4.041 -0.2735 -0.5194 -0.0513
    1AU     LIG  145   1.500   9.336   3.754 -0.1089  0.2024  0.0162
    1AU    AUSL  146   1.246  10.405   5.819 -0.0330  0.0105  0.0091
    1AU    AUSL  147   1.689  10.126   5.575  0.0262  0.0712 -0.0043
    1AU     AUL  148   1.523  10.516   5.650  0.1035 -0.0487 -0.1166
    1AU       S  149   1.902  10.255   5.555  0.2259  0.4626  0.1411
    1AU     LIG  150   2.324  10.011   5.586 -0.2373 -0.2133 -0.3319
    1AU     LIG  151   2.814  10.211   5.708  0.1746 -0.3776 -0.3509
    1AU       S  152   1.450  10.577   6.361  0.0660 -0.0636 -0.0536
    1AU     LIG  153   1.681  11.013   6.337 -0.3429  0.1064  0.2052
    1AU     LIG  154   2.095  10.997   6.221 -0.0525 -0.1809  0.1204
    1AU    AUSL  155   1.601  10.206   5.968 -0.0526  0.0357 -0.0460
    1AU    AUSL  156   1.579   9.916   6.302  0.0017  0.0695  0.0273
    1AU     AUL  157   1.771  10.207   6.339 -0.0955 -0.0503  0.0517
    1AU       S  158   1.564  10.544   6.140 -0.0266 -0.1018  0.2212
    1AU     LIG  159   1.366  10.884   5.927 -0.2150 -0.2474 -0.0422
    1AU     LIG  160   1.587  11.225   5.709  0.1757 -0.1196 -0.1449
    1AU       S  161   2.028   9.800   6.395  0.1157  0.0952 -0.2036
    1AU     LIG  162   1.904  10.029   6.770 -0.2354 -0.0551 -0.1100
    1AU     LIG  163   1.702  10.461   6.860  0.3215 -0.0745  0.2797
    1AU    AUSL  164   1.237  10.092   6.123 -0.0130 -0.0429  0.0313
    1AU    AUSL  165   0.883  10.186   5.870  0.0788 -0.0372  0.0272
    1AU     AUL  166   1.046  10.485   6.067  0.0135  0.0719  0.0506
    1AU       S  167   0.578  10.743   6.293  0.1023  0.1044 -0.0900
    1AU     LIG  168   0.829  10.987   6.023 -0.1317  0.1354 -0.4199
    1AU     LIG  169   1.033  11.237   5.710  0.1584  0.0137 -0.1905
    1AU       S  170   1.331  10.333   6.422 -0.4403 -0.0653 -0.0814
    1AU     LIG  171   1.306  10.091   6.747 -0.3677  0.1854 -0.3414
    1AU     LIG  172   0.978  10.008   7.096 -0.0400 -0.0803 -0.2498
    1AU    AUSL  173   0.378   9.593   5.134  0.0387  0.0158 -0.0184
    1AU    AUSL  174   0.147   9.545   5.548 -0.0233 -0.0796 -0.0693
    1AU     AUL  175   0.002   9.548   5.191 -0.0038  0.0124  0.0212
    1AU       S  176  -0.172   9.624   5.609 -0.2221  0.0949  0.0626
    1AU     LIG  177  -0.573   9.640   5.852  0.3452 -0.0932  0.1255
    1AU     LIG  178  -1.082   9.655   5.743  0.1940 -0.3775 -0.2127
    1AU       S  179   0.147   9.867   4.878  0.3295 -0.0011 -0.4319
    1AU     LIG  180  -0.142  10.148   4.809 -0.1156  0.3142 -0.2553
    1AU     LIG  181  -0.483  10.498   4.855 -0.1160  0.0698 -0.0188
    1AU    AUSL  182   0.507   9.185   4.977  0.0341 -0.0048 -0.0060
    1AU    AUSL  183   0.594   9.829   4.858  0.0607 -0.0030  0.0352
    1AU     AUL  184   0.401   9.468   4.791  0.0389 -0.0842  0.1121
    1AU       S  185   0.548   9.018   4.742  0.1570  0.1656 -0.1416
    1AU     LIG  186   0.316   9.197   4.423  0.2163  0.0665  0.1364
    1AU     LIG  187   0.308   9.522   4.109  0.1743 -0.2563  0.0558
    1AU       S  188   0.576   9.852   4.508 -0.1582 -0.1627 -0.3292
    1AU     LIG  189   0.529   9.995   4.160 -0.5560  0.1767 -0.3459
    1AU     LIG  190   0.735   9.892   3.905  0.1762 -0.0829  0.2285
    1AU    AUSL  191   0.348   9.230   5.384 -0.0643 -0.0835  0.0745
    1AU    AUSL  192   0.448   8.841   5.216  0.2003  0.0368  0.0197
    1AU     AUL  193   0.186   9.070   5.053 -0.0295  0.0448 -0.0915
    1AU       S  194   0.154   8.611   5.207  0.0126  0.0344 -0.5034
    1AU     LIG  195   0.296   8.225   5.594  0.5544 -0.2674  0.2427
    1AU     LIG  196   0.191   7.836   5.622  0.2545 -0.1536 -0.1132
    1AU       S  197  -0.092   9.141   5.459 -0.1185  0.0138 -0.0287
    1AU     LIG  198  -0.448   9.394   5.313  0.1031  0.4679  0.0050
    1AU     LIG  199  -0.664   9.799   5.351  0.1218 -0.1826 -0.2487
    1AU    AUSL  200   1.670   9.528   6.163 -0.0065  0.0148 -0.0704
    1AU    AUSL  201   1.262   9.629   6.310  0.0006 -0.0665 -0.0041
    1AU     AUL  202   1.582   9.702   6.552 -0.0990  0.0669 -0.0216
    1AU       S  203   1.926   9.495   6.362  0.0212 -0.4876 -0.1419
    1AU     LIG  204   2.028   9.516   6.789 -0.0902 -0.1153 -0.1930
    1AU     LIG  205   2.071   9.662   7.200 -0.5311  0.1904 -0.2463
    1AU       S  206   1.644   9.099   6.876  0.4075  0.2827  0.3410
    1AU     LIG  207   2.017   8.920   6.973  0.0364  0.2727  0.1773
    1AU     LIG  208   2.385   8.673   6.979  0.0774 -0.3148 -0.1165
    1AU    AUSL  209   1.863   9.867   5.958  0.0550 -0.0687  0.0173
    1AU    AUSL  210   1.818   9.181   5.990  0.0004 -0.0443 -0.0150
    1AU     AUL  211   2.010   9.480   5.909 -0.0196 -0.0637 -0.0538
    1AU       S  212   2.073   9.903   6.187  0.2687 -0.0557  0.0994
    1AU     LIG  213   2.115  10.274   5.927 -0.1370 -0.1078 -0.0308
    1AU     LIG  214   1.918  10.753   5.856  0.0392 -0.1332  0.0895
    1AU       S  215   2.121   9.059   6.045 -0.2846  0.6281  0.0772
    1AU     LIG  216   2.402   9.129   6.370 -0.0948  0.0148  0.2556
    1AU     LIG  217   2.391   9.160   6.791  0.0374  0.3048  0.0994
    1AU    AUSL  218   0.713   8.830   5.573  0.2150  0.0065  0.0048
    1AU    AUSL  219   0.842   8.914   5.135  0.0398  0.0083  0.1255
    1AU     AUL  220   0.625   8.594   5.350  0.0402  0.0433  0.0758
    1AU       S  221   0.907   8.679   4.983  0.2120  0.1832 -0.4768
    1AU     LIG  222   0.485   8.531   4.846  0.3992 -0.0869 -0.0293
    1AU     LIG  223   0.150   8.647   4.727 -0.0245  0.2396  0.1346
    1AU       S  224  -0.074   8.628   5.225 -0.0581  0.1510  0.1972
    1AU     LIG  225  -0.449   8.388   5.329  0.1585  0.3335 -0.0081
    1AU     LIG  226  -0.502   7.959   5.597 -0.0169  0.3694  0.1609
    1AU    AUSL  227   0.268   8.864   5.603  0.0739 -0.1188 -0.0639
    1AU    AUSL  228   0.678   8.658   5.963  0.0285  0.0005  0.0464
    1AU     AUL  229   0.412   8.639   5.798 -0.0497 -0.0106  0.1218
    1AU       S  230   0.561   8.426   6.210  0.2128 -0.0834  0.0783
    1AU     LIG  231   0.469   8.046   6.008  0.1415  0.0258 -0.1718
    1AU     LIG  232   0.545   7.616   6.064  0.0209  0.0009 -0.0528
    1AU       S  233   0.031   8.644   5.424 -0.2479 -0.1030  0.2429
    1AU     LIG  234  -0.200   8.742   5.828 -0.3313 -0.4539 -0.1296
    1AU     LIG  235  -0.609   8.605   5.822 -0.0636  0.1607 -0.0500
    1AU    AUSL  236   0.470  10.170   5.665 -0.0076  0.0091  0.0188
    1AU    AUSL  237   0.239   9.925   5.373 -0.1122  0.0540 -0.0180
    1AU     AUL  238   0.170  10.235   5.678 -0.0837 -0.0075 -0.0136
    1AU       S  239  -0.029   9.998   5.331  0.2572  0.1342 -0.1623
    1AU     LIG  240  -0.466  10.279   5.388  0.1925  0.2588  0.1425
    1AU     LIG  241  -0.677  10.633   5.505 -0.4000 -0.0286  0.0861
    1AU       S  242   0.388  10.703   5.558 -0.0727  0.4942 -0.2013
    1AU     LIG  243  -0.013  10.980   5.479  0.2356 -0.4164  0.2003
    1AU     LIG  244  -0.410  11.065   5.508 -0.0296  0.3058  0.1067
    1AU    AUSL  245   0.501  10.226   5.247 -0.0197  0.1070  0.0026
    1AU    AUSL  246   1.001  10.381   5.183 -0.0455 -0.0669 -0.0001
    1AU     AUL  247   0.688  10.544   5.064  0.1600  0.0476 -0.1135
    1AU       S  248   0.539  10.859   5.566  0.2718  0.1439 -0.3119
    1AU     LIG  249   0.308  11.027   5.906 -0.1399  0.0227  0.3460
    1AU     LIG  250  -0.063  11.033   6.094 -0.1734 -0.2475  0.3284
    1AU       S  251   1.192  10.537   4.812  0.0684 -0.1965  0.2441
    1AU     LIG  252   1.100  10.827   4.988 -0.3980  0.1270  0.0978
    1AU     LIG  253   0.762  11.042   5.208 -0.5216  0.1531  0.1867
    1AU    AUSL  254   0.801  10.435   5.554  0.1527 -0.0817  0.0266
    1AU    AUSL  255   0.494  10.152   6.084 -0.0321  0.0045  0.0777
    1AU     AUL  256   0.592  10.453   5.908  0.0429 -0.0208  0.0005
    1AU       S  257   0.461  10.417   6.369  0.2829 -0.0396  0.1622
    1AU     LIG  258   0.118  10.501   6.093  0.0297 -0.2040  0.1199
    1AU     LIG  259  -0.127  10.612   5.762 -0.1312 -0.0741  0.3367
    1AU       S  260   0.714  10.684   5.555 -0.1263 -0.3557 -0.2584
    1AU     LIG  261   1.179  10.832   5.499 -0.1908 -0.1041 -0.3929
    1AU     LIG  262   1.614  10.850   5.334  0.1088  0.0632  0.0907
    1AU    AUSL  263   1.073   9.047   6.241 -0.0034 -0.0705  0.0285
    1AU    AUSL  264   1.443   9.234   6.360 -0.0549 -0.0002  0.0497
    1AU     AUL  265   1.213   8.970   6.539 -0.0841  0.0148 -0.0749
    1AU       S  266   1.187   8.198   5.697 -0.1927  0.0932  0.1235
    1AU     LIG  267   1.341   7.772   5.958 -0.2707  0.1482  0.4128
    1AU     LIG  268   1.610   7.400   5.911  0.0033 -0.1931 -0.1558
    1AU       S  269   1.545   9.275   6.631  0.0464 -0.1362  0.0386
    1AU     LIG  270   1.906   8.978   6.471 -0.1478  0.1995 -0.2010
    1AU     LIG  271   1.904   8.629   6.177 -0.2096  0.0324  0.2491
    1AU    AUSL  272   1.070   8.788   5.899 -0.0260 -0.0377  0.0580
    1AU    AUSL  273   0.666   8.960   6.282 -0.0107  0.0357 -0.1210
    1AU     AUL  274   0.928   8.694   6.268  0.0550 -0.0626  0.0270
    1AU       S  275   1.007   8.383   5.823  0.2070  0.1990  0.1448
    1AU     LIG  276   1.031   8.181   6.124  0.0028 -0.2651 -0.2310
    1AU     LIG  277   1.173   8.182   6.460 -0.0090 -0.0802  0.1575
    1AU       S  278   0.308   8.393   6.358 -0.0087 -0.0266  0.0077
    1AU     LIG  279  -0.016   8.231   6.113 -0.0466  0.1133  0.1277
    1AU     LIG  280  -0.184   8.263   5.724  0.0683 -0.0722  0.1559
    1AU    AUSL  281   1.478   8.887   6.116  0.0332 -0.0516 -0.0405
    1AU    AUSL  282   1.394   8.650   5.679  0.0233 -0.0425 -0.0753
    1AU     AUL  283   1.362   8.589   6.037 -0.0176  0.0162 -0.1261
    1AU       S  284   1.658   8.432   5.733 -0.3110 -0.1784  0.0594
    1AU     LIG  285   2.107   8.441   5.760 -0.1934 -0.4479  0.3137
    1AU     LIG  286   2.480   8.444   5.555  0.0799  0.2656  0.3133
    1AU       S  287   0.867   8.309   5.681 -0.3749 -0.1691  0.0314
    1AU     LIG  288   0.889   7.854   5.778 -0.0044  0.5373 -0.1883
    1AU     LIG  289   1.129   7.465   5.667 -0.2024 -0.3674  0.2813
    1AU    AUSL  290   1.215  10.035   5.031 -0.0101  0.0669 -0.0017
    1AU    AUSL  291   1.269  10.175   5.469 -0.0941  0.0442  0.0227
    1AU     AUL  292   1.375  10.436   5.208 -0.0570  0.0477 -0.1353
    1AU       S  293   1.276  10.209   4.764 -0.5530 -0.0317  0.0090
    1AU     LIG  294   1.478   9.881   4.522  0.2949  0.2887 -0.3037
    1AU     LIG  295   1.931   9.750   4.575  0.1668 -0.1226  0.1177
    1AU       S  296   2.066  10.470   5.444  0.0340  0.0269  0.5114
    1AU     LIG  297   2.133  10.896   5.212 -0.0146  0.0718  0.1947
    1AU     LIG  298   2.115  11.026   4.803 -0.2670 -0.1286  0.0451
    1AU    AUSL  299   0.819   9.968   5.157 -0.0055  0.0717 -0.0005
    1AU    AUSL  300   1.030   9.802   4.728  0.0137  0.0436 -0.1101
    1AU     AUL  301   0.844  10.126   4.808 -0.0429  0.0940  0.0071
    1AU       S  302   1.442  10.330   4.708 -0.1063  0.1378  0.0057
    1AU     LIG  303   1.816  10.263   4.574 -0.1894  0.0927  0.0943
    1AU     LIG  304   2.012  10.549   4.531  0.2000  0.0391  0.0123
    1AU       S  305   0.909   9.781   4.476  0.0353  0.3522 -0.1563
    1AU     LIG  306   1.038  10.112   4.317 -0.2283 -0.2822 -0.0391
    1AU     LIG  307   1.391  10.394   4.218 -0.1712 -0.1022  0.4117
    1AU    AUSL  308   1.635   8.887   5.358 -0.0030  0.0157 -0.0254
    1AU    AUSL  309   1.058   8.656   5.415  0.0006  0.0246  0.1176
    1AU     AUL  310   1.459   8.599   5.323  0.1218 -0.0166  0.0624
    1AU       S  311   1.037   8.466   5.127  0.1804 -0.2266 -0.2017
    1AU     LIG  312   1.224   8.139   5.173 -0.0225  0.0090  0.1012
    1AU     LIG  313   1.392   7.773   5.425 -0.0746 -0.0470  0.1653
    1AU       S  314   1.704   8.166   5.681  0.2244  0.2054 -0.2465
    1AU     LIG  315   1.945   7.686   5.586 -0.0591  0.0551  0.1206
    1AU     LIG  316   2.000   7.329   5.381  0.0619  0.1194  0.1324
    1AU    AUSL  317   1.495   9.071   5.752 -0.0293  0.0446 -0.0170
    1AU    AUSL  318   1.885   9.161   5.552  0.0111 -0.0340  0.0121
    1AU     AUL  319   1.807   8.863   5.746 -0.0287 -0.0226 -0.0868
    1AU       S  320   1.658   8.193   5.452 -0.1970 -0.0659  0.0220
    1AU     LIG  321   1.745   8.006   5.117 -0.0819 -0.0500 -0.0034
    1AU     LIG  322   1.558   7.992   4.728  0.0796 -0.1474 -0.1141
    1AU       S  323   2.187   9.149   5.653  0.0602  0.2908  0.1014
    1AU     LIG  324   2.387   8.970   5.390  0.0879  0.2808  0.1634
    1AU     LIG  325   2.789   8.827   5.327  0.2420 -0.3555  0.2967
    2POPC   NC3  326  10.608   6.065   8.250  0.0760  0.0465 -0.0018
    2POPC   PO4  327  10.253   6.207   8.022 -0.1045 -0.0957  0.2145
    2POPC   GL1  328  10.024   6.212   7.696 -0.2129 -0.3086  0.2821
    2POPC   GL2  329  10.040   5.931   7.477 -0.1871  0.1663 -0.0569
    2POPC   C1A  330   9.934   6.447   7.269  0.2583 -0.3877 -0.0346
    2POPC   D2A  331   9.552   6.349   6.983  0.0787  0.4079 -0.5352
    2POPC   C3A  332   9.492   6.490   6.507 -0.0775 -0.3756  0.3052
    2POPC   C4A  333   9.347   6.659   6.152  0.1055 -0.0380 -0.2099
    2POPC   C1B  334  10.134   6.033   7.092  0.0849 -0.2420 -0.2557
    2POPC   C2B  335  10.390   6.163   6.732 -0.0136  0.2089  0.0421
    2POPC   C3B  336  10.483   6.355   6.352  0.1878  0.0757 -0.2677
    2POPC   C4B  337  10.602   6.508   6.000 -0.0458 -0.5661 -0.5219
    3POPC   NC3  338   6.882   7.155   8.794  0.1829 -0.0381  0.1848
    3POPC   PO4  339   6.849   7.333   8.373 -0.0598 -0.0293  0.2517
    3POPC   GL1  340   6.775   7.347   7.920 -0.1053 -0.0721  0.4122
    3POPC   GL2  341   6.658   7.098   7.824 -0.0747  0.2014 -0.1229
    3POPC   C1A  342   6.998   7.329   7.475  0.1575 -0.2262  0.0497
    3POPC   D2A  343   7.322   7.170   7.135  0.1793 -0.1136  0.0678
    3POPC   C3A  344   7.176   7.407   6.717 -0.1818 -0.0398 -0.1165
    3POPC   C4A  345   6.915   7.811   6.809 -0.1069 -0.3369 -0.0368
    3POPC   C1B  346   6.400   7.313   7.490  0.2845 -0.2436  0.0166
    3POPC   C2B  347   6.202   7.698   7.186 -0.0346 -0.2015 -0.1520
    3POPC   C3B  348   5.998   8.156   7.133  0.0200  0.0672  0.0496
    3POPC   C4B  349   6.337   8.567   6.955 -0.1207  0.1704  0.1138
    4POPC   NC3  350   3.286   0.857   7.838  0.1026 -0.0247  0.1677
    4POPC   PO4  351   3.273   0.380   7.858  0.1962 -0.0740  0.1480
    4POPC   GL1  352   3.466  -0.015   7.564  0.0549 -0.0942 -0.3891
    4POPC   GL2  353   3.594   0.141   7.190 -0.0140 -0.1559  0.0024
    4POPC   C1A  354   3.111  -0.050   7.112  0.1380  0.2422 -0.0562
    4POPC   D2A  355   2.913   0.310   6.888 -0.2621 -0.1377 -0.2045
    4POPC   C3A  356   2.940   0.274   6.451  0.1878 -0.0928  0.2233
    4POPC   C4A  357   2.989   0.018   6.110 -0.0690 -0.2947  0.5295
    4POPC   C1B  358   3.428   0.218   6.773 -0.0132  0.0052  0.0801
    4POPC   C2B  359   3.416   0.298   6.264  0.2030  0.1427  0.1356
    4POPC   C3B  360   3.180   0.548   5.948 -0.0256 -0.0739  0.1397
    4POPC   C4B  361   3.280   0.625   5.490  0.1688 -0.2133 -0.2213
    5POPC   NC3  362   5.877   2.903   7.819  0.5356  0.1317  0.0423
    5POPC   PO4  363   5.891   2.396   7.784  0.0028 -0.0792 -0.0190
    5POPC   GL1  364   5.944   2.390   7.430  0.0593  0.1123  0.3971
    5POPC   GL2  365   6.272   2.307   7.294  0.1633 -0.0207 -0.0473
    5POPC   C1A  366   6.002   2.508   6.946 -0.1761 -0.0396  0.3731
    5POPC   D2A  367   5.940   2.574   6.569  0.0924  0.1822 -0.0033
    5POPC   C3A  368   5.820   2.311   6.209  0.2781  0.4100 -0.2220
    5POPC   C4A  369   5.950   2.105   5.941 -0.0148 -0.0992 -0.0467
    5POPC   C1B  370   6.627   2.291   7.170  0.2827  0.4003 -0.1360
    5POPC   C2B  371   6.973   2.496   6.956 -0.0209 -0.0522 -0.4103
    5POPC   C3B  372   7.047   2.447   6.572  0.1315  0.0619  0.0791
    5POPC   C4B  373   6.903   2.573   6.188 -0.2498 -0.3762  0.1515
    6POPC   NC3  374   8.332   6.231   8.505 -0.2596 -0.3519 -0.1701
    6POPC   PO4  375   8.313   6.065   7.957 -0.1577 -0.1280  0.0219
    6POPC   GL1  376   8.423   6.109   7.539 -0.0122 -0.0826 -0.3429
    6POPC   GL2  377   8.720   6.070   7.411 -0.2046 -0.0410 -0.1604
    6POPC   C1A  378   8.145   6.082   7.181 -0.1528  0.0724 -0.0792
    6POPC   D2A  379   7.628   6.162   7.178  0.1031 -0.0441  0.1040
    6POPC   C3A  380   7.380   5.854   6.879  0.1220  0.1220 -0.1690
    6POPC   C4A  381   7.123   5.935   6.405 -0.2528 -0.1517 -0.2574
    6POPC   C1B  382   8.615   6.084   6.973  0.1614  0.3012 -0.3179
    6POPC   C2B  383   8.230   5.884   6.771  0.1107  0.0810  0.1855
    6POPC   C3B  384   7.933   5.607   6.653  0.1448 -0.0291  0.0725
    6POPC   C4B  385   7.563   5.648   6.501 -0.0384  0.1003 -0.0988
    7POPC   NC3  386   3.709   0.392   7.604 -0.0007 -0.1376 -0.1783
    7POPC   PO4  387   4.073   0.548   7.750 -0.0269  0.0813 -0.1493
    7POPC   GL1  388   3.917   0.664   7.172 -0.1458  0.1431 -0.2039
    7POPC   GL2  389   4.009   0.435   7.000 -0.0087  0.0624  0.0770
    7POPC   C1A  390   4.007   0.974   6.857  0.1356  0.1124 -0.3290
    7POPC   D2A  391   3.740   1.173   6.626  0.5221 -0.0772 -0.0877
    7POPC   C3A  392   3.637   1.512   6.795  0.1028  0.1732 -0.3502
    7POPC   C4A  393   3.627   1.928   6.779  0.0196  0.1666 -0.0314
    7POPC   C1B  394   3.903   0.027   6.814 -0.0748  0.1393  0.0076
    7POPC   C2B  395   3.849  -0.156   6.398 -0.3534  0.0007  0.4140
    7POPC   C3B  396   4.069  -0.345   6.105 -0.2426  0.2433  0.0053
    7POPC   C4B  397   4.438  -0.294   5.901 -0.1864 -0.0009  0.1095
    8POPC   NC3  398   6.971   2.934   8.155  0.1173  0.0749 -0.3713
    8POPC   PO4  399   7.465   2.853   8.109  0.0885 -0.1235  0.1586
    8POPC   GL1  400   7.233   2.723   7.668  0.0008 -0.1101  0.0011
    8POPC   GL2  401   6.892   2.681   7.465  0.2040 -0.0835  0.0787
    8POPC   C1A  402   7.328   2.407   7.245 -0.1555 -0.0594 -0.0339
    8POPC   D2A  403   7.456   2.174   6.922  0.2713  0.0224 -0.1933
    8POPC   C3A  404   7.146   1.994   6.740 -0.1818  0.0885 -0.1936
    8POPC   C4A  405   6.799   2.009   6.554  0.1863 -0.1741  0.2085
    8POPC   C1B  406   6.575   2.771   7.210  0.0789 -0.0833  0.0055
    8POPC   C2B  407   6.611   3.040   6.975 -0.1077  0.3994  0.0212
    8POPC   C3B  408   6.878   2.951   6.666 -0.1542 -0.4675  0.0238
    8POPC   C4B  409   7.134   3.054   6.409 -0.1827 -0.1622  0.0556
    9POPC   NC3  410   9.575   1.335   8.460  0.0507  0.0980  0.1962
    9POPC   PO4  411   9.074   1.278   8.385  0.1265 -0.2297  0.2058
    9POPC   GL1  412   8.919   1.316   7.973 -0.1044 -0.0215  0.0945
    9POPC   GL2  413   9.010   1.523   7.703  0.1790  0.2941  0.0907
    9POPC   C1A  414   8.969   1.024   7.689 -0.2185 -0.0600  0.1638
    9POPC   D2A  415   9.070   0.723   7.373  0.3173 -0.1054 -0.1366
    9POPC   C3A  416   9.397   0.668   7.153  0.1600 -0.0091 -0.0880
    9POPC   C4A  417   9.837   0.620   7.158  0.0660 -0.0390  0.1066
    9POPC   C1B  418   9.115   1.386   7.272  0.1060  0.2292  0.5627
    9POPC   C2B  419   9.169   1.118   6.939 -0.0684  0.0186  0.1619
    9POPC   C3B  420   8.893   0.983   6.705  0.1335  0.0007  0.1386
    9POPC   C4B  421   8.721   0.727   6.666  0.1231 -0.0566 -0.0403
   10POPC   NC3  422   6.093   6.270   7.707  0.2333 -0.0104 -0.2995
   10POPC   PO4  423   5.889   6.001   7.999 -0.1296  0.4078 -0.4401
   10POPC   GL1  424   5.785   5.927   7.493  0.0922 -0.0787  0.1019
   10POPC   GL2  425   6.143   5.908   7.394 -0.0583  0.1006 -0.0051
   10POPC   C1A  426   5.530   6.034   7.222  0.0293  0.1263 -0.2433
   10POPC   D2A  427   5.367   6.275   6.843 -0.1260  0.2659  0.0134
   10POPC   C3A  428   5.634   6.442   6.559  0.3297 -0.0370 -0.2738
   10POPC   C4A  429   5.651   6.514   6.160 -0.0508  0.3017  0.2274
   10POPC   C1B  430   6.361   5.995   6.967 -0.0541 -0.1732  0.0373
   10POPC   C2B  431   6.265   5.767   6.495 -0.1782 -0.1611  0.0473
   10POPC   C3B  432   6.193   5.738   5.986  0.2999  0.0212  0.0376
   10POPC   C4B  433   5.822   5.626   5.761 -0.2203  0.3221  0.0081
   11POPC   NC3  434   2.575   2.566   7.678  0.1123 -0.2902  0.0252
   11POPC   PO4  435   2.821   2.217   7.472 -0.1060  0.2971  0.0424
   11POPC   GL1  436   2.816   2.307   7.033  0.0731 -0.0145  0.3822
   11POPC   GL2  437   2.645   2.279   6.980 -0.1950 -0.1971  0.1183
   11POPC   C1A  438   2.911   2.502   6.651 -0.1555  0.2440 -0.0092
   11POPC   D2A  439   2.531   2.331   6.298 -0.0167 -0.2482  0.0253
   11POPC   C3A  440   2.584   2.001   6.057  0.2399 -0.0800 -0.1760
   11POPC   C4A  441   2.840   1.670   5.950  0.1090  0.1359  0.1415
   11POPC   C1B  442   2.393   2.672   6.713 -0.1056  0.0581  0.0056
   11POPC   C2B  443   1.841   2.733   6.583 -0.2549 -0.0739 -0.1842
   11POPC   C3B  444   1.553   2.648   6.249 -0.5617 -0.1768  0.2156
   11POPC   C4B  445   1.288   2.514   5.898 -0.1016 -0.0073  0.1759
   12POPC   NC3  446   4.042   5.462   7.984  0.0134 -0.2565  0.0203
   12POPC   PO4  447   4.004   5.260   7.654 -0.0408  0.1072 -0.3634
   12POPC   GL1  448   4.008   4.949   7.246 -0.0311  0.1993  0.3128
   12POPC   GL2  449   3.905   5.083   7.091 -0.0426 -0.4261 -0.1472
   12POPC   C1A  450   4.256   4.774   6.876 -0.0070  0.1736  0.0763
   12POPC   D2A  451   4.461   4.458   6.548  0.0069 -0.1916  0.1780
   12POPC   C3A  452   4.549   4.661   6.133 -0.1659  0.1581  0.2706
   12POPC   C4A  453   5.014   4.638   5.875 -0.0868  0.0192 -0.0861
   12POPC   C1B  454   4.127   5.326   6.858  0.0160 -0.1234 -0.2817
   12POPC   C2B  455   4.205   5.273   6.485  0.0833 -0.1988 -0.1893
   12POPC   C3B  456   4.126   4.990   6.336 -0.1916  0.2870  0.0150
   12POPC   C4B  457   3.947   4.584   6.517  0.3383  0.3784  0.1493
   13POPC   NC3  458   9.403   7.186   7.846 -0.1221 -0.2341  0.2694
   13POPC   PO4  459   9.400   7.359   7.455  0.0905 -0.1674 -0.1652
   13POPC   GL1  460   9.154   7.657   7.202 -0.1220 -0.3331 -0.0510
   13POPC   GL2  461   9.428   7.761   7.032 -0.0554 -0.1495 -0.1646
   13POPC   C1A  462   9.054   7.707   6.748  0.1069  0.1421  0.1149
   13POPC   D2A  463   9.100   7.794   6.335 -0.1491 -0.2315 -0.0592
   13POPC   C3A  464   9.381   7.648   5.933 -0.0726 -0.0328  0.1170
   13POPC   C4A  465   9.617   7.338   5.820 -0.0722  0.0364  0.1631
   13POPC   C1B  466   9.514   7.658   6.557  0.1272 -0.2573 -0.1034
   13POPC   C2B  467   9.840   7.534   6.242 -0.3309  0.1569 -0.1170
   13POPC   C3B  468  10.166   7.639   5.949 -0.1609 -0.0202  0.0662
   13POPC   C4B  469  10.512   7.503   5.611 -0.1744  0.0607  0.0366
   14POPC   NC3  470   7.896  10.241   7.902  0.3456  0.2632  0.0412
   14POPC   PO4  471   7.617  10.547   7.606 -0.1998  0.1787 -0.3980
   14POPC   GL1  472   7.449  10.430   7.295 -0.3793  0.0135  0.2158
   14POPC   GL2  473   7.220  10.204   7.210  0.0621 -0.2881 -0.2146
   14POPC   C1A  474   7.618  10.300   6.855  0.2497 -0.1910 -0.0728
   14POPC   D2A  475   8.030  10.178   6.794 -0.0732 -0.1883  0.1512
   14POPC   C3A  476   8.210   9.841   6.503 -0.1856 -0.0719  0.1113
   14POPC   C4A  477   8.372   9.812   6.162 -0.0551 -0.0498 -0.0642
   14POPC   C1B  478   7.109  10.171   6.852  0.1837  0.3115  0.1581
   14POPC   C2B  479   7.184   9.849   6.486  0.0425  0.2239 -0.1770
   14POPC   C3B  480   7.445   9.649   6.202 -0.1105 -0.0494  0.0348
   14POPC   C4B  481   7.547   9.704   5.843 -0.2324  0.1190  0.0060
   15POPC   NC3  482   4.905  10.488   7.676 -0.0140 -0.2039 -0.0844
   15POPC   PO4  483   4.696  10.855   7.561  0.3647  0.0374  0.2094
   15POPC   GL1  484   4.583  10.841   7.108 -0.3681  0.1754 -0.1340
   15POPC   GL2  485   4.401  10.738   6.958 -0.2094 -0.0080 -0.3621
   15POPC   C1A  486   4.691  10.905   6.614  0.1692  0.1610  0.0914
   15POPC   D2A  487   4.909  10.848   6.286 -0.1281  0.1002  0.1818
   15POPC   C3A  488   4.961  10.412   6.073 -0.2107  0.0283 -0.0345
   15POPC   C4A  489   4.777   9.999   6.201 -0.2244 -0.0500  0.0441
   15POPC   C1B  490   4.369  10.291   6.954 -0.3279  0.0853  0.0853
   15POPC   C2B  491   4.411   9.926   6.685 -0.0932  0.0222  0.0443
   15POPC   C3B  492   4.803   9.724   6.630  0.1069 -0.0020  0.1888
   15POPC   C4B  493   4.918   9.379   6.424 -0.2363 -0.0296  0.0789
   16POPC   NC3  494  10.167   5.381   8.450  0.0882  0.1173 -0.1222
   16POPC   PO4  495  10.198   5.151   7.989 -0.0007  0.2665  0.0212
   16POPC   GL1  496  10.221   5.224   7.578 -0.2619  0.0367 -0.0449
   16POPC   GL2  497   9.986   5.391   7.442 -0.1062  0.1858 -0.1350
   16POPC   C1A  498  10.378   5.195   7.149 -0.0339 -0.1399  0.0078
   16POPC   D2A  499  10.381   5.040   6.684  0.2463 -0.3310 -0.2117
   16POPC   C3A  500  10.376   4.669   6.484  0.2903 -0.1192 -0.0062
   16POPC   C4A  501  10.135   4.455   6.054 -0.3253 -0.1764 -0.2984
   16POPC   C1B  502   9.960   5.535   6.945  0.2483  0.2588 -0.0662
   16POPC   C2B  503  10.017   5.407   6.576  0.2787 -0.0593  0.0249
   16POPC   C3B  504  10.138   5.179   6.253  0.0049  0.1883  0.0435
   16POPC   C4B  505  10.093   5.275   5.783 -0.0511 -0.2238 -0.1930
   17POPC   NC3  506   6.788   7.787   8.167  0.0699 -0.2507 -0.2044
   17POPC   PO4  507   6.571   8.092   8.006  0.1637 -0.1467 -0.0541
   17POPC   GL1  508   6.623   7.986   7.644  0.1081  0.4168  0.3121
   17POPC   GL2  509   6.603   8.224   7.396 -0.0929 -0.4208 -0.1930
   17POPC   C1A  510   6.700   7.713   7.359  0.0181 -0.1216 -0.2626
   17POPC   D2A  511   6.720   7.324   7.055 -0.1339 -0.0970 -0.0026
   17POPC   C3A  512   6.481   7.120   6.709 -0.0429 -0.0133  0.0292
   17POPC   C4A  513   6.586   6.846   6.496 -0.1029 -0.0564 -0.4907
   17POPC   C1B  514   6.523   8.032   6.942  0.0231  0.3436 -0.0847
   17POPC   C2B  515   6.416   7.628   6.761 -0.1649 -0.2567 -0.1945
   17POPC   C3B  516   6.657   7.400   6.339 -0.4063  0.3628 -0.3516
   17POPC   C4B  517   6.504   7.055   6.112  0.0184 -0.0752 -0.1391
   18POPC   NC3  518   2.154   1.650   8.071  0.0238 -0.0650 -0.0873
   18POPC   PO4  519   1.790   1.655   7.778  0.0724 -0.2702 -0.5574
   18POPC   GL1  520   1.696   1.702   7.358 -0.0565  0.0938 -0.4633
   18POPC   GL2  521   1.529   1.954   7.326 -0.2718  0.3672 -0.1164
   18POPC   C1A  522   1.915   1.582   6.998  0.1053 -0.4427  0.0800
   18POPC   D2A  523   2.034   1.717   6.619 -0.1217 -0.2437  0.0863
   18POPC   C3A  524   2.235   1.515   6.271  0.0014  0.0694  0.0797
   18POPC   C4A  525   2.272   1.303   5.895  0.2236  0.0041 -0.3102
   18POPC   C1B  526   1.463   1.891   6.894  0.0590 -0.0243  0.0398
   18POPC   C2B  527   1.503   1.731   6.520  0.2245  0.3872  0.0902
   18POPC   C3B  528   1.574   1.454   6.167 -0.3438 -0.1747 -0.2126
   18POPC   C4B  529   1.772   1.439   5.886  0.0739 -0.5358  0.0204
   19POPC   NC3  530   8.543   0.063   8.065  0.2299 -0.1684 -0.1629
   19POPC   PO4  531   8.706   0.448   7.893 -0.1350 -0.0092  0.1194
   19POPC   GL1  532   8.521   0.545   7.468 -0.0984 -0.2264 -0.0870
   19POPC   GL2  533   8.477   0.339   7.238  0.0589 -0.0628  0.2514
   19POPC   C1A  534   8.569   0.811   7.107  0.1410 -0.3453 -0.2744
   19POPC   D2A  535   8.372   1.084   6.754 -0.2292  0.3962  0.4674
   19POPC   C3A  536   8.555   1.050   6.297  0.1118  0.0005 -0.1541
   19POPC   C4A  537   8.908   0.990   5.857  0.2227 -0.0872 -0.2976
   19POPC   C1B  538   8.478   0.360   6.899 -0.2255 -0.0846  0.0090
   19POPC   C2B  539   8.362   0.501   6.503  0.1560  0.1599  0.1429
   19POPC   C3B  540   8.644   0.495   6.196 -0.0191 -0.0024  0.0713
   19POPC   C4B  541   9.142   0.737   6.230  0.1141  0.2017  0.1452
   20POPC   NC3  542   0.915   4.929   7.831 -0.0880  0.2257 -0.1932
   20POPC   PO4  543   0.497   4.930   7.810 -0.2391 -0.0467  0.0706
   20POPC   GL1  544   0.420   4.931   7.429  0.0275  0.0015  0.0199
   20POPC   GL2  545   0.192   5.021   7.434 -0.0642  0.2130  0.2368
   20POPC   C1A  546   0.567   4.862   7.071 -0.2585  0.0329  0.0180
   20POPC   D2A  547   0.775   5.052   6.746  0.0567  0.0664 -0.0017
   20POPC   C3A  548   0.738   5.586   6.487 -0.0894  0.0768 -0.3668
   20POPC   C4A  549   0.913   5.752   6.128  0.0586  0.1421 -0.1309
   20POPC   C1B  550   0.198   5.196   7.013 -0.0982  0.2373 -0.1184
   20POPC   C2B  551   0.174   5.279   6.598 -0.0747  0.0184  0.2015
   20POPC   C3B  552  -0.017   5.141   6.246 -0.0191  0.0324  0.1118
   20POPC   C4B  553  -0.250   4.897   5.979  0.2891  0.2204  0.0744
   21POPC   NC3  554   6.522  10.542   7.614 -0.1067  0.1297 -0.1229
   21POPC   PO4  555   6.125  10.397   7.446  0.1640 -0.0367  0.2277
   21POPC   GL1  556   5.932  10.517   7.074  0.1959 -0.2761 -0.0648
   21POPC   GL2  557   5.761  10.218   7.161 -0.2345 -0.1564  0.3762
   21POPC   C1A  558   5.878  10.574   6.708 -0.2968 -0.0081 -0.0466
   21POPC   D2A  559   6.034  10.953   6.443  0.0075 -0.0454  0.0368
   21POPC   C3A  560   6.248  11.368   6.361 -0.2324 -0.0781 -0.1873
   21POPC   C4A  561   6.495  11.738   6.554 -0.1647 -0.1345 -0.0895
   21POPC   C1B  562   6.136  10.070   6.897  0.1176  0.1769 -0.2224
   21POPC   C2B  563   6.376   9.939   6.467 -0.1601  0.1393 -0.0602
   21POPC   C3B  564   6.719   9.933   6.202 -0.2168 -0.1608 -0.2938
   21POPC   C4B  565   6.960  10.077   5.816  0.0964 -0.0063 -0.3550
   22POPC   NC3  566   3.330   4.279   7.230  0.0837  0.0680 -0.1658
   22POPC   PO4  567   3.261   3.962   7.508  0.3976 -0.2591  0.0633
   22POPC   GL1  568   3.153   3.797   7.152  0.1328  0.0094 -0.1039
   22POPC   GL2  569   3.180   3.960   6.848  0.2377  0.0757  0.0788
   22POPC   C1A  570   3.403   3.398   7.014 -0.2841 -0.1207  0.1345
   22POPC   D2A  571   3.387   3.315   6.606 -0.1109 -0.0572 -0.0145
   22POPC   C3A  572   3.038   3.438   6.369  0.0534  0.1107  0.0647
   22POPC   C4A  573   2.587   3.421   6.465  0.4291 -0.0991  0.0963
   22POPC   C1B  574   3.325   3.776   6.509  0.0411  0.0736 -0.0131
   22POPC   C2B  575   3.479   3.593   6.052 -0.0958  0.0133  0.2338
   22POPC   C3B  576   3.735   3.851   5.918 -0.1454 -0.0897 -0.0538
   22POPC   C4B  577   4.082   4.043   5.731  0.1591 -0.2030  0.2339
   23POPC   NC3  578   8.358   5.598   7.829  0.2385 -0.3612 -0.0987
   23POPC   PO4  579   7.996   5.299   7.703  0.0327 -0.0968  0.2027
   23POPC   GL1  580   8.006   5.180   7.292  0.0099 -0.3765  0.1869
   23POPC   GL2  581   7.793   4.952   7.152  0.0692  0.0896 -0.0654
   23POPC   C1A  582   8.160   5.178   6.892  0.1009 -0.1181  0.2256
   23POPC   D2A  583   8.406   5.403   6.679  0.1514  0.1832 -0.0558
   23POPC   C3A  584   8.240   5.694   6.312 -0.0817  0.1510  0.0499
   23POPC   C4A  585   8.099   5.857   5.851 -0.2639 -0.2179  0.0986
   23POPC   C1B  586   7.941   4.777   6.778  0.0095  0.4348 -0.4868
   23POPC   C2B  587   7.909   4.740   6.350  0.1549  0.0264  0.0878
   23POPC   C3B  588   7.688   4.753   6.112 -0.3170 -0.0137 -0.0889
   23POPC   C4B  589   7.170   4.609   6.053 -0.3121  0.0776 -0.0434
   24POPC   NC3  590   4.695   9.105   7.689 -0.0312  0.2961  0.1187
   24POPC   PO4  591   4.248   8.944   7.822  0.0720 -0.0579  0.0435
   24POPC   GL1  592   4.389   8.819   7.371  0.3379 -0.1534 -0.3352
   24POPC   GL2  593   4.695   8.813   7.310 -0.0611 -0.1231 -0.1848
   24POPC   C1A  594   4.432   8.894   6.865  0.1326 -0.0419 -0.0815
   24POPC   D2A  595   4.346   9.003   6.440  0.0695  0.2090  0.2261
   24POPC   C3A  596   3.904   8.817   6.298  0.0688  0.1881 -0.2728
   24POPC   C4A  597   3.559   8.545   6.134 -0.0001  0.3693  0.1871
   24POPC   C1B  598   4.927   8.741   7.037 -0.1798  0.3296 -0.3059
   24POPC   C2B  599   4.833   8.910   6.562 -0.0528  0.1419 -0.1664
   24POPC   C3B  600   5.032   8.855   6.139 -0.0681 -0.1136  0.2003
   24POPC   C4B  601   4.958   8.748   5.679 -0.0115  0.1204 -0.3842
   25POPC   NC3  602   2.285   1.058   8.058  0.1656 -0.2132  0.0477
   25POPC   PO4  603   1.916   1.158   7.815 -0.2359 -0.0433 -0.1477
   25POPC   GL1  604   1.703   1.067   7.485  0.0414  0.0141  0.1369
   25POPC   GL2  605   1.946   1.166   7.310 -0.1878  0.0933 -0.2842
   25POPC   C1A  606   1.618   0.769   7.147 -0.1868  0.0406  0.3589
   25POPC   D2A  607   1.691   0.611   6.799 -0.2560 -0.0391 -0.0540
   25POPC   C3A  608   2.135   0.768   6.664  0.3979  0.0847 -0.2659
   25POPC   C4A  609   2.561   0.626   6.602 -0.0774  0.2263  0.1610
   25POPC   C1B  610   1.908   1.103   6.925 -0.0433 -0.1518  0.2943
   25POPC   C2B  611   1.934   1.211   6.410  0.2844  0.0944  0.0545
   25POPC   C3B  612   1.838   0.895   6.009 -0.0863 -0.0714 -0.3707
   25POPC   C4B  613   1.994   1.022   5.617 -0.1779  0.1754 -0.3306
   26POPC   NC3  614   0.560   1.283   8.344  0.3562 -0.0214  0.0585
   26POPC   PO4  615   0.148   1.393   8.254 -0.0096 -0.3633 -0.1570
   26POPC   GL1  616   0.151   1.370   7.810  0.0274  0.0433  0.2025
   26POPC   GL2  617   0.477   1.510   7.766 -0.1572  0.1524  0.1871
   26POPC   C1A  618  -0.088   1.215   7.404 -0.2655  0.1487  0.2929
   26POPC   D2A  619  -0.147   1.371   6.989 -0.1568  0.3772  0.2371
   26POPC   C3A  620   0.071   1.182   6.660  0.2067 -0.0804 -0.0761
   26POPC   C4A  621   0.184   0.891   6.301 -0.4004 -0.0184 -0.3879
   26POPC   C1B  622   0.348   1.317   7.304  0.0048 -0.2739 -0.1260
   26POPC   C2B  623   0.447   1.062   7.007 -0.0514 -0.1660 -0.0517
   26POPC   C3B  624   0.643   0.794   6.816 -0.2016 -0.0305  0.2704
   26POPC   C4B  625   0.532   0.541   6.471 -0.1205 -0.0276  0.1669
   27POPC   NC3  626   6.360   2.167   7.773 -0.0471  0.0181  0.0867
   27POPC   PO4  627   6.488   1.778   7.701  0.3147 -0.0068 -0.1154
   27POPC   GL1  628   6.499   1.840   7.305  0.0879 -0.0536  0.1444
   27POPC   GL2  629   6.279   1.633   7.258 -0.2562 -0.0247  0.2859
   27POPC   C1A  630   6.391   2.044   6.848 -0.0283 -0.0066  0.0569
   27POPC   D2A  631   6.332   2.254   6.379  0.0662  0.1546  0.1607
   27POPC   C3A  632   6.302   2.563   6.251  0.0922 -0.1762  0.1051
   27POPC   C4A  633   6.464   2.880   5.979 -0.3948  0.0914  0.0938
   27POPC   C1B  634   5.983   1.963   7.056 -0.1456 -0.2843 -0.0535
   27POPC   C2B  635   5.684   2.167   6.754  0.1703 -0.2581  0.2192
   27POPC   C3B  636   5.400   2.136   6.433  0.0933 -0.2546  0.0002
   27POPC   C4B  637   5.211   2.392   6.145 -0.1293  0.1042 -0.2154
   28POPC   NC3  638   9.140   0.356   8.328  0.1184 -0.1501  0.3323
   28POPC   PO4  639   9.420   0.107   8.301 -0.0361 -0.2283  0.0904
   28POPC   GL1  640   9.398   0.106   7.851  0.4748 -0.1289 -0.1468
   28POPC   GL2  641   9.054   0.157   7.709  0.2108 -0.0693 -0.1935
   28POPC   C1A  642   9.474   0.231   7.439 -0.1256  0.1788 -0.0854
   28POPC   D2A  643   9.556   0.251   6.941  0.0072 -0.0083  0.0462
   28POPC   C3A  644   9.730   0.423   6.562  0.2715 -0.1004 -0.1060
   28POPC   C4A  645   9.672   0.599   6.107 -0.4481  0.0520  0.1620
   28POPC   C1B  646   8.937   0.269   7.273  0.0587 -0.1802  0.0369
   28POPC   C2B  647   9.012   0.446   6.873  0.1832  0.0860 -0.2573
   28POPC   C3B  648   9.032   0.335   6.483  0.0358  0.1720  0.0833
   28POPC   C4B  649   9.072   0.223   6.082  0.0736  0.1932  0.1056
   29POPC   NC3  650   7.020   3.831   8.354 -0.1425  0.1919  0.0944
   29POPC   PO4  651   6.900   3.684   7.865  0.0341 -0.1465  0.1100
   29POPC   GL1  652   6.903   3.536   7.432  0.1267  0.0307 -0.1278
   29POPC   GL2  653   7.158   3.804   7.201  0.1525  0.1687 -0.4097
   29POPC   C1A  654   7.015   3.095   7.226  0.0174 -0.2943  0.4047
   29POPC   D2A  655   7.316   2.906   6.886 -0.2496 -0.0268  0.0206
   29POPC   C3A  656   7.522   2.578   6.647  0.2460 -0.3148 -0.1641
   29POPC   C4A  657   7.461   2.265   6.335 -0.0378 -0.1634  0.0591
   29POPC   C1B  658   7.374   3.791   6.750 -0.0307 -0.0748 -0.0986
   29POPC   C2B  659   7.574   3.804   6.371  0.2242 -0.1141 -0.3550
   29POPC   C3B  660   7.655   4.278   6.122 -0.0282  0.0244 -0.1047
   29POPC   C4B  661   7.504   4.406   5.669  0.1261 -0.1337 -0.1089
   30POPC   NC3  662   3.697   3.770   7.750  0.0451  0.3330  0.1021
   30POPC   PO4  663   3.752   4.226   7.532  0.1165  0.0617 -0.3591
   30POPC   GL1  664   3.707   3.840   7.241 -0.2598  0.1176 -0.0391
   30POPC   GL2  665   3.687   3.967   7.009 -0.0052 -0.3570  0.2708
   30POPC   C1A  666   3.908   3.562   6.920 -0.0864  0.0905  0.3801
   30POPC   D2A  667   3.967   3.669   6.463 -0.1013  0.2020 -0.2922
   30POPC   C3A  668   4.305   3.657   6.142  0.2615 -0.0667 -0.2091
   30POPC   C4A  669   4.508   3.250   6.026  0.0929 -0.1568  0.0776
   30POPC   C1B  670   4.018   4.146   6.738  0.1640 -0.2717 -0.3168
   30POPC   C2B  671   4.446   3.979   6.576  0.1634  0.1702  0.4765
   30POPC   C3B  672   4.835   3.644   6.406 -0.1861 -0.1338 -0.3812
   30POPC   C4B  673   5.007   3.362   6.195  0.1223 -0.3095  0.0073
   31POPC   NC3  674   4.943   0.606   7.802  0.1325  0.2062 -0.2039
   31POPC   PO4  675   4.471   0.722   7.571 -0.1874 -0.0922  0.1283
   31POPC   GL1  676   4.456   0.690   7.183  0.0311  0.3048  0.0418
   31POPC   GL2  677   4.519   1.040   7.051  0.0736  0.0856 -0.1302
   31POPC   C1A  678   4.373   0.579   6.742  0.0239  0.1064  0.0079
   31POPC   D2A  679   4.357   0.403   6.292  0.0048 -0.1412  0.0604
   31POPC   C3A  680   4.465   0.166   6.038 -0.1172  0.2788  0.0576
   31POPC   C4A  681   4.567   0.063   5.575  0.0797  0.0681  0.0585
   31POPC   C1B  682   4.541   1.058   6.663  0.1357  0.1020 -0.1713
   31POPC   C2B  683   4.376   0.879   6.307  0.0511  0.2576 -0.0427
   31POPC   C3B  684   3.992   0.850   6.063  0.0909 -0.2324  0.0495
   31POPC   C4B  685   3.649   0.629   5.849  0.2021 -0.2213  0.0893
   32POPC   NC3  686   4.963   1.939   7.613  0.2771 -0.3051 -0.0725
   32POPC   PO4  687   4.940   1.495   7.734  0.2470 -0.1856 -0.0464
   32POPC   GL1  688   5.130   1.438   7.326 -0.0233 -0.1760 -0.1444
   32POPC   GL2  689   5.071   1.764   7.187 -0.1896 -0.0351 -0.0240
   32POPC   C1A  690   5.421   1.449   6.967  0.3289  0.0200  0.0298
   32POPC   D2A  691   5.576   1.658   6.617 -0.0218 -0.0601 -0.0208
   32POPC   C3A  692   6.016   1.809   6.562  0.0158 -0.0019  0.1555
   32POPC   C4A  693   6.472   1.568   6.569 -0.2682 -0.2142 -0.0409
   32POPC   C1B  694   5.142   1.899   6.777  0.0839 -0.3920  0.0028
   32POPC   C2B  695   4.926   2.097   6.400  0.0620 -0.1861  0.2405
   32POPC   C3B  696   4.682   2.276   6.005 -0.0873  0.2361  0.1107
   32POPC   C4B  697   4.314   2.358   5.815  0.1319 -0.0862  0.1089
   33POPC   NC3  698   1.423   7.600   8.923  0.2556 -0.1733  0.1003
   33POPC   PO4  699   1.237   7.586   8.447  0.0168 -0.4748  0.0577
   33POPC   GL1  700   1.169   7.942   8.110  0.3597 -0.0896  0.0394
   33POPC   GL2  701   1.085   7.692   7.887 -0.0065  0.1756 -0.3064
   33POPC   C1A  702   1.465   8.314   7.802 -0.0232 -0.3551  0.3264
   33POPC   D2A  703   1.712   8.339   7.440 -0.2164 -0.0544 -0.1298
   33POPC   C3A  704   1.696   8.596   7.074 -0.4184  0.0412 -0.0817
   33POPC   C4A  705   1.550   8.589   6.551 -0.0439  0.1319  0.1364
   33POPC   C1B  706   0.720   7.946   7.721 -0.3976  0.1181 -0.1671
   33POPC   C2B  707   0.530   8.036   7.298  0.1313 -0.1630  0.1410
   33POPC   C3B  708   0.379   8.043   6.947  0.2238 -0.1399 -0.1261
   33POPC   C4B  709   0.638   8.061   6.474  0.1034  0.2371 -0.1188
   34POPC   NC3  710   1.703   6.138   8.138 -0.0674 -0.0324  0.2794
   34POPC   PO4  711   1.530   6.230   7.790  0.3533  0.2653 -0.0296
   34POPC   GL1  712   1.713   6.383   7.355 -0.1203  0.3654  0.0957
   34POPC   GL2  713   1.954   6.250   7.220 -0.1356  0.1556 -0.2840
   34POPC   C1A  714   1.627   6.445   6.933  0.1075 -0.0923 -0.0091
   34POPC   D2A  715   1.506   6.380   6.526 -0.3599  0.0094 -0.0040
   34POPC   C3A  716   1.037   6.451   6.417  0.2139  0.1384  0.1852
   34POPC   C4A  717   0.638   6.279   6.184 -0.2790  0.1835  0.0549
   34POPC   C1B  718   2.157   6.069   6.807  0.3390 -0.0727 -0.0555
   34POPC   C2B  719   2.228   5.869   6.390  0.2002  0.1231 -0.0098
   34POPC   C3B  720   2.420   6.049   6.094 -0.2444  0.3795 -0.1064
   34POPC   C4B  721   2.302   6.109   5.602  0.0970 -0.0542  0.0534
   35POPC   NC3  722   0.009   5.246   7.811 -0.1657  0.2252 -0.0400
   35POPC   PO4  723  -0.017   5.530   8.170  0.0432  0.2609  0.0599
   35POPC   GL1  724   0.023   5.757   7.768 -0.2964  0.4262  0.0460
   35POPC   GL2  725  -0.149   6.043   7.627 -0.2757  0.0013 -0.1972
   35POPC   C1A  726   0.302   5.818   7.347 -0.0025  0.2363  0.0435
   35POPC   D2A  727   0.364   5.684   6.828 -0.0372 -0.0212  0.1796
   35POPC   C3A  728   0.316   6.126   6.523  0.0442 -0.1507 -0.1314
   35POPC   C4A  729   0.337   6.638   6.379 -0.2088  0.0846  0.4908
   35POPC   C1B  730  -0.192   5.722   7.306 -0.2971 -0.1145 -0.2638
   35POPC   C2B  731  -0.205   5.696   6.815 -0.0157  0.1027 -0.3277
   35POPC   C3B  732   0.006   5.710   6.399 -0.6520 -0.0134  0.2207
   35POPC   C4B  733   0.350   5.836   6.128  0.0005  0.2797 -0.2105
   36POPC   NC3  734   7.864   3.802   7.978 -0.1403 -0.2273  0.4119
   36POPC   PO4  735   7.748   4.093   7.765  0.1402 -0.3698 -0.1105
   36POPC   GL1  736   7.733   4.009   7.394 -0.2274 -0.0546 -0.2620
   36POPC   GL2  737   7.530   4.185   7.119  0.0726 -0.1045 -0.1610
   36POPC   C1A  738   7.886   3.782   6.905 -0.1480 -0.0116 -0.1372
   36POPC   D2A  739   7.773   3.446   6.674 -0.0945 -0.3551 -0.1691
   36POPC   C3A  740   8.047   3.355   6.277 -0.3148 -0.0366  0.0605
   36POPC   C4A  741   8.151   3.184   5.931  0.0622 -0.1348  0.1072
   36POPC   C1B  742   7.718   4.288   6.637  0.0424  0.1134 -0.0113
   36POPC   C2B  743   8.011   3.995   6.449 -0.1912  0.1703 -0.0249
   36POPC   C3B  744   8.284   3.793   6.157  0.1923 -0.0826  0.0187
   36POPC   C4B  745   8.538   3.542   5.864  0.4506 -0.0235 -0.0779
   37POPC   NC3  746   6.839   6.609   7.708  0.1390  0.1134 -0.2962
   37POPC   PO4  747   6.983   6.209   7.735  0.0109 -0.2723 -0.0607
   37POPC   GL1  748   7.046   6.225   7.313  0.1929  0.1167 -0.3755
   37POPC   GL2  749   7.190   6.528   7.287  0.2881 -0.0377 -0.3246
   37POPC   C1A  750   6.878   6.003   7.013  0.4179 -0.2301  0.1455
   37POPC   D2A  751   6.701   5.763   6.656 -0.1218 -0.0322 -0.2169
   37POPC   C3A  752   6.533   5.310   6.690 -0.3705 -0.3023  0.1625
   37POPC   C4A  753   6.030   5.221   6.651  0.0720  0.0349  0.1516
   37POPC   C1B  754   7.227   6.362   6.867 -0.0634 -0.1704 -0.3051
   37POPC   C2B  755   7.106   6.512   6.451  0.3284 -0.0258 -0.1325
   37POPC   C3B  756   7.036   6.801   6.103  0.1511 -0.1271  0.0555
   37POPC   C4B  757   6.983   7.047   5.779 -0.0162  0.1601  0.0382
   38POPC   NC3  758   2.857   3.562   7.524  0.1652 -0.1626 -0.3302
   38POPC   PO4  759   2.394   3.465   7.405  0.0940 -0.3074  0.0112
   38POPC   GL1  760   2.353   3.446   7.079  0.3101 -0.0655  0.0658
   38POPC   GL2  761   2.094   3.709   7.114 -0.3247 -0.3010  0.1115
   38POPC   C1A  762   2.129   3.238   6.686 -0.0732 -0.0355  0.1234
   38POPC   D2A  763   2.245   3.091   6.317  0.0474 -0.0943 -0.0188
   38POPC   C3A  764   2.103   2.589   6.181  0.0648  0.2254 -0.0809
   38POPC   C4A  765   2.032   2.289   5.918 -0.0133 -0.2568 -0.2509
   38POPC   C1B  766   1.741   3.671   6.763 -0.3186  0.0146 -0.2535
   38POPC   C2B  767   1.563   3.598   6.392  0.0180  0.0110  0.1951
   38POPC   C3B  768   1.279   3.523   6.068  0.3389 -0.0517  0.0701
   38POPC   C4B  769   1.146   3.772   5.708  0.1684  0.0932  0.2977
   39POPC   NC3  770   7.736   3.178   8.412  0.1800  0.0087 -0.2852
   39POPC   PO4  771   7.689   3.340   8.031  0.0192 -0.0255  0.0503
   39POPC   GL1  772   7.812   3.138   7.676 -0.0937  0.0960  0.3170
   39POPC   GL2  773   8.228   3.034   7.693 -0.3057  0.1969 -0.1890
   39POPC   C1A  774   7.499   3.017   7.367  0.1225  0.0617 -0.0536
   39POPC   D2A  775   7.496   3.315   7.054  0.1181  0.2160  0.0658
   39POPC   C3A  776   7.122   3.318   6.808 -0.1722 -0.1961  0.3171
   39POPC   C4A  777   6.757   3.537   6.936 -0.2599 -0.2148 -0.0031
   39POPC   C1B  778   8.159   3.265   7.285  0.2485 -0.1626  0.2788
   39POPC   C2B  779   8.143   3.299   6.986 -0.4174  0.0151 -0.1565
   39POPC   C3B  780   8.301   3.565   6.686  0.0643 -0.1952  0.1381
   39POPC   C4B  781   8.701   3.563   6.498  0.0478  0.1495  0.1326
   40POPC   NC3  782   1.585   9.166   9.042  0.1939 -0.1533 -0.0786
   40POPC   PO4  783   1.470   8.935   8.790 -0.3331  0.0218 -0.1327
   40POPC   GL1  784   1.278   8.981   8.554  0.1349 -0.2453 -0.0883
   40POPC   GL2  785   1.341   8.895   8.278 -0.1092  0.0357  0.1920
   40POPC   C1A  786   0.806   9.229   8.507 -0.0941  0.0438 -0.0419
   40POPC   D2A  787   0.454   9.242   8.157  0.0514  0.2551  0.0574
   40POPC   C3A  788   0.570   9.386   7.693 -0.0278  0.3742 -0.3825
   40POPC   C4A  789   0.660   9.270   7.219  0.1721 -0.1519  0.4524
   40POPC   C1B  790   1.093   8.612   8.031  0.2876 -0.2171 -0.2269
   40POPC   C2B  791   0.878   8.405   7.605  0.4902  0.1694  0.1439
   40POPC   C3B  792   0.912   8.263   7.139 -0.2172  0.0454 -0.0624
   40POPC   C4B  793   0.921   7.853   6.871  0.3216 -0.4069  0.1182
   41POPC   NC3  794   5.570   5.607   7.865  0.0757  0.1813  0.1088
   41POPC   PO4  795   5.780   5.170   8.070  0.2590  0.2454 -0.0001
   41POPC   GL1  796   5.528   5.103   7.701  0.0267 -0.0522  0.1957
   41POPC   GL2  797   5.599   5.234   7.480  0.3393 -0.3383 -0.0683
   41POPC   C1A  798   5.344   4.789   7.363  0.1494  0.1443 -0.1654
   41POPC   D2A  799   5.412   4.590   6.875 -0.0513  0.0014 -0.0170
   41POPC   C3A  800   5.328   4.790   6.592  0.0879 -0.3007  0.3000
   41POPC   C4A  801   5.052   4.870   6.294 -0.1862  0.0068  0.4269
   41POPC   C1B  802   5.243   5.285   7.204 -0.2153  0.2792 -0.0900
   41POPC   C2B  803   5.060   5.115   6.851  0.1945 -0.3360 -0.0258
   41POPC   C3B  804   4.960   5.291   6.484 -0.2709 -0.0592 -0.0786
   41POPC   C4B  805   5.137   5.243   5.998  0.3410 -0.1979 -0.0238
   42POPC   NC3  806   2.260   9.271   8.289 -0.4149 -0.4797  0.2864
   42POPC   PO4  807   2.245   9.633   8.472 -0.2897 -0.1175 -0.0109
   42POPC   GL1  808   2.125   9.682   8.017 -0.1619  0.1865  0.0825
   42POPC   GL2  809   2.199   9.369   7.720  0.0144 -0.2058 -0.0073
   42POPC   C1A  810   2.205   9.929   7.620 -0.1297  0.0602 -0.0541
   42POPC   D2A  811   2.196  10.371   7.531  0.1078  0.1715 -0.2294
   42POPC   C3A  812   1.782  10.536   7.398 -0.1525 -0.0223 -0.1330
   42POPC   C4A  813   1.396  10.329   7.208 -0.0295  0.2387 -0.2147
   42POPC   C1B  814   2.348   9.129   7.337 -0.0488 -0.0394  0.0454
   42POPC   C2B  815   2.749   9.028   7.125  0.0686 -0.1469 -0.0301
   42POPC   C3B  816   2.933   8.801   6.788 -0.0406  0.0548  0.5276
   42POPC   C4B  817   2.563   8.587   6.502  0.0389 -0.1146  0.1319
   43POPC   NC3  818   0.276   8.394   8.265  0.3335  0.1207  0.2369
   43POPC   PO4  819  -0.130   8.546   8.331 -0.0253  0.2533  0.3641
   43POPC   GL1  820  -0.286   8.873   8.080  0.0077 -0.1712 -0.2124
   43POPC   GL2  821  -0.218   8.745   7.694  0.0043  0.1589 -0.0274
   43POPC   C1A  822  -0.048   9.280   7.905  0.1651 -0.0739  0.0095
   43POPC   D2A  823  -0.097   9.584   7.603 -0.0868  0.1761 -0.1255
   43POPC   C3A  824   0.324   9.807   7.547  0.0368 -0.0577  0.2829
   43POPC   C4A  825   0.707   9.766   7.406 -0.2132  0.1818  0.1037
   43POPC   C1B  826  -0.622   8.766   7.594 -0.4225  0.1326  0.0522
   43POPC   C2B  827  -0.712   8.942   7.201  0.0981 -0.0877  0.1894
   43POPC   C3B  828  -0.905   9.285   7.002 -0.0438  0.1692  0.2940
   43POPC   C4B  829  -0.907   9.291   6.655  0.2729 -0.0677  0.0679
   44POPC   NC3  830   8.599   9.884   7.961 -0.1413 -0.2819  0.0386
   44POPC   PO4  831   8.414  10.205   7.824  0.1775 -0.2378  0.0821
   44POPC   GL1  832   8.519  10.121   7.415 -0.1528  0.0969 -0.1719
   44POPC   GL2  833   8.883   9.962   7.536 -0.0665 -0.1989 -0.1676
   44POPC   C1A  834   8.547  10.416   7.099 -0.2937  0.3056 -0.2439
   44POPC   D2A  835   8.757  10.681   6.798 -0.0780  0.1131  0.2552
   44POPC   C3A  836   8.844  10.550   6.362 -0.0450 -0.0284 -0.0028
   44POPC   C4A  837   8.943  10.166   6.194 -0.0588 -0.0545 -0.0760
   44POPC   C1B  838   9.136   9.947   7.171  0.0163  0.0016 -0.0054
   44POPC   C2B  839   9.067  10.114   6.749  0.0560 -0.1809 -0.2303
   44POPC   C3B  840   9.363  10.076   6.483 -0.2587 -0.0344 -0.1045
   44POPC   C4B  841   9.494   9.937   6.121 -0.1234 -0.0697  0.2547
   45POPC   NC3  842   1.755   7.898   8.243 -0.3298  0.2126  0.0217
   45POPC   PO4  843   1.606   7.639   7.902  0.1064 -0.0765 -0.0818
   45POPC   GL1  844   1.509   7.470   7.533  0.4906  0.0321 -0.1382
   45POPC   GL2  845   1.342   7.318   7.642 -0.0841 -0.2342  0.2325
   45POPC   C1A  846   1.500   7.365   7.104 -0.1221 -0.0280  0.1068
   45POPC   D2A  847   1.343   7.616   6.765  0.0628  0.0810  0.0138
   45POPC   C3A  848   1.562   7.727   6.459  0.0144 -0.2856  0.1466
   45POPC   C4A  849   1.909   7.793   6.082 -0.2686 -0.3111 -0.1802
   45POPC   C1B  850   1.097   7.200   7.368 -0.2669  0.2489 -0.0435
   45POPC   C2B  851   1.007   7.353   6.993  0.2401 -0.0041 -0.0487
   45POPC   C3B  852   1.097   7.257   6.558 -0.0968 -0.0114 -0.3725
   45POPC   C4B  853   1.086   7.282   6.145 -0.1232  0.1686  0.0260
   46POPC   NC3  854   3.689   9.760   8.361 -0.1731 -0.0641  0.0739
   46POPC   PO4  855   3.830   9.918   7.864  0.1868  0.0293  0.2401
   46POPC   GL1  856   3.782   9.629   7.380 -0.2958  0.0317  0.1619
   46POPC   GL2  857   3.477   9.732   7.315 -0.1105 -0.2575 -0.0128
   46POPC   C1A  858   3.592   9.363   7.039  0.2470  0.2467 -0.0931
   46POPC   D2A  859   3.489   9.004   6.762 -0.0387 -0.2772 -0.2717
   46POPC   C3A  860   3.515   9.068   6.302  0.3084  0.1540  0.2280
   46POPC   C4A  861   3.283   9.278   5.908  0.3314  0.7315  0.0353
   46POPC   C1B  862   3.430   9.821   6.886  0.1889 -0.2180 -0.0247
   46POPC   C2B  863   3.387   9.938   6.506 -0.3052 -0.1462  0.1404
   46POPC   C3B  864   3.564   9.909   6.095  0.0857 -0.0103 -0.2282
   46POPC   C4B  865   3.795   9.969   5.828 -0.3901  0.2912  0.2900
   47POPC   NC3  866   2.655   4.208   7.971 -0.4755  0.1863  0.0507
   47POPC   PO4  867   2.722   4.031   7.515  0.1134  0.1757 -0.1651
   47POPC   GL1  868   2.648   3.864   7.174  0.5181 -0.0692  0.2159
   47POPC   GL2  869   2.369   4.137   7.134 -0.1637  0.1232  0.1698
   47POPC   C1A  870   2.747   3.770   6.733  0.2849 -0.1135  0.1982
   47POPC   D2A  871   2.694   3.858   6.256  0.1696  0.2873 -0.0591
   47POPC   C3A  872   2.386   3.521   5.966  0.0288 -0.1153 -0.0866
   47POPC   C4A  873   2.148   3.344   5.578  0.3411 -0.0091 -0.0184
   47POPC   C1B  874   2.318   3.990   6.762 -0.2011 -0.0343 -0.1193
   47POPC   C2B  875   2.298   4.078   6.305  0.3895 -0.1631  0.0211
   47POPC   C3B  876   2.294   4.037   5.852  0.0167 -0.2893 -0.1851
   47POPC   C4B  877   2.485   3.707   5.524  0.1490  0.0054  0.1740
   48POPC   NC3  878   7.357   8.331   8.352  0.1885 -0.0102 -0.0546
   48POPC   PO4  879   7.107   8.105   7.998  0.0677 -0.1016 -0.2664
   48POPC   GL1  880   7.253   8.112   7.533  0.0543 -0.1170  0.1156
   48POPC   GL2  881   7.551   8.035   7.382  0.1049 -0.0755  0.0107
   48POPC   C1A  882   7.208   8.135   6.992  0.0626  0.2528 -0.0038
   48POPC   D2A  883   7.480   8.023   6.649  0.1929 -0.0511  0.2054
   48POPC   C3A  884   7.474   7.686   6.381 -0.1874  0.2231 -0.0880
   48POPC   C4A  885   7.091   7.708   6.192  0.2347  0.0448  0.1253
   48POPC   C1B  886   7.456   7.670   7.104 -0.0359  0.1881  0.0669
   48POPC   C2B  887   7.712   7.511   6.752  0.1942  0.2046 -0.0817
   48POPC   C3B  888   7.790   7.105   6.644 -0.0679  0.0265  0.0042
   48POPC   C4B  889   8.130   6.762   6.713 -0.2389  0.1335 -0.2016
   49POPC   NC3  890   3.251   5.530   8.139  0.1657 -0.0040 -0.2811
   49POPC   PO4  891   3.560   5.719   7.777 -0.3127  0.1255  0.0157
   49POPC   GL1  892   3.379   5.809   7.417  0.0515  0.1283 -0.0751
   49POPC   GL2  893   3.123   5.704   7.232  0.0440  0.1533 -0.0573
   49POPC   C1A  894   3.537   5.821   6.928 -0.1524 -0.1286  0.3232
   49POPC   D2A  895   3.620   5.585   6.539 -0.1421  0.1689  0.1618
   49POPC   C3A  896   4.000   5.730   6.508  0.3996  0.6532  0.2556
   49POPC   C4A  897   4.148   6.023   6.205 -0.0191  0.1152 -0.1514
   49POPC   C1B  898   2.940   5.896   6.858  0.1404  0.2864 -0.0953
   49POPC   C2B  899   2.748   5.902   6.487 -0.0146 -0.2536  0.2986
   49POPC   C3B  900   2.773   5.652   6.143  0.1710  0.1873  0.0422
   49POPC   C4B  901   3.179   5.522   5.996  0.0931 -0.2058 -0.1173
   50POPC   NC3  902   9.229   5.205   8.402  0.0379  0.0934  0.1725
   50POPC   PO4  903   9.250   5.605   8.118 -0.0391 -0.2270 -0.2169
   50POPC   GL1  904   9.429   5.706   7.733 -0.0353 -0.1421 -0.2556
   50POPC   GL2  905   9.138   5.821   7.491  0.1166  0.0126  0.0752
   50POPC   C1A  906   9.631   5.737   7.335 -0.0283  0.0211 -0.2612
   50POPC   D2A  907   9.477   5.830   6.915 -0.0467 -0.1269  0.3696
   50POPC   C3A  908   9.805   5.887   6.531 -0.0513  0.4821 -0.1873
   50POPC   C4A  909  10.222   5.882   6.287 -0.2888 -0.0536  0.0384
   50POPC   C1B  910   8.979   5.739   7.059  0.0028 -0.3499  0.1068
   50POPC   C2B  911   8.818   5.658   6.741  0.1583  0.1459 -0.0182
   50POPC   C3B  912   8.823   5.463   6.326  0.0225  0.1208  0.2154
   50POPC   C4B  913   8.658   5.281   5.911  0.2407 -0.0438 -0.0147
   51POPC   NC3  914   2.314   5.314   7.345  0.0757 -0.0424 -0.0590
   51POPC   PO4  915   2.450   4.806   7.199 -0.1744  0.1005 -0.3061
   51POPC   GL1  916   2.629   4.656   6.779 -0.0624 -0.3858  0.0874
   51POPC   GL2  917   2.676   4.298   6.641 -0.1733  0.1553 -0.1799
   51POPC   C1A  918   2.876   4.718   6.393 -0.0333  0.2359 -0.1853
   51POPC   D2A  919   2.695   4.413   6.077 -0.1611 -0.1322  0.1912
   51POPC   C3A  920   2.939   4.028   5.889  0.4289  0.2706  0.1463
   51POPC   C4A  921   2.996   3.622   5.888  0.2072 -0.2577 -0.1780
   51POPC   C1B  922   3.063   4.260   6.441 -0.3242 -0.1609 -0.1028
   51POPC   C2B  923   3.350   4.652   6.290  0.1890 -0.2162  0.1192
   51POPC   C3B  924   3.669   4.757   6.128 -0.3302  0.3550  0.1405
   51POPC   C4B  925   4.057   4.614   5.960 -0.1100  0.2237 -0.0268
   52POPC   NC3  926   9.715   8.542   8.241  0.2546  0.0029  0.2484
   52POPC   PO4  927   9.373   8.524   7.999 -0.2280  0.1638 -0.0983
   52POPC   GL1  928   9.295   8.622   7.596 -0.0636 -0.1202 -0.0974
   52POPC   GL2  929   9.038   8.765   7.415 -0.0583 -0.0991 -0.0163
   52POPC   C1A  930   9.539   8.983   7.528 -0.0953  0.1650  0.0076
   52POPC   D2A  931   9.383   9.284   7.404  0.0202 -0.1478 -0.0412
   52POPC   C3A  932   9.179   9.227   7.052 -0.0752  0.0334  0.0690
   52POPC   C4A  933   9.299   9.190   6.690  0.0578  0.3252 -0.0144
   52POPC   C1B  934   9.403   8.766   7.061 -0.0982  0.0546 -0.0094
   52POPC   C2B  935   9.625   8.764   6.665 -0.0390 -0.2042 -0.2006
   52POPC   C3B  936   9.652   8.932   6.223 -0.1940 -0.1303  0.0106
   52POPC   C4B  937   9.619   8.862   5.809 -0.2075  0.1284  0.0768
   53POPC   NC3  938   4.997   6.498   7.796  0.0465  0.0595  0.3088
   53POPC   PO4  939   4.626   6.369   7.517 -0.0662 -0.0780 -0.0328
   53POPC   GL1  940   4.826   6.454   7.051  0.0537  0.0625 -0.1496
   53POPC   GL2  941   4.780   6.751   6.902  0.0454  0.1164  0.0466
   53POPC   C1A  942   4.913   6.386   6.600  0.0773  0.0492 -0.2863
   53POPC   D2A  943   5.220   6.238   6.287 -0.3874 -0.1184  0.0233
   53POPC   C3A  944   5.525   5.955   6.483  0.1044 -0.1830 -0.3992
   53POPC   C4A  945   5.803   5.942   6.764 -0.0116  0.0681  0.2633
   53POPC   C1B  946   4.467   7.081   6.791 -0.2024 -0.1130 -0.1841
   53POPC   C2B  947   4.227   7.225   6.351  0.2061 -0.1778  0.1848
   53POPC   C3B  948   4.019   6.934   5.990 -0.0881 -0.5046 -0.0541
   53POPC   C4B  949   3.611   6.776   6.036 -0.0982 -0.0877  0.1679
   54POPC   NC3  950   1.422   1.297   7.964  0.0333  0.1363  0.3489
   54POPC   PO4  951   1.072   1.198   8.171  0.0463  0.2238  0.0014
   54POPC   GL1  952   0.998   1.295   7.719  0.2733  0.2235 -0.0791
   54POPC   GL2  953   1.265   1.332   7.444  0.0339 -0.0025 -0.1425
   54POPC   C1A  954   0.825   1.037   7.357 -0.0996 -0.2510 -0.3445
   54POPC   D2A  955   0.689   0.528   7.239 -0.2642 -0.4004 -0.0706
   54POPC   C3A  956   0.928   0.382   7.044 -0.3402  0.3742  0.0384
   54POPC   C4A  957   1.334   0.171   6.970  0.0270 -0.3449  0.0553
   54POPC   C1B  958   1.458   1.410   7.073 -0.1058  0.1148  0.1223
   54POPC   C2B  959   1.510   1.270   6.683 -0.3433  0.1689  0.3413
   54POPC   C3B  960   1.443   0.962   6.494 -0.1690  0.1931 -0.0612
   54POPC   C4B  961   1.327   0.718   6.136  0.1020  0.1158 -0.2521
   55POPC   NC3  962   2.612   0.628   8.342  0.1410 -0.0692  0.0493
   55POPC   PO4  963   2.768   0.914   8.035 -0.0003  0.3512  0.0995
   55POPC   GL1  964   2.729   0.660   7.704 -0.2026  0.0858 -0.1846
   55POPC   GL2  965   2.892   0.853   7.499  0.2615 -0.0361 -0.1810
   55POPC   C1A  966   2.673   0.436   7.357 -0.0401 -0.1758 -0.0586
   55POPC   D2A  967   2.623  -0.060   7.223 -0.2882  0.1461  0.1991
   55POPC   C3A  968   2.764  -0.327   6.924 -0.1309 -0.1567 -0.1805
   55POPC   C4A  969   2.798  -0.297   6.508  0.2736 -0.3834  0.1497
   55POPC   C1B  970   2.885   0.828   7.055  0.0584  0.3594  0.0636
   55POPC   C2B  971   2.866   0.970   6.711  0.0369 -0.2800  0.1366
   55POPC   C3B  972   2.833   0.784   6.192  0.0455  0.0747 -0.1951
   55POPC   C4B  973   2.572   0.404   6.144 -0.0432  0.0587  0.1556
   56POPC   NC3  974   8.803   3.951   8.407 -0.3594  0.2189 -0.1790
   56POPC   PO4  975   8.687   3.883   7.969 -0.2001 -0.2302  0.1561
   56POPC   GL1  976   8.710   4.038   7.630 -0.0217 -0.0913  0.4577
   56POPC   GL2  977   8.950   3.965   7.497  0.2484 -0.2483 -0.0146
   56POPC   C1A  978   8.541   4.229   7.293  0.0673  0.1389  0.0994
   56POPC   D2A  979   8.753   4.456   6.922 -0.0806  0.0188 -0.0483
   56POPC   C3A  980   8.898   4.578   6.487 -0.2346 -0.0490  0.0881
   56POPC   C4A  981   8.893   4.824   6.179 -0.0450  0.0368  0.0482
   56POPC   C1B  982   8.896   3.873   7.100 -0.0615  0.0978 -0.2809
   56POPC   C2B  983   8.659   3.922   6.894  0.0443 -0.2209 -0.0347
   56POPC   C3B  984   8.698   4.086   6.451  0.2564  0.1293 -0.0696
   56POPC   C4B  985   8.814   3.935   6.085 -0.0121  0.0343 -0.0140
   57POPC   NC3  986   9.640   0.582   8.185 -0.1557 -0.1219 -0.1454
   57POPC   PO4  987   9.956   0.224   8.267  0.3754 -0.0019  0.0776
   57POPC   GL1  988   9.954   0.292   7.812  0.1498  0.1454  0.0927
   57POPC   GL2  989   9.765   0.653   7.696  0.0345  0.1038  0.2337
   57POPC   C1A  990   9.988   0.234   7.436  0.1322  0.0269  0.2969
   57POPC   D2A  991  10.040   0.171   7.016 -0.1493 -0.2000  0.1741
   57POPC   C3A  992  10.223   0.416   6.730 -0.2444 -0.0262  0.4283
   57POPC   C4A  993  10.372   0.755   6.492 -0.2383  0.0398  0.1041
   57POPC   C1B  994   9.699   1.014   7.445 -0.1098 -0.1402 -0.0884
   57POPC   C2B  995   9.641   1.069   7.032 -0.2110 -0.1009  0.0168
   57POPC   C3B  996   9.530   0.877   6.591  0.0708  0.0461  0.0557
   57POPC   C4B  997   9.168   1.213   6.347 -0.1777 -0.0816  0.1173
   58POPC   NC3  998   3.229   1.887   7.620  0.1134  0.0447 -0.1437
   58POPC   PO4  999   3.407   1.412   7.403 -0.0042  0.1480  0.1272
   58POPC   GL1 1000   3.165   1.678   7.090 -0.1693 -0.0781  0.1331
   58POPC   GL2 1001   2.905   1.844   7.130 -0.0712 -0.2350 -0.0061
   58POPC   C1A 1002   3.106   2.047   6.772 -0.0356 -0.1409 -0.0339
   58POPC   D2A 1003   3.382   2.230   6.465  0.1719  0.2571  0.0064
   58POPC   C3A 1004   3.604   1.857   6.274 -0.0079 -0.1302  0.1662
   58POPC   C4A 1005   3.835   1.667   5.963  0.1501  0.0402  0.1292
   58POPC   C1B 1006   2.816   1.475   6.789  0.0734  0.0156 -0.1143
   58POPC   C2B 1007   2.773   1.318   6.359 -0.1572 -0.2076 -0.2382
   58POPC   C3B 1008   2.792   1.155   5.829 -0.0886 -0.1111 -0.2323
   58POPC   C4B 1009   2.514   1.202   5.473  0.2291  0.0607  0.2080
   59POPC   NC3 1010   7.848   4.920   7.997 -0.0173  0.0843 -0.0642
   59POPC   PO4 1011   8.182   4.650   7.957 -0.0209  0.1729  0.0284
   59POPC   GL1 1012   8.021   4.781   7.588 -0.1745 -0.1354  0.2973
   59POPC   GL2 1013   7.842   4.532   7.373 -0.0537  0.0163 -0.2104
   59POPC   C1A 1014   8.263   4.758   7.133 -0.3681  0.0754 -0.0113
   59POPC   D2A 1015   8.492   4.861   6.752 -0.1234 -0.1855  0.2703
   59POPC   C3A 1016   8.766   5.065   6.621  0.1400 -0.3183  0.1180
   59POPC   C4A 1017   9.161   5.291   6.783 -0.2180  0.0893 -0.1113
   59POPC   C1B 1018   7.999   4.278   7.106  0.1727  0.0849  0.2946
   59POPC   C2B 1019   8.313   4.333   6.685  0.1305 -0.1299  0.0474
   59POPC   C3B 1020   8.274   4.346   6.218  0.1953  0.2197  0.1416
   59POPC   C4B 1021   8.404   4.226   5.790 -0.2222 -0.1206  0.2107
   60POPC   NC3 1022   8.129   8.008   8.054  0.0769  0.0890  0.0248
   60POPC   PO4 1023   8.029   8.261   7.666 -0.0229 -0.0462 -0.0421
   60POPC   GL1 1024   8.033   8.452   7.246  0.1817 -0.0805 -0.0198
   60POPC   GL2 1025   8.276   8.316   7.125 -0.2592  0.1779  0.0325
   60POPC   C1A 1026   7.795   8.283   6.871  0.0045 -0.0584  0.2421
   60POPC   D2A 1027   7.620   8.463   6.463 -0.0176 -0.1748 -0.1202
   60POPC   C3A 1028   7.419   8.906   6.463  0.0053  0.0907  0.0490
   60POPC   C4A 1029   7.255   9.304   6.458 -0.1175  0.2169 -0.0805
   60POPC   C1B 1030   8.256   8.102   6.777  0.1824 -0.2350  0.1787
   60POPC   C2B 1031   8.004   7.907   6.427 -0.0500  0.2178  0.1339
   60POPC   C3B 1032   7.929   7.540   6.142  0.1051  0.0093  0.3153
   60POPC   C4B 1033   7.723   7.713   5.838 -0.6334  0.2365  0.2911
   61POPC   NC3 1034   4.884   2.686   7.901  0.0875  0.1202  0.1338
   61POPC   PO4 1035   4.558   2.311   7.734  0.1174  0.1540 -0.0126
   61POPC   GL1 1036   4.560   2.276   7.248 -0.1646 -0.1328 -0.2767
   61POPC   GL2 1037   4.593   2.007   7.104  0.2753  0.0692  0.1037
   61POPC   C1A 1038   4.871   2.349   6.866  0.0817  0.1477  0.0522
   61POPC   D2A 1039   4.852   2.606   6.525 -0.1940  0.3111 -0.1317
   61POPC   C3A 1040   4.989   2.833   6.161 -0.4686  0.1483  0.0431
   61POPC   C4A 1041   5.392   3.041   5.922  0.0083  0.0219 -0.2487
   61POPC   C1B 1042   4.593   1.886   6.672 -0.0123 -0.1034  0.0099
   61POPC   C2B 1043   4.516   1.493   6.369 -0.0687  0.3565  0.0584
   61POPC   C3B 1044   4.224   1.362   6.068 -0.1636  0.3295  0.5937
   61POPC   C4B 1045   3.948   1.304   5.660  0.2282 -0.1531 -0.2862
   62POPC   NC3 1046   6.796   6.033   8.211 -0.1240  0.0643 -0.3555
   62POPC   PO4 1047   6.536   6.328   8.017  0.1332  0.0686  0.0105
   62POPC   GL1 1048   6.524   6.202   7.517 -0.1910 -0.0043 -0.0542
   62POPC   GL2 1049   6.581   6.382   7.249 -0.1923 -0.2938 -0.1255
   62POPC   C1A 1050   6.628   5.814   7.357 -0.2894  0.0467 -0.0080
   62POPC   D2A 1051   6.464   5.457   7.148  0.0275  0.0286 -0.4409
   62POPC   C3A 1052   6.120   5.595   6.967 -0.0447  0.0835  0.0198
   62POPC   C4A 1053   5.662   5.543   7.094  0.3252 -0.0651  0.0798
   62POPC   C1B 1054   6.636   6.329   6.750  0.1121 -0.1538  0.3463
   62POPC   C2B 1055   6.564   6.228   6.422 -0.0584  0.4499  0.0105
   62POPC   C3B 1056   6.668   5.856   6.036 -0.1451 -0.0343 -0.1037
   62POPC   C4B 1057   6.998   5.484   5.723  0.3415  0.0497 -0.3041
   63POPC   NC3 1058   8.986  10.492   8.334  0.1865 -0.2184  0.0052
   63POPC   PO4 1059   8.932  10.232   7.958 -0.3971 -0.1392 -0.0397
   63POPC   GL1 1060   9.191  10.359   7.582  0.2094 -0.0154  0.2359
   63POPC   GL2 1061   9.418  10.127   7.510 -0.6444 -0.1350  0.3217
   63POPC   C1A 1062   9.006  10.448   7.212  0.1681  0.1942  0.2365
   63POPC   D2A 1063   9.207  10.572   6.762 -0.1361  0.3140 -0.0851
   63POPC   C3A 1064   9.489  10.683   6.438  0.0478 -0.1077 -0.1615
   63POPC   C4A 1065   9.587  10.581   6.037 -0.3604 -0.0654 -0.0542
   63POPC   C1B 1066   9.556  10.245   7.076 -0.0961  0.2945 -0.0525
   63POPC   C2B 1067   9.800  10.503   6.746  0.0654 -0.0817  0.2712
   63POPC   C3B 1068  10.055  10.715   6.486  0.3474  0.1476  0.0206
   63POPC   C4B 1069  10.113  10.785   6.129 -0.0987  0.1889 -0.2438
   64POPC   NC3 1070   9.077   9.779   7.944 -0.1472 -0.0574 -0.1680
   64POPC   PO4 1071   8.975   9.414   7.644 -0.1834 -0.1823  0.3010
   64POPC   GL1 1072   8.770   9.531   7.303 -0.5161 -0.0124 -0.1373
   64POPC   GL2 1073   8.607   9.293   7.131  0.4037 -0.4098  0.0752
   64POPC   C1A 1074   8.902   9.652   6.863 -0.1626  0.4385 -0.3804
   64POPC   D2A 1075   8.701   9.619   6.507  0.0338 -0.1593 -0.0384
   64POPC   C3A 1076   8.914   9.514   6.023  0.1113 -0.2874 -0.0596
   64POPC   C4A 1077   8.681   9.848   5.739  0.0014 -0.1817  0.0313
   64POPC   C1B 1078   8.754   9.109   6.784  0.1125 -0.1199 -0.2085
   64POPC   C2B 1079   8.868   9.106   6.376 -0.3372 -0.0276 -0.2077
   64POPC   C3B 1080   9.152   9.096   6.118  0.1338  0.0384  0.1666
   64POPC   C4B 1081   9.257   9.165   5.777  0.0499 -0.0340  0.0444
   65POPC   NC3 1082   0.830   6.570   8.310 -0.2363 -0.0475  0.0684
   65POPC   PO4 1083   0.567   6.670   8.063 -0.0230 -0.2233  0.1667
   65POPC   GL1 1084   0.511   6.888   7.610  0.0461 -0.0227  0.0681
   65POPC   GL2 1085   0.624   6.668   7.367  0.0253  0.0417  0.2748
   65POPC   C1A 1086   0.451   7.136   7.268 -0.0459  0.3676  0.0798
   65POPC   D2A 1087   0.535   7.518   6.980 -0.0706  0.0280  0.0361
   65POPC   C3A 1088   0.690   7.492   6.610  0.1755 -0.1285  0.1599
   65POPC   C4A 1089   1.040   7.729   6.361  0.1378  0.0825 -0.2328
   65POPC   C1B 1090   0.808   6.885   6.996  0.0137 -0.3670  0.2454
   65POPC   C2B 1091   0.790   6.859   6.503  0.0293 -0.3136 -0.1122
   65POPC   C3B 1092   0.844   6.713   6.049 -0.1121  0.3211  0.1838
   65POPC   C4B 1093   0.944   6.310   5.796  0.1194 -0.1122 -0.2364
   66POPC   NC3 1094   7.402   7.279   8.367  0.3054  0.1071 -0.2146
   66POPC   PO4 1095   7.583   7.158   7.943  0.4142  0.0013  0.1166
   66POPC   GL1 1096   7.726   7.168   7.499  0.1876 -0.1794 -0.0281
   66POPC   GL2 1097   8.112   7.143   7.522  0.2668  0.0162 -0.1099
   66POPC   C1A 1098   7.895   7.240   7.093  0.2095  0.1430 -0.2798
   66POPC   D2A 1099   8.200   7.313   6.787 -0.0835  0.1722 -0.1850
   66POPC   C3A 1100   8.239   7.322   6.406  0.4595 -0.2054  0.1438
   66POPC   C4A 1101   8.517   7.320   6.032 -0.0955 -0.1537  0.0483
   66POPC   C1B 1102   8.401   7.201   7.210 -0.1125 -0.1064 -0.2231
   66POPC   C2B 1103   8.807   7.311   7.078 -0.3343  0.1339  0.3218
   66POPC   C3B 1104   9.212   7.232   6.871 -0.1423  0.1936  0.0557
   66POPC   C4B 1105   9.569   7.178   6.831  0.0768  0.2466 -0.1781
   67POPC   NC3 1106   5.205  10.219   8.272 -0.0823  0.0445  0.2739
   67POPC   PO4 1107   5.228  10.014   7.773  0.2647 -0.2970 -0.1992
   67POPC   GL1 1108   5.294   9.852   7.301 -0.3362 -0.1656  0.0698
   67POPC   GL2 1109   4.991   9.811   7.073 -0.0493  0.0138 -0.0311
   67POPC   C1A 1110   5.516   9.915   6.863  0.3592 -0.3030  0.0450
   67POPC   D2A 1111   5.364   9.767   6.467 -0.0660  0.0454 -0.0986
   67POPC   C3A 1112   5.233   9.866   6.047  0.1195  0.2693 -0.0262
   67POPC   C4A 1113   4.966   9.550   5.947  0.1960  0.1564 -0.1183
   67POPC   C1B 1114   4.850  10.153   7.069 -0.3533 -0.3233  0.2496
   67POPC   C2B 1115   4.894  10.533   6.967 -0.0187  0.1941  0.4566
   67POPC   C3B 1116   5.225  10.848   6.704  0.2110 -0.0452  0.0147
   67POPC   C4B 1117   5.468  10.641   6.405  0.0203  0.2825  0.3072
   68POPC   NC3 1118   4.036   9.395   7.840  0.0071  0.0292 -0.0454
   68POPC   PO4 1119   3.791   9.069   8.004  0.1093  0.1979 -0.2329
   68POPC   GL1 1120   3.842   9.051   7.558  0.0488 -0.2408 -0.3719
   68POPC   GL2 1121   3.492   9.217   7.550 -0.1789 -0.0296 -0.0631
   68POPC   C1A 1122   4.022   9.145   7.127 -0.2163  0.0066 -0.0968
   68POPC   D2A 1123   3.937   9.127   6.693 -0.0257  0.1022 -0.0629
   68POPC   C3A 1124   3.695   9.496   6.537 -0.0782  0.1261 -0.2007
   68POPC   C4A 1125   3.271   9.494   6.341  0.1541  0.1468 -0.0910
   68POPC   C1B 1126   3.253   8.831   7.169 -0.6132 -0.1983 -0.0616
   68POPC   C2B 1127   3.363   8.526   6.722 -0.0559  0.0793  0.4088
   68POPC   C3B 1128   3.119   8.474   6.300 -0.1038  0.0497 -0.0061
   68POPC   C4B 1129   2.833   8.384   5.888  0.2444  0.3060 -0.1013
   69POPC   NC3 1130   1.415   2.139   8.120 -0.1003  0.1496  0.0305
   69POPC   PO4 1131   1.520   2.391   7.721  0.2291  0.2137  0.0280
   69POPC   GL1 1132   1.362   2.492   7.270 -0.0593  0.0388 -0.5842
   69POPC   GL2 1133   1.512   2.500   7.008 -0.1014 -0.1230 -0.2727
   69POPC   C1A 1134   1.072   2.259   6.974  0.0702  0.3257 -0.0033
   69POPC   D2A 1135   0.782   2.189   6.531  0.0410 -0.0234  0.0548
   69POPC   C3A 1136   0.647   1.792   6.384 -0.2642  0.2661  0.0208
   69POPC   C4A 1137   0.540   1.407   6.124 -0.0719 -0.0286  0.0927
   69POPC   C1B 1138   1.473   2.342   6.568  0.1355  0.2476  0.2894
   69POPC   C2B 1139   1.199   2.008   6.254 -0.1142 -0.1417  0.0585
   69POPC   C3B 1140   1.193   1.806   5.927  0.2396 -0.0993  0.0402
   69POPC   C4B 1141   0.762   1.708   5.670 -0.0879 -0.1731  0.1060
   70POPC   NC3 1142   5.317   1.083   7.732  0.0382  0.3441  0.1943
   70POPC   PO4 1143   5.279   0.920   7.292 -0.0727  0.0265  0.2216
   70POPC   GL1 1144   5.198   0.701   6.883  0.2288  0.2396 -0.0354
   70POPC   GL2 1145   4.876   0.751   6.807  0.1813  0.2863 -0.5101
   70POPC   C1A 1146   5.290   0.565   6.373  0.1260 -0.4085  0.0284
   70POPC   D2A 1147   5.361   0.875   5.980 -0.1387 -0.3627 -0.0695
   70POPC   C3A 1148   5.474   1.253   6.153 -0.1067  0.2288  0.1035
   70POPC   C4A 1149   5.640   1.620   6.119 -0.1120  0.3114 -0.0417
   70POPC   C1B 1150   4.808   0.670   6.377 -0.0317  0.1261  0.0515
   70POPC   C2B 1151   4.874   0.998   6.011  0.1561 -0.1015 -0.0281
   70POPC   C3B 1152   4.955   1.392   5.915 -0.3407 -0.3503 -0.1103
   70POPC   C4B 1153   4.791   1.775   5.978 -0.1382  0.2456 -0.2355
   71POPC   NC3 1154   6.717   3.178   7.755  0.2155 -0.0870 -0.1222
   71POPC   PO4 1155   6.286   3.315   7.839 -0.0671  0.2595 -0.2337
   71POPC   GL1 1156   6.383   3.557   7.482 -0.3237  0.2416 -0.1595
   71POPC   GL2 1157   6.403   3.213   7.354 -0.1341  0.5838  0.2379
   71POPC   C1A 1158   6.310   3.806   7.099 -0.0217  0.1534 -0.0941
   71POPC   D2A 1159   6.562   3.951   6.684  0.0827  0.4662  0.1751
   71POPC   C3A 1160   6.878   3.603   6.491 -0.1832 -0.3775 -0.2175
   71POPC   C4A 1161   7.029   3.584   6.044  0.3047  0.2945  0.0247
   71POPC   C1B 1162   6.251   3.364   6.921  0.2065  0.0729  0.0584
   71POPC   C2B 1163   6.466   3.350   6.549  0.1612  0.0508 -0.2257
   71POPC   C3B 1164   6.485   3.390   6.124 -0.1858 -0.1264 -0.0539
   71POPC   C4B 1165   6.593   3.688   5.765  0.2116  0.1949 -0.0383
   72POPC   NC3 1166   1.871   2.682   7.391  0.1178  0.0373  0.0733
   72POPC   PO4 1167   2.207   2.466   7.308  0.2623 -0.3545  0.3127
   72POPC   GL1 1168   2.039   2.368   6.897  0.0437  0.3100  0.0064
   72POPC   GL2 1169   1.943   2.097   6.996  0.3234 -0.1429  0.2355
   72POPC   C1A 1170   1.974   2.191   6.430  0.1652  0.2748 -0.0873
   72POPC   D2A 1171   1.898   1.847   6.172  0.0792 -0.0270  0.1022
   72POPC   C3A 1172   2.119   1.793   5.815  0.1516 -0.3939 -0.2273
   72POPC   C4A 1173   1.931   1.567   5.467  0.3039  0.2460 -0.0521
   72POPC   C1B 1174   2.380   2.032   6.674 -0.1259  0.0258 -0.0108
   72POPC   C2B 1175   2.704   1.860   6.485  0.1152  0.2574 -0.1784
   72POPC   C3B 1176   3.136   1.715   6.394 -0.2397  0.2251 -0.0409
   72POPC   C4B 1177   3.223   1.382   6.508 -0.1962  0.1108 -0.0984
   73POPC   NC3 1178   6.412   1.401   8.028  0.0775  0.0152 -0.0386
   73POPC   PO4 1179   6.316   1.017   7.938 -0.0929 -0.0053  0.2025
   73POPC   GL1 1180   6.526   1.271   7.555  0.0675  0.0040 -0.1561
   73POPC   GL2 1181   6.761   1.213   7.329  0.0728 -0.4432  0.0933
   73POPC   C1A 1182   6.383   1.226   7.037  0.1500 -0.0019 -0.1998
   73POPC   D2A 1183   6.028   0.876   6.831 -0.1115  0.3885  0.1050
   73POPC   C3A 1184   5.570   1.094   6.656 -0.0782 -0.0062 -0.0519
   73POPC   C4A 1185   5.156   1.148   6.588 -0.0155  0.3330  0.0579
   73POPC   C1B 1186   6.841   1.447   7.009 -0.1547  0.0932  0.0619
   73POPC   C2B 1187   6.988   1.513   6.561 -0.0092  0.1177 -0.1523
   73POPC   C3B 1188   7.203   1.806   6.290 -0.2112 -0.0283 -0.2505
   73POPC   C4B 1189   6.991   2.113   6.108  0.2290 -0.1343 -0.3758
   74POPC   NC3 1190   1.070   3.136   7.926 -0.2046  0.0317  0.2429
   74POPC   PO4 1191   1.033   3.154   7.362  0.1993 -0.2886 -0.0041
   74POPC   GL1 1192   1.240   2.989   7.059 -0.0750 -0.1055  0.1661
   74POPC   GL2 1193   1.577   2.994   7.092 -0.2775  0.0010  0.2048
   74POPC   C1A 1194   1.211   2.794   6.657  0.0686 -0.1217 -0.0288
   74POPC   D2A 1195   1.062   2.569   6.296  0.0013  0.0475 -0.1270
   74POPC   C3A 1196   0.791   2.661   5.887  0.0553 -0.0534 -0.2188
   74POPC   C4A 1197   0.550   2.648   5.587 -0.4121 -0.1467  0.1653
   74POPC   C1B 1198   1.614   3.148   6.641 -0.0181 -0.0410 -0.1738
   74POPC   C2B 1199   1.779   3.120   6.218 -0.0817  0.1478 -0.3458
   74POPC   C3B 1200   1.863   2.954   5.863  0.2368 -0.0130 -0.0951
   74POPC   C4B 1201   1.825   2.944   5.469  0.1158  0.1455  0.0157
   75POPC   NC3 1202   7.800   1.914   7.934  0.1811  0.1657  0.2145
   75POPC   PO4 1203   8.121   2.321   7.921  0.1088  0.0005  0.2038
   75POPC   GL1 1204   7.826   2.356   7.654 -0.3661  0.1174  0.2563
   75POPC   GL2 1205   7.725   2.657   7.686 -0.0209  0.0022  0.4138
   75POPC   C1A 1206   7.879   2.332   7.174 -0.1889  0.0376 -0.0550
   75POPC   D2A 1207   7.966   2.413   6.788 -0.2427  0.2175  0.0792
   75POPC   C3A 1208   8.369   2.442   6.560  0.1803  0.0138 -0.1743
   75POPC   C4A 1209   8.810   2.508   6.556 -0.3404  0.1294  0.0236
   75POPC   C1B 1210   7.958   2.773   7.316  0.0933  0.0514 -0.2120
   75POPC   C2B 1211   7.791   2.920   6.883  0.2774 -0.2434 -0.2689
   75POPC   C3B 1212   7.627   3.022   6.458 -0.1581  0.3092  0.0949
   75POPC   C4B 1213   7.675   2.855   6.022  0.1759 -0.0045  0.3005
   76POPC   NC3 1214  10.413   6.919   8.328  0.0562 -0.2464  0.0619
   76POPC   PO4 1215  10.580   6.540   8.225 -0.1809 -0.2194  0.1857
   76POPC   GL1 1216  10.467   6.708   7.830 -0.4093 -0.0347  0.0287
   76POPC   GL2 1217  10.319   6.590   7.606  0.1038  0.0185  0.3545
   76POPC   C1A 1218  10.704   6.793   7.422 -0.1044 -0.0991 -0.1061
   76POPC   D2A 1219  10.918   6.765   7.014 -0.0816  0.1533  0.1565
   76POPC   C3A 1220  11.028   7.111   6.747  0.0511  0.2246  0.0599
   76POPC   C4A 1221  11.066   7.176   6.208 -0.0486  0.3378  0.0730
   76POPC   C1B 1222  10.410   6.457   7.169  0.3448 -0.0604 -0.0005
   76POPC   C2B 1223  10.457   6.647   6.784 -0.0827  0.1318  0.1239
   76POPC   C3B 1224  10.579   7.008   6.462 -0.2694  0.2306  0.1915
   76POPC   C4B 1225  10.562   7.174   6.066  0.2016 -0.1642 -0.2431
   77POPC   NC3 1226   3.764   1.155   7.719 -0.2631  0.1607  0.1214
   77POPC   PO4 1227   3.494   0.860   7.359  0.2845  0.0526 -0.5783
   77POPC   GL1 1228   3.493   0.692   6.908 -0.0727 -0.3335  0.0909
   77POPC   GL2 1229   3.240   0.678   6.632  0.0042 -0.2205 -0.1411
   77POPC   C1A 1230   3.788   0.685   6.518  0.0467 -0.0358 -0.0874
   77POPC   D2A 1231   3.875   0.296   6.350 -0.0013  0.2362 -0.1912
   77POPC   C3A 1232   3.983   0.273   5.946  0.2102  0.0633 -0.2293
   77POPC   C4A 1233   3.875  -0.048   5.773 -0.0669 -0.1202  0.0660
   77POPC   C1B 1234   3.270   0.958   6.298  0.1097 -0.2210 -0.2108
   77POPC   C2B 1235   3.315   0.998   5.899 -0.0908 -0.2184  0.0494
   77POPC   C3B 1236   3.544   1.039   5.553 -0.0167 -0.3449 -0.0515
   77POPC   C4B 1237   3.824   0.883   5.280  0.1017  0.1397  0.3208
   78POPC   NC3 1238   8.352   1.675   8.431 -0.0663  0.0421  0.1621
   78POPC   PO4 1239   8.332   1.903   8.075 -0.2610  0.2642  0.0547
   78POPC   GL1 1240   8.298   1.891   7.637 -0.0004 -0.2135  0.0165
   78POPC   GL2 1241   7.986   1.900   7.461  0.0510 -0.1808 -0.1486
   78POPC   C1A 1242   8.551   1.613   7.391  0.1257 -0.1009  0.1025
   78POPC   D2A 1243   8.679   1.313   7.078  0.0114 -0.0401  0.4153
   78POPC   C3A 1244   8.884   1.525   6.747 -0.1699 -0.0507 -0.2502
   78POPC   C4A 1245   9.114   1.783   6.378  0.0674 -0.0097 -0.0918
   78POPC   C1B 1246   7.787   1.835   7.048 -0.3188  0.1470 -0.2534
   78POPC   C2B 1247   7.760   1.879   6.577 -0.2361 -0.0409 -0.0962
   78POPC   C3B 1248   7.710   1.852   6.130  0.0661 -0.2408  0.1319
   78POPC   C4B 1249   7.424   2.041   5.867  0.2445  0.0940 -0.2257
   79POPC   NC3 1250   6.447   9.323   7.736  0.0183 -0.0555  0.1174
   79POPC   PO4 1251   6.611   9.745   7.818 -0.0013  0.1368  0.2132
   79POPC   GL1 1252   6.529  10.100   7.408  0.0785 -0.0178  0.0442
   79POPC   GL2 1253   6.726  10.317   7.263  0.0554 -0.1492  0.0529
   79POPC   C1A 1254   6.556  10.218   6.878  0.3015 -0.0238  0.1681
   79POPC   D2A 1255   6.755  10.346   6.459 -0.4156  0.1671 -0.3376
   79POPC   C3A 1256   6.529  10.389   6.085  0.3355  0.0278 -0.1518
   79POPC   C4A 1257   6.221  10.459   5.762 -0.2543  0.2589  0.0292
   79POPC   C1B 1258   6.888  10.654   6.965  0.3828 -0.0858  0.0976
   79POPC   C2B 1259   7.218  10.620   6.626 -0.0108 -0.2946 -0.0914
   79POPC   C3B 1260   7.665  10.686   6.559  0.2683 -0.0166 -0.0755
   79POPC   C4B 1261   7.856  10.443   6.349  0.0335 -0.2465  0.0775
   80POPC   NC3 1262   9.898   7.448   7.894  0.0201  0.1175 -0.0926
   80POPC   PO4 1263  10.242   7.160   7.912  0.0135 -0.0176 -0.1903
   80POPC   GL1 1264  10.226   7.094   7.531  0.3594  0.1117 -0.2685
   80POPC   GL2 1265   9.961   7.315   7.428  0.0217  0.2113 -0.1941
   80POPC   C1A 1266  10.087   6.904   7.137 -0.0939 -0.0327  0.0426
   80POPC   D2A 1267   9.842   6.793   6.857 -0.0875  0.0750  0.1465
   80POPC   C3A 1268   9.996   6.448   6.583  0.1350 -0.4506  0.0641
   80POPC   C4A 1269   9.940   6.395   6.174  0.0716  0.1340 -0.1437
   80POPC   C1B 1270   9.992   7.648   7.059 -0.0188  0.2668  0.2221
   80POPC   C2B 1271  10.187   7.762   6.676 -0.1580 -0.1761 -0.1843
   80POPC   C3B 1272  10.170   7.968   6.307  0.1900  0.0883 -0.1230
   80POPC   C4B 1273   9.776   7.977   6.041 -0.1091 -0.0046  0.1325
   81POPC   NC3 1274   1.730   0.820   8.186  0.0069  0.0680 -0.1715
   81POPC   PO4 1275   1.655   0.454   8.250  0.1718  0.1440 -0.2066
   81POPC   GL1 1276   1.607   0.250   7.954 -0.2019  0.0042 -0.3253
   81POPC   GL2 1277   1.788   0.642   7.740  0.1542  0.1044 -0.0272
   81POPC   C1A 1278   1.338  -0.149   7.887 -0.0545  0.2411  0.0085
   81POPC   D2A 1279   1.003  -0.334   7.675 -0.2086 -0.1797  0.0162
   81POPC   C3A 1280   1.142  -0.748   7.528 -0.0269  0.1107  0.1438
   81POPC   C4A 1281   1.462  -0.845   7.133  0.0308  0.0172 -0.0647
   81POPC   C1B 1282   1.543   0.302   7.491 -0.0491  0.1127  0.1297
   81POPC   C2B 1283   1.178   0.124   7.550 -0.0439 -0.4377  0.0012
   81POPC   C3B 1284   0.972  -0.063   7.258 -0.1495  0.2161  0.2930
   81POPC   C4B 1285   0.974  -0.179   6.824 -0.0351  0.2168  0.4141
   82POPC   NC3 1286  10.625   1.876   8.455  0.3304 -0.1839 -0.0140
   82POPC   PO4 1287  10.766   1.898   8.012 -0.3126  0.2016 -0.0518
   82POPC   GL1 1288  10.688   1.742   7.536  0.2241 -0.1261  0.0710
   82POPC   GL2 1289  10.941   1.824   7.396 -0.3587 -0.2969  0.3248
   82POPC   C1A 1290  10.339   1.700   7.285 -0.1800  0.0558 -0.0118
   82POPC   D2A 1291  10.011   1.884   6.862  0.0124  0.1145 -0.1408
   82POPC   C3A 1292  10.093   1.849   6.417 -0.1790 -0.0014  0.0837
   82POPC   C4A 1293  10.134   1.626   6.005 -0.0128 -0.1690 -0.0994
   82POPC   C1B 1294  10.843   1.760   7.048 -0.0949  0.0956  0.0526
   82POPC   C2B 1295  10.857   1.646   6.513 -0.1172 -0.2218 -0.1272
   82POPC   C3B 1296  10.690   1.381   6.226 -0.0103 -0.1676  0.2140
   82POPC   C4B 1297  10.359   1.144   6.100  0.3914  0.0869 -0.3207
   83POPC   NC3 1298   8.118   0.599   7.770 -0.1409  0.0100 -0.0279
   83POPC   PO4 1299   7.963   1.015   7.875  0.0108 -0.0374  0.0220
   83POPC   GL1 1300   8.027   0.914   7.405  0.0531 -0.1049  0.0044
   83POPC   GL2 1301   8.294   1.119   7.445  0.1321 -0.1745  0.1485
   83POPC   C1A 1302   8.074   0.594   7.009 -0.3547 -0.2241  0.4288
   83POPC   D2A 1303   7.786   0.511   6.613 -0.0079 -0.0841  0.1506
   83POPC   C3A 1304   8.004   0.670   6.216  0.0932 -0.0025  0.2547
   83POPC   C4A 1305   7.859   0.946   5.824  0.1113 -0.1266  0.1644
   83POPC   C1B 1306   8.166   1.420   7.115  0.1731  0.1742 -0.1343
   83POPC   C2B 1307   8.076   1.507   6.793 -0.2656  0.1551  0.0800
   83POPC   C3B 1308   8.260   1.965   6.484  0.0395 -0.0666 -0.1444
   83POPC   C4B 1309   8.726   2.020   6.561  0.1539 -0.0308 -0.2070
   84POPC   NC3 1310   6.704   5.343   7.720 -0.0053  0.2914  0.3189
   84POPC   PO4 1311   7.083   5.091   7.694  0.0065 -0.1991 -0.0503
   84POPC   GL1 1312   7.025   4.968   7.245 -0.0949  0.2286  0.1155
   84POPC   GL2 1313   6.733   4.725   7.368 -0.1204  0.1022 -0.0765
   84POPC   C1A 1314   6.929   5.033   6.815 -0.2663 -0.0690  0.0533
   84POPC   D2A 1315   6.837   4.824   6.419 -0.1651 -0.2057 -0.0125
   84POPC   C3A 1316   6.872   5.074   6.023 -0.2367 -0.1060  0.2593
   84POPC   C4A 1317   7.306   5.126   5.765 -0.0367  0.0210  0.0827
   84POPC   C1B 1318   6.501   4.929   7.106  0.0996 -0.1777 -0.1286
   84POPC   C2B 1319   6.349   4.858   6.778  0.2221 -0.1159 -0.1558
   84POPC   C3B 1320   6.374   4.813   6.372  0.0665  0.0620 -0.2407
   84POPC   C4B 1321   6.411   4.920   5.964  0.3315  0.1264  0.0860
   85POPC   NC3 1322   1.223   0.294   8.599 -0.2896 -0.1931  0.1535
   85POPC   PO4 1323   0.866   0.088   8.745  0.1054 -0.2470 -0.0619
   85POPC   GL1 1324   0.812  -0.004   8.445  0.0493 -0.1460 -0.0411
   85POPC   GL2 1325   0.562  -0.131   8.379 -0.1279 -0.0768 -0.0460
   85POPC   C1A 1326   0.737   0.039   7.886 -0.0668  0.2852  0.1817
   85POPC   D2A 1327   0.536   0.106   7.503 -0.1066 -0.2363  0.1703
   85POPC   C3A 1328   0.114   0.294   7.502 -0.0771  0.1366 -0.1344
   85POPC   C4A 1329  -0.206   0.392   7.271  0.1529  0.2581 -0.0870
   85POPC   C1B 1330   0.905  -0.446   8.234  0.0191  0.0626 -0.2961
   85POPC   C2B 1331   1.227  -0.592   8.046 -0.0477 -0.0071 -0.0920
   85POPC   C3B 1332   1.436  -0.948   8.040  0.2450 -0.0980  0.3628
   85POPC   C4B 1333   1.741  -1.077   7.709 -0.1397  0.1813  0.1935
   86POPC   NC3 1334   9.467   9.258   8.338  0.1705 -0.5130  0.0364
   86POPC   PO4 1335   9.499   9.672   8.297 -0.1929  0.0088  0.1320
   86POPC   GL1 1336   9.565   9.986   7.996  0.1013 -0.1690  0.0612
   86POPC   GL2 1337   9.437  10.239   8.114 -0.0490 -0.4330 -0.2748
   86POPC   C1A 1338   9.854   9.919   7.635 -0.4489  0.0289 -0.3689
   86POPC   D2A 1339  10.210   9.865   7.428  0.0089  0.0026  0.2030
   86POPC   C3A 1340  10.025   9.830   7.040  0.1700 -0.0302  0.2273
   86POPC   C4A 1341   9.801   9.790   6.551 -0.4288 -0.0479 -0.1807
   86POPC   C1B 1342   9.766  10.462   7.747 -0.5484 -0.5028  0.2359
   86POPC   C2B 1343   9.966  10.384   7.437  0.1673  0.1720 -0.2742
   86POPC   C3B 1344  10.096  10.289   7.091 -0.1492 -0.4427 -0.1289
   86POPC   C4B 1345  10.433  10.078   6.748 -0.4486  0.2666  0.0457
   87POPC   NC3 1346   0.410   8.786   9.045  0.0262 -0.2281 -0.1312
   87POPC   PO4 1347   0.573   8.500   8.697 -0.1446  0.2124 -0.0080
   87POPC   GL1 1348   0.662   8.754   8.270 -0.0744  0.0159 -0.1955
   87POPC   GL2 1349   0.506   8.751   7.944 -0.5290 -0.2138  0.2026
   87POPC   C1A 1350   0.891   9.054   7.994  0.0675  0.3266  0.0436
   87POPC   D2A 1351   0.966   8.933   7.582 -0.0942 -0.2306  0.0393
   87POPC   C3A 1352   0.707   8.761   7.239 -0.0257 -0.5741  0.1608
   87POPC   C4A 1353   0.632   8.501   6.706  0.2162  0.0716  0.1324
   87POPC   C1B 1354   0.354   8.942   7.579  0.1829 -0.0807  0.3300
   87POPC   C2B 1355   0.058   8.946   7.206  0.2440 -0.0891 -0.3285
   87POPC   C3B 1356  -0.210   8.687   7.132 -0.6689  0.0051  0.1092
   87POPC   C4B 1357  -0.394   8.805   6.769  0.1238 -0.1813 -0.0232
   88POPC   NC3 1358   2.573   1.243   7.672  0.0162  0.0304 -0.0221
   88POPC   PO4 1359   2.247   1.574   7.534 -0.0651  0.2913 -0.0115
   88POPC   GL1 1360   2.437   1.402   7.178 -0.0624  0.2627 -0.1830
   88POPC   GL2 1361   2.483   1.103   7.126  0.0462  0.2507  0.0121
   88POPC   C1A 1362   2.383   1.284   6.688 -0.1597 -0.2022 -0.1865
   88POPC   D2A 1363   2.339   1.011   6.290 -0.0509 -0.0334  0.2531
   88POPC   C3A 1364   2.426   0.825   5.918 -0.2116  0.3143  0.2599
   88POPC   C4A 1365   2.207   0.496   5.672 -0.2323  0.0078  0.0543
   88POPC   C1B 1366   2.246   0.719   7.145 -0.4402  0.3750  0.0533
   88POPC   C2B 1367   2.388   0.299   6.962 -0.0017  0.1763 -0.0939
   88POPC   C3B 1368   2.511   0.061   6.659 -0.0792 -0.2513  0.1599
   88POPC   C4B 1369   2.380  -0.069   6.257  0.2907  0.1221  0.0862
   89POPC   NC3 1370   1.906   3.189   7.365  0.0386 -0.0601  0.0568
   89POPC   PO4 1371   1.449   3.471   7.336 -0.1003  0.1788 -0.0216
   89POPC   GL1 1372   1.298   3.578   6.917  0.0251 -0.3015  0.2980
   89POPC   GL2 1373   0.950   3.335   6.813 -0.0116  0.1916 -0.2149
   89POPC   C1A 1374   1.136   3.761   6.512  0.2786  0.2797  0.1162
   89POPC   D2A 1375   1.032   4.028   6.153 -0.1677 -0.0081 -0.3031
   89POPC   C3A 1376   1.354   4.295   5.979  0.2384 -0.0766  0.0086
   89POPC   C4A 1377   1.728   4.474   5.807  0.1286  0.1013  0.0034
   89POPC   C1B 1378   1.071   3.217   6.465  0.0495 -0.2260  0.1944
   89POPC   C2B 1379   1.236   3.039   6.140  0.1716 -0.3074 -0.0666
   89POPC   C3B 1380   1.283   2.956   5.723 -0.3462 -0.0950 -0.2830
   89POPC   C4B 1381   0.959   2.926   5.413  0.0245  0.3460 -0.0205
   90POPC   NC3 1382   2.775   8.445   7.949 -0.0490  0.0653 -0.1673
   90POPC   PO4 1383   2.606   8.163   8.278  0.1727  0.0076 -0.1316
   90POPC   GL1 1384   2.499   7.910   7.855  0.1445 -0.0305  0.0255
   90POPC   GL2 1385   2.608   8.115   7.592  0.1959  0.3615 -0.2141
   90POPC   C1A 1386   2.406   7.703   7.458  0.2101  0.0356 -0.2235
   90POPC   D2A 1387   2.556   7.515   7.210  0.0993  0.0796  0.1500
   90POPC   C3A 1388   2.525   7.832   6.877 -0.2328  0.0126  0.2061
   90POPC   C4A 1389   2.371   8.084   6.530 -0.1123 -0.0500  0.0309
   90POPC   C1B 1390   2.405   8.193   7.204  0.0323 -0.1804  0.0792
   90POPC   C2B 1391   2.106   8.239   6.944 -0.3653  0.1084  0.1145
   90POPC   C3B 1392   1.872   8.215   6.476 -0.1517  0.2745 -0.1848
   90POPC   C4B 1393   1.628   8.176   6.198  0.3154 -0.1199  0.0263
   91POPC   NC3 1394   5.789   9.152   8.487  0.1379 -0.1763 -0.1788
   91POPC   PO4 1395   6.067   9.118   8.010 -0.0825 -0.0545 -0.0266
   91POPC   GL1 1396   5.975   9.135   7.603 -0.0334 -0.0718 -0.1459
   91POPC   GL2 1397   5.873   9.450   7.432  0.4306 -0.2687 -0.1588
   91POPC   C1A 1398   6.003   8.971   7.240 -0.1082  0.1177 -0.0686
   91POPC   D2A 1399   6.104   8.964   6.754  0.2391  0.1712 -0.0565
   91POPC   C3A 1400   6.194   8.637   6.396 -0.0725  0.2186 -0.0248
   91POPC   C4A 1401   6.537   8.565   6.195  0.0278 -0.1377  0.1764
   91POPC   C1B 1402   5.757   9.400   7.143  0.1157  0.0382 -0.0846
   91POPC   C2B 1403   5.808   9.489   6.725 -0.2274  0.0785  0.3132
   91POPC   C3B 1404   5.937   9.743   6.483  0.0265  0.1141 -0.1618
   91POPC   C4B 1405   5.693  10.193   6.452  0.2965  0.1027  0.1675
   92POPC   NC3 1406   5.621   2.709   8.284  0.0537  0.2275 -0.0226
   92POPC   PO4 1407   5.395   2.757   7.926  0.0793  0.2852  0.0427
   92POPC   GL1 1408   5.284   2.641   7.446 -0.4064 -0.0600  0.0475
   92POPC   GL2 1409   5.035   2.456   7.467  0.0691  0.0427 -0.2085
   92POPC   C1A 1410   5.536   2.750   7.107 -0.2011  0.3157 -0.1430
   92POPC   D2A 1411   5.707   3.012   6.753  0.2476  0.3800  0.5565
   92POPC   C3A 1412   6.230   2.946   6.643 -0.0088 -0.1255  0.0253
   92POPC   C4A 1413   6.535   2.582   6.730 -0.2574  0.1475 -0.1438
   92POPC   C1B 1414   5.304   2.329   7.039 -0.1448 -0.0210 -0.1746
   92POPC   C2B 1415   5.344   2.583   6.675  0.1277  0.1392  0.1225
   92POPC   C3B 1416   5.549   2.722   6.335  0.3121  0.1378 -0.2850
   92POPC   C4B 1417   5.913   2.886   6.055  0.3246  0.0781  0.0044
   93POPC   NC3 1418   7.697   0.706   8.210 -0.0296  0.1496  0.1640
   93POPC   PO4 1419   7.314   1.005   8.110  0.0608 -0.1812  0.3242
   93POPC   GL1 1420   7.406   1.066   7.699 -0.0475  0.0507 -0.3986
   93POPC   GL2 1421   7.583   0.874   7.534 -0.1577 -0.0277 -0.0701
   93POPC   C1A 1422   7.200   1.017   7.262  0.0503 -0.1540 -0.3067
   93POPC   D2A 1423   6.855   0.871   6.969 -0.0720  0.1094  0.1396
   93POPC   C3A 1424   6.693   0.615   6.653  0.1618 -0.0958 -0.0362
   93POPC   C4A 1425   6.815   0.264   6.345 -0.0857  0.0772  0.0906
   93POPC   C1B 1426   7.591   0.747   7.104  0.0249 -0.1047  0.2174
   93POPC   C2B 1427   7.333   1.017   6.713 -0.1518 -0.3056  0.0133
   93POPC   C3B 1428   7.078   0.985   6.355  0.0292  0.2017 -0.1136
   93POPC   C4B 1429   7.090   1.075   5.944  0.3933 -0.1092 -0.1451
   94POPC   NC3 1430   3.192  10.572   7.953 -0.2690 -0.0721 -0.2502
   94POPC   PO4 1431   2.768  10.454   8.154 -0.1847  0.0560  0.0296
   94POPC   GL1 1432   2.663  10.279   7.785  0.1444 -0.2365  0.0275
   94POPC   GL2 1433   2.964  10.351   7.554 -0.1765  0.0231  0.1506
   94POPC   C1A 1434   2.556  10.073   7.310 -0.2578 -0.2263 -0.1370
   94POPC   D2A 1435   2.375  10.031   6.925 -0.2242  0.0986 -0.0249
   94POPC   C3A 1436   2.392  10.137   6.589 -0.0723  0.2781  0.2915
   94POPC   C4A 1437   2.523  10.109   6.139  0.0782  0.0185 -0.1199
   94POPC   C1B 1438   3.068  10.019   7.214 -0.1026  0.0164  0.2763
   94POPC   C2B 1439   2.945   9.921   6.741 -0.0473 -0.2839 -0.2667
   94POPC   C3B 1440   2.909   9.892   6.405  0.1779 -0.1711 -0.3500
   94POPC   C4B 1441   3.045   9.796   5.992  0.1313 -0.0865  0.1939
   95POPC   NC3 1442   3.043   4.811   7.331 -0.2380  0.3796 -0.0046
   95POPC   PO4 1443   3.338   5.248   7.252  0.0324  0.3475  0.0575
   95POPC   GL1 1444   3.258   5.312   6.922  0.2047 -0.0243 -0.1987
   95POPC   GL2 1445   3.001   5.050   6.848 -0.0117  0.2094  0.0460
   95POPC   C1A 1446   3.169   5.579   6.610  0.2984  0.2706 -0.0285
   95POPC   D2A 1447   3.225   5.900   6.265 -0.0916  0.1475  0.2618
   95POPC   C3A 1448   2.934   6.167   6.102 -0.2326 -0.2337 -0.1196
   95POPC   C4A 1449   2.694   6.363   5.792 -0.2049 -0.1401  0.3692
   95POPC   C1B 1450   2.930   5.201   6.315 -0.0268 -0.0288 -0.6065
   95POPC   C2B 1451   3.108   4.970   6.002 -0.3940 -0.1197  0.0380
   95POPC   C3B 1452   3.364   4.703   5.711 -0.0705  0.3637 -0.0312
   95POPC   C4B 1453   3.339   4.442   5.317 -0.2700  0.0656  0.2356
   96POPC   NC3 1454   9.044   7.797   8.215  0.2515  0.0561  0.2401
   96POPC   PO4 1455   9.071   8.141   7.886 -0.1735 -0.1512 -0.0851
   96POPC   GL1 1456   9.171   8.125   7.469 -0.0279 -0.2230  0.1907
   96POPC   GL2 1457   9.135   8.360   7.208  0.1496  0.1099  0.1028
   96POPC   C1A 1458   9.600   8.229   7.259  0.1006  0.0048  0.0508
   96POPC   D2A 1459   9.722   8.110   6.891 -0.0844  0.0381  0.1441
   96POPC   C3A 1460   9.872   8.336   6.587  0.3406 -0.4724 -0.2708
   96POPC   C4A 1461  10.282   8.319   6.800 -0.0155 -0.1596 -0.2764
   96POPC   C1B 1462   9.188   8.184   6.835  0.2724 -0.1614  0.1210
   96POPC   C2B 1463   9.433   8.125   6.382 -0.0845  0.1358 -0.2027
   96POPC   C3B 1464   9.246   8.138   6.010  0.1151  0.1735  0.1418
   96POPC   C4B 1465   8.829   8.312   5.860  0.2689  0.1972 -0.2036
   97POPC   NC3 1466   2.690   7.416   7.989  0.4148 -0.1404 -0.0503
   97POPC   PO4 1467   2.297   7.213   7.853 -0.0560  0.1976  0.0973
   97POPC   GL1 1468   2.169   7.222   7.430 -0.1279  0.2400 -0.1465
   97POPC   GL2 1469   1.944   7.399   7.358 -0.0831  0.3729  0.2988
   97POPC   C1A 1470   2.357   7.121   6.988 -0.0654  0.1184 -0.2386
   97POPC   D2A 1471   2.278   7.220   6.606 -0.4057 -0.1598 -0.0696
   97POPC   C3A 1472   2.296   6.921   6.243 -0.0482 -0.0563  0.2415
   97POPC   C4A 1473   2.258   6.534   6.079  0.0148  0.0893  0.2003
   97POPC   C1B 1474   2.101   7.572   6.928 -0.2531 -0.0815  0.0062
   97POPC   C2B 1475   2.057   7.672   6.566 -0.1830 -0.2601  0.0117
   97POPC   C3B 1476   2.414   7.636   6.318  0.0462 -0.4139  0.3668
   97POPC   C4B 1477   2.569   7.796   5.920 -0.0007  0.0923  0.0733
   98POPC   NC3 1478   2.803   3.328   7.973 -0.0355 -0.3965 -0.0350
   98POPC   PO4 1479   2.743   3.117   7.587 -0.0181 -0.1480 -0.1574
   98POPC   GL1 1480   2.911   3.188   7.229 -0.0320 -0.1336  0.4198
   98POPC   GL2 1481   2.840   3.421   7.035  0.3564  0.1601  0.0306
   98POPC   C1A 1482   3.278   2.941   7.002  0.0273 -0.1045  0.1105
   98POPC   D2A 1483   3.381   2.552   6.889  0.2172  0.0234 -0.2976
   98POPC   C3A 1484   3.707   2.457   6.660 -0.0044 -0.1037  0.1590
   98POPC   C4A 1485   3.981   2.714   6.350 -0.1854 -0.1083  0.2119
   98POPC   C1B 1486   2.759   3.048   6.753  0.0121 -0.0726 -0.0932
   98POPC   C2B 1487   2.716   2.915   6.349 -0.0477 -0.1818  0.2892
   98POPC   C3B 1488   2.509   2.799   6.044 -0.2313 -0.0253 -0.1924
   98POPC   C4B 1489   2.479   2.446   5.804  0.0457 -0.2400  0.2225
   99POPC   NC3 1490   1.005   2.693   7.598  0.0997  0.2565  0.0199
   99POPC   PO4 1491   1.070   2.247   7.648  0.0938 -0.1531  0.2046
   99POPC   GL1 1492   0.709   2.149   7.355  0.2692  0.2345  0.1653
   99POPC   GL2 1493   0.271   2.295   7.343  0.0791  0.0150  0.1997
   99POPC   C1A 1494   0.553   2.042   6.960  0.0642  0.0184 -0.1251
   99POPC   D2A 1495   0.292   2.175   6.563 -0.2507 -0.0572 -0.2298
   99POPC   C3A 1496   0.503   2.465   6.208 -0.1400 -0.2442 -0.1282
   99POPC   C4A 1497   0.298   2.236   5.733  0.2903  0.2783  0.4016
   99POPC   C1B 1498   0.178   2.411   6.985 -0.3286 -0.0474  0.2494
   99POPC   C2B 1499   0.034   2.610   6.638  0.0807 -0.0115 -0.1554
   99POPC   C3B 1500   0.229   2.928   6.396 -0.0726 -0.3013 -0.1726
   99POPC   C4B 1501   0.528   2.985   6.112  0.2886  0.0039  0.0852
  100POPC   NC3 1502  10.525   9.897   8.469  0.0951 -0.1369 -0.1503
  100POPC   PO4 1503  10.307  10.388   8.556 -0.0785 -0.0562 -0.1435
  100POPC   GL1 1504  10.370  10.281   8.062  0.1048 -0.0492  0.5073
  100POPC   GL2 1505  10.296  10.534   7.865 -0.1293  0.3531 -0.0018
  100POPC   C1A 1506  10.597  10.089   7.643  0.0939 -0.0426  0.2746
  100POPC   D2A 1507  10.604  10.151   7.191  0.0934  0.1618 -0.4321
  100POPC   C3A 1508  10.537   9.711   7.039  0.0858 -0.1598  0.3111
  100POPC   C4A 1509  10.906   9.394   6.994 -0.0400 -0.0757 -0.1392
  100POPC   C1B 1510  10.404  10.678   7.578 -0.0361 -0.2334  0.1658
  100POPC   C2B 1511  10.678  10.652   7.143  0.0218 -0.1196 -0.1775
  100POPC   C3B 1512  10.429  10.580   6.824 -0.1668  0.1335  0.0213
  100POPC   C4B 1513  10.502  10.420   6.432  0.0783 -0.1867 -0.1022
  101POPC   NC3 1514   8.176   9.042   7.926  0.0640  0.1064 -0.0113
  101POPC   PO4 1515   7.850   8.823   7.858 -0.2383 -0.1466 -0.0692
  101POPC   GL1 1516   7.898   8.908   7.422 -0.1575  0.0834 -0.1456
  101POPC   GL2 1517   8.173   9.094   7.347 -0.0190 -0.1062 -0.3226
  101POPC   C1A 1518   7.797   8.801   6.884 -0.1151  0.0269 -0.2742
  101POPC   D2A 1519   7.923   8.982   6.478  0.2057 -0.1131 -0.2740
  101POPC   C3A 1520   8.054   8.855   5.988 -0.0161  0.1529 -0.2060
  101POPC   C4A 1521   8.290   8.856   5.560  0.2227 -0.0254 -0.1532
  101POPC   C1B 1522   8.153   9.203   6.976 -0.0379 -0.1122 -0.1561
  101POPC   C2B 1523   8.282   9.376   6.647  0.0120 -0.0985  0.0304
  101POPC   C3B 1524   8.391   9.175   6.308  0.3753  0.2448 -0.0258
  101POPC   C4B 1525   8.373   9.336   5.907  0.2985 -0.2513  0.0629
  102POPC   NC3 1526   9.128   3.205   8.299 -0.0009  0.0872 -0.1835
  102POPC   PO4 1527   9.204   3.650   8.318 -0.2345 -0.2418 -0.5450
  102POPC   GL1 1528   9.028   3.507   7.876 -0.1247 -0.0061  0.0837
  102POPC   GL2 1529   9.126   3.296   7.766 -0.0470 -0.1332 -0.0378
  102POPC   C1A 1530   8.647   3.519   7.480 -0.0922 -0.0664 -0.0272
  102POPC   D2A 1531   8.626   3.350   7.090  0.0442  0.0632  0.0153
  102POPC   C3A 1532   9.034   3.369   6.824  0.0352  0.0750 -0.0200
  102POPC   C4A 1533   9.304   3.192   6.500  0.3875  0.0701  0.0065
  102POPC   C1B 1534   8.865   3.027   7.429 -0.3257  0.1109  0.1371
  102POPC   C2B 1535   8.506   2.871   7.319  0.0691  0.0796 -0.1750
  102POPC   C3B 1536   8.353   2.799   6.947  0.3058 -0.1862  0.1443
  102POPC   C4B 1537   8.113   2.885   6.524  0.3495 -0.1732  0.1504
  103POPC   NC3 1538   6.773   8.501   7.818 -0.0122  0.1606  0.0350
  103POPC   PO4 1539   6.924   8.879   7.654 -0.0047 -0.3316 -0.3078
  103POPC   GL1 1540   7.039   8.592   7.365 -0.2565  0.1398 -0.0625
  103POPC   GL2 1541   7.359   8.811   7.220  0.0241  0.1248 -0.2803
  103POPC   C1A 1542   6.804   8.507   7.000  0.0531 -0.2216 -0.3395
  103POPC   D2A 1543   6.700   8.468   6.644 -0.0073 -0.1055  0.1541
  103POPC   C3A 1544   6.669   8.101   6.425 -0.1291  0.2028  0.1152
  103POPC   C4A 1545   6.400   7.765   6.245 -0.0067 -0.3042 -0.2334
  103POPC   C1B 1546   7.230   8.564   6.813 -0.0919  0.1104  0.0279
  103POPC   C2B 1547   7.136   8.326   6.391  0.3306 -0.0776  0.0481
  103POPC   C3B 1548   7.084   8.478   6.029 -0.1877  0.2375 -0.0504
  103POPC   C4B 1549   6.748   8.730   5.747 -0.1175 -0.2778  0.0929
  104POPC   NC3 1550   6.007   4.722   8.027  0.0193  0.0951  0.2215
  104POPC   PO4 1551   6.509   4.746   7.833 -0.2542 -0.1006  0.1641
  104POPC   GL1 1552   6.166   4.988   7.536 -0.0082 -0.0330  0.4198
  104POPC   GL2 1553   5.952   4.718   7.519 -0.0554 -0.3526 -0.0483
  104POPC   C1A 1554   6.049   5.154   7.135  0.0136  0.4048  0.1339
  104POPC   D2A 1555   5.689   5.071   6.933  0.2439  0.1105 -0.3117
  104POPC   C3A 1556   5.537   5.286   6.579 -0.0675  0.2194  0.0885
  104POPC   C4A 1557   5.819   5.543   6.330  0.3923  0.0878 -0.0696
  104POPC   C1B 1558   5.871   4.636   7.133 -0.1094  0.1335  0.0970
  104POPC   C2B 1559   5.844   4.707   6.647  0.0614 -0.0269 -0.0124
  104POPC   C3B 1560   5.842   4.843   6.317 -0.0452  0.2797 -0.2220
  104POPC   C4B 1561   5.606   5.142   6.071  0.0861 -0.2489  0.1389
  105POPC   NC3 1562   7.177   9.134   8.092  0.0440 -0.0803  0.2102
  105POPC   PO4 1563   7.042   9.380   7.814  0.0090  0.1716  0.2253
  105POPC   GL1 1564   6.777   9.312   7.395  0.0978  0.0480 -0.0921
  105POPC   GL2 1565   6.439   9.544   7.307 -0.0189 -0.0351  0.2001
  105POPC   C1A 1566   6.686   8.961   7.054  0.2760 -0.0291 -0.2801
  105POPC   D2A 1567   6.643   8.936   6.603  0.2818  0.2543  0.0173
  105POPC   C3A 1568   6.962   8.943   6.266 -0.0593  0.1458  0.1261
  105POPC   C4A 1569   7.009   9.130   5.894  0.1361 -0.0019 -0.0139
  105POPC   C1B 1570   6.329   9.380   7.069  0.0156 -0.1575 -0.2213
  105POPC   C2B 1571   6.357   9.448   6.575 -0.1096  0.1229  0.2400
  105POPC   C3B 1572   6.342   9.154   6.210 -0.0783  0.3348  0.3804
  105POPC   C4B 1573   6.037   8.896   5.918 -0.5425 -0.0679  0.3201
  106POPC   NC3 1574  10.124   4.136   8.050 -0.1257  0.0594 -0.0826
  106POPC   PO4 1575   9.655   4.134   7.930 -0.3548  0.0210 -0.0315
  106POPC   GL1 1576   9.780   4.442   7.617 -0.1069 -0.1136  0.1480
  106POPC   GL2 1577   9.744   4.807   7.521 -0.0788  0.0980  0.1818
  106POPC   C1A 1578   9.639   4.420   7.156 -0.0358 -0.0223  0.1811
  106POPC   D2A 1579   9.666   4.154   6.736  0.0983 -0.2345 -0.0995
  106POPC   C3A 1580   9.952   3.864   6.730 -0.3748 -0.1813 -0.1181
  106POPC   C4A 1581  10.043   3.498   6.937 -0.0525 -0.0054  0.1398
  106POPC   C1B 1582   9.941   4.930   7.142  0.4148 -0.0188  0.2690
  106POPC   C2B 1583   9.915   4.645   6.762  0.3203 -0.0365 -0.1709
  106POPC   C3B 1584   9.821   4.783   6.286 -0.1647 -0.0504 -0.1819
  106POPC   C4B 1585   9.984   4.783   5.757  0.0291  0.1337  0.0808
  107POPC   NC3 1586   0.170   3.303   8.105  0.0477 -0.4052  0.1784
  107POPC   PO4 1587   0.499   3.152   7.739 -0.1215 -0.2798  0.1282
  107POPC   GL1 1588   0.554   3.494   7.341  0.1344  0.0791  0.0044
  107POPC   GL2 1589   0.325   3.747   7.187  0.4210  0.0655 -0.2406
  107POPC   C1A 1590   0.761   3.721   6.931  0.0175 -0.0148 -0.3301
  107POPC   D2A 1591   0.623   3.908   6.557 -0.0288  0.0902 -0.4083
  107POPC   C3A 1592   0.591   4.323   6.329 -0.0624 -0.0955  0.2524
  107POPC   C4A 1593   0.678   4.722   6.361 -0.0137  0.0531  0.1175
  107POPC   C1B 1594   0.262   3.621   6.759 -0.1445 -0.3569  0.1722
  107POPC   C2B 1595   0.533   3.392   6.545 -0.1189 -0.2511 -0.0501
  107POPC   C3B 1596   0.718   3.477   6.230 -0.1947 -0.0148 -0.1265
  107POPC   C4B 1597   0.823   3.202   5.811 -0.0271 -0.0275 -0.1279
  108POPC   NC3 1598   5.611   4.247   8.425 -0.0709  0.0650 -0.0461
  108POPC   PO4 1599   5.886   4.233   8.056 -0.0390 -0.0134 -0.2733
  108POPC   GL1 1600   5.924   4.021   7.755 -0.2008  0.0471  0.1429
  108POPC   GL2 1601   5.886   3.671   7.856  0.1592  0.1675 -0.0927
  108POPC   C1A 1602   5.963   4.104   7.249  0.2501 -0.0689  0.1736
  108POPC   D2A 1603   5.658   4.109   6.957  0.2269  0.3017 -0.1504
  108POPC   C3A 1604   5.648   4.248   6.578  0.1443  0.2016  0.0732
  108POPC   C4A 1605   5.418   4.442   6.248  0.0893 -0.2273 -0.1316
  108POPC   C1B 1606   5.908   3.621   7.378 -0.0100 -0.0443 -0.1957
  108POPC   C2B 1607   5.780   3.582   7.017 -0.0495 -0.0823  0.0084
  108POPC   C3B 1608   6.047   3.754   6.688  0.0805 -0.1103  0.2874
  108POPC   C4B 1609   6.240   3.787   6.315 -0.1175 -0.0697 -0.1858
  109POPC   NC3 1610   1.256   5.498   7.688  0.1469  0.3991 -0.2041
  109POPC   PO4 1611   1.259   5.884   7.548 -0.0735 -0.0920 -0.2651
  109POPC   GL1 1612   1.671   5.890   7.294 -0.1237  0.2872  0.0506
  109POPC   GL2 1613   1.905   5.647   7.151  0.2145  0.1815 -0.2220
  109POPC   C1A 1614   1.641   5.932   6.892 -0.0027 -0.0025 -0.1467
  109POPC   D2A 1615   1.718   5.841   6.452 -0.1164 -0.0639 -0.1082
  109POPC   C3A 1616   1.488   6.093   6.128 -0.0496  0.0520 -0.0578
  109POPC   C4A 1617   1.740   6.357   5.867 -0.1788 -0.2862 -0.0863
  109POPC   C1B 1618   2.030   5.499   6.722  0.1040  0.0531 -0.0277
  109POPC   C2B 1619   1.850   5.445   6.213 -0.0956  0.0859 -0.1181
  109POPC   C3B 1620   1.779   5.444   5.813  0.3470 -0.3929 -0.1150
  109POPC   C4B 1621   1.603   5.098   5.574  0.4375  0.0462 -0.4884
  110POPC   NC3 1622   3.416   4.730   7.963 -0.1565  0.0978 -0.1092
  110POPC   PO4 1623   3.460   4.606   7.583 -0.1986  0.0498  0.2765
  110POPC   GL1 1624   3.537   4.695   7.124 -0.1439  0.0707  0.3419
  110POPC   GL2 1625   3.689   4.470   6.957 -0.1590  0.0753 -0.0141
  110POPC   C1A 1626   3.610   4.932   6.678 -0.1047  0.1336  0.0210
  110POPC   D2A 1627   3.403   5.147   6.450 -0.0528  0.1236  0.1248
  110POPC   C3A 1628   3.622   5.232   6.054 -0.0648 -0.0006 -0.1229
  110POPC   C4A 1629   3.788   5.649   5.903  0.0091  0.2252  0.2775
  110POPC   C1B 1630   3.504   4.313   6.650 -0.0892  0.2487 -0.1423
  110POPC   C2B 1631   3.698   4.092   6.367  0.0899 -0.0973 -0.2123
  110POPC   C3B 1632   4.048   4.112   6.213  0.2110  0.1667  0.0056
  110POPC   C4B 1633   4.489   4.134   6.048  0.0009  0.2964  0.0725
  111POPC   NC3 1634  10.355   1.702   8.012  0.1571  0.0787 -0.0756
  111POPC   PO4 1635  10.289   1.356   8.227  0.0951 -0.0433  0.2276
  111POPC   GL1 1636  10.244   1.302   7.714  0.1280  0.1030  0.2929
  111POPC   GL2 1637   9.954   1.437   7.634 -0.3088 -0.0277  0.1541
  111POPC   C1A 1638  10.089   1.215   7.214  0.2849 -0.0647 -0.1791
  111POPC   D2A 1639   9.855   1.414   6.809 -0.1659  0.1489 -0.0186
  111POPC   C3A 1640   9.719   1.305   6.407 -0.0227  0.0526  0.0768
  111POPC   C4A 1641   9.917   1.032   6.225 -0.0378 -0.0816 -0.4913
  111POPC   C1B 1642   9.796   1.707   7.319  0.2766  0.2889 -0.1951
  111POPC   C2B 1643   9.633   2.120   7.146  0.3800 -0.3347  0.2164
  111POPC   C3B 1644   9.643   2.354   6.637  0.0816 -0.0002 -0.0892
  111POPC   C4B 1645   9.735   2.716   6.379 -0.1670 -0.2097  0.3364
  112POPC   NC3 1646   6.273   6.755   8.065  0.0021  0.1473  0.2453
  112POPC   PO4 1647   6.287   6.703   7.599 -0.0589  0.0014  0.1861
  112POPC   GL1 1648   6.434   6.837   7.297 -0.0201 -0.3885 -0.2033
  112POPC   GL2 1649   6.832   6.876   7.328  0.3115 -0.1658 -0.0484
  112POPC   C1A 1650   6.183   6.795   6.939 -0.0361  0.0048  0.1793
  112POPC   D2A 1651   5.945   6.839   6.629  0.2717  0.1721 -0.1222
  112POPC   C3A 1652   6.081   7.186   6.359  0.1145  0.2791  0.1202
  112POPC   C4A 1653   5.795   7.482   6.233 -0.2927 -0.1075 -0.0206
  112POPC   C1B 1654   6.857   6.782   6.950  0.0823 -0.0843 -0.0220
  112POPC   C2B 1655   7.061   6.962   6.575 -0.0841  0.1406  0.0910
  112POPC   C3B 1656   7.391   7.038   6.362  0.1924  0.0250 -0.4044
  112POPC   C4B 1657   7.577   7.209   6.028 -0.0595 -0.0721  0.0898
  113POPC   NC3 1658   4.329   1.890   7.636 -0.0231 -0.0262 -0.2039
  113POPC   PO4 1659   4.020   1.531   7.546  0.0938  0.1016 -0.1722
  113POPC   GL1 1660   4.310   1.471   7.246 -0.0275 -0.1136 -0.1481
  113POPC   GL2 1661   4.619   1.513   7.225 -0.0409  0.0687  0.2125
  113POPC   C1A 1662   4.184   1.417   6.809  0.0211 -0.0034 -0.3198
  113POPC   D2A 1663   3.974   1.527   6.422 -0.2377 -0.0900  0.1117
  113POPC   C3A 1664   3.676   1.229   6.125  0.2219  0.0354 -0.4350
  113POPC   C4A 1665   3.253   1.397   6.047  0.3010 -0.3227 -0.2127
  113POPC   C1B 1666   4.879   1.456   6.830 -0.3744 -0.3106 -0.0807
  113POPC   C2B 1667   5.007   1.569   6.367 -0.1821  0.0641 -0.3922
  113POPC   C3B 1668   5.210   1.779   6.192  0.2240  0.1322  0.0683
  113POPC   C4B 1669   5.389   2.008   5.934 -0.3754 -0.1691 -0.0308
  114POPC   NC3 1670   5.095   4.452   8.150  0.0140  0.1353  0.1100
  114POPC   PO4 1671   5.520   4.538   7.945  0.0149 -0.0023  0.0545
  114POPC   GL1 1672   5.241   4.394   7.629  0.0154  0.3013  0.0891
  114POPC   GL2 1673   5.576   4.267   7.461  0.1521 -0.1483  0.0647
  114POPC   C1A 1674   4.852   4.596   7.344 -0.0710  0.3523 -0.0527
  114POPC   D2A 1675   4.916   4.639   6.990 -0.0303 -0.0885  0.1773
  114POPC   C3A 1676   4.911   4.504   6.598 -0.2038 -0.0992 -0.2434
  114POPC   C4A 1677   4.921   4.298   6.271 -0.2122 -0.1732  0.4159
  114POPC   C1B 1678   5.467   3.837   7.488  0.0558  0.4605  0.0758
  114POPC   C2B 1679   5.293   3.741   7.132 -0.1449 -0.0749 -0.1452
  114POPC   C3B 1680   5.286   3.588   6.722  0.1980 -0.0899  0.0455
  114POPC   C4B 1681   5.539   3.682   6.512 -0.0732 -0.3494  0.0318
  115POPC   NC3 1682   4.144   0.074   7.824 -0.0188  0.0508 -0.0879
  115POPC   PO4 1683   3.991  -0.222   7.550  0.1823 -0.1715  0.0248
  115POPC   GL1 1684   3.868  -0.338   7.335  0.1191  0.0926  0.2603
  115POPC   GL2 1685   3.506  -0.398   7.185 -0.1179  0.3442 -0.3379
  115POPC   C1A 1686   3.885  -0.539   6.922  0.2239  0.0207  0.3333
  115POPC   D2A 1687   3.917  -0.701   6.502  0.0626 -0.0845  0.1417
  115POPC   C3A 1688   4.048  -0.993   6.240  0.0253  0.2609 -0.2048
  115POPC   C4A 1689   3.977  -1.386   6.160 -0.1594  0.0920 -0.2002
  115POPC   C1B 1690   3.303  -0.368   6.812  0.0489  0.1400  0.0661
  115POPC   C2B 1691   3.367  -0.184   6.498  0.3266  0.3350  0.1608
  115POPC   C3B 1692   3.470  -0.171   6.061  0.1237 -0.2987 -0.2090
  115POPC   C4B 1693   3.432   0.164   5.725 -0.1739 -0.3268  0.1127
  116POPC   NC3 1694   1.335   3.895   7.304 -0.1367 -0.3237  0.0667
  116POPC   PO4 1695   1.142   4.193   7.523 -0.1404 -0.0030  0.1599
  116POPC   GL1 1696   0.838   4.182   7.233 -0.1396 -0.0547 -0.3622
  116POPC   GL2 1697   0.578   4.428   7.270 -0.2784  0.4968 -0.1185
  116POPC   C1A 1698   0.823   4.382   6.791  0.2546 -0.2006 -0.0155
  116POPC   D2A 1699   1.161   4.342   6.486 -0.0074  0.1580 -0.2962
  116POPC   C3A 1700   1.474   4.107   6.663 -0.0118  0.0269 -0.0617
  116POPC   C4A 1701   1.893   4.157   6.606 -0.3303 -0.3428 -0.0384
  116POPC   C1B 1702   0.283   4.277   6.921 -0.4337 -0.1548  0.0512
  116POPC   C2B 1703   0.110   4.117   6.542  0.1569  0.1369  0.1156
  116POPC   C3B 1704  -0.098   4.252   6.222 -0.1829  0.2734  0.4363
  116POPC   C4B 1705  -0.277   4.092   5.888 -0.1462 -0.0505  0.1305
  117POPC   NC3 1706   7.243   0.431   8.047  0.0457  0.3021 -0.3001
  117POPC   PO4 1707   7.565   0.421   7.816 -0.2171 -0.3894 -0.1439
  117POPC   GL1 1708   7.368   0.322   7.411 -0.0732 -0.2526  0.2101
  117POPC   GL2 1709   7.154   0.435   7.198 -0.1526  0.0490  0.2080
  117POPC   C1A 1710   7.605   0.208   7.003 -0.0627  0.2391  0.1699
  117POPC   D2A 1711   7.996   0.016   6.981  0.3005  0.1316 -0.1530
  117POPC   C3A 1712   8.254   0.018   6.590 -0.0912  0.0163 -0.0561
  117POPC   C4A 1713   8.177   0.137   6.125 -0.1985  0.1386 -0.1630
  117POPC   C1B 1714   7.162   0.501   6.845  0.0473  0.0312 -0.1034
  117POPC   C2B 1715   7.319   0.420   6.471 -0.0391 -0.2756  0.4388
  117POPC   C3B 1716   7.583   0.224   6.128  0.0433 -0.5839 -0.3778
  117POPC   C4B 1717   7.791  -0.077   5.884  0.0800  0.0471 -0.0063
  118POPC   NC3 1718   8.655   9.046   7.520 -0.1110 -0.0878  0.3266
  118POPC   PO4 1719   8.405   8.719   7.576  0.2548  0.1163  0.0064
  118POPC   GL1 1720   8.540   8.808   7.098  0.1230  0.1348  0.2247
  118POPC   GL2 1721   8.740   8.571   6.953 -0.0561 -0.0766  0.0122
  118POPC   C1A 1722   8.325   8.760   6.687  0.0496  0.2038 -0.2484
  118POPC   D2A 1723   8.262   8.462   6.423  0.3095  0.1689 -0.1773
  118POPC   C3A 1724   7.983   8.373   6.070  0.0502 -0.2375 -0.2627
  118POPC   C4A 1725   7.672   8.112   6.107 -0.0333 -0.0797  0.0039
  118POPC   C1B 1726   9.115   8.729   6.680  0.1561 -0.5402  0.1508
  118POPC   C2B 1727   9.321   8.627   6.274 -0.0685  0.2143 -0.2515
  118POPC   C3B 1728   9.641   8.441   6.050  0.3684 -0.1623 -0.1545
  118POPC   C4B 1729   9.676   8.326   5.598 -0.0279  0.1950  0.1374
  119POPC   NC3 1730   4.170   6.498   7.807  0.1617  0.2056 -0.0191
  119POPC   PO4 1731   3.783   6.595   7.520 -0.2763  0.5888 -0.0767
  119POPC   GL1 1732   3.620   6.404   7.110  0.1718  0.4173 -0.0311
  119POPC   GL2 1733   3.315   6.219   7.114  0.1061  0.1952  0.0996
  119POPC   C1A 1734   3.836   6.264   6.754 -0.1380 -0.0923  0.0291
  119POPC   D2A 1735   4.009   6.487   6.381 -0.3824  0.0271 -0.0099
  119POPC   C3A 1736   4.378   6.648   6.266 -0.5681  0.0226 -0.5158
  119POPC   C4A 1737   4.709   6.932   6.391  0.1578  0.1300 -0.1159
  119POPC   C1B 1738   3.203   6.685   6.998 -0.2432  0.1287  0.0847
  119POPC   C2B 1739   3.139   6.984   6.666  0.1248  0.0423 -0.0108
  119POPC   C3B 1740   3.233   7.024   6.260 -0.0142  0.1113 -0.3556
  119POPC   C4B 1741   3.141   6.810   5.780  0.0956 -0.0791  0.1979
  120POPC   NC3 1742   1.815   7.180   7.768  0.0313 -0.0118 -0.2406
  120POPC   PO4 1743   1.680   6.747   7.687 -0.0057  0.0892 -0.2582
  120POPC   GL1 1744   1.759   6.864   7.277  0.0254  0.0931  0.3032
  120POPC   GL2 1745   1.434   6.786   7.220  0.0717  0.2495 -0.0997
  120POPC   C1A 1746   1.872   7.037   6.933  0.1165 -0.4973 -0.1281
  120POPC   D2A 1747   1.736   7.276   6.577 -0.3903  0.1459 -0.1515
  120POPC   C3A 1748   1.992   7.323   6.218 -0.1508  0.2573  0.0228
  120POPC   C4A 1749   2.215   7.410   5.935 -0.1205 -0.3556 -0.2318
  120POPC   C1B 1750   1.300   6.908   6.805 -0.3423 -0.1652 -0.0217
  120POPC   C2B 1751   1.358   6.887   6.373 -0.0975 -0.0115  0.2657
  120POPC   C3B 1752   1.336   6.567   6.029 -0.1263  0.0524 -0.1492
  120POPC   C4B 1753   1.396   6.377   5.539 -0.2047 -0.0194  0.0431
  121POPC   NC3 1754   5.764   8.781   7.852  0.1646 -0.0309 -0.2785
  121POPC   PO4 1755   5.494   8.453   7.738 -0.1334  0.0691 -0.2857
  121POPC   GL1 1756   5.344   8.601   7.351 -0.0962  0.4524  0.0677
  121POPC   GL2 1757   5.525   8.896   7.369  0.0771 -0.1921  0.1883
  121POPC   C1A 1758   5.371   8.623   6.873  0.1002  0.1721  0.1808
  121POPC   D2A 1759   5.564   8.635   6.402 -0.1090 -0.0485 -0.1617
  121POPC   C3A 1760   5.705   8.294   6.251 -0.1189 -0.0273  0.0309
  121POPC   C4A 1761   5.990   8.008   6.179 -0.1911  0.2020  0.2597
  121POPC   C1B 1762   5.607   9.046   6.835  0.1338  0.0253 -0.0238
  121POPC   C2B 1763   5.834   9.155   6.378  0.1906 -0.4125  0.1870
  121POPC   C3B 1764   5.849   9.465   6.080  0.0804 -0.1162  0.0951
  121POPC   C4B 1765   5.663   9.773   5.747 -0.0687 -0.1265 -0.1255
  122POPC   NC3 1766   3.713   1.882   7.411  0.2232  0.2101  0.1271
  122POPC   PO4 1767   3.689   2.413   7.287 -0.2293  0.2787 -0.0447
  122POPC   GL1 1768   4.065   2.235   7.120 -0.1099  0.2794 -0.0152
  122POPC   GL2 1769   4.053   1.865   7.093 -0.0497 -0.0508  0.0822
  122POPC   C1A 1770   4.313   2.382   6.818  0.0667 -0.2805  0.0007
  122POPC   D2A 1771   4.442   2.404   6.456  0.0329 -0.1836 -0.1750
  122POPC   C3A 1772   3.985   2.250   6.264 -0.2275 -0.2466  0.2147
  122POPC   C4A 1773   3.777   2.176   5.829 -0.2116 -0.0311  0.1828
  122POPC   C1B 1774   4.080   1.976   6.654  0.1201  0.1363  0.0639
  122POPC   C2B 1775   4.285   1.883   6.233  0.1527 -0.0446  0.1599
  122POPC   C3B 1776   4.387   1.855   5.807  0.1269 -0.0160  0.1849
  122POPC   C4B 1777   4.251   2.071   5.377 -0.2679  0.2822  0.1006
  123POPC   NC3 1778   1.288   1.798   7.678  0.0938  0.3815 -0.2124
  123POPC   PO4 1779   0.839   1.832   7.741 -0.4387 -0.2226  0.2559
  123POPC   GL1 1780   0.847   1.638   7.299 -0.1134 -0.0613 -0.1253
  123POPC   GL2 1781   1.066   1.828   7.146 -0.2201  0.1683 -0.0226
  123POPC   C1A 1782   0.627   1.535   6.970  0.0342  0.2310 -0.1017
  123POPC   D2A 1783   0.568   1.393   6.619  0.0912  0.0653 -0.2125
  123POPC   C3A 1784   0.792   1.001   6.333  0.2976 -0.0028  0.0588
  123POPC   C4A 1785   0.642   0.793   5.995 -0.0586 -0.1469  0.2009
  123POPC   C1B 1786   0.988   1.742   6.722  0.1555  0.1107  0.0233
  123POPC   C2B 1787   1.006   1.461   6.357  0.3590 -0.0477  0.1468
  123POPC   C3B 1788   1.045   1.295   5.977  0.1157  0.0705 -0.0248
  123POPC   C4B 1789   0.771   1.104   5.580  0.2302 -0.1124  0.2452
  124POPC   NC3 1790   0.047   2.954   7.793  0.1306 -0.0528  0.0144
  124POPC   PO4 1791  -0.266   3.274   7.872 -0.1433  0.0468  0.0907
  124POPC   GL1 1792  -0.443   3.142   7.570  0.0795  0.1009  0.1808
  124POPC   GL2 1793  -0.422   3.340   7.404 -0.1171  0.0004 -0.2229
  124POPC   C1A 1794  -0.667   3.002   7.104  0.0344 -0.1562 -0.1215
  124POPC   D2A 1795  -0.925   3.102   6.724 -0.0590  0.0658 -0.2819
  124POPC   C3A 1796  -1.122   3.539   6.862 -0.1229 -0.1219  0.0596
  124POPC   C4A 1797  -1.249   3.896   7.174 -0.0367 -0.0933  0.4093
  124POPC   C1B 1798  -0.227   3.617   7.225 -0.1916  0.0180  0.2710
  124POPC   C2B 1799  -0.268   3.797   6.791 -0.1490 -0.2325 -0.0387
  124POPC   C3B 1800  -0.302   3.790   6.277 -0.3574  0.1326 -0.1918
  124POPC   C4B 1801  -0.336   3.544   5.982 -0.2117 -0.0946  0.3551
  125POPC   NC3 1802   1.357   5.019   7.580 -0.2504  0.1646  0.0565
  125POPC   PO4 1803   1.041   5.186   7.330  0.1240 -0.2996  0.1056
  125POPC   GL1 1804   1.295   5.021   6.990  0.1879  0.2108  0.0886
  125POPC   GL2 1805   1.212   4.817   6.771 -0.2664 -0.0069  0.0178
  125POPC   C1A 1806   1.645   5.099   6.709 -0.3889  0.2660  0.0627
  125POPC   D2A 1807   2.052   5.032   6.426 -0.1767  0.1260 -0.0997
  125POPC   C3A 1808   2.370   5.386   6.217  0.2465 -0.1018  0.0571
  125POPC   C4A 1809   2.287   5.645   5.769  0.1375  0.2110  0.0828
  125POPC   C1B 1810   1.153   5.132   6.424 -0.0002  0.0256  0.0419
  125POPC   C2B 1811   0.878   5.161   6.083 -0.0222 -0.0660  0.1511
  125POPC   C3B 1812   0.502   5.175   5.927  0.0556 -0.1284 -0.1520
  125POPC   C4B 1813   0.620   5.492   5.726  0.2834  0.2488 -0.0274
  126POPC   NC3 1814   6.367   4.280   7.967 -0.0155  0.0573 -0.0542
  126POPC   PO4 1815   6.774   4.145   8.018  0.0709 -0.2596  0.1683
  126POPC   GL1 1816   6.718   4.262   7.594  0.2388  0.0768 -0.0163
  126POPC   GL2 1817   6.480   4.012   7.501 -0.0601 -0.0498  0.1321
  126POPC   C1A 1818   6.341   4.430   7.233  0.0139 -0.4186  0.3130
  126POPC   D2A 1819   6.193   4.269   6.855 -0.0776 -0.1018  0.3138
  126POPC   C3A 1820   6.111   4.241   6.383 -0.2199 -0.0196  0.2873
  126POPC   C4A 1821   6.126   4.535   6.076 -0.1812 -0.2015  0.2934
  126POPC   C1B 1822   6.688   4.104   7.099 -0.3326 -0.0208 -0.4102
  126POPC   C2B 1823   6.988   4.108   6.853 -0.3761  0.3549 -0.0624
  126POPC   C3B 1824   7.195   4.253   6.452 -0.0774 -0.2695  0.2357
  126POPC   C4B 1825   7.238   4.053   6.000  0.2137 -0.3468 -0.0260
  127POPC   NC3 1826   2.579   6.870   8.079 -0.0125 -0.1007  0.0170
  127POPC   PO4 1827   2.992   7.018   7.926 -0.0398 -0.0716 -0.1267
  127POPC   GL1 1828   3.131   7.258   7.609 -0.1042 -0.1452 -0.3427
  127POPC   GL2 1829   2.974   7.539   7.640 -0.3607  0.2633  0.1961
  127POPC   C1A 1830   2.993   7.224   7.112  0.0437  0.0054  0.1246
  127POPC   D2A 1831   2.758   7.339   6.700 -0.1608 -0.0191  0.1706
  127POPC   C3A 1832   2.751   7.097   6.291  0.0182 -0.0446 -0.1725
  127POPC   C4A 1833   2.712   6.697   6.181  0.2604 -0.2402 -0.0559
  127POPC   C1B 1834   3.335   7.620   7.379  0.4246  0.0073  0.0309
  127POPC   C2B 1835   3.563   7.732   6.987 -0.0096  0.1678 -0.1829
  127POPC   C3B 1836   3.802   8.087   6.895 -0.1862 -0.0054  0.1799
  127POPC   C4B 1837   3.826   8.295   6.468 -0.0521  0.0019  0.0502
  128POPC   NC3 1838   8.279   6.638   7.547  0.1797  0.0103 -0.0336
  128POPC   PO4 1839   8.658   6.547   7.512  0.0303 -0.0848 -0.0250
  128POPC   GL1 1840   8.687   6.800   7.127 -0.1413  0.1408  0.3582
  128POPC   GL2 1841   8.406   6.573   7.075 -0.0366  0.0022 -0.2091
  128POPC   C1A 1842   8.678   6.978   6.715  0.0369 -0.0669  0.0699
  128POPC   D2A 1843   8.820   7.279   6.526 -0.0534  0.1959 -0.1914
  128POPC   C3A 1844   9.268   7.277   6.382  0.1272 -0.1333  0.2501
  128POPC   C4A 1845   9.561   7.096   6.367 -0.1274  0.1217  0.0964
  128POPC   C1B 1846   8.489   6.440   6.593 -0.1961 -0.0440  0.0280
  128POPC   C2B 1847   8.486   6.786   6.320  0.1523  0.0477 -0.0243
  128POPC   C3B 1848   8.791   6.955   6.157 -0.1595  0.2684 -0.2757
  128POPC   C4B 1849   9.001   7.285   5.941  0.3226  0.2453 -0.0578
  129POPC   NC3 1850   6.968   1.645   7.624  0.0628 -0.1781  0.4729
  129POPC   PO4 1851   7.376   1.575   7.786 -0.0708 -0.0824 -0.1055
  129POPC   GL1 1852   7.379   1.443   7.346 -0.2212  0.0298  0.1318
  129POPC   GL2 1853   7.252   1.752   7.201  0.1104 -0.1224 -0.4187
  129POPC   C1A 1854   7.705   1.224   7.108  0.1917  0.2070  0.0813
  129POPC   D2A 1855   7.909   1.016   6.730  0.4162  0.1170  0.0414
  129POPC   C3A 1856   8.040   1.195   6.391 -0.2794 -0.0093  0.0085
  129POPC   C4A 1857   8.156   1.591   6.064  0.0573  0.2060 -0.0648
  129POPC   C1B 1858   7.382   1.573   6.829 -0.1824  0.0450 -0.1451
  129POPC   C2B 1859   7.564   1.380   6.406 -0.1180 -0.1886  0.2512
  129POPC   C3B 1860   7.532   0.957   6.145  0.2193 -0.1401  0.2010
  129POPC   C4B 1861   7.441   0.697   5.800  0.2508 -0.4539  0.1332
  130POPC   NC3 1862   7.537   9.587   7.714  0.1077  0.0588  0.1574
  130POPC   PO4 1863   7.858   9.433   7.809 -0.5707 -0.1182  0.0650
  130POPC   GL1 1864   7.860   9.465   7.389 -0.2761  0.3066  0.0242
  130POPC   GL2 1865   7.623   9.260   7.199  0.1986 -0.1274  0.3073
  130POPC   C1A 1866   8.068   9.740   7.015  0.2111  0.5349 -0.0316
  130POPC   D2A 1867   8.484   9.934   6.962 -0.1210 -0.0146  0.3025
  130POPC   C3A 1868   8.552  10.219   6.582  0.0098 -0.2048 -0.1361
  130POPC   C4A 1869   8.321  10.327   6.188 -0.2828  0.1436  0.1627
  130POPC   C1B 1870   7.606   9.312   6.810 -0.0499 -0.1083  0.1083
  130POPC   C2B 1871   7.813   9.473   6.492  0.1704 -0.1039  0.1361
  130POPC   C3B 1872   7.917   9.564   6.110 -0.1686  0.2607 -0.1030
  130POPC   C4B 1873   8.155   9.751   5.730 -0.2027 -0.0051 -0.1818
  131POPC   NC3 1874   6.839  10.253   7.873  0.2676 -0.2965 -0.2903
  131POPC   PO4 1875   7.332  10.145   7.779  0.1367  0.4204  0.0310
  131POPC   GL1 1876   7.052   9.887   7.554  0.0792 -0.1465  0.0658
  131POPC   GL2 1877   7.220   9.574   7.343 -0.2999  0.2438 -0.2308
  131POPC   C1A 1878   6.870   9.872   7.132  0.1309 -0.1105 -0.1586
  131POPC   D2A 1879   6.754   9.764   6.758  0.3338  0.2063 -0.2403
  131POPC   C3A 1880   6.843   9.401   6.754 -0.2897 -0.4144  0.1128
  131POPC   C4A 1881   7.136   9.163   6.955  0.0902  0.0618 -0.0794
  131POPC   C1B 1882   7.288   9.667   6.990 -0.2641 -0.2536  0.2965
  131POPC   C2B 1883   7.644   9.828   6.838 -0.0199  0.0466  0.2144
  131POPC   C3B 1884   7.677   9.966   6.486  0.4403 -0.1395  0.1506
  131POPC   C4B 1885   7.370  10.266   6.284  0.1635  0.1870 -0.2850
  132POPC   NC3 1886   9.932   2.647   8.296 -0.0563  0.1454 -0.0163
  132POPC   PO4 1887   9.500   2.852   8.240 -0.1456 -0.1243 -0.0498
  132POPC   GL1 1888   9.520   2.836   7.889 -0.0646  0.0350 -0.2370
  132POPC   GL2 1889   9.749   3.032   7.727 -0.1413 -0.1530  0.2969
  132POPC   C1A 1890   9.285   2.784   7.552  0.0133  0.3695 -0.1303
  132POPC   D2A 1891   9.266   2.481   7.141  0.0648  0.0360  0.0369
  132POPC   C3A 1892   9.277   2.698   6.736 -0.1439 -0.0595  0.3237
  132POPC   C4A 1893   9.218   2.737   6.299  0.3048  0.2551  0.2141
  132POPC   C1B 1894   9.679   3.256   7.460 -0.1856  0.1668  0.0761
  132POPC   C2B 1895   9.881   3.715   7.370 -0.0204 -0.0196 -0.1595
  132POPC   C3B 1896  10.083   4.038   7.194  0.1730  0.0511  0.0240
  132POPC   C4B 1897  10.213   4.453   7.379 -0.0223  0.2726  0.0058
  133POPC   NC3 1898   0.645   5.415   7.725 -0.2188 -0.0837 -0.2760
  133POPC   PO4 1899   0.464   5.823   7.995  0.0946 -0.1989  0.0399
  133POPC   GL1 1900   0.615   6.185   7.613 -0.0780  0.0929  0.2341
  133POPC   GL2 1901   0.829   6.235   7.321  0.0439 -0.0686 -0.0998
  133POPC   C1A 1902   0.282   6.303   7.301  0.0536 -0.4058  0.1030
  133POPC   D2A 1903   0.161   6.307   6.991 -0.1190  0.3806 -0.0550
  133POPC   C3A 1904   0.594   6.470   6.791 -0.1486 -0.3162  0.1716
  133POPC   C4A 1905   1.033   6.449   6.909 -0.1586  0.0116  0.1203
  133POPC   C1B 1906   0.682   6.021   7.034  0.0902 -0.0084 -0.4120
  133POPC   C2B 1907   0.806   6.072   6.635 -0.3407 -0.2637 -0.1011
  133POPC   C3B 1908   1.168   5.919   6.538 -0.1074 -0.1312  0.0876
  133POPC   C4B 1909   1.317   5.548   6.627 -0.0269 -0.1702 -0.3636
  134POPC   NC3 1910   7.569   6.699   8.188 -0.0044 -0.1444  0.1383
  134POPC   PO4 1911   7.841   6.782   7.763  0.0237  0.1603 -0.0815
  134POPC   GL1 1912   7.661   6.653   7.345 -0.3899 -0.0615  0.0471
  134POPC   GL2 1913   7.948   6.628   7.171  0.0178 -0.0546 -0.0530
  134POPC   C1A 1914   7.522   6.765   6.853 -0.1892  0.0145 -0.3988
  134POPC   D2A 1915   7.661   6.623   6.507  0.2203  0.1223  0.0011
  134POPC   C3A 1916   7.588   6.153   6.464  0.0188 -0.2066  0.3824
  134POPC   C4A 1917   7.604   5.831   6.064  0.0412  0.2627  0.0199
  134POPC   C1B 1918   7.963   6.298   6.797 -0.0640  0.1926  0.2205
  134POPC   C2B 1919   8.087   6.207   6.400 -0.1554 -0.1352  0.1614
  134POPC   C3B 1920   8.266   6.391   6.095  0.1646  0.0540 -0.2827
  134POPC   C4B 1921   8.600   6.320   5.884 -0.0659 -0.1589  0.4839
  135POPC   NC3 1922  10.578   7.929   8.270 -0.0281  0.0134  0.0814
  135POPC   PO4 1923  10.288   7.864   8.000  0.2631  0.1591 -0.0777
  135POPC   GL1 1924  10.569   8.035   7.761  0.0331 -0.0579  0.3123
  135POPC   GL2 1925  10.694   8.253   7.848 -0.0015  0.0879  0.4107
  135POPC   C1A 1926  10.629   8.070   7.275 -0.1848 -0.0677  0.1795
  135POPC   D2A 1927  10.766   7.683   6.917  0.2747  0.1237 -0.0465
  135POPC   C3A 1928  10.860   7.601   6.473  0.1404 -0.1759 -0.0077
  135POPC   C4A 1929  10.671   7.729   6.067 -0.0270  0.1001 -0.2617
  135POPC   C1B 1930  11.000   8.417   7.591  0.1450  0.2329 -0.3481
  135POPC   C2B 1931  10.968   8.511   7.171  0.3436 -0.2138  0.3122
  135POPC   C3B 1932  10.715   8.480   6.781 -0.2710  0.2532  0.0332
  135POPC   C4B 1933  10.671   8.065   6.564  0.1301  0.0417 -0.1741
  136POPC   NC3 1934   7.959   2.752   8.111 -0.5001  0.1037 -0.2828
  136POPC   PO4 1935   8.452   2.759   8.126  0.0300 -0.0622 -0.0442
  136POPC   GL1 1936   8.584   2.510   7.690  0.2439 -0.4648 -0.1006
  136POPC   GL2 1937   8.828   2.515   7.483 -0.0111 -0.0284 -0.0100
  136POPC   C1A 1938   8.330   2.415   7.348  0.0695  0.1804  0.0092
  136POPC   D2A 1939   8.487   2.203   6.950 -0.0642  0.0530 -0.2063
  136POPC   C3A 1940   8.525   1.750   6.934 -0.2686 -0.1977  0.1948
  136POPC   C4A 1941   8.479   1.522   6.487  0.1936  0.1025 -0.2760
  136POPC   C1B 1942   8.797   2.579   7.059  0.2743  0.2968 -0.4538
  136POPC   C2B 1943   8.875   2.865   6.969  0.0938  0.1610  0.0438
  136POPC   C3B 1944   8.706   3.074   6.624 -0.2076 -0.0138  0.1904
  136POPC   C4B 1945   8.556   3.112   6.251 -0.1407 -0.1220  0.1655
  137POPC   NC3 1946   3.610   7.669   8.230  0.3834  0.3314  0.0358
  137POPC   PO4 1947   4.087   7.563   8.247 -0.0988  0.0035  0.3157
  137POPC   GL1 1948   3.948   7.542   7.776 -0.1620 -0.0368 -0.0402
  137POPC   GL2 1949   3.592   7.360   7.712 -0.3161 -0.1993  0.1577
  137POPC   C1A 1950   3.932   7.526   7.356  0.1737  0.2575  0.0492
  137POPC   D2A 1951   3.937   7.301   6.939 -0.1303 -0.0482 -0.0337
  137POPC   C3A 1952   3.958   7.648   6.669  0.0575  0.4262 -0.2058
  137POPC   C4A 1953   3.739   7.688   6.471  0.3417 -0.0557  0.2181
  137POPC   C1B 1954   3.507   7.152   7.273  0.1239  0.2781  0.1634
  137POPC   C2B 1955   3.519   7.088   6.920  0.1452  0.0087 -0.1340
  137POPC   C3B 1956   3.531   6.686   6.564  0.0697  0.2814 -0.1123
  137POPC   C4B 1957   3.221   6.556   6.200 -0.0569  0.3161 -0.3638
  138POPC   NC3 1958   9.580   6.447   7.923 -0.0089 -0.1826 -0.0582
  138POPC   PO4 1959   9.329   6.712   7.757 -0.2187 -0.1683 -0.0655
  138POPC   GL1 1960   9.175   6.570   7.320 -0.0495 -0.0820  0.0356
  138POPC   GL2 1961   9.084   6.297   7.142  0.2268 -0.0945  0.0980
  138POPC   C1A 1962   9.153   6.734   6.926 -0.2316  0.0279  0.2387
  138POPC   D2A 1963   9.096   6.795   6.573  0.1418 -0.1764  0.2314
  138POPC   C3A 1964   8.872   6.481   6.294  0.0960 -0.1972 -0.0570
  138POPC   C4A 1965   8.668   6.008   6.305  0.1729  0.1282  0.1217
  138POPC   C1B 1966   9.048   6.200   6.691 -0.0494  0.4623  0.1290
  138POPC   C2B 1967   9.155   5.867   6.448  0.0451 -0.1498 -0.2125
  138POPC   C3B 1968   9.369   5.470   6.334  0.2869  0.2825 -0.0493
  138POPC   C4B 1969   9.663   5.167   6.024  0.1598 -0.2546 -0.4168
  139POPC   NC3 1970   4.411   7.857   7.781  0.3338 -0.3272 -0.0345
  139POPC   PO4 1971   4.721   8.210   7.928  0.0230 -0.1898 -0.0579
  139POPC   GL1 1972   4.784   8.195   7.414 -0.3647  0.0866  0.0958
  139POPC   GL2 1973   4.734   7.916   7.189  0.0393 -0.1205 -0.0347
  139POPC   C1A 1974   5.085   8.230   7.028  0.0791  0.0961 -0.1323
  139POPC   D2A 1975   5.112   8.353   6.594  0.0539 -0.1252 -0.1234
  139POPC   C3A 1976   5.239   8.173   6.282 -0.0000  0.1366 -0.0631
  139POPC   C4A 1977   5.506   7.833   6.019 -0.0494 -0.3533  0.0411
  139POPC   C1B 1978   4.865   7.815   6.802  0.0148 -0.0117 -0.1325
  139POPC   C2B 1979   4.555   7.619   6.534  0.0191  0.2314  0.0222
  139POPC   C3B 1980   4.799   7.399   6.144  0.0972 -0.1436 -0.3043
  139POPC   C4B 1981   5.102   7.188   6.176 -0.0020  0.2985 -0.0414
  140POPC   NC3 1982   4.512   5.559   7.740  0.0349  0.1141  0.1624
  140POPC   PO4 1983   4.622   5.193   7.923 -0.0666 -0.0793 -0.2423
  140POPC   GL1 1984   4.687   5.157   7.539  0.1521 -0.6424 -0.1609
  140POPC   GL2 1985   4.755   5.381   7.334 -0.0347 -0.2840  0.0013
  140POPC   C1A 1986   4.582   5.042   7.021  0.2607  0.0734 -0.0599
  140POPC   D2A 1987   4.622   4.942   6.576  0.2098 -0.1075 -0.0950
  140POPC   C3A 1988   4.614   5.146   6.190  0.0070  0.4084  0.0166
  140POPC   C4A 1989   4.787   5.364   5.700 -0.0906 -0.0605 -0.1700
  140POPC   C1B 1990   4.635   5.526   6.912 -0.1162  0.1893 -0.0444
  140POPC   C2B 1991   4.546   5.642   6.399 -0.2324  0.0357 -0.0416
  140POPC   C3B 1992   4.350   5.549   6.036 -0.0841  0.1718 -0.0514
  140POPC   C4B 1993   4.239   5.144   5.839  0.0345 -0.0481  0.4103
  141POPC   NC3 1994   2.665   5.700   7.581  0.0024 -0.0988  0.1298
  141POPC   PO4 1995   2.465   6.171   7.649 -0.0280  0.0877 -0.1794
  141POPC   GL1 1996   2.514   6.535   7.478  0.2724  0.0194  0.0883
  141POPC   GL2 1997   2.209   6.668   7.358  0.0203 -0.0537 -0.0775
  141POPC   C1A 1998   2.691   6.756   7.048  0.0493  0.2917  0.0754
  141POPC   D2A 1999   2.579   6.781   6.625 -0.1711 -0.2985 -0.1459
  141POPC   C3A 2000   2.387   6.356   6.527 -0.3474 -0.1349 -0.0772
  141POPC   C4A 2001   1.950   6.250   6.343 -0.0357  0.1039 -0.1345
  141POPC   C1B 2002   2.221   6.623   6.931  0.0312 -0.0011  0.3207
  141POPC   C2B 2003   1.928   6.684   6.582  0.1389  0.3207 -0.0684
  141POPC   C3B 2004   1.827   6.801   6.144  0.1066 -0.0447 -0.1355
  141POPC   C4B 2005   2.025   6.969   5.765  0.0218 -0.2233 -0.0512
  142POPC   NC3 2006   4.068   2.792   7.308 -0.0550  0.1430  0.1569
  142POPC   PO4 2007   4.223   3.099   7.616 -0.2060  0.0154 -0.0321
  142POPC   GL1 2008   4.359   3.225   7.163  0.2936  0.1328  0.4892
  142POPC   GL2 2009   4.049   3.017   6.881 -0.2748  0.0708 -0.0075
  142POPC   C1A 2010   4.768   3.268   6.978 -0.1052  0.1260  0.3913
  142POPC   D2A 2011   5.129   3.277   7.198 -0.0238  0.0371  0.0241
  142POPC   C3A 2012   5.503   3.162   7.248 -0.1214 -0.3586  0.1861
  142POPC   C4A 2013   5.982   2.946   7.139  0.2316  0.0198  0.1916
  142POPC   C1B 2014   3.670   2.931   6.719 -0.2042  0.0019 -0.0925
  142POPC   C2B 2015   3.353   2.805   6.505 -0.0238 -0.5003  0.0611
  142POPC   C3B 2016   3.010   2.582   6.108  0.0111  0.0960 -0.2116
  142POPC   C4B 2017   2.890   2.652   5.657 -0.1020 -0.0373 -0.1955
  143POPC   NC3 2018   0.359   0.313   8.384  0.2331  0.2060  0.1806
  143POPC   PO4 2019   0.728   0.514   8.465  0.1482 -0.2219 -0.1607
  143POPC   GL1 2020   0.740   0.724   8.150 -0.0258 -0.0765  0.0637
  143POPC   GL2 2021   0.599   1.019   7.869 -0.0915 -0.2165 -0.2003
  143POPC   C1A 2022   0.830   0.503   7.697 -0.1881 -0.0417 -0.1438
  143POPC   D2A 2023   1.203   0.640   7.407 -0.1090 -0.0892  0.2054
  143POPC   C3A 2024   1.192   0.868   6.992 -0.1455 -0.0461  0.2060
  143POPC   C4A 2025   0.980   1.240   6.845 -0.1660 -0.1661 -0.2098
  143POPC   C1B 2026   0.291   0.951   7.583  0.1117  0.1802 -0.1373
  143POPC   C2B 2027   0.210   0.707   7.293 -0.0629  0.1471  0.1482
  143POPC   C3B 2028   0.239   0.473   6.919 -0.4299  0.0298 -0.2284
  143POPC   C4B 2029   0.102   0.211   6.516 -0.0496 -0.0078  0.2674
  144POPC   NC3 2030   8.643   2.259   8.186  0.0570  0.0243  0.1369
  144POPC   PO4 2031   9.190   2.113   8.343 -0.0784 -0.0769  0.0582
  144POPC   GL1 2032   8.979   2.067   7.866 -0.0788 -0.0215 -0.4395
  144POPC   GL2 2033   9.188   2.168   7.701 -0.0864  0.2827 -0.1486
  144POPC   C1A 2034   8.779   2.012   7.496  0.0461  0.0449 -0.0123
  144POPC   D2A 2035   8.938   1.945   7.070 -0.1113  0.0032 -0.0555
  144POPC   C3A 2036   9.182   2.216   6.678  0.0000  0.0697 -0.4779
  144POPC   C4A 2037   9.274   2.243   6.235  0.2291 -0.2383 -0.2575
  144POPC   C1B 2038   9.324   1.837   7.363  0.1196 -0.1002  0.0161
  144POPC   C2B 2039   9.447   1.708   6.881  0.1816  0.0099 -0.1701
  144POPC   C3B 2040   9.642   1.908   6.488 -0.1179  0.2900 -0.0670
  144POPC   C4B 2041   9.761   2.178   6.183  0.1662  0.0115 -0.1742
  145POPC   NC3 2042   3.034   9.217   8.001 -0.1201  0.0644  0.0481
  145POPC   PO4 2043   2.974   8.880   7.783  0.3415 -0.4614 -0.0547
  145POPC   GL1 2044   2.880   8.714   7.493  0.0523  0.4314  0.3154
  145POPC   GL2 2045   2.518   8.622   7.437  0.1006 -0.2640 -0.2056
  145POPC   C1A 2046   2.882   8.479   7.145 -0.0541 -0.0934 -0.0662
  145POPC   D2A 2047   2.835   8.269   6.753 -0.2350 -0.0958 -0.1547
  145POPC   C3A 2048   2.891   7.850   6.530  0.0390  0.1370  0.1369
  145POPC   C4A 2049   2.866   7.560   6.214  0.1805  0.2065 -0.4023
  145POPC   C1B 2050   2.106   8.667   7.435  0.2283  0.1446 -0.0178
  145POPC   C2B 2051   1.818   8.970   7.466  0.2599 -0.2245 -0.0365
  145POPC   C3B 2052   1.656   9.350   7.284 -0.0152 -0.1013 -0.0321
  145POPC   C4B 2053   1.155   9.418   7.253  0.1087 -0.1420  0.1057
  146POPC   NC3 2054   5.816   0.880   8.427  0.0409 -0.2246  0.0961
  146POPC   PO4 2055   5.739   0.977   7.990  0.0496  0.0972  0.1238
  146POPC   GL1 2056   5.943   0.916   7.583 -0.0291  0.2952 -0.0996
  146POPC   GL2 2057   5.911   0.614   7.318 -0.0922  0.3236  0.0208
  146POPC   C1A 2058   5.830   1.184   7.226  0.2680 -0.2049  0.3077
  146POPC   D2A 2059   5.953   1.432   6.899 -0.1603  0.1276  0.0182
  146POPC   C3A 2060   6.019   1.311   6.433  0.1321 -0.1240  0.1449
  146POPC   C4A 2061   6.122   1.419   6.102  0.4385 -0.4408  0.1854
  146POPC   C1B 2062   6.249   0.461   6.951 -0.1991 -0.0292  0.0728
  146POPC   C2B 2063   6.403   0.123   6.649  0.1239 -0.0928 -0.3391
  146POPC   C3B 2064   6.310  -0.212   6.546  0.4609 -0.1570  0.2041
  146POPC   C4B 2065   5.940  -0.104   6.180  0.2174 -0.0595 -0.0422
  147POPC   NC3 2066   2.480   9.963   8.237  0.3925 -0.1140  0.2048
  147POPC   PO4 2067   2.580   9.527   7.996 -0.0029 -0.0640  0.1988
  147POPC   GL1 2068   2.768   9.426   7.578 -0.0849 -0.1351  0.2343
  147POPC   GL2 2069   3.092   9.560   7.553  0.0657 -0.1986 -0.3490
  147POPC   C1A 2070   2.644   9.584   7.143  0.1030  0.0321  0.1197
  147POPC   D2A 2071   2.535   9.629   6.686  0.0398  0.1426  0.0323
  147POPC   C3A 2072   2.492   9.617   6.255  0.0512  0.1333 -0.2180
  147POPC   C4A 2073   2.518   9.647   5.820  0.1286 -0.1190  0.0444
  147POPC   C1B 2074   3.144   9.383   7.155  0.0629  0.0586 -0.0761
  147POPC   C2B 2075   2.982   9.306   6.729 -0.0253 -0.0373 -0.1375
  147POPC   C3B 2076   3.054   9.067   6.327  0.2917 -0.1512 -0.3441
  147POPC   C4B 2077   2.934   8.887   6.049 -0.1268  0.3284 -0.4654
  148POPC   NC3 2078   5.177   8.094   7.845 -0.1168 -0.2430 -0.0246
  148POPC   PO4 2079   4.974   7.755   7.568  0.0427 -0.0441  0.0739
  148POPC   GL1 2080   5.077   7.510   7.195 -0.0551 -0.1492 -0.4868
  148POPC   GL2 2081   4.835   7.235   7.091 -0.0198 -0.0882  0.1193
  148POPC   C1A 2082   5.428   7.668   6.935  0.0023  0.0488  0.1826
  148POPC   D2A 2083   5.524   7.799   6.585  0.3978 -0.2255  0.1344
  148POPC   C3A 2084   5.594   8.222   6.734 -0.0504  0.1976 -0.2753
  148POPC   C4A 2085   5.854   8.569   6.840 -0.1680  0.3855  0.2344
  148POPC   C1B 2086   4.953   7.323   6.646  0.3198  0.2097  0.0114
  148POPC   C2B 2087   5.082   7.735   6.334 -0.1938 -0.3071  0.0660
  148POPC   C3B 2088   5.043   7.711   5.814 -0.2264 -0.1263 -0.3671
  148POPC   C4B 2089   5.158   7.588   5.481 -0.3130 -0.1983 -0.3296
  149POPC   NC3 2090   5.674   0.066   7.529 -0.0493 -0.2263 -0.1006
  149POPC   PO4 2091   5.210   0.192   7.531 -0.1773  0.3211 -0.0806
  149POPC   GL1 2092   5.252   0.122   7.158  0.2270  0.0109  0.1214
  149POPC   GL2 2093   5.466   0.355   7.136  0.0346 -0.1509  0.2081
  149POPC   C1A 2094   5.393  -0.206   6.866  0.1261  0.0562  0.2093
  149POPC   D2A 2095   5.191  -0.429   6.557  0.0689 -0.1397 -0.1585
  149POPC   C3A 2096   4.729  -0.304   6.521  0.1724 -0.1027  0.2089
  149POPC   C4A 2097   4.362  -0.160   6.458 -0.1043 -0.5054  0.0707
  149POPC   C1B 2098   5.688   0.541   6.693  0.1718 -0.2158 -0.1302
  149POPC   C2B 2099   5.777   0.725   6.314  0.3677  0.1526  0.4536
  149POPC   C3B 2100   5.985   0.931   6.027  0.2360  0.1450 -0.0365
  149POPC   C4B 2101   6.230   0.840   5.710  0.3005  0.2761 -0.2307
  150POPC   NC3 2102   0.482   2.124   7.816  0.1137 -0.0327 -0.0919
  150POPC   PO4 2103   0.050   2.499   7.926  0.0007  0.1085 -0.0722
  150POPC   GL1 2104  -0.176   2.151   7.693 -0.1146 -0.0146  0.0164
  150POPC   GL2 2105  -0.508   1.997   7.708 -0.0535  0.4769  0.5156
  150POPC   C1A 2106  -0.188   2.191   7.212  0.2422 -0.3419  0.1537
  150POPC   D2A 2107  -0.182   2.121   6.748  0.0418 -0.2200 -0.1921
  150POPC   C3A 2108  -0.201   1.780   6.721  0.1104 -0.1375  0.0325
  150POPC   C4A 2109  -0.369   1.398   6.524  0.1453 -0.1056 -0.0889
  150POPC   C1B 2110  -0.619   2.116   7.411  0.1376  0.2261  0.1648
  150POPC   C2B 2111  -0.652   2.399   6.952  0.0940  0.1613 -0.0559
  150POPC   C3B 2112  -0.489   2.584   6.782 -0.2387 -0.1315  0.2272
  150POPC   C4B 2113  -0.425   3.049   6.707 -0.0414  0.1415 -0.0366
  151POPC   NC3 2114   4.314   4.274   7.685  0.2049 -0.1872  0.0970
  151POPC   PO4 2115   4.732   4.285   7.879  0.2740  0.4777  0.0148
  151POPC   GL1 2116   4.676   4.110   7.412 -0.0996 -0.4118  0.0576
  151POPC   GL2 2117   4.820   3.751   7.318 -0.0631 -0.0421  0.2412
  151POPC   C1A 2118   4.632   4.186   7.002 -0.0186 -0.0350  0.1400
  151POPC   D2A 2119   4.833   3.923   6.821  0.0481 -0.0856 -0.2403
  151POPC   C3A 2120   5.171   4.058   6.657  0.0178  0.1703  0.1436
  151POPC   C4A 2121   5.281   3.948   6.176 -0.1945 -0.2577  0.0220
  151POPC   C1B 2122   4.466   3.641   7.004  0.1724 -0.0153  0.0836
  151POPC   C2B 2123   4.340   3.371   6.621 -0.0904  0.0421 -0.0255
  151POPC   C3B 2124   4.108   3.190   6.332  0.0520 -0.4097  0.0360
  151POPC   C4B 2125   3.663   3.162   6.257 -0.1585  0.3327 -0.3316
  152POPC   NC3 2126   4.663   3.417   7.649 -0.1334 -0.3173 -0.0214
  152POPC   PO4 2127   5.047   3.186   7.771 -0.1445 -0.2115  0.1237
  152POPC   GL1 2128   4.822   2.947   7.460 -0.1077 -0.0805  0.0182
  152POPC   GL2 2129   4.548   2.730   7.471 -0.0778 -0.2839 -0.0469
  152POPC   C1A 2130   5.010   2.816   7.084 -0.1449 -0.0379  0.1141
  152POPC   D2A 2131   5.074   3.049   6.677  0.2837  0.0893 -0.0596
  152POPC   C3A 2132   5.455   3.239   6.353  0.1809 -0.1442  0.0816
  152POPC   C4A 2133   5.880   3.410   6.290 -0.1439  0.0215 -0.0585
  152POPC   C1B 2134   4.529   2.832   6.909  0.1455 -0.0658  0.0333
  152POPC   C2B 2135   4.525   2.968   6.528 -0.3245 -0.3487 -0.1030
  152POPC   C3B 2136   4.439   2.737   6.069  0.0129 -0.1620 -0.1551
  152POPC   C4B 2137   4.629   2.708   5.778 -0.0756 -0.2030  0.2737
  153POPC   NC3 2138   0.257   3.601   7.713 -0.0910 -0.3047  0.0346
  153POPC   PO4 2139   0.499   3.869   7.628  0.4719  0.0537  0.4635
  153POPC   GL1 2140   0.240   4.099   7.490  0.1906 -0.1058 -0.2058
  153POPC   GL2 2141   0.003   4.097   7.229  0.2293  0.3229 -0.0918
  153POPC   C1A 2142   0.072   4.517   7.371 -0.0782  0.1724  0.3030
  153POPC   D2A 2143  -0.081   4.752   7.073  0.0599  0.0788  0.0879
  153POPC   C3A 2144   0.201   4.787   6.684  0.0521 -0.1045 -0.0892
  153POPC   C4A 2145   0.175   4.670   6.228 -0.0875  0.2568  0.2085
  153POPC   C1B 2146  -0.303   4.291   6.903 -0.1527  0.2970 -0.0006
  153POPC   C2B 2147  -0.567   4.219   6.454 -0.4495 -0.1023 -0.0787
  153POPC   C3B 2148  -0.706   3.972   6.098 -0.1933 -0.3358  0.0502
  153POPC   C4B 2149  -0.979   3.710   6.298  0.1175 -0.2676 -0.0607
  154POPC   NC3 2150   4.170   9.971   7.538 -0.4678 -0.1424 -0.1169
  154POPC   PO4 2151   4.393   9.520   7.549 -0.0492 -0.0195 -0.2895
  154POPC   GL1 2152   4.543   9.338   7.225 -0.3787 -0.2845 -0.0662
  154POPC   GL2 2153   4.254   9.562   7.020  0.2060  0.2497 -0.2438
  154POPC   C1A 2154   4.817   9.255   6.954 -0.0192 -0.2353 -0.0496
  154POPC   D2A 2155   5.296   9.417   6.824  0.1057  0.1024 -0.1265
  154POPC   C3A 2156   5.360   9.210   6.382 -0.0762 -0.0456 -0.0138
  154POPC   C4A 2157   5.406   9.220   5.963  0.0550 -0.1628  0.1053
  154POPC   C1B 2158   4.335   9.435   6.575  0.1190  0.0222 -0.4098
  154POPC   C2B 2159   4.500   9.518   6.183  0.0695  0.1085 -0.1350
  154POPC   C3B 2160   4.384   9.872   5.929  0.0963 -0.0584 -0.0434
  154POPC   C4B 2161   4.226  10.037   5.565  0.1099  0.1130 -0.1743
  155POPC   NC3 2162   3.871   6.018   7.501  0.2894  0.0403  0.1824
  155POPC   PO4 2163   4.248   5.981   7.759 -0.1976 -0.0778 -0.2132
  155POPC   GL1 2164   4.571   5.899   7.401 -0.1011 -0.0529  0.2773
  155POPC   GL2 2165   4.251   5.709   7.282 -0.0204 -0.1753 -0.1724
  155POPC   C1A 2166   4.939   5.883   7.241 -0.0945  0.0330 -0.2854
  155POPC   D2A 2167   5.174   5.690   6.793 -0.2713  0.1575 -0.2818
  155POPC   C3A 2168   5.026   5.789   6.384 -0.0046 -0.0634 -0.0223
  155POPC   C4A 2169   5.361   5.689   6.077  0.1155  0.2100 -0.1323
  155POPC   C1B 2170   4.339   5.921   6.883  0.2105  0.0887  0.3307
  155POPC   C2B 2171   4.506   6.165   6.588  0.1106 -0.3613  0.3483
  155POPC   C3B 2172   4.701   6.146   6.242 -0.0552 -0.3408  0.1354
  155POPC   C4B 2173   4.542   6.069   5.833  0.0273 -0.1153 -0.0064
  156POPC   NC3 2174   0.153   7.027   8.105 -0.2786 -0.0936  0.0661
  156POPC   PO4 2175   0.239   7.550   8.315  0.0047 -0.1315 -0.1917
  156POPC   GL1 2176   0.037   7.487   7.904 -0.0123  0.0671  0.2569
  156POPC   GL2 2177   0.037   7.217   7.660 -0.1537  0.0302 -0.1562
  156POPC   C1A 2178   0.233   7.643   7.492  0.2582  0.3424 -0.2195
  156POPC   D2A 2179   0.637   7.526   7.473  0.3117 -0.3413 -0.1224
  156POPC   C3A 2180   0.991   7.746   7.358  0.1266  0.0537  0.2467
  156POPC   C4A 2181   1.282   8.035   7.463  0.1336  0.0043  0.0228
  156POPC   C1B 2182  -0.026   7.283   7.264  0.0851 -0.1996  0.1038
  156POPC   C2B 2183  -0.284   7.293   6.860  0.1284  0.0733 -0.2499
  156POPC   C3B 2184  -0.614   7.225   6.671 -0.0309  0.1013  0.1465
  156POPC   C4B 2185  -0.563   7.104   6.287 -0.3190  0.0607  0.0065
  157POPC   NC3 2186   8.596   8.322   7.447 -0.0683 -0.0422 -0.2439
  157POPC   PO4 2187   8.436   7.881   7.609 -0.2112  0.2423  0.0189
  157POPC   GL1 2188   8.629   7.783   7.238 -0.1594 -0.0694 -0.3122
  157POPC   GL2 2189   8.772   7.955   7.190  0.0481  0.0535  0.1666
  157POPC   C1A 2190   8.553   7.635   6.821 -0.0917 -0.3353 -0.3316
  157POPC   D2A 2191   8.550   7.780   6.361  0.0515 -0.0845  0.0011
  157POPC   C3A 2192   8.435   8.058   6.112 -0.0068  0.0368 -0.1197
  157POPC   C4A 2193   8.368   8.433   5.802 -0.2151  0.1874 -0.0353
  157POPC   C1B 2194   8.736   8.090   6.864 -0.0151 -0.1934 -0.1187
  157POPC   C2B 2195   8.718   8.293   6.476 -0.0446 -0.0241 -0.3585
  157POPC   C3B 2196   8.739   8.633   6.185 -0.1128  0.1538 -0.1411
  157POPC   C4B 2197   8.727   8.973   5.919 -0.0560 -0.0293  0.1614
  158POPC   NC3 2198   3.829   8.596   7.881  0.0193 -0.0056 -0.0956
  158POPC   PO4 2199   3.867   8.142   7.789  0.0603 -0.0879 -0.0060
  158POPC   GL1 2200   3.914   8.479   7.409  0.2013  0.0053  0.0396
  158POPC   GL2 2201   3.813   8.657   7.235  0.3086 -0.2235 -0.0267
  158POPC   C1A 2202   4.240   8.435   7.067  0.2368 -0.1885  0.0671
  158POPC   D2A 2203   4.660   8.408   6.736 -0.2506  0.1603 -0.0257
  158POPC   C3A 2204   4.701   8.118   6.431 -0.1345  0.2055 -0.1648
  158POPC   C4A 2205   4.670   7.880   6.126 -0.2481 -0.1246 -0.2272
  158POPC   C1B 2206   3.935   8.684   6.780  0.3067  0.0314 -0.3076
  158POPC   C2B 2207   4.287   8.525   6.505 -0.0085 -0.0546  0.3512
  158POPC   C3B 2208   4.577   8.642   6.213 -0.0295 -0.4963 -0.0905
  158POPC   C4B 2209   4.849   8.371   6.008 -0.1322 -0.0184 -0.0113
  159POPC   NC3 2210   3.543   8.287   8.140 -0.1503  0.0564  0.0931
  159POPC   PO4 2211   3.224   8.336   7.858 -0.2509  0.3387 -0.0116
  159POPC   GL1 2212   3.103   8.109   7.474 -0.0113  0.2455  0.3901
  159POPC   GL2 2213   3.391   8.252   7.406  0.2153  0.2886 -0.5649
  159POPC   C1A 2214   2.898   7.883   7.262  0.0787 -0.1533 -0.0764
  159POPC   D2A 2215   3.062   7.659   6.962  0.0348 -0.0944 -0.1928
  159POPC   C3A 2216   3.217   7.474   6.627 -0.1077 -0.0514  0.3191
  159POPC   C4A 2217   3.357   7.472   6.247  0.0024 -0.1136 -0.4878
  159POPC   C1B 2218   3.284   8.098   6.960  0.0845 -0.1184 -0.2366
  159POPC   C2B 2219   3.325   8.031   6.471 -0.0303  0.0321 -0.2892
  159POPC   C3B 2220   3.259   7.972   6.066 -0.0560  0.2346 -0.1447
  159POPC   C4B 2221   3.011   7.767   5.723  0.3438 -0.1780 -0.1598
  160POPC   NC3 2222   7.381   5.902   7.580 -0.2292 -0.1429  0.2141
  160POPC   PO4 2223   7.040   5.668   7.839  0.1296  0.1545 -0.0778
  160POPC   GL1 2224   7.075   5.523   7.444 -0.1090  0.4056 -0.0338
  160POPC   GL2 2225   7.387   5.442   7.364  0.0130  0.2352  0.0484
  160POPC   C1A 2226   6.965   5.497   7.062 -0.4386 -0.1532  0.0510
  160POPC   D2A 2227   7.117   5.426   6.662  0.0100 -0.2258  0.0539
  160POPC   C3A 2228   6.747   5.458   6.281 -0.1181  0.2063  0.1138
  160POPC   C4A 2229   6.409   5.352   6.217 -0.1253  0.1702 -0.0034
  160POPC   C1B 2230   7.393   5.254   6.991 -0.2493  0.3270  0.0182
  160POPC   C2B 2231   7.664   5.156   6.674  0.1217  0.1537  0.0553
  160POPC   C3B 2232   8.105   5.187   6.307 -0.1368  0.0649 -0.2991
  160POPC   C4B 2233   8.431   4.853   6.200 -0.1078 -0.0969 -0.3093
  161POPC   NC3 2234   4.645   7.298   8.329 -0.1101  0.1909  0.0428
  161POPC   PO4 2235   4.410   7.336   7.874  0.0213  0.0620  0.1421
  161POPC   GL1 2236   4.404   7.243   7.422  0.1066 -0.2987 -0.2308
  161POPC   GL2 2237   4.415   6.826   7.259 -0.2731 -0.2362  0.0038
  161POPC   C1A 2238   4.433   7.551   7.053 -0.0511  0.1830  0.2258
  161POPC   D2A 2239   4.295   7.981   6.776 -0.0770  0.3497 -0.2394
  161POPC   C3A 2240   4.192   8.008   6.325  0.1741 -0.3076  0.0130
  161POPC   C4A 2241   3.918   7.850   5.986 -0.3051  0.0193  0.1795
  161POPC   C1B 2242   4.167   6.678   6.873 -0.1464  0.3081  0.0437
  161POPC   C2B 2243   3.956   6.897   6.682 -0.2951 -0.1820 -0.0406
  161POPC   C3B 2244   3.681   7.160   6.442 -0.2164  0.0496 -0.0701
  161POPC   C4B 2245   3.772   7.364   6.054 -0.1725 -0.1496 -0.3685
  162POPC   NC3 2246   7.024   4.642   7.838 -0.1479  0.0838 -0.2715
  162POPC   PO4 2247   7.489   4.571   7.808 -0.2212  0.0176  0.0408
  162POPC   GL1 2248   7.363   4.633   7.386 -0.0829  0.0111  0.1290
  162POPC   GL2 2249   7.106   4.399   7.220  0.0895 -0.1137  0.0639
  162POPC   C1A 2250   7.384   4.757   6.927 -0.1591  0.0482  0.3180
  162POPC   D2A 2251   7.411   4.699   6.512 -0.1897  0.1480  0.1027
  162POPC   C3A 2252   7.284   5.020   6.295  0.2528 -0.0704  0.1050
  162POPC   C4A 2253   7.221   5.461   6.144  0.0763 -0.2386  0.1402
  162POPC   C1B 2254   6.955   4.566   6.854 -0.3423 -0.0119  0.0967
  162POPC   C2B 2255   6.604   4.444   6.612  0.2544 -0.1436  0.4747
  162POPC   C3B 2256   6.646   4.411   6.217 -0.0552  0.1512  0.3107
  162POPC   C4B 2257   6.695   4.090   6.170 -0.0079 -0.1292 -0.1314
  163POPC   NC3 2258   9.206   4.053   8.023  0.0469 -0.1042  0.0071
  163POPC   PO4 2259   9.277   4.473   8.035 -0.1759  0.1410  0.0228
  163POPC   GL1 2260   9.261   4.596   7.563 -0.0060  0.1187 -0.0651
  163POPC   GL2 2261   8.994   4.431   7.550  0.3089 -0.1746  0.0869
  163POPC   C1A 2262   9.353   4.803   7.233 -0.4404 -0.2176 -0.0331
  163POPC   D2A 2263   9.141   4.803   6.851 -0.1132 -0.4262  0.0220
  163POPC   C3A 2264   9.385   4.553   6.582 -0.1782  0.1346 -0.1104
  163POPC   C4A 2265   9.530   4.235   6.211  0.0581  0.0993 -0.2433
  163POPC   C1B 2266   9.134   4.314   7.173  0.0982 -0.2275  0.1383
  163POPC   C2B 2267   9.104   4.115   6.750 -0.0663  0.1533 -0.1603
  163POPC   C3B 2268   9.214   3.788   6.460  0.0567  0.1383 -0.2910
  163POPC   C4B 2269   8.995   3.455   6.116 -0.1268  0.1270 -0.0311
  164POPC   NC3 2270   2.028   4.553   7.363  0.0773 -0.0653  0.2942
  164POPC   PO4 2271   1.647   4.732   7.292  0.0865 -0.1781  0.0691
  164POPC   GL1 2272   1.739   4.641   6.846  0.1184 -0.1365  0.0379
  164POPC   GL2 2273   2.092   4.632   6.738  0.0278 -0.1580 -0.2565
  164POPC   C1A 2274   1.662   4.538   6.454  0.0108  0.1642  0.0986
  164POPC   D2A 2275   1.515   4.841   6.262 -0.0450 -0.0016  0.0971
  164POPC   C3A 2276   1.248   4.786   5.984  0.0240  0.2497  0.0903
  164POPC   C4A 2277   1.213   4.799   5.541  0.1139 -0.0705 -0.1131
  164POPC   C1B 2278   2.279   4.532   6.425 -0.1531 -0.1702  0.1116
  164POPC   C2B 2279   2.244   4.563   5.960 -0.0297 -0.1326  0.1124
  164POPC   C3B 2280   2.504   4.505   5.570 -0.2732  0.1812  0.0925
  164POPC   C4B 2281   2.822   4.394   5.487 -0.1484  0.1003  0.2019
  165POPC   NC3 2282   4.871   7.251   7.626  0.2381  0.1264  0.1154
  165POPC   PO4 2283   4.909   6.839   7.370  0.1742  0.0345 -0.1136
  165POPC   GL1 2284   5.275   7.006   7.257 -0.0047  0.0003  0.0848
  165POPC   GL2 2285   5.351   6.702   7.064  0.1678 -0.2658  0.2230
  165POPC   C1A 2286   5.625   7.071   6.945  0.1940  0.1945  0.0674
  165POPC   D2A 2287   5.492   7.251   6.539 -0.1375  0.0864 -0.2437
  165POPC   C3A 2288   5.580   7.001   6.219 -0.0519 -0.1287 -0.1108
  165POPC   C4A 2289   5.723   6.941   5.914  0.2407 -0.1899 -0.2869
  165POPC   C1B 2290   5.232   6.832   6.643 -0.2061 -0.1049 -0.2476
  165POPC   C2B 2291   5.121   6.705   6.258 -0.0379  0.1672  0.0921
  165POPC   C3B 2292   4.784   6.595   6.020 -0.2213  0.2864 -0.0475
  165POPC   C4B 2293   4.556   6.651   5.613 -0.1935  0.1890 -0.1396
  166POPC   NC3 2294  10.493   0.961   8.477  0.0339  0.3310 -0.1437
  166POPC   PO4 2295  10.719   0.624   8.764  0.1296  0.2886  0.3336
  166POPC   GL1 2296  10.549   0.498   8.270 -0.1216  0.0271  0.0901
  166POPC   GL2 2297  10.635   0.091   8.183 -0.2243  0.0158 -0.0867
  166POPC   C1A 2298  10.381   0.498   7.775  0.0031 -0.1337  0.0944
  166POPC   D2A 2299  10.188   0.790   7.439 -0.1937 -0.0955 -0.0081
  166POPC   C3A 2300  10.436   0.889   7.057  0.0497 -0.2780 -0.2468
  166POPC   C4A 2301  10.021   0.942   6.781 -0.0916 -0.0363 -0.0309
  166POPC   C1B 2302  10.856  -0.095   7.877  0.3451  0.2513  0.3993
  166POPC   C2B 2303  11.132  -0.398   7.789  0.4051  0.0407 -0.3246
  166POPC   C3B 2304  11.374  -0.702   7.901 -0.2556  0.0630 -0.1813
  166POPC   C4B 2305  11.545  -1.005   8.289  0.2105  0.2174  0.1436
  167POPC   NC3 2306   9.722   9.513   8.680 -0.0189  0.1163  0.0021
  167POPC   PO4 2307   9.935   9.347   8.387  0.0466 -0.0773  0.1000
  167POPC   GL1 2308  10.001   9.468   7.936 -0.0805  0.1663 -0.0693
  167POPC   GL2 2309  10.120   9.184   7.827 -0.1418  0.0388 -0.1001
  167POPC   C1A 2310   9.958   9.436   7.438  0.0382  0.2815 -0.0274
  167POPC   D2A 2311   9.570   9.723   7.247 -0.3734 -0.2370  0.0665
  167POPC   C3A 2312   9.394   9.670   6.831 -0.1498 -0.1541  0.0862
  167POPC   C4A 2313   9.231   9.598   6.409  0.1763  0.4112 -0.0364
  167POPC   C1B 2314  10.369   9.174   7.414  0.3059 -0.1093  0.1967
  167POPC   C2B 2315  10.250   9.307   7.037 -0.1686 -0.2316 -0.0764
  167POPC   C3B 2316  10.203   9.467   6.705  0.2760  0.3767  0.1996
  167POPC   C4B 2317  10.316   9.756   6.425  0.2381 -0.0725  0.1242
  168POPC   NC3 2318   5.375   7.435   7.627  0.0017 -0.0142  0.4283
  168POPC   PO4 2319   5.361   6.919   7.705 -0.1332 -0.1414 -0.1072
  168POPC   GL1 2320   5.732   6.946   7.441 -0.1416  0.1994  0.0413
  168POPC   GL2 2321   5.861   6.721   7.299  0.0442 -0.1079 -0.1710
  168POPC   C1A 2322   6.038   7.204   7.157 -0.2722  0.1291 -0.0816
  168POPC   D2A 2323   5.891   7.436   6.814  0.0065  0.2719 -0.1122
  168POPC   C3A 2324   5.981   7.822   6.745 -0.0361  0.0233  0.3261
  168POPC   C4A 2325   6.183   8.212   6.597 -0.2556 -0.0414 -0.1884
  168POPC   C1B 2326   5.834   6.451   7.017 -0.3843  0.0786 -0.1235
  168POPC   C2B 2327   6.119   6.336   6.624 -0.2089 -0.3089 -0.0793
  168POPC   C3B 2328   5.981   6.124   6.306 -0.0581 -0.2102 -0.0359
  168POPC   C4B 2329   5.698   6.040   5.973 -0.1727  0.0445  0.2422
  169POPC   NC3 2330   9.498   2.323   8.003  0.1885 -0.0188 -0.4375
  169POPC   PO4 2331   9.856   2.136   8.142  0.1020 -0.0298 -0.3473
  169POPC   GL1 2332   9.937   2.425   7.814  0.2921 -0.0509 -0.0302
  169POPC   GL2 2333  10.101   2.698   7.848  0.1656 -0.2121  0.1423
  169POPC   C1A 2334   9.758   2.522   7.435 -0.1590 -0.0003  0.3307
  169POPC   D2A 2335   9.644   2.701   7.057  0.4643  0.0124 -0.0940
  169POPC   C3A 2336   9.379   3.100   7.103 -0.0489  0.0823  0.2015
  169POPC   C4A 2337   9.164   3.418   7.307  0.1871  0.1268 -0.2333
  169POPC   C1B 2338  10.305   2.671   7.388  0.2344 -0.0001  0.0623
  169POPC   C2B 2339  10.550   2.886   7.071 -0.1652 -0.1488 -0.1344
  169POPC   C3B 2340  10.990   3.040   6.970  0.1391  0.1408 -0.3649
  169POPC   C4B 2341  11.311   2.924   6.654  0.0469  0.0837  0.1774
  170POPC   NC3 2342   9.845   4.638   8.119  0.2082 -0.1729  0.3578
  170POPC   PO4 2343   9.473   4.967   8.015  0.0463  0.0104 -0.2135
  170POPC   GL1 2344   9.310   5.161   7.706  0.1417  0.2921  0.0404
  170POPC   GL2 2345   9.516   5.243   7.451 -0.1877 -0.2960  0.1423
  170POPC   C1A 2346   9.009   5.210   7.384 -0.3150  0.1193  0.3249
  170POPC   D2A 2347   8.651   5.378   7.110  0.0958  0.3150  0.0633
  170POPC   C3A 2348   8.309   5.587   7.126 -0.1228 -0.1823 -0.0682
  170POPC   C4A 2349   7.840   5.672   7.158 -0.0074  0.0869 -0.0723
  170POPC   C1B 2350   9.544   5.256   7.088  0.0968  0.0540  0.1736
  170POPC   C2B 2351   9.613   5.134   6.627 -0.1296 -0.1793 -0.1152
  170POPC   C3B 2352   9.317   4.972   6.353  0.1515  0.0964 -0.0557
  170POPC   C4B 2353   9.405   4.660   5.995  0.2318  0.0917 -0.2205
  171POPC   NC3 2354   1.997   6.254   7.727 -0.0360  0.1280 -0.1310
  171POPC   PO4 2355   2.103   5.770   7.581 -0.0619 -0.2515  0.1391
  171POPC   GL1 2356   2.383   5.944   7.200 -0.0193 -0.2122 -0.0573
  171POPC   GL2 2357   2.551   5.732   7.064  0.2219  0.0418  0.1955
  171POPC   C1A 2358   2.591   6.254   7.013 -0.1854  0.1381  0.2320
  171POPC   D2A 2359   2.890   6.377   6.665  0.0684 -0.0408 -0.0026
  171POPC   C3A 2360   3.355   6.230   6.601 -0.0617  0.1373  0.1014
  171POPC   C4A 2361   3.694   6.108   6.317 -0.1226  0.1085  0.0282
  171POPC   C1B 2362   2.557   5.494   6.715  0.1138 -0.0288  0.2014
  171POPC   C2B 2363   2.521   5.124   6.603  0.1707  0.0332 -0.2293
  171POPC   C3B 2364   2.535   4.964   6.138 -0.0805 -0.0290 -0.0858
  171POPC   C4B 2365   2.637   4.929   5.781  0.0263 -0.0076 -0.0345
  172POPC   NC3 2366   2.409   8.389   8.849 -0.1641 -0.3633 -0.2095
  172POPC   PO4 2367   2.069   8.245   8.506  0.0801 -0.1020  0.2996
  172POPC   GL1 2368   2.122   8.157   7.970  0.3643 -0.0125 -0.0594
  172POPC   GL2 2369   2.275   8.425   7.892 -0.0271 -0.0453  0.1082
  172POPC   C1A 2370   2.131   8.093   7.552  0.2903 -0.1088 -0.2718
  172POPC   D2A 2371   1.756   7.871   7.387 -0.3256  0.1868 -0.1107
  172POPC   C3A 2372   1.601   7.936   7.096  0.0453 -0.0318 -0.0124
  172POPC   C4A 2373   1.415   8.191   6.924 -0.1834  0.0812  0.2012
  172POPC   C1B 2374   1.954   8.665   7.898 -0.3060 -0.3272  0.0265
  172POPC   C2B 2375   1.501   8.819   7.808  0.2039  0.0650  0.0850
  172POPC   C3B 2376   1.306   9.236   7.757 -0.4699  0.0617 -0.0060
  172POPC   C4B 2377   1.008   9.530   7.868  0.1898  0.0902  0.3092
  173POPC   NC3 2378   2.028  10.605   8.736  0.1953 -0.0833 -0.1799
  173POPC   PO4 2379   1.623  10.356   8.808  0.0834  0.1110 -0.0192
  173POPC   GL1 2380   1.744  10.304   8.351 -0.1956 -0.1355  0.1443
  173POPC   GL2 2381   1.825  10.602   8.252  0.2446 -0.1819  0.0866
  173POPC   C1A 2382   1.879  10.172   7.931  0.0635  0.0014 -0.2000
  173POPC   D2A 2383   1.631  10.110   7.625 -0.1799 -0.2143  0.1516
  173POPC   C3A 2384   1.873  10.069   7.229  0.0818 -0.0957  0.1562
  173POPC   C4A 2385   2.214  10.484   7.040  0.2475 -0.2880 -0.2354
  173POPC   C1B 2386   2.100  10.727   7.927 -0.3259  0.0488 -0.2725
  173POPC   C2B 2387   2.231  10.926   7.490  0.0407 -0.2888 -0.0150
  173POPC   C3B 2388   1.909  10.926   7.158 -0.2557  0.2682 -0.2267
  173POPC   C4B 2389   2.020  10.847   6.681  0.0325  0.1511 -0.3842
  174POPC   NC3 2390   3.713   3.800   3.887  0.1964  0.0344 -0.1713
  174POPC   PO4 2391   3.635   3.367   3.698 -0.0248  0.0437 -0.0063
  174POPC   GL1 2392   3.508   3.415   4.139  0.1764 -0.1841  0.0863
  174POPC   GL2 2393   3.731   3.482   4.316 -0.0976 -0.1851 -0.2450
  174POPC   C1A 2394   3.318   3.244   4.514  0.1295  0.4205  0.0346
  174POPC   D2A 2395   2.892   3.283   4.609 -0.1606  0.0434 -0.0566
  174POPC   C3A 2396   2.792   2.984   4.833 -0.0486 -0.1525  0.3220
  174POPC   C4A 2397   2.822   2.871   5.193  0.4642 -0.1024 -0.3105
  174POPC   C1B 2398   3.642   3.655   4.690  0.0106 -0.3802  0.0592
  174POPC   C2B 2399   3.567   3.792   5.069  0.2972 -0.3955  0.2135
  174POPC   C3B 2400   3.777   3.634   5.475  0.0050  0.2586  0.1853
  174POPC   C4B 2401   3.940   3.321   5.871  0.0798 -0.0921  0.0906
  175POPC   NC3 2402   6.052   2.489   3.806  0.1372  0.2308  0.2766
  175POPC   PO4 2403   6.446   2.675   3.775  0.3655 -0.0891  0.0424
  175POPC   GL1 2404   6.203   2.866   4.222  0.0857  0.1154  0.2119
  175POPC   GL2 2405   6.380   3.048   4.520  0.0251  0.1071 -0.0015
  175POPC   C1A 2406   6.057   2.610   4.489 -0.1623  0.0395  0.0169
  175POPC   D2A 2407   6.020   2.638   4.967 -0.2618  0.0466 -0.0317
  175POPC   C3A 2408   5.706   2.555   5.297 -0.2069  0.2717  0.0223
  175POPC   C4A 2409   5.606   2.467   5.746  0.2241  0.0424  0.1515
  175POPC   C1B 2410   6.293   3.436   4.766 -0.0682  0.0893 -0.0330
  175POPC   C2B 2411   6.673   3.681   4.870  0.0945  0.1634 -0.4098
  175POPC   C3B 2412   7.025   3.944   5.044 -0.2869 -0.1921  0.0683
  175POPC   C4B 2413   7.028   4.350   5.336  0.0975  0.4594  0.0788
  176POPC   NC3 2414   3.945   3.014   3.915  0.0513  0.0188  0.2527
  176POPC   PO4 2415   3.843   2.628   3.716  0.4573  0.2326 -0.2535
  176POPC   GL1 2416   3.588   2.394   4.105 -0.0089 -0.0590 -0.2154
  176POPC   GL2 2417   3.393   2.546   4.388 -0.3576 -0.1086  0.2487
  176POPC   C1A 2418   3.474   1.915   4.376  0.1371  0.0485  0.0517
  176POPC   D2A 2419   3.267   1.776   4.796 -0.1057 -0.3342 -0.0516
  176POPC   C3A 2420   3.069   1.841   5.210  0.1015  0.1584  0.1951
  176POPC   C4A 2421   2.964   1.481   5.477  0.0688 -0.0988 -0.0920
  176POPC   C1B 2422   3.308   2.824   4.761  0.1597  0.1155 -0.1943
  176POPC   C2B 2423   3.308   2.928   5.099  0.1141  0.2566  0.1514
  176POPC   C3B 2424   3.340   2.913   5.463  0.3164  0.0213 -0.1439
  176POPC   C4B 2425   3.440   2.740   5.887 -0.4914  0.4878  0.3785
  177POPC   NC3 2426   4.456   3.287   3.847  0.1626  0.0310 -0.2297
  177POPC   PO4 2427   4.100   3.483   3.916 -0.0269 -0.0293 -0.0827
  177POPC   GL1 2428   4.308   3.754   4.238  0.1968 -0.1373  0.2429
  177POPC   GL2 2429   4.069   3.860   4.429 -0.0074  0.1504  0.1284
  177POPC   C1A 2430   4.527   3.688   4.698 -0.2829  0.3235  0.2329
  177POPC   D2A 2431   4.703   3.396   4.961 -0.0284  0.1514  0.0600
  177POPC   C3A 2432   4.759   3.249   5.406  0.2549  0.0614 -0.1459
  177POPC   C4A 2433   4.929   3.117   5.750  0.2912 -0.0756 -0.2682
  177POPC   C1B 2434   4.087   3.909   4.821  0.2115  0.0096 -0.0387
  177POPC   C2B 2435   4.065   3.618   5.072  0.0742 -0.1562  0.0776
  177POPC   C3B 2436   4.323   3.533   5.367  0.1304 -0.1715  0.0047
  177POPC   C4B 2437   4.497   3.675   5.647 -0.0018  0.1113  0.0263
  178POPC   NC3 2438  10.161   9.228   3.144 -0.0658  0.1423  0.0514
  178POPC   PO4 2439   9.890   9.042   3.523 -0.0167 -0.2041  0.1056
  178POPC   GL1 2440   9.811   9.273   3.855  0.2630  0.3545 -0.0484
  178POPC   GL2 2441  10.009   9.317   4.089  0.2623  0.0667 -0.4435
  178POPC   C1A 2442   9.454   9.313   4.041 -0.1456 -0.0814  0.0155
  178POPC   D2A 2443   9.208   9.407   4.285  0.2351  0.1312  0.1189
  178POPC   C3A 2444   9.009   9.284   4.600 -0.1129 -0.3186  0.2723
  178POPC   C4A 2445   9.005   9.310   5.048  0.0581  0.0403  0.1987
  178POPC   C1B 2446  10.020   9.246   4.569  0.1807 -0.1567  0.0578
  178POPC   C2B 2447   9.808   9.266   4.925  0.1312 -0.2645 -0.3022
  178POPC   C3B 2448   9.478   9.128   5.044  0.0170  0.0131 -0.4327
  178POPC   C4B 2449   9.233   8.939   5.320 -0.0059  0.0300 -0.2541
  179POPC   NC3 2450   4.078   3.113   3.473 -0.1764  0.2454 -0.1013
  179POPC   PO4 2451   4.374   2.831   3.767  0.0647  0.2388  0.0236
  179POPC   GL1 2452   4.378   2.909   4.160 -0.3342 -0.0658  0.2353
  179POPC   GL2 2453   4.150   3.174   4.334 -0.0026 -0.1846 -0.0230
  179POPC   C1A 2454   4.378   2.717   4.588  0.0804  0.0517  0.2191
  179POPC   D2A 2455   4.270   2.516   4.958  0.1674 -0.0200  0.0132
  179POPC   C3A 2456   4.501   2.246   5.002  0.2781 -0.0182  0.0437
  179POPC   C4A 2457   4.798   2.096   4.802 -0.1689 -0.0802 -0.0863
  179POPC   C1B 2458   4.296   3.184   4.750 -0.2207 -0.0902 -0.2212
  179POPC   C2B 2459   4.199   2.991   5.112  0.0492 -0.2782 -0.1253
  179POPC   C3B 2460   4.201   3.010   5.480 -0.0484  0.0498 -0.0525
  179POPC   C4B 2461   3.985   2.763   5.848  0.1012 -0.0875 -0.0193
  180POPC   NC3 2462   9.618   0.375   3.420  0.0274  0.3558 -0.0787
  180POPC   PO4 2463   9.729   0.672   3.797 -0.1361  0.1982 -0.2366
  180POPC   GL1 2464   9.819   0.472   4.134 -0.2531 -0.1546 -0.0152
  180POPC   GL2 2465   9.757   0.641   4.435 -0.2628 -0.0401  0.3021
  180POPC   C1A 2466  10.266   0.393   4.199  0.0773 -0.2852 -0.3179
  180POPC   D2A 2467  10.635   0.458   4.408  0.3074 -0.1999 -0.1082
  180POPC   C3A 2468  10.910   0.160   4.585  0.1014  0.0663 -0.0459
  180POPC   C4A 2469  10.899  -0.220   4.282  0.0900  0.1778  0.1671
  180POPC   C1B 2470   9.517   0.409   4.774 -0.0088 -0.1862 -0.1111
  180POPC   C2B 2471   9.412   0.393   5.214  0.3842  0.0922 -0.0256
  180POPC   C3B 2472   9.429  -0.012   5.516  0.2998  0.0291 -0.0344
  180POPC   C4B 2473   9.189  -0.192   5.815  0.1373 -0.0166  0.0061
  181POPC   NC3 2474   8.479   4.682   4.069  0.0630 -0.1588 -0.0703
  181POPC   PO4 2475   8.830   4.809   4.053  0.3661 -0.0496  0.1501
  181POPC   GL1 2476   8.950   4.608   4.413 -0.1159  0.3206  0.1131
  181POPC   GL2 2477   9.141   4.416   4.369  0.0143  0.4222  0.1813
  181POPC   C1A 2478   8.730   4.729   4.799 -0.0226 -0.1781 -0.0711
  181POPC   D2A 2479   8.677   4.588   5.201  0.0224 -0.1865  0.2515
  181POPC   C3A 2480   8.818   4.395   5.504  0.2178  0.0556 -0.0096
  181POPC   C4A 2481   9.029   4.354   5.934 -0.0861  0.0142 -0.2608
  181POPC   C1B 2482   9.161   4.415   4.851  0.0583 -0.1018  0.2367
  181POPC   C2B 2483   9.140   4.774   5.193  0.0875 -0.0826  0.1911
  181POPC   C3B 2484   8.972   4.930   5.538 -0.2762 -0.1096 -0.0983
  181POPC   C4B 2485   9.158   5.120   5.906 -0.1404 -0.0234 -0.1485
  182POPC   NC3 2486  10.286   6.921   3.581  0.0573 -0.1620  0.2178
  182POPC   PO4 2487  10.271   6.641   3.896 -0.1398  0.3358  0.1897
  182POPC   GL1 2488  10.060   6.622   4.194  0.2700 -0.2830  0.1939
  182POPC   GL2 2489   9.942   6.362   4.196 -0.2126  0.2296  0.1299
  182POPC   C1A 2490  10.062   6.593   4.635  0.3379  0.1404 -0.3583
  182POPC   D2A 2491  10.429   6.755   4.897  0.1946  0.1447  0.0519
  182POPC   C3A 2492  10.369   7.160   5.078 -0.0927  0.2433  0.0205
  182POPC   C4A 2493  10.139   7.453   5.282 -0.0208  0.0025 -0.0411
  182POPC   C1B 2494  10.075   6.079   4.643 -0.1746 -0.1227 -0.1148
  182POPC   C2B 2495  10.355   6.092   4.962 -0.2825  0.4205 -0.1635
  182POPC   C3B 2496  10.423   6.024   5.393 -0.0316 -0.1478  0.1738
  182POPC   C4B 2497  10.556   6.014   5.887  0.3384 -0.2247 -0.1926
  183POPC   NC3 2498   2.637   7.396   3.671  0.1181  0.3022 -0.0173
  183POPC   PO4 2499   2.674   6.981   3.891  0.0502  0.0782  0.2393
  183POPC   GL1 2500   2.808   7.189   4.197 -0.1522 -0.2194  0.0373
  183POPC   GL2 2501   2.827   6.907   4.420 -0.1955  0.0015 -0.1614
  183POPC   C1A 2502   2.716   7.342   4.583 -0.2068 -0.2495  0.1306
  183POPC   D2A 2503   2.783   7.346   5.081  0.1653  0.3352 -0.2356
  183POPC   C3A 2504   3.023   7.236   5.394 -0.0666  0.1246 -0.3043
  183POPC   C4A 2505   2.905   7.283   5.819 -0.0541  0.1723  0.4202
  183POPC   C1B 2506   3.008   6.987   4.786  0.0158 -0.1727  0.1894
  183POPC   C2B 2507   3.308   7.322   4.963 -0.0178 -0.0278 -0.3094
  183POPC   C3B 2508   3.635   7.582   5.070  0.2534  0.0230  0.0403
  183POPC   C4B 2509   3.806   8.061   5.053  0.0223 -0.1344 -0.1543
  184POPC   NC3 2510   1.047   0.867   3.463  0.3018  0.0751 -0.1537
  184POPC   PO4 2511   0.673   1.188   3.745  0.1933  0.0015 -0.0209
  184POPC   GL1 2512   0.842   0.768   3.990  0.1350  0.1581  0.4639
  184POPC   GL2 2513   1.157   0.646   3.917 -0.2162  0.2685 -0.3880
  184POPC   C1A 2514   0.841   0.383   4.197 -0.0070  0.0026  0.0886
  184POPC   D2A 2515   0.988   0.029   4.388  0.0093  0.0440  0.3133
  184POPC   C3A 2516   0.679  -0.130   4.568  0.4904  0.1015  0.0245
  184POPC   C4A 2517   0.340  -0.364   4.800 -0.4307 -0.1945 -0.3644
  184POPC   C1B 2518   1.241   1.020   4.252 -0.0327  0.1663  0.1776
  184POPC   C2B 2519   1.040   1.332   4.613 -0.1399  0.0805  0.2204
  184POPC   C3B 2520   1.059   1.115   5.036  0.1760  0.2911  0.0855
  184POPC   C4B 2521   1.199   0.860   5.319  0.0951 -0.0379  0.0671
  185POPC   NC3 2522   7.094   5.425   3.729  0.1938 -0.1971 -0.2604
  185POPC   PO4 2523   7.333   5.518   4.078  0.2089 -0.0236 -0.1316
  185POPC   GL1 2524   7.261   5.365   4.537 -0.1189  0.0605 -0.2070
  185POPC   GL2 2525   7.435   5.499   4.803 -0.0890 -0.1815  0.0506
  185POPC   C1A 2526   7.199   5.041   4.860  0.3823 -0.0382 -0.0160
  185POPC   D2A 2527   7.109   4.583   4.896 -0.0593  0.1513 -0.0984
  185POPC   C3A 2528   6.716   4.241   4.830  0.0430 -0.0172 -0.2162
  185POPC   C4A 2529   6.338   4.020   4.923 -0.0442  0.0741  0.4089
  185POPC   C1B 2530   7.693   5.742   4.988 -0.0421 -0.1621 -0.0260
  185POPC   C2B 2531   8.000   5.964   5.297 -0.2416  0.1910 -0.2077
  185POPC   C3B 2532   8.130   6.255   5.497  0.0848  0.1068 -0.2058
  185POPC   C4B 2533   8.387   6.579   5.326  0.1715 -0.1098  0.1623
  186POPC   NC3 2534   3.413   0.023   3.727 -0.1386  0.1819 -0.2109
  186POPC   PO4 2535   3.781   0.079   3.890  0.0960  0.2634  0.1496
  186POPC   GL1 2536   3.524   0.300   4.172  0.0038 -0.0042  0.1649
  186POPC   GL2 2537   3.394   0.513   4.064  0.1333 -0.2179  0.2629
  186POPC   C1A 2538   3.318   0.222   4.436 -0.1225  0.1236  0.1591
  186POPC   D2A 2539   3.088   0.222   4.834  0.2057 -0.2105  0.1583
  186POPC   C3A 2540   2.960   0.601   5.083 -0.1298  0.2093  0.0597
  186POPC   C4A 2541   2.900   0.994   5.294 -0.0392  0.0967 -0.2637
  186POPC   C1B 2542   3.042   0.560   4.184  0.0885  0.1331  0.0753
  186POPC   C2B 2543   3.124   0.655   4.616  0.1796 -0.0568 -0.1435
  186POPC   C3B 2544   3.265   1.020   4.949 -0.0376  0.0102 -0.0654
  186POPC   C4B 2545   3.032   1.330   4.999 -0.1114  0.1671  0.2501
  187POPC   NC3 2546   3.186   8.442   3.175  0.2839 -0.0150 -0.5901
  187POPC   PO4 2547   3.003   8.706   3.498 -0.3850  0.3612  0.1225
  187POPC   GL1 2548   2.699   8.898   3.770  0.0910  0.0560 -0.3339
  187POPC   GL2 2549   2.392   9.107   3.721  0.0841  0.0673  0.1556
  187POPC   C1A 2550   2.321   8.687   3.998 -0.2956 -0.0319 -0.1512
  187POPC   D2A 2551   1.988   8.576   4.128  0.1079  0.1141  0.1359
  187POPC   C3A 2552   1.971   8.777   4.468  0.2055  0.2767  0.0021
  187POPC   C4A 2553   2.042   9.181   4.561 -0.0669 -0.4271 -0.2092
  187POPC   C1B 2554   2.748   9.418   3.936  0.2419  0.0873 -0.3832
  187POPC   C2B 2555   2.777   9.621   4.321 -0.2758  0.0885  0.0477
  187POPC   C3B 2556   2.522   9.680   4.600  0.2374 -0.2069  0.0905
  187POPC   C4B 2557   2.493   9.883   5.124 -0.3992  0.1981 -0.1941
  188POPC   NC3 2558  10.588   7.968   3.324  0.2211  0.0232 -0.0076
  188POPC   PO4 2559  10.762   7.752   3.671 -0.0062  0.3375 -0.1251
  188POPC   GL1 2560  11.007   7.540   4.067  0.1930 -0.1729 -0.2739
  188POPC   GL2 2561  11.003   7.190   4.248  0.0378  0.0976  0.0302
  188POPC   C1A 2562  11.155   7.542   4.526 -0.3321  0.0912  0.3753
  188POPC   D2A 2563  11.124   7.755   5.001 -0.1172  0.4020 -0.0070
  188POPC   C3A 2564  11.206   7.586   5.447 -0.0176 -0.0974 -0.2037
  188POPC   C4A 2565  10.928   7.314   5.696  0.1792  0.0630 -0.0682
  188POPC   C1B 2566  10.709   7.150   4.617 -0.0347 -0.1384 -0.0046
  188POPC   C2B 2567  10.272   7.291   4.576 -0.1493  0.1108 -0.2100
  188POPC   C3B 2568   9.893   7.336   4.713 -0.1045 -0.0939 -0.1111
  188POPC   C4B 2569   9.690   7.728   4.822 -0.0171  0.1120  0.1011
  189POPC   NC3 2570   5.425   0.544   4.012  0.2409 -0.0966  0.6644
  189POPC   PO4 2571   5.782   0.833   3.970 -0.1866  0.0170  0.1376
  189POPC   GL1 2572   5.514   0.953   4.330 -0.0961 -0.0701 -0.1481
  189POPC   GL2 2573   5.857   1.049   4.477  0.1656 -0.0684 -0.4591
  189POPC   C1A 2574   5.417   1.333   4.580  0.0314  0.1909  0.2973
  189POPC   D2A 2575   5.557   1.560   4.939  0.1418 -0.0669  0.4447
  189POPC   C3A 2576   5.602   1.446   5.348  0.1294  0.0097  0.3641
  189POPC   C4A 2577   5.490   1.282   5.672  0.1623  0.0827 -0.0146
  189POPC   C1B 2578   6.108   0.886   4.748 -0.0037  0.3347  0.0257
  189POPC   C2B 2579   6.432   0.641   4.985  0.2416  0.3224  0.0008
  189POPC   C3B 2580   6.510   0.528   5.418 -0.1472  0.2496 -0.0193
  189POPC   C4B 2581   6.927   0.416   5.603 -0.0170 -0.0622  0.1836
  190POPC   NC3 2582   3.309   1.321   3.346  0.1182 -0.2214 -0.2132
  190POPC   PO4 2583   3.060   1.613   3.570 -0.1200 -0.0208 -0.1510
  190POPC   GL1 2584   3.011   1.504   4.022  0.2198 -0.2576  0.1079
  190POPC   GL2 2585   3.326   1.410   4.088 -0.1234 -0.3193 -0.0476
  190POPC   C1A 2586   3.007   1.570   4.444 -0.0094  0.0408  0.1611
  190POPC   D2A 2587   2.771   1.766   4.756  0.0682 -0.3929 -0.1821
  190POPC   C3A 2588   2.625   2.151   4.699  0.3865 -0.4647 -0.0049
  190POPC   C4A 2589   2.874   2.546   4.723  0.1995  0.2489  0.3600
  190POPC   C1B 2590   3.812   1.387   4.164 -0.2045  0.0033 -0.1281
  190POPC   C2B 2591   4.048   1.186   4.385 -0.1363 -0.1502 -0.0565
  190POPC   C3B 2592   4.302   1.186   4.731  0.2319 -0.0338 -0.2749
  190POPC   C4B 2593   4.185   1.229   5.136  0.1137  0.0427 -0.2429
  191POPC   NC3 2594   8.638   2.781   4.032 -0.1535 -0.2818  0.1844
  191POPC   PO4 2595   8.272   2.615   4.185  0.4472 -0.3823  0.3994
  191POPC   GL1 2596   8.110   2.592   4.531  0.0398 -0.2795  0.3132
  191POPC   GL2 2597   7.760   2.537   4.520  0.0737 -0.2865  0.1037
  191POPC   C1A 2598   7.849   2.899   4.836 -0.2055 -0.0661 -0.1025
  191POPC   D2A 2599   7.722   3.374   5.032  0.1729  0.2261  0.0818
  191POPC   C3A 2600   7.544   3.350   5.420 -0.0981  0.0100 -0.2348
  191POPC   C4A 2601   7.269   3.608   5.616  0.0554 -0.0155  0.1447
  191POPC   C1B 2602   7.624   2.481   4.928 -0.4257  0.2454 -0.0854
  191POPC   C2B 2603   7.549   2.471   5.411 -0.0047 -0.1553 -0.1244
  191POPC   C3B 2604   7.858   2.477   5.788  0.0030  0.0886  0.1154
  191POPC   C4B 2605   7.992   2.358   6.218  0.0899 -0.0343 -0.0299
  192POPC   NC3 2606  10.271   1.884   3.963 -0.3041  0.2237 -0.1457
  192POPC   PO4 2607  10.628   1.926   4.249 -0.1449 -0.1952 -0.1807
  192POPC   GL1 2608  10.523   1.854   4.684 -0.0187  0.0042  0.3322
  192POPC   GL2 2609  10.776   1.748   4.800 -0.0434 -0.0379 -0.0126
  192POPC   C1A 2610  10.464   1.777   5.163 -0.0417 -0.1472  0.2158
  192POPC   D2A 2611  10.271   1.769   5.464 -0.1349  0.0453 -0.0967
  192POPC   C3A 2612  10.573   1.614   5.792  0.0375  0.1938 -0.0068
  192POPC   C4A 2613  10.958   1.792   5.915  0.2293 -0.0938  0.0350
  192POPC   C1B 2614  10.816   1.396   4.827 -0.2582  0.0515 -0.0127
  192POPC   C2B 2615  10.766   1.102   5.024 -0.1656 -0.1802 -0.1892
  192POPC   C3B 2616  10.584   0.865   5.373 -0.2013  0.0847  0.1248
  192POPC   C4B 2617  10.604   0.827   5.769 -0.0176  0.0782 -0.1842
  193POPC   NC3 2618   5.826   9.361   4.229  0.0448 -0.0742 -0.0426
  193POPC   PO4 2619   5.458   9.649   4.249 -0.0224 -0.0574 -0.0197
  193POPC   GL1 2620   5.617   9.604   4.723 -0.1040  0.3203  0.0187
  193POPC   GL2 2621   5.671   9.870   4.688 -0.2397  0.0670 -0.1553
  193POPC   C1A 2622   5.685   9.480   5.216  0.1799  0.0342  0.1549
  193POPC   D2A 2623   5.264   9.460   5.545  0.1031  0.0238  0.3325
  193POPC   C3A 2624   4.934   9.197   5.558 -0.0615  0.0467 -0.2098
  193POPC   C4A 2625   4.621   9.154   5.862 -0.0485  0.3647  0.1200
  193POPC   C1B 2626   5.691  10.142   4.914 -0.0957 -0.5090 -0.2262
  193POPC   C2B 2627   5.685  10.043   5.358 -0.2058  0.1046 -0.0338
  193POPC   C3B 2628   5.246  10.123   5.582  0.1608  0.1278 -0.2394
  193POPC   C4B 2629   4.874  10.110   5.722 -0.3255  0.1549  0.1909
  194POPC   NC3 2630   6.451   9.911   4.243 -0.0410  0.3961 -0.0402
  194POPC   PO4 2631   6.237  10.314   4.283  0.1448 -0.1839  0.2202
  194POPC   GL1 2632   6.170  10.140   4.644  0.0659  0.1629 -0.0975
  194POPC   GL2 2633   6.156   9.822   4.616  0.0209 -0.1209  0.1174
  194POPC   C1A 2634   6.476  10.190   5.030 -0.1306  0.3569  0.3577
  194POPC   D2A 2635   6.624  10.110   5.451 -0.0935 -0.2612 -0.0341
  194POPC   C3A 2636   6.562   9.775   5.746 -0.2137  0.0584 -0.0142
  194POPC   C4A 2637   6.304   9.626   6.091 -0.3908  0.0758  0.0635
  194POPC   C1B 2638   6.185   9.717   4.997 -0.2614 -0.2349 -0.0297
  194POPC   C2B 2639   6.144   9.807   5.331 -0.3542 -0.2235  0.1033
  194POPC   C3B 2640   6.089   9.979   5.752  0.0744  0.1600  0.3676
  194POPC   C4B 2641   6.071  10.114   6.156  0.1019  0.1808  0.1343
  195POPC   NC3 2642   8.669   9.197   3.398 -0.2247 -0.3113 -0.1322
  195POPC   PO4 2643   9.097   9.075   3.369  0.0476 -0.2245 -0.2428
  195POPC   GL1 2644   8.985   9.061   3.806 -0.2346 -0.1406 -0.1458
  195POPC   GL2 2645   8.945   8.749   3.855  0.0429 -0.1488 -0.0254
  195POPC   C1A 2646   9.193   8.937   4.278 -0.1831  0.2075 -0.0071
  195POPC   D2A 2647   9.504   9.108   4.541  0.3425 -0.0114  0.1639
  195POPC   C3A 2648   9.511   9.563   4.734  0.4286 -0.1872 -0.2174
  195POPC   C4A 2649   9.501   9.630   5.127  0.0018 -0.0183 -0.0486
  195POPC   C1B 2650   8.935   8.424   4.265 -0.1638 -0.3243  0.0016
  195POPC   C2B 2651   8.971   8.426   4.610  0.2619  0.0311  0.0029
  195POPC   C3B 2652   8.874   8.300   5.069  0.0573  0.0823  0.2488
  195POPC   C4B 2653   8.454   8.274   5.322  0.0932  0.1245 -0.1111
  196POPC   NC3 2654   9.335   2.189   3.900 -0.2163  0.1316  0.0321
  196POPC   PO4 2655   9.101   2.394   4.169 -0.2143  0.0437  0.3132
  196POPC   GL1 2656   8.990   2.686   4.453  0.0208 -0.2744  0.2264
  196POPC   GL2 2657   8.647   2.618   4.560  0.0088 -0.2027  0.0160
  196POPC   C1A 2658   9.142   2.907   4.806  0.3060 -0.2121 -0.1862
  196POPC   D2A 2659   9.348   2.836   5.214  0.1955 -0.1314 -0.4637
  196POPC   C3A 2660   9.391   3.009   5.648  0.3327  0.2246  0.0991
  196POPC   C4A 2661   9.463   3.162   6.017  0.1663  0.1277 -0.1322
  196POPC   C1B 2662   8.392   2.798   4.930 -0.1870  0.0640  0.1675
  196POPC   C2B 2663   8.186   3.086   5.193  0.1217 -0.1245  0.1653
  196POPC   C3B 2664   8.061   3.459   5.434 -0.0001  0.0795  0.0170
  196POPC   C4B 2665   8.236   3.816   5.620  0.0180  0.1889  0.0081
  197POPC   NC3 2666   8.302   8.481   3.486  0.2271 -0.0595 -0.2525
  197POPC   PO4 2667   8.355   8.940   3.703  0.0203  0.1411  0.0595
  197POPC   GL1 2668   8.495   9.183   3.875  0.0460 -0.3380  0.0928
  197POPC   GL2 2669   8.678   9.469   3.865 -0.1534  0.0709  0.2977
  197POPC   C1A 2670   8.737   9.060   4.225  0.0736 -0.1955  0.0988
  197POPC   D2A 2671   8.742   8.890   4.588 -0.4749  0.3912 -0.1992
  197POPC   C3A 2672   9.055   8.844   4.916  0.1962  0.1526 -0.2082
  197POPC   C4A 2673   9.392   8.598   4.751 -0.1072 -0.0686  0.0661
  197POPC   C1B 2674   8.584   9.542   4.310 -0.2297 -0.2290  0.0806
  197POPC   C2B 2675   8.592   9.577   4.821 -0.0704 -0.2319 -0.2181
  197POPC   C3B 2676   8.876   9.835   5.088  0.2965  0.1678  0.1340
  197POPC   C4B 2677   9.215  10.036   5.057  0.2445 -0.1128 -0.0370
  198POPC   NC3 2678   9.071   3.487   4.339  0.1592 -0.1054 -0.0269
  198POPC   PO4 2679   9.469   3.315   4.272 -0.1561 -0.2219 -0.0716
  198POPC   GL1 2680   9.367   3.382   4.771 -0.2077  0.0319 -0.0425
  198POPC   GL2 2681   9.724   3.507   4.784  0.0238 -0.0633  0.1993
  198POPC   C1A 2682   9.082   3.420   5.172  0.1786  0.1234  0.2976
  198POPC   D2A 2683   8.957   3.478   5.603  0.0328 -0.0066 -0.4033
  198POPC   C3A 2684   8.724   3.935   5.555 -0.3072  0.0802  0.0814
  198POPC   C4A 2685   8.447   4.162   5.209  0.3746  0.0463  0.0188
  198POPC   C1B 2686   9.478   3.788   5.037 -0.1448  0.1943  0.0263
  198POPC   C2B 2687   9.516   4.200   5.119  0.0708  0.4729 -0.1546
  198POPC   C3B 2688   9.621   4.592   5.072 -0.1815  0.1834  0.0934
  198POPC   C4B 2689   9.568   5.006   5.092 -0.0293 -0.2318  0.0373
  199POPC   NC3 2690   6.306   3.344   4.081 -0.1230  0.3837 -0.0927
  199POPC   PO4 2691   6.662   3.094   4.081 -0.0117  0.3926 -0.0815
  199POPC   GL1 2692   6.842   3.252   4.478  0.1497  0.2527  0.1223
  199POPC   GL2 2693   6.931   2.940   4.490  0.0263  0.2303 -0.0959
  199POPC   C1A 2694   6.750   3.188   4.864 -0.0693 -0.0431  0.2828
  199POPC   D2A 2695   6.635   3.169   5.346  0.1020 -0.2329  0.1130
  199POPC   C3A 2696   6.278   3.235   5.650 -0.1466  0.0822  0.0193
  199POPC   C4A 2697   5.802   3.121   5.626 -0.0569 -0.0224  0.2535
  199POPC   C1B 2698   6.985   2.795   4.949 -0.1365 -0.3210  0.1185
  199POPC   C2B 2699   7.123   2.456   5.101  0.0308 -0.2367 -0.2692
  199POPC   C3B 2700   7.340   2.052   5.279  0.2128 -0.2002  0.2402
  199POPC   C4B 2701   7.863   2.009   5.456  0.3474 -0.1700 -0.2372
  200POPC   NC3 2702   5.108   9.372   4.398 -0.1497  0.1244  0.0939
  200POPC   PO4 2703   5.362   9.090   4.158 -0.2169  0.4428  0.2665
  200POPC   GL1 2704   5.431   8.933   4.494 -0.3299 -0.1983 -0.2198
  200POPC   GL2 2705   5.778   8.891   4.573  0.2738 -0.2485  0.0394
  200POPC   C1A 2706   5.234   8.900   4.825 -0.1786  0.0522  0.2941
  200POPC   D2A 2707   5.284   9.187   5.087  0.1158 -0.0098  0.2933
  200POPC   C3A 2708   4.982   9.464   5.038  0.1311 -0.2233 -0.2997
  200POPC   C4A 2709   4.705   9.669   5.523  0.1880  0.2084  0.0603
  200POPC   C1B 2710   5.766   8.918   4.977 -0.0332 -0.0680 -0.0754
  200POPC   C2B 2711   6.067   8.768   5.315  0.1150  0.3586  0.2485
  200POPC   C3B 2712   6.259   8.546   5.610  0.3411  0.1763 -0.1604
  200POPC   C4B 2713   6.117   8.352   5.862 -0.0559  0.0831  0.1569
  201POPC   NC3 2714   1.667   9.028   2.252 -0.0957  0.2199 -0.1026
  201POPC   PO4 2715   1.619   9.103   2.710  0.4294  0.1517  0.1268
  201POPC   GL1 2716   1.257   9.249   2.854  0.0744  0.0848 -0.0761
  201POPC   GL2 2717   1.199   9.290   3.238  0.2827 -0.2136  0.3921
  201POPC   C1A 2718   1.404   9.667   3.032  0.2428 -0.1472  0.0737
  201POPC   D2A 2719   1.628   9.795   3.477  0.0895  0.1442  0.0644
  201POPC   C3A 2720   1.335   9.901   3.814  0.1187  0.1148 -0.1502
  201POPC   C4A 2721   1.202   9.577   4.142  0.1113 -0.2142 -0.2190
  201POPC   C1B 2722   1.045   9.675   3.414  0.2503  0.0516 -0.0041
  201POPC   C2B 2723   1.004  10.051   3.494 -0.0622 -0.2919 -0.0070
  201POPC   C3B 2724   0.727  10.342   3.678  0.0613 -0.0540  0.0422
  201POPC   C4B 2725   0.684  10.537   4.063  0.1306 -0.1280  0.2743
  202POPC   NC3 2726   9.129   9.994   2.922 -0.1173 -0.0163  0.0674
  202POPC   PO4 2727   9.590  10.101   2.929  0.0948  0.1941  0.0551
  202POPC   GL1 2728   9.823  10.207   3.357  0.1791 -0.1207 -0.4062
  202POPC   GL2 2729   9.929  10.486   3.442 -0.1502 -0.0108 -0.1063
  202POPC   C1A 2730   9.539  10.231   3.787 -0.1986 -0.0024  0.0515
  202POPC   D2A 2731   9.606  10.356   4.118 -0.2163 -0.1886 -0.2121
  202POPC   C3A 2732   9.571  10.764   4.413 -0.2219  0.0629  0.0843
  202POPC   C4A 2733  10.029  10.903   4.566  0.1605  0.0946  0.0507
  202POPC   C1B 2734   9.957  10.609   3.831 -0.1384  0.1875  0.0031
  202POPC   C2B 2735  10.056  10.536   4.242 -0.0094  0.4540 -0.0790
  202POPC   C3B 2736  10.024  10.274   4.477  0.0416 -0.3049  0.0896
  202POPC   C4B 2737   9.841  10.014   4.913  0.2191 -0.0176 -0.0161
  203POPC   NC3 2738   9.834   3.640   4.298 -0.1490 -0.1107 -0.0161
  203POPC   PO4 2739  10.008   3.917   3.938  0.0852 -0.0386  0.0392
  203POPC   GL1 2740  10.026   4.115   4.351  0.0867  0.1386  0.1922
  203POPC   GL2 2741   9.931   4.013   4.684 -0.2117  0.0954  0.0621
  203POPC   C1A 2742  10.400   4.297   4.577 -0.1012  0.2467  0.0316
  203POPC   D2A 2743  10.475   4.623   4.891  0.2210  0.1128  0.1059
  203POPC   C3A 2744  10.352   5.123   4.923 -0.0762  0.0564 -0.1353
  203POPC   C4A 2745  10.483   5.439   5.270  0.2181 -0.2991  0.1243
  203POPC   C1B 2746  10.354   3.893   4.921 -0.0545  0.1204 -0.0845
  203POPC   C2B 2747  10.249   3.530   5.152 -0.3792  0.1822 -0.1791
  203POPC   C3B 2748   9.984   3.389   5.497  0.0283  0.1293  0.0403
  203POPC   C4B 2749   9.873   3.544   5.807  0.1070 -0.2401  0.0436
  204POPC   NC3 2750   2.315   2.748   4.006  0.0517 -0.1455 -0.2290
  204POPC   PO4 2751   2.434   3.191   3.929  0.3803  0.0687  0.0025
  204POPC   GL1 2752   2.347   3.095   4.400  0.1512  0.1609  0.0014
  204POPC   GL2 2753   2.445   3.310   4.652  0.1077 -0.2759  0.0756
  204POPC   C1A 2754   2.410   2.732   4.636  0.1991 -0.3078 -0.0979
  204POPC   D2A 2755   2.451   2.570   4.976 -0.2763 -0.1644  0.0983
  204POPC   C3A 2756   2.217   2.610   5.328 -0.1282 -0.0003 -0.1448
  204POPC   C4A 2757   2.362   2.937   5.542 -0.3091  0.3006 -0.1238
  204POPC   C1B 2758   2.247   3.626   5.027 -0.0498 -0.1551 -0.3575
  204POPC   C2B 2759   1.990   3.820   5.262  0.2395 -0.1106  0.0452
  204POPC   C3B 2760   1.646   4.194   5.184  0.0652  0.2913 -0.0020
  204POPC   C4B 2761   1.625   4.630   5.289  0.0583  0.0891 -0.2183
  205POPC   NC3 2762   3.035   8.255   3.634 -0.0839 -0.2602 -0.2819
  205POPC   PO4 2763   3.305   8.018   3.620 -0.2453  0.2890 -0.1253
  205POPC   GL1 2764   3.302   8.453   3.971 -0.0768  0.2484 -0.4464
  205POPC   GL2 2765   3.205   8.871   3.959 -0.1774  0.2410  0.0906
  205POPC   C1A 2766   3.463   8.658   4.416 -0.0671  0.0939 -0.1590
  205POPC   D2A 2767   3.686   8.785   4.823  0.0268  0.0165 -0.1207
  205POPC   C3A 2768   4.011   8.612   4.971  0.3612 -0.0744  0.5090
  205POPC   C4A 2769   4.410   8.624   5.031  0.2365 -0.3633  0.0313
  205POPC   C1B 2770   2.984   9.102   4.281 -0.1261  0.4422 -0.1825
  205POPC   C2B 2771   3.284   9.226   4.575  0.0175  0.0865  0.2145
  205POPC   C3B 2772   3.394   9.456   4.918  0.2668  0.0925 -0.1091
  205POPC   C4B 2773   3.359   9.643   5.207 -0.0406  0.0355 -0.1781
  206POPC   NC3 2774   3.107   5.538   3.872  0.2938 -0.4821  0.1346
  206POPC   PO4 2775   2.644   5.611   3.992 -0.0119  0.2168  0.3319
  206POPC   GL1 2776   2.950   5.860   4.222  0.1192 -0.1711  0.0480
  206POPC   GL2 2777   2.735   6.106   4.362  0.1256  0.0174 -0.1272
  206POPC   C1A 2778   3.229   5.946   4.649 -0.1155  0.1737  0.0575
  206POPC   D2A 2779   3.474   5.935   5.017 -0.2312  0.0554 -0.4430
  206POPC   C3A 2780   3.330   6.261   5.295  0.3609  0.1409 -0.1363
  206POPC   C4A 2781   3.166   6.250   5.680 -0.2527  0.2127 -0.2152
  206POPC   C1B 2782   2.602   6.390   4.724 -0.0850  0.1190  0.0756
  206POPC   C2B 2783   2.311   6.447   5.094 -0.1527 -0.0257 -0.2282
  206POPC   C3B 2784   2.336   6.628   5.510  0.0518  0.0983  0.2782
  206POPC   C4B 2785   2.551   6.922   5.805  0.4168 -0.0785  0.1222
  207POPC   NC3 2786   8.745  10.631   3.539  0.1201  0.0202  0.2453
  207POPC   PO4 2787   8.999  10.864   3.802 -0.2684 -0.0765 -0.1836
  207POPC   GL1 2788   9.066  10.795   4.263 -0.0999 -0.0217 -0.2526
  207POPC   GL2 2789   9.037  11.091   4.468  0.2647 -0.1999  0.0507
  207POPC   C1A 2790   9.126  10.721   4.698 -0.1063 -0.2670 -0.1289
  207POPC   D2A 2791   9.106  10.554   5.119 -0.0132 -0.1221  0.1120
  207POPC   C3A 2792   8.976  10.885   5.370  0.0704  0.2942  0.1361
  207POPC   C4A 2793   8.838  11.137   5.734 -0.2176 -0.0762 -0.2931
  207POPC   C1B 2794   8.946  11.101   4.901  0.1134  0.1112  0.2102
  207POPC   C2B 2795   8.588  11.298   5.212 -0.1397 -0.2947 -0.1703
  207POPC   C3B 2796   8.450  11.619   5.383  0.0340 -0.0465  0.1874
  207POPC   C4B 2797   8.462  11.950   5.709  0.0224 -0.0582 -0.1985
  208POPC   NC3 2798   2.069   1.180   3.306  0.0244  0.0999 -0.3146
  208POPC   PO4 2799   2.287   1.420   3.658 -0.1449  0.0996  0.2301
  208POPC   GL1 2800   2.199   1.062   3.786 -0.0253  0.1259 -0.2611
  208POPC   GL2 2801   1.834   0.974   3.820 -0.0542 -0.0261  0.0907
  208POPC   C1A 2802   2.081   0.535   3.889 -0.1615  0.0005 -0.0576
  208POPC   D2A 2803   2.012   0.064   3.792 -0.0523  0.0578 -0.0755
  208POPC   C3A 2804   1.900  -0.235   4.073  0.1915  0.2138 -0.1818
  208POPC   C4A 2805   1.708  -0.674   4.131 -0.0980  0.1023  0.1071
  208POPC   C1B 2806   1.583   0.750   4.038 -0.2753  0.0656  0.2574
  208POPC   C2B 2807   1.481   0.602   4.382  0.1228 -0.0076  0.0235
  208POPC   C3B 2808   1.141   0.500   4.642  0.2463  0.1585  0.2607
  208POPC   C4B 2809   0.733   0.390   4.707 -0.1595  0.0726 -0.1836
  209POPC   NC3 2810   5.011   1.277   3.577  0.0181 -0.0756 -0.1463
  209POPC   PO4 2811   5.025   0.900   3.849  0.1803 -0.1321 -0.2543
  209POPC   GL1 2812   4.958   0.789   4.238  0.1361  0.0808 -0.0049
  209POPC   GL2 2813   4.954   0.395   4.264  0.0570  0.2634  0.2590
  209POPC   C1A 2814   5.182   0.838   4.709  0.2623 -0.0280  0.0648
  209POPC   D2A 2815   5.591   0.923   4.860 -0.0547 -0.2414 -0.2789
  209POPC   C3A 2816   5.945   1.154   5.102 -0.1732 -0.1018  0.0286
  209POPC   C4A 2817   6.074   1.312   5.552  0.0511  0.1309 -0.2412
  209POPC   C1B 2818   5.061   0.272   4.645 -0.3306  0.0405  0.0938
  209POPC   C2B 2819   5.053   0.511   5.036  0.3131 -0.1767 -0.2209
  209POPC   C3B 2820   5.386   0.784   5.271  0.1955  0.2197 -0.2746
  209POPC   C4B 2821   5.755   0.946   5.487 -0.1138  0.1603  0.2875
  210POPC   NC3 2822   7.639   8.288   4.147 -0.0403  0.0729 -0.0482
  210POPC   PO4 2823   7.294   8.032   3.854 -0.1054 -0.1201  0.2178
  210POPC   GL1 2824   7.379   7.840   4.250 -0.0090  0.4842  0.1004
  210POPC   GL2 2825   7.326   7.513   4.423 -0.2465 -0.1516 -0.0001
  210POPC   C1A 2826   7.740   7.788   4.566 -0.0455 -0.1193  0.1570
  210POPC   D2A 2827   8.200   7.738   4.528  0.2909 -0.3064 -0.1295
  210POPC   C3A 2828   8.395   7.815   4.862  0.1140  0.2410 -0.0541
  210POPC   C4A 2829   8.638   7.835   5.191  0.1162 -0.1692 -0.1613
  210POPC   C1B 2830   7.365   7.579   4.893 -0.0496 -0.1057 -0.1127
  210POPC   C2B 2831   7.371   7.589   5.362 -0.1165 -0.2317  0.0531
  210POPC   C3B 2832   7.146   7.547   5.749 -0.0250  0.3139 -0.1260
  210POPC   C4B 2833   6.707   7.492   5.868  0.0811  0.0681  0.1725
  211POPC   NC3 2834   2.254   6.132   4.136 -0.0051  0.1025  0.1165
  211POPC   PO4 2835   1.923   6.532   4.095  0.3006  0.3008  0.2340
  211POPC   GL1 2836   1.917   6.644   4.429 -0.0712 -0.0847  0.0254
  211POPC   GL2 2837   2.007   6.370   4.548  0.1153  0.1671 -0.1862
  211POPC   C1A 2838   2.244   6.812   4.748  0.2155 -0.2755  0.0981
  211POPC   D2A 2839   2.526   6.890   5.010 -0.1357  0.1036 -0.0662
  211POPC   C3A 2840   2.462   7.130   5.363 -0.1338  0.1994 -0.5897
  211POPC   C4A 2841   2.470   7.511   5.531 -0.1657 -0.1314  0.0527
  211POPC   C1B 2842   1.757   6.606   4.845  0.0417  0.1831 -0.1001
  211POPC   C2B 2843   1.388   6.928   5.053 -0.2017  0.2513 -0.5348
  211POPC   C3B 2844   1.163   7.301   5.081  0.4231 -0.1613 -0.3588
  211POPC   C4B 2845   0.989   7.694   5.141 -0.3832 -0.1409  0.2048
  212POPC   NC3 2846   5.866   1.355   4.086  0.3065  0.1526  0.0794
  212POPC   PO4 2847   5.900   1.806   3.963  0.1582  0.0547 -0.0162
  212POPC   GL1 2848   6.175   1.910   4.361  0.0630  0.1848 -0.5922
  212POPC   GL2 2849   5.828   1.794   4.514 -0.1557 -0.0023  0.4074
  212POPC   C1A 2850   6.291   2.061   4.878 -0.4739 -0.0759  0.0909
  212POPC   D2A 2851   6.212   2.233   5.266 -0.1569 -0.1714 -0.1392
  212POPC   C3A 2852   6.356   1.958   5.630  0.0893  0.1518  0.0227
  212POPC   C4A 2853   6.569   1.805   6.113  0.1991  0.1579 -0.2543
  212POPC   C1B 2854   6.072   1.653   4.957 -0.1025  0.2104  0.2325
  212POPC   C2B 2855   6.397   1.578   5.331 -0.0785 -0.2235 -0.0639
  212POPC   C3B 2856   6.538   1.426   5.728  0.2808 -0.2087  0.1327
  212POPC   C4B 2857   6.677   1.268   6.137 -0.1823 -0.3140  0.1828
  213POPC   NC3 2858   6.633   0.503   3.855 -0.1895 -0.0532 -0.2423
  213POPC   PO4 2859   6.853   0.308   4.163 -0.0563  0.1044  0.0029
  213POPC   GL1 2860   6.654   0.123   4.505 -0.2617 -0.0885  0.0223
  213POPC   GL2 2861   6.994   0.048   4.607  0.0716 -0.3341  0.0336
  213POPC   C1A 2862   6.401  -0.019   4.928  0.1895  0.1414  0.0889
  213POPC   D2A 2863   6.346  -0.057   5.333  0.2093  0.5164 -0.0940
  213POPC   C3A 2864   6.762  -0.054   5.595 -0.1195 -0.0332 -0.2569
  213POPC   C4A 2865   7.017  -0.102   5.965 -0.1702 -0.1516  0.1377
  213POPC   C1B 2866   6.918  -0.170   5.079 -0.0451  0.2855  0.1883
  213POPC   C2B 2867   7.162  -0.357   5.455 -0.2736 -0.0344 -0.2254
  213POPC   C3B 2868   7.461  -0.438   5.783 -0.2412  0.2069 -0.2588
  213POPC   C4B 2869   7.854  -0.611   6.031  0.0455  0.2618  0.1303
  214POPC   NC3 2870   3.803   2.125   3.614 -0.2229 -0.3521  0.0885
  214POPC   PO4 2871   4.082   1.919   3.863 -0.0058 -0.0896 -0.0693
  214POPC   GL1 2872   4.044   2.255   4.113  0.1948  0.0375  0.1571
  214POPC   GL2 2873   4.288   2.378   4.264 -0.0698 -0.1115 -0.1139
  214POPC   C1A 2874   3.874   2.258   4.560 -0.4145  0.0954 -0.2001
  214POPC   D2A 2875   3.917   2.129   5.039 -0.1099 -0.1723 -0.0730
  214POPC   C3A 2876   3.860   1.664   5.283  0.0916  0.2298  0.1212
  214POPC   C4A 2877   3.478   1.515   5.207  0.2699 -0.1467  0.0643
  214POPC   C1B 2878   4.328   2.010   4.526 -0.1949 -0.1965 -0.0561
  214POPC   C2B 2879   4.586   1.548   4.617  0.1225  0.0527 -0.0453
  214POPC   C3B 2880   4.621   1.432   5.100 -0.1397  0.1129  0.1531
  214POPC   C4B 2881   4.437   1.430   5.528  0.0855 -0.3316  0.0995
  215POPC   NC3 2882   6.242   0.135   4.211  0.1674 -0.0350  0.1989
  215POPC   PO4 2883   6.127   0.423   3.921  0.1376  0.2230 -0.0821
  215POPC   GL1 2884   5.919   0.539   4.314  0.0290  0.0717 -0.1244
  215POPC   GL2 2885   5.599   0.407   4.441 -0.1944  0.1265  0.2051
  215POPC   C1A 2886   5.973   0.417   4.822 -0.0845  0.3805  0.0869
  215POPC   D2A 2887   5.933   0.567   5.202 -0.0192  0.2935 -0.0921
  215POPC   C3A 2888   6.100   0.250   5.625 -0.2199  0.3108 -0.0642
  215POPC   C4A 2889   6.473   0.239   5.971 -0.3550 -0.4378 -0.0147
  215POPC   C1B 2890   5.503   0.380   4.863 -0.3672  0.0676  0.1070
  215POPC   C2B 2891   5.394   0.257   5.266 -0.4818 -0.2305  0.0441
  215POPC   C3B 2892   5.553   0.482   5.594 -0.0352 -0.1422  0.0560
  215POPC   C4B 2893   5.686   0.328   5.943  0.0202 -0.1570 -0.2284
  216POPC   NC3 2894   7.941   1.058   3.748 -0.3384 -0.0807  0.1075
  216POPC   PO4 2895   7.539   1.398   3.853  0.1868 -0.0221  0.0756
  216POPC   GL1 2896   7.511   1.432   4.341  0.2104  0.3488 -0.1963
  216POPC   GL2 2897   7.309   1.770   4.419 -0.1111  0.0322  0.4744
  216POPC   C1A 2898   7.519   1.423   4.836 -0.0292  0.3784  0.1196
  216POPC   D2A 2899   7.237   1.572   5.087  0.0675 -0.1282  0.0495
  216POPC   C3A 2900   7.523   1.591   5.482 -0.5290  0.0841  0.3354
  216POPC   C4A 2901   7.709   1.414   5.874  0.1060  0.3426  0.2084
  216POPC   C1B 2902   7.037   1.397   4.596  0.0037  0.0664 -0.0052
  216POPC   C2B 2903   7.153   1.098   4.928 -0.0427  0.2350  0.1852
  216POPC   C3B 2904   6.891   0.718   5.152  0.0595 -0.1840 -0.2033
  216POPC   C4B 2905   6.860   0.315   5.095 -0.0556  0.1053  0.3160
  217POPC   NC3 2906   7.645   4.700   3.666 -0.3413  0.1450  0.4773
  217POPC   PO4 2907   7.959   4.837   4.013 -0.0291 -0.1215 -0.1880
  217POPC   GL1 2908   8.112   4.742   4.449 -0.0355 -0.1411  0.3530
  217POPC   GL2 2909   8.386   4.957   4.464 -0.1022  0.0520  0.0659
  217POPC   C1A 2910   8.129   4.731   4.989  0.5563  0.2393  0.0569
  217POPC   D2A 2911   8.150   4.637   5.371  0.1044 -0.0234 -0.0134
  217POPC   C3A 2912   7.984   4.244   5.556  0.0475 -0.1641  0.1132
  217POPC   C4A 2913   7.813   3.904   5.845  0.0624 -0.1623 -0.0366
  217POPC   C1B 2914   8.373   5.113   4.911 -0.1129  0.2000 -0.4424
  217POPC   C2B 2915   7.973   5.155   5.243 -0.3056  0.2034 -0.1878
  217POPC   C3B 2916   7.700   5.319   5.462 -0.0014 -0.0525 -0.0720
  217POPC   C4B 2917   7.656   5.658   5.598 -0.0740 -0.1140  0.0627
  218POPC   NC3 2918   8.013   9.034   4.030 -0.0568 -0.2105  0.5000
  218POPC   PO4 2919   7.684   8.783   4.135 -0.1776  0.5314 -0.0285
  218POPC   GL1 2920   7.578   9.052   4.442 -0.0380  0.0359 -0.2038
  218POPC   GL2 2921   7.853   9.214   4.523 -0.0622  0.2840  0.1002
  218POPC   C1A 2922   7.508   9.334   4.817 -0.5900  0.0172  0.0618
  218POPC   D2A 2923   7.403   9.358   5.320  0.1256  0.3541 -0.4789
  218POPC   C3A 2924   7.380   9.148   5.607 -0.2492 -0.0792  0.0496
  218POPC   C4A 2925   7.593   9.193   6.017  0.1994 -0.0257 -0.0761
  218POPC   C1B 2926   7.911   8.896   4.824  0.2185 -0.1690 -0.0093
  218POPC   C2B 2927   7.497   8.843   5.184 -0.1955  0.0088 -0.0657
  218POPC   C3B 2928   7.019   8.860   5.264 -0.2969  0.1743  0.2286
  218POPC   C4B 2929   6.619   8.614   5.297 -0.0663  0.2294  0.0756
  219POPC   NC3 2930   9.753   1.245   3.699  0.0631 -0.0016 -0.0720
  219POPC   PO4 2931   9.853   1.451   4.017 -0.2073 -0.1912 -0.0598
  219POPC   GL1 2932   9.766   1.513   4.402 -0.1605  0.1799 -0.0974
  219POPC   GL2 2933   9.819   1.192   4.531 -0.2564  0.2780  0.1991
  219POPC   C1A 2934   9.589   1.586   4.779  0.0944  0.0621  0.2575
  219POPC   D2A 2935   9.524   1.477   5.204 -0.2023 -0.1446 -0.0611
  219POPC   C3A 2936   9.284   1.793   5.388  0.0241  0.2835 -0.0752
  219POPC   C4A 2937   9.217   2.099   5.729 -0.2056  0.0837  0.1551
  219POPC   C1B 2938   9.788   0.946   4.907  0.3483  0.0121 -0.0522
  219POPC   C2B 2939   9.666   0.838   5.397  0.0664  0.0734  0.3192
  219POPC   C3B 2940   9.879   0.873   5.746 -0.0046  0.0114  0.1287
  219POPC   C4B 2941  10.201   0.636   5.976 -0.2942  0.0283  0.2400
  220POPC   NC3 2942   2.267   3.893   3.907  0.1758 -0.0218 -0.2446
  220POPC   PO4 2943   2.551   3.929   3.581 -0.0130  0.1389  0.2418
  220POPC   GL1 2944   2.717   3.833   4.011  0.1612  0.1652 -0.3002
  220POPC   GL2 2945   2.533   4.022   4.293  0.2112  0.0939  0.1359
  220POPC   C1A 2946   2.955   3.681   4.385 -0.0847  0.1456  0.1386
  220POPC   D2A 2947   3.127   3.664   4.762  0.0115  0.1074 -0.1635
  220POPC   C3A 2948   3.182   3.373   5.118 -0.1529  0.3785 -0.1652
  220POPC   C4A 2949   3.402   3.340   5.602  0.0100 -0.1604 -0.0286
  220POPC   C1B 2950   2.568   3.813   4.709  0.2727 -0.0285 -0.3527
  220POPC   C2B 2951   2.757   3.707   5.085 -0.1468 -0.1419  0.2405
  220POPC   C3B 2952   2.985   3.740   5.439 -0.1390 -0.3378  0.2023
  220POPC   C4B 2953   3.400   3.972   5.529  0.2377  0.2488 -0.4556
  221POPC   NC3 2954   1.897   6.749   3.658 -0.1784 -0.0054  0.3023
  221POPC   PO4 2955   1.542   6.500   3.768  0.1774  0.0486 -0.0503
  221POPC   GL1 2956   1.538   6.830   4.139  0.1354 -0.0336 -0.0840
  221POPC   GL2 2957   1.363   6.990   4.042  0.1911  0.1786  0.1780
  221POPC   C1A 2958   1.381   7.084   4.476 -0.1277 -0.4042 -0.2336
  221POPC   D2A 2959   1.416   7.481   4.679  0.2031 -0.0907  0.1500
  221POPC   C3A 2960   1.050   7.714   4.615  0.4918 -0.0418  0.1814
  221POPC   C4A 2961   1.017   8.109   4.349  0.1781  0.0161  0.0616
  221POPC   C1B 2962   1.353   7.420   4.140 -0.1581 -0.5394 -0.4086
  221POPC   C2B 2963   1.375   7.820   4.219  0.0688 -0.3985 -0.0221
  221POPC   C3B 2964   1.359   8.250   4.053 -0.0925 -0.2017  0.1799
  221POPC   C4B 2965   1.070   8.644   4.014  0.2811 -0.1239 -0.0317
  222POPC   NC3 2966   3.792   0.557   3.782  0.2665  0.2564  0.0714
  222POPC   PO4 2967   4.167   0.319   3.622  0.2784 -0.1136  0.0156
  222POPC   GL1 2968   4.276   0.192   4.069  0.3612  0.1114 -0.0222
  222POPC   GL2 2969   4.044   0.365   4.260 -0.4033 -0.2511  0.0716
  222POPC   C1A 2970   4.236  -0.037   4.456 -0.1191 -0.2163 -0.0184
  222POPC   D2A 2971   4.198   0.008   4.852  0.2000 -0.1311 -0.1160
  222POPC   C3A 2972   3.952   0.291   5.023  0.0408 -0.0555 -0.0087
  222POPC   C4A 2973   3.438   0.512   5.055  0.0431 -0.3136 -0.1447
  222POPC   C1B 2974   4.215   0.648   4.561  0.0238  0.0856  0.0451
  222POPC   C2B 2975   4.241   0.755   5.064 -0.1562  0.0285 -0.4681
  222POPC   C3B 2976   4.254   0.769   5.500  0.4496  0.0552 -0.0530
  222POPC   C4B 2977   4.556   0.622   5.809  0.1395  0.2419 -0.1755
  223POPC   NC3 2978   0.184   6.241   3.926 -0.1549  0.1748  0.0858
  223POPC   PO4 2979   0.466   6.685   4.064 -0.0174 -0.0138  0.1563
  223POPC   GL1 2980   0.420   6.773   4.565 -0.0458 -0.1244  0.0733
  223POPC   GL2 2981   0.626   6.795   4.624 -0.1185 -0.1439  0.0431
  223POPC   C1A 2982   0.301   6.848   5.055  0.0827  0.0155 -0.1674
  223POPC   D2A 2983   0.149   6.889   5.427 -0.1399 -0.0232 -0.0381
  223POPC   C3A 2984  -0.232   7.001   5.595  0.4029  0.2667  0.2603
  223POPC   C4A 2985  -0.538   7.194   5.766 -0.2701 -0.2036  0.1028
  223POPC   C1B 2986   0.770   6.869   4.926 -0.0763 -0.0411 -0.3380
  223POPC   C2B 2987   0.972   6.686   5.189 -0.1220  0.2245  0.1127
  223POPC   C3B 2988   1.088   6.775   5.617 -0.2256 -0.1693  0.2823
  223POPC   C4B 2989   1.370   6.984   5.856 -0.2116  0.1830  0.0830
  224POPC   NC3 2990   3.809   6.203   3.370  0.1502  0.0477  0.1125
  224POPC   PO4 2991   4.115   6.425   3.600  0.0872 -0.2458  0.0670
  224POPC   GL1 2992   4.160   6.345   4.077 -0.0767 -0.0320  0.1267
  224POPC   GL2 2993   4.000   6.488   4.219 -0.2172  0.0895 -0.0883
  224POPC   C1A 2994   4.303   6.345   4.583  0.1081 -0.2361 -0.0183
  224POPC   D2A 2995   3.991   6.236   4.882 -0.2979 -0.0092 -0.1064
  224POPC   C3A 2996   3.855   6.317   5.281 -0.2580  0.0725 -0.4636
  224POPC   C4A 2997   3.589   6.585   5.612  0.0769  0.1226  0.0869
  224POPC   C1B 2998   3.824   6.098   4.357  0.1294 -0.5193 -0.1398
  224POPC   C2B 2999   3.691   5.837   4.590  0.0881  0.0742 -0.0554
  224POPC   C3B 3000   3.806   5.525   4.924  0.1589  0.1070  0.0186
  224POPC   C4B 3001   3.967   5.362   5.379 -0.0740 -0.1377 -0.1334
  225POPC   NC3 3002   3.581   7.599   3.937 -0.1368 -0.1217 -0.0094
  225POPC   PO4 3003   3.209   7.303   3.814  0.1245 -0.2467 -0.1855
  225POPC   GL1 3004   2.943   7.653   3.901  0.1841  0.1657 -0.3129
  225POPC   GL2 3005   3.147   7.911   4.138 -0.1813  0.1823 -0.2906
  225POPC   C1A 3006   2.615   7.700   4.263 -0.0851  0.0806 -0.0953
  225POPC   D2A 3007   2.531   7.791   4.680 -0.1222 -0.0991  0.0122
  225POPC   C3A 3008   2.747   7.812   5.089 -0.1862  0.0215  0.1351
  225POPC   C4A 3009   2.693   8.039   5.485  0.1525  0.1121 -0.0798
  225POPC   C1B 3010   3.299   8.208   4.433  0.3635 -0.2195  0.1193
  225POPC   C2B 3011   3.439   8.308   4.826 -0.3067 -0.0507  0.0279
  225POPC   C3B 3012   3.470   8.411   5.212 -0.4181  0.0429 -0.2496
  225POPC   C4B 3013   3.713   8.181   5.592 -0.3657 -0.0041 -0.0160
  226POPC   NC3 3014   9.655   1.924   4.174  0.2731 -0.2508 -0.2394
  226POPC   PO4 3015   9.558   2.267   4.418 -0.2636 -0.0057 -0.0735
  226POPC   GL1 3016   9.374   2.484   4.796 -0.0948 -0.2584 -0.0528
  226POPC   GL2 3017   9.713   2.592   5.019  0.1498 -0.2647  0.1496
  226POPC   C1A 3018   9.047   2.440   4.997  0.1844 -0.2433  0.2687
  226POPC   D2A 3019   9.001   2.475   5.389 -0.1415  0.0655  0.0143
  226POPC   C3A 3020   9.213   2.581   5.794 -0.1750  0.0370 -0.2222
  226POPC   C4A 3021   9.584   2.624   5.925  0.4156  0.2031 -0.0526
  226POPC   C1B 3022   9.807   2.804   5.458  0.0712  0.2577 -0.2652
  226POPC   C2B 3023   9.907   2.980   5.794  0.0473  0.3296 -0.1831
  226POPC   C3B 3024  10.011   3.137   6.276 -0.3363 -0.1089 -0.0415
  226POPC   C4B 3025  10.091   3.430   6.429 -0.3484  0.0971 -0.0481
  227POPC   NC3 3026  10.590   4.827   3.448 -0.1450 -0.0355  0.1736
  227POPC   PO4 3027  10.407   4.750   3.852 -0.1406 -0.2908  0.0090
  227POPC   GL1 3028  10.317   4.927   4.206 -0.0121  0.0843 -0.0954
  227POPC   GL2 3029  10.143   4.731   4.459  0.0280  0.0635  0.0935
  227POPC   C1A 3030  10.617   5.008   4.562  0.1956 -0.0586  0.0811
  227POPC   D2A 3031  10.893   5.011   4.933  0.0520  0.0563 -0.3373
  227POPC   C3A 3032  11.266   4.884   5.003  0.0962  0.1114  0.0319
  227POPC   C4A 3033  11.635   4.873   4.817  0.1864 -0.0834  0.2140
  227POPC   C1B 3034   9.926   4.533   4.672  0.2536 -0.1739 -0.1052
  227POPC   C2B 3035  10.028   4.304   5.057  0.0597  0.6046 -0.1207
  227POPC   C3B 3036   9.947   4.345   5.473 -0.1603  0.0937  0.1572
  227POPC   C4B 3037   9.746   4.157   5.679 -0.0152  0.1162 -0.0737
  228POPC   NC3 3038   1.279   4.929   3.727  0.0640 -0.2979  0.0301
  228POPC   PO4 3039   1.743   4.988   3.836 -0.1406 -0.1156  0.0820
  228POPC   GL1 3040   1.880   5.172   4.252  0.0619 -0.4063  0.2929
  228POPC   GL2 3041   1.839   5.470   4.368 -0.0217 -0.0472 -0.1947
  228POPC   C1A 3042   2.102   5.170   4.634  0.1723  0.0704  0.1432
  228POPC   D2A 3043   2.298   5.437   4.916 -0.4009  0.0145 -0.1501
  228POPC   C3A 3044   1.959   5.390   5.261  0.1351 -0.0462  0.1890
  228POPC   C4A 3045   1.506   5.529   5.390 -0.0273  0.3122 -0.0618
  228POPC   C1B 3046   1.851   5.742   4.720  0.1975 -0.1933  0.1848
  228POPC   C2B 3047   1.698   6.139   4.917 -0.1947  0.0947 -0.1134
  228POPC   C3B 3048   1.843   6.389   5.337  0.0438  0.4416 -0.0700
  228POPC   C4B 3049   1.666   6.767   5.553  0.0276 -0.0634 -0.1445
  229POPC   NC3 3050   3.197   4.188   3.312 -0.0027 -0.1666  0.0542
  229POPC   PO4 3051   3.431   4.269   3.732 -0.1810 -0.2687  0.0847
  229POPC   GL1 3052   3.617   4.281   4.158 -0.1337 -0.2757 -0.1362
  229POPC   GL2 3053   3.550   4.024   4.316 -0.0919 -0.2207 -0.0679
  229POPC   C1A 3054   3.385   4.532   4.390 -0.0843  0.4246  0.0579
  229POPC   D2A 3055   3.397   4.650   4.811  0.0734  0.2618 -0.2910
  229POPC   C3A 3056   3.168   4.997   5.076  0.0060 -0.0732 -0.1039
  229POPC   C4A 3057   2.969   4.959   5.452 -0.1829  0.0703 -0.1480
  229POPC   C1B 3058   3.594   4.163   4.749  0.2797 -0.0634  0.1178
  229POPC   C2B 3059   3.785   4.294   5.141  0.1093 -0.0802  0.1528
  229POPC   C3B 3060   3.713   4.354   5.611  0.0192 -0.1411 -0.1698
  229POPC   C4B 3061   3.413   4.283   5.983  0.1639  0.2830 -0.2573
  230POPC   NC3 3062  10.621   8.509   2.965  0.1844 -0.0871  0.0765
  230POPC   PO4 3063  10.442   8.768   2.992  0.0264  0.1565 -0.0062
  230POPC   GL1 3064  10.361   8.888   3.509 -0.0358  0.0715 -0.0160
  230POPC   GL2 3065  10.329   9.191   3.658  0.2869  0.3340 -0.1031
  230POPC   C1A 3066  10.507   8.604   3.888 -0.1299  0.0691 -0.1498
  230POPC   D2A 3067  10.641   8.152   3.954 -0.3184  0.0330 -0.5188
  230POPC   C3A 3068  11.009   8.072   4.216  0.1922 -0.1988  0.3545
  230POPC   C4A 3069  11.199   8.112   4.669 -0.1487 -0.0412  0.0969
  230POPC   C1B 3070  10.621   9.040   4.041 -0.1644 -0.0593  0.2090
  230POPC   C2B 3071  10.434   8.965   4.472 -0.2436 -0.0331  0.4025
  230POPC   C3B 3072  10.366   9.067   4.973 -0.0936  0.0803 -0.0382
  230POPC   C4B 3073  10.121   8.899   5.388 -0.1280  0.1396 -0.3049
  231POPC   NC3 3074   9.913   3.281   4.005 -0.2201 -0.0517  0.1707
  231POPC   PO4 3075  10.022   3.107   4.382 -0.0136 -0.1628  0.2072
  231POPC   GL1 3076  10.052   3.115   4.792  0.2492 -0.0314  0.0111
  231POPC   GL2 3077  10.108   2.808   4.813 -0.3001  0.3193 -0.0513
  231POPC   C1A 3078   9.750   3.112   5.065  0.2657  0.3513 -0.4993
  231POPC   D2A 3079   9.547   3.344   5.304  0.4832  0.1025  0.0414
  231POPC   C3A 3080   9.438   3.511   5.602  0.0276 -0.1053  0.0730
  231POPC   C4A 3081   9.311   3.833   5.967 -0.1819  0.0999 -0.1791
  231POPC   C1B 3082  10.217   2.809   5.225 -0.2169  0.0906 -0.0524
  231POPC   C2B 3083  10.267   2.650   5.597 -0.1446 -0.4368  0.1272
  231POPC   C3B 3084  10.133   2.478   6.011  0.1628 -0.1304 -0.0054
  231POPC   C4B 3085  10.219   2.360   6.341  0.1516 -0.3315  0.0502
  232POPC   NC3 3086   9.139   1.399   4.199 -0.0387  0.1485  0.0080
  232POPC   PO4 3087   9.366   1.569   4.021  0.2642 -0.0182 -0.0232
  232POPC   GL1 3088   9.271   1.847   4.457 -0.1690  0.0012  0.1679
  232POPC   GL2 3089   8.966   2.205   4.572  0.0173  0.2010  0.0770
  232POPC   C1A 3090   9.389   2.007   4.912 -0.1598  0.2097 -0.2489
  232POPC   D2A 3091   9.438   2.347   5.293 -0.0147  0.1053 -0.0110
  232POPC   C3A 3092   9.717   2.219   5.610 -0.0247  0.0264 -0.2963
  232POPC   C4A 3093  10.042   2.077   5.787 -0.1096 -0.0318  0.1085
  232POPC   C1B 3094   8.876   1.966   4.928 -0.0802  0.0757 -0.1111
  232POPC   C2B 3095   8.718   2.054   5.385 -0.1878  0.0424  0.0346
  232POPC   C3B 3096   8.733   2.277   5.738 -0.1237  0.7171  0.2778
  232POPC   C4B 3097   8.760   2.564   6.095 -0.0866 -0.1995 -0.0361
  233POPC   NC3 3098   8.274   7.483   3.805 -0.1234 -0.0443  0.0005
  233POPC   PO4 3099   8.270   7.958   3.661  0.0547  0.0613 -0.4918
  233POPC   GL1 3100   8.332   7.941   4.098  0.1200  0.1162  0.2753
  233POPC   GL2 3101   8.109   8.178   4.268  0.0782  0.2547 -0.0018
  233POPC   C1A 3102   8.717   7.966   4.359 -0.0850 -0.0054 -0.1529
  233POPC   D2A 3103   8.876   7.900   4.762  0.3484  0.2078  0.0600
  233POPC   C3A 3104   9.174   7.602   4.727 -0.3011 -0.0256  0.1502
  233POPC   C4A 3105   9.385   7.379   4.406  0.2979  0.0618  0.3064
  233POPC   C1B 3106   8.424   8.305   4.545  0.0052  0.1309  0.1745
  233POPC   C2B 3107   8.505   8.615   4.952 -0.1505  0.0522 -0.1473
  233POPC   C3B 3108   8.801   8.669   5.425  0.2812 -0.2820  0.0286
  233POPC   C4B 3109   9.161   8.663   5.760  0.2726 -0.2189  0.1588
  234POPC   NC3 3110   5.810   4.536   3.908 -0.2318 -0.0801 -0.4208
  234POPC   PO4 3111   5.619   4.135   3.783  0.0957 -0.1641  0.0353
  234POPC   GL1 3112   5.438   4.224   4.173 -0.0833  0.0345  0.0184
  234POPC   GL2 3113   5.174   4.232   4.347 -0.0577 -0.4441  0.2553
  234POPC   C1A 3114   5.409   4.631   4.562  0.0598  0.0383  0.0701
  234POPC   D2A 3115   5.665   4.943   4.770 -0.3469 -0.0586  0.2340
  234POPC   C3A 3116   5.460   5.077   5.085 -0.1089  0.1681 -0.1587
  234POPC   C4A 3117   5.797   5.289   5.403 -0.2361  0.2274  0.1967
  234POPC   C1B 3118   5.055   4.086   4.766 -0.0020  0.1236  0.0003
  234POPC   C2B 3119   4.800   3.887   5.075 -0.2346 -0.0294 -0.0861
  234POPC   C3B 3120   4.965   3.789   5.483  0.3443 -0.2583 -0.0810
  234POPC   C4B 3121   4.895   3.846   5.904 -0.1678 -0.3233 -0.3692
  235POPC   NC3 3122   4.667   2.216   3.151  0.2392 -0.1519 -0.1111
  235POPC   PO4 3123   4.652   2.122   3.447 -0.1345  0.2195  0.1143
  235POPC   GL1 3124   4.763   2.170   3.895  0.0582 -0.1197 -0.2306
  235POPC   GL2 3125   4.710   2.498   4.001  0.1067 -0.0130 -0.0066
  235POPC   C1A 3126   4.748   1.869   4.316  0.0169  0.0848 -0.2421
  235POPC   D2A 3127   5.068   1.674   4.664  0.0842 -0.0144  0.0198
  235POPC   C3A 3128   5.043   1.732   5.071  0.0497 -0.1044  0.0386
  235POPC   C4A 3129   4.733   1.802   5.399  0.0326  0.0683  0.0090
  235POPC   C1B 3130   4.782   2.462   4.433  0.3443 -0.2225  0.1280
  235POPC   C2B 3131   4.995   2.593   4.753  0.2357  0.1860 -0.2544
  235POPC   C3B 3132   5.125   2.687   5.170  0.0686 -0.3415 -0.0569
  235POPC   C4B 3133   5.311   2.881   5.469 -0.1247  0.1499  0.0805
  236POPC   NC3 3134   0.196   3.194   3.942 -0.0112  0.0468 -0.1257
  236POPC   PO4 3135   0.532   3.326   4.156 -0.0714 -0.3982 -0.1728
  236POPC   GL1 3136   0.700   3.273   4.573 -0.1382 -0.0345 -0.5374
  236POPC   GL2 3137   0.948   3.468   4.707  0.1656  0.1592  0.1017
  236POPC   C1A 3138   0.391   3.166   5.037  0.0974 -0.2435 -0.0959
  236POPC   D2A 3139   0.445   3.218   5.426 -0.2987  0.2481 -0.1309
  236POPC   C3A 3140   0.136   3.295   5.876 -0.2572 -0.0362  0.1809
  236POPC   C4A 3141  -0.014   3.370   6.323 -0.2217 -0.0095  0.0501
  236POPC   C1B 3142   1.060   3.066   4.945 -0.3517 -0.0680  0.3237
  236POPC   C2B 3143   0.638   2.634   5.000  0.1032 -0.0067 -0.1899
  236POPC   C3B 3144   0.507   2.182   5.083 -0.2956  0.1982  0.3352
  236POPC   C4B 3145   0.321   1.878   5.369  0.1195 -0.0946 -0.2359
  237POPC   NC3 3146   7.861   8.813   3.548 -0.1086 -0.1461 -0.1984
  237POPC   PO4 3147   8.031   8.507   3.923  0.1101 -0.0637 -0.0640
  237POPC   GL1 3148   8.055   8.670   4.380 -0.0755  0.1426  0.1075
  237POPC   GL2 3149   8.271   8.978   4.405 -0.2964 -0.1668  0.0690
  237POPC   C1A 3150   8.063   8.428   4.841 -0.1425  0.0159  0.2899
  237POPC   D2A 3151   8.027   8.519   5.197  0.2189  0.1617 -0.0580
  237POPC   C3A 3152   7.779   8.767   5.578 -0.0587 -0.0851  0.2454
  237POPC   C4A 3153   7.471   8.577   5.805 -0.0313 -0.0306 -0.1272
  237POPC   C1B 3154   8.377   9.141   4.792  0.0737  0.2248 -0.0346
  237POPC   C2B 3155   8.542   9.128   5.217  0.2759  0.2360 -0.1766
  237POPC   C3B 3156   8.810   9.217   5.512 -0.1314  0.1520 -0.2782
  237POPC   C4B 3157   9.061   9.568   5.469 -0.5601 -0.0805  0.0641
  238POPC   NC3 3158   0.528   7.403   3.657 -0.2276  0.1420 -0.0654
  238POPC   PO4 3159   0.708   7.041   3.710  0.3313 -0.5229 -0.1151
  238POPC   GL1 3160   0.823   6.983   4.143 -0.4251 -0.0565 -0.3143
  238POPC   GL2 3161   0.955   6.773   4.310  0.2504  0.5317 -0.1812
  238POPC   C1A 3162   0.916   7.202   4.585  0.2065 -0.3642  0.1975
  238POPC   D2A 3163   0.585   7.304   4.962  0.1060 -0.0001 -0.1507
  238POPC   C3A 3164   0.804   7.131   5.370 -0.0206  0.5477 -0.0744
  238POPC   C4A 3165   0.715   7.104   5.782  0.1020  0.0567  0.0129
  238POPC   C1B 3166   1.177   6.701   4.665 -0.2513 -0.0892  0.1974
  238POPC   C2B 3167   1.230   6.334   4.975  0.1578  0.1075  0.1521
  238POPC   C3B 3168   1.365   5.957   5.204  0.2029  0.0195  0.3234
  238POPC   C4B 3169   1.192   5.889   5.691  0.0182 -0.0838  0.1052
  239POPC   NC3 3170   5.643   6.379   3.331 -0.0024 -0.0076 -0.0733
  239POPC   PO4 3171   5.415   6.765   3.509  0.1736 -0.0787  0.0501
  239POPC   GL1 3172   5.307   6.809   3.991  0.0213 -0.1714  0.1040
  239POPC   GL2 3173   5.029   6.769   3.956 -0.1508  0.0548  0.1471
  239POPC   C1A 3174   5.291   6.901   4.418  0.1113 -0.1331  0.2524
  239POPC   D2A 3175   5.294   6.715   4.872 -0.1499  0.3042  0.1438
  239POPC   C3A 3176   5.232   6.791   5.317 -0.1388  0.0707 -0.1901
  239POPC   C4A 3177   5.186   6.764   5.757  0.1392 -0.2862 -0.1078
  239POPC   C1B 3178   4.962   6.544   4.391 -0.1232 -0.0102  0.0315
  239POPC   C2B 3179   4.986   6.310   4.792 -0.2696 -0.2244 -0.0326
  239POPC   C3B 3180   5.295   6.298   5.255  0.0327 -0.3942 -0.1459
  239POPC   C4B 3181   5.399   5.899   5.595  0.2874  0.0980  0.1866
  240POPC   NC3 3182   9.280   0.614   4.107 -0.0660  0.0042  0.4090
  240POPC   PO4 3183   9.546   0.981   4.151 -0.2186 -0.0513  0.3473
  240POPC   GL1 3184   9.322   0.967   4.632 -0.0368  0.1880  0.3493
  240POPC   GL2 3185   9.311   1.259   4.632  0.2165  0.4010 -0.0456
  240POPC   C1A 3186   9.298   0.875   5.042 -0.0128 -0.2609 -0.0776
  240POPC   D2A 3187   9.053   0.744   5.402  0.0994 -0.2927  0.3618
  240POPC   C3A 3188   9.405   0.479   5.670  0.2436  0.1066  0.2232
  240POPC   C4A 3189   9.790   0.357   5.687  0.1260 -0.0239 -0.1113
  240POPC   C1B 3190   9.073   1.473   4.891  0.1909  0.1385 -0.1243
  240POPC   C2B 3191   8.854   1.538   5.222  0.3933 -0.3400 -0.1013
  240POPC   C3B 3192   8.820   1.668   5.696  0.0082 -0.0890  0.0329
  240POPC   C4B 3193   8.810   1.473   6.081 -0.1738 -0.4193 -0.1137
  241POPC   NC3 3194   7.682   0.276   4.006 -0.1674  0.1337  0.0383
  241POPC   PO4 3195   8.062   0.576   4.059 -0.0952 -0.0960 -0.1890
  241POPC   GL1 3196   8.417   0.648   4.444  0.1463  0.0031  0.1625
  241POPC   GL2 3197   8.258   0.871   4.588  0.1791 -0.2364  0.0821
  241POPC   C1A 3198   8.413   0.432   4.784  0.1127 -0.0854 -0.1606
  241POPC   D2A 3199   8.598   0.119   5.034 -0.4168  0.1783  0.0286
  241POPC   C3A 3200   8.548   0.031   5.481 -0.0082  0.2862 -0.0610
  241POPC   C4A 3201   8.709  -0.136   5.868  0.1489 -0.0734  0.1011
  241POPC   C1B 3202   8.150   0.890   4.980  0.1805 -0.1518  0.4246
  241POPC   C2B 3203   7.980   0.766   5.346 -0.1309  0.1054  0.2426
  241POPC   C3B 3204   7.813   0.429   5.636  0.1472  0.0137  0.0250
  241POPC   C4B 3205   7.370   0.158   5.672  0.0888 -0.0075 -0.0549
  242POPC   NC3 3206   4.768   3.719   3.547  0.1577 -0.2770 -0.1431
  242POPC   PO4 3207   4.985   3.546   3.785 -0.0745  0.1122 -0.4185
  242POPC   GL1 3208   4.973   3.613   4.200  0.1305 -0.0922 -0.0331
  242POPC   GL2 3209   4.693   3.442   4.314  0.1209  0.1563  0.0909
  242POPC   C1A 3210   5.064   3.617   4.574 -0.0730 -0.1657  0.1550
  242POPC   D2A 3211   5.271   3.678   4.980 -0.0538 -0.0921  0.3161
  242POPC   C3A 3212   5.357   3.990   5.236  0.1373  0.3032 -0.1518
  242POPC   C4A 3213   5.284   4.236   5.718 -0.1195  0.1801  0.2413
  242POPC   C1B 3214   4.694   3.144   4.491  0.0968  0.1296 -0.0046
  242POPC   C2B 3215   4.677   2.911   4.975 -0.2410 -0.0105 -0.0112
  242POPC   C3B 3216   4.589   2.663   5.271 -0.0929  0.0288  0.0293
  242POPC   C4B 3217   4.711   2.291   5.456 -0.2093  0.1713 -0.1449
  243POPC   NC3 3218   6.756   8.506   3.612 -0.0784 -0.1324 -0.0765
  243POPC   PO4 3219   7.026   8.800   3.941 -0.2765  0.1649 -0.1453
  243POPC   GL1 3220   7.219   8.756   4.422  0.0512 -0.1135 -0.0168
  243POPC   GL2 3221   7.428   8.555   4.511 -0.1360  0.1611  0.1245
  243POPC   C1A 3222   7.165   8.992   4.844 -0.0641  0.2821  0.1571
  243POPC   D2A 3223   6.956   9.299   5.037 -0.0332  0.1250  0.2379
  243POPC   C3A 3224   6.924   9.382   5.436 -0.2745  0.0615  0.1146
  243POPC   C4A 3225   7.040   9.602   5.820 -0.2946 -0.2436  0.0589
  243POPC   C1B 3226   7.588   8.224   4.843  0.1630 -0.0284  0.4024
  243POPC   C2B 3227   7.815   8.035   5.040 -0.1195  0.0307 -0.1910
  243POPC   C3B 3228   8.094   7.803   5.286 -0.2667  0.0639 -0.1628
  243POPC   C4B 3229   8.214   7.802   5.758  0.2193 -0.0321  0.1192
  244POPC   NC3 3230   4.648   7.474   3.928  0.0439  0.2104 -0.0865
  244POPC   PO4 3231   4.471   7.166   4.007  0.0083  0.3089  0.0188
  244POPC   GL1 3232   4.803   7.073   4.266  0.1314  0.0142  0.0459
  244POPC   GL2 3233   5.111   7.311   4.181 -0.1479 -0.1601  0.1975
  244POPC   C1A 3234   4.942   7.082   4.751  0.0615 -0.0079 -0.0482
  244POPC   D2A 3235   4.989   7.257   5.158  0.0850 -0.3115  0.3115
  244POPC   C3A 3236   4.841   7.145   5.557  0.0806 -0.1472  0.1322
  244POPC   C4A 3237   4.490   7.062   5.927  0.1316  0.1908  0.1165
  244POPC   C1B 3238   5.349   7.368   4.625  0.0950 -0.0619  0.0623
  244POPC   C2B 3239   5.350   7.614   5.042 -0.2558 -0.0541 -0.0793
  244POPC   C3B 3240   5.487   8.041   5.431 -0.3433 -0.1829  0.1297
  244POPC   C4B 3241   5.273   8.183   5.752 -0.2488  0.0375 -0.0555
  245POPC   NC3 3242   6.599   4.369   4.188  0.0061  0.1280 -0.0322
  245POPC   PO4 3243   7.037   4.515   4.256  0.2970  0.2887 -0.0808
  245POPC   GL1 3244   6.911   4.869   4.540  0.1053 -0.3945 -0.1016
  245POPC   GL2 3245   6.516   5.060   4.431  0.4563 -0.3346  0.2492
  245POPC   C1A 3246   6.772   5.263   4.782  0.2798 -0.0067  0.3831
  245POPC   D2A 3247   6.626   5.179   5.253 -0.2314 -0.1547  0.2130
  245POPC   C3A 3248   6.724   4.944   5.598  0.2497  0.2721 -0.0552
  245POPC   C4A 3249   6.733   4.547   5.716  0.2656  0.2528 -0.0336
  245POPC   C1B 3250   6.518   4.718   4.841 -0.0701  0.0098  0.1303
  245POPC   C2B 3251   6.437   4.493   5.238 -0.0072 -0.0284 -0.0263
  245POPC   C3B 3252   6.286   4.704   5.581  0.4050  0.0496 -0.1616
  245POPC   C4B 3253   5.995   5.107   5.806 -0.1784 -0.0022  0.0770
  246POPC   NC3 3254  10.029   0.727   3.094 -0.0720  0.3291  0.3800
  246POPC   PO4 3255  10.077   0.894   3.422  0.0369 -0.0251 -0.2557
  246POPC   GL1 3256  10.274   1.014   3.864 -0.2979 -0.1062  0.0538
  246POPC   GL2 3257  10.056   0.958   4.079 -0.2810 -0.2956 -0.1036
  246POPC   C1A 3258  10.562   0.890   4.160 -0.0026  0.0497 -0.1792
  246POPC   D2A 3259  10.660   1.006   4.534 -0.0228 -0.3228 -0.1407
  246POPC   C3A 3260  10.912   0.701   4.751  0.0950  0.1120 -0.2691
  246POPC   C4A 3261  10.962   0.398   5.120 -0.2029 -0.3315  0.0361
  246POPC   C1B 3262  10.222   0.786   4.550 -0.0858  0.2186 -0.2224
  246POPC   C2B 3263  10.399   0.569   4.919 -0.0276  0.2553 -0.1028
  246POPC   C3B 3264  10.568   0.203   4.881 -0.1609  0.1998  0.1364
  246POPC   C4B 3265  10.702  -0.203   5.209  0.2124  0.0872  0.0602
  247POPC   NC3 3266   0.854   8.789   2.918 -0.0395  0.6633 -0.0246
  247POPC   PO4 3267   0.479   8.525   3.116 -0.1057  0.0303 -0.1812
  247POPC   GL1 3268   0.373   8.950   3.158  0.1455 -0.0125 -0.2193
  247POPC   GL2 3269   0.030   9.107   3.242 -0.1068  0.2145  0.1045
  247POPC   C1A 3270   0.408   9.456   3.280  0.0211  0.2845 -0.2085
  247POPC   D2A 3271   0.353   9.860   3.578  0.0775 -0.5145 -0.0994
  247POPC   C3A 3272   0.111  10.076   3.798  0.0499 -0.1447 -0.1537
  247POPC   C4A 3273  -0.155  10.193   4.112  0.3040 -0.1529  0.0364
  247POPC   C1B 3274   0.174   8.899   3.652  0.0452 -0.0359 -0.1733
  247POPC   C2B 3275   0.461   8.477   3.707  0.0055 -0.0438 -0.0322
  247POPC   C3B 3276   0.680   8.036   3.855  0.3959 -0.1387 -0.1129
  247POPC   C4B 3277   0.827   7.701   4.169  0.4064 -0.0493  0.1885
  248POPC   NC3 3278   7.621   9.523   3.589 -0.1716 -0.0922  0.3005
  248POPC   PO4 3279   7.977   9.323   3.616 -0.1939 -0.0395  0.2173
  248POPC   GL1 3280   7.882   9.599   3.981 -0.1044  0.0383  0.0341
  248POPC   GL2 3281   8.124   9.505   4.128 -0.0043 -0.3588  0.1886
  248POPC   C1A 3282   7.921  10.050   4.169 -0.0456 -0.0936  0.0988
  248POPC   D2A 3283   8.193  10.137   4.402 -0.1617  0.0620 -0.0965
  248POPC   C3A 3284   8.699   9.960   4.546  0.1065  0.2549  0.2424
  248POPC   C4A 3285   9.071   9.793   4.620  0.3360  0.1736 -0.0673
  248POPC   C1B 3286   8.005   9.716   4.586  0.2012  0.2501  0.1261
  248POPC   C2B 3287   8.021   9.481   4.900 -0.0330  0.0618  0.0386
  248POPC   C3B 3288   7.963   9.142   5.227  0.0169  0.1013 -0.0238
  248POPC   C4B 3289   7.885   9.237   5.651  0.0633 -0.0360  0.4105
  249POPC   NC3 3290   4.366   9.552   3.889  0.0792  0.2445  0.4974
  249POPC   PO4 3291   4.075   9.280   3.788 -0.2105 -0.1035 -0.0257
  249POPC   GL1 3292   3.940   9.319   4.149 -0.1577  0.0090 -0.0797
  249POPC   GL2 3293   4.065   9.106   4.507 -0.2067 -0.1039  0.1164
  249POPC   C1A 3294   3.613   9.531   4.468  0.1535 -0.2211 -0.1859
  249POPC   D2A 3295   3.214   9.801   4.504  0.0954  0.1402 -0.0313
  249POPC   C3A 3296   2.887   9.644   4.894  0.0091 -0.1366  0.2434
  249POPC   C4A 3297   2.932   9.311   5.156  0.0069 -0.0802  0.1470
  249POPC   C1B 3298   3.849   9.275   4.837 -0.0114  0.3696  0.0692
  249POPC   C2B 3299   3.721   9.280   5.251 -0.4244 -0.0882  0.4126
  249POPC   C3B 3300   3.612   9.549   5.591 -0.0812 -0.0554 -0.1322
  249POPC   C4B 3301   3.308   9.938   5.589  0.1437  0.0167 -0.0515
  250POPC   NC3 3302   3.049   4.740   3.675  0.2102 -0.1733 -0.1151
  250POPC   PO4 3303   2.684   5.068   3.770  0.1520 -0.0495  0.1556
  250POPC   GL1 3304   2.798   4.714   4.125 -0.2931  0.2634 -0.0551
  250POPC   GL2 3305   2.491   4.664   4.367  0.0126  0.0467  0.0996
  250POPC   C1A 3306   2.918   4.321   4.268  0.0277 -0.1189  0.0595
  250POPC   D2A 3307   3.129   4.156   4.572  0.1989  0.1189  0.2164
  250POPC   C3A 3308   3.059   4.118   5.058 -0.2444 -0.5291  0.1783
  250POPC   C4A 3309   2.542   4.127   5.162 -0.2171  0.2903  0.2195
  250POPC   C1B 3310   2.603   5.103   4.730 -0.1362  0.1609  0.0905
  250POPC   C2B 3311   2.757   5.298   5.097  0.0843  0.0446 -0.1589
  250POPC   C3B 3312   2.925   5.425   5.528  0.0258  0.0910 -0.2714
  250POPC   C4B 3313   2.774   5.865   5.718  0.1101 -0.0959 -0.3511
  251POPC   NC3 3314   2.138   9.931   2.663 -0.0718 -0.1798 -0.0378
  251POPC   PO4 3315   2.333   9.739   3.073 -0.2393 -0.1323  0.1387
  251POPC   GL1 3316   2.177   9.634   3.397  0.0346 -0.1279 -0.0745
  251POPC   GL2 3317   2.414   9.689   3.650  0.2069 -0.1662  0.1838
  251POPC   C1A 3318   1.976   9.490   3.759  0.0450 -0.0835 -0.0102
  251POPC   D2A 3319   1.973   9.129   4.079 -0.2589 -0.5155  0.2137
  251POPC   C3A 3320   2.449   9.099   4.225 -0.1954  0.2256 -0.2037
  251POPC   C4A 3321   2.753   8.637   4.265 -0.0228  0.2665  0.0666
  251POPC   C1B 3322   2.460  10.023   3.914 -0.0690 -0.2544  0.3956
  251POPC   C2B 3323   2.299  10.088   4.328 -0.1998 -0.4032 -0.1209
  251POPC   C3B 3324   2.294  10.173   4.735  0.4481 -0.1180 -0.0276
  251POPC   C4B 3325   2.280  10.456   4.962  0.2059  0.1770  0.0346
  252POPC   NC3 3326   1.142   3.614   3.649 -0.2932  0.1477  0.2497
  252POPC   PO4 3327   0.970   3.633   4.147 -0.1057  0.2960  0.1877
  252POPC   GL1 3328   1.200   3.900   4.473  0.1056 -0.2582 -0.1958
  252POPC   GL2 3329   1.500   3.753   4.466 -0.1466  0.1804 -0.0903
  252POPC   C1A 3330   1.256   3.959   4.886  0.2241 -0.0338  0.0681
  252POPC   D2A 3331   0.909   3.982   5.243 -0.1869 -0.2433  0.3089
  252POPC   C3A 3332   0.652   3.957   5.563 -0.0270 -0.1272  0.2043
  252POPC   C4A 3333   0.620   3.822   5.898  0.0283 -0.3963 -0.0094
  252POPC   C1B 3334   1.407   3.520   4.899 -0.0086 -0.0873  0.0214
  252POPC   C2B 3335   1.406   3.749   5.291 -0.0136 -0.0810 -0.0574
  252POPC   C3B 3336   1.637   3.899   5.663 -0.0701  0.0195 -0.0140
  252POPC   C4B 3337   1.730   4.059   6.078  0.0307  0.2533  0.4024
  253POPC   NC3 3338   3.906   7.359   3.409 -0.1021 -0.1569  0.2148
  253POPC   PO4 3339   4.082   7.445   3.822  0.0115 -0.0134  0.0955
  253POPC   GL1 3340   3.940   7.248   4.279 -0.0716 -0.0343  0.0432
  253POPC   GL2 3341   3.876   6.994   4.314  0.4300 -0.0669 -0.1937
  253POPC   C1A 3342   3.705   7.426   4.614 -0.0753 -0.0230  0.0829
  253POPC   D2A 3343   3.559   7.811   4.608 -0.1631 -0.3628 -0.0958
  253POPC   C3A 3344   3.842   8.249   4.559  0.1904  0.1622  0.1667
  253POPC   C4A 3345   4.087   8.657   4.515 -0.1715  0.3119 -0.4290
  253POPC   C1B 3346   4.024   6.745   4.740  0.0417 -0.0990  0.2022
  253POPC   C2B 3347   4.163   6.722   5.129 -0.0606  0.3559 -0.0103
  253POPC   C3B 3348   4.069   6.750   5.541 -0.0525 -0.1500 -0.1722
  253POPC   C4B 3349   4.110   6.405   5.909  0.4448  0.1690  0.0970
  254POPC   NC3 3350   7.240   1.904   3.852 -0.0652  0.0934  0.1556
  254POPC   PO4 3351   7.318   2.348   3.856  0.0548  0.0001 -0.0712
  254POPC   GL1 3352   7.395   2.287   4.377 -0.0371  0.0791 -0.0629
  254POPC   GL2 3353   7.171   2.328   4.568  0.1358  0.1931 -0.3289
  254POPC   C1A 3354   7.591   2.043   4.710  0.0374  0.0793  0.0308
  254POPC   D2A 3355   7.928   2.044   4.877 -0.0197  0.0883 -0.1365
  254POPC   C3A 3356   7.869   1.631   5.103 -0.2465  0.0155 -0.0934
  254POPC   C4A 3357   7.930   1.245   5.354  0.1577  0.1086  0.2921
  254POPC   C1B 3358   7.021   2.029   4.904 -0.0911  0.0318 -0.0279
  254POPC   C2B 3359   6.705   2.028   5.320  0.0735  0.0042 -0.2071
  254POPC   C3B 3360   6.892   1.951   5.664  0.0060  0.1206  0.2235
  254POPC   C4B 3361   7.040   1.570   5.865  0.0017 -0.1533 -0.1204
  255POPC   NC3 3362   1.962   3.838   4.278  0.0015  0.3350 -0.2696
  255POPC   PO4 3363   2.103   4.239   4.216 -0.3294 -0.1362 -0.1015
  255POPC   GL1 3364   2.149   4.166   4.651  0.0331 -0.0250  0.2756
  255POPC   GL2 3365   2.526   4.314   4.686  0.0408  0.0658 -0.2655
  255POPC   C1A 3366   2.106   4.262   5.038 -0.2644 -0.1467 -0.1459
  255POPC   D2A 3367   2.048   4.307   5.442  0.2017 -0.0381 -0.0539
  255POPC   C3A 3368   2.078   4.754   5.512  0.0843 -0.0114 -0.2056
  255POPC   C4A 3369   2.101   5.086   5.854  0.2238  0.2453  0.4610
  255POPC   C1B 3370   2.167   4.696   4.844  0.4318  0.2277  0.1306
  255POPC   C2B 3371   1.921   4.991   5.038 -0.3064  0.1125 -0.1938
  255POPC   C3B 3372   1.678   5.304   4.910  0.0755 -0.0982 -0.0610
  255POPC   C4B 3373   1.314   5.544   4.923 -0.1006 -0.1549 -0.0639
  256POPC   NC3 3374   9.783   6.863   3.567 -0.2579 -0.2097 -0.5386
  256POPC   PO4 3375   9.433   6.575   3.506 -0.1263  0.3012  0.2376
  256POPC   GL1 3376   9.559   6.578   3.956 -0.3219  0.2788 -0.2220
  256POPC   GL2 3377   9.540   6.175   3.980  0.2782 -0.0024 -0.0706
  256POPC   C1A 3378   9.510   6.740   4.267 -0.3037  0.0222 -0.1675
  256POPC   D2A 3379   9.581   6.777   4.695 -0.1434 -0.1508  0.3583
  256POPC   C3A 3380   9.949   6.907   5.006  0.0502  0.5291 -0.0912
  256POPC   C4A 3381   9.885   6.865   5.422  0.2274 -0.1722 -0.2540
  256POPC   C1B 3382   9.550   6.335   4.497 -0.1102 -0.1083 -0.1657
  256POPC   C2B 3383   9.757   6.378   4.932  0.0338  0.0494  0.3717
  256POPC   C3B 3384  10.040   6.332   5.254 -0.1088 -0.0878  0.2562
  256POPC   C4B 3385  10.170   6.482   5.619 -0.0795 -0.2753  0.3029
  257POPC   NC3 3386   7.397  10.410   3.124 -0.0709  0.0579 -0.1380
  257POPC   PO4 3387   7.398  10.015   3.471  0.0396 -0.3761 -0.0623
  257POPC   GL1 3388   7.401  10.126   3.903 -0.0426  0.1687  0.1822
  257POPC   GL2 3389   7.371   9.806   4.034 -0.1609  0.5843 -0.0035
  257POPC   C1A 3390   7.036  10.130   4.226  0.2259  0.0509 -0.0174
  257POPC   D2A 3391   7.013  10.187   4.638 -0.1865  0.1011  0.0300
  257POPC   C3A 3392   7.384  10.239   4.914  0.1401  0.0712  0.1923
  257POPC   C4A 3393   7.735  10.055   4.996 -0.2671 -0.0505 -0.1571
  257POPC   C1B 3394   7.476   9.858   4.536 -0.0850  0.0196  0.1146
  257POPC   C2B 3395   7.718  10.362   4.518 -0.1363 -0.0559  0.0701
  257POPC   C3B 3396   7.819  10.559   4.853  0.0045 -0.0738  0.2577
  257POPC   C4B 3397   8.120  10.479   5.171  0.0049  0.0853 -0.0791
  258POPC   NC3 3398   2.143   5.282   3.777 -0.0453 -0.2344 -0.0456
  258POPC   PO4 3399   2.167   5.653   3.977  0.1176 -0.2095 -0.4277
  258POPC   GL1 3400   2.331   5.721   4.417  0.2483  0.1206 -0.1402
  258POPC   GL2 3401   2.686   5.576   4.499 -0.1394  0.2902 -0.3501
  258POPC   C1A 3402   2.263   6.003   4.776  0.1995  0.1173  0.1444
  258POPC   D2A 3403   2.121   5.857   5.157 -0.0983  0.0243 -0.0426
  258POPC   C3A 3404   1.831   5.959   5.544  0.1220 -0.1984  0.1024
  258POPC   C4A 3405   1.905   5.893   5.980  0.3305  0.0703  0.1459
  258POPC   C1B 3406   2.764   5.802   4.808  0.0976  0.0534  0.0263
  258POPC   C2B 3407   3.026   5.764   5.050 -0.0416  0.0573 -0.0156
  258POPC   C3B 3408   3.122   5.849   5.419 -0.2036  0.2016  0.1711
  258POPC   C4B 3409   3.383   5.764   5.673  0.2880 -0.1413  0.0602
  259POPC   NC3 3410   6.524   8.487   4.051 -0.0598  0.1022  0.0231
  259POPC   PO4 3411   6.095   8.470   4.053 -0.2855 -0.3135  0.1911
  259POPC   GL1 3412   6.229   8.413   4.417 -0.1349  0.1791  0.0393
  259POPC   GL2 3413   6.493   8.234   4.511 -0.0633 -0.0842 -0.1847
  259POPC   C1A 3414   6.001   8.096   4.643 -0.0626 -0.1188 -0.3980
  259POPC   D2A 3415   5.815   7.894   4.964  0.1044  0.0525 -0.0431
  259POPC   C3A 3416   6.020   8.034   5.430  0.0888  0.0716 -0.2311
  259POPC   C4A 3417   6.189   7.833   5.729 -0.2615 -0.1865 -0.0179
  259POPC   C1B 3418   6.824   8.463   4.668  0.0341  0.0557 -0.1361
  259POPC   C2B 3419   7.199   8.486   5.007  0.0606 -0.0700 -0.1283
  259POPC   C3B 3420   7.549   8.366   5.339 -0.2128  0.2402  0.0144
  259POPC   C4B 3421   7.823   8.145   5.596 -0.0801  0.1095  0.0160
  260POPC   NC3 3422   0.145   4.447   3.801  0.0374 -0.1277  0.0606
  260POPC   PO4 3423   0.248   4.182   4.151  0.1094  0.0706  0.1228
  260POPC   GL1 3424   0.237   4.044   4.511 -0.3062  0.0740 -0.2811
  260POPC   GL2 3425   0.558   3.769   4.461 -0.2764  0.0307 -0.1055
  260POPC   C1A 3426   0.142   4.226   4.944  0.0850 -0.1650 -0.2242
  260POPC   D2A 3427  -0.182   4.266   5.277 -0.0604  0.0056  0.2414
  260POPC   C3A 3428  -0.406   3.922   5.457  0.0723 -0.0775  0.3609
  260POPC   C4A 3429  -0.801   3.832   5.339 -0.0230 -0.1737 -0.0347
  260POPC   C1B 3430   0.738   3.966   4.795  0.0848 -0.0860  0.2397
  260POPC   C2B 3431   0.622   4.324   4.952  0.1784 -0.3000  0.1176
  260POPC   C3B 3432   0.731   4.507   5.359 -0.3826 -0.4051  0.1091
  260POPC   C4B 3433   0.677   4.819   5.644 -0.1020  0.0609  0.3316
  261POPC   NC3 3434   3.153   3.227   3.667  0.1003  0.4279  0.0197
  261POPC   PO4 3435   3.441   2.934   3.875 -0.1154  0.2329 -0.0286
  261POPC   GL1 3436   3.663   2.936   4.319  0.0769 -0.1524 -0.2177
  261POPC   GL2 3437   3.897   2.732   4.399 -0.2311 -0.2943 -0.0856
  261POPC   C1A 3438   3.791   3.181   4.691  0.0823  0.0496 -0.2450
  261POPC   D2A 3439   3.664   3.285   5.073 -0.2584 -0.2327  0.0707
  261POPC   C3A 3440   3.790   2.841   5.309  0.1180  0.0182  0.1724
  261POPC   C4A 3441   3.943   2.494   5.466  0.0505  0.0080 -0.0358
  261POPC   C1B 3442   3.748   2.695   4.864  0.0272  0.0899 -0.0172
  261POPC   C2B 3443   3.517   2.426   5.162  0.0753 -0.0859  0.0620
  261POPC   C3B 3444   3.484   1.988   5.441 -0.6029  0.0634  0.2787
  261POPC   C4B 3445   3.390   1.745   5.745  0.3198 -0.0037 -0.0216
  262POPC   NC3 3446   4.237   5.407   3.826  0.0376 -0.1552 -0.1607
  262POPC   PO4 3447   3.958   5.110   3.709  0.1227  0.1823 -0.0370
  262POPC   GL1 3448   4.115   5.008   4.145  0.2000  0.0819  0.1682
  262POPC   GL2 3449   4.246   5.257   4.418  0.0552 -0.0251  0.2032
  262POPC   C1A 3450   4.288   4.759   4.522  0.0090  0.0086 -0.1411
  262POPC   D2A 3451   4.566   4.796   4.990  0.0490 -0.0033  0.1269
  262POPC   C3A 3452   4.795   4.380   5.208  0.4230 -0.0820  0.0011
  262POPC   C4A 3453   4.703   4.185   5.576 -0.4008 -0.4133 -0.1555
  262POPC   C1B 3454   4.213   5.115   4.875  0.1352 -0.1148 -0.0423
  262POPC   C2B 3455   4.191   4.913   5.304  0.1970 -0.1614  0.4446
  262POPC   C3B 3456   4.251   4.472   5.394 -0.6837  0.0185 -0.1566
  262POPC   C4B 3457   4.349   4.003   5.238  0.0760 -0.5019 -0.0116
  263POPC   NC3 3458   2.830   6.523   4.011  0.1295  0.0472  0.2276
  263POPC   PO4 3459   3.170   6.195   3.840  0.0042  0.2772  0.1900
  263POPC   GL1 3460   3.298   6.331   4.286 -0.3423  0.0061 -0.1362
  263POPC   GL2 3461   3.247   6.604   4.313  0.0738  0.2592 -0.1365
  263POPC   C1A 3462   3.596   6.349   4.688  0.0800  0.1466 -0.1621
  263POPC   D2A 3463   3.612   6.656   5.096 -0.3811 -0.0623 -0.3069
  263POPC   C3A 3464   3.234   6.761   5.168 -0.0590  0.0869 -0.2110
  263POPC   C4A 3465   2.832   6.745   5.392  0.3019  0.1708  0.0525
  263POPC   C1B 3466   3.103   6.540   4.650  0.2786  0.0731 -0.3251
  263POPC   C2B 3467   3.012   6.352   4.920  0.2012 -0.0671 -0.0619
  263POPC   C3B 3468   2.700   6.174   5.276  0.0895  0.0616  0.2393
  263POPC   C4B 3469   2.550   5.752   5.246 -0.2357  0.0582 -0.1835
  264POPC   NC3 3470   5.523   1.954   3.154  0.0409 -0.0225  0.0567
  264POPC   PO4 3471   5.247   2.084   3.535  0.2542  0.1552  0.0290
  264POPC   GL1 3472   5.301   2.123   4.047 -0.1793 -0.3868  0.0400
  264POPC   GL2 3473   5.532   2.351   4.049 -0.0138 -0.3969 -0.0380
  264POPC   C1A 3474   5.193   2.056   4.409  0.0616  0.2529  0.1000
  264POPC   D2A 3475   5.294   2.183   4.920  0.0323  0.2599  0.2287
  264POPC   C3A 3476   5.209   2.234   5.359  0.1086 -0.0657  0.0387
  264POPC   C4A 3477   5.067   2.539   5.725  0.6786 -0.2562  0.1834
  264POPC   C1B 3478   5.663   2.329   4.523 -0.1201  0.0965 -0.0464
  264POPC   C2B 3479   5.804   2.175   4.934  0.0218  0.0365  0.0100
  264POPC   C3B 3480   5.722   1.915   5.307 -0.0190  0.2406 -0.2253
  264POPC   C4B 3481   5.877   1.709   5.693  0.0807 -0.1705 -0.0154
  265POPC   NC3 3482   6.276   8.942   4.256  0.5596 -0.2525  0.1688
  265POPC   PO4 3483   6.329   9.349   4.281 -0.2697  0.4237  0.1397
  265POPC   GL1 3484   6.063   9.339   4.700 -0.1874  0.0221  0.2155
  265POPC   GL2 3485   6.400   9.074   4.751  0.2623 -0.1170  0.0837
  265POPC   C1A 3486   6.197   9.256   5.124 -0.2209  0.1653  0.1674
  265POPC   D2A 3487   6.526   9.072   5.439  0.0908 -0.0550 -0.0818
  265POPC   C3A 3488   6.582   9.315   5.810  0.0337 -0.3778 -0.0526
  265POPC   C4A 3489   6.801   9.425   6.207  0.0311  0.3284  0.2350
  265POPC   C1B 3490   6.388   8.718   4.813  0.0589  0.1000  0.0324
  265POPC   C2B 3491   6.284   8.274   5.041  0.0757 -0.1696 -0.1461
  265POPC   C3B 3492   6.558   8.159   5.504  0.0878  0.1003  0.0966
  265POPC   C4B 3493   6.775   8.035   5.894  0.1008  0.0055 -0.0363
  266POPC   NC3 3494   2.663   0.634   3.178  0.0938  0.2054  0.3057
  266POPC   PO4 3495   2.332   0.806   3.339 -0.0504 -0.0762 -0.0542
  266POPC   GL1 3496   2.577   0.780   3.700 -0.0534 -0.1789 -0.1714
  266POPC   GL2 3497   2.770   0.613   3.734  0.1324  0.1999  0.1370
  266POPC   C1A 3498   2.611   0.934   4.062  0.2418 -0.0705  0.0059
  266POPC   D2A 3499   2.560   1.311   4.272 -0.4390 -0.2687  0.3232
  266POPC   C3A 3500   2.316   1.377   4.531  0.1548 -0.0637 -0.1288
  266POPC   C4A 3501   1.914   1.429   4.700  0.1136  0.1709 -0.3952
  266POPC   C1B 3502   2.581   0.405   4.083 -0.1849  0.0333  0.0708
  266POPC   C2B 3503   2.658   0.617   4.474 -0.3214  0.0964 -0.2033
  266POPC   C3B 3504   2.504   0.657   4.841  0.2529  0.2539 -0.0852
  266POPC   C4B 3505   2.315   0.766   5.242  0.1202  0.6245  0.4411
  267POPC   NC3 3506   8.524   5.194   4.052 -0.0942 -0.3127 -0.0194
  267POPC   PO4 3507   8.472   5.604   3.858  0.2093 -0.1356 -0.0986
  267POPC   GL1 3508   8.583   5.754   4.178  0.0478  0.0203  0.0708
  267POPC   GL2 3509   8.817   5.610   4.371 -0.1107  0.1538 -0.1375
  267POPC   C1A 3510   8.528   6.088   4.542 -0.0336  0.0325 -0.1807
  267POPC   D2A 3511   8.235   6.250   4.962 -0.0382 -0.1144 -0.0922
  267POPC   C3A 3512   8.561   6.033   5.324 -0.1530  0.2523 -0.2204
  267POPC   C4A 3513   8.593   5.754   5.798 -0.0234 -0.0558 -0.1215
  267POPC   C1B 3514   8.705   5.730   4.829  0.2262 -0.1114  0.1316
  267POPC   C2B 3515   8.836   5.575   5.238 -0.0877  0.2210 -0.2671
  267POPC   C3B 3516   8.969   5.414   5.538 -0.0572  0.2824  0.0743
  267POPC   C4B 3517   9.185   5.583   5.875 -0.1664  0.0133  0.2435
  268POPC   NC3 3518   4.866   8.777   4.028  0.2184 -0.0841  0.3735
  268POPC   PO4 3519   4.791   9.193   4.055 -0.2041  0.0562 -0.0226
  268POPC   GL1 3520   4.604   9.160   4.460 -0.1846 -0.1827 -0.1830
  268POPC   GL2 3521   4.796   8.923   4.584  0.0776 -0.0378  0.1658
  268POPC   C1A 3522   4.438   9.294   4.915  0.1071  0.0309 -0.0394
  268POPC   D2A 3523   4.153   9.025   5.157 -0.2330  0.2818 -0.1859
  268POPC   C3A 3524   4.094   9.035   5.541 -0.3512 -0.1154  0.1451
  268POPC   C4A 3525   3.756   9.074   5.781  0.1677  0.0202  0.1242
  268POPC   C1B 3526   4.794   8.983   5.000  0.0481  0.1176  0.2519
  268POPC   C2B 3527   4.568   8.928   5.421  0.0035  0.0779 -0.1775
  268POPC   C3B 3528   4.409   8.619   5.695  0.2570 -0.0024 -0.0559
  268POPC   C4B 3529   3.986   8.381   5.978 -0.2920  0.0773  0.1684
  269POPC   NC3 3530   5.439   5.559   3.781 -0.1737 -0.2043  0.0820
  269POPC   PO4 3531   5.304   5.167   3.865  0.1418 -0.1241 -0.2303
  269POPC   GL1 3532   5.324   5.309   4.257  0.1538  0.0658  0.1119
  269POPC   GL2 3533   5.635   5.382   4.323  0.0272  0.0082  0.3344
  269POPC   C1A 3534   5.053   5.287   4.520  0.2617 -0.2621 -0.2967
  269POPC   D2A 3535   4.693   5.514   4.652  0.3152 -0.0175 -0.0919
  269POPC   C3A 3536   4.575   5.645   5.068 -0.2113 -0.4022 -0.0466
  269POPC   C4A 3537   4.373   5.710   5.477 -0.0536 -0.0248 -0.0901
  269POPC   C1B 3538   5.458   5.626   4.687  0.0111 -0.1412 -0.0500
  269POPC   C2B 3539   5.453   5.615   5.141  0.2315  0.2577  0.0108
  269POPC   C3B 3540   5.264   5.355   5.502  0.1115 -0.1954 -0.2366
  269POPC   C4B 3541   5.314   4.938   5.594  0.0592 -0.0799  0.1586
  270POPC   NC3 3542   0.390   1.615   3.948 -0.0089  0.1303 -0.0019
  270POPC   PO4 3543  -0.031   1.693   3.694 -0.1292  0.1636  0.1026
  270POPC   GL1 3544  -0.166   1.467   4.077  0.0302  0.0705  0.0169
  270POPC   GL2 3545   0.200   1.468   4.339 -0.1307  0.1654 -0.0081
  270POPC   C1A 3546  -0.277   1.408   4.477  0.2950  0.1374 -0.1405
  270POPC   D2A 3547  -0.334   1.127   4.896 -0.0686 -0.0992 -0.0370
  270POPC   C3A 3548  -0.257   1.314   5.282 -0.3551  0.1371 -0.1015
  270POPC   C4A 3549  -0.481   1.242   5.693  0.2588  0.0474 -0.0363
  270POPC   C1B 3550   0.449   1.185   4.459  0.1905  0.1634  0.0335
  270POPC   C2B 3551   0.600   1.105   4.897  0.3839 -0.0742 -0.3220
  270POPC   C3B 3552   0.583   0.897   5.133 -0.0841  0.0725 -0.3376
  270POPC   C4B 3553   0.575   0.671   5.494  0.4704 -0.0138 -0.1626
  271POPC   NC3 3554   0.693   3.986   4.002  0.0571 -0.2194  0.2287
  271POPC   PO4 3555   0.649   4.346   3.747  0.1530 -0.1316  0.2637
  271POPC   GL1 3556   0.559   4.562   4.182 -0.5088  0.2777  0.1322
  271POPC   GL2 3557   0.607   4.348   4.400 -0.1925 -0.1808  0.0543
  271POPC   C1A 3558   0.300   4.614   4.688  0.2092 -0.2416 -0.0552
  271POPC   D2A 3559   0.260   4.616   5.219  0.2452  0.1535 -0.2387
  271POPC   C3A 3560   0.257   4.253   5.432 -0.2537  0.0042  0.0031
  271POPC   C4A 3561   0.278   4.225   5.888 -0.1514 -0.1003 -0.1908
  271POPC   C1B 3562   1.021   4.406   4.646 -0.0245  0.2596  0.0812
  271POPC   C2B 3563   1.142   4.432   5.088 -0.0377 -0.1925 -0.0844
  271POPC   C3B 3564   1.201   4.268   5.495  0.0368  0.1368 -0.3134
  271POPC   C4B 3565   0.902   4.437   5.860  0.0961  0.0658 -0.2789
  272POPC   NC3 3566   9.803   8.565   3.691 -0.1319 -0.0342 -0.0876
  272POPC   PO4 3567   9.514   8.216   3.774 -0.3529  0.0340 -0.0896
  272POPC   GL1 3568   9.560   8.489   4.209 -0.2717 -0.1542 -0.1039
  272POPC   GL2 3569   9.643   8.825   4.155  0.0182  0.3540  0.1412
  272POPC   C1A 3570   9.737   8.290   4.597 -0.0942  0.0350 -0.1508
  272POPC   D2A 3571   9.751   8.230   5.050 -0.1446 -0.1164  0.2316
  272POPC   C3A 3572   9.968   7.902   5.157 -0.0807 -0.3671  0.1081
  272POPC   C4A 3573  10.408   7.886   5.197  0.1246 -0.3124 -0.0673
  272POPC   C1B 3574   9.918   8.772   4.478  0.0957 -0.1442 -0.0211
  272POPC   C2B 3575   9.870   8.819   4.823  0.3646  0.1575  0.3106
  272POPC   C3B 3576   9.714   8.717   5.219  0.0925  0.1814  0.1050
  272POPC   C4B 3577   9.368   8.428   5.241  0.0263  0.0624 -0.3522
  273POPC   NC3 3578   8.573   3.748   3.874 -0.0325 -0.3367 -0.1388
  273POPC   PO4 3579   8.674   3.326   4.025  0.0313 -0.1009 -0.1298
  273POPC   GL1 3580   8.743   3.167   4.469 -0.1532  0.0618  0.0656
  273POPC   GL2 3581   8.400   3.056   4.457 -0.0740  0.0072 -0.0187
  273POPC   C1A 3582   8.698   3.145   4.897 -0.0406 -0.2064  0.0365
  273POPC   D2A 3583   8.782   2.870   5.273  0.2936 -0.1859 -0.1482
  273POPC   C3A 3584   8.463   2.625   5.522  0.0302 -0.3611 -0.2020
  273POPC   C4A 3585   8.258   2.732   5.991 -0.1765 -0.3486 -0.2114
  273POPC   C1B 3586   8.189   3.432   4.785 -0.1382 -0.1585 -0.2141
  273POPC   C2B 3587   8.126   3.763   4.976  0.0126 -0.2209  0.2946
  273POPC   C3B 3588   7.783   3.850   5.240  0.0613 -0.0780  0.0872
  273POPC   C4B 3589   7.423   4.018   5.366  0.1213 -0.2270 -0.2419
  274POPC   NC3 3590   3.681   5.391   3.356  0.0196 -0.3059  0.1132
  274POPC   PO4 3591   3.849   5.699   3.647  0.2518  0.0292  0.2079
  274POPC   GL1 3592   3.955   5.671   4.133 -0.0070  0.0655  0.3049
  274POPC   GL2 3593   4.215   5.755   4.373  0.3308 -0.1955 -0.1272
  274POPC   C1A 3594   3.771   5.374   4.445  0.2405 -0.0249 -0.4701
  274POPC   D2A 3595   3.634   5.129   4.720  0.1723  0.1138 -0.0770
  274POPC   C3A 3596   3.817   4.843   4.541 -0.0728  0.1395 -0.2291
  274POPC   C4A 3597   4.027   4.370   4.467 -0.0820 -0.0793 -0.3671
  274POPC   C1B 3598   4.223   5.810   4.735 -0.0211  0.2479 -0.4120
  274POPC   C2B 3599   4.041   5.825   5.165 -0.1500  0.2181 -0.3362
  274POPC   C3B 3600   3.987   5.998   5.621  0.1091 -0.0006  0.0710
  274POPC   C4B 3601   3.653   6.174   5.842  0.0720  0.0992  0.1736
  275POPC   NC3 3602   8.958  10.192   3.354  0.1095 -0.0078  0.1496
  275POPC   PO4 3603   8.826   9.965   3.710  0.2058  0.0405  0.0780
  275POPC   GL1 3604   9.118   9.919   4.022  0.1501  0.0538  0.0084
  275POPC   GL2 3605   9.073  10.191   4.274  0.4044 -0.0082 -0.1970
  275POPC   C1A 3606   9.607   9.817   4.313  0.3902 -0.4755 -0.0683
  275POPC   D2A 3607   9.963   9.725   4.567 -0.2320  0.0190 -0.0965
  275POPC   C3A 3608  10.326   9.872   4.447 -0.1218  0.1950  0.0201
  275POPC   C4A 3609  10.756   9.888   4.349  0.0760 -0.0668 -0.0299
  275POPC   C1B 3610   9.372  10.221   4.621  0.0171  0.0667 -0.1132
  275POPC   C2B 3611   9.504  10.467   4.863 -0.0303 -0.0543 -0.2249
  275POPC   C3B 3612   9.650  10.430   5.171 -0.0774  0.3980  0.0897
  275POPC   C4B 3613   9.652  10.159   5.623 -0.2314  0.1301  0.0979
  276POPC   NC3 3614   4.650   7.922   3.701  0.0852  0.2730  0.5792
  276POPC   PO4 3615   4.196   7.927   3.960  0.1189  0.0498 -0.1557
  276POPC   GL1 3616   4.027   7.737   4.285 -0.2252  0.1350  0.3421
  276POPC   GL2 3617   4.292   7.543   4.270  0.3880  0.0602 -0.1458
  276POPC   C1A 3618   4.067   7.738   4.770  0.2129  0.0312 -0.0385
  276POPC   D2A 3619   4.108   7.484   5.109  0.0933  0.2049  0.0965
  276POPC   C3A 3620   4.025   7.737   5.495  0.0041 -0.0003  0.0191
  276POPC   C4A 3621   3.509   7.700   5.646  0.0981 -0.2943 -0.0836
  276POPC   C1B 3622   4.361   7.160   4.637 -0.0286  0.0809  0.1978
  276POPC   C2B 3623   4.537   7.095   5.095 -0.1690 -0.0736 -0.1899
  276POPC   C3B 3624   4.409   7.072   5.403 -0.0523 -0.0307 -0.1067
  276POPC   C4B 3625   4.041   7.244   5.550  0.1824 -0.0130  0.2760
  277POPC   NC3 3626   1.938   3.042   3.942  0.2804  0.0271  0.1310
  277POPC   PO4 3627   1.918   3.312   4.312  0.1076  0.2652  0.2119
  277POPC   GL1 3628   1.922   3.322   4.724 -0.2660  0.0947 -0.3238
  277POPC   GL2 3629   1.882   2.904   4.781  0.1162 -0.2584  0.3140
  277POPC   C1A 3630   1.852   3.376   5.225 -0.0370  0.0409 -0.3242
  277POPC   D2A 3631   1.631   3.429   5.676  0.3898 -0.0208 -0.1180
  277POPC   C3A 3632   1.889   3.575   5.967 -0.0375 -0.1195  0.0135
  277POPC   C4A 3633   2.082   3.630   6.407  0.1742 -0.0657  0.2737
  277POPC   C1B 3634   2.179   3.026   5.017 -0.0592 -0.0383 -0.2951
  277POPC   C2B 3635   2.524   3.290   5.238 -0.0377 -0.2585  0.1214
  277POPC   C3B 3636   2.836   3.264   5.499 -0.1135 -0.0509 -0.0972
  277POPC   C4B 3637   3.061   3.096   5.915 -0.0095 -0.0441  0.1468
  278POPC   NC3 3638   4.021   8.410   3.906  0.2870 -0.2390 -0.0973
  278POPC   PO4 3639   4.418   8.462   3.853  0.0525  0.1654  0.0019
  278POPC   GL1 3640   4.400   8.285   4.280 -0.0884  0.1042 -0.2355
  278POPC   GL2 3641   4.593   8.045   4.305 -0.1256  0.0374 -0.3482
  278POPC   C1A 3642   4.296   8.215   4.696 -0.1129  0.3946 -0.2582
  278POPC   D2A 3643   4.404   8.111   5.150 -0.2932  0.1124  0.1937
  278POPC   C3A 3644   4.156   8.338   5.369 -0.0942 -0.2285  0.2497
  278POPC   C4A 3645   3.822   8.637   5.446  0.1425 -0.2421  0.1637
  278POPC   C1B 3646   5.013   7.870   4.730 -0.0460 -0.1747 -0.3665
  278POPC   C2B 3647   5.037   8.047   5.232  0.1810 -0.1908  0.0770
  278POPC   C3B 3648   4.708   8.069   5.595  0.0795  0.1219  0.1046
  278POPC   C4B 3649   4.308   8.105   5.799  0.1236  0.1707 -0.0753
  279POPC   NC3 3650  10.027   2.618   4.361 -0.1621  0.0738 -0.0665
  279POPC   PO4 3651  10.073   2.254   4.230 -0.1925 -0.1593 -0.1446
  279POPC   GL1 3652  10.043   1.923   4.472 -0.0179  0.2839 -0.0173
  279POPC   GL2 3653   9.888   2.012   4.760  0.3663  0.2249 -0.2160
  279POPC   C1A 3654  10.107   1.559   4.881  0.2708 -0.0451 -0.3634
  279POPC   D2A 3655   9.942   1.278   5.240 -0.1634  0.1135 -0.0498
  279POPC   C3A 3656  10.121   0.879   5.279 -0.4002 -0.1183  0.2033
  279POPC   C4A 3657   9.902   0.472   5.125 -0.0788  0.1364 -0.2505
  279POPC   C1B 3658   9.783   1.864   5.137 -0.1501 -0.0823 -0.0014
  279POPC   C2B 3659   9.804   1.666   5.565  0.1019 -0.1147  0.2441
  279POPC   C3B 3660   9.608   1.301   5.717 -0.1891 -0.0956 -0.2441
  279POPC   C4B 3661   9.411   0.991   5.888 -0.2636 -0.0801  0.1629
  280POPC   NC3 3662   4.761   0.053   3.854  0.2186 -0.0818  0.4003
  280POPC   PO4 3663   5.225   0.025   4.085 -0.0257  0.2793  0.4611
  280POPC   GL1 3664   5.134  -0.190   4.429 -0.5438  0.2193  0.2078
  280POPC   GL2 3665   5.488  -0.359   4.473  0.0664 -0.2144 -0.1030
  280POPC   C1A 3666   5.125  -0.330   4.868  0.2879  0.0977 -0.1005
  280POPC   D2A 3667   5.369  -0.265   5.130  0.1431 -0.1520  0.0431
  280POPC   C3A 3668   5.258  -0.060   5.648 -0.0700 -0.2691  0.1292
  280POPC   C4A 3669   5.131   0.306   5.885  0.2030  0.0406  0.1076
  280POPC   C1B 3670   5.680  -0.048   4.699 -0.1144  0.0094  0.2581
  280POPC   C2B 3671   5.858   0.016   5.155 -0.2229 -0.0226 -0.0220
  280POPC   C3B 3672   5.730  -0.144   5.554  0.4661  0.1637 -0.1338
  280POPC   C4B 3673   5.548  -0.384   5.965  0.3359  0.2780 -0.1943
  281POPC   NC3 3674   0.774   2.097   4.000 -0.2992  0.1609  0.3866
  281POPC   PO4 3675   0.555   2.494   4.168 -0.1236 -0.0426  0.0258
  281POPC   GL1 3676   0.393   2.436   4.605 -0.1208 -0.0353  0.2815
  281POPC   GL2 3677   0.190   2.219   4.657  0.1110  0.0276  0.0074
  281POPC   C1A 3678   0.096   2.673   4.854  0.2841 -0.2199  0.0919
  281POPC   D2A 3679   0.126   2.737   5.324 -0.2230  0.2983  0.1373
  281POPC   C3A 3680   0.057   2.720   5.761  0.2738  0.0673 -0.2149
  281POPC   C4A 3681   0.048   2.507   6.178  0.2768 -0.1343  0.1860
  281POPC   C1B 3682   0.042   2.243   5.071  0.1176 -0.4765 -0.0128
  281POPC   C2B 3683  -0.151   2.198   5.429  0.0385 -0.1532 -0.1968
  281POPC   C3B 3684  -0.165   2.152   5.906  0.4797 -0.2601  0.0697
  281POPC   C4B 3685  -0.160   1.911   6.198  0.2046  0.1337  0.1553
  282POPC   NC3 3686   8.338  10.313   3.627  0.3342 -0.1839  0.4172
  282POPC   PO4 3687   8.582  10.405   3.962 -0.0359  0.2163  0.1870
  282POPC   GL1 3688   8.674  10.482   4.298 -0.0340  0.2248 -0.0767
  282POPC   GL2 3689   8.438  10.844   4.329 -0.0367 -0.0692  0.0808
  282POPC   C1A 3690   8.761  10.388   4.781  0.1137 -0.0852 -0.0822
  282POPC   D2A 3691   8.610  10.242   5.194 -0.1856 -0.0294 -0.2024
  282POPC   C3A 3692   8.896  10.234   5.501  0.3436  0.0747 -0.0692
  282POPC   C4A 3693   9.176  10.011   5.704  0.3557  0.0156 -0.1203
  282POPC   C1B 3694   8.332  10.539   4.687  0.1113 -0.0755 -0.2016
  282POPC   C2B 3695   8.287  10.044   4.871  0.0761 -0.1016 -0.3462
  282POPC   C3B 3696   8.180   9.889   5.201  0.1471 -0.0206 -0.3517
  282POPC   C4B 3697   8.457   9.590   5.356 -0.3447 -0.0887  0.2891
  283POPC   NC3 3698   6.951   7.149   4.219  0.0725 -0.1115 -0.0098
  283POPC   PO4 3699   6.590   7.190   4.145  0.2099 -0.0823  0.0340
  283POPC   GL1 3700   6.612   7.001   4.605 -0.1268  0.1090 -0.1425
  283POPC   GL2 3701   6.503   7.213   4.745  0.3387  0.0067  0.0942
  283POPC   C1A 3702   7.036   7.240   4.906 -0.0504 -0.0599 -0.2515
  283POPC   D2A 3703   7.305   7.077   5.170 -0.1069 -0.1029 -0.1377
  283POPC   C3A 3704   7.457   7.119   5.580  0.1092  0.0209  0.4311
  283POPC   C4A 3705   7.572   6.777   5.903 -0.1653 -0.0498 -0.5172
  283POPC   C1B 3706   6.499   7.196   5.152  0.1409 -0.2332 -0.0924
  283POPC   C2B 3707   6.527   6.970   5.550 -0.0413  0.0747 -0.0838
  283POPC   C3B 3708   6.195   6.805   5.841 -0.1814 -0.2762 -0.1596
  283POPC   C4B 3709   6.169   6.609   6.210  0.0889 -0.3329  0.0126
  284POPC   NC3 3710   3.588   6.619   3.913 -0.2001 -0.2421  0.0671
  284POPC   PO4 3711   3.237   6.843   3.891  0.0141  0.1266  0.1577
  284POPC   GL1 3712   3.327   7.106   4.238 -0.0638  0.1808  0.0725
  284POPC   GL2 3713   3.175   7.492   4.363  0.4469  0.0596 -0.2124
  284POPC   C1A 3714   3.523   6.960   4.653 -0.1389 -0.1434 -0.2062
  284POPC   D2A 3715   3.786   7.138   5.051  0.1423  0.1050 -0.1862
  284POPC   C3A 3716   3.549   7.123   5.395  0.1888  0.1974 -0.2305
  284POPC   C4A 3717   3.394   7.203   5.838  0.1948 -0.0804  0.0479
  284POPC   C1B 3718   3.050   7.762   4.665  0.1244 -0.0175 -0.0994
  284POPC   C2B 3719   3.291   7.954   5.162 -0.0355  0.4058  0.1362
  284POPC   C3B 3720   3.226   8.227   5.578  0.1085  0.0708  0.1262
  284POPC   C4B 3721   3.212   8.624   5.751  0.2606 -0.1783 -0.3217
  285POPC   NC3 3722   5.770   3.452   3.753  0.0594 -0.4483  0.0283
  285POPC   PO4 3723   5.967   3.726   4.039 -0.1002  0.0814 -0.4384
  285POPC   GL1 3724   5.843   3.854   4.399 -0.1408  0.2231  0.1901
  285POPC   GL2 3725   5.560   3.855   4.404  0.4107  0.1852 -0.3920
  285POPC   C1A 3726   5.663   4.131   4.747 -0.0720 -0.0911 -0.1121
  285POPC   D2A 3727   5.540   4.472   5.086  0.2800  0.0625 -0.1000
  285POPC   C3A 3728   5.225   4.550   5.327  0.2681 -0.2250  0.2849
  285POPC   C4A 3729   4.893   4.863   5.383  0.2992 -0.1184  0.0492
  285POPC   C1B 3730   5.609   3.466   4.704 -0.4189  0.1594 -0.1198
  285POPC   C2B 3731   5.831   3.585   5.034  0.1464  0.2346 -0.0349
  285POPC   C3B 3732   5.748   3.714   5.443  0.0768 -0.1472  0.2592
  285POPC   C4B 3733   6.038   3.690   5.871  0.0502  0.1547 -0.0656
  286POPC   NC3 3734   4.467   1.687   3.635 -0.4944 -0.0541  0.3465
  286POPC   PO4 3735   4.500   1.291   3.360  0.2661 -0.0720  0.2954
  286POPC   GL1 3736   4.611   1.233   3.898  0.2421  0.0889 -0.1835
  286POPC   GL2 3737   4.904   1.315   4.096 -0.1735  0.4204 -0.1352
  286POPC   C1A 3738   4.493   0.979   4.222 -0.1632 -0.1839  0.2103
  286POPC   D2A 3739   4.688   0.733   4.664  0.4234 -0.2296 -0.2071
  286POPC   C3A 3740   4.742   0.903   5.063  0.1535  0.1982 -0.5687
  286POPC   C4A 3741   4.691   1.049   5.411 -0.0317  0.1772  0.3496
  286POPC   C1B 3742   4.932   1.220   4.547  0.1299  0.1700 -0.0407
  286POPC   C2B 3743   5.129   1.195   5.010 -0.0869  0.1406  0.0109
  286POPC   C3B 3744   5.067   1.387   5.414 -0.2171 -0.1378 -0.1732
  286POPC   C4B 3745   5.190   1.780   5.577  0.1645 -0.4042 -0.0602
  287POPC   NC3 3746   7.993   6.694   3.384  0.0429  0.0173  0.0183
  287POPC   PO4 3747   8.081   6.891   3.719 -0.4307 -0.2847  0.0070
  287POPC   GL1 3748   8.267   7.055   4.129  0.0302 -0.0404  0.2662
  287POPC   GL2 3749   7.994   7.137   4.390 -0.1943  0.0569  0.1960
  287POPC   C1A 3750   8.640   7.072   4.420 -0.0924 -0.0629 -0.0752
  287POPC   D2A 3751   8.697   7.403   4.756 -0.1132 -0.3715 -0.0252
  287POPC   C3A 3752   8.936   7.322   5.110  0.2042 -0.2264 -0.0450
  287POPC   C4A 3753   9.122   7.494   5.494 -0.0267 -0.3773 -0.1587
  287POPC   C1B 3754   8.248   7.221   4.694 -0.1025 -0.2777  0.0457
  287POPC   C2B 3755   8.366   7.391   5.086  0.1318  0.0935  0.1606
  287POPC   C3B 3756   8.589   7.514   5.534 -0.2001  0.0429  0.1451
  287POPC   C4B 3757   8.782   7.785   5.872 -0.3125  0.1576 -0.2747
  288POPC   NC3 3758   1.646   8.168   2.977  0.2810  0.1602 -0.1783
  288POPC   PO4 3759   1.747   8.094   3.415 -0.1800 -0.2222 -0.1871
  288POPC   GL1 3760   1.887   8.140   3.878  0.1787  0.1947  0.0144
  288POPC   GL2 3761   2.080   7.944   3.938  0.1849 -0.0770 -0.0647
  288POPC   C1A 3762   1.901   8.174   4.433  0.2746 -0.0609 -0.0854
  288POPC   D2A 3763   2.080   8.265   4.765  0.2903 -0.3342 -0.1335
  288POPC   C3A 3764   2.464   8.175   4.952  0.0654 -0.1068 -0.2209
  288POPC   C4A 3765   2.908   8.294   5.145 -0.2634 -0.3883  0.2248
  288POPC   C1B 3766   1.792   7.642   4.071 -0.1480  0.2837 -0.0180
  288POPC   C2B 3767   1.801   7.302   4.321 -0.1103 -0.0647 -0.0212
  288POPC   C3B 3768   1.817   7.105   4.742 -0.3439  0.1036  0.0057
  288POPC   C4B 3769   1.983   6.927   5.176 -0.1710  0.2356 -0.0092
  289POPC   NC3 3770   6.862   2.227   3.801  0.1114 -0.1422 -0.1840
  289POPC   PO4 3771   6.937   2.072   4.243 -0.0439  0.1370  0.1645
  289POPC   GL1 3772   6.678   2.230   4.568  0.0893 -0.2878  0.1435
  289POPC   GL2 3773   6.640   2.540   4.562  0.1493  0.2440  0.0093
  289POPC   C1A 3774   6.688   2.371   5.021  0.4078 -0.3004  0.2220
  289POPC   D2A 3775   6.657   2.508   5.400  0.2102  0.0482  0.1748
  289POPC   C3A 3776   6.992   2.421   5.587  0.0239  0.0665 -0.1332
  289POPC   C4A 3777   7.299   2.587   5.913  0.0419 -0.0486 -0.1563
  289POPC   C1B 3778   6.465   2.778   5.000  0.2446 -0.1804 -0.0642
  289POPC   C2B 3779   6.219   2.757   5.407 -0.1450  0.0588  0.0349
  289POPC   C3B 3780   6.223   2.505   5.777 -0.0024 -0.0822  0.0701
  289POPC   C4B 3781   6.582   2.370   5.886  0.3157  0.2194 -0.1434
  290POPC   NC3 3782   7.965   6.236   3.694  0.0670 -0.0435 -0.0127
  290POPC   PO4 3783   8.237   6.442   3.966 -0.3315 -0.0738 -0.5530
  290POPC   GL1 3784   8.214   6.570   4.400  0.2145 -0.0255  0.0402
  290POPC   GL2 3785   8.522   6.563   4.486 -0.0681 -0.0199  0.1010
  290POPC   C1A 3786   8.100   6.710   4.801  0.1365  0.5299 -0.2356
  290POPC   D2A 3787   8.103   6.969   5.108  0.0027  0.3391 -0.3266
  290POPC   C3A 3788   8.414   7.055   5.445  0.3105  0.1360  0.2448
  290POPC   C4A 3789   8.537   6.831   5.762  0.1750 -0.1266 -0.0117
  290POPC   C1B 3790   8.575   6.801   4.853 -0.0511  0.0250 -0.1364
  290POPC   C2B 3791   8.826   6.828   5.149  0.3078 -0.1678  0.2134
  290POPC   C3B 3792   8.935   6.927   5.431  0.3103 -0.1000 -0.2070
  290POPC   C4B 3793   9.394   6.974   5.573  0.1035 -0.0171  0.0614
  291POPC   NC3 3794   7.108   9.310   3.895  0.1984 -0.1186 -0.2578
  291POPC   PO4 3795   6.674   9.490   3.891 -0.0342  0.0068 -0.2218
  291POPC   GL1 3796   6.887   9.684   4.248  0.0190  0.1731 -0.3057
  291POPC   GL2 3797   6.745   9.516   4.467  0.1103 -0.1144  0.2619
  291POPC   C1A 3798   7.051   9.706   4.723  0.2359 -0.1399  0.1788
  291POPC   D2A 3799   6.970   9.896   5.109  0.0059  0.3166  0.4585
  291POPC   C3A 3800   7.387   9.880   5.398  0.4239 -0.1568 -0.1512
  291POPC   C4A 3801   7.776   9.713   5.387  0.2346 -0.3225  0.1010
  291POPC   C1B 3802   6.594   9.547   4.886 -0.0015 -0.2556 -0.1618
  291POPC   C2B 3803   6.536   9.547   5.297 -0.1401 -0.0015  0.0454
  291POPC   C3B 3804   6.126   9.371   5.619  0.0893 -0.0661 -0.0651
  291POPC   C4B 3805   5.758   9.172   5.607  0.1542 -0.5295 -0.0306
  292POPC   NC3 3806   8.882   4.355   3.909 -0.2498  0.1006 -0.3495
  292POPC   PO4 3807   9.019   3.991   4.158 -0.1921  0.0962  0.0149
  292POPC   GL1 3808   8.927   3.997   4.603 -0.1413  0.0656  0.0692
  292POPC   GL2 3809   8.720   4.152   4.592  0.2842  0.0474  0.1161
  292POPC   C1A 3810   8.993   3.973   5.106 -0.0046  0.0063  0.2187
  292POPC   D2A 3811   9.238   4.062   5.490 -0.1663  0.1916 -0.0640
  292POPC   C3A 3812   9.445   4.516   5.527  0.0180 -0.1409 -0.0877
  292POPC   C4A 3813   9.517   4.994   5.593  0.1233 -0.0884  0.2084
  292POPC   C1B 3814   8.613   3.719   4.954  0.2641 -0.2374  0.0188
  292POPC   C2B 3815   8.567   3.517   5.320  0.2320 -0.0807  0.2737
  292POPC   C3B 3816   8.596   3.140   5.606 -0.0241  0.0821  0.2531
  292POPC   C4B 3817   8.900   3.022   5.791  0.2820  0.1072 -0.0738
  293POPC   NC3 3818   9.190   5.451   3.895 -0.0115 -0.3813  0.0550
  293POPC   PO4 3819   9.038   5.208   4.317 -0.0925 -0.0215  0.2279
  293POPC   GL1 3820   8.999   5.181   4.722  0.0402 -0.4723 -0.0909
  293POPC   GL2 3821   9.143   5.494   4.792 -0.1277 -0.0045 -0.1295
  293POPC   C1A 3822   8.858   5.128   5.116 -0.0094  0.0318  0.1284
  293POPC   D2A 3823   8.518   5.042   5.430 -0.3363  0.1425  0.4789
  293POPC   C3A 3824   8.600   4.776   5.754 -0.3632  0.3147 -0.1109
  293POPC   C4A 3825   8.099   4.709   5.869  0.0454 -0.3058  0.0005
  293POPC   C1B 3826   9.274   5.387   5.169 -0.1757 -0.1211 -0.0793
  293POPC   C2B 3827   9.441   5.515   5.410 -0.1396  0.0787 -0.0752
  293POPC   C3B 3828   9.707   5.591   5.762 -0.1374 -0.0537  0.0494
  293POPC   C4B 3829   9.889   5.593   6.112 -0.1600 -0.1454  0.1867
  294POPC   NC3 3830   1.277   1.602   3.946  0.2526 -0.1023 -0.2833
  294POPC   PO4 3831   0.868   1.634   3.764 -0.1811 -0.0841  0.1904
  294POPC   GL1 3832   0.781   1.465   4.184  0.2740 -0.2284 -0.1551
  294POPC   GL2 3833   0.903   1.766   4.357 -0.0421  0.0880 -0.0482
  294POPC   C1A 3834   0.597   1.597   4.674 -0.1497  0.0184 -0.2248
  294POPC   D2A 3835   0.661   1.631   5.102  0.0684  0.1557 -0.2817
  294POPC   C3A 3836   0.448   1.376   5.361 -0.0168  0.0136 -0.1410
  294POPC   C4A 3837   0.273   1.177   5.728 -0.1929 -0.0301 -0.0145
  294POPC   C1B 3838   1.042   1.894   4.773 -0.1000  0.1246 -0.3055
  294POPC   C2B 3839   1.134   1.694   5.186  0.0573 -0.1387 -0.0745
  294POPC   C3B 3840   1.196   1.494   5.528 -0.1845  0.1725 -0.1430
  294POPC   C4B 3841   1.413   1.141   5.706  0.0881 -0.0487  0.3484
  295POPC   NC3 3842   4.057   6.871   3.852 -0.0965  0.1723 -0.1859
  295POPC   PO4 3843   4.486   6.772   3.677  0.1137 -0.0718 -0.2222
  295POPC   GL1 3844   4.547   6.619   4.093 -0.1464 -0.1044 -0.0122
  295POPC   GL2 3845   4.349   6.790   4.314 -0.2276 -0.0287  0.0204
  295POPC   C1A 3846   4.608   6.193   4.255  0.1736 -0.0037  0.0556
  295POPC   D2A 3847   4.653   6.018   4.615  0.0118 -0.1847 -0.0871
  295POPC   C3A 3848   4.522   6.176   5.055 -0.1063 -0.3355  0.0843
  295POPC   C4A 3849   4.339   6.231   5.314 -0.0705  0.2913  0.1255
  295POPC   C1B 3850   4.602   6.707   4.808 -0.1455 -0.0976  0.3579
  295POPC   C2B 3851   4.743   6.660   5.167 -0.2407 -0.3071  0.2995
  295POPC   C3B 3852   4.841   6.280   5.450  0.0392  0.0981 -0.0286
  295POPC   C4B 3853   5.082   6.268   5.819  0.0359  0.0670  0.1354
  296POPC   NC3 3854   7.132   0.418   3.756 -0.1073  0.0499 -0.2304
  296POPC   PO4 3855   7.319   0.494   4.218 -0.2762  0.1827 -0.1019
  296POPC   GL1 3856   7.468   0.247   4.530 -0.0541  0.1784  0.2698
  296POPC   GL2 3857   7.340   0.466   4.753  0.0851 -0.3867 -0.3042
  296POPC   C1A 3858   7.416   0.078   5.072  0.1045 -0.1759  0.2155
  296POPC   D2A 3859   7.628  -0.186   5.372 -0.1367  0.2422  0.0542
  296POPC   C3A 3860   7.898  -0.489   5.536  0.1007  0.0770  0.3141
  296POPC   C4A 3861   8.332  -0.462   5.606  0.0015  0.2280  0.1281
  296POPC   C1B 3862   7.807   0.394   4.923  0.3673 -0.1119  0.0229
  296POPC   C2B 3863   8.203   0.321   5.265 -0.0723  0.0798 -0.0458
  296POPC   C3B 3864   8.316   0.477   5.693  0.1020 -0.1581  0.0524
  296POPC   C4B 3865   8.377   0.781   5.889  0.0338  0.3728  0.4968
  297POPC   NC3 3866   6.281   6.816   4.211  0.0992  0.1069 -0.1833
  297POPC   PO4 3867   6.652   6.668   4.256 -0.1103 -0.3580 -0.2331
  297POPC   GL1 3868   6.914   6.476   4.547  0.2323 -0.0508  0.1100
  297POPC   GL2 3869   7.029   6.696   4.773 -0.1691 -0.0890  0.0573
  297POPC   C1A 3870   6.786   6.226   4.921  0.0231  0.0721  0.2133
  297POPC   D2A 3871   6.795   6.234   5.344 -0.2208 -0.2519  0.1236
  297POPC   C3A 3872   6.613   6.489   5.601 -0.0858  0.1290 -0.0126
  297POPC   C4A 3873   6.710   6.476   6.003 -0.0564  0.0684 -0.1114
  297POPC   C1B 3874   7.197   6.441   5.154 -0.1687  0.0017  0.0818
  297POPC   C2B 3875   7.238   6.465   5.621  0.2448  0.0104 -0.0929
  297POPC   C3B 3876   7.219   6.308   6.000  0.2256 -0.2963  0.0632
  297POPC   C4B 3877   7.166   5.934   5.819  0.0136  0.0350  0.0604
  298POPC   NC3 3878   8.857   7.032   3.394 -0.1269  0.0564  0.2331
  298POPC   PO4 3879   9.078   6.846   3.772 -0.1464 -0.2453  0.4656
  298POPC   GL1 3880   9.087   6.927   4.231  0.1580 -0.0200 -0.0684
  298POPC   GL2 3881   9.085   6.658   4.512  0.0348 -0.0237 -0.0475
  298POPC   C1A 3882   9.090   7.045   4.730 -0.0290 -0.0182  0.1057
  298POPC   D2A 3883   9.297   7.031   5.053  0.2262  0.0613 -0.2684
  298POPC   C3A 3884   9.469   7.421   5.128 -0.1019 -0.0080 -0.0312
  298POPC   C4A 3885   9.524   7.787   5.488 -0.3706  0.2770  0.0330
  298POPC   C1B 3886   9.229   6.461   4.898 -0.2843 -0.2383 -0.0818
  298POPC   C2B 3887   9.511   6.610   5.259  0.0754 -0.2943 -0.1210
  298POPC   C3B 3888   9.637   6.563   5.679  0.1143  0.3839  0.0387
  298POPC   C4B 3889   9.826   6.811   6.006 -0.2616 -0.1495  0.0120
  299POPC   NC3 3890   1.443   6.316   4.207  0.0565  0.1821  0.3871
  299POPC   PO4 3891   1.054   6.135   4.265  0.0971  0.3720  0.1570
  299POPC   GL1 3892   0.815   6.272   4.555  0.3823  0.3293 -0.0412
  299POPC   GL2 3893   0.389   6.296   4.388 -0.2980 -0.1519  0.0816
  299POPC   C1A 3894   0.663   6.377   4.918 -0.0397  0.1915 -0.0349
  299POPC   D2A 3895   0.781   6.280   5.347 -0.1237  0.0931  0.2215
  299POPC   C3A 3896   0.573   6.617   5.538 -0.2519  0.0515  0.0554
  299POPC   C4A 3897   0.387   6.738   5.880 -0.1959  0.0462 -0.0599
  299POPC   C1B 3898  -0.009   6.423   4.678 -0.3743  0.0055  0.1017
  299POPC   C2B 3899   0.093   6.303   5.170  0.0457 -0.2786  0.0782
  299POPC   C3B 3900   0.225   6.272   5.598  0.0797 -0.0599 -0.1294
  299POPC   C4B 3901   0.565   5.997   5.708 -0.1248 -0.1510  0.0427
  300POPC   NC3 3902  10.617   2.433   4.284  0.0524 -0.0954  0.0627
  300POPC   PO4 3903  10.479   2.839   4.202 -0.3032  0.0393  0.3293
  300POPC   GL1 3904  10.581   3.074   4.605  0.0874  0.0776  0.0197
  300POPC   GL2 3905  10.881   3.327   4.575 -0.2716 -0.4220  0.0918
  300POPC   C1A 3906  10.565   3.187   5.021  0.1596  0.0676  0.2051
  300POPC   D2A 3907  10.645   3.259   5.359  0.1156 -0.2016  0.0541
  300POPC   C3A 3908  10.379   3.126   5.696  0.0326  0.0233  0.0851
  300POPC   C4A 3909  10.419   2.917   6.137 -0.2998  0.0299 -0.3443
  300POPC   C1B 3910  10.800   3.613   4.857  0.0013 -0.3629 -0.2229
  300POPC   C2B 3911  10.696   3.760   5.278 -0.2215 -0.2142  0.0563
  300POPC   C3B 3912  10.774   3.815   5.691 -0.1746  0.1331  0.0513
  300POPC   C4B 3913  10.864   3.750   6.118 -0.0927  0.2444  0.0153
  301POPC   NC3 3914   6.526   7.641   3.946  0.1697 -0.1242  0.2215
  301POPC   PO4 3915   6.640   7.982   4.014  0.0285 -0.0574  0.0760
  301POPC   GL1 3916   6.889   7.897   4.375  0.0617 -0.1985 -0.0737
  301POPC   GL2 3917   6.783   7.591   4.472 -0.0570  0.0010  0.0654
  301POPC   C1A 3918   7.194   8.023   4.639 -0.2852 -0.0315 -0.1685
  301POPC   D2A 3919   7.221   7.998   5.125  0.0214 -0.0642 -0.1581
  301POPC   C3A 3920   6.967   7.864   5.433  0.0656  0.0942 -0.1243
  301POPC   C4A 3921   6.898   7.374   5.376  0.2194  0.0488 -0.1436
  301POPC   C1B 3922   6.891   7.728   4.879  0.0443 -0.0955  0.0672
  301POPC   C2B 3923   6.773   8.143   5.048  0.1495  0.0555 -0.0918
  301POPC   C3B 3924   6.998   8.360   5.495  0.0480  0.1116 -0.2477
  301POPC   C4B 3925   7.233   8.110   5.768 -0.3462  0.1999  0.1912
  302POPC   NC3 3926   3.777   4.656   3.814 -0.2926 -0.4325 -0.1142
  302POPC   PO4 3927   3.498   4.954   3.813 -0.0556  0.0677  0.1350
  302POPC   GL1 3928   3.216   4.997   4.211 -0.3121 -0.3512  0.0335
  302POPC   GL2 3929   2.911   5.182   4.225 -0.3741 -0.1293 -0.1093
  302POPC   C1A 3930   3.049   4.880   4.553  0.2631  0.2628  0.0947
  302POPC   D2A 3931   2.928   4.584   4.814 -0.0844  0.0942  0.1752
  302POPC   C3A 3932   2.598   4.701   5.143 -0.2811  0.1466  0.1977
  302POPC   C4A 3933   2.413   5.016   5.266  0.0223 -0.3110  0.0169
  302POPC   C1B 3934   3.199   5.440   4.493 -0.1571 -0.1220 -0.1883
  302POPC   C2B 3935   3.324   5.456   4.881 -0.1064  0.2317 -0.1920
  302POPC   C3B 3936   3.437   5.426   5.283 -0.0543 -0.1329  0.0722
  302POPC   C4B 3937   3.427   5.192   5.598  0.1439  0.1048 -0.0652
  303POPC   NC3 3938   2.246   8.035   3.464  0.1481 -0.2159  0.1094
  303POPC   PO4 3939   2.696   7.941   3.454 -0.0617 -0.0249  0.2075
  303POPC   GL1 3940   2.590   7.992   3.868 -0.2039 -0.1581  0.1217
  303POPC   GL2 3941   2.781   8.232   4.009 -0.0255  0.1064 -0.2150
  303POPC   C1A 3942   2.365   8.171   4.290  0.1712 -0.1368 -0.0540
  303POPC   D2A 3943   2.384   8.628   4.547  0.1482 -0.0106 -0.2514
  303POPC   C3A 3944   2.298   8.650   5.021 -0.1087 -0.3075  0.3235
  303POPC   C4A 3945   1.974   8.544   5.302  0.0139  0.0929  0.0119
  303POPC   C1B 3946   2.823   8.259   4.547  0.0733  0.1239  0.0362
  303POPC   C2B 3947   3.036   8.666   4.750 -0.0734 -0.3162  0.2251
  303POPC   C3B 3948   3.253   8.908   5.088 -0.2011 -0.1395 -0.2046
  303POPC   C4B 3949   3.293   9.114   5.408  0.1524  0.1515 -0.1865
  304POPC   NC3 3950   7.415   3.789   3.867  0.2963  0.2021  0.1014
  304POPC   PO4 3951   7.537   3.571   4.226 -0.1039 -0.0167 -0.1415
  304POPC   GL1 3952   7.872   4.031   4.320  0.2179 -0.1766 -0.1632
  304POPC   GL2 3953   8.094   3.829   4.408  0.4862 -0.4798 -0.0175
  304POPC   C1A 3954   7.718   4.415   4.609  0.0981 -0.1480  0.1422
  304POPC   D2A 3955   7.491   4.689   4.546  0.1536  0.0369  0.1220
  304POPC   C3A 3956   7.654   5.021   4.627 -0.1280  0.1213  0.1067
  304POPC   C4A 3957   7.912   5.311   4.795 -0.0562 -0.0445  0.1946
  304POPC   C1B 3958   8.240   4.206   4.691 -0.3110  0.0193  0.1222
  304POPC   C2B 3959   7.985   4.218   5.033  0.2731  0.2117 -0.2136
  304POPC   C3B 3960   7.668   4.451   5.229  0.0497  0.1608 -0.1777
  304POPC   C4B 3961   7.723   4.817   5.567  0.1627 -0.3205  0.3303
  305POPC   NC3 3962   7.626   5.810   4.348 -0.1574 -0.0943  0.1082
  305POPC   PO4 3963   7.713   6.235   4.134  0.0885  0.0690 -0.0799
  305POPC   GL1 3964   7.734   6.280   4.497  0.1397  0.0952  0.3340
  305POPC   GL2 3965   8.035   6.039   4.609  0.0499 -0.0173 -0.0153
  305POPC   C1A 3966   7.727   6.251   5.009 -0.1567  0.0775  0.1400
  305POPC   D2A 3967   7.566   6.120   5.363 -0.0367  0.0142  0.1562
  305POPC   C3A 3968   7.712   6.328   5.769 -0.2200 -0.0698 -0.2208
  305POPC   C4A 3969   7.772   6.382   6.079 -0.1990 -0.4569  0.0414
  305POPC   C1B 3970   8.191   5.613   5.016 -0.5993  0.3107  0.0212
  305POPC   C2B 3971   8.273   5.517   5.491  0.0581 -0.7236 -0.1618
  305POPC   C3B 3972   8.104   5.260   5.794  0.0342 -0.2211  0.0691
  305POPC   C4B 3973   7.711   5.266   6.045  0.0044  0.0807 -0.1644
  306POPC   NC3 3974   1.588   2.372   4.148  0.1663  0.1267  0.2168
  306POPC   PO4 3975   1.229   2.076   4.120 -0.2797 -0.0630  0.0288
  306POPC   GL1 3976   1.390   1.889   4.464 -0.0056  0.2546  0.2756
  306POPC   GL2 3977   1.520   1.567   4.349 -0.0447 -0.3129  0.0701
  306POPC   C1A 3978   1.706   1.900   4.738 -0.0544  0.0036 -0.0188
  306POPC   D2A 3979   1.763   1.866   5.075  0.0591  0.0906 -0.2577
  306POPC   C3A 3980   2.083   2.145   5.294 -0.0157 -0.3884  0.1517
  306POPC   C4A 3981   2.554   2.126   5.175 -0.2907  0.1193  0.4222
  306POPC   C1B 3982   1.466   1.475   4.871  0.2627 -0.2234 -0.0644
  306POPC   C2B 3983   1.547   1.157   5.152 -0.0351  0.0208 -0.1227
  306POPC   C3B 3984   1.693   0.719   5.234 -0.0339 -0.0790  0.0433
  306POPC   C4B 3985   1.527   0.438   4.903 -0.2679 -0.2361  0.0266
  307POPC   NC3 3986   1.069   3.094   4.230  0.3598  0.1704 -0.2643
  307POPC   PO4 3987   1.471   2.860   4.096 -0.1700 -0.2067 -0.0702
  307POPC   GL1 3988   1.436   2.695   4.589 -0.1864 -0.0072 -0.0993
  307POPC   GL2 3989   1.560   2.390   4.633  0.2916 -0.3488 -0.1813
  307POPC   C1A 3990   1.416   2.780   5.071  0.1159 -0.2787 -0.1506
  307POPC   D2A 3991   1.371   3.222   5.301 -0.0455 -0.2930 -0.0771
  307POPC   C3A 3992   0.895   3.462   5.256 -0.2910  0.2851  0.2150
  307POPC   C4A 3993   0.540   3.631   5.150 -0.0670 -0.0866  0.1682
  307POPC   C1B 3994   1.340   2.231   5.026 -0.2683 -0.0606  0.2218
  307POPC   C2B 3995   1.049   2.417   5.201  0.1694 -0.1835  0.0564
  307POPC   C3B 3996   0.899   2.234   5.552  0.0445  0.2913 -0.0612
  307POPC   C4B 3997   0.776   2.153   5.939  0.1112 -0.1010  0.1601
  308POPC   NC3 3998   2.697   7.030   3.130 -0.4186  0.2386 -0.0175
  308POPC   PO4 3999   2.342   7.023   3.442  0.0959 -0.0265  0.1057
  308POPC   GL1 4000   2.224   7.143   3.920  0.0650  0.2913 -0.0431
  308POPC   GL2 4001   2.295   7.476   4.012  0.1985 -0.0833  0.1210
  308POPC   C1A 4002   2.295   7.207   4.392 -0.1177 -0.0892 -0.4149
  308POPC   D2A 4003   2.338   7.284   4.906 -0.0984 -0.5520 -0.4426
  308POPC   C3A 4004   2.272   7.701   5.100  0.1844 -0.0139  0.1833
  308POPC   C4A 4005   2.170   8.074   5.332 -0.2145  0.2728 -0.3616
  308POPC   C1B 4006   2.138   7.674   4.408  0.4638  0.3271 -0.1608
  308POPC   C2B 4007   1.899   7.616   4.817 -0.2873 -0.1161 -0.0139
  308POPC   C3B 4008   1.619   7.487   5.124 -0.1161  0.1909  0.1758
  308POPC   C4B 4009   1.436   7.208   5.463  0.1609 -0.2883  0.2170
  309POPC   NC3 4010  10.513   1.126   3.343 -0.0627  0.2250  0.1772
  309POPC   PO4 4011  10.513   0.773   3.074 -0.0130  0.1777  0.1250
  309POPC   GL1 4012  10.515   0.651   3.519 -0.1244 -0.2772 -0.0289
  309POPC   GL2 4013  10.195   0.457   3.717 -0.1343  0.2376 -0.1423
  309POPC   C1A 4014  10.649   0.441   3.849  0.1020 -0.0913  0.3985
  309POPC   D2A 4015  10.984   0.311   4.076  0.0071 -0.3312  0.3162
  309POPC   C3A 4016  11.131   0.620   4.322  0.1032  0.1014 -0.0541
  309POPC   C4A 4017  11.480   0.897   4.454  0.1746  0.0756 -0.0049
  309POPC   C1B 4018  10.390   0.111   3.507  0.0241  0.0048  0.0136
  309POPC   C2B 4019  10.334  -0.341   3.633 -0.1894 -0.3762 -0.4163
  309POPC   C3B 4020  10.065  -0.593   3.845 -0.1579  0.4332 -0.1018
  309POPC   C4B 4021   9.781  -0.889   3.883 -0.0785 -0.0021 -0.0498
  310POPC   NC3 4022   3.678  10.191   3.774  0.1318  0.0350  0.0715
  310POPC   PO4 4023   3.316  10.191   3.792  0.3384  0.1493  0.1721
  310POPC   GL1 4024   3.298  10.280   4.147  0.2401 -0.1089  0.0707
  310POPC   GL2 4025   3.536  10.464   4.209  0.0571 -0.1562 -0.0012
  310POPC   C1A 4026   3.249  10.431   4.666 -0.4728  0.1867  0.2229
  310POPC   D2A 4027   3.354  10.130   5.059  0.1575 -0.1529 -0.1169
  310POPC   C3A 4028   2.964   9.954   5.250 -0.1299 -0.3642  0.1763
  310POPC   C4A 4029   2.929   9.653   5.540 -0.0204 -0.1494 -0.0380
  310POPC   C1B 4030   3.739  10.656   4.520  0.0320 -0.1391 -0.1449
  310POPC   C2B 4031   3.693  11.164   4.560  0.1114 -0.1613 -0.0065
  310POPC   C3B 4032   3.852  11.546   4.776  0.0423 -0.1393 -0.0116
  310POPC   C4B 4033   3.744  11.876   4.905 -0.0415 -0.2271  0.0508
  311POPC   NC3 4034   6.393   4.751   3.361  0.1076  0.0312  0.2197
  311POPC   PO4 4035   6.264   4.735   3.807 -0.0555 -0.2939 -0.1150
  311POPC   GL1 4036   6.239   4.700   4.220 -0.1668 -0.0150 -0.0527
  311POPC   GL2 4037   5.969   4.502   4.416 -0.3123 -0.3337 -0.0867
  311POPC   C1A 4038   6.098   4.912   4.651  0.2222 -0.1842  0.2705
  311POPC   D2A 4039   6.050   4.858   5.139 -0.2002 -0.3328  0.1235
  311POPC   C3A 4040   5.735   4.775   5.477  0.2097 -0.1243 -0.0674
  311POPC   C4A 4041   5.686   4.685   5.829 -0.0071 -0.1720  0.1371
  311POPC   C1B 4042   5.991   4.477   4.845 -0.0575  0.3212 -0.0997
  311POPC   C2B 4043   5.999   4.326   5.254  0.0795  0.1037 -0.1197
  311POPC   C3B 4044   5.828   4.199   5.646 -0.1595 -0.5729 -0.3888
  311POPC   C4B 4045   5.745   4.085   6.051 -0.0201  0.0376 -0.0751
  312POPC   NC3 4046   4.911   6.665   3.477 -0.3595 -0.4641 -0.2262
  312POPC   PO4 4047   5.175   6.309   3.626 -0.0456  0.2264  0.2197
  312POPC   GL1 4048   5.376   6.232   3.995  0.0967 -0.0047  0.2080
  312POPC   GL2 4049   5.483   5.936   4.085  0.0598 -0.0894 -0.2072
  312POPC   C1A 4050   5.406   6.337   4.348  0.1294  0.0065  0.3208
  312POPC   D2A 4051   5.456   6.139   4.779  0.0919  0.4583 -0.2140
  312POPC   C3A 4052   5.705   6.036   5.049 -0.1335  0.2157  0.0746
  312POPC   C4A 4053   5.861   6.039   5.480  0.1667  0.3481 -0.0442
  312POPC   C1B 4054   5.108   5.944   4.406  0.2218 -0.1507 -0.1830
  312POPC   C2B 4055   5.065   5.847   4.900  0.1485 -0.0229  0.0568
  312POPC   C3B 4056   4.951   5.814   5.340  0.0069  0.0725 -0.0601
  312POPC   C4B 4057   4.959   5.804   5.743 -0.0697 -0.1633 -0.1353
  313POPC   NC3 4058   5.148   9.967   3.578 -0.0226 -0.0216  0.0616
  313POPC   PO4 4059   4.774   9.810   3.823 -0.1650  0.0466  0.2334
  313POPC   GL1 4060   4.764   9.706   4.249  0.1819 -0.0182 -0.0559
  313POPC   GL2 4061   4.424   9.621   4.436 -0.0783  0.0235 -0.1743
  313POPC   C1A 4062   4.698   9.911   4.675  0.2292  0.0378 -0.0102
  313POPC   D2A 4063   4.586   9.739   5.000 -0.0519 -0.5169 -0.2726
  313POPC   C3A 4064   4.246   9.606   5.205  0.3288  0.1085 -0.0379
  313POPC   C4A 4065   4.095   9.511   5.658  0.0837 -0.2223 -0.0704
  313POPC   C1B 4066   4.075   9.692   4.739  0.1547  0.1791 -0.1681
  313POPC   C2B 4067   3.840   9.821   5.053  0.1696  0.1173  0.0467
  313POPC   C3B 4068   3.724  10.030   5.350  0.1422  0.0393  0.1027
  313POPC   C4B 4069   3.554  10.396   5.535  0.0425  0.0795  0.2561
  314POPC   NC3 4070   3.844   1.152   3.245 -0.0244 -0.1365  0.4426
  314POPC   PO4 4071   3.797   0.982   3.567  0.1489 -0.2352 -0.0314
  314POPC   GL1 4072   3.540   0.996   3.910 -0.0672 -0.2682  0.2154
  314POPC   GL2 4073   3.261   0.930   3.785 -0.2181 -0.1590  0.1621
  314POPC   C1A 4074   3.582   1.037   4.379  0.3394 -0.1152  0.0702
  314POPC   D2A 4075   3.491   1.396   4.535  0.1302 -0.1709  0.0602
  314POPC   C3A 4076   3.942   1.652   4.615 -0.1246  0.2351 -0.0179
  314POPC   C4A 4077   4.247   1.774   4.938 -0.1024 -0.1126 -0.2212
  314POPC   C1B 4078   3.033   1.062   4.282  0.0582  0.2758  0.0682
  314POPC   C2B 4079   2.822   1.076   4.620 -0.0294 -0.2741 -0.0739
  314POPC   C3B 4080   2.578   1.168   4.925  0.2319 -0.1532  0.0097
  314POPC   C4B 4081   2.109   1.185   5.140 -0.1487  0.1320 -0.0732
  315POPC   NC3 4082   3.105   2.454   3.997  0.1099 -0.1525 -0.1509
  315POPC   PO4 4083   2.921   2.223   3.753 -0.1373  0.0698  0.0982
  315POPC   GL1 4084   2.866   1.976   4.091  0.0688 -0.2039  0.0424
  315POPC   GL2 4085   3.047   2.129   4.419  0.3577  0.0140 -0.1953
  315POPC   C1A 4086   2.514   1.823   4.342  0.1399 -0.0634  0.6457
  315POPC   D2A 4087   2.254   1.867   4.637  0.3748 -0.0790  0.2802
  315POPC   C3A 4088   2.358   1.668   5.048  0.0844  0.0841  0.1024
  315POPC   C4A 4089   2.516   1.747   5.528  0.0513  0.0061  0.4100
  315POPC   C1B 4090   3.255   2.278   4.763 -0.2926  0.1227  0.2060
  315POPC   C2B 4091   3.003   2.394   5.213  0.1214  0.1775 -0.1340
  315POPC   C3B 4092   2.928   2.148   5.598  0.1883 -0.0160 -0.0304
  315POPC   C4B 4093   3.093   2.060   5.994  0.0020  0.2407 -0.1013
  316POPC   NC3 4094   0.866   5.717   3.865  0.1150 -0.2889 -0.0412
  316POPC   PO4 4095   1.170   5.411   3.950 -0.0766  0.2035 -0.2058
  316POPC   GL1 4096   1.367   5.188   4.227 -0.0232  0.1184  0.0641
  316POPC   GL2 4097   1.216   5.258   4.535 -0.0246 -0.1651  0.1508
  316POPC   C1A 4098   1.406   4.799   4.514 -0.2774 -0.1720  0.0551
  316POPC   D2A 4099   1.547   4.663   4.820  0.0652  0.3091 -0.0842
  316POPC   C3A 4100   1.358   4.992   5.109  0.2755 -0.1343 -0.1031
  316POPC   C4A 4101   0.992   5.185   5.328 -0.0193 -0.2522  0.3184
  316POPC   C1B 4102   0.869   5.393   4.883  0.1168  0.1333  0.3824
  316POPC   C2B 4103   0.541   5.399   5.125 -0.0251 -0.0932  0.0787
  316POPC   C3B 4104   0.338   5.074   5.435  0.1345  0.3028  0.0756
  316POPC   C4B 4105   0.029   5.180   5.709 -0.1202 -0.1615 -0.4711
  317POPC   NC3 4106   5.496   8.465   3.729  0.2259 -0.0015  0.1295
  317POPC   PO4 4107   5.316   8.640   3.944  0.1750 -0.0738 -0.2201
  317POPC   GL1 4108   5.586   8.459   4.240  0.3467  0.0786 -0.0385
  317POPC   GL2 4109   5.711   8.102   4.251 -0.2936  0.0488 -0.1465
  317POPC   C1A 4110   5.669   8.429   4.631 -0.0059 -0.0296 -0.3356
  317POPC   D2A 4111   5.746   8.352   5.087 -0.1250 -0.2434  0.1153
  317POPC   C3A 4112   5.692   8.465   5.553  0.0203  0.0009 -0.1231
  317POPC   C4A 4113   5.440   8.621   5.896 -0.1316  0.2033  0.0614
  317POPC   C1B 4114   5.539   7.854   4.580  0.0598 -0.0205 -0.1376
  317POPC   C2B 4115   5.363   8.155   4.920  0.0546 -0.0369 -0.0533
  317POPC   C3B 4116   5.317   8.516   5.205  0.0301 -0.0458 -0.1024
  317POPC   C4B 4117   5.387   8.830   5.442  0.1761 -0.1653  0.0381
  318POPC   NC3 4118   6.518   6.050   3.410 -0.2541  0.2843 -0.0883
  318POPC   PO4 4119   6.338   5.879   3.889  0.3112 -0.3165 -0.0078
  318POPC   GL1 4120   6.182   5.658   4.322  0.3795  0.1961  0.4001
  318POPC   GL2 4121   6.501   5.622   4.481 -0.3867  0.3006 -0.0407
  318POPC   C1A 4122   6.042   5.414   4.604  0.0193  0.0733  0.0039
  318POPC   D2A 4123   5.876   5.595   4.984 -0.0312 -0.1605  0.0411
  318POPC   C3A 4124   6.196   5.605   5.379 -0.1175 -0.2208  0.2188
  318POPC   C4A 4125   6.513   5.408   5.724  0.3051 -0.0966  0.0290
  318POPC   C1B 4126   6.279   5.857   4.824 -0.0339  0.0997 -0.0300
  318POPC   C2B 4127   6.272   6.113   5.134  0.0665 -0.3661 -0.1708
  318POPC   C3B 4128   6.188   6.449   5.382 -0.1058  0.2019  0.1748
  318POPC   C4B 4129   5.792   6.579   5.641  0.0897 -0.0694 -0.0883
  319POPC   NC3 4130   5.248   2.777   3.858  0.1323  0.2231 -0.0032
  319POPC   PO4 4131   5.724   2.894   3.978  0.1780 -0.2648 -0.4730
  319POPC   GL1 4132   5.548   2.771   4.344  0.0333  0.3033 -0.0629
  319POPC   GL2 4133   5.179   2.815   4.391 -0.0489  0.0150  0.1743
  319POPC   C1A 4134   5.484   2.691   4.797  0.0840  0.2132 -0.1240
  319POPC   D2A 4135   5.619   3.004   5.054 -0.3697  0.0172 -0.0123
  319POPC   C3A 4136   6.136   3.180   5.167 -0.0967 -0.0568 -0.1820
  319POPC   C4A 4137   6.287   3.621   5.317 -0.2759 -0.1141  0.0504
  319POPC   C1B 4138   5.197   3.130   4.601  0.0383 -0.0899  0.1247
  319POPC   C2B 4139   5.148   3.209   5.104 -0.0357 -0.2041 -0.1038
  319POPC   C3B 4140   5.309   3.401   5.516 -0.2267  0.1422  0.0421
  319POPC   C4B 4141   5.556   3.630   5.936 -0.3190  0.0520  0.2935
  320POPC   NC3 4142   1.801   2.271   3.441  0.0509  0.2177  0.0193
  320POPC   PO4 4143   1.933   2.357   3.814  0.1141  0.0306 -0.0267
  320POPC   GL1 4144   2.010   2.060   4.137  0.1298 -0.0725 -0.1834
  320POPC   GL2 4145   2.104   2.223   4.336  0.0082  0.1976 -0.2531
  320POPC   C1A 4146   2.080   1.626   4.162  0.1478 -0.3258  0.3557
  320POPC   D2A 4147   1.949   1.202   4.228 -0.0799 -0.2781  0.2568
  320POPC   C3A 4148   1.670   1.082   4.448 -0.0494 -0.2816 -0.1769
  320POPC   C4A 4149   1.451   0.955   4.718  0.1562 -0.2010 -0.0779
  320POPC   C1B 4150   2.071   2.407   4.676  0.2436  0.0560  0.0481
  320POPC   C2B 4151   1.853   2.499   5.026 -0.0319 -0.2042 -0.0460
  320POPC   C3B 4152   1.658   2.440   5.487  0.1912  0.1391 -0.1003
  320POPC   C4B 4153   1.626   1.983   5.665  0.0155  0.1969  0.1142
  321POPC   NC3 4154   7.792   2.945   4.097  0.0642 -0.1050  0.1271
  321POPC   PO4 4155   7.398   2.804   4.323 -0.0027 -0.0147  0.0448
  321POPC   GL1 4156   7.398   3.124   4.684 -0.1588  0.1090 -0.1327
  321POPC   GL2 4157   7.288   3.478   4.687 -0.1343  0.0543 -0.1076
  321POPC   C1A 4158   7.447   2.956   5.175 -0.2663  0.1851 -0.1427
  321POPC   D2A 4159   7.146   2.882   5.464  0.0451  0.2829 -0.0300
  321POPC   C3A 4160   7.161   3.068   5.871 -0.2133 -0.0991  0.2111
  321POPC   C4A 4161   7.481   3.321   6.043  0.2840  0.0474  0.0216
  321POPC   C1B 4162   7.140   3.452   5.098  0.0075 -0.0483  0.3107
  321POPC   C2B 4163   6.817   3.621   5.359 -0.0338 -0.0920 -0.2902
  321POPC   C3B 4164   6.603   4.063   5.440  0.0131  0.0387  0.0006
  321POPC   C4B 4165   6.327   4.193   5.824  0.2189  0.0691  0.1743
  322POPC   NC3 4166   7.798   7.275   3.917  0.0061  0.2132 -0.1505
  322POPC   PO4 4167   7.444   7.140   4.118  0.2051 -0.0116 -0.2690
  322POPC   GL1 4168   7.342   6.995   4.532 -0.2074 -0.0287  0.4537
  322POPC   GL2 4169   7.467   6.705   4.453  0.1204 -0.2228 -0.2888
  322POPC   C1A 4170   7.635   7.216   4.721 -0.2098 -0.0799 -0.0860
  322POPC   D2A 4171   7.805   7.513   5.048  0.0250  0.0272  0.1472
  322POPC   C3A 4172   7.905   7.301   5.439 -0.2372 -0.1680 -0.0770
  322POPC   C4A 4173   8.127   7.328   5.732 -0.1257  0.1292  0.1529
  322POPC   C1B 4174   7.615   6.738   4.882 -0.0985  0.1768 -0.1802
  322POPC   C2B 4175   7.667   6.696   5.383 -0.0331  0.1573  0.1517
  322POPC   C3B 4176   7.984   6.741   5.648  0.2029  0.0238  0.1835
  322POPC   C4B 4177   8.003   6.962   6.141 -0.0398  0.2022 -0.2155
  323POPC   NC3 4178  10.210   8.173   3.052 -0.2211  0.2507  0.1528
  323POPC   PO4 4179  10.161   8.334   3.440 -0.0438  0.2119  0.1147
  323POPC   GL1 4180  10.000   7.947   3.719 -0.1404 -0.1209 -0.4730
  323POPC   GL2 4181  10.023   8.208   4.030  0.0519  0.1123  0.2067
  323POPC   C1A 4182  10.259   7.750   4.068 -0.2198  0.4467 -0.3885
  323POPC   D2A 4183  10.546   7.776   4.343 -0.2398  0.0206 -0.1059
  323POPC   C3A 4184  10.693   7.612   4.785  0.1653  0.0563 -0.0037
  323POPC   C4A 4185  10.785   7.420   5.208  0.4328  0.0516 -0.2704
  323POPC   C1B 4186  10.319   8.297   4.333  0.0265 -0.3509 -0.1287
  323POPC   C2B 4187  10.666   8.157   4.638  0.3118 -0.1420 -0.0995
  323POPC   C3B 4188  10.845   8.200   5.007  0.1076 -0.1567  0.2969
  323POPC   C4B 4189  11.301   8.140   5.205 -0.1180  0.1958 -0.0914
  324POPC   NC3 4190   0.983   0.248   3.028  0.1978  0.2536 -0.1988
  324POPC   PO4 4191   1.330   0.487   3.093  0.0495  0.0443 -0.3037
  324POPC   GL1 4192   1.074   0.333   3.527 -0.0547  0.0231 -0.0670
  324POPC   GL2 4193   1.152   0.121   3.814  0.3164 -0.0735 -0.0016
  324POPC   C1A 4194   0.704   0.182   3.643  0.0118  0.2313 -0.2874
  324POPC   D2A 4195   0.217   0.032   3.693 -0.1953 -0.3337  0.1493
  324POPC   C3A 4196  -0.152   0.008   4.002  0.1711 -0.0008 -0.0374
  324POPC   C4A 4197  -0.175  -0.129   4.510  0.3981 -0.1248 -0.0398
  324POPC   C1B 4198   1.600   0.158   4.033 -0.1036  0.1198 -0.2985
  324POPC   C2B 4199   2.001   0.358   4.337 -0.0101 -0.0915  0.1192
  324POPC   C3B 4200   2.207   0.741   4.347 -0.1158  0.2427  0.1808
  324POPC   C4B 4201   2.039   0.935   4.715  0.3541  0.1967 -0.0034
  325POPC   NC3 4202   5.479   7.289   3.793  0.3311 -0.1407 -0.0550
  325POPC   PO4 4203   5.082   7.619   3.774  0.4588  0.0562 -0.3584
  325POPC   GL1 4204   4.977   7.793   4.148 -0.3269  0.0269 -0.0762
  325POPC   GL2 4205   4.796   7.551   4.428 -0.0700 -0.0214  0.0694
  325POPC   C1A 4206   5.227   8.180   4.392  0.0940 -0.0081 -0.0129
  325POPC   D2A 4207   5.051   8.469   4.455  0.2260  0.2557 -0.0047
  325POPC   C3A 4208   4.786   8.427   4.805 -0.2734  0.2359  0.1361
  325POPC   C4A 4209   4.773   8.446   5.273  0.2827 -0.0168 -0.3684
  325POPC   C1B 4210   4.560   7.637   4.909 -0.0579  0.0350  0.0583
  325POPC   C2B 4211   4.649   7.666   5.317 -0.0444  0.2972 -0.0935
  325POPC   C3B 4212   4.488   7.494   5.617  0.1587  0.2237  0.0444
  325POPC   C4B 4213   4.285   7.545   5.968  0.1177  0.2542 -0.2728
  326POPC   NC3 4214   5.142  10.013   4.104 -0.0124  0.1028  0.3243
  326POPC   PO4 4215   4.962  10.285   3.998 -0.1352  0.0769  0.0670
  326POPC   GL1 4216   4.635  10.299   4.436  0.1587  0.0375 -0.1354
  326POPC   GL2 4217   4.695  10.619   4.383  0.2904  0.1605  0.0130
  326POPC   C1A 4218   4.644  10.404   4.882 -0.0884  0.0662  0.3354
  326POPC   D2A 4219   4.679  10.371   5.274 -0.3831 -0.1529 -0.1636
  326POPC   C3A 4220   4.953  10.027   5.214  0.0530  0.2329  0.1552
  326POPC   C4A 4221   5.334   9.769   5.095 -0.0395  0.0986  0.0515
  326POPC   C1B 4222   4.579  10.912   4.669 -0.0073  0.0026  0.0333
  326POPC   C2B 4223   4.509  11.036   5.124 -0.3435  0.1425 -0.1052
  326POPC   C3B 4224   4.766  11.166   5.412  0.1665  0.2122  0.0705
  326POPC   C4B 4225   5.040  11.382   5.620 -0.0717 -0.1362  0.0775
  327POPC   NC3 4226  10.013   5.901   3.801 -0.0241  0.4316  0.2656
  327POPC   PO4 4227   9.690   5.627   3.947 -0.3845 -0.0356 -0.1145
  327POPC   GL1 4228  10.055   5.747   4.269  0.1746  0.0451  0.0752
  327POPC   GL2 4229  10.112   5.454   4.396 -0.0677  0.2186  0.0609
  327POPC   C1A 4230  10.494   5.757   4.419  0.1308 -0.1643  0.1307
  327POPC   D2A 4231  10.637   5.543   4.815 -0.5231  0.1736 -0.1464
  327POPC   C3A 4232  11.050   5.380   4.608 -0.0057 -0.2416  0.4164
  327POPC   C4A 4233  11.150   4.932   4.441 -0.2340  0.1502 -0.0957
  327POPC   C1B 4234  10.108   5.576   4.819  0.0571  0.0366  0.1611
  327POPC   C2B 4235   9.823   5.883   5.092  0.0181  0.1402  0.1520
  327POPC   C3B 4236   9.683   6.080   5.439 -0.3442  0.4043  0.2905
  327POPC   C4B 4237   9.573   6.129   5.908  0.0344  0.2370  0.1208
  328POPC   NC3 4238   9.517   7.720   3.471  0.1854 -0.0935  0.0456
  328POPC   PO4 4239   9.808   7.367   3.589 -0.4725  0.2868  0.0955
  328POPC   GL1 4240   9.775   7.555   3.998 -0.0981  0.8132  0.0554
  328POPC   GL2 4241   9.466   7.741   4.021 -0.1108  0.2662  0.2987
  328POPC   C1A 4242   9.850   7.713   4.368  0.4062  0.0916 -0.0071
  328POPC   D2A 4243  10.182   7.789   4.681 -0.1436 -0.1317 -0.1809
  328POPC   C3A 4244  10.191   8.180   4.792  0.1142 -0.1303  0.0285
  328POPC   C4A 4245  10.283   8.548   4.834 -0.0714 -0.2228  0.0784
  328POPC   C1B 4246   9.314   8.105   4.376 -0.0495  0.2178  0.0589
  328POPC   C2B 4247   9.300   8.085   4.799 -0.2681 -0.1456 -0.0518
  328POPC   C3B 4248   9.173   7.923   5.130 -0.2505 -0.1976 -0.1834
  328POPC   C4B 4249   9.137   8.106   5.491  0.2541 -0.1559 -0.1316
  329POPC   NC3 4250   3.028  10.410   3.348  0.0880  0.2455 -0.0950
  329POPC   PO4 4251   2.912  10.912   3.432 -0.1536 -0.0104 -0.1102
  329POPC   GL1 4252   2.768  10.668   3.755  0.1207 -0.3291 -0.1694
  329POPC   GL2 4253   3.032  10.700   4.023 -0.0529 -0.1822 -0.1929
  329POPC   C1A 4254   2.470  10.562   4.197  0.0615 -0.1145  0.0061
  329POPC   D2A 4255   2.802  10.282   4.436 -0.2455  0.0908  0.5911
  329POPC   C3A 4256   2.824  10.190   4.855 -0.2740 -0.2214  0.2308
  329POPC   C4A 4257   2.614  10.292   5.268 -0.1901 -0.1749 -0.0908
  329POPC   C1B 4258   2.833  10.799   4.447 -0.0207  0.0215 -0.0040
  329POPC   C2B 4259   2.590  10.812   4.881 -0.3920 -0.4201  0.3307
  329POPC   C3B 4260   2.648  10.886   5.289 -0.0421 -0.0471  0.0635
  329POPC   C4B 4261   2.748  11.160   5.635  0.0241 -0.3639 -0.0588
  330POPC   NC3 4262   6.604   6.106   4.297 -0.0954 -0.0225 -0.1161
  330POPC   PO4 4263   6.832   5.802   4.106 -0.1052 -0.2777  0.1567
  330POPC   GL1 4264   6.907   5.937   4.576  0.1938 -0.0663 -0.0710
  330POPC   GL2 4265   7.259   6.168   4.654  0.1625 -0.0318 -0.2339
  330POPC   C1A 4266   6.795   5.676   4.976 -0.0059  0.4522  0.2559
  330POPC   D2A 4267   6.741   5.732   5.412  0.0654  0.1798  0.0351
  330POPC   C3A 4268   6.461   6.024   5.627 -0.0247  0.1036  0.2492
  330POPC   C4A 4269   6.142   6.239   5.852 -0.2429  0.3180  0.1101
  330POPC   C1B 4270   7.204   5.979   5.011 -0.0278  0.0422 -0.0520
  330POPC   C2B 4271   7.231   5.718   5.305  0.1017 -0.1945  0.1543
  330POPC   C3B 4272   7.059   5.299   5.317  0.2444  0.0650  0.0654
  330POPC   C4B 4273   7.216   4.840   5.321  0.1630  0.0693  0.0384
  331POPC   NC3 4274  10.180   9.941   3.107 -0.2700 -0.1202 -0.3131
  331POPC   PO4 4275  10.346   9.661   2.931  0.1598  0.0414  0.0709
  331POPC   GL1 4276  10.494   9.568   3.325  0.1624 -0.1773 -0.0245
  331POPC   GL2 4277  10.456   9.838   3.484  0.1223 -0.3742 -0.0608
  331POPC   C1A 4278  10.756   9.395   3.670 -0.1304  0.1813 -0.1265
  331POPC   D2A 4279  11.284   9.371   3.779  0.0939 -0.1407  0.0446
  331POPC   C3A 4280  11.668   9.334   3.775 -0.0180  0.1317  0.2017
  331POPC   C4A 4281  11.779   8.959   3.652  0.2280  0.0528  0.2238
  331POPC   C1B 4282  10.365   9.630   3.902  0.1117 -0.0140 -0.2669
  331POPC   C2B 4283  10.423   9.444   4.256 -0.1501  0.0915  0.0739
  331POPC   C3B 4284  10.542   9.508   4.648  0.1203 -0.1998 -0.0400
  331POPC   C4B 4285  10.315   9.664   4.950  0.4952  0.1860  0.2145
  332POPC   NC3 4286   0.668   6.180   3.930 -0.2016  0.0026 -0.2742
  332POPC   PO4 4287   0.381   5.830   4.100 -0.1715 -0.2194  0.1079
  332POPC   GL1 4288   0.529   5.844   4.434 -0.1058  0.0972 -0.1618
  332POPC   GL2 4289   0.802   5.674   4.453  0.1017 -0.0450  0.0012
  332POPC   C1A 4290   0.290   5.987   4.747  0.0847  0.2168 -0.3319
  332POPC   D2A 4291   0.390   5.885   5.200  0.1430  0.0179 -0.0907
  332POPC   C3A 4292   0.118   5.655   5.591 -0.1319  0.0546 -0.0524
  332POPC   C4A 4293  -0.202   5.551   5.941  0.2454  0.0888 -0.2115
  332POPC   C1B 4294   0.900   5.857   4.940 -0.0471 -0.0247 -0.0926
  332POPC   C2B 4295   0.896   5.695   5.323  0.4537  0.1237  0.0166
  332POPC   C3B 4296   1.109   5.434   5.723  0.2947  0.1413 -0.3446
  332POPC   C4B 4297   1.393   5.595   6.129 -0.1111 -0.0236  0.2395
  333POPC   NC3 4298   6.310   1.349   3.688  0.1046 -0.1669  0.1101
  333POPC   PO4 4299   6.665   1.150   3.850  0.0382  0.0278  0.1718
  333POPC   GL1 4300   6.541   1.166   4.328  0.2546 -0.3250  0.0507
  333POPC   GL2 4301   6.263   1.417   4.400  0.3279  0.0318 -0.3255
  333POPC   C1A 4302   6.652   1.085   4.808  0.0222  0.0474 -0.1312
  333POPC   D2A 4303   6.506   1.087   5.301  0.0160 -0.0512  0.2049
  333POPC   C3A 4304   6.715   0.916   5.647 -0.1306  0.2809 -0.2239
  333POPC   C4A 4305   6.619   0.704   6.074 -0.1552  0.0533 -0.1439
  333POPC   C1B 4306   6.479   1.609   4.757  0.0897 -0.1112  0.3009
  333POPC   C2B 4307   6.734   1.468   5.025  0.1498 -0.0225 -0.1668
  333POPC   C3B 4308   6.920   1.378   5.458 -0.1761 -0.1525 -0.3327
  333POPC   C4B 4309   7.323   1.133   5.530  0.1600 -0.1889  0.2528
  334POPC   NC3 4310   8.783   0.599   4.022  0.0574  0.2982 -0.4399
  334POPC   PO4 4311   8.932   0.976   4.201 -0.1554 -0.0544  0.0019
  334POPC   GL1 4312   8.818   1.089   4.482 -0.0190  0.2443  0.0281
  334POPC   GL2 4313   8.779   0.865   4.704  0.2861  0.1288 -0.1184
  334POPC   C1A 4314   8.532   1.333   4.775  0.1576 -0.2559  0.1370
  334POPC   D2A 4315   8.323   1.387   5.056  0.1954  0.0095  0.2345
  334POPC   C3A 4316   8.303   1.751   5.484 -0.0406  0.0672 -0.0349
  334POPC   C4A 4317   8.220   2.093   5.809 -0.0192  0.1686 -0.2681
  334POPC   C1B 4318   8.817   1.058   5.079 -0.0518  0.0598  0.0696
  334POPC   C2B 4319   9.181   1.260   5.443  0.0929  0.0848 -0.0224
  334POPC   C3B 4320   9.252   1.544   5.910 -0.1861 -0.0907  0.1679
  334POPC   C4B 4321   9.622   1.693   6.056 -0.1210  0.0454  0.2871
  335POPC   NC3 4322   9.894   4.404   3.957  0.0972  0.1610  0.0296
  335POPC   PO4 4323   9.828   4.880   3.962 -0.0274  0.0397  0.0072
  335POPC   GL1 4324   9.799   5.081   4.339 -0.1027 -0.0253 -0.0173
  335POPC   GL2 4325   9.527   5.333   4.421  0.0054  0.3031  0.0380
  335POPC   C1A 4326   9.931   4.992   4.783 -0.1501 -0.2421 -0.0130
  335POPC   D2A 4327  10.067   4.755   5.247 -0.1956  0.1130 -0.1519
  335POPC   C3A 4328  10.454   4.893   5.414  0.2412  0.0161  0.0515
  335POPC   C4A 4329  10.832   4.725   5.690  0.0214  0.0712  0.3048
  335POPC   C1B 4330   9.635   5.468   4.866  0.2193 -0.4010 -0.0091
  335POPC   C2B 4331   9.875   5.337   5.233 -0.0006 -0.1797 -0.0543
  335POPC   C3B 4332  10.099   5.681   5.488  0.2705 -0.2086  0.0575
  335POPC   C4B 4333  10.057   5.968   5.741 -0.0931  0.1830  0.1495
  336POPC   NC3 4334   8.188   2.162   3.876 -0.2472 -0.3071  0.1428
  336POPC   PO4 4335   8.437   1.816   3.864 -0.1064 -0.2755  0.1109
  336POPC   GL1 4336   8.297   1.854   4.234 -0.0566  0.0406 -0.0490
  336POPC   GL2 4337   8.170   2.135   4.380 -0.1655 -0.1330 -0.2238
  336POPC   C1A 4338   7.921   1.669   4.490  0.0178 -0.0085 -0.4519
  336POPC   D2A 4339   7.969   1.295   4.673 -0.0219 -0.0856 -0.0142
  336POPC   C3A 4340   7.632   0.931   4.970  0.1577  0.0613  0.2084
  336POPC   C4A 4341   7.494   0.692   5.266  0.2311  0.0026 -0.0062
  336POPC   C1B 4342   8.451   2.107   4.664 -0.0911 -0.2813  0.1493
  336POPC   C2B 4343   8.455   2.272   5.068 -0.0239  0.0324 -0.1346
  336POPC   C3B 4344   8.047   2.495   5.291  0.0453 -0.3997  0.2001
  336POPC   C4B 4345   7.829   2.879   5.479 -0.1205 -0.2400 -0.3078
  337POPC   NC3 4346   8.975   6.292   3.490  0.0632  0.2186 -0.1618
  337POPC   PO4 4347   9.222   5.947   3.693  0.3321 -0.0794  0.0799
  337POPC   GL1 4348   9.172   5.924   4.170  0.3298 -0.0768 -0.0561
  337POPC   GL2 4349   9.471   5.855   4.335 -0.0327  0.0176  0.0641
  337POPC   C1A 4350   9.021   6.158   4.579 -0.2831  0.0391 -0.0374
  337POPC   D2A 4351   8.729   6.305   4.914  0.0093  0.1686 -0.4973
  337POPC   C3A 4352   8.925   6.391   5.289  0.1749  0.1021  0.1205
  337POPC   C4A 4353   9.056   6.516   5.702 -0.1140 -0.1442 -0.1598
  337POPC   C1B 4354   9.466   5.917   4.742 -0.1087  0.1865  0.0470
  337POPC   C2B 4355   9.246   6.017   5.018  0.0604  0.0590 -0.0093
  337POPC   C3B 4356   9.132   5.946   5.470  0.0038 -0.0954  0.0463
  337POPC   C4B 4357   9.108   6.112   6.004 -0.1767  0.1287 -0.1798
  338POPC   NC3 4358   6.297   6.359   3.988 -0.0041 -0.0558  0.0331
  338POPC   PO4 4359   5.952   6.126   4.132 -0.0353  0.1445 -0.0309
  338POPC   GL1 4360   5.938   6.413   4.377  0.4122  0.0649 -0.0351
  338POPC   GL2 4361   5.793   6.687   4.241 -0.2808  0.2689  0.1034
  338POPC   C1A 4362   5.945   6.443   4.855 -0.5154  0.1320  0.1767
  338POPC   D2A 4363   5.704   6.713   5.187 -0.2458  0.2226 -0.0425
  338POPC   C3A 4364   5.968   7.012   5.443 -0.0995 -0.0588  0.3423
  338POPC   C4A 4365   6.128   7.341   5.828 -0.0467  0.0680 -0.1168
  338POPC   C1B 4366   5.739   6.865   4.610  0.1496  0.1190 -0.0893
  338POPC   C2B 4367   6.150   6.898   4.808 -0.0206  0.1176  0.1748
  338POPC   C3B 4368   6.495   6.662   5.089 -0.1542 -0.2563 -0.2627
  338POPC   C4B 4369   6.934   6.783   5.355 -0.0557 -0.1027 -0.0115
  339POPC   NC3 4370   3.628   9.316   3.654  0.1767  0.2144  0.4884
  339POPC   PO4 4371   3.594   9.710   3.833 -0.0159  0.0532 -0.0806
  339POPC   GL1 4372   3.772   9.804   4.104  0.1638 -0.3097 -0.1645
  339POPC   GL2 4373   4.056   9.859   4.117  0.2182 -0.2895  0.1969
  339POPC   C1A 4374   3.675  10.057   4.500  0.0456 -0.1387 -0.1445
  339POPC   D2A 4375   3.785  10.266   4.821  0.1491 -0.4189 -0.2042
  339POPC   C3A 4376   3.473  10.625   5.037 -0.1163  0.1669  0.0304
  339POPC   C4A 4377   3.112  10.662   5.327  0.0950 -0.0015 -0.1997
  339POPC   C1B 4378   4.128  10.108   4.500 -0.1919  0.1461  0.1092
  339POPC   C2B 4379   4.203  10.123   4.969 -0.0763 -0.1082 -0.3019
  339POPC   C3B 4380   4.180  10.415   5.279 -0.2311 -0.1099 -0.2149
  339POPC   C4B 4381   4.136  10.971   5.485  0.2176  0.2406 -0.0272
  340POPC   NC3 4382   6.008   6.902   3.787 -0.4359 -0.1812  0.0310
  340POPC   PO4 4383   6.059   7.348   4.038 -0.2075  0.1242 -0.1192
  340POPC   GL1 4384   6.284   7.497   4.421 -0.2537  0.0351 -0.1422
  340POPC   GL2 4385   5.975   7.580   4.524 -0.4203 -0.0681 -0.1015
  340POPC   C1A 4386   6.404   7.798   4.775  0.1039 -0.2170  0.0477
  340POPC   D2A 4387   6.513   7.706   5.250  0.1911  0.2701  0.0966
  340POPC   C3A 4388   6.121   7.488   5.378 -0.0224  0.0302 -0.0409
  340POPC   C4A 4389   5.677   7.573   5.424 -0.0074 -0.2988  0.1255
  340POPC   C1B 4390   5.980   7.365   4.847 -0.0056 -0.1019 -0.1081
  340POPC   C2B 4391   5.626   7.138   5.000 -0.1199 -0.2121  0.0787
  340POPC   C3B 4392   5.501   7.126   5.443 -0.0246 -0.3387 -0.0074
  340POPC   C4B 4393   5.431   7.361   5.783 -0.2474 -0.0250 -0.0569
  341POPC   NC3 4394   5.058   4.760   4.082 -0.3059  0.4051  0.0608
  341POPC   PO4 4395   4.615   4.568   3.908 -0.0753  0.2762 -0.2780
  341POPC   GL1 4396   4.687   4.392   4.292 -0.2537 -0.1438  0.1814
  341POPC   GL2 4397   4.675   4.107   4.426 -0.0759 -0.0791 -0.1499
  341POPC   C1A 4398   4.859   4.506   4.665  0.0504 -0.3363 -0.0121
  341POPC   D2A 4399   5.087   4.811   4.923  0.1427 -0.0373  0.3113
  341POPC   C3A 4400   4.956   5.275   5.095  0.0989 -0.4907  0.2807
  341POPC   C4A 4401   4.581   5.251   5.315 -0.1034 -0.3779 -0.0880
  341POPC   C1B 4402   4.444   4.287   4.834  0.0404  0.2635  0.5166
  341POPC   C2B 4403   4.079   4.626   4.906 -0.3170 -0.0388 -0.2261
  341POPC   C3B 4404   3.701   4.848   5.159 -0.0820 -0.1420  0.0234
  341POPC   C4B 4405   3.790   4.851   5.627  0.1109 -0.0790  0.0701
  342W        W 4406   4.626   3.807   8.615  0.2297  0.1718  0.1610
  343W        W 4407   3.811   0.709   0.223 -0.0805 -0.1310  0.1122
  344W        W 4408   2.225   6.196   0.026  0.2783  0.0216  0.1147
  345W        W 4409   2.124   5.768  10.208  0.1855  0.1577 -0.3372
  346W        W 4410  10.367   8.728  11.277 -0.0870  0.0172  0.3725
  347W        W 4411   7.702   1.270   0.772 -0.1435 -0.3061 -0.0359
  348W        W 4412   1.817   1.854  10.203 -0.0560 -0.2651 -0.2133
  349W        W 4413   8.913  10.121  11.389  0.3720 -0.0750 -0.0228
  350W        W 4414   1.242   3.163   1.886  0.3509 -0.1116 -0.0414
  351W        W 4415   2.512   6.620   9.334  0.1982 -0.1449 -0.0672
  352W        W 4416   5.643   6.132   0.343  0.2041 -0.0501 -0.0606
  353W        W 4417   8.775   1.658   4.500 -0.0809  0.2887 -0.0454
  354W        W 4418   1.789   2.402  10.363 -0.2270  0.1413 -0.1169
  355W        W 4419   2.422   2.877   1.688 -0.0812  0.0214  0.1451
  356W        W 4420   3.016   0.932   3.361  0.0983 -0.0064 -0.1321
  357W        W 4421   4.647   6.577  11.073 -0.1210  0.1761  0.0500
  358W        W 4422   2.289   4.956   0.111 -0.1032 -0.0500 -0.0638
  359W        W 4423   1.980   5.818  11.272 -0.0092  0.3585  0.0134
  360W        W 4424  10.381   7.097   2.776 -0.0816  0.1023  0.3637
  361W        W 4425   1.678  10.141   2.607  0.1259  0.0827 -0.1651
  362W        W 4426  10.584   9.094   2.146  0.0190 -0.1564  0.3546
  363W        W 4427   3.724   6.270  10.704 -0.1136  0.0907 -0.5686
  364W        W 4428   1.183   4.868   8.237 -0.2233 -0.4516  0.2352
  365W        W 4429   8.310   1.042   9.167  0.1019 -0.0489  0.0722
  366W        W 4430   4.580   5.865  11.494 -0.2543 -0.1188  0.0873
  367W        W 4431   6.881   6.953   9.991 -0.0093 -0.0596  0.0022
  368W        W 4432   1.742   1.945   1.417 -0.0772 -0.0272  0.2641
  369W        W 4433   0.687   0.207   1.042 -0.0934 -0.3342 -0.2784
  370W        W 4434   6.088   1.069   8.902  0.1880  0.0130 -0.0943
  371W        W 4435   5.663   9.341   3.779 -0.0296  0.3223  0.0443
  372W        W 4436   5.353   6.009   7.690  0.0604  0.1970  0.0510
  373W        W 4437   5.740   6.340  10.553  0.1239 -0.2051  0.0296
  374W        W 4438   9.742   8.232  10.996  0.1642 -0.2680  0.0730
  375W        W 4439  10.341   4.914  11.423  0.4234  0.5511  0.1006
  376W        W 4440   0.147   4.797   8.266 -0.0341 -0.0873  0.2113
  377W        W 4441   0.525   7.580   9.100 -0.1119  0.2950 -0.0000
  378W        W 4442   6.910   6.641   9.585 -0.0240 -0.1977 -0.1366
  379W        W 4443   2.562   9.841   8.826  0.0697 -0.0543  0.0915
  380W        W 4444   4.609   2.166   0.879  0.2323  0.0675  0.2456
  381W        W 4445   3.936   1.829   9.397 -0.1862  0.1593 -0.2688
  382W        W 4446   3.218   2.742   2.112 -0.0122  0.1386 -0.0323
  383W        W 4447   0.610   5.180   0.182  0.0162 -0.1780  0.2175
  384W        W 4448   8.045   2.485   2.123  0.0542 -0.3532 -0.2610
  385W        W 4449   3.370   2.857  10.204 -0.1806  0.1332  0.0584
  386W        W 4450  10.309   8.195   9.001  0.1969 -0.0369  0.4583
  387W        W 4451   6.133   5.952  10.513 -0.3165 -0.1625  0.0813
  388W        W 4452   7.328   3.403   9.745  0.0507 -0.0929  0.3295
  389W        W 4453   1.133   1.184  11.502  0.1219  0.1433 -0.0380
  390W        W 4454   8.258   2.432  10.324  0.1641  0.0333  0.0410
  391W        W 4455   4.168   4.890   9.105 -0.1089  0.2041  0.1593
  392W        W 4456   9.566   8.086  10.504 -0.1989  0.1699 -0.2044
  393W        W 4457   3.127   6.300   1.679  0.0826  0.2027  0.2878
  394W        W 4458   7.940   9.934   3.601  0.2263  0.2790  0.0357
  395W        W 4459   2.253   1.160   1.976 -0.1610 -0.1138 -0.0256
  396W        W 4460   1.069   5.745  10.043 -0.0694 -0.0621 -0.0831
  397W        W 4461   8.638   3.515   1.220  0.1209 -0.0346 -0.1084
  398W        W 4462   1.639   8.619   2.750 -0.0063 -0.0736 -0.0267
  399W        W 4463   8.069   8.020  10.057  0.1670  0.2367 -0.2007
  400W        W 4464   9.672   0.287  10.138  0.0985  0.0524  0.1149
  401W        W 4465   3.521   1.857   1.408 -0.1135 -0.2100 -0.0406
  402W        W 4466   6.043   2.981   8.437  0.2376  0.0164  0.2523
  403W        W 4467   6.660   6.891   8.354  0.1169  0.0634 -0.0392
  404W        W 4468   5.278   0.725   8.105 -0.1831  0.1067 -0.1259
  405W        W 4469   1.239   3.675  10.213  0.1999 -0.2006 -0.0647
  406W        W 4470   9.790   8.705   0.563  0.0263  0.1133  0.1099
  407W        W 4471   6.919   0.059  10.227  0.1399  0.3544 -0.2416
  408W        W 4472   2.670   8.791  11.123 -0.0358  0.1548  0.3117
  409W        W 4473   4.410   7.635   9.166  0.3587  0.0126 -0.1212
  410W        W 4474  10.577   8.115  11.292  0.0927  0.0179  0.0166
  411W        W 4475   0.808   2.237   3.211 -0.1880 -0.0675  0.3200
  412W        W 4476   7.450   6.514  10.784  0.2287 -0.2049  0.1143
  413W        W 4477   5.342   1.893   1.391 -0.0061  0.0055 -0.2047
  414W        W 4478   1.275   2.941   9.402 -0.2678 -0.1564 -0.2896
  415W        W 4479   9.763   1.076   9.590  0.1261  0.0982 -0.1783
  416W        W 4480   9.150   9.187   1.877  0.0970  0.1269  0.2648
  417W        W 4481   2.725   9.553  10.480 -0.0702 -0.1593  0.0634
  418W        W 4482   1.389   4.084   8.491 -0.0349 -0.1657  0.3784
  419W        W 4483   7.191   6.193   1.485  0.0131  0.0328 -0.3145
  420W        W 4484   7.481   1.059   2.121 -0.0346  0.1310 -0.2573
  421W        W 4485   7.308   7.803   8.442 -0.0093 -0.0734  0.1777
  422W        W 4486   0.143   4.864   0.823  0.1668  0.1298 -0.0571
  423W        W 4487   9.342   7.875   2.474 -0.1127 -0.2592  0.2479
  424W        W 4488   9.625  10.309  11.215 -0.1172 -0.1995 -0.0359
  425W        W 4489   1.910   1.266   8.401 -0.1256 -0.0243  0.0971
  426W        W 4490   4.690  10.434   2.427  0.0882  0.0068 -0.2575
  427W        W 4491   6.104   7.305  10.066  0.0476 -0.0873  0.0048
  428W        W 4492   3.632   7.979  10.685 -0.1356 -0.0195 -0.0338
  429W        W 4493   4.481   8.583   1.006 -0.2059  0.4193 -0.0707
  430W        W 4494   3.868   6.192  11.217 -0.3610 -0.1076  0.0436
  431W        W 4495  10.647   4.305   3.368 -0.2226  0.0986  0.3257
  432W        W 4496   1.472   5.450   2.116 -0.1444  0.1486 -0.0444
  433W        W 4497   7.354   5.745   0.226 -0.2743  0.2124  0.3669
  434W        W 4498   3.108   0.941   9.853  0.2103 -0.0358  0.1215
  435W        W 4499   7.857   0.519  11.157  0.0856  0.1331 -0.2980
  436W        W 4500   0.691   6.645   1.086 -0.0290 -0.0997 -0.0905
  437W        W 4501   3.452   9.818   2.900 -0.3178 -0.1301  0.0972
  438W        W 4502   6.304   6.552   9.418  0.1846  0.0119  0.2810
  439W        W 4503   8.541   5.580  10.342 -0.1574  0.0477  0.0599
  440W        W 4504   0.187   5.138  11.416 -0.0282  0.2513 -0.3327
  441W        W 4505   3.694   0.865   1.364 -0.3094  0.2020  0.0294
  442W        W 4506   7.370   8.126   9.307  0.1425 -0.1424 -0.1293
  443W        W 4507   8.919   5.546   3.002 -0.2375  0.1319  0.1724
  444W        W 4508   6.620   4.937  11.313  0.1454  0.1193  0.0381
  445W        W 4509   7.751   4.908   2.844  0.2196 -0.0149  0.4206
  446W        W 4510   8.894   4.685   2.855  0.1948 -0.2531  0.1689
  447W        W 4511   2.054   8.511  10.291 -0.0974  0.1692  0.0826
  448W        W 4512   1.857   2.500   0.164  0.1896  0.1623 -0.1979
  449W        W 4513   5.861   8.174   8.590  0.4049  0.1867  0.1016
  450W        W 4514   7.591   9.651   0.028  0.0276  0.0137 -0.1499
  451W        W 4515   2.398   3.216  10.278  0.0675 -0.2416 -0.0121
  452W        W 4516   5.279   9.005   1.497  0.1164  0.4224  0.2845
  453W        W 4517   2.985   9.454   2.848 -0.2193  0.0048  0.0498
  454W        W 4518   6.512   3.332  11.107 -0.3036 -0.0208 -0.3616
  455W        W 4519   1.627   6.600  10.477 -0.0968  0.1427  0.0690
  456W        W 4520   4.745   5.925   8.573 -0.0120 -0.1703  0.2968
  457W        W 4521   9.001   0.234   9.227 -0.1493  0.1389  0.1292
  458W        W 4522   7.085   3.587   0.378  0.0514 -0.0960  0.0789
  459W        W 4523   3.574  10.598   1.409  0.1821  0.0552 -0.3459
  460W        W 4524   9.230   9.190  11.171  0.3666  0.1492 -0.1761
  461W        W 4525   2.052   4.673   1.164  0.1280  0.3069  0.1822
  462W        W 4526   9.196   7.714   1.160 -0.0990  0.1669  0.0514
  463W        W 4527   5.794   3.444  10.612  0.2526 -0.0543 -0.1262
  464W        W 4528   0.560  10.342   1.198 -0.0279  0.1583 -0.1599
  465W        W 4529   8.633   2.991   1.549 -0.1742 -0.1649 -0.1456
  466W        W 4530   5.419   0.551   1.441  0.3264 -0.2179  0.0282
  467W        W 4531   7.544   4.051   3.140  0.0678  0.0631 -0.0292
  468W        W 4532   0.313   1.697   8.694 -0.1444  0.2542  0.1484
  469W        W 4533   0.107   1.161   2.789  0.3407 -0.3075 -0.0455
  470W        W 4534   9.765   7.832   7.500 -0.3312 -0.2448  0.0770
  471W        W 4535   3.446  10.367  10.169 -0.2462 -0.0534 -0.1242
  472W        W 4536   3.452   5.958  10.225  0.2216  0.0239  0.1581
  473W        W 4537   1.834   3.958   1.747  0.2138 -0.0901 -0.2324
  474W        W 4538  10.493   1.898   1.890  0.0181 -0.0167 -0.0890
  475W        W 4539   1.297  10.629   0.484  0.1024 -0.0173  0.1236
  476W        W 4540   5.188   6.477   3.115 -0.0509 -0.0430  0.1288
  477W        W 4541   9.288   4.403   2.238 -0.0219 -0.2129 -0.0105
  478W        W 4542   6.316  10.491  10.207 -0.2021  0.1608 -0.2613
  479W        W 4543   0.243   1.677  10.061  0.0091 -0.0751 -0.0657
  480W        W 4544   8.087   6.720   1.787 -0.4577  0.3207  0.1232
  481W        W 4545   5.186   9.525   2.531  0.4190 -0.3189 -0.0564
  482W        W 4546   8.163   4.501  10.746  0.3055 -0.1474  0.1484
  483W        W 4547   7.569   5.317   0.923 -0.0429 -0.1669 -0.0862
  484W        W 4548   9.849   7.025   1.505 -0.0673  0.2166  0.1789
  485W        W 4549   6.353   2.706   9.426  0.0166  0.0503 -0.1909
  486W        W 4550  10.615   3.044   9.983  0.3845 -0.3500 -0.0497
  487W        W 4551   9.555   5.368   9.302  0.0241 -0.1919 -0.0671
  488W        W 4552   5.634   4.499   1.203 -0.2326 -0.1116  0.2490
  489W        W 4553  10.636   8.222   9.375 -0.0315  0.1329 -0.1349
  490W        W 4554   1.411   1.236   8.542  0.0625 -0.1177 -0.1520
  491W        W 4555   0.249   2.791  11.388  0.1893  0.1863  0.2602
  492W        W 4556   8.219   1.113   1.954  0.2703 -0.1317 -0.2564
  493W        W 4557   4.191   6.923   8.151 -0.0583  0.0123 -0.1850
  494W        W 4558   2.172   6.408   2.774  0.0770 -0.1709 -0.2725
  495W        W 4559   5.900   9.581   1.771  0.0069  0.0549 -0.0264
  496W        W 4560   8.513   7.945   8.471 -0.1756 -0.4052 -0.1106
  497W        W 4561  10.628   2.608   9.597 -0.1901 -0.0161 -0.0790
  498W        W 4562   2.628   8.257  10.847 -0.2115 -0.0457 -0.0774
  499W        W 4563   3.310   7.069   2.324 -0.1115 -0.0685  0.1574
  500W        W 4564   3.023   4.871   1.778 -0.3365  0.1115  0.0188
  501W        W 4565   7.313   0.795   9.771 -0.1718  0.1565 -0.0807
  502W        W 4566   1.375   7.019   2.929 -0.2608  0.0292 -0.2306
  503W        W 4567   6.193   2.490   0.615  0.3668  0.0211  0.6509
  504W        W 4568   3.871   7.712   9.707 -0.2018 -0.3974  0.1366
  505W        W 4569  10.274   7.115   1.842 -0.1158  0.0871 -0.0732
  506W        W 4570   7.468   2.923   9.548 -0.0955  0.1835 -0.1222
  507W        W 4571   4.597   7.578   0.976 -0.2246 -0.0294 -0.1305
  508W        W 4572   9.380   6.528   8.448 -0.1075  0.1825  0.0577
  509W        W 4573   6.106   6.374   3.480 -0.1361 -0.2022  0.0558
  510W        W 4574   3.940   6.320   2.268  0.0797  0.1158 -0.2000
  511W        W 4575   1.576   8.851   0.483  0.1409 -0.0586 -0.0169
  512W        W 4576   4.767   4.402   0.686 -0.1253  0.1106  0.3392
  513W        W 4577   1.291   7.210   2.102  0.0226 -0.2000 -0.0721
  514W        W 4578   5.601  10.049   8.099 -0.0594 -0.0030  0.0748
  515W        W 4579   5.182   5.068  11.042 -0.0505  0.3971 -0.2560
  516W        W 4580   1.413   6.308   2.342 -0.1539 -0.5220 -0.6195
  517W        W 4581   4.351   1.148  10.542 -0.0750  0.2335 -0.2995
  518W        W 4582  10.257   6.120   1.750  0.0675  0.0876 -0.0542
  519W        W 4583   7.838   5.716   0.643 -0.0361 -0.0354  0.1646
  520W        W 4584   3.180   8.309  11.511  0.1227 -0.1328 -0.3586
  521W        W 4585   7.512   6.526   1.240  0.1631 -0.1516  0.1447
  522W        W 4586   5.841   6.743   1.055  0.0598 -0.0961  0.2625
  523W        W 4587   2.922   6.081   0.382  0.0643 -0.0166  0.0444
  524W        W 4588   6.093   8.218   8.141  0.0374 -0.0704 -0.2608
  525W        W 4589   5.414   7.419   0.265 -0.4703 -0.0360  0.3937
  526W        W 4590   2.672   0.921   2.751 -0.0097  0.0312 -0.3496
  527W        W 4591   2.273   3.928   3.078 -0.0048  0.1910  0.0067
  528W        W 4592   8.329   3.815   1.943  0.1656 -0.0610  0.1857
  529W        W 4593   6.220   2.937   8.985 -0.1307 -0.2346  0.0248
  530W        W 4594   1.055   7.805   0.410  0.3230  0.0193  0.1838
  531W        W 4595   1.989   7.312  11.566  0.3100  0.2082 -0.2408
  532W        W 4596   9.169   7.753  11.321 -0.0217  0.2845  0.1276
  533W        W 4597   5.474   6.668   1.419  0.2157 -0.0153 -0.0859
  534W        W 4598   0.957   6.236   7.942 -0.0154  0.0109  0.3521
  535W        W 4599   7.755   6.994  10.399  0.0045 -0.2538  0.2462
  536W        W 4600   1.359   1.158   3.719  0.1115  0.0102 -0.2879
  537W        W 4601   9.425   9.975   0.592  0.0388 -0.1573  0.1610
  538W        W 4602   0.445   4.177   8.208  0.2333  0.2458 -0.0862
  539W        W 4603   8.917   2.684   0.520 -0.0856 -0.1139  0.2291
  540W        W 4604   8.061   5.082   0.829  0.2003  0.0280 -0.1656
  541W        W 4605   4.703   0.635   1.521 -0.0447  0.0330  0.0566
  542W        W 4606   6.012   8.071   9.788 -0.6048 -0.1682  0.0640
  543W        W 4607   6.412   0.525   7.808 -0.0031  0.5165  0.1507
  544W        W 4608   9.675   6.406   8.877  0.0136 -0.0372  0.3712
  545W        W 4609   8.097   8.455   1.107 -0.1211 -0.0572 -0.0633
  546W        W 4610   7.699   9.938   2.861  0.0151  0.0860 -0.0055
  547W        W 4611  10.045   8.849   0.103  0.0622  0.4931  0.2570
  548W        W 4612   8.277   6.120   0.557  0.1194 -0.2803 -0.2859
  549W        W 4613   9.724   9.542  11.500  0.2052 -0.3775  0.4160
  550W        W 4614   3.785   0.686  11.022 -0.0057  0.0185  0.2668
  551W        W 4615   1.227   6.475   2.824 -0.0900 -0.2771 -0.0860
  552W        W 4616   6.290   3.994  10.550  0.3643  0.1621  0.0071
  553W        W 4617   1.486   5.256   8.045 -0.0847  0.2839  0.2570
  554W        W 4618   0.865   4.635   2.973 -0.0175  0.1915  0.1908
  555W        W 4619   2.902   5.285   9.622 -0.2125  0.1860 -0.3801
  556W        W 4620   5.425   1.043   2.730  0.1161  0.1686 -0.0408
  557W        W 4621   2.968   5.285   1.493  0.2494  0.0441  0.0635
  558W        W 4622   4.805   2.743   9.181 -0.0484  0.0369  0.1404
  559W        W 4623   3.981   0.745   2.865 -0.2195  0.2378  0.0496
  560W        W 4624   4.732   8.475   8.503  0.1538 -0.0193 -0.0084
  561W        W 4625   0.621   8.637  10.697 -0.1865  0.1360 -0.2191
  562W        W 4626   3.273   4.863   0.764  0.0562 -0.1626 -0.2739
  563W        W 4627  10.438   3.405   0.463  0.0612  0.0783  0.0676
  564W        W 4628   7.976   2.391  10.753  0.0865  0.1543  0.0348
  565W        W 4629   0.699   9.914  10.086  0.1039 -0.0846 -0.0310
  566W        W 4630   6.434   9.992  10.410 -0.2868  0.0021 -0.1248
  567W        W 4631   1.566   2.876  10.456 -0.2100  0.3258  0.2129
  568W        W 4632   9.861   2.065  10.692 -0.1137  0.1536  0.0258
  569W        W 4633   3.814   2.630   0.395 -0.1600 -0.0492  0.1346
  570W        W 4634   9.197   1.323   2.371  0.0562  0.1992 -0.2730
  571W        W 4635   8.126   6.545   0.873  0.0317 -0.0711  0.0543
  572W        W 4636   6.471   8.582   2.072 -0.0668  0.2049 -0.1127
  573W        W 4637   7.468  10.336   9.374 -0.0584  0.1322 -0.2417
  574W        W 4638   7.785   2.196   2.605 -0.2992 -0.3265 -0.1221
  575W        W 4639   1.360   7.857   3.717 -0.2796  0.3798  0.3349
  576W        W 4640   1.144   5.291   9.943  0.0643  0.2455 -0.0630
  577W        W 4641   7.033   6.664   2.460 -0.0530 -0.0841  0.3535
  578W        W 4642  10.386   5.652   3.487  0.0283 -0.0441 -0.1212
  579W        W 4643  10.098   1.205   0.103 -0.0867  0.3823  0.1764
  580W        W 4644   2.970   9.830   2.478  0.1603  0.2046  0.2760
  581W        W 4645   6.731   6.524  10.297  0.2163 -0.4837  0.2142
  582W        W 4646   5.731   4.806   0.349  0.1392  0.0558 -0.0388
  583W        W 4647   5.070   1.942   0.523 -0.3437  0.0886 -0.3580
  584W        W 4648   2.209   7.078   9.159 -0.2753  0.2756 -0.1651
  585W        W 4649   6.708   5.018   8.978  0.3451  0.0020 -0.0568
  586W        W 4650   6.509   0.382  11.428 -0.2374 -0.2919  0.0489
  587W        W 4651   9.323   2.949   0.503  0.0953 -0.5746  0.4116
  588W        W 4652   7.245   0.358   8.983  0.1078 -0.2524 -0.0053
  589W        W 4653  10.535   8.798   9.894 -0.2733 -0.1022  0.0940
  590W        W 4654   3.044   0.716  10.709  0.5046  0.2621 -0.0316
  591W        W 4655   1.501   1.181   1.506 -0.0421  0.0048  0.0619
  592W        W 4656   1.433  10.574  10.083 -0.1553 -0.0225 -0.0359
  593W        W 4657   9.994   1.331  10.030 -0.0692 -0.0942  0.2192
  594W        W 4658  10.301   0.767   1.206 -0.0916 -0.4221  0.2703
  595W        W 4659   9.477   0.859  11.087  0.1369 -0.1112 -0.2651
  596W        W 4660   5.307   9.356   8.629 -0.1808 -0.0361  0.1345
  597W        W 4661  10.154   6.066   8.908  0.1766  0.2209 -0.0180
  598W        W 4662   6.976   7.683   9.284 -0.0382  0.0032 -0.1554
  599W        W 4663   9.169   1.005   9.864  0.0976  0.1800  0.1035
  600W        W 4664   6.103   9.328  11.006  0.2881 -0.1539  0.0268
  601W        W 4665   5.422   1.421   1.355 -0.0627 -0.2490  0.2105
  602W        W 4666   8.432   0.776  11.136  0.3658  0.0396 -0.1214
  603W        W 4667   9.372   9.425   1.463  0.1154  0.0908  0.0542
  604W        W 4668   9.406   9.424  10.232 -0.2595  0.2621  0.5300
  605W        W 4669   3.439   1.509   2.463 -0.2979  0.0236 -0.0039
  606W        W 4670   4.520   5.183   3.487 -0.1641 -0.2008  0.1412
  607W        W 4671   3.790   3.935   8.876  0.2395 -0.1255 -0.0183
  608W        W 4672   6.886   3.056   0.439 -0.1338 -0.0434  0.1192
  609W        W 4673   5.448  10.327   9.432 -0.1348 -0.1725 -0.2937
  610W        W 4674   4.485   2.206   8.614  0.0538 -0.0192  0.1671
  611W        W 4675   8.330   5.720   0.782  0.2017  0.0834 -0.0523
  612W        W 4676   2.512  10.625   3.208 -0.0899  0.3917  0.0538
  613W        W 4677   2.351   3.539   4.223 -0.4293  0.1413 -0.1044
  614W        W 4678   9.366   6.447   9.339 -0.1772  0.1422 -0.0305
  615W        W 4679   6.950   8.649   8.322 -0.3971 -0.2207 -0.4226
  616W        W 4680   8.037   4.246   1.360  0.1574  0.0253 -0.2933
  617W        W 4681   7.854   7.704   2.195 -0.0599 -0.0287  0.0256
  618W        W 4682   3.542   8.837   3.421  0.1797 -0.2543  0.1735
  619W        W 4683   5.805  10.236   2.946  0.1545  0.1147 -0.1280
  620W        W 4684   0.840   5.881  10.562  0.1458  0.1147 -0.2158
  621W        W 4685   7.165   8.183  11.441  0.0425 -0.1385  0.0245
  622W        W 4686   5.221   9.644   8.170  0.0453 -0.0489 -0.1689
  623W        W 4687   0.060   4.693   8.770  0.3874  0.4428  0.1454
  624W        W 4688   2.527   9.455   0.042 -0.1904  0.3195 -0.1784
  625W        W 4689  10.452   9.471   1.404 -0.2745 -0.3971 -0.0995
  626W        W 4690   1.399   3.950   7.885 -0.1006  0.1350  0.2129
  627W        W 4691   0.498   0.164  10.332 -0.1063  0.3662  0.2599
  628W        W 4692   8.571   6.674  10.985 -0.0443  0.0211  0.2048
  629W        W 4693   6.100  10.476   8.415 -0.1119 -0.1900 -0.0988
  630W        W 4694   9.644   0.092   0.601 -0.0232  0.2611 -0.0731
  631W        W 4695   4.275   1.570   9.143  0.1326  0.0010  0.3437
  632W        W 4696   7.670   5.998   1.462 -0.3501 -0.2044 -0.0405
  633W        W 4697   3.732   6.115   3.855  0.0391  0.2688 -0.1599
  634W        W 4698  10.045   6.089   9.403  0.3570 -0.1276 -0.0093
  635W        W 4699   3.090   6.855  10.464 -0.2277  0.0615 -0.1520
  636W        W 4700   1.388   6.152  10.109 -0.3070 -0.1123 -0.0184
  637W        W 4701   0.279   0.813   2.482 -0.1417  0.2845  0.2483
  638W        W 4702  10.409   8.950   8.604  0.1899 -0.1450 -0.1776
  639W        W 4703  10.214   2.082  11.229 -0.3432  0.1493  0.2004
  640W        W 4704   7.169   9.943   2.880 -0.0026  0.0521 -0.2693
  641W        W 4705   7.294   4.562  11.040 -0.1773  0.0996 -0.0393
  642W        W 4706   7.014   0.700   2.289 -0.4418 -0.0686 -0.1180
  643W        W 4707   7.603   3.888  10.656 -0.0511 -0.1558  0.1171
  644W        W 4708   8.994   0.132   8.747  0.2000  0.5013 -0.2119
  645W        W 4709   0.904   0.398  10.643 -0.1661 -0.0280  0.1881
  646W        W 4710   6.784   6.342   3.849 -0.2854 -0.0210 -0.2615
  647W        W 4711  10.435   0.924  10.041  0.1757  0.0436 -0.2833
  648W        W 4712   0.585   5.633   1.477 -0.0573 -0.1524 -0.1558
  649W        W 4713   4.361   7.783   2.048  0.4815 -0.1264 -0.1921
  650W        W 4714   9.359   8.984  10.545 -0.4710  0.0809  0.2509
  651W        W 4715   8.908   3.889  11.433 -0.4234  0.0040 -0.3743
  652W        W 4716   7.033   7.692  10.255  0.0263 -0.0943  0.1659
  653W        W 4717   1.602   1.740   2.081  0.1281 -0.1182 -0.1936
  654W        W 4718   3.038   4.237  10.504  0.3254  0.0031  0.3373
  655W        W 4719   3.654   4.185   2.989 -0.0724  0.0243 -0.6036
  656W        W 4720   6.928   7.857   0.906 -0.0430 -0.1344 -0.2490
  657W        W 4721  10.067   9.610  11.116  0.3204 -0.0921 -0.3072
  658W        W 4722   0.772   9.660   8.748 -0.0909 -0.3611 -0.4201
  659W        W 4723   3.126   3.733   3.517 -0.1789  0.2144  0.1520
  660W        W 4724   5.352   5.057   3.365 -0.2486 -0.0872 -0.1678
  661W        W 4725   6.674  10.561   8.803 -0.4813 -0.1672  0.2136
  662W        W 4726   1.804   7.460   1.417  0.1390  0.0829  0.0844
  663W        W 4727   3.923   4.448   9.087 -0.2056  0.1872 -0.0378
  664W        W 4728   8.694   3.998   1.332  0.2209 -0.1069 -0.1451
  665W        W 4729   0.575   3.158   3.097 -0.0367 -0.2220  0.1045
  666W        W 4730   2.318   9.005   9.679 -0.2010  0.1984  0.0011
  667W        W 4731   7.381   2.812   3.774  0.2424  0.3000 -0.3559
  668W        W 4732   7.461   3.000  10.044 -0.0728 -0.2261  0.2022
  669W        W 4733   0.202   6.796   9.467 -0.1590  0.0668 -0.1066
  670W        W 4734   1.371   2.446   9.490  0.4416 -0.0788 -0.1499
  671W        W 4735   3.260   7.336   1.869  0.2158 -0.4261  0.0702
  672W        W 4736   3.378   5.866   3.493 -0.0542  0.1351 -0.1938
  673W        W 4737   6.616   2.174   8.326 -0.1771 -0.0919 -0.1105
  674W        W 4738   3.475   5.192   9.538  0.0360 -0.1335  0.1212
  675W        W 4739   7.093   9.063   1.767 -0.0578 -0.0018  0.0694
  676W        W 4740   8.568  10.262  10.707  0.1421  0.2495  0.1774
  677W        W 4741   9.001   3.504   2.180  0.1150 -0.0556 -0.0985
  678W        W 4742   8.287   0.126  10.824  0.0376 -0.2466 -0.2365
  679W        W 4743   8.774   2.082   2.311  0.0957 -0.0394 -0.2206
  680W        W 4744   2.960   6.588   8.438  0.2580  0.0179  0.1900
  681W        W 4745   4.706   2.000   1.608  0.1663 -0.2423 -0.0751
  682W        W 4746   3.055   5.931   7.853 -0.1573  0.3462  0.0364
  683W        W 4747   5.340   7.914   2.490  0.2054  0.0599  0.0992
  684W        W 4748   0.930   8.347   9.050  0.2144  0.0930 -0.0084
  685W        W 4749   5.320   0.877  10.341  0.0139  0.0951  0.0759
  686W        W 4750   1.828   0.070  10.398  0.2470  0.4463  0.2425
  687W        W 4751   3.204   1.285   1.119 -0.0973 -0.0065 -0.1018
  688W        W 4752   4.341   8.289  11.329 -0.0172  0.0578  0.2559
  689W        W 4753   4.252   8.467   8.089 -0.0244 -0.1348 -0.1963
  690W        W 4754   7.186   4.102  10.858 -0.1694  0.0930  0.0527
  691W        W 4755   7.013   6.255   9.919 -0.1350  0.0205 -0.0858
  692W        W 4756   7.196   5.676  10.037 -0.0849 -0.1266  0.0211
  693W        W 4757   8.984   1.364  10.733  0.0956 -0.0175 -0.2147
  694W        W 4758   4.400   8.808  10.084  0.2754  0.1509 -0.0638
  695W        W 4759   4.322  10.567   1.079  0.1717  0.0108 -0.3070
  696W        W 4760   9.296  10.130   1.959  0.0977 -0.1517  0.0480
  697W        W 4761   4.526   0.439   0.028 -0.1876  0.1002  0.0590
  698W        W 4762   9.712   2.302   9.994  0.1165 -0.3129 -0.1363
  699W        W 4763   6.985   0.183   3.274 -0.0695  0.2317 -0.0173
  700W        W 4764   9.159   5.811   1.316 -0.1282  0.4189 -0.0548
  701W        W 4765   4.793   3.997   3.965 -0.0226  0.5056  0.1590
  702W        W 4766   9.303   1.690   8.058 -0.2480 -0.1494  0.0208
  703W        W 4767   4.109   4.980  11.366 -0.1618  0.0277  0.4582
  704W        W 4768   8.448  10.039  10.178 -0.0772  0.3930 -0.0730
  705W        W 4769   3.990   0.422  10.148  0.0454  0.4214  0.1360
  706W        W 4770   0.055   2.069   0.371 -0.0371 -0.2356  0.4417
  707W        W 4771   4.415   5.320   2.853  0.0156 -0.1256  0.2995
  708W        W 4772   6.461   4.594   8.822  0.4328 -0.0867  0.1738
  709W        W 4773   9.916   7.302   8.342 -0.1917  0.2794 -0.1219
  710W        W 4774   4.840   5.795   9.589  0.3368 -0.1789  0.0633
  711W        W 4775   9.024   9.409   9.908 -0.1011 -0.1315 -0.0676
  712W        W 4776   5.235   4.577   0.409 -0.2471  0.0811 -0.2635
  713W        W 4777   8.949  10.420   1.686  0.3142 -0.3453 -0.0457
  714W        W 4778   8.348   5.919   2.976 -0.0929 -0.2892  0.0080
  715W        W 4779   6.071   7.831   2.598  0.0463 -0.2788  0.3005
  716W        W 4780   7.741   9.600  10.601 -0.2786  0.0368  0.2424
  717W        W 4781   2.100   5.592   9.202 -0.5891  0.2962  0.2416
  718W        W 4782   7.781   7.770  10.966  0.0066 -0.0223 -0.2263
  719W        W 4783   9.275   2.425   9.498  0.0714 -0.1169 -0.1353
  720W        W 4784   9.226   2.627   2.379  0.1048  0.2288 -0.1651
  721W        W 4785   2.514   5.895   8.583  0.2317 -0.1219 -0.1167
  722W        W 4786   2.124   0.517   8.077  0.0437 -0.1245  0.0203
  723W        W 4787   6.089  10.183  11.112  0.3760  0.2247  0.1365
  724W        W 4788   8.510   1.221   3.160 -0.0435 -0.0959 -0.0638
  725W        W 4789   1.769   8.201  11.317 -0.1378  0.1181  0.2164
  726W        W 4790   8.757   9.412   2.119 -0.3303  0.1264 -0.0114
  727W        W 4791   4.672   1.294   9.371 -0.0658  0.0504 -0.0158
  728W        W 4792   5.800   6.924   8.451 -0.0815  0.1565 -0.2095
  729W        W 4793   4.289   3.228   0.457 -0.5669  0.1971 -0.2019
  730W        W 4794   9.842   9.874   9.321 -0.0525  0.1705  0.1885
  731W        W 4795   2.292   8.079  10.512 -0.1401 -0.0059 -0.1733
  732W        W 4796   4.490   9.714   0.557  0.1618 -0.0651 -0.2085
  733W        W 4797   2.092   7.899  11.018 -0.4422 -0.1182  0.2249
  734W        W 4798   9.404   8.060  10.023 -0.0468 -0.0383  0.0062
  735W        W 4799   7.779   7.585   0.641 -0.0335 -0.2475  0.0650
  736W        W 4800  10.569   6.764   3.231  0.1254  0.3701 -0.3112
  737W        W 4801   6.840   2.122   0.228  0.0754 -0.0542 -0.0290
  738W        W 4802   6.898   4.942  10.441  0.3593 -0.3350  0.3141
  739W        W 4803   7.810   1.429   3.391  0.0229 -0.1436 -0.0386
  740W        W 4804   6.971   8.679   1.347 -0.0673 -0.1176 -0.0887
  741W        W 4805   5.930   6.678   9.145 -0.1816 -0.1180  0.2459
  742W        W 4806   7.169   1.825   1.236 -0.1381 -0.4351  0.3091
  743W        W 4807   3.446   6.854   7.793 -0.4432 -0.1397 -0.1322
  744W        W 4808   6.307   0.967  11.066  0.0444  0.4094 -0.0617
  745W        W 4809   2.460   3.387   0.254 -0.0657 -0.0465 -0.1736
  746W        W 4810   8.921   9.916  10.910 -0.1785  0.1688  0.0675
  747W        W 4811   6.689   4.036   0.936  0.0350 -0.3772 -0.2228
  748W        W 4812   3.945   4.706   7.751  0.1544  0.0218  0.2379
  749W        W 4813   6.066   2.487  11.072  0.1617 -0.6076 -0.3101
  750W        W 4814   9.661   6.668  10.674  0.1645 -0.0018 -0.0031
  751W        W 4815   3.958   3.510  10.085  0.1051 -0.0830  0.0574
  752W        W 4816   1.879   5.432   9.686 -0.0937 -0.1231  0.1839
  753W        W 4817   5.309  10.428   8.848  0.3062  0.0761 -0.0054
  754W        W 4818   4.059   5.849   2.088 -0.1051 -0.2134  0.3245
  755W        W 4819  10.303   6.475   9.629 -0.0932  0.1838  0.1641
  756W        W 4820   6.667   9.235  10.467  0.1626 -0.1676  0.0973
  757W        W 4821   3.400   7.932  11.208 -0.2583  0.4587 -0.1244
  758W        W 4822   1.461   8.835  11.414  0.2267 -0.0154 -0.1799
  759W        W 4823   7.618   0.947   1.219  0.4431 -0.1885 -0.2546
  760W        W 4824   9.775   7.151   1.957  0.3142  0.1819  0.0486
  761W        W 4825   7.764   7.889   1.315  0.1389  0.0811  0.1001
  762W        W 4826   1.669   4.500   9.931  0.0689 -0.0955 -0.3009
  763W        W 4827  10.086   6.593   1.747 -0.0440  0.0630 -0.2447
  764W        W 4828  10.166   0.109   0.307  0.1505  0.0151 -0.2031
  765W        W 4829   8.943   2.089   1.593  0.2293 -0.0540 -0.2215
  766W        W 4830   1.268   2.981   3.171  0.1653 -0.1706 -0.1741
  767W        W 4831   5.418   9.836  11.050  0.2342  0.2165  0.0971
  768W        W 4832   3.506   7.479   0.463 -0.1317  0.3071 -0.0985
  769W        W 4833   0.843  10.494   0.747 -0.0471  0.0552 -0.1191
  770W        W 4834   0.744   7.793  11.368  0.1961 -0.1125  0.0404
  771W        W 4835   4.171   0.981   8.008 -0.1988 -0.0993 -0.1051
  772W        W 4836   9.276   7.683  10.393 -0.0579  0.0116 -0.0114
  773W        W 4837   2.108   0.352   8.546  0.2141  0.0742 -0.0329
  774W        W 4838   6.540   9.685   0.605  0.0902  0.0672 -0.0842
  775W        W 4839   0.723   6.193   2.961  0.1385 -0.0953 -0.0135
  776W        W 4840   4.568   4.764   3.237  0.0300 -0.2104 -0.0450
  777W        W 4841   1.117   0.792  10.906 -0.0693 -0.1798  0.0036
  778W        W 4842   3.179   0.057   9.945  0.0665 -0.1268  0.2181
  779W        W 4843  10.144   2.160  10.268 -0.2961 -0.0945  0.0128
  780W        W 4844   0.111   9.730   8.913 -0.0369 -0.0370  0.2918
  781W        W 4845   5.529   0.569   7.576  0.2384 -0.0329 -0.2417
  782W        W 4846   8.663   3.146   7.875  0.0920  0.1634 -0.0789
  783W        W 4847   6.146   9.255   8.875  0.1775  0.3473 -0.1777
  784W        W 4848   2.654   5.988   2.268  0.4957 -0.0470  0.1294
  785W        W 4849   4.182   3.950   7.274  0.2941 -0.2049 -0.2766
  786W        W 4850   7.519   4.574   3.209 -0.0180  0.1324  0.1439
  787W        W 4851   1.023   0.458   1.397 -0.2631 -0.0768  0.1812
  788W        W 4852   2.550   9.944  11.370  0.1817  0.0793 -0.1753
  789W        W 4853   8.177   9.534   2.107  0.0072 -0.0222  0.2755
  790W        W 4854   8.571   7.049   0.178  0.2309 -0.1483  0.0123
  791W        W 4855   4.620   8.579   0.050 -0.0568  0.1668 -0.1441
  792W        W 4856   9.612   0.114   9.596  0.2236  0.1304  0.4322
  793W        W 4857   5.910   0.824   0.587 -0.1187  0.1399 -0.0388
  794W        W 4858   2.459   5.961   0.522 -0.0175 -0.0415  0.0831
  795W        W 4859   1.624   4.278   7.579  0.1818 -0.2673 -0.0272
  796W        W 4860   0.031   7.693   9.282 -0.1359 -0.0360  0.1418
  797W        W 4861   1.634   9.106  10.936 -0.1700  0.2389  0.3803
  798W        W 4862   8.063   3.846   2.394 -0.4807  0.1281  0.1777
  799W        W 4863   4.331   7.164   1.054 -0.1332  0.0211  0.0629
  800W        W 4864   0.919   2.580   9.382  0.1226 -0.3010  0.3658
  801W        W 4865   3.489   8.968  10.756  0.0760  0.1727 -0.0669
  802W        W 4866   1.553   8.373   0.723  0.0502  0.1330 -0.2512
  803W        W 4867  10.403   2.816   8.236  0.1234  0.0786  0.1621
  804W        W 4868   9.705   6.207   2.428 -0.2864 -0.0948 -0.1026
  805W        W 4869   7.101   5.965   3.747  0.1865  0.0887  0.1125
  806W        W 4870   4.198   3.468  11.075 -0.0645  0.0230  0.0950
  807W        W 4871   6.586   9.001   3.842 -0.1449 -0.1460  0.2635
  808W        W 4872   5.800   8.512   0.886  0.2028 -0.0009  0.4736
  809W        W 4873   3.059   1.319   7.817  0.2061  0.0491 -0.0924
  810W        W 4874   2.098   4.484   7.943  0.2907  0.0929  0.3179
  811W        W 4875   1.773   5.862   2.298 -0.0598  0.1323  0.0028
  812W        W 4876   1.281   9.214  10.128  0.0387  0.1135 -0.0178
  813W        W 4877  10.514   1.416   9.979  0.3324  0.2500  0.0533
  814W        W 4878   5.903   7.374   8.734 -0.2197 -0.2289 -0.1641
  815W        W 4879   2.561   9.103   8.650 -0.1385  0.0195 -0.2332
  816W        W 4880   0.994   0.554   9.011  0.3145  0.2074  0.1638
  817W        W 4881   2.002   3.473   2.505  0.0598 -0.1081 -0.0668
  818W        W 4882   4.205   8.814  11.304  0.2311  0.1484 -0.1100
  819W        W 4883   1.308   4.966   2.730  0.2830  0.1260 -0.1268
  820W        W 4884   0.809   9.579   2.180 -0.1667 -0.0234 -0.0880
  821W        W 4885   7.068   2.021   0.652 -0.1434 -0.0640  0.0673
  822W        W 4886   2.397   3.932  10.055 -0.0119 -0.0757 -0.0558
  823W        W 4887   5.308   8.543   9.722  0.0651  0.1248 -0.0924
  824W        W 4888  10.382   6.594  11.471 -0.1274 -0.0580  0.2690
  825W        W 4889   1.044   1.669  11.178  0.0475  0.0262  0.3177
  826W        W 4890   8.945   1.473   9.655 -0.0917  0.2797 -0.0937
  827W        W 4891   3.956   1.538  10.392  0.1226  0.0773  0.0934
  828W        W 4892   2.220   3.160   8.784  0.0275 -0.0232  0.2088
  829W        W 4893   8.091   1.982   1.860  0.2811  0.1584  0.2458
  830W        W 4894   7.292   4.031   4.401  0.0409 -0.0130 -0.0923
  831W        W 4895   9.628   5.439   8.592  0.0411 -0.2283 -0.2892
  832W        W 4896   3.770   0.408   3.262 -0.0037 -0.0609 -0.3141
  833W        W 4897   4.607   4.777  10.709  0.1496  0.2823  0.0616
  834W        W 4898   1.875   2.715   4.337 -0.1706  0.3135  0.3022
  835W        W 4899   3.713   6.361   9.988  0.1964 -0.0010  0.3117
  836W        W 4900   6.324   7.667   7.861  0.1511  0.0765 -0.4206
  837W        W 4901   0.006   8.786   1.508 -0.5434  0.2602  0.1560
  838W        W 4902   8.177   5.555   9.323  0.4277 -0.1374 -0.0819
  839W        W 4903   2.962   8.696   2.774  0.2864 -0.3181 -0.1845
  840W        W 4904   5.838   7.634  10.980 -0.0691  0.0169  0.1604
  841W        W 4905   8.982   7.661   7.688  0.2189 -0.2114 -0.0626
  842W        W 4906   4.667   6.129   0.451 -0.1356 -0.4675 -0.2575
  843W        W 4907   2.975   1.003   0.747  0.0944  0.0336 -0.0043
  844W        W 4908   9.981   0.752  11.199 -0.2303  0.3361 -0.1439
  845W        W 4909   3.779   7.913  10.176  0.1974 -0.1118 -0.1599
  846W        W 4910  10.361   2.406   1.814 -0.1077  0.1807 -0.1832
  847W        W 4911   3.700  10.155  11.205  0.2101  0.3698  0.0352
  848W        W 4912   6.364   3.225  10.619 -0.1595  0.1051  0.0078
  849W        W 4913   7.932   4.462   0.190 -0.0916 -0.4661 -0.3314
  850W        W 4914   8.137   9.463  10.372  0.0330  0.1409  0.2815
  851W        W 4915   3.693  10.405   7.938  0.2582 -0.0972  0.1806
  852W        W 4916   6.481   8.785   7.458 -0.0445  0.3749  0.2984
  853W        W 4917   5.933   7.024  11.546  0.2178  0.1337 -0.2414
  854W        W 4918   2.026   3.099   0.201 -0.3002 -0.2550 -0.1422
  855W        W 4919   0.678   1.982   8.772 -0.2623  0.2379 -0.3491
  856W        W 4920   1.111   4.275   9.484  0.4511  0.0886 -0.1007
  857W        W 4921   9.388  10.389   0.864  0.0862 -0.3192 -0.1666
  858W        W 4922  10.425   0.840   1.697 -0.1767 -0.2176  0.0725
  859W        W 4923   5.468   7.983   7.313 -0.0180  0.0661  0.0762
  860W        W 4924   9.340   5.038   1.356 -0.0195  0.0700  0.2056
  861W        W 4925   1.948   4.368   3.808  0.1133 -0.1512  0.0675
  862W        W 4926   5.618   6.516   2.137 -0.0173  0.2305 -0.0533
  863W        W 4927   6.362   2.254   9.693  0.0649 -0.0230 -0.1357
  864W        W 4928   0.862   4.979   0.852  0.1646 -0.0895  0.2535
  865W        W 4929   7.573   5.479   1.404 -0.1416 -0.1586 -0.1431
  866W        W 4930   3.656   6.623   0.524 -0.0987  0.1122  0.0759
  867W        W 4931   1.917   8.050   0.678 -0.2298  0.1948 -0.2216
  868W        W 4932   4.371   5.017   0.654 -0.1888  0.2103  0.2770
  869W        W 4933   2.630   2.951   9.063  0.1815  0.2788 -0.1167
  870W        W 4934   4.286   4.458   9.993 -0.1145 -0.2453  0.1951
  871W        W 4935   3.099   4.803   3.133 -0.1811  0.0503  0.1540
  872W        W 4936   5.296   1.541   0.920 -0.2470 -0.0622 -0.2080
  873W        W 4937   6.193   3.477  11.489  0.1368  0.2637  0.2171
  874W        W 4938   9.382  10.655  10.635 -0.2509  0.1154 -0.1067
  875W        W 4939   0.900   4.678   8.688 -0.2554 -0.0434  0.3038
  876W        W 4940  10.348   5.342  11.159  0.0050 -0.1225 -0.1860
  877W        W 4941   0.082   6.494   9.935 -0.0897  0.0856  0.1841
  878W        W 4942   2.006   8.252   9.122 -0.4423 -0.1822 -0.0362
  879W        W 4943   5.222   9.302   7.352  0.0898 -0.2399 -0.1134
  880W        W 4944   7.332   5.884   1.108 -0.1295 -0.0432  0.0882
  881W        W 4945   7.581  10.547   0.391  0.5427 -0.0957  0.1670
  882W        W 4946   8.269   5.994   9.557 -0.0692  0.1874 -0.0132
  883W        W 4947   8.628   8.401   1.195  0.1123  0.2366 -0.3570
  884W        W 4948   1.832   7.931  10.610  0.0503 -0.3388 -0.1817
  885W        W 4949  10.059   2.772   3.867 -0.2710 -0.0893 -0.0398
  886W        W 4950   4.785   0.597   2.822 -0.1987 -0.0889 -0.0299
  887W        W 4951   7.308   0.299   9.508  0.2185  0.0296 -0.1193
  888W        W 4952  10.003  10.589   9.864 -0.2203  0.0539  0.3682
  889W        W 4953   2.267   2.824   1.165 -0.2048 -0.0263 -0.3423
  890W        W 4954   9.422   3.720   8.796  0.0941  0.0528 -0.0926
  891W        W 4955   7.293   7.745   1.222  0.0312 -0.0759 -0.0340
  892W        W 4956   4.528   2.571  10.998 -0.0798 -0.2058  0.1753
  893W        W 4957   4.104   7.883   0.257 -0.1491  0.1262  0.1141
  894W        W 4958   7.146   8.221   1.255  0.1763 -0.1858 -0.2255
  895W        W 4959   1.353   7.801   9.599  0.1810  0.1293 -0.0889
  896W        W 4960   2.513   6.833   1.584  0.1038  0.3459  0.1891
  897W        W 4961   7.184   3.827   2.730 -0.2188 -0.3096 -0.3263
  898W        W 4962   5.239   7.530   9.976  0.2268  0.0206 -0.0486
  899W        W 4963   4.120  10.415   0.580 -0.0544  0.0840 -0.0420
  900W        W 4964   5.654   7.302   8.009  0.1583 -0.1198  0.2004
  901W        W 4965  10.637   6.748   8.963  0.2924 -0.1576 -0.0036
  902W        W 4966   0.459   1.290  10.547  0.1922  0.1436 -0.2548
  903W        W 4967   4.009   6.235   1.178 -0.1825 -0.2538 -0.1991
  904W        W 4968   3.193   1.994  10.540 -0.1492 -0.1265 -0.0917
  905W        W 4969   0.094   5.284   4.156  0.2175 -0.0679 -0.1556
  906W        W 4970   3.909   4.242   1.727 -0.0033 -0.0797 -0.0191
  907W        W 4971   9.279   2.944   9.422 -0.1636 -0.0851  0.4135
  908W        W 4972   6.798   0.645   3.368 -0.1816 -0.1423 -0.1117
  909W        W 4973   6.787   3.554   9.520  0.1875  0.2165 -0.0683
  910W        W 4974   9.636   1.909   8.501 -0.1116  0.4528  0.0424
  911W        W 4975   9.916   8.816  11.132  0.2100 -0.1215  0.1306
  912W        W 4976   3.358  10.276   1.126 -0.0589  0.2615  0.0756
  913W        W 4977   5.990   5.581   9.236  0.2543 -0.0350 -0.2311
  914W        W 4978   6.242   0.988   1.636  0.2001 -0.0156 -0.1619
  915W        W 4979   2.947   8.996  11.488  0.2654 -0.1939  0.1177
  916W        W 4980   7.934   8.066   9.290  0.2598  0.2606  0.2337
  917W        W 4981   9.855   8.187   9.836 -0.3264  0.0350 -0.0904
  918W        W 4982   5.791   4.231   3.023  0.3730 -0.2077  0.1511
  919W        W 4983   5.135   0.345  10.246 -0.0469  0.0386 -0.1652
  920W        W 4984   9.164   1.795   3.588  0.0093  0.1998  0.0399
  921W        W 4985   3.969   3.390  10.614 -0.3516 -0.0360  0.2844
  922W        W 4986   9.227   6.835  10.994 -0.1084  0.0603  0.1421
  923W        W 4987   3.446   6.502   9.143 -0.2541  0.2483 -0.3354
  924W        W 4988   7.024   0.602   1.527  0.2655 -0.0167  0.2438
  925W        W 4989   7.116   6.975   8.107  0.0456 -0.0903 -0.2231
  926W        W 4990   8.058   3.685   0.391  0.2161  0.3370 -0.0720
  927W        W 4991   4.597   5.881   9.145 -0.1016  0.1191  0.1932
  928W        W 4992   2.164   6.760  10.151 -0.1416  0.0187  0.0342
  929W        W 4993   1.678   0.921  10.358  0.2661  0.1330 -0.1326
  930W        W 4994   7.206   8.726  11.490  0.2533  0.1800 -0.1211
  931W        W 4995  10.613   8.645   8.929 -0.2291 -0.2240 -0.0514
  932W        W 4996   5.709   1.188  10.347 -0.0731 -0.0975  0.0497
  933W        W 4997   3.715  10.457   9.249  0.0433  0.1498  0.1805
  934W        W 4998   7.851   2.265   0.651 -0.0613  0.0580  0.4669
  935W        W 4999   5.551   4.216   8.940  0.1477  0.2869  0.1858
  936W        W 5000   9.684   3.868  10.442  0.2710  0.0625 -0.0015
  937W        W 5001   9.939   0.486   0.496 -0.2465  0.0565  0.1627
  938W        W 5002   5.039   6.927   8.595  0.0499  0.2762  0.2895
  939W        W 5003   5.529   7.267   0.937  0.1389  0.2111 -0.1912
  940W        W 5004   6.859   3.328   1.951 -0.0632  0.2395 -0.2470
  941W        W 5005   8.552   1.803   2.761 -0.0262  0.2058  0.2354
  942W        W 5006   2.128   3.111   3.460  0.1911  0.1086  0.0001
  943W        W 5007   4.037   1.798   2.052  0.1935  0.0628  0.0924
  944W        W 5008   9.655   1.580   8.929  0.0433  0.1469 -0.1259
  945W        W 5009   4.794   4.140   8.923 -0.6946  0.0267  0.0717
  946W        W 5010   1.884   2.759   8.693 -0.1258 -0.0462  0.2166
  947W        W 5011  10.149   3.794   9.626  0.0385 -0.0812  0.0241
  948W        W 5012   9.597   9.400   3.358  0.1834  0.0250  0.0596
  949W        W 5013   3.217   1.981   8.585 -0.0021 -0.1227  0.1296
  950W        W 5014   9.324   3.590  11.349 -0.1672 -0.0029 -0.4070
  951W        W 5015   2.495   8.414   1.359  0.2829 -0.2260  0.1443
  952W        W 5016   9.362   2.439   1.688  0.2688  0.0069 -0.0779
  953W        W 5017   6.240   4.029   2.784  0.3182  0.0543 -0.1907
  954W        W 5018   7.966   3.022  11.008 -0.0358  0.2481 -0.2815
  955W        W 5019   6.202   0.704  10.561 -0.2682  0.0810 -0.1955
  956W        W 5020   1.003   7.399  11.208 -0.1091 -0.0426 -0.2059
  957W        W 5021   6.805   7.008   1.335 -0.0711 -0.3094  0.0558
  958W        W 5022   5.778  10.435   3.390  0.1443  0.3191  0.0965
  959W        W 5023   1.091   2.022   3.595 -0.5390  0.0039 -0.1548
  960W        W 5024   2.122   5.291  10.140  0.0123  0.1237 -0.0847
  961W        W 5025   2.979   1.272   0.329 -0.1406  0.3098 -0.3586
  962W        W 5026   9.728   5.803   9.849  0.0881 -0.2659  0.1770
  963W        W 5027   6.618   2.677   0.828 -0.0236  0.2392 -0.2280
  964W        W 5028   0.809   0.918   9.298 -0.2004 -0.0950 -0.1393
  965W        W 5029   8.809   7.019  10.639  0.0035  0.1034 -0.1172
  966W        W 5030   7.247   1.326   1.268  0.2057  0.1673  0.3460
  967W        W 5031   4.326   7.170   9.005 -0.2652 -0.0169  0.3261
  968W        W 5032   3.296   5.607   3.076 -0.2309 -0.1268  0.2401
  969W        W 5033   2.198   4.910   7.633  0.0099  0.1958 -0.1782
  970W        W 5034   1.465   1.980   3.192  0.1867  0.2108 -0.1049
  971W        W 5035   7.019   7.771   2.340 -0.1224  0.0448 -0.1694
  972W        W 5036   4.978   5.075   2.297 -0.1125  0.1041 -0.1601
  973W        W 5037   7.791   8.157   2.557 -0.3619 -0.2587  0.1837
  974W        W 5038   5.957   3.814   9.774  0.0102 -0.0248 -0.2306
  975W        W 5039   0.291  10.343  11.272  0.0620 -0.0971 -0.0476
  976W        W 5040   6.968   7.151   3.748  0.3017  0.0636  0.0792
  977W        W 5041   1.524   4.245   4.407 -0.2813 -0.0658  0.1349
  978W        W 5042   4.408   8.988  10.616  0.0675 -0.0868 -0.1342
  979W        W 5043   1.277   3.610   3.169 -0.1059  0.1217  0.0642
  980W        W 5044   5.699   8.262   1.317  0.1593 -0.2104 -0.5060
  981W        W 5045   6.008   8.787   9.185 -0.1294  0.0824 -0.1483
  982W        W 5046   9.670   5.433   0.493  0.1055 -0.1439 -0.0557
  983W        W 5047   6.688  10.373  10.503  0.0740 -0.0505  0.3346
  984W        W 5048   2.134   9.249   2.671 -0.0570 -0.1561  0.1684
  985W        W 5049   8.947   0.885  11.031 -0.1044  0.1247 -0.2533
  986W        W 5050   1.962   6.689   1.475 -0.0714  0.0825 -0.1632
  987W        W 5051   5.536   6.946   8.886 -0.0214  0.3182 -0.0743
  988W        W 5052   1.541   4.800   0.917 -0.6155 -0.2837  0.2186
  989W        W 5053   4.944   9.458   0.807  0.1395 -0.1649  0.2380
  990W        W 5054   5.397   7.426   9.020 -0.1356 -0.2423 -0.2173
  991W        W 5055   4.667  10.305   0.513  0.3951 -0.0084  0.0165
  992W        W 5056   7.947   6.600  11.527 -0.2242  0.0969 -0.1958
  993W        W 5057   3.498   1.220   8.147 -0.1060  0.3463  0.1040
  994W        W 5058  10.264   5.817   2.201  0.0748  0.2400 -0.2480
  995W        W 5059   0.879   4.662  10.552  0.0124  0.0885 -0.0813
  996W        W 5060   4.948  10.183   1.925  0.3106  0.0133 -0.2133
  997W        W 5061   2.832   7.184   9.021 -0.1660  0.2957  0.2549
  998W        W 5062   9.713   4.857   2.771  0.1236 -0.1603 -0.1746
  999W        W 5063   1.566   0.911   3.349 -0.0234 -0.0090 -0.0324
 1000W        W 5064   3.615   8.029   3.192  0.1508 -0.1865  0.0769
 1001W        W 5065   2.439   8.657   2.805  0.1473 -0.1519 -0.4744
 1002W        W 5066   0.405   7.174   0.372 -0.0875  0.0046  0.0008
 1003W        W 5067   1.401   7.598  10.929 -0.2156  0.1698  0.0052
 1004W        W 5068   2.435   1.193   9.984  0.4389  0.2351  0.0161
 1005W        W 5069   9.333   7.069   1.471 -0.3366  0.0149  0.2154
 1006W        W 5070   7.964   4.021  11.498 -0.2283 -0.1065 -0.2112
 1007W        W 5071   7.235  10.246  10.918  0.0809 -0.0359 -0.2002
 1008W        W 5072   5.974  10.415   9.345  0.1099  0.1642 -0.1613
 1009W        W 5073   3.273   9.039   0.636 -0.1495  0.2870  0.1104
 1010W        W 5074   1.313   2.480   0.370 -0.3536 -0.0076 -0.0023
 1011W        W 5075   8.402   6.169   1.074 -0.0979  0.0166 -0.2280
 1012W        W 5076   8.468   2.914   2.660 -0.3729  0.0897  0.0494
 1013W        W 5077   3.502   1.159   8.687 -0.1419  0.0765  0.1427
 1014W        W 5078   5.477   0.763   1.905 -0.2875 -0.0361 -0.1855
 1015W        W 5079   3.701   3.808   9.811 -0.0153  0.1254  0.1700
 1016W        W 5080   4.625   8.869   2.750 -0.1052 -0.0127  0.1532
 1017W        W 5081   0.935   1.782   9.100 -0.2474 -0.1331 -0.0329
 1018W        W 5082   2.375   0.741   1.671 -0.1784 -0.0417 -0.3673
 1019W        W 5083   7.270   8.114   3.337 -0.1599 -0.2221 -0.0137
 1020W        W 5084   0.066   1.704   0.738 -0.0226 -0.1220  0.0957
 1021W        W 5085   0.787   7.401   0.152  0.2004 -0.1680 -0.2218
 1022W        W 5086   5.469   6.313  10.035  0.2504 -0.4105  0.0413
 1023W        W 5087   3.834   2.204   1.200 -0.0074 -0.0966 -0.1719
 1024W        W 5088   2.868   7.361   2.290 -0.0599 -0.2906  0.3145
 1025W        W 5089   2.859   5.787   3.426 -0.0766 -0.1313  0.0871
 1026W        W 5090   3.600   9.366   1.545  0.2055  0.0344 -0.2320
 1027W        W 5091   0.284   5.440   9.029  0.0689  0.4189  0.4107
 1028W        W 5092   8.856   1.604   0.609  0.0415 -0.1256  0.0878
 1029W        W 5093  10.032   3.648   8.934  0.2293 -0.2244  0.0944
 1030W        W 5094   7.046   4.727  11.442  0.1371 -0.0792  0.1114
 1031W        W 5095   6.868   8.171   8.482  0.0197 -0.2223  0.0581
 1032W        W 5096   5.608   2.793   0.115  0.1656 -0.3192  0.0877
 1033W        W 5097   5.572   7.745   8.565  0.0069  0.0287  0.0148
 1034W        W 5098   7.971   2.215   9.055 -0.0282  0.1754 -0.0280
 1035W        W 5099   9.115   7.364   3.711  0.3022 -0.1164  0.0820
 1036W        W 5100   7.187   3.347   3.577 -0.1699  0.2517 -0.2357
 1037W        W 5101   1.522   4.369   1.230 -0.1033  0.2674 -0.1178
 1038W        W 5102   0.277   4.832   1.978 -0.3109 -0.0679 -0.0298
 1039W        W 5103   6.382   6.953  10.384  0.1999  0.0526 -0.3018
 1040W        W 5104   2.863   6.872   0.748 -0.1519 -0.0701  0.0530
 1041W        W 5105   5.738   3.303   8.169 -0.2391  0.0809 -0.0646
 1042W        W 5106   5.743   2.550   9.166  0.0977 -0.3481 -0.1641
 1043W        W 5107   3.622   2.942   3.351  0.1164 -0.0330  0.2572
 1044W        W 5108   6.496   8.671  10.489 -0.0307  0.0660  0.1539
 1045W        W 5109   2.267   3.405   2.949 -0.0500  0.1850 -0.0716
 1046W        W 5110   7.752   5.276  10.517 -0.0044 -0.0008 -0.2445
 1047W        W 5111   1.204   7.450   2.704 -0.0083  0.0916  0.1721
 1048W        W 5112   4.190   9.666   9.732  0.1191 -0.1762  0.2034
 1049W        W 5113   5.400   2.658   2.197 -0.0465 -0.1643 -0.1038
 1050W        W 5114   7.137   5.717   1.561  0.0914  0.0441 -0.2579
 1051W        W 5115   0.767  10.642  10.959 -0.0397  0.2909 -0.2856
 1052W        W 5116   3.433   2.090   8.138  0.1351 -0.4053 -0.0366
 1053W        W 5117   8.447   7.032   1.663 -0.2998  0.1521  0.0421
 1054W        W 5118   4.637   7.038   1.902 -0.2747 -0.3091 -0.0793
 1055W        W 5119   3.388   4.201   8.022 -0.0320  0.0457 -0.3325
 1056W        W 5120  10.597   0.299   3.032  0.0355 -0.1660 -0.0964
 1057W        W 5121   6.174   4.113   3.788 -0.1669 -0.1988  0.1274
 1058W        W 5122   9.325   8.905   1.477 -0.3102  0.1355 -0.0403
 1059W        W 5123  10.030   7.348   0.142 -0.0842  0.0462  0.2922
 1060W        W 5124   6.705   3.224   2.445 -0.1034  0.0256  0.0634
 1061W        W 5125   5.806   4.930   8.483 -0.2827  0.4602 -0.2536
 1062W        W 5126   4.897   0.893   1.968 -0.4769 -0.1081 -0.2333
 1063W        W 5127  10.253   9.455   1.869  0.1723  0.1665 -0.0534
 1064W        W 5128   2.859   8.821   9.562  0.4173 -0.4045  0.2202
 1065W        W 5129   7.958   8.550  10.888 -0.0426  0.0281  0.0542
 1066W        W 5130   0.802   4.040  10.352 -0.1771 -0.0158 -0.1875
 1067W        W 5131   8.080  10.355   7.267 -0.0028 -0.1397  0.1367
 1068W        W 5132   3.248   1.288   1.929  0.0633  0.3306 -0.1784
 1069W        W 5133   0.361   9.294   2.322 -0.0223 -0.0150 -0.0666
 1070W        W 5134   3.744   8.914   1.650  0.0323  0.2427  0.0595
 1071W        W 5135   6.096   2.585   0.076  0.0694 -0.2146  0.3645
 1072W        W 5136   1.741   9.812   8.370  0.2257 -0.0540 -0.3198
 1073W        W 5137   6.450   5.010   1.027 -0.0604  0.0958 -0.0095
 1074W        W 5138   0.426   8.448   2.646 -0.2590 -0.1615 -0.0900
 1075W        W 5139   0.248   9.647  10.195 -0.0419  0.1330  0.3352
 1076W        W 5140   0.304   3.020   3.508 -0.1661 -0.1810  0.1777
 1077W        W 5141   5.134   4.263   3.678 -0.1529 -0.0924 -0.3303
 1078W        W 5142   3.738   9.346   2.786 -0.0197 -0.0421 -0.2232
 1079W        W 5143   7.384   0.370  10.945  0.0520  0.2376 -0.1220
 1080W        W 5144   7.439   7.809  11.345 -0.0483 -0.0639  0.1566
 1081W        W 5145   8.859   3.784   1.745 -0.1673  0.0462  0.2312
 1082W        W 5146   5.553   9.829   9.970 -0.1323 -0.1749  0.3613
 1083W        W 5147  10.554   6.229   3.121  0.1187  0.1093  0.1961
 1084W        W 5148   9.356   3.964   9.723  0.1035  0.0929 -0.1272
 1085W        W 5149   0.432   1.797   9.171 -0.0616  0.0247 -0.1334
 1086W        W 5150   4.955   5.347   9.742  0.0287 -0.1039  0.3634
 1087W        W 5151   1.560   6.657   3.196 -0.4192 -0.2294 -0.1215
 1088W        W 5152   2.010   0.841   0.572 -0.0431 -0.2422 -0.2474
 1089W        W 5153   7.711   6.502   8.995  0.3741  0.5461 -0.2172
 1090W        W 5154   3.180   7.412   8.123 -0.1640 -0.2351  0.0559
 1091W        W 5155   1.017  10.466  11.360  0.2821  0.0429 -0.0025
 1092W        W 5156   2.054   6.007   3.062 -0.0950  0.0325  0.4153
 1093W        W 5157   7.079   8.998   3.497  0.1459  0.0668 -0.0830
 1094W        W 5158   0.646   2.916   3.849 -0.0257  0.2636  0.2119
 1095W        W 5159   7.326   1.523   2.243  0.1510 -0.1255  0.1052
 1096W        W 5160   1.444   1.110   0.890 -0.1004 -0.3149  0.0787
 1097W        W 5161   4.186   8.649   2.424 -0.0907 -0.1502 -0.4105
 1098W        W 5162   9.584   4.997  10.211  0.2082  0.2639 -0.3848
 1099W        W 5163   6.197   3.984   8.335 -0.0449 -0.2991  0.1815
 1100W        W 5164   6.466   7.275   1.661  0.2382 -0.2325  0.3031
 1101W        W 5165   1.653   7.624   2.946  0.0013 -0.1267  0.0776
 1102W        W 5166   6.036   4.424  10.394 -0.3302  0.1173 -0.1045
 1103W        W 5167   3.598   3.902   3.392 -0.0311 -0.1697 -0.3476
 1104W        W 5168   3.307   7.008   0.530  0.1232  0.1527  0.3817
 1105W        W 5169  10.183  10.206   9.553 -0.4582  0.3026  0.0256
 1106W        W 5170   7.507   5.485   7.825  0.0899 -0.0225 -0.0815
 1107W        W 5171  10.514   7.346   4.129 -0.0863 -0.0098 -0.1607
 1108W        W 5172   4.431   6.637  10.607  0.1830  0.3878 -0.0288
 1109W        W 5173   5.482   2.206   7.509 -0.1298 -0.2012  0.0751
 1110W        W 5174   1.495   9.226   0.861  0.1149  0.0055 -0.2248
 1111W        W 5175   1.130   4.704   9.793 -0.2083  0.1236 -0.0963
 1112W        W 5176   8.257   1.669   3.277 -0.1902  0.3128  0.0873
 1113W        W 5177   9.809   3.264   2.085 -0.0148  0.1857  0.1627
 1114W        W 5178   8.803   2.451   2.706  0.2534  0.0722 -0.0189
 1115W        W 5179   6.170   3.500   8.942 -0.1527 -0.1254 -0.1094
 1116W        W 5180   2.749   0.323  10.958 -0.0862  0.1068  0.1458
 1117W        W 5181   8.658   9.011   2.950 -0.0315  0.2810 -0.1632
 1118W        W 5182   4.963   4.013   3.107 -0.0663  0.1931  0.1021
 1119W        W 5183   9.350   4.706   0.935 -0.0812  0.3218  0.2900
 1120W        W 5184   8.169   3.351   3.542  0.1490 -0.0991 -0.1395
 1121W        W 5185   1.439   2.524  10.817 -0.0257 -0.1270 -0.2991
 1122W        W 5186   3.544   3.328  10.298  0.2957  0.1592 -0.0995
 1123W        W 5187   5.877   1.855   1.133  0.4335  0.1596  0.1367
 1124W        W 5188   0.394   8.040   3.399 -0.1397 -0.2414  0.3555
 1125W        W 5189   4.601  10.651   8.100 -0.0171 -0.1519  0.2710
 1126W        W 5190   8.249   9.786   1.141  0.3745 -0.0599 -0.3876
 1127W        W 5191   4.429   5.431   1.435 -0.0458 -0.0642 -0.3348
 1128W        W 5192   5.040   8.973   0.977 -0.0870  0.0750 -0.0803
 1129W        W 5193   0.113   1.275   1.459 -0.3406  0.2185  0.0076
 1130W        W 5194   8.809   6.275   9.083  0.0527  0.1618 -0.2173
 1131W        W 5195   5.863   3.894   8.742 -0.0394 -0.4355  0.1206
 1132W        W 5196   7.491   4.812   0.185 -0.0296  0.1391  0.0891
 1133W        W 5197   2.725   1.604  11.097 -0.2826  0.2678  0.1392
 1134W        W 5198   0.428   3.681   2.080  0.0627 -0.1636 -0.1768
 1135W        W 5199   1.684   2.602   8.215  0.2202 -0.0383  0.0937
 1136W        W 5200   9.920   2.554  11.011 -0.1576  0.1484  0.0769
 1137W        W 5201   2.604   0.594   8.817  0.4007  0.1072 -0.0816
 1138W        W 5202   4.766  10.098   8.039 -0.3465 -0.1073 -0.1790
 1139W        W 5203   4.434   6.893   8.577  0.2195  0.3020  0.0946
 1140W        W 5204   5.533   1.354   9.568  0.0742 -0.0769  0.2243
 1141W        W 5205   0.870   6.020   1.337 -0.4147 -0.0832  0.1860
 1142W        W 5206   4.338   7.738  11.403 -0.1686  0.0310  0.3199
 1143W        W 5207   0.924   1.025   8.670  0.0615 -0.0450  0.0533
 1144W        W 5208   3.956   4.412   2.463  0.2490 -0.3767 -0.0120
 1145W        W 5209   1.522   7.175   8.666 -0.0492 -0.2455 -0.1214
 1146W        W 5210   6.639   5.505   8.215  0.1052  0.0751 -0.1682
 1147W        W 5211   5.865   7.343   0.453 -0.0544 -0.1744  0.1921
 1148W        W 5212   6.665   0.294   9.431 -0.1796 -0.0328  0.1562
 1149W        W 5213   6.520   0.563  10.975 -0.1836 -0.0692  0.1843
 1150W        W 5214   0.363   4.989   3.007  0.2079 -0.2380  0.1353
 1151W        W 5215   7.619   3.277   3.777 -0.0116 -0.0039 -0.2359
 1152W        W 5216   2.808   5.222   8.052 -0.1742 -0.0158 -0.0989
 1153W        W 5217   2.236   8.785   1.945  0.2477  0.3656 -0.0577
 1154W        W 5218   1.918   8.357   1.065 -0.0409 -0.2633  0.1075
 1155W        W 5219   1.354   2.930  11.131 -0.2948 -0.0305  0.0250
 1156W        W 5220   4.259   8.090  10.097 -0.2361  0.1269  0.2592
 1157W        W 5221   6.725  10.656   3.701 -0.1128  0.1297 -0.1529
 1158W        W 5222   3.713   3.726   0.550 -0.1108 -0.2502  0.0163
 1159W        W 5223   1.415   7.486   3.365 -0.3174  0.2805  0.3194
 1160W        W 5224   0.019   2.398   1.388  0.0423 -0.4102 -0.0110
 1161W        W 5225  10.417   7.998   2.059 -0.2529 -0.0902  0.1445
 1162W        W 5226   5.057  10.553   1.597 -0.0862  0.0068 -0.1001
 1163W        W 5227   5.800   0.916   3.084 -0.1677  0.0596  0.0335
 1164W        W 5228   6.567   2.192   0.657 -0.1715  0.0656  0.4644
 1165W        W 5229   6.760   2.786   2.225  0.0377 -0.0263 -0.1495
 1166W        W 5230   9.879   2.136   2.060 -0.2191  0.2910 -0.1753
 1167W        W 5231   4.429   1.686   1.801 -0.0447 -0.2676  0.1591
 1168W        W 5232   7.041   4.735   3.165  0.1804  0.3359  0.1543
 1169W        W 5233   4.248   1.333   0.881  0.1095  0.0694  0.2612
 1170W        W 5234   0.520   1.430   9.761 -0.2558  0.1821 -0.3290
 1171W        W 5235   8.133   1.512   1.628 -0.1228  0.2037 -0.1501
 1172W        W 5236   0.029   4.661   4.300  0.0076 -0.1311  0.1388
 1173W        W 5237   5.537   3.858  11.289  0.2573 -0.0434 -0.0492
 1174W        W 5238   4.437   9.653   0.049  0.0058  0.0250  0.0056
 1175W        W 5239   6.160   0.642   8.727 -0.2049  0.0459  0.1383
 1176W        W 5240  10.621   2.133   9.813 -0.2176 -0.1137  0.2474
 1177W        W 5241   8.275   4.189   0.462  0.2235 -0.2111 -0.1653
 1178W        W 5242   8.895   8.424   8.358  0.0557  0.0135  0.2253
 1179W        W 5243   7.354   9.236   0.130  0.1170  0.1729  0.0309
 1180W        W 5244   2.408   0.516   9.322 -0.0389  0.0181  0.1222
 1181W        W 5245   0.470   6.489   0.452  0.2711 -0.0173  0.2292
 1182W        W 5246   9.615   6.728  10.143  0.3498  0.1283 -0.1634
 1183W        W 5247   2.384   7.267   0.315 -0.1045 -0.1255 -0.0964
 1184W        W 5248   6.157   9.278  11.559 -0.0462 -0.0160 -0.1236
 1185W        W 5249   2.836   0.165   7.730 -0.2210  0.1497 -0.1952
 1186W        W 5250   5.634   1.943   7.832 -0.1747 -0.0826 -0.1017
 1187W        W 5251  10.233   3.029   0.869  0.3472 -0.1251 -0.2029
 1188W        W 5252   6.797   1.454  10.607  0.0638  0.0570  0.2254
 1189W        W 5253   8.108   3.543  11.453  0.0521 -0.1158  0.0286
 1190W        W 5254   5.732   2.914   3.382 -0.1403 -0.1213  0.0690
 1191W        W 5255   3.475   4.235  10.291 -0.0741 -0.0313 -0.1102
 1192W        W 5256   8.060   7.768   7.165  0.0183  0.2437 -0.2008
 1193W        W 5257   9.163   5.530  11.205  0.2447  0.3736  0.1378
 1194W        W 5258   8.869   5.471   9.908 -0.3402  0.0189 -0.1295
 1195W        W 5259   3.884   2.935  10.049 -0.2387  0.1965  0.1521
 1196W        W 5260   0.098   1.868  11.395  0.0394  0.3765  0.0261
 1197W        W 5261   5.811   5.016   3.690  0.1203  0.0179  0.0679
 1198W        W 5262   0.595   1.870   0.119 -0.0997 -0.1643  0.1427
 1199W        W 5263   8.838   5.524   0.609  0.0843  0.2729 -0.2628
 1200W        W 5264   8.858   0.022  10.744 -0.0208 -0.0658 -0.1063
 1201W        W 5265   2.359   8.192  10.023 -0.1757  0.0093  0.1210
 1202W        W 5266   3.695   8.512  10.579  0.0159 -0.0250  0.1467
 1203W        W 5267   4.317   5.397   9.164  0.1804  0.2001  0.1741
 1204W        W 5268   2.509   6.132   9.376  0.0750 -0.0835  0.0048
 1205W        W 5269   8.823   2.008   8.631  0.1554  0.0243  0.0890
 1206W        W 5270  10.583   4.660   2.915 -0.0917  0.0185 -0.0591
 1207W        W 5271   8.211   5.992   1.538 -0.1486 -0.0619 -0.0098
 1208W        W 5272   9.904   6.406   3.679 -0.1825  0.1081 -0.2913
 1209W        W 5273  10.267   1.472  11.295  0.0856 -0.0499  0.2581
 1210W        W 5274   1.555   3.712  11.286  0.0211  0.0638  0.4279
 1211W        W 5275   3.664   7.971   0.406  0.0654 -0.0466 -0.1787
 1212W        W 5276   8.152   2.274  11.192 -0.0491 -0.1242  0.1191
 1213W        W 5277   1.703   4.720  11.160 -0.3144  0.2659 -0.0328
 1214W        W 5278  10.262   8.539   1.048 -0.0770  0.0569  0.2528
 1215W        W 5279   5.547   2.087  10.441  0.2962 -0.1843 -0.1268
 1216W        W 5280   8.327   3.582   7.881 -0.0815 -0.0063 -0.0176
 1217W        W 5281   6.279   0.015  11.104 -0.1626 -0.3085 -0.0290
 1218W        W 5282   3.695  10.378  10.678  0.1247 -0.1525 -0.0614
 1219W        W 5283   1.379   1.670  10.800  0.1438 -0.2327  0.0855
 1220W        W 5284   2.745   6.988   0.233 -0.0902 -0.0520 -0.1383
 1221W        W 5285   3.085   3.543  11.140 -0.1823 -0.0107  0.1896
 1222W        W 5286   0.150   2.790   8.823 -0.4684 -0.3350 -0.3484
 1223W        W 5287   0.363   3.930  10.068 -0.2063  0.1119 -0.1715
 1224W        W 5288   3.929   1.142  11.188  0.0230 -0.2672  0.4436
 1225W        W 5289   5.178   9.326  10.487  0.0027 -0.0464  0.3443
 1226W        W 5290   8.372  10.519   0.081 -0.0549  0.2402  0.0183
 1227W        W 5291   9.869   8.236   0.284  0.1577 -0.0034  0.0006
 1228W        W 5292  10.590   7.806   1.077  0.1970 -0.0204  0.2581
 1229W        W 5293   6.351   4.914   2.775 -0.2598  0.0422  0.2995
 1230W        W 5294   8.081   0.675   1.725  0.1608  0.0746 -0.0315
 1231W        W 5295   6.906   5.926   9.509  0.0847 -0.1705 -0.2519
 1232W        W 5296   3.596   1.799   0.925 -0.1044 -0.2319  0.1647
 1233W        W 5297   1.359   9.188   9.526  0.2778 -0.1947 -0.0538
 1234W        W 5298   7.740   5.416   2.625 -0.0403  0.1919 -0.3458
 1235W        W 5299   7.430  10.323   1.212  0.0047  0.3274  0.2670
 1236W        W 5300   7.536   2.674   0.748  0.2147 -0.2944 -0.0117
 1237W        W 5301   8.600   8.581   9.604 -0.0523 -0.2117  0.2111
 1238W        W 5302   4.087  10.046   3.094  0.0403  0.1853 -0.0191
 1239W        W 5303   4.673   9.053  11.467  0.1395  0.2239 -0.0117
 1240W        W 5304   3.514   3.056   1.095 -0.1376 -0.2336  0.2234
 1241W        W 5305   3.521   4.706  11.119 -0.0710 -0.0111  0.0939
 1242W        W 5306   8.588  10.571  10.350 -0.2392  0.0688  0.1967
 1243W        W 5307   9.025   8.073   3.970 -0.1187  0.0990 -0.0233
 1244W        W 5308   3.594   5.528  10.462 -0.1001  0.0236  0.0697
 1245W        W 5309   7.668   1.729   1.650 -0.0856 -0.1334  0.1124
 1246W        W 5310   8.304   0.386  10.312  0.0231 -0.4241  0.0590
 1247W        W 5311   7.386   5.532  10.915 -0.0432  0.1423  0.0325
 1248W        W 5312  10.554   5.120   2.106  0.0184  0.1215  0.2044
 1249W        W 5313   9.758   5.030   8.413  0.1552  0.0049  0.2844
 1250W        W 5314   7.186   9.445   2.099  0.2908 -0.1385  0.1902
 1251W        W 5315   6.827   4.235  10.032 -0.2009 -0.0238 -0.0835
 1252W        W 5316   8.119   0.434   0.241 -0.1013  0.2491  0.0831
 1253W        W 5317   9.710   3.844   8.358 -0.0524 -0.1620 -0.0794
 1254W        W 5318   6.005   9.609   9.908 -0.3817 -0.0869  0.1145
 1255W        W 5319   2.399   9.656  10.960  0.2085 -0.2155  0.2326
 1256W        W 5320   6.099   6.618   1.940 -0.0242 -0.0554  0.0564
 1257W        W 5321   5.075   4.057   9.374 -0.1666 -0.0310  0.4248
 1258W        W 5322  10.636   9.677   0.972 -0.0837 -0.0125  0.3282
 1259W        W 5323   1.272   7.318   0.082  0.0191  0.3886 -0.1774
 1260W        W 5324   6.740   4.493   3.573 -0.1714  0.0359 -0.3636
 1261W        W 5325   7.840   0.349  10.664  0.3412 -0.0529 -0.2746
 1262W        W 5326   6.603   4.527   9.689 -0.1579  0.2094 -0.2462
 1263W        W 5327  10.624   1.367   1.945 -0.1427 -0.1264  0.0484
 1264W        W 5328   4.830   1.412   8.866 -0.0781  0.0031  0.1613
 1265W        W 5329   6.452   8.559   9.193  0.1490 -0.1405 -0.2114
 1266W        W 5330   0.113   4.065  10.994 -0.2121  0.1095  0.2572
 1267W        W 5331   0.128   9.223   1.148 -0.1962 -0.0195  0.0185
 1268W        W 5332   9.680   7.789   1.137  0.0418 -0.0354  0.0897
 1269W        W 5333   4.318   6.150  10.754  0.0232 -0.2385  0.0041
 1270W        W 5334   9.452   1.904  10.879  0.1437 -0.1909  0.2264
 1271W        W 5335   7.953   9.893  10.204  0.2765  0.0461 -0.0015
 1272W        W 5336   3.200   8.411   9.526 -0.0970 -0.0258  0.1323
 1273W        W 5337   8.483   9.654   0.327 -0.1141  0.0330 -0.1426
 1274W        W 5338   9.631   6.111   1.387  0.0997 -0.1590 -0.0704
 1275W        W 5339   5.825   2.248   0.325  0.1551  0.0426  0.1477
 1276W        W 5340   1.083   4.397   4.209  0.0624 -0.1056 -0.1293
 1277W        W 5341   4.344   0.453   9.671 -0.1223 -0.3342 -0.2107
 1278W        W 5342   5.254   5.813   2.520 -0.2127  0.0223  0.0369
 1279W        W 5343   8.437   2.697  11.070  0.1248  0.1266  0.1148
 1280W        W 5344   8.922   7.914   1.932 -0.0092 -0.0964 -0.2571
 1281W        W 5345   1.019   6.407   3.368 -0.0026  0.1872  0.0041
 1282W        W 5346   2.924   4.263   3.745 -0.3056  0.0394  0.1559
 1283W        W 5347   3.110   4.050   1.460  0.0403  0.3480  0.2857
 1284W        W 5348   4.194   1.348   2.895 -0.2744  0.1981 -0.0813
 1285W        W 5349   8.912   0.718   1.003 -0.0925 -0.3394 -0.2181
 1286W        W 5350   0.765   4.449   7.702  0.1592 -0.0401  0.0122
 1287W        W 5351   7.956  10.237   0.130  0.3156  0.0871  0.3293
 1288W        W 5352   7.518   9.065   3.749  0.1637 -0.2196 -0.1677
 1289W        W 5353   1.373   5.157   1.258  0.0192 -0.1219 -0.0166
 1290W        W 5354   9.640   4.368   4.364 -0.1505  0.3969  0.0534
 1291W        W 5355   9.430   5.681   0.107 -0.1243 -0.0735  0.0860
 1292W        W 5356  10.641   8.335   9.833 -0.1365 -0.1219 -0.0054
 1293W        W 5357   8.569   9.703   9.239  0.2102  0.0508 -0.3161
 1294W        W 5358   7.772   9.129   8.755  0.1399  0.3344  0.1038
 1295W        W 5359   4.197   2.561   8.674 -0.2653 -0.0567 -0.1682
 1296W        W 5360   5.949   1.292   1.981  0.1606 -0.1158 -0.0102
 1297W        W 5361   7.195   6.763   1.558  0.0452  0.0080 -0.3696
 1298W        W 5362   6.333   5.415   0.307  0.2492 -0.1178  0.0575
 1299W        W 5363  10.171   5.586   0.821 -0.3434 -0.0421 -0.0018
 1300W        W 5364   0.377   1.234   9.294 -0.0244  0.0160 -0.1902
 1301W        W 5365   1.730   7.228   3.810 -0.0698  0.3836  0.0475
 1302W        W 5366   9.115   1.648   1.499  0.0318 -0.1636  0.0583
 1303W        W 5367   2.214   3.483   8.316  0.0548 -0.2015  0.1006
 1304W        W 5368   9.156   8.989   0.467 -0.3346 -0.1027  0.2277
 1305W        W 5369   0.356   4.467   2.726  0.2775 -0.0559  0.0098
 1306W        W 5370   5.983   3.074   0.342  0.3303  0.1079  0.1283
 1307W        W 5371   9.139   8.714   2.434 -0.0583  0.2236 -0.2687
 1308W        W 5372   9.522   8.465   1.638  0.1681 -0.2333 -0.0923
 1309W        W 5373   2.923  10.051   2.014  0.0888  0.0123 -0.0412
 1310W        W 5374   5.193   1.744   9.746 -0.1872 -0.1370 -0.1751
 1311W        W 5375   9.461   4.478   1.423  0.0851  0.3438  0.1370
 1312W        W 5376   0.697   2.514   7.027  0.4635  0.1913  0.0680
 1313W        W 5377   9.367  10.527   1.415  0.3167 -0.1891 -0.2951
 1314W        W 5378   7.908   0.689  10.275  0.2090 -0.0031  0.1834
 1315W        W 5379   6.560   4.235   9.169 -0.1069  0.0086  0.0115
 1316W        W 5380   4.673   3.016   2.050 -0.2751 -0.1158 -0.1651
 1317W        W 5381   6.396   8.202   0.385  0.1730 -0.0283  0.0255
 1318W        W 5382   3.312   9.070   9.450  0.2059  0.0170  0.1819
 1319W        W 5383   7.313   8.474   9.789  0.2671 -0.1177 -0.1433
 1320W        W 5384   1.512   3.351   2.727 -0.0164 -0.1148  0.1535
 1321W        W 5385   8.008   8.496  11.438 -0.0693 -0.0121  0.2523
 1322W        W 5386   7.622   2.012   9.332  0.2131 -0.0813 -0.0471
 1323W        W 5387   5.843   0.045   2.186 -0.0256  0.1794  0.1215
 1324W        W 5388   6.992   0.544   2.811 -0.3271  0.3383  0.2393
 1325W        W 5389  10.251   6.481   8.630 -0.2320  0.1742  0.3107
 1326W        W 5390   5.614   8.025   8.985 -0.0824 -0.1028  0.1128
 1327W        W 5391   7.599   0.982   3.434  0.3632  0.1337  0.1216
 1328W        W 5392   0.595   6.725  10.297  0.0540 -0.0442  0.3780
 1329W        W 5393   1.338   5.725   4.276 -0.2737  0.1177  0.1805
 1330W        W 5394   9.082   3.037  10.188  0.0599 -0.0802 -0.1621
 1331W        W 5395   6.764   5.050   0.229 -0.0415 -0.0923  0.1393
 1332W        W 5396   9.491   9.554   9.123  0.0984  0.1747 -0.2187
 1333W        W 5397   9.991   0.912   0.858 -0.0336 -0.0745  0.2513
 1334W        W 5398  10.386   5.866   9.743  0.1810  0.0620 -0.0712
 1335W        W 5399   4.751   0.939   9.055 -0.1040 -0.1884  0.5004
 1336W        W 5400   7.150   6.008   2.480 -0.0329  0.1991  0.0396
 1337W        W 5401   3.108   9.785   1.060  0.1308 -0.1349 -0.0702
 1338W        W 5402   7.801   1.473   2.044 -0.6171  0.0622 -0.0111
 1339W        W 5403   2.485   9.992  10.480 -0.1205  0.0532  0.2828
 1340W        W 5404   0.012   3.612   9.996 -0.0202  0.0630 -0.3840
 1341W        W 5405   8.359   1.974   1.418 -0.2489 -0.3286  0.1063
 1342W        W 5406   1.702   6.680   2.723  0.0818  0.0928  0.2960
 1343W        W 5407   2.822   8.645   8.733  0.2560  0.2778  0.1270
 1344W        W 5408   5.836   7.765   3.229 -0.1237  0.2335 -0.0748
 1345W        W 5409   5.315   8.958  10.821  0.1366  0.0824 -0.0301
 1346W        W 5410   7.758   1.471  10.979 -0.0479  0.1278  0.3446
 1347W        W 5411   6.113   0.236   9.313 -0.0996 -0.0012 -0.1333
 1348W        W 5412   5.698  10.405  10.009  0.2276  0.2222 -0.0808
 1349W        W 5413   5.596   5.022  10.421 -0.1344  0.3152 -0.1498
 1350W        W 5414   7.362   8.899   8.476 -0.0380 -0.0879  0.1161
 1351W        W 5415   9.231   0.133   2.666  0.1727  0.0912 -0.2788
 1352W        W 5416   8.184   2.066   2.895  0.1702  0.1676  0.2075
 1353W        W 5417   1.594   4.237  11.440 -0.0647  0.1358 -0.0061
 1354W        W 5418   7.724   2.940   2.025 -0.5313  0.0436  0.0825
 1355W        W 5419   8.861   4.024   9.410  0.2890  0.1851 -0.1400
 1356W        W 5420   0.070  10.208   1.180 -0.4786 -0.1000  0.0835
 1357W        W 5421   6.861   3.112   0.949  0.1682  0.1416  0.0735
 1358W        W 5422   5.659   0.639   1.006  0.2810 -0.0619  0.1600
 1359W        W 5423   5.273  10.026   1.480  0.0166  0.0165  0.0312
 1360W        W 5424   5.366   0.118  11.122  0.1930  0.0177 -0.0417
 1361W        W 5425   0.595   5.783   2.407 -0.3454 -0.0586 -0.1809
 1362W        W 5426   3.303   6.492   3.485 -0.1722  0.2814 -0.0216
 1363W        W 5427   0.373   7.302   9.525 -0.0205 -0.2841 -0.1307
 1364W        W 5428   9.330   4.882   9.295 -0.2459 -0.0298 -0.1157
 1365W        W 5429   8.818   2.226   3.169 -0.2488  0.1140 -0.2592
 1366W        W 5430   4.027   3.886  11.451 -0.2301  0.1353  0.2336
 1367W        W 5431   8.331   3.141   0.675  0.3331 -0.0681 -0.1380
 1368W        W 5432   4.101   0.296  11.261  0.1657 -0.0372  0.1747
 1369W        W 5433   1.525   7.417  10.439 -0.1249 -0.0305 -0.1574
 1370W        W 5434   6.136   7.488   9.608  0.0178  0.0470 -0.0186
 1371W        W 5435   3.036   2.222   2.846 -0.1996  0.0317 -0.1085
 1372W        W 5436   4.297   4.467   8.173 -0.1199 -0.0800 -0.0409
 1373W        W 5437   4.012   7.031  10.264  0.1021 -0.1716  0.0477
 1374W        W 5438   6.636   5.580   3.666 -0.0089 -0.0529  0.1427
 1375W        W 5439   2.522   9.634   2.631 -0.1848  0.3577 -0.0774
 1376W        W 5440   3.324   4.220  10.931 -0.5499  0.0322 -0.1159
 1377W        W 5441   3.965   4.268   3.427 -0.1628  0.0309 -0.0839
 1378W        W 5442   6.242   5.214   3.540 -0.3781  0.3692 -0.3834
 1379W        W 5443   6.183  10.175   0.480  0.3458 -0.0844  0.1040
 1380W        W 5444   2.232   9.823   9.210  0.2121 -0.5645 -0.4562
 1381W        W 5445   1.266   1.498   0.618 -0.3731  0.1473  0.4158
 1382W        W 5446   4.244   2.929   9.666  0.2258 -0.2416 -0.2321
 1383W        W 5447   3.396   4.617   9.257 -0.2514  0.3745  0.1879
 1384W        W 5448   7.157   9.308   4.446  0.2640  0.0460  0.1727
 1385W        W 5449   0.207   6.068  10.750 -0.1973 -0.0860 -0.0473
 1386W        W 5450   1.017   3.160   0.913 -0.2396 -0.0756  0.0561
 1387W        W 5451   6.451   1.309   2.687 -0.1843  0.0656 -0.1921
 1388W        W 5452  10.309   3.558   8.262 -0.0393 -0.1112 -0.1292
 1389W        W 5453   6.044   9.230   2.720  0.0323  0.0402 -0.2168
 1390W        W 5454   6.094   9.176  10.427  0.6256 -0.1531  0.0775
 1391W        W 5455   4.856   5.764   0.675  0.0125  0.3277  0.1586
 1392W        W 5456   8.526   3.423   1.696  0.1774  0.0126  0.4148
 1393W        W 5457   7.005   1.127   2.027 -0.4027 -0.0076  0.2114
 1394W        W 5458   0.397   5.777   8.547  0.0535  0.1817  0.1780
 1395W        W 5459   7.755   1.236   2.505 -0.1147  0.0213 -0.0451
 1396W        W 5460   9.253   8.253   9.489 -0.0865  0.1424  0.0888
 1397W        W 5461   3.766   8.700   8.387 -0.1569  0.0096 -0.6704
 1398W        W 5462   5.365   9.865   8.609 -0.0508  0.2631  0.2437
 1399W        W 5463   8.008   1.307   2.948 -0.1063  0.3838 -0.1144
 1400W        W 5464   8.299   0.683   8.763  0.2798 -0.4068  0.1175
 1401W        W 5465   6.623   3.681  10.735  0.0600  0.1387  0.2294
 1402W        W 5466   1.631   4.735   7.877  0.1959 -0.1141 -0.5432
 1403W        W 5467   5.917   1.407   9.914  0.1203  0.3515 -0.2784
 1404W        W 5468   4.373   2.737   0.359 -0.2713 -0.1473  0.0478
 1405W        W 5469   6.176   1.547   2.377  0.0821 -0.2760  0.1905
 1406W        W 5470   1.428   0.431  10.521 -0.0718  0.1534  0.2673
 1407W        W 5471   0.611   5.465   3.176  0.2232 -0.1445  0.1825
 1408W        W 5472   7.491   6.309   2.194 -0.3536  0.0628 -0.0662
 1409W        W 5473  10.133   5.141   9.499 -0.4257  0.2548 -0.2252
 1410W        W 5474   7.916   8.762  10.440  0.1417 -0.2075 -0.1408
 1411W        W 5475   0.949   3.191  10.914  0.0533 -0.2598  0.3035
 1412W        W 5476   1.492   4.750   1.508 -0.2024 -0.0757 -0.1049
 1413W        W 5477   1.532   3.125   8.973 -0.1095 -0.2244  0.1051
 1414W        W 5478   1.500   8.613   1.186  0.1546  0.0469 -0.1939
 1415W        W 5479   6.279   8.684   7.868  0.0166 -0.1883 -0.3492
 1416W        W 5480   4.827   1.247  11.327  0.0735  0.0801 -0.2633
 1417W        W 5481   8.224   5.049  10.647  0.0595 -0.2689 -0.0427
 1418W        W 5482   6.890   8.646   0.376  0.1164  0.1186 -0.3612
 1419W        W 5483   9.425   3.929   4.566 -0.2389 -0.2626  0.2286
 1420W        W 5484   5.918   5.592   3.908 -0.0009  0.1963 -0.0172
 1421W        W 5485   0.160   7.116   3.870 -0.0826 -0.0394  0.0791
 1422W        W 5486   9.983   0.700   8.868  0.3277 -0.2581 -0.0747
 1423W        W 5487   0.419   2.743   7.520  0.1657 -0.0515 -0.1737
 1424W        W 5488   4.009   0.840   9.747  0.2001 -0.0907  0.2841
 1425W        W 5489   5.312   2.752   9.201  0.2664  0.1405 -0.1586
 1426W        W 5490   1.899   1.000  11.295 -0.1654 -0.0592  0.2955
 1427W        W 5491   4.352   7.535   8.692  0.1968 -0.0614  0.0562
 1428W        W 5492   7.649   8.885   9.865 -0.0012  0.3016 -0.0155
 1429W        W 5493   5.469  10.320   3.869 -0.1297 -0.2540  0.1186
 1430W        W 5494  10.496   3.147   3.213 -0.0189 -0.1491 -0.0346
 1431W        W 5495   3.159   3.985   8.415 -0.3202  0.1694  0.0991
 1432W        W 5496   1.273   0.714   7.858  0.0541  0.0435 -0.2865
 1433W        W 5497   1.836   7.930   8.743 -0.0683 -0.0896 -0.0736
 1434W        W 5498   4.836   4.893   0.488  0.0508 -0.0429  0.0047
 1435W        W 5499   4.325   3.767   7.694  0.1997  0.3468 -0.1158
 1436W        W 5500   1.511   1.710   1.003 -0.0986 -0.0791  0.0378
 1437W        W 5501   9.886  10.604  10.844 -0.0326 -0.1528  0.0196
 1438W        W 5502   3.421   3.727   2.373  0.0058 -0.4531 -0.0711
 1439W        W 5503   2.979   6.850   1.833 -0.1368  0.4547  0.1528
 1440W        W 5504   0.387   5.519   9.541 -0.3533 -0.2032  0.1413
 1441W        W 5505   8.206   5.489   4.357 -0.0817 -0.0348  0.1523
 1442W        W 5506   9.736   2.221   9.486 -0.1372  0.0184 -0.0404
 1443W        W 5507   1.934   8.883   9.310  0.0689  0.0792 -0.4195
 1444W        W 5508   4.550   3.041   7.981 -0.1760 -0.3171  0.1386
 1445W        W 5509   1.178   4.048   3.904  0.1320  0.0504 -0.0214
 1446W        W 5510  10.634   2.143   3.433  0.1757 -0.0644 -0.3958
 1447W        W 5511   3.087   6.268   2.221 -0.1982 -0.0480 -0.2227
 1448W        W 5512   7.772   0.439   3.194  0.1225 -0.0503 -0.0078
 1449W        W 5513   2.613   3.053   8.486 -0.1252  0.2149  0.0455
 1450W        W 5514   4.350   9.358  11.232  0.4602  0.0803  0.3602
 1451W        W 5515   5.389   6.137  11.438  0.2104 -0.1701  0.2023
 1452W        W 5516   5.707   9.157   9.067  0.4516  0.2945 -0.1233
 1453W        W 5517   0.164   1.239   3.717  0.0574  0.1173 -0.0336
 1454W        W 5518   1.866   3.789  10.214 -0.1584  0.1621 -0.3070
 1455W        W 5519   0.612   6.268   8.777 -0.0505  0.2600  0.0083
 1456W        W 5520  10.460   1.118   9.086  0.0090  0.0005  0.1527
 1457W        W 5521   3.808   4.795   9.434 -0.1827 -0.1182 -0.1735
 1458W        W 5522   1.763   9.636   8.968  0.1741 -0.0310  0.3274
 1459W        W 5523   4.032   8.811   3.625 -0.0575  0.0447 -0.3924
 1460W        W 5524   6.604   8.069   2.631 -0.0643 -0.0454 -0.2206
 1461W        W 5525   2.205   3.362  11.306 -0.2503  0.1891 -0.0871
 1462W        W 5526  10.152   3.577   3.553  0.0700 -0.1804 -0.3288
 1463W        W 5527   7.605   1.648   1.151  0.2164 -0.2264  0.1324
 1464W        W 5528   7.724   8.637   2.414 -0.1977 -0.0561 -0.0099
 1465W        W 5529   8.109   8.923   0.856  0.1432  0.3248 -0.2074
 1466W        W 5530   5.684   1.866   9.601 -0.0271  0.2200  0.3107
 1467W        W 5531   0.892   2.194   8.114 -0.1292 -0.0283  0.0136
 1468W        W 5532   1.029   7.622  10.036 -0.0537 -0.0602  0.5613
 1469W        W 5533   4.288   3.854   9.934  0.3252 -0.1576 -0.0464
 1470W        W 5534   7.414   1.768   8.955 -0.3088  0.2746 -0.1075
 1471W        W 5535   9.236   6.393   0.502 -0.2616 -0.3558 -0.2413
 1472W        W 5536   4.834   9.908   0.263 -0.0654 -0.1879  0.2433
 1473W        W 5537   6.588   8.855   9.545  0.0570 -0.1172 -0.1194
 1474W        W 5538   0.669   6.263   0.007  0.0224 -0.3286  0.1387
 1475W        W 5539   0.813   8.277  11.091  0.2155 -0.1136  0.2214
 1476W        W 5540   2.299   1.761  11.180  0.0628  0.5061  0.1086
 1477W        W 5541   2.405   8.622   8.405 -0.0010 -0.1202  0.0909
 1478W        W 5542   5.617   9.582   2.826 -0.3811  0.0363 -0.1672
 1479W        W 5543   3.515   8.672   9.792 -0.3444  0.0340  0.1864
 1480W        W 5544   4.485   8.847   1.816 -0.0085  0.0546  0.1054
 1481W        W 5545   2.547   5.602   2.547 -0.1450 -0.3867 -0.2713
 1482W        W 5546   0.853   5.290   3.537 -0.0755 -0.3777 -0.0961
 1483W        W 5547   7.447   5.608   3.299  0.2211 -0.1238  0.0135
 1484W        W 5548  10.613   8.585   2.358  0.2114 -0.0037  0.2624
 1485W        W 5549   5.008   9.212   8.166  0.1950 -0.3664 -0.0732
 1486W        W 5550   9.035   2.708   8.011  0.0385 -0.3509  0.1209
 1487W        W 5551   0.755   8.179   0.281  0.4078 -0.2190 -0.0108
 1488W        W 5552   8.325   8.553   8.085  0.2986 -0.0373 -0.1332
 1489W        W 5553   5.689  10.634   2.700 -0.2694 -0.1849  0.1188
 1490W        W 5554   8.144   8.303  10.436  0.0348  0.0657 -0.2471
 1491W        W 5555   5.492   4.329   0.752  0.0258 -0.2343 -0.2332
 1492W        W 5556   6.493   1.730   3.323  0.0063  0.0222  0.1176
 1493W        W 5557   7.817  10.622   8.637 -0.1717  0.0680  0.0908
 1494W        W 5558   6.660   9.829   9.829  0.1464  0.2794  0.1140
 1495W        W 5559   5.303   5.880   8.208 -0.1163 -0.1484 -0.0944
 1496W        W 5560   5.997   4.850  10.854 -0.2041  0.1460 -0.3504
 1497W        W 5561   4.991   7.102   3.168  0.2459  0.0269  0.2226
 1498W        W 5562   0.580   3.461  10.857  0.3628  0.1357  0.2852
 1499W        W 5563   8.173   6.798  10.641 -0.1367 -0.1036  0.2290
 1500W        W 5564  10.381   6.290  10.156 -0.2767  0.0943 -0.0648
 1501W        W 5565   3.803   4.602   8.322 -0.0483 -0.0926  0.1808
 1502W        W 5566   5.029   1.003  10.870  0.4082 -0.2753  0.1896
 1503W        W 5567   4.396  10.433   3.098 -0.0786 -0.1769 -0.0872
 1504W        W 5568   0.516   2.450   9.642 -0.0874 -0.1193  0.0695
 1505W        W 5569   4.424   4.438   8.981  0.3067 -0.1102  0.1631
 1506W        W 5570   5.873   0.581   9.585  0.1282 -0.3348 -0.1686
 1507W        W 5571   9.369   4.796   3.160 -0.0134 -0.1271 -0.3916
 1508W        W 5572   9.974   6.799  11.070 -0.2330 -0.2985  0.0243
 1509W        W 5573   9.745   3.805  11.496 -0.1897 -0.0229 -0.0038
 1510W        W 5574   0.849   1.279   3.279 -0.1006  0.1046 -0.1130
 1511W        W 5575   9.255   4.231  10.140 -0.1641 -0.2015  0.1743
 1512W        W 5576   0.998   7.257   8.733  0.3253 -0.0396  0.0006
 1513W        W 5577   7.109   4.664  10.014 -0.0737  0.0800 -0.1050
 1514W        W 5578  10.336   2.356   4.691  0.0068 -0.0566  0.0521
 1515W        W 5579   7.621   1.950  11.006  0.1880  0.2990  0.0972
 1516W        W 5580   1.103   4.508   3.594  0.2087  0.2135 -0.0855
 1517W        W 5581  10.366   7.810   0.471 -0.1731 -0.2374 -0.0665
 1518W        W 5582   5.312   7.208  10.749 -0.1735  0.1256 -0.3234
 1519W        W 5583   1.113   4.728   1.214  0.1205 -0.0827 -0.1599
 1520W        W 5584   9.981   5.582   9.504 -0.2034  0.2005  0.1484
 1521W        W 5585   3.608   2.624   1.348 -0.0141 -0.0798 -0.3055
 1522W        W 5586   0.338   7.941  11.132  0.0052 -0.0846 -0.0090
 1523W        W 5587   4.153   8.985   1.338  0.2247  0.3030 -0.0650
 1524W        W 5588   5.748   6.509   3.806  0.2086  0.4073  0.1822
 1525W        W 5589   6.515  10.545   3.212  0.3261 -0.0637 -0.2189
 1526W        W 5590   1.283   9.850  10.714  0.1226  0.2399  0.1329
 1527W        W 5591   0.238   8.958   2.698  0.0740 -0.2158  0.3306
 1528W        W 5592   8.739   1.789   3.361  0.0404  0.0870  0.0181
 1529W        W 5593   9.965   2.517   9.041 -0.0337 -0.0373 -0.4868
 1530W        W 5594   2.162   2.352  10.809 -0.4374  0.1406  0.1463
 1531W        W 5595   8.455   4.980   8.773  0.1377  0.0993 -0.0083
 1532W        W 5596   5.503   0.772   3.574  0.0534  0.0311  0.2516
 1533W        W 5597   3.736   3.769  10.445 -0.0517  0.2165  0.2635
 1534W        W 5598   6.491   6.709   1.633  0.1729  0.2312  0.0221
 1535W        W 5599   5.258   5.879   9.885 -0.2478 -0.1815 -0.0114
 1536W        W 5600   6.265   5.885   2.517 -0.0906 -0.0139  0.0146
 1537W        W 5601   3.056   0.552  10.099  0.1574 -0.0139  0.0556
 1538W        W 5602   1.924   7.031  10.530 -0.1161  0.0135 -0.2000
 1539W        W 5603   8.362   2.230   0.127 -0.1464  0.1990 -0.1058
 1540W        W 5604   4.737   1.825   9.523 -0.2097 -0.0129 -0.0503
 1541W        W 5605   2.716   8.343   9.710  0.0389 -0.0235  0.1885
 1542W        W 5606   1.851   6.266  10.966  0.0332 -0.0414  0.1057
 1543W        W 5607   3.282   9.702   3.437  0.1463 -0.5721 -0.0720
 1544W        W 5608   0.289   3.858   9.025 -0.3359  0.2469  0.1372
 1545W        W 5609   1.077   5.432   2.441  0.0274 -0.0746 -0.0285
 1546W        W 5610   4.667   8.508  11.049 -0.1112  0.3768  0.2837
 1547W        W 5611   0.196   0.115   9.818  0.1696  0.0904  0.1059
 1548W        W 5612   9.993   3.041  10.179 -0.0674  0.1043  0.3032
 1549W        W 5613   0.814   7.439   9.603 -0.2121  0.0294  0.1527
 1550W        W 5614   2.685   0.668   0.419 -0.0031  0.2356  0.0896
 1551W        W 5615   5.882   1.348  10.918 -0.0021 -0.0839  0.1765
 1552W        W 5616   2.431   1.443  10.757  0.1852 -0.2306 -0.2158
 1553W        W 5617   1.911   0.840   1.609 -0.1587 -0.2492  0.0320
 1554W        W 5618   7.960   1.350   0.376 -0.1748  0.3123  0.1308
 1555W        W 5619   4.823   3.453   1.092  0.1493 -0.0320 -0.0405
 1556W        W 5620   0.467   5.008   8.643  0.0004 -0.1792 -0.0613
 1557W        W 5621  10.458  10.148  11.318  0.1285  0.0071  0.2842
 1558W        W 5622   2.137   6.589   8.945  0.5621 -0.2184 -0.0900
 1559W        W 5623  10.269   7.221   0.589  0.0827  0.0362  0.1292
 1560W        W 5624   9.969   4.832   1.842  0.0654 -0.1959 -0.2143
 1561W        W 5625   3.756   2.298   8.702 -0.0741 -0.1163  0.2368
 1562W        W 5626  10.384   6.221   3.655 -0.1824 -0.3084 -0.3081
 1563W        W 5627   8.712   5.538   2.025  0.1393 -0.0534  0.1317
 1564W        W 5628   8.655   8.977   8.063  0.1599 -0.0545 -0.1587
 1565W        W 5629   8.768   7.819   0.135 -0.2961 -0.0401 -0.0285
 1566W        W 5630   1.613   6.641   8.698 -0.0875 -0.0795 -0.2478
 1567W        W 5631   2.285   5.071   0.895  0.1328 -0.1474 -0.2537
 1568W        W 5632   0.969   0.127   9.698 -0.2693  0.1847  0.0525
 1569W        W 5633   6.093   4.992   8.944 -0.0075  0.0341 -0.1289
 1570W        W 5634   5.289   4.169   1.823 -0.0259  0.0630 -0.0390
 1571W        W 5635   7.821   8.229   3.555 -0.2796  0.3470  0.1114
 1572W        W 5636   6.559   0.826   2.915 -0.0187  0.0105  0.1348
 1573W        W 5637  10.403  10.234   0.224  0.0605  0.1043  0.2881
 1574W        W 5638   7.664   0.169   9.234 -0.0753 -0.2914 -0.0471
 1575W        W 5639   5.654   1.208   8.715  0.2015 -0.2209  0.0728
 1576W        W 5640   0.631   6.354  10.602  0.1144 -0.0593  0.1249
 1577W        W 5641  10.391   3.664  11.042 -0.2474 -0.3161 -0.0200
 1578W        W 5642  10.056   4.314   9.372 -0.1671  0.0744  0.0072
 1579W        W 5643   9.518   2.721  11.222 -0.3237  0.1743 -0.0373
 1580W        W 5644   5.594   3.094   1.214 -0.1035  0.2359 -0.2332
 1581W        W 5645   2.279   2.646   9.272 -0.2478  0.1432  0.0831
 1582W        W 5646   4.970   5.850   3.771  0.0167  0.0626 -0.0276
 1583W        W 5647   5.335   4.397   2.798  0.0526 -0.0996  0.1533
 1584W        W 5648   5.937   1.695   3.451 -0.4243 -0.1326 -0.1450
 1585W        W 5649  10.648   5.116   2.632 -0.1234  0.1533 -0.0556
 1586W        W 5650   8.793   5.257   3.639  0.4262  0.0369  0.0943
 1587W        W 5651   9.911   2.602  10.456  0.0895  0.0572  0.1284
 1588W        W 5652   3.255   1.521   9.761 -0.3449 -0.1699  0.1231
 1589W        W 5653   3.153   9.593   1.962 -0.2982 -0.3758  0.1422
 1590W        W 5654   6.423   1.434  10.960  0.1164 -0.3037  0.4283
 1591W        W 5655   9.658   7.365   2.979  0.3265  0.1914 -0.1445
 1592W        W 5656   3.649   0.549   8.590  0.2853  0.1202 -0.0210
 1593W        W 5657   6.203   3.514   0.553  0.0330 -0.0002 -0.3207
 1594W        W 5658   2.796   1.314   9.631 -0.0051  0.0971  0.0253
 1595W        W 5659   2.028   0.560  10.602 -0.1610  0.1226  0.0285
 1596W        W 5660   6.144  10.498   2.588  0.1480 -0.3267  0.0557
 1597W        W 5661   4.772   6.253   0.894  0.0612  0.4723 -0.0879
 1598W        W 5662   3.773   3.321   3.062 -0.1275  0.0836  0.0253
 1599W        W 5663   3.932   7.914  11.103 -0.1986  0.1551  0.1914
 1600W        W 5664   2.466   8.861   0.022  0.2032  0.0716  0.0438
 1601W        W 5665   7.189   1.459   8.238 -0.1319  0.1335 -0.0191
 1602W        W 5666   1.992  10.260   0.910 -0.1727  0.3301  0.1481
 1603W        W 5667   1.996   2.848  11.360 -0.0597  0.1604  0.1425
 1604W        W 5668  10.367   3.525   4.651 -0.3538 -0.1024 -0.2884
 1605W        W 5669   5.755   9.544  11.350 -0.1643  0.1048 -0.1329
 1606W        W 5670   6.747   7.322   0.042  0.1326  0.0367 -0.1790
 1607W        W 5671   4.123   5.723   2.711 -0.2232 -0.0054 -0.1518
 1608W        W 5672   7.845   9.584   2.507 -0.2120 -0.0452 -0.0105
 1609W        W 5673   3.756   1.198   2.021  0.2061  0.2988  0.0379
 1610W        W 5674   4.775   7.581   1.917  0.1858 -0.2585 -0.1676
 1611W        W 5675   6.505   2.498   1.839 -0.0622 -0.1271  0.1623
 1612W        W 5676  10.584   9.152  10.270 -0.1655  0.4043 -0.1736
 1613W        W 5677   2.032   3.473   0.544  0.1091 -0.0572  0.2781
 1614W        W 5678   0.833   8.509   2.024  0.3233  0.1960 -0.3342
 1615W        W 5679   1.630   6.188   2.802  0.1744  0.1280 -0.0271
 1616W        W 5680   1.408   7.698   2.262  0.0601 -0.2451  0.0629
 1617W        W 5681   1.745   2.115  11.011 -0.0421  0.0097 -0.0015
 1618W        W 5682   1.652  10.306  10.726 -0.4154  0.2096 -0.0739
 1619W        W 5683   8.703   7.693   3.864 -0.1089 -0.0639  0.3929
 1620W        W 5684   3.286   6.936   8.317 -0.1343 -0.1158 -0.1415
 1621W        W 5685   3.667   6.521   3.051 -0.1925 -0.5067  0.4568
 1622W        W 5686   1.220   8.726   0.765  0.3024 -0.1931  0.0163
 1623W        W 5687   6.243   9.597   8.505  0.0283 -0.0266  0.1239
 1624W        W 5688   5.018   5.650   3.048 -0.1721 -0.0774 -0.1137
 1625W        W 5689   1.752   1.854   2.676  0.2675  0.0920  0.3293
 1626W        W 5690   0.654   3.153  10.501  0.1578  0.0325  0.0418
 1627W        W 5691   4.220   5.799   8.692 -0.1709 -0.0559 -0.1031
 1628W        W 5692   6.644   4.246   8.515 -0.0749 -0.0133  0.0234
 1629W        W 5693   0.927   1.303   1.664 -0.1007  0.1113  0.0923
 1630W        W 5694  10.476   4.998  10.690  0.0945 -0.3725 -0.1361
 1631W        W 5695   6.651   8.704  11.058  0.2613 -0.0006  0.2992
 1632W        W 5696   2.970   1.736   2.061  0.0443 -0.1780  0.2231
 1633W        W 5697   2.492   4.075  10.537 -0.1277  0.0286 -0.1359
 1634W        W 5698   3.856   3.319   1.813  0.0193 -0.1297  0.0010
 1635W        W 5699  10.053  10.089  11.001 -0.1656 -0.0241 -0.3085
 1636W        W 5700   1.889   5.139   1.209  0.3775  0.0591  0.1950
 1637W        W 5701   5.558   3.286  11.133 -0.2062 -0.0034  0.1307
 1638W        W 5702   6.544   3.774   9.120  0.4096  0.2364  0.1682
 1639W        W 5703   3.005   9.085   1.836 -0.3360 -0.0211  0.1542
 1640W        W 5704   7.608   0.349   0.090 -0.0934 -0.2033  0.1411
 1641W        W 5705   6.938   5.078   0.710  0.1666  0.1290 -0.0304
 1642W        W 5706   3.255   9.433   4.062 -0.0672 -0.1759  0.1311
 1643W        W 5707   2.436   9.481   9.564 -0.1872 -0.3456  0.0371
 1644W        W 5708   9.834   6.932   1.013  0.2239  0.1581 -0.2412
 1645W        W 5709   0.856  10.104   2.267  0.0363 -0.1180 -0.2062
 1646W        W 5710   0.365   5.145   3.488  0.3247  0.0001 -0.3446
 1647W        W 5711   8.018   4.497   0.801 -0.1133  0.2182  0.2371
 1648W        W 5712   0.465   8.163  10.701 -0.1079  0.2073 -0.2785
 1649W        W 5713   1.934   7.552   0.429  0.4592 -0.2651  0.0430
 1650W        W 5714  10.573   0.516   2.212  0.3814 -0.1515  0.0245
 1651W        W 5715  10.395   9.282   0.828 -0.0109 -0.1730 -0.1105
 1652W        W 5716   5.248   0.595   9.186  0.2295  0.3439  0.0188
 1653W        W 5717   4.182   3.140   2.153  0.1878 -0.0178  0.0749
 1654W        W 5718   0.294   1.606  10.985  0.2623  0.0497  0.0939
 1655W        W 5719   7.176   7.584   1.872 -0.0701 -0.1642  0.2100
 1656W        W 5720   2.674   1.489   1.292 -0.2592  0.2639  0.2168
 1657W        W 5721  10.262   7.478   9.091 -0.0100 -0.2157 -0.2395
 1658W        W 5722   1.327   0.809   1.783 -0.0084  0.0010  0.0608
 1659W        W 5723   7.912   5.206  10.061  0.0713  0.0270 -0.0247
 1660W        W 5724  10.184   1.351   9.563  0.3055 -0.0329 -0.2175
 1661W        W 5725   1.413   8.396  10.393  0.2073 -0.1915 -0.1062
 1662W        W 5726   4.541   0.429   1.989 -0.0857  0.0006  0.2776
 1663W        W 5727   6.472  10.374   0.837  0.0036  0.3790  0.1211
 1664W        W 5728   4.643   1.763   0.225  0.0741  0.0146 -0.1611
 1665W        W 5729   3.363   6.080   3.017 -0.2261 -0.1064  0.2933
 1666W        W 5730   9.980   8.654   2.999  0.1827 -0.0362  0.0213
 1667W        W 5731   4.898   3.356   0.187  0.0371 -0.2229  0.0851
 1668W        W 5732   8.290   2.202   0.941  0.1649  0.2087 -0.2616
 1669W        W 5733  10.036   1.502   2.521 -0.0356  0.1171 -0.0033
 1670W        W 5734   7.754   5.264   4.166  0.0473 -0.1065  0.0620
 1671W        W 5735   6.773   8.113  10.131  0.0409  0.1430  0.0889
 1672W        W 5736   5.423   0.959   0.467  0.1334 -0.3128  0.5346
 1673W        W 5737   8.778   1.874   1.100 -0.1231  0.1717  0.1500
 1674W        W 5738   2.469   0.151   8.230 -0.0178  0.0040 -0.0346
 1675W        W 5739   5.226  10.562   9.884  0.4952  0.0176  0.3404
 1676W        W 5740   0.436   1.537   3.415  0.4253 -0.1474  0.0683
 1677W        W 5741   1.273   8.311  11.424 -0.1551 -0.1398 -0.0022
 1678W        W 5742   7.270   0.348   0.464 -0.0614 -0.0449 -0.1045
 1679W        W 5743   3.356   8.784   8.087  0.0538 -0.0740  0.1361
 1680W        W 5744   6.451   5.526  10.384 -0.2240 -0.1168 -0.0344
 1681W        W 5745   1.547   4.533   4.002 -0.2126  0.0811 -0.1317
 1682W        W 5746   2.397   7.520   2.288  0.0686 -0.1093 -0.1431
 1683W        W 5747   4.943   6.228   0.040  0.1375  0.2775  0.0476
 1684W        W 5748   9.713   7.078  10.444 -0.0619 -0.3506 -0.0347
 1685W        W 5749   8.304   3.105   1.183 -0.1581 -0.0266 -0.4516
 1686W        W 5750   1.641   5.957   3.931 -0.2340  0.3003 -0.1309
 1687W        W 5751   7.728   1.471   8.145 -0.1468  0.0355  0.1318
 1688W        W 5752   4.476   6.256   1.330 -0.1789  0.0059  0.0906
 1689W        W 5753   9.190   2.234   1.200 -0.1726 -0.2671 -0.2436
 1690W        W 5754   2.990   3.265   4.132  0.0066  0.0044 -0.0146
 1691W        W 5755   2.366   8.527   0.898 -0.1120  0.2025  0.3764
 1692W        W 5756   1.824   4.284   2.148  0.0140  0.4204  0.1497
 1693W        W 5757   4.052   9.769   0.852  0.1928  0.2019  0.1535
 1694W        W 5758   6.431   3.514   9.906  0.1180  0.0166 -0.1030
 1695W        W 5759   8.761   9.831   9.796  0.2541 -0.1040  0.2884
 1696W        W 5760   5.178   3.604   9.513 -0.0607  0.0803 -0.1380
 1697W        W 5761   0.231   7.021   1.842 -0.0171  0.2419 -0.0416
 1698W        W 5762   4.854   9.384   0.270 -0.2604 -0.1622  0.4044
 1699W        W 5763   6.112   4.458   8.480  0.1100 -0.2546 -0.0327
 1700W        W 5764   5.979   6.785  10.744 -0.0817 -0.2037  0.1851
 1701W        W 5765  10.474   4.284   1.478  0.0864 -0.2458  0.4440
 1702W        W 5766   3.499   8.028   9.406  0.4335 -0.0628  0.3404
 1703W        W 5767   8.420   5.078  11.565 -0.0144 -0.0282 -0.2304
 1704W        W 5768   5.203   6.896   2.199  0.0738 -0.2230 -0.0857
 1705W        W 5769   8.066   6.420   1.332  0.0562  0.3558  0.0264
 1706W        W 5770   4.728   8.443   2.015  0.2160  0.0061  0.4190
 1707W        W 5771   9.307   5.063  11.266  0.1789 -0.3491 -0.1655
 1708W        W 5772   9.456   9.731   2.621  0.2959 -0.1654  0.0068
 1709W        W 5773   8.163   7.455  10.150  0.0863 -0.2566 -0.2872
 1710W        W 5774   1.746   9.332  10.369  0.2006  0.3631  0.1298
 1711W        W 5775   4.984   7.618   8.557  0.1530 -0.1867  0.0405
 1712W        W 5776   4.057   3.925   9.483  0.1159 -0.2932  0.0981
 1713W        W 5777   2.488   4.737   3.408  0.0163 -0.0192 -0.1151
 1714W        W 5778   4.851   0.956   8.561 -0.1409 -0.0779 -0.2188
 1715W        W 5779   6.966   3.090   9.938 -0.1288 -0.1524  0.2487
 1716W        W 5780   0.189   8.739  11.493 -0.0304 -0.2020  0.0318
 1717W        W 5781   0.377  10.508   2.030  0.1652  0.0685 -0.0702
 1718W        W 5782   8.975   4.874   8.713  0.0428  0.1711 -0.1156
 1719W        W 5783   3.357   1.401   0.079  0.3812 -0.0033  0.2162
 1720W        W 5784   4.616   6.442   1.935 -0.0408 -0.0995  0.1531
 1721W        W 5785   6.712   0.302   7.420 -0.2848 -0.0767  0.2544
 1722W        W 5786  10.329   1.212  10.461  0.0982  0.3355  0.0091
 1723W        W 5787   0.302   2.746   3.052  0.3006  0.0369  0.0147
 1724W        W 5788   3.052   2.214  11.546  0.0827 -0.0971 -0.1561
 1725W        W 5789   8.903   2.894  11.166  0.0330 -0.2020 -0.1042
 1726W        W 5790   4.144   4.750  10.457 -0.0762 -0.2117  0.1723
 1727W        W 5791   8.859   9.089   2.475  0.2345  0.4011  0.0167
 1728W        W 5792   1.229   6.076   3.804  0.1674 -0.1450  0.0585
 1729W        W 5793   7.842   3.310   4.483  0.1120  0.2923 -0.0487
 1730W        W 5794   7.473   6.466   2.745 -0.1761  0.1482  0.2542
 1731W        W 5795   8.994   3.756   0.856 -0.0604  0.4725  0.1225
 1732W        W 5796   7.471   1.807   2.599  0.2022 -0.0361 -0.3506
 1733W        W 5797   4.173  10.386   2.608  0.1269  0.3604  0.1166
 1734W        W 5798   0.349   9.429   0.771  0.0923  0.0525  0.2411
 1735W        W 5799   4.745   8.011   9.406 -0.0656 -0.1002 -0.0768
 1736W        W 5800   3.595   7.398  10.046 -0.0817  0.3834  0.0525
 1737W        W 5801   6.182   0.822  11.494  0.0039 -0.3814  0.0063
 1738W        W 5802  10.053   5.334   2.114  0.0755 -0.0963 -0.1295
 1739W        W 5803   4.723  10.300   3.539 -0.2645  0.0072 -0.1105
 1740W        W 5804   0.452   0.894   9.651 -0.0316 -0.1410 -0.1750
 1741W        W 5805   7.271   3.712   9.362  0.3052 -0.2637  0.0232
 1742W        W 5806   2.139   3.094   2.139  0.0835  0.2496 -0.1766
 1743W        W 5807   2.657   1.991   1.736 -0.1701 -0.1639  0.2086
 1744W        W 5808   6.478   2.932   8.103 -0.0906 -0.2476 -0.3097
 1745W        W 5809   9.845  10.321   0.266  0.0540  0.0069 -0.2295
 1746W        W 5810   2.391   1.258   2.928  0.1335  0.0296  0.1762
 1747W        W 5811   3.803   3.220   0.408  0.3115  0.1598 -0.4632
 1748W        W 5812   7.244   6.919   7.643 -0.0407 -0.0024 -0.2987
 1749W        W 5813   0.896   0.310   0.624 -0.1296 -0.0238 -0.1087
 1750W        W 5814   6.905   3.212  10.808  0.1969 -0.1902  0.3778
 1751W        W 5815  10.242   7.901  11.562  0.0156 -0.0676 -0.2016
 1752W        W 5816   5.310   2.765   2.654  0.2047  0.3327 -0.1355
 1753W        W 5817   4.769   1.504   2.810 -0.4518 -0.0200  0.0798
 1754W        W 5818   2.572   4.764   1.972 -0.0798 -0.3873 -0.2536
 1755W        W 5819   4.582   6.835   7.731  0.0776  0.1328 -0.0930
 1756W        W 5820   9.049   0.391   2.234 -0.0050 -0.1249 -0.0951
 1757W        W 5821   4.894   9.302   1.828 -0.1013 -0.1293  0.1956
 1758W        W 5822   4.852   5.156   1.702 -0.0059  0.3477 -0.1326
 1759W        W 5823   0.777   3.695   9.352 -0.0597  0.2220  0.0387
 1760W        W 5824   6.261   0.902   4.016 -0.1298 -0.0522  0.1316
 1761W        W 5825   3.906   6.855   2.405  0.4639 -0.1073 -0.1244
 1762W        W 5826   7.352   9.518   2.645  0.0812  0.0061  0.0946
 1763W        W 5827   5.809   2.244   8.320 -0.1944 -0.1612 -0.2452
 1764W        W 5828   7.777   6.215   8.111  0.0873 -0.3020  0.1140
 1765W        W 5829   9.931   6.976   2.695 -0.0321 -0.0220  0.0360
 1766W        W 5830   7.280   2.701  11.207 -0.2588  0.3001 -0.1984
 1767W        W 5831   6.867   7.595   1.462  0.1891 -0.4212  0.1015
 1768W        W 5832   1.719   7.352   9.521 -0.2747  0.0406  0.0261
 1769W        W 5833   7.684   9.756   2.045  0.2113  0.2368 -0.0061
 1770W        W 5834  10.599   2.619   3.415  0.0498 -0.3440  0.4121
 1771W        W 5835   5.728   7.809   0.237 -0.2928  0.1094  0.3254
 1772W        W 5836   8.720  10.377   9.899  0.0667  0.0710  0.1868
 1773W        W 5837   4.811   4.356   1.979  0.2400  0.0120  0.0577
 1774W        W 5838   3.426   0.984   2.334  0.2496 -0.1260  0.1878
 1775W        W 5839   8.419   5.112  10.081 -0.1982 -0.1429  0.0842
 1776W        W 5840   5.322   4.091   0.315 -0.2447 -0.0040 -0.0551
 1777W        W 5841   8.984   5.477   0.128  0.1061  0.0141 -0.0008
 1778W        W 5842   7.493   4.400   0.560  0.0358 -0.3288  0.2562
 1779W        W 5843   0.294   9.230  11.544  0.3726  0.1370 -0.4769
 1780W        W 5844  10.592   9.567  11.191  0.1361 -0.0683 -0.1287
 1781W        W 5845   0.627   4.672   8.205  0.2100  0.6056  0.0228
 1782W        W 5846  10.104   4.120   1.738  0.0656  0.0056 -0.1789
 1783W        W 5847   1.654   6.759  11.517 -0.0242  0.0235 -0.3927
 1784W        W 5848   0.473   1.143   0.473 -0.2014  0.2243  0.0445
 1785W        W 5849   3.096  10.157   0.708 -0.0634  0.2715  0.1354
 1786W        W 5850   1.148   3.286  11.534 -0.2340 -0.2340  0.1390
 1787W        W 5851   6.281   5.989   8.303 -0.0792 -0.0060  0.2135
 1788W        W 5852   6.440  10.244   3.648 -0.0798 -0.0441 -0.0572
 1789W        W 5853   8.403   0.198   8.584 -0.0361  0.0397  0.0756
 1790W        W 5854   0.191   9.901  11.535 -0.1419  0.0422 -0.3281
 1791W        W 5855   7.000  10.651   9.203 -0.0506 -0.1423 -0.1765
 1792W        W 5856   1.043   7.493  10.532 -0.0829  0.3042 -0.1944
 1793W        W 5857   4.456   7.949   0.695 -0.3009  0.1596  0.4153
 1794W        W 5858   3.275   7.790   0.139  0.0991 -0.0871 -0.2128
 1795W        W 5859   2.609   1.969  11.567 -0.1204 -0.0727  0.1130
 1796W        W 5860   4.722   3.640  10.258  0.1832 -0.1574 -0.0687
 1797W        W 5861   8.386   7.876   9.265 -0.2191 -0.0424  0.0954
 1798W        W 5862   0.243   4.899   3.870 -0.0259  0.1174  0.0204
 1799W        W 5863   7.247   2.758   9.074  0.0714 -0.0709 -0.1394
 1800W        W 5864  10.467   5.248   9.005 -0.0174 -0.1604  0.0416
 1801W        W 5865   7.996   7.066   8.274  0.1181 -0.1418  0.1259
 1802W        W 5866   4.445   1.675   8.729  0.0329 -0.0178  0.0350
 1803W        W 5867  10.015   6.424   1.230  0.0870 -0.2257 -0.2030
 1804W        W 5868   8.902   2.606   1.421  0.1963  0.0877  0.3081
 1805W        W 5869   2.275   8.315   2.232  0.0758  0.1902 -0.1955
 1806W        W 5870   6.609   6.237   0.936  0.0144 -0.0291 -0.2084
 1807W        W 5871   8.518   8.613   4.013 -0.0054  0.0240  0.3369
 1808W        W 5872   4.940  10.285   9.342  0.0009 -0.2294  0.4358
 1809W        W 5873   4.776  10.412  11.562 -0.1576  0.1093 -0.0201
 1810W        W 5874   4.806   0.230   9.783 -0.0820  0.1904 -0.0118
 1811W        W 5875   3.016   9.068  10.819 -0.1844 -0.0529  0.0193
 1812W        W 5876   6.696   1.731   0.755  0.0085  0.0974  0.1093
 1813W        W 5877   4.266   0.507   1.527  0.0948  0.2446 -0.0679
 1814W        W 5878   8.401   8.022   2.703  0.0679  0.2954 -0.0488
 1815W        W 5879   7.948  10.096   1.878 -0.1146  0.0777 -0.0930
 1816W        W 5880   2.751   7.158  11.071 -0.0599  0.0391  0.2051
 1817W        W 5881   3.704   9.450  11.074  0.3859  0.1025  0.0901
 1818W        W 5882   0.408   2.353   2.689  0.0093  0.1406 -0.1516
 1819W        W 5883   6.008   5.357   2.154  0.3627 -0.1579  0.0648
 1820W        W 5884   8.049   7.113   0.041 -0.1193 -0.0928 -0.1102
 1821W        W 5885   7.018   1.331  10.206  0.0575  0.0498 -0.0217
 1822W        W 5886   1.647   3.810   2.343  0.2222 -0.2751  0.2878
 1823W        W 5887   5.299   0.744   3.102 -0.0553  0.1115  0.2634
 1824W        W 5888   2.368   8.214   0.388 -0.3361  0.3275 -0.2573
 1825W        W 5889   0.283   4.918  10.648 -0.0877 -0.0731 -0.0235
 1826W        W 5890   2.188   0.677   0.166 -0.1479  0.0872 -0.1627
 1827W        W 5891   5.721  10.041   0.269  0.0327  0.3178 -0.5167
 1828W        W 5892   3.116   5.406   7.649 -0.0575 -0.4899 -0.0435
 1829W        W 5893   6.483   1.428   1.726  0.3567  0.0285  0.0050
 1830W        W 5894   1.720   5.661   2.953  0.1901 -0.0448  0.1603
 1831W        W 5895   1.775   4.245   3.057 -0.0188  0.0738  0.0312
 1832W        W 5896   0.020   9.668   1.918 -0.0664 -0.0524 -0.1766
 1833W        W 5897   6.822   1.014   9.839 -0.2691  0.0099 -0.0749
 1834W        W 5898   5.836   3.890  10.803 -0.0998 -0.1085 -0.0129
 1835W        W 5899   8.795   5.863   3.409  0.1855  0.1059 -0.1259
 1836W        W 5900   8.012   0.662   1.131  0.3045  0.1469 -0.2998
 1837W        W 5901   5.483   7.961   1.695 -0.1161 -0.0884 -0.3476
 1838W        W 5902   2.043   3.893  11.402 -0.5606  0.2485 -0.0053
 1839W        W 5903   8.752   2.347   0.946 -0.0564 -0.2197 -0.0983
 1840W        W 5904   4.494   6.377   8.165  0.1609 -0.1055 -0.0177
 1841W        W 5905   0.850   4.720   9.369  0.0304  0.2097  0.1307
 1842W        W 5906   1.714   8.274   9.495  0.0010 -0.2430 -0.2082
 1843W        W 5907   9.800   5.477  11.350 -0.1917  0.1679  0.0981
 1844W        W 5908   3.858   2.046   0.470  0.0487  0.0365  0.0022
 1845W        W 5909   3.347   2.564   2.573  0.0709 -0.3070  0.3059
 1846W        W 5910   7.192   5.537   2.346 -0.0014 -0.0053 -0.0706
 1847W        W 5911   7.357   4.395   9.700 -0.2621  0.2618  0.1356
 1848W        W 5912   6.980   2.753  10.815  0.2554  0.2641 -0.0712
 1849W        W 5913  10.015   9.591   3.540 -0.1477 -0.1233  0.0816
 1850W        W 5914   7.474   8.521  10.665  0.1157  0.0653  0.1397
 1851W        W 5915   9.685   9.954   2.197 -0.0170 -0.0964 -0.0046
 1852W        W 5916   2.924   3.218  11.519 -0.0940  0.0702  0.1688
 1853W        W 5917   0.054   4.304   1.983 -0.0090 -0.2314 -0.3166
 1854W        W 5918   5.205   2.299   2.580 -0.1434 -0.1336 -0.2564
 1855W        W 5919   2.325   8.859   0.522 -0.1820 -0.4000  0.3922
 1856W        W 5920   6.580   9.706   2.083 -0.0219 -0.0989  0.1185
 1857W        W 5921   3.386   6.633   2.063 -0.1247 -0.1184  0.1094
 1858W        W 5922   1.188   2.006   9.453  0.0135  0.4170  0.1461
 1859W        W 5923   7.708   4.690   9.878 -0.2007  0.1037 -0.2116
 1860W        W 5924   6.118   0.588   2.077 -0.3781  0.2236 -0.3558
 1861W        W 5925   4.574   0.117   3.381  0.0325  0.1992 -0.0626
 1862W        W 5926   6.904   6.482   1.876 -0.1424 -0.0455 -0.0571
 1863W        W 5927   8.777   7.018   8.818 -0.0869  0.1475 -0.1812
 1864W        W 5928   6.132   8.012   7.616  0.1123 -0.1353  0.0536
 1865W        W 5929  10.039   8.348  11.386  0.0103 -0.0201  0.3214
 1866W        W 5930   1.910   7.427   8.956  0.0539 -0.0484 -0.0480
 1867W        W 5931   8.134   4.920   0.368 -0.0346 -0.0806 -0.1114
 1868W        W 5932   9.709   3.073   1.113  0.0086  0.2718 -0.0254
 1869W        W 5933   6.831   3.938   1.422 -0.2088 -0.0749 -0.2050
 1870W        W 5934  10.107   7.513   2.846  0.0228 -0.3739  0.0294
 1871W        W 5935  10.116   1.104  10.912 -0.0801 -0.2195  0.0404
 1872W        W 5936   1.128   1.507   1.282  0.1066  0.4183 -0.2948
 1873W        W 5937   7.599   9.094   3.247  0.0840  0.3689  0.1219
 1874W        W 5938   0.104   6.228   8.693 -0.0345  0.0615  0.0909
 1875W        W 5939  10.159   2.226   0.167  0.1402  0.2600  0.1179
 1876W        W 5940   2.890   7.338   0.525  0.0149 -0.1095  0.0826
 1877W        W 5941   1.530   8.716   9.589  0.1836 -0.1142 -0.2612
 1878W        W 5942   9.268   5.098  10.613  0.1835  0.0268 -0.1301
 1879W        W 5943   3.807   1.296   7.184  0.3753  0.2555  0.0225
 1880W        W 5944   4.787   0.612   0.592  0.1987  0.1496  0.3541
 1881W        W 5945   6.332   9.048   8.441 -0.1742 -0.0117  0.0591
 1882W        W 5946   3.374   4.957   1.377 -0.0212  0.2770 -0.0078
 1883W        W 5947   5.029   0.273   3.181  0.1174 -0.1120 -0.1571
 1884W        W 5948  10.211   2.494   2.283  0.1151 -0.1152 -0.1239
 1885W        W 5949   5.810   4.236   0.383  0.1650 -0.0568  0.0776
 1886W        W 5950   3.715   7.143   8.111 -0.0474  0.1259  0.0807
 1887W        W 5951   3.240   4.259   1.033 -0.3191 -0.1060 -0.0553
 1888W        W 5952   1.078   4.668   7.343 -0.0583 -0.1007  0.2576
 1889W        W 5953   2.646   2.923   2.159  0.1424 -0.0951 -0.0581
 1890W        W 5954   0.281   3.549   3.298  0.0074  0.0173 -0.1951
 1891W        W 5955   2.858   2.529   2.436 -0.0434  0.0592  0.1823
 1892W        W 5956   6.195   1.226  10.597 -0.0723 -0.0786  0.1440
 1893W        W 5957   1.359   3.848   1.267 -0.1802  0.0432  0.0130
 1894W        W 5958   4.018   8.480   1.044  0.0831 -0.0811 -0.0205
 1895W        W 5959   6.054  10.377   1.455 -0.0254  0.3299  0.1696
 1896W        W 5960   0.211   5.066   9.413 -0.1049 -0.1452 -0.3662
 1897W        W 5961   6.581   7.344  10.658 -0.1761  0.1865  0.2785
 1898W        W 5962  10.346   4.364   8.911  0.0286  0.1691  0.3338
 1899W        W 5963   1.682   0.301   8.763  0.2615  0.3108  0.0698
 1900W        W 5964   0.899   5.352   8.668  0.1155  0.1158  0.2046
 1901W        W 5965  10.043   3.190   2.940  0.0562  0.1078 -0.2877
 1902W        W 5966   8.562   5.829   0.277 -0.2022 -0.4025 -0.3179
 1903W        W 5967   9.296   3.630  10.123  0.1030 -0.4815 -0.0478
 1904W        W 5968   9.953   0.815  10.042 -0.1481  0.1877  0.2648
 1905W        W 5969   2.427   7.957  11.403 -0.0970 -0.1690 -0.1666
 1906W        W 5970   7.617   9.718   8.189  0.3927 -0.4482  0.1082
 1907W        W 5971   5.490   4.426   2.181 -0.0334  0.2761  0.2278
 1908W        W 5972   9.711   8.339   1.125 -0.4497 -0.0584 -0.0133
 1909W        W 5973   8.140   8.067  11.085 -0.0997 -0.3094 -0.1321
 1910W        W 5974   2.106   2.582   2.066  0.0867 -0.2809 -0.1761
 1911W        W 5975   8.399   2.234   9.447  0.0357  0.1284  0.1727
 1912W        W 5976   7.448   9.544   3.145  0.0655  0.1573  0.0712
 1913W        W 5977   1.794   5.757   1.814 -0.1857 -0.2259  0.1654
 1914W        W 5978   6.680   2.789   8.985  0.4179  0.3253  0.0521
 1915W        W 5979   3.068   0.728   2.535 -0.1132  0.0770  0.0492
 1916W        W 5980   8.810  10.101   9.421 -0.0172  0.4998  0.0615
 1917W        W 5981   4.177   5.475   3.268  0.2195  0.3282  0.0358
 1918W        W 5982   2.838   7.905   0.272 -0.2891  0.0257  0.1544
 1919W        W 5983   0.611   0.387   9.872 -0.2075  0.2277  0.1869
 1920W        W 5984   0.104   4.907   1.372  0.0471 -0.3886  0.2415
 1921W        W 5985   8.443   2.553   1.303  0.2632  0.3339  0.1396
 1922W        W 5986   1.744   6.921   9.153 -0.1224  0.2134 -0.1669
 1923W        W 5987   2.730   0.976   1.247 -0.2486  0.0149 -0.1248
 1924W        W 5988   7.559   7.348   2.227  0.2175  0.1521  0.2208
 1925W        W 5989   8.688   6.365   2.477 -0.1677 -0.0852 -0.0794
 1926W        W 5990   3.993   8.708   2.006 -0.1576  0.0096 -0.0255
 1927W        W 5991   8.583   2.797  10.184 -0.3393 -0.1271  0.4557
 1928W        W 5992   2.584   6.567   3.043  0.0460  0.1801 -0.2254
 1929W        W 5993   0.261   6.715   8.537 -0.3148 -0.1519 -0.0257
 1930W        W 5994   3.749   2.847   2.842  0.2165 -0.0538 -0.1491
 1931W        W 5995   2.132   7.149   1.672 -0.1921  0.2648 -0.0336
 1932W        W 5996   9.024   4.554   0.647 -0.0164  0.1618 -0.0922
 1933W        W 5997   8.366   6.437   9.429 -0.0664  0.0833 -0.0537
 1934W        W 5998   8.692   8.205   3.659  0.2151  0.0383 -0.1692
 1935W        W 5999   9.340   1.924   0.208 -0.3013 -0.1111  0.0816
 1936W        W 6000   8.777   7.515   0.562  0.0779 -0.3146  0.1282
 1937W        W 6001   6.853   7.059   0.457 -0.0365 -0.0570 -0.3187
 1938W        W 6002   8.404   2.717   0.503 -0.1585  0.2234  0.2742
 1939W        W 6003   2.207   2.154   0.441 -0.0483  0.1367  0.3135
 1940W        W 6004   1.277   2.011   1.423 -0.1459 -0.0217  0.1402
 1941W        W 6005   1.215   2.545   2.336  0.0379 -0.1374 -0.0159
 1942W        W 6006   8.912   0.723   0.489  0.1128 -0.3045 -0.3110
 1943W        W 6007   5.924   5.643   0.422 -0.0988 -0.2084 -0.0147
 1944W        W 6008   9.738   2.916   9.266 -0.1744  0.3498 -0.0023
 1945W        W 6009  10.406   6.112   0.001 -0.0620  0.4141  0.1198
 1946W        W 6010   4.179  10.652   9.860 -0.1963  0.1504 -0.0237
 1947W        W 6011   8.952   9.286  10.404 -0.0437 -0.1598 -0.0387
 1948W        W 6012   1.374   6.881   9.489 -0.1381  0.0109 -0.0165
 1949W        W 6013   7.129   3.816   3.452  0.0373  0.1469  0.0843
 1950W        W 6014   3.492   8.814   2.954  0.1934 -0.1478  0.2587
 1951W        W 6015   8.153   5.593  10.688 -0.0590 -0.0988 -0.1116
 1952W        W 6016   4.719   9.454  10.420 -0.1518 -0.2191  0.0894
 1953W        W 6017   8.474   0.956   4.005 -0.2228  0.1049 -0.1204
 1954W        W 6018   7.512   1.830   0.703  0.2805 -0.1372 -0.1538
 1955W        W 6019   1.444   6.075   1.874  0.1415 -0.1288 -0.0073
 1956W        W 6020   1.592   0.677   9.302  0.2359  0.1229  0.4757
 1957W        W 6021   9.188   8.501   0.355 -0.2909  0.0261  0.0088
 1958W        W 6022   8.832   6.495   8.648  0.1093 -0.0367 -0.1965
 1959W        W 6023   2.169   0.879  10.263  0.0821 -0.2126  0.3408
 1960W        W 6024   0.165   9.921   0.536 -0.0002  0.0786  0.0374
 1961W        W 6025   0.913   9.511  11.007 -0.0254  0.1145  0.2214
 1962W        W 6026   6.594   9.973   8.374 -0.0179  0.2286  0.1573
 1963W        W 6027   5.937   1.942  10.090 -0.2912  0.2342  0.0020
 1964W        W 6028   2.005   9.966  10.846 -0.1259  0.0171  0.1016
 1965W        W 6029  10.319   0.578   2.625 -0.1576 -0.0058 -0.2425
 1966W        W 6030  10.246   9.225   9.967  0.0173  0.1507  0.0566
 1967W        W 6031   6.873   2.189   1.109  0.4413  0.1902  0.1182
 1968W        W 6032   4.872   1.862   8.549 -0.1458 -0.4233  0.0159
 1969W        W 6033   8.897   3.885   8.940 -0.0195  0.0186 -0.3152
 1970W        W 6034   0.914   6.855   3.054  0.2163  0.0358  0.1398
 1971W        W 6035   5.430   3.083  10.199 -0.1498 -0.3504  0.0490
 1972W        W 6036   0.580   5.858   9.817  0.1091 -0.1790  0.0297
 1973W        W 6037   9.686   9.755   1.737 -0.1740  0.0750  0.2314
 1974W        W 6038   7.925   5.047  11.491 -0.3822 -0.1022  0.0770
 1975W        W 6039   2.358   7.579  10.694  0.0247 -0.1969 -0.0431
 1976W        W 6040   2.932   6.847   9.942  0.0002  0.2881  0.0347
 1977W        W 6041   3.897   1.468   1.184 -0.1878 -0.0686  0.0680
 1978W        W 6042   5.332   5.353  10.707  0.0556 -0.0904  0.0007
 1979W        W 6043   1.826   2.467   0.660 -0.2000  0.3422  0.0178
 1980W        W 6044   3.972   7.055   2.987 -0.3155  0.0035 -0.2056
 1981W        W 6045   7.342   1.582  11.265 -0.0392 -0.0030  0.0481
 1982W        W 6046   4.843   7.173   9.898  0.0975 -0.2525  0.0419
 1983W        W 6047   1.155   4.987   3.233  0.0737 -0.2415  0.2122
 1984W        W 6048   6.717   6.331   1.403 -0.0015  0.1110 -0.1685
 1985W        W 6049   0.922   3.627   2.019 -0.1268  0.1888  0.1044
 1986W        W 6050   4.419   8.472  10.506  0.1776  0.0659  0.3746
 1987W        W 6051   4.474   5.712  10.493  0.0137 -0.1687 -0.2515
 1988W        W 6052   9.246   5.898   9.620 -0.0201 -0.1904 -0.1276
 1989W        W 6053   7.027   6.893  10.977  0.2403  0.2576  0.0535
 1990W        W 6054   8.694  10.590  11.236  0.1247  0.1071  0.0831
 1991W        W 6055   6.636   5.842   8.653  0.2938  0.1899 -0.1205
 1992W        W 6056   7.160   9.964   2.038 -0.0129  0.1251  0.0371
 1993W        W 6057   6.156   8.617   9.613  0.2163  0.3713 -0.3032
 1994W        W 6058   0.765   9.829   3.110 -0.1263  0.1043  0.0395
 1995W        W 6059   9.244   4.138   1.763 -0.0088 -0.0670  0.1978
 1996W        W 6060   2.513   2.241   2.813  0.0072 -0.0627 -0.0973
 1997W        W 6061   1.648   3.404   8.505  0.0932  0.1066 -0.0265
 1998W        W 6062   3.236   4.673  10.634  0.0060 -0.0503  0.0296
 1999W        W 6063   1.183   0.751   8.383 -0.1441 -0.4576 -0.1043
 2000W        W 6064   4.133   0.250   0.669  0.2073 -0.0326  0.0506
 2001W        W 6065   7.678   2.431   3.558 -0.0525 -0.0541 -0.1084
 2002W        W 6066   3.801   0.391   1.171  0.0796  0.0256  0.0639
 2003W        W 6067   3.307   3.787   2.919 -0.0379  0.1979 -0.0874
 2004W        W 6068   9.197   0.635   3.614 -0.0183  0.1307  0.2508
 2005W        W 6069   9.273   6.154   2.695 -0.0866  0.0737 -0.1051
 2006W        W 6070   0.330   7.890   8.002 -0.0155 -0.3317 -0.0172
 2007W        W 6071   6.506   0.157   1.120 -0.1653 -0.0603  0.2111
 2008W        W 6072   4.492   3.002   2.561 -0.1050 -0.2237 -0.1638
 2009W        W 6073   2.975   9.454   1.412 -0.0771  0.2634 -0.0752
 2010W        W 6074   7.296   6.890   2.121 -0.3434  0.2516 -0.0809
 2011W        W 6075   8.584   3.603   9.712 -0.1089 -0.0075 -0.0801
 2012W        W 6076  10.209   0.340  10.893 -0.1682  0.0685 -0.0231
 2013W        W 6077   4.760   6.638   2.941 -0.1141  0.1149  0.0038
 2014W        W 6078   8.046  10.515  10.460  0.3079 -0.1816 -0.0421
 2015W        W 6079   5.023   3.826   7.792  0.0440  0.1891 -0.5377
 2016W        W 6080  10.163   2.351   2.810 -0.1589 -0.2774  0.0626
 2017W        W 6081   5.426   7.610   9.526 -0.1387 -0.0006 -0.5502
 2018W        W 6082   2.636   7.080   7.441  0.0020 -0.2687 -0.0734
 2019W        W 6083   7.425   1.060  11.199 -0.0362  0.0737 -0.1024
 2020W        W 6084   8.884   4.658   2.317  0.1204 -0.0682  0.0827
 2021W        W 6085   9.483   8.773   2.057 -0.0792 -0.3746 -0.0106
 2022W        W 6086   2.678   2.370   0.324  0.1036 -0.1018 -0.1567
 2023W        W 6087   7.280   9.799  11.165 -0.1307  0.1876 -0.1244
 2024W        W 6088   4.105   7.994   2.970 -0.0805  0.2866  0.2210
 2025W        W 6089   1.835   1.316   0.610 -0.2175  0.0940  0.3760
 2026W        W 6090   2.573   7.238   9.440  0.0037 -0.1051  0.1559
 2027W        W 6091  10.413   4.298   0.846  0.1707  0.1559  0.2772
 2028W        W 6092   7.960   5.581   1.655  0.1076  0.0329  0.1388
 2029W        W 6093   7.888   7.759   4.095 -0.1373  0.2879 -0.0299
 2030W        W 6094   0.097   3.231   7.393 -0.1947  0.0085 -0.0531
 2031W        W 6095   0.887   6.124   1.837  0.0672  0.0740  0.1420
 2032W        W 6096   0.622   0.815  10.738  0.1248 -0.1749  0.0841
 2033W        W 6097   3.413   4.461   1.666  0.2253 -0.3600  0.0748
 2034W        W 6098   7.934   9.135   2.322 -0.0531 -0.0119  0.2018
 2035W        W 6099  10.132   3.453   9.936 -0.2019  0.3800 -0.3558
 2036W        W 6100   6.289   4.207   3.304  0.2413  0.1098 -0.0707
 2037W        W 6101   5.962   3.195   1.548 -0.1244  0.0390 -0.0874
 2038W        W 6102   9.848   6.592   9.467 -0.0024  0.0112 -0.1896
 2039W        W 6103   5.609   6.525   9.520 -0.0616  0.4373 -0.1595
 2040W        W 6104   7.173   4.941   2.746 -0.2097 -0.1598  0.1243
 2041W        W 6105   1.744   7.575   1.969 -0.2674  0.2173  0.1461
 2042W        W 6106   3.795   1.704  11.327 -0.1268 -0.0415 -0.1292
 2043W        W 6107  10.043  10.580  11.345 -0.3317 -0.0679  0.1044
 2044W        W 6108   0.631   0.760  10.183  0.0225 -0.0265 -0.3327
 2045W        W 6109   4.210   8.685   9.634 -0.1709  0.1619 -0.0907
 2046W        W 6110  10.167   4.333   9.936  0.3642 -0.0728  0.1215
 2047W        W 6111   6.421   3.049   1.736 -0.0005 -0.1464  0.0331
 2048W        W 6112   3.444   7.249  10.468 -0.0209  0.0873  0.1904
 2049W        W 6113   0.186   3.293   2.903 -0.0916 -0.0982 -0.2964
 2050W        W 6114   1.682   0.017   0.794 -0.0665  0.0979  0.0504
 2051W        W 6115   6.124   9.272   2.054 -0.0988  0.0959 -0.2128
 2052W        W 6116   8.810   0.057   2.474  0.0340  0.2844  0.2243
 2053W        W 6117   7.582   2.676   2.401  0.0721 -0.1751 -0.0626
 2054W        W 6118  10.533   7.574   3.035 -0.0710 -0.3013 -0.3154
 2055W        W 6119   1.931   2.290   1.128 -0.2171  0.0925  0.0993
 2056W        W 6120   5.991   5.453  10.184  0.3494 -0.0632 -0.0316
 2057W        W 6121   4.180   1.056   1.316  0.0382  0.0383 -0.4364
 2058W        W 6122   8.468   0.927   1.011  0.2364 -0.2738  0.0256
 2059W        W 6123   9.115  10.479   2.981  0.0806 -0.0765  0.1930
 2060W        W 6124   9.110   6.668   3.176  0.0712  0.0723  0.1334
 2061W        W 6125   1.626   3.711   8.983 -0.4349 -0.1809  0.1642
 2062W        W 6126   1.645   9.550   2.011  0.1464 -0.0479  0.2339
 2063W        W 6127  10.040   3.792   0.335  0.0756  0.3025 -0.0048
 2064W        W 6128   0.642   7.028  11.172 -0.0646  0.1421 -0.0176
 2065W        W 6129  10.404   3.890   9.172 -0.4569 -0.0047  0.0095
 2066W        W 6130   5.736   9.988  11.373 -0.2311 -0.2036 -0.1500
 2067W        W 6131   9.044   8.242   2.671 -0.0138  0.1813  0.0596
 2068W        W 6132   7.714   8.887   0.034 -0.3941 -0.0431 -0.4837
 2069W        W 6133   5.665   3.914   2.040  0.0172 -0.2736 -0.5458
 2070W        W 6134   1.606   6.156   3.441 -0.1647  0.0800  0.2675
 2071W        W 6135   5.299   1.703   9.169  0.2888 -0.0026  0.1080
 2072W        W 6136   7.818   1.306  10.050 -0.3188 -0.1478 -0.0997
 2073W        W 6137   8.522   3.751   0.668  0.1681  0.1466 -0.1244
 2074W        W 6138   7.983  10.215   3.182  0.0100  0.2081 -0.0934
 2075W        W 6139   0.672   8.888   2.403  0.0033 -0.1278  0.0452
 2076W        W 6140   5.282   2.867   3.193  0.0096 -0.1550 -0.2472
 2077W        W 6141   3.265   8.075   1.255 -0.0888  0.1959  0.2283
 2078W        W 6142   5.107   8.005  10.833 -0.1695  0.0687 -0.0031
 2079W        W 6143   0.388   7.068   9.050 -0.1875  0.0110  0.3895
 2080W        W 6144   2.262   2.922   7.517  0.1402 -0.1373 -0.1245
 2081W        W 6145   6.819   8.158   9.196  0.2924  0.1843  0.2034
 2082W        W 6146   7.386   1.608  10.036  0.0388  0.1503  0.0381
 2083W        W 6147   5.641   1.684   1.849  0.3383  0.2220  0.0052
 2084W        W 6148   3.419   0.105   3.224 -0.1304  0.0815 -0.0391
 2085W        W 6149   9.567   9.770  11.002  0.0903 -0.0023 -0.3257
 2086W        W 6150   6.883   2.869   1.718  0.0386  0.0616 -0.0963
 2087W        W 6151   6.977   6.451  10.732 -0.0646 -0.0613  0.1021
 2088W        W 6152   1.737   5.841   9.314 -0.0571  0.2093 -0.0949
 2089W        W 6153   8.086   0.219   8.991  0.2116 -0.1152  0.0904
 2090W        W 6154   7.471   7.210   0.613 -0.0441 -0.1534 -0.1033
 2091W        W 6155   7.705   9.516   9.055  0.1950 -0.2343  0.1237
 2092W        W 6156   6.501   5.137  10.733 -0.4192  0.2361 -0.1694
 2093W        W 6157   5.754   2.144   3.607  0.0567  0.2904 -0.0607
 2094W        W 6158  10.289   7.081   8.821  0.2909  0.0467 -0.2100
 2095W        W 6159   6.083   6.434   0.659  0.0138  0.1392  0.1501
 2096W        W 6160   1.064   0.316   8.123  0.2541 -0.2132 -0.1899
 2097W        W 6161  10.615  10.117   2.041  0.1573 -0.0413  0.2438
 2098W        W 6162   4.503   9.318   8.110  0.1281  0.2588  0.3961
 2099W        W 6163   8.782   4.161   0.854 -0.0714 -0.0753 -0.1944
 2100W        W 6164   9.435   9.126   2.945  0.1942  0.2456  0.0283
 2101W        W 6165   8.377   8.183   0.003  0.1082 -0.0766 -0.1038
 2102W        W 6166   3.341   1.986   3.883 -0.3131 -0.0112 -0.0340
 2103W        W 6167   0.232   3.098   0.699 -0.2454  0.1122  0.0628
 2104W        W 6168   4.604   5.070   3.965 -0.0389  0.1905 -0.4010
 2105W        W 6169   4.797   4.728   1.423 -0.2045  0.0524 -0.1160
 2106W        W 6170   1.942   3.156   7.899 -0.4763  0.2848 -0.3363
 2107W        W 6171   2.083   6.320   0.563  0.1262  0.4304 -0.1576
 2108W        W 6172   5.099   8.472   1.617  0.1806  0.0809  0.0573
 2109W        W 6173   7.893   7.677   9.667 -0.2882  0.1043  0.0200
 2110W        W 6174  10.463  10.239   0.739  0.0433  0.2851 -0.1829
 2111W        W 6175   5.793  10.575   8.881 -0.1216  0.1069 -0.1849
 2112W        W 6176   6.635   4.293   2.064 -0.0245 -0.2047 -0.0094
 2113W        W 6177   2.618   7.438   1.813  0.0715  0.0196 -0.1249
 2114W        W 6178   1.114   7.273   0.696  0.0545  0.2705 -0.2817
 2115W        W 6179   0.947   6.498   9.433  0.4025 -0.1901  0.0268
 2116W        W 6180   1.955   5.472   0.878 -0.0321 -0.2029 -0.0623
 2117W        W 6181   3.010   1.224  10.887 -0.4190 -0.1520 -0.0810
 2118W        W 6182   9.368   1.418   9.302 -0.0020 -0.0755 -0.1880
 2119W        W 6183  10.455   5.223  10.017 -0.2023 -0.2092 -0.1282
 2120W        W 6184   6.909   6.281   8.654  0.0543 -0.3332  0.2689
 2121W        W 6185   2.557   6.471   0.376  0.1633 -0.0145 -0.2792
 2122W        W 6186   5.093   2.611   8.351 -0.1645 -0.1606 -0.0401
 2123W        W 6187   0.295   1.593   0.335  0.0329  0.0558  0.1139
 2124W        W 6188   4.890   2.756  10.668 -0.1046 -0.4475  0.0146
 2125W        W 6189   1.016   4.450   2.479 -0.1297  0.0672  0.1960
 2126W        W 6190   9.288   9.633   2.115  0.0331  0.1401 -0.2215
 2127W        W 6191   3.099   2.749   1.213  0.0073  0.1300 -0.4142
 2128W        W 6192   3.672   2.613  11.055  0.0155 -0.0260 -0.0021
 2129W        W 6193  10.581   0.673  10.985 -0.2755 -0.0089 -0.0816
 2130W        W 6194   4.114   6.612   9.898  0.0345  0.2190  0.0266
 2131W        W 6195   7.442   3.416   8.886 -0.0755 -0.0477  0.2470
 2132W        W 6196   7.317   0.629  11.391  0.4296 -0.1161  0.1371
 2133W        W 6197   4.504   9.991   2.216 -0.0571 -0.4339 -0.1703
 2134W        W 6198   3.215   0.377   7.333  0.1409  0.0031 -0.1371
 2135W        W 6199   7.811   0.219  10.168  0.0061  0.1848 -0.0688
 2136W        W 6200   7.861   6.224   3.065  0.1524  0.0089  0.2987
 2137W        W 6201   4.861   1.832   1.146  0.0729  0.1989  0.0219
 2138W        W 6202   2.244   6.679   8.346 -0.1728 -0.3952  0.2425
 2139W        W 6203   2.573   9.289  10.003  0.3522  0.1644 -0.2328
 2140W        W 6204   5.833   4.691   9.514  0.2177 -0.0638  0.1448
 2141W        W 6205   5.322  10.274   1.060  0.0082  0.1221 -0.2724
 2142W        W 6206   1.467   3.405   7.827 -0.2198  0.2137 -0.2215
 2143W        W 6207   5.676  10.071   7.623 -0.0720 -0.1840  0.1103
 2144W        W 6208   0.130   5.569   9.945 -0.1072  0.2156  0.3664
 2145W        W 6209   8.943   3.737  10.548  0.1389  0.1368  0.0769
 2146W        W 6210   6.840   9.147   0.453 -0.0452  0.0366 -0.0338
 2147W        W 6211   0.199   7.163   2.828  0.0371 -0.0218  0.1821
 2148W        W 6212   1.982   8.954   0.129 -0.0206 -0.4196 -0.0209
 2149W        W 6213   0.731   9.895   1.464 -0.0100 -0.2313  0.0763
 2150W        W 6214   1.659   3.339  10.006 -0.1751 -0.1334 -0.2480
 2151W        W 6215   0.595   5.304   4.096 -0.0191 -0.0550  0.1191
 2152W        W 6216   1.151   3.607   2.437  0.1630 -0.1739 -0.0628
 2153W        W 6217   9.495   7.485   0.134 -0.2556 -0.0006  0.1856
 2154W        W 6218   4.939   0.478   8.337  0.0491 -0.1407  0.2351
 2155W        W 6219   9.803   7.633   0.619 -0.0663 -0.0449 -0.2692
 2156W        W 6220   2.900   4.088  10.035  0.0964  0.2279 -0.2844
 2157W        W 6221   8.619   6.117   3.804 -0.0850 -0.0841 -0.1973
 2158W        W 6222   9.341   3.974   0.265 -0.1966 -0.1710 -0.0566
 2159W        W 6223   6.389   4.355  11.217  0.0251 -0.0527 -0.1125
 2160W        W 6224   6.082   6.203   9.704  0.0144 -0.0105 -0.1585
 2161W        W 6225   1.289   7.919  10.485  0.1014 -0.1077  0.1062
 2162W        W 6226   3.352   4.184   9.811 -0.0090  0.1520 -0.0446
 2163W        W 6227   7.264   0.003   1.875  0.0338 -0.1386 -0.0881
 2164W        W 6228   7.505   3.590   7.496  0.0381 -0.2602  0.0216
 2165W        W 6229   6.066   9.819   2.189 -0.2796 -0.0272  0.0085
 2166W        W 6230   9.435   1.082  10.387  0.0286  0.0471 -0.4246
 2167W        W 6231   2.896   8.792   8.257  0.1814 -0.1912 -0.2465
 2168W        W 6232   2.586   7.991   1.615 -0.0339 -0.0038  0.0524
 2169W        W 6233   5.226   8.976   7.777 -0.1046  0.1884  0.0811
 2170W        W 6234   1.507   5.921  11.057  0.5382  0.1066  0.0233
 2171W        W 6235   7.455   3.069  10.895 -0.0099 -0.3622  0.0129
 2172W        W 6236   6.276   1.761   9.695 -0.0403 -0.1179  0.1234
 2173W        W 6237   7.964   7.083   0.518  0.2179 -0.0852 -0.1267
 2174W        W 6238   0.840  10.513   0.279 -0.0629  0.2794  0.0579
 2175W        W 6239   7.544   2.389   1.973 -0.0780 -0.0914 -0.0202
 2176W        W 6240   8.756   3.172  10.539 -0.4462 -0.2911 -0.3927
 2177W        W 6241   3.466   8.888  10.260  0.0479 -0.2252 -0.0300
 2178W        W 6242   8.840   4.583  10.818  0.1100  0.3568  0.3272
 2179W        W 6243   0.303   4.847   9.964  0.1437 -0.2070  0.5548
 2180W        W 6244   4.933   5.596   2.031 -0.1273  0.2545  0.1132
 2181W        W 6245   6.109   4.150   1.221  0.1616 -0.2354  0.0176
 2182W        W 6246   6.857   8.356  10.566  0.1578 -0.0565 -0.1925
 2183W        W 6247   7.823   3.011   8.944 -0.0976  0.1562 -0.0294
 2184W        W 6248   1.234   9.343  10.604  0.2370 -0.0179  0.0766
 2185W        W 6249   7.878   3.667  10.255 -0.0861  0.0419  0.1387
 2186W        W 6250   6.407   7.941   0.836  0.0866  0.3069  0.3060
 2187W        W 6251   1.126   8.770   1.543 -0.0187  0.1315  0.2353
 2188W        W 6252   6.965   1.316  11.112  0.0221 -0.3161  0.1802
 2189W        W 6253   9.048   3.149   3.550 -0.0701  0.0203 -0.0261
 2190W        W 6254   0.788   4.892  10.139 -0.1896  0.2357  0.1560
 2191W        W 6255   1.907   9.167   1.754  0.2821 -0.1155 -0.1169
 2192W        W 6256   5.369   9.547   3.366 -0.0851  0.1644  0.1237
 2193W        W 6257   8.144   3.210   8.158 -0.0022  0.2065  0.1159
 2194W        W 6258   1.386   4.592  10.766  0.1558  0.0027 -0.1810
 2195W        W 6259   7.379   2.246   0.947 -0.2663  0.1986  0.1356
 2196W        W 6260   2.941   4.458   9.089  0.4664 -0.0309 -0.0322
 2197W        W 6261   3.362   6.005   9.048 -0.2223 -0.1579  0.2305
 2198W        W 6262   7.784   5.950  10.839 -0.0776 -0.1440 -0.1562
 2199W        W 6263   2.832   0.532   1.470  0.2502  0.0164 -0.1858
 2200W        W 6264   3.270   5.068  10.112  0.0140  0.1979 -0.2434
 2201W        W 6265  10.424   9.175   2.683 -0.2616 -0.1004 -0.4080
 2202W        W 6266   8.180   8.329   8.497  0.0464  0.1842  0.1531
 2203W        W 6267   6.631   9.333   3.378 -0.0046  0.2058 -0.1483
 2204W        W 6268   3.845   4.079   2.166  0.4465 -0.0482  0.4983
 2205W        W 6269   6.739   6.215   2.280  0.0893 -0.3313  0.3667
 2206W        W 6270   5.990   2.980   2.041 -0.0143 -0.1029  0.0733
 2207W        W 6271   7.133   0.998   0.634 -0.2762 -0.2025 -0.3589
 2208W        W 6272   6.493   6.214   1.863  0.0718 -0.0232 -0.0689
 2209W        W 6273   9.937   2.229   0.987 -0.0720  0.2647  0.0236
 2210W        W 6274   7.047   7.649   3.961  0.0940  0.0728 -0.1852
 2211W        W 6275   3.396   2.015   9.767  0.0487  0.2153 -0.2378
 2212W        W 6276   9.249   1.177   8.855  0.1524  0.2807 -0.0794
 2213W        W 6277   0.047   3.934   1.089  0.0446 -0.0353  0.3188
 2214W        W 6278   6.172   4.030   0.687  0.1655  0.0708  0.0039
 2215W        W 6279   3.855  10.120   0.275 -0.1217 -0.0058 -0.3554
 2216W        W 6280   9.285   9.995   1.469 -0.1745 -0.1687 -0.0683
 2217W        W 6281   0.210   0.528  11.385  0.5178 -0.0242 -0.2023
 2218W        W 6282   5.425   4.059   7.983 -0.0991  0.2639  0.3035
 2219W        W 6283  10.369   7.634   7.512  0.1343  0.0691 -0.0094
 2220W        W 6284   3.536   1.231  10.064  0.3114  0.1290 -0.0864
 2221W        W 6285   8.134   2.912   3.097 -0.0458 -0.0850 -0.1206
 2222W        W 6286   2.566   2.258  11.141 -0.1013 -0.4264  0.2104
 2223W        W 6287   4.586   1.122   2.567  0.0451 -0.0009 -0.2897
 2224W        W 6288   7.421   0.906   8.559  0.2814 -0.0234  0.0842
 2225W        W 6289   1.546   3.761  10.632  0.0144  0.1004 -0.0882
 2226W        W 6290   5.175   7.074  10.252 -0.1063 -0.2551 -0.1227
 2227W        W 6291   6.046   7.103   7.783  0.0105  0.2285  0.0159
 2228W        W 6292   8.227   9.259   1.267 -0.2031  0.3562 -0.1293
 2229W        W 6293   9.198   0.476  10.810  0.2189 -0.1494 -0.0241
 2230W        W 6294   2.683   5.243   3.291 -0.2210 -0.0050 -0.1093
 2231W        W 6295   7.822   7.124   9.938 -0.1687  0.1934 -0.0866
 2232W        W 6296   0.736   7.178   2.755 -0.2724  0.2199  0.0882
 2233W        W 6297   4.003   2.872   0.862  0.3414 -0.0093 -0.0567
 2234W        W 6298   1.147   3.001   3.708 -0.3100  0.3188  0.0642
 2235W        W 6299   7.812   9.753  11.099 -0.0137 -0.0770 -0.2539
 2236W        W 6300   2.472   3.730   7.860 -0.2545  0.2627  0.0415
 2237W        W 6301   4.308   2.391   3.639  0.2166  0.2786  0.2676
 2238W        W 6302   8.303   1.434   7.927  0.1011  0.2824 -0.1409
 2239W        W 6303   2.182   7.769   1.835 -0.0136  0.1084  0.1642
 2240W        W 6304   8.917   1.818   9.117 -0.0505  0.3445  0.0506
 2241W        W 6305   2.781   7.399   9.901 -0.0097  0.1626 -0.0857
 2242W        W 6306   3.112   0.731   0.104  0.0208  0.0483 -0.2293
 2243W        W 6307   3.365   4.293   2.480  0.0164 -0.0322 -0.2410
 2244W        W 6308   4.930  10.504  11.082 -0.0350 -0.0334 -0.1471
 2245W        W 6309   5.879   0.298   8.492 -0.0070 -0.1277  0.0886
 2246W        W 6310   3.449   5.596  11.196  0.3828 -0.0954  0.0273
 2247W        W 6311  10.273   1.415   2.928  0.3518 -0.1700 -0.2823
 2248W        W 6312   9.222   9.705  11.365 -0.1454 -0.1073 -0.2885
 2249W        W 6313   1.124  10.266  10.901 -0.2177 -0.0813  0.3761
 2250W        W 6314   0.858   2.795   8.439  0.2893 -0.0038  0.1899
 2251W        W 6315   7.596   4.105   9.365 -0.0478 -0.0604  0.0354
 2252W        W 6316   8.663   4.165  10.329 -0.1707 -0.0715 -0.0600
 2253W        W 6317   6.707   7.611   1.957 -0.1032  0.1321 -0.0690
 2254W        W 6318   3.101   1.815   2.513  0.1923  0.3980 -0.0744
 2255W        W 6319   2.534   4.216  11.533 -0.1054 -0.1019  0.1118
 2256W        W 6320   2.411   5.856   1.002  0.1884  0.1855 -0.2737
 2257W        W 6321   8.667   6.740   4.068  0.0255 -0.3358  0.2228
 2258W        W 6322   8.863   2.189   0.178 -0.1853 -0.0395 -0.2294
 2259W        W 6323   9.965   5.161  10.913 -0.2459  0.0425  0.2766
 2260W        W 6324   9.217  10.224   2.466 -0.0664  0.0523  0.1021
 2261W        W 6325  10.329   9.704   0.087  0.1140  0.0672  0.1534
 2262W        W 6326   5.645   1.608   2.366  0.0852 -0.3203  0.0320
 2263W        W 6327   6.501   0.611   4.393  0.0514 -0.1444 -0.1564
 2264W        W 6328   6.208   7.705   0.311  0.0285  0.2928  0.0049
 2265W        W 6329   7.592   3.608   0.705  0.0855  0.1448 -0.0292
 2266W        W 6330   2.865   6.472   7.914 -0.1360  0.0521 -0.3706
 2267W        W 6331   8.850   0.832  11.529 -0.0880  0.2671  0.2629
 2268W        W 6332   0.843   1.188   0.927  0.0160 -0.3925  0.1734
 2269W        W 6333   8.326   5.157   8.072  0.0379 -0.1110 -0.1249
 2270W        W 6334   9.673   9.871   1.163  0.0597  0.1627 -0.0478
 2271W        W 6335   2.348   9.052   0.993  0.2230  0.1318  0.1014
 2272W        W 6336   9.205   7.013   2.894  0.0214  0.0361  0.0776
 2273W        W 6337   1.207   0.070   1.764 -0.4879  0.2237  0.2187
 2274W        W 6338   5.886   7.704   8.193  0.0783  0.0554  0.2470
 2275W        W 6339   0.195   9.229   1.704 -0.0983 -0.1603  0.0023
 2276W        W 6340   5.883   1.336   1.124  0.2621 -0.1284 -0.2255
 2277W        W 6341   6.150   4.620   9.914 -0.0913  0.0190 -0.3516
 2278W        W 6342   4.732   4.351   9.743 -0.0970  0.2193  0.3410
 2279W        W 6343   1.313   6.318   8.475  0.3076  0.0493 -0.1220
 2280W        W 6344   1.357  10.650  10.604  0.1776  0.2646  0.0170
 2281W        W 6345   8.889   7.739   2.428 -0.2615 -0.1923  0.1273
 2282W        W 6346   8.823   7.451  11.055  0.3343  0.2169 -0.1171
 2283W        W 6347   2.249   7.537   9.235  0.2155 -0.2971  0.0065
 2284W        W 6348   1.578   6.451   9.179 -0.1285  0.1373  0.0534
 2285W        W 6349   0.621   6.706   2.044 -0.1117  0.0099  0.1442
 2286W        W 6350   1.479   6.337   9.654 -0.2718 -0.3325  0.0032
 2287W        W 6351  10.109   0.163   2.257  0.0732 -0.0625 -0.1205
 2288W        W 6352   7.220  10.552   9.762  0.0102  0.0147 -0.1438
 2289W        W 6353   8.838   4.903   9.181 -0.2141 -0.1951 -0.2594
 2290W        W 6354   0.902   1.392   9.416 -0.0137 -0.0755  0.0781
 2291W        W 6355   3.688  10.218   1.720  0.3670 -0.3427 -0.0235
 2292W        W 6356   2.904  10.089   8.500 -0.1379  0.0325  0.0056
 2293W        W 6357   5.124   6.991   0.338  0.0191 -0.0415 -0.1073
 2294W        W 6358   9.261   1.028   0.546 -0.0260  0.1884  0.2058
 2295W        W 6359   0.290   2.154   1.738 -0.0285 -0.0319  0.0442
 2296W        W 6360   4.805   4.840   2.725 -0.1147  0.2276  0.0088
 2297W        W 6361   5.351  10.209   3.218 -0.0521  0.2278 -0.0950
 2298W        W 6362   5.609   2.088   2.227  0.0973 -0.2366  0.0224
 2299W        W 6363   5.452   4.674   3.682  0.0830 -0.1897  0.1105
 2300W        W 6364   3.434  10.112   2.424 -0.1792 -0.1248 -0.1085
 2301W        W 6365   9.530   9.982  10.225 -0.0619 -0.1826  0.0365
 2302W        W 6366   9.246   6.959   2.090  0.1867  0.1262  0.0399
 2303W        W 6367   7.485   9.794   9.399  0.2298  0.0300 -0.0370
 2304W        W 6368   4.600   7.137  10.444  0.1753  0.0295  0.0338
 2305W        W 6369   5.844   4.853  11.342 -0.2922  0.1983 -0.2563
 2306W        W 6370   2.682   5.049   9.027  0.2616  0.0161  0.0103
 2307W        W 6371   0.778   3.756   1.154 -0.0098 -0.3241  0.0769
 2308W        W 6372   0.779   9.225   0.119 -0.2311  0.3091 -0.2834
 2309W        W 6373   4.978   0.411   8.815  0.3241  0.1937 -0.0934
 2310W        W 6374   5.481   2.302   1.734 -0.0904  0.0515 -0.0712
 2311W        W 6375   8.890   7.942   8.881  0.3955 -0.1116  0.1555
 2312W        W 6376   8.230   1.670   2.184 -0.0685 -0.1276 -0.3645
 2313W        W 6377   0.543   8.971   1.027  0.0377  0.1364 -0.1224
 2314W        W 6378   6.306   8.201   3.050 -0.1003 -0.0100 -0.1281
 2315W        W 6379   0.369   1.639   1.684  0.0119 -0.1398 -0.4906
 2316W        W 6380   3.058   0.712   1.976  0.0649  0.0610 -0.2185
 2317W        W 6381  10.095   9.887   2.010  0.1903 -0.0966  0.2407
 2318W        W 6382   4.006   9.465   1.235  0.2227 -0.1976 -0.0406
 2319W        W 6383   9.327   2.549   3.075 -0.2417 -0.2575 -0.3031
 2320W        W 6384   0.252   0.402   0.894  0.2302 -0.1561  0.0727
 2321W        W 6385   0.911   2.742   2.842 -0.2324 -0.1942 -0.0088
 2322W        W 6386   2.553   7.944   2.098 -0.1730  0.1745 -0.0915
 2323W        W 6387   8.626   8.977   9.961 -0.2924 -0.0433  0.0332
 2324W        W 6388   4.348   3.254  10.189 -0.1831  0.0364 -0.0496
 2325W        W 6389   7.444   7.664   2.598  0.1166 -0.0219 -0.0632
 2326W        W 6390   6.909   1.553   3.083 -0.1487 -0.1074  0.2196
 2327W        W 6391   3.742   6.245   9.455  0.1877 -0.0043  0.0341
 2328W        W 6392   6.675  10.385   4.111 -0.0167 -0.0541  0.1041
 2329W        W 6393   1.211   2.452   3.199 -0.2840  0.5501  0.1746
 2330W        W 6394   9.585   3.070   3.706 -0.2334 -0.3287 -0.1529
 2331W        W 6395   4.520   3.354   3.316 -0.1506  0.0513  0.3887
 2332W        W 6396   1.575   9.961   1.012  0.1414  0.1113  0.1111
 2333W        W 6397   6.587   6.913  11.333  0.0742 -0.0419 -0.0093
 2334W        W 6398   5.095   7.801   0.096 -0.3305 -0.0250 -0.1192
 2335W        W 6399   4.182   6.262   0.560  0.0156  0.0551 -0.1091
 2336W        W 6400   0.140   2.582  10.069  0.2110 -0.1106 -0.1264
 2337W        W 6401  10.018   1.605   2.006  0.3742 -0.0594  0.3445
 2338W        W 6402   3.933  10.203   8.379  0.1558 -0.1402  0.1513
 2339W        W 6403   1.338   1.627   1.721 -0.1004 -0.1657  0.0639
 2340W        W 6404   7.374   9.933   0.782 -0.1867  0.0971  0.0501
 2341W        W 6405   1.975   5.313   7.959 -0.0712 -0.3225  0.1141
 2342W        W 6406   9.664   4.535   9.689 -0.2525 -0.0196 -0.1992
 2343W        W 6407   4.340   0.631   0.463  0.2365  0.1194  0.1458
 2344W        W 6408   9.828   3.067   0.341  0.0553  0.1722 -0.2331
 2345W        W 6409   9.170   2.624   3.672  0.1280  0.3473 -0.1323
 2346W        W 6410   7.791   0.473   9.686 -0.0559 -0.0191 -0.2922
 2347W        W 6411   5.596   7.019   9.894  0.1580  0.2220  0.1855
 2348W        W 6412   9.911   6.998   9.845  0.2704  0.4175 -0.1374
 2349W        W 6413   5.302   1.332  10.604 -0.1006 -0.1241 -0.0691
 2350W        W 6414   8.717   3.474   8.246 -0.1024 -0.1262 -0.0692
 2351W        W 6415   8.053   6.224   1.990  0.0334  0.0738  0.0528
 2352W        W 6416   6.879   2.679  10.293  0.0643  0.1593 -0.0683
 2353W        W 6417  10.595   3.781   1.964 -0.1513 -0.1367 -0.0872
 2354W        W 6418  10.014   1.156   8.612 -0.5365  0.0824 -0.0408
 2355W        W 6419   4.495  10.092   1.694 -0.1496  0.1871  0.1483
 2356W        W 6420   5.803   9.860   3.445  0.0217 -0.2064 -0.0103
 2357W        W 6421  10.639   8.242   8.683  0.0166  0.4871 -0.0867
 2358W        W 6422   9.374   0.301   1.766  0.3165 -0.1876 -0.0932
 2359W        W 6423   0.908   7.147  10.098 -0.0591  0.0914 -0.0663
 2360W        W 6424   1.544   0.666   1.262  0.4823  0.1277 -0.1824
 2361W        W 6425   9.962   0.583   1.484  0.1650  0.1140 -0.0020
 2362W        W 6426   1.479   5.495  10.783  0.0855 -0.0412 -0.4786
 2363W        W 6427   8.209   3.393   9.514 -0.0715 -0.0146 -0.1948
 2364W        W 6428   2.382   6.870   0.658  0.0176 -0.2416 -0.1564
 2365W        W 6429   8.361   2.895  10.611  0.1074 -0.1925  0.0790
 2366W        W 6430   3.473   0.500   2.166 -0.1410 -0.0071  0.0876
 2367W        W 6431   7.954   1.875   0.356 -0.3525  0.1720  0.0519
 2368W        W 6432   3.357   2.215   0.626 -0.0089 -0.2408  0.2506
 2369W        W 6433   5.302   9.375  11.062  0.0734  0.4597  0.0596
 2370W        W 6434   6.229   2.526   8.142  0.0860  0.1418  0.2306
 2371W        W 6435   9.360   4.443   3.866  0.2888 -0.0111 -0.0881
 2372W        W 6436   1.249   9.373   2.339 -0.0285  0.0952  0.1158
 2373W        W 6437   8.240   3.770   1.430 -0.3386  0.0053 -0.1877
 2374W        W 6438   8.884   3.400   8.716 -0.0174  0.0952 -0.1158
 2375W        W 6439   2.218  10.049   0.425  0.1221  0.1608  0.3056
 2376W        W 6440   8.321   0.301   3.199  0.2404  0.1390 -0.0253
 2377W        W 6441   6.221   2.798   2.895 -0.0063  0.1522  0.0037
 2378W        W 6442   2.349   7.227   8.371 -0.2719 -0.1937  0.0277
 2379W        W 6443  10.290   0.404  11.446  0.1368 -0.0073  0.0931
 2380W        W 6444   5.523   0.283   1.829 -0.1209  0.1834  0.0181
 2381W        W 6445   2.169   4.124   7.628  0.0973  0.1293  0.3209
 2382W        W 6446   9.552   2.642   4.068 -0.0903  0.2373  0.1573
 2383W        W 6447   3.243   8.217   0.420 -0.0532  0.0893 -0.0463
 2384W        W 6448   2.445   0.017   2.460 -0.0370 -0.2114  0.0566
 2385W        W 6449   2.423   7.324   0.874  0.0948  0.2320 -0.0802
 2386W        W 6450   2.036   7.965   1.416  0.0207  0.0573 -0.0707
 2387W        W 6451   8.026   8.215   3.010  0.2190 -0.0184 -0.5238
 2388W        W 6452   3.316   3.745   8.905  0.3003  0.2544 -0.0584
 2389W        W 6453   8.378   4.834   3.105  0.1755  0.1791  0.0806
 2390W        W 6454   0.649   6.823   0.086  0.2614 -0.3122  0.0860
 2391W        W 6455   0.129   2.606   0.526  0.0037 -0.0023  0.1878
 2392W        W 6456   9.063   8.520   1.446  0.3767 -0.4783  0.1298
 2393W        W 6457   1.702   8.821  10.211 -0.0175  0.1766 -0.3509
 2394W        W 6458   9.491   8.104   0.660  0.2202 -0.0264  0.3072
 2395W        W 6459   0.032   2.299   2.186 -0.2409  0.0556  0.1657
 2396W        W 6460   8.850   6.618   2.077 -0.3252  0.2450 -0.2262
 2397W        W 6461  10.402   3.836   4.255  0.0702 -0.2419  0.0803
 2398W        W 6462   7.171   4.783   3.662  0.2462  0.0004  0.1725
 2399W        W 6463   7.198  10.331   0.079 -0.0813 -0.0488 -0.1167
 2400W        W 6464   9.196   6.698   9.820  0.2609 -0.1253  0.3698
 2401W        W 6465   8.335   3.397   8.635  0.3453  0.2431  0.2082
 2402W        W 6466   7.023   5.251   3.226 -0.1257 -0.1698 -0.0400
 2403W        W 6467   7.448   0.580   2.506  0.0064  0.0144 -0.4488
 2404W        W 6468   8.488   4.128   9.822  0.0536  0.0828 -0.0021
 2405W        W 6469   6.574  10.449   8.289  0.1271  0.0319 -0.0307
 2406W        W 6470   7.525   2.701   0.150 -0.0055 -0.0421 -0.2947
 2407W        W 6471   1.458   5.246   0.238 -0.0010 -0.2140  0.1060
 2408W        W 6472   1.273   1.886   8.736  0.1531  0.0670 -0.1978
 2409W        W 6473   3.177   7.397  11.211  0.0135 -0.2884 -0.0324
 2410W        W 6474   0.376   0.753   3.732 -0.2972 -0.0043  0.1738
 2411W        W 6475   6.930   9.510   0.848  0.1184 -0.2131 -0.0289
 2412W        W 6476   3.530  10.176   3.290 -0.0838 -0.3277  0.1577
 2413W        W 6477   5.238   0.400   2.683 -0.4385 -0.2502 -0.2689
 2414W        W 6478  10.303   1.968   0.605 -0.0961 -0.1743  0.0305
 2415W        W 6479   5.547   8.985   0.905 -0.0944  0.1396  0.2447
 2416W        W 6480   4.139   0.756  11.407  0.1370  0.0620  0.6074
 2417W        W 6481   8.890   6.979  11.292  0.0349  0.4678 -0.0367
 2418W        W 6482   7.762   0.200   1.937 -0.1490 -0.0416  0.2200
 2419W        W 6483   2.000   2.934  10.158 -0.0616  0.1129  0.3089
 2420W        W 6484   5.001   1.646  10.248 -0.0246 -0.2015  0.1272
 2421W        W 6485   5.414   6.109   2.887 -0.0612  0.1597 -0.2924
 2422W        W 6486   3.697   0.253   9.803 -0.0419  0.0007  0.2829
 2423W        W 6487   5.362   1.565   2.794  0.0136 -0.2522  0.1633
 2424W        W 6488  10.052   2.972   2.459  0.1023  0.1400 -0.2832
 2425W        W 6489   3.124   9.216   3.611 -0.0217 -0.0193  0.0244
 2426W        W 6490   3.235   4.151   1.978 -0.0122  0.0822 -0.3023
 2427W        W 6491   4.326   4.804   0.187 -0.1065  0.0921  0.1598
 2428W        W 6492   9.271   6.815  11.543 -0.0424  0.1329  0.1202
 2429W        W 6493   5.661   4.760   2.993  0.1957 -0.4053  0.1010
 2430W        W 6494   1.317   7.342   1.510  0.0379  0.1812 -0.0029
 2431W        W 6495   9.082   0.191   0.495  0.0152  0.2408  0.2636
 2432W        W 6496   0.703   3.551   8.040  0.1858  0.1793  0.0337
 2433W        W 6497   0.755   5.627   9.039 -0.0336 -0.0486  0.2784
 2434W        W 6498   6.522   7.168   9.722 -0.1841 -0.1110 -0.2543
 2435W        W 6499   3.659   5.999   0.007  0.3582 -0.4958  0.0857
 2436W        W 6500   1.075   8.292   3.454  0.0340 -0.0187  0.3287
 2437W        W 6501   7.599   6.734   9.392 -0.1350  0.2580 -0.1981
 2438W        W 6502   2.352   6.260  11.048 -0.0514 -0.1352 -0.0579
 2439W        W 6503  10.467   0.890  11.440 -0.0647  0.1611  0.1944
 2440W        W 6504   6.007   3.516  11.038 -0.1482 -0.0907 -0.1959
 2441W        W 6505   0.795   2.800   3.339 -0.0965  0.2898  0.0354
 2442W        W 6506   0.552   4.221   1.259  0.1196  0.2143  0.0927
 2443W        W 6507   2.833   9.098   0.438  0.0640 -0.0263 -0.0070
 2444W        W 6508   6.931   7.116   1.869 -0.1112 -0.2736 -0.0207
 2445W        W 6509   8.794   1.717   8.208 -0.0692  0.1444 -0.0606
 2446W        W 6510   4.086   5.395   2.390 -0.0617 -0.0729  0.0581
 2447W        W 6511   5.665   7.574   2.682  0.0239 -0.1111  0.1761
 2448W        W 6512   1.877   1.337   1.763 -0.2234 -0.0914  0.0560
 2449W        W 6513   7.889   6.276   7.601 -0.2259  0.1958  0.0034
 2450W        W 6514   4.842   1.401   8.349  0.1512  0.2322 -0.1241
 2451W        W 6515   6.035   9.135   9.711 -0.2292 -0.2950 -0.1529
 2452W        W 6516   6.297   3.488   9.474 -0.1537  0.4592  0.2402
 2453W        W 6517   7.726   1.931   2.181 -0.1126  0.1041 -0.1261
 2454W        W 6518   8.960   3.981   3.601  0.0776 -0.1830 -0.1346
 2455W        W 6519   5.171   1.762   8.117 -0.1540 -0.0571 -0.0390
 2456W        W 6520   5.088   8.792   2.060 -0.1913 -0.0789  0.0548
 2457W        W 6521   9.003   6.989   7.494 -0.3438 -0.2831  0.3094
 2458W        W 6522   9.673   9.984   8.763 -0.0339  0.0335  0.3470
 2459W        W 6523   1.021   2.579   4.126 -0.1752 -0.2277  0.1680
 2460W        W 6524   9.943   8.880   9.626 -0.1841 -0.0062  0.2402
 2461W        W 6525  10.130   7.240  10.741  0.2380 -0.1124  0.2447
 2462W        W 6526   0.205   3.677   4.104  0.1106 -0.0394  0.0601
 2463W        W 6527   5.650   0.152   3.751 -0.2705 -0.1500 -0.1630
 2464W        W 6528   4.742  10.318   1.280  0.1768 -0.2348 -0.3293
 2465W        W 6529   0.401   5.726   1.981 -0.0299 -0.1136  0.1728
 2466W        W 6530   7.388   2.190   3.124  0.0587 -0.1600  0.4041
 2467W        W 6531   1.432   2.275   2.748 -0.1109  0.0484  0.0606
 2468W        W 6532   8.528   2.306   1.747 -0.2421  0.0751  0.0445
 2469W        W 6533   4.408   3.044   9.206  0.2974 -0.1193 -0.1098
 2470W        W 6534   4.512   0.457  11.065 -0.2487  0.0075  0.0229
 2471W        W 6535   3.651   1.358   9.169 -0.0528  0.0045  0.0752
 2472W        W 6536  10.381   2.800   2.922  0.0690 -0.2863 -0.0821
 2473W        W 6537   7.307   0.136  10.526  0.0408  0.2769  0.2073
 2474W        W 6538   8.142   7.367   1.961  0.1652 -0.0333  0.4754
 2475W        W 6539   4.123   2.578  11.288  0.1744  0.0043 -0.2598
 2476W        W 6540   5.349   5.720  11.129  0.0023 -0.2125  0.2423
 2477W        W 6541   3.797   8.847   4.059 -0.0449  0.3856 -0.0817
 2478W        W 6542   5.797  10.131   8.629 -0.0953 -0.0929 -0.1122
 2479W        W 6543   5.541   7.386  10.315 -0.0360  0.1133 -0.1844
 2480W        W 6544   1.331  10.364   0.975  0.0322  0.1635 -0.0842
 2481W        W 6545   0.789   6.196  10.170 -0.0819  0.1240  0.0585
 2482W        W 6546  10.204   4.938   2.444  0.2189  0.3636 -0.3289
 2483W        W 6547   3.182   8.741  11.118 -0.2661 -0.0222  0.1614
 2484W        W 6548   3.210   7.837   0.702  0.2541 -0.1351  0.0063
 2485W        W 6549   9.620   4.504  10.229 -0.0661  0.0686 -0.3057
 2486W        W 6550   1.451   9.583  11.077  0.1471  0.1767 -0.3297
 2487W        W 6551   2.403  10.145   1.146  0.2208 -0.2897  0.0282
 2488W        W 6552   1.443   4.053   3.379  0.0008 -0.0785 -0.0390
 2489W        W 6553   2.320   1.602   0.406  0.2008 -0.1942  0.0433
 2490W        W 6554   1.914   3.899   8.573  0.0159 -0.4245 -0.0610
 2491W        W 6555   7.054   3.423  11.234  0.2030 -0.0293 -0.1802
 2492W        W 6556   4.284   9.592   9.084  0.0776 -0.1347  0.2266
 2493W        W 6557   8.149  10.653   7.666  0.1543  0.1110 -0.3672
 2494W        W 6558   3.884   1.949   7.976 -0.2566 -0.1769  0.3221
 2495W        W 6559   3.709   4.895   8.746  0.3943  0.0140  0.0730
 2496W        W 6560   8.390   5.382   0.378 -0.2555  0.3007  0.2752
 2497W        W 6561   8.657   4.355   8.047 -0.3152  0.1436 -0.1584
 2498W        W 6562   3.850   2.263  11.555  0.2601  0.0633  0.0287
 2499W        W 6563   0.361   1.311   0.947 -0.0767 -0.1022 -0.3194
 2500W        W 6564   7.234   3.589   1.420  0.2338 -0.0707  0.5139
 2501W        W 6565   3.591   7.427   9.375 -0.0503 -0.0834  0.0599
 2502W        W 6566   9.683   0.211   0.117  0.0557  0.2631  0.0654
 2503W        W 6567   8.551   1.167   8.315  0.1087  0.0813  0.0619
 2504W        W 6568   4.326   3.862   3.720 -0.3032 -0.2508 -0.1556
 2505W        W 6569   9.262   4.721   9.947 -0.1494  0.4391 -0.3661
 2506W        W 6570   4.830   9.739   1.551 -0.0572  0.2041 -0.1427
 2507W        W 6571   9.480   8.441   2.915  0.0837  0.1705 -0.0288
 2508W        W 6572   4.059   6.794   8.907  0.1492 -0.2120 -0.2883
 2509W        W 6573   3.417   6.196   0.423 -0.0012 -0.0086  0.0926
 2510W        W 6574   9.743   4.259  10.758 -0.0395 -0.1533  0.0429
 2511W        W 6575   9.881   4.087   8.924 -0.0613  0.3365 -0.0630
 2512W        W 6576   5.075   1.224   2.492  0.1022  0.0807 -0.0366
 2513W        W 6577   7.385   0.336  10.030  0.1177 -0.0485  0.2270
 2514W        W 6578   2.777   1.719   7.604 -0.1868  0.1796  0.0353
 2515W        W 6579   4.021  10.368   4.104  0.2684  0.0556 -0.2063
 2516W        W 6580   9.468   4.132   3.519 -0.2214  0.0852 -0.3796
 2517W        W 6581   7.788  10.204   0.686  0.2834  0.2246 -0.0374
 2518W        W 6582   1.351   2.983   9.929  0.4175 -0.0637 -0.0634
 2519W        W 6583   8.734   3.371   2.609 -0.0640 -0.0356 -0.1190
 2520W        W 6584   5.196   3.542  11.425 -0.0893  0.0988  0.2678
 2521W        W 6585   3.759   8.015   1.299 -0.0792 -0.2517 -0.3610
 2522W        W 6586   2.443   4.529   1.499 -0.1838 -0.0827  0.2693
 2523W        W 6587   9.839   4.843   9.309 -0.0504  0.1378  0.1981
 2524W        W 6588   5.651   3.762   0.657  0.1661 -0.2343 -0.0123
 2525W        W 6589   9.817   5.613   3.431 -0.1525 -0.0974  0.0691
 2526W        W 6590   0.728   3.662   3.095 -0.1177 -0.2692  0.0866
 2527W        W 6591   1.271   7.800  11.438 -0.0532  0.5317 -0.1359
 2528W        W 6592   4.391   5.269  10.940  0.1218  0.2336  0.0421
 2529W        W 6593  10.646   3.039   0.204 -0.0411 -0.0196  0.1131
 2530W        W 6594   0.686   5.280  10.575 -0.0226 -0.1982 -0.2078
 2531W        W 6595   0.255   4.112   2.370 -0.1626 -0.1153 -0.2973
 2532W        W 6596   4.075   9.658   2.179  0.0728 -0.0540  0.2535
 2533W        W 6597   5.264   3.892   8.631 -0.0396 -0.0168 -0.0074
 2534W        W 6598   2.769   6.184   1.307  0.1026  0.0167 -0.1862
 2535W        W 6599   3.307  10.180   9.717  0.0268  0.1347 -0.0347
 2536W        W 6600   9.171   2.547  11.518 -0.1117  0.2299 -0.2949
 2537W        W 6601   2.250   7.766   8.400 -0.1614 -0.0915  0.1105
 2538W        W 6602   4.615   1.487  10.914  0.1278  0.1499 -0.2199
 2539W        W 6603   0.585   7.084   8.362 -0.3362  0.1499  0.0917
 2540W        W 6604   4.458   6.435   0.158 -0.5012  0.0084 -0.0002
 2541W        W 6605   5.081   5.744   0.068 -0.1768  0.0803  0.3620
 2542W        W 6606   0.976   2.732  10.689 -0.0982 -0.3083 -0.1443
 2543W        W 6607   7.339   8.840   0.413  0.0373  0.2441 -0.1657
 2544W        W 6608   8.112  10.471   9.908 -0.0264 -0.1422 -0.1639
 2545W        W 6609   4.357   2.174   9.550  0.1585  0.0831 -0.1578
 2546W        W 6610   1.109   3.463   0.469 -0.1226 -0.1290  0.0852
 2547W        W 6611   2.686   5.901  11.466  0.0630 -0.2823 -0.1815
 2548W        W 6612   1.238  10.004   8.546 -0.1123  0.1772  0.3064
 2549W        W 6613   1.482   4.953   2.286 -0.0255 -0.0333 -0.0130
 2550W        W 6614   6.616   5.441   1.301 -0.1095  0.1553 -0.1438
 2551W        W 6615   9.529   5.494  10.855 -0.2737 -0.0376 -0.1394
 2552W        W 6616   8.467   1.975   8.946  0.0222 -0.0036 -0.1710
 2553W        W 6617   4.345   1.620   4.191 -0.0947 -0.2037 -0.1639
 2554W        W 6618   3.512   1.846   0.186  0.3633 -0.1046 -0.1617
 2555W        W 6619   7.022   0.583   8.501  0.1061  0.1221 -0.2328
 2556W        W 6620   0.600   3.524   8.886  0.0039  0.1179  0.0643
 2557W        W 6621   5.971   3.751   2.406 -0.4902  0.2171 -0.0176
 2558W        W 6622   2.972   0.172   9.205 -0.2680  0.0311  0.2653
 2559W        W 6623   8.210   2.669   9.838 -0.1474 -0.0133 -0.1219
 2560W        W 6624   9.583   1.748   2.297 -0.1485 -0.0023 -0.0430
 2561W        W 6625   0.489   3.099  10.069  0.1033  0.4486  0.0137
 2562W        W 6626   6.480   3.906   9.641 -0.1052 -0.2177  0.2525
 2563W        W 6627  10.252   8.965   1.754  0.3278 -0.1814  0.1471
 2564W        W 6628   4.305   2.953   1.708 -0.3287  0.0776 -0.1307
 2565W        W 6629   8.770   7.715   2.906  0.0100 -0.0149  0.1885
 2566W        W 6630  10.592   4.161  10.253  0.1284 -0.1946 -0.2234
 2567W        W 6631   2.500   3.216   2.550  0.2878 -0.1719 -0.2032
 2568W        W 6632   3.362   9.909   1.546  0.3741  0.0847  0.0239
 2569W        W 6633   6.702   1.646   4.245  0.0337  0.0096  0.0474
 2570W        W 6634   7.620   3.616   2.759 -0.1516  0.3196  0.2973
 2571W        W 6635   4.966   0.137   0.320 -0.1011  0.3665  0.3324
 2572W        W 6636   0.838   4.072  11.559  0.1183 -0.0285  0.0173
 2573W        W 6637   4.947   0.268  11.342  0.0455  0.0364 -0.1447
 2574W        W 6638   3.407   2.515   3.635 -0.0850  0.0745 -0.0271
 2575W        W 6639   5.287  10.331   7.359  0.4563 -0.0318 -0.1053
 2576W        W 6640   3.029   6.857  11.399 -0.0294  0.1636 -0.3124
 2577W        W 6641   5.764   8.640   2.805 -0.2120 -0.0672  0.0571
 2578W        W 6642   7.981   8.053   0.797  0.2824  0.1677 -0.1044
 2579W        W 6643   0.234   9.676   1.408  0.0802  0.2100 -0.1277
 2580W        W 6644   1.891   3.271  10.508 -0.1794  0.3588  0.3559
 2581W        W 6645   4.275   5.947   3.825 -0.0027 -0.1682 -0.0182
 2582W        W 6646   1.577   6.178   0.654 -0.1675 -0.0402 -0.0412
 2583W        W 6647   6.760   0.672   0.706  0.0027  0.0587  0.1167
 2584W        W 6648   4.611   3.238   9.730  0.0939  0.0232  0.0249
 2585W        W 6649   6.741   3.369   8.234  0.1804  0.1492  0.1289
 2586W        W 6650  10.211   9.429  10.451  0.1276  0.2316  0.1624
 2587W        W 6651   9.321   7.599   0.642  0.1100 -0.1211  0.0833
 2588W        W 6652   0.894   6.127  11.010 -0.0679  0.2398  0.0275
 2589W        W 6653   6.157   1.391  11.362  0.2714 -0.1027  0.1741
 2590W        W 6654   8.401   0.230   3.828  0.0506 -0.0163  0.1973
 2591W        W 6655   4.064   6.240   8.404  0.0060  0.0715 -0.1453
 2592W        W 6656   1.338   1.484   9.754 -0.1892  0.0811  0.0212
 2593W        W 6657   5.458   8.066  11.413  0.1175 -0.2214 -0.0756
 2594W        W 6658   1.829   3.777   0.872 -0.0983 -0.0592 -0.1701
 2595W        W 6659   4.112   1.319   3.774 -0.0345 -0.1173 -0.1112
 2596W        W 6660   2.733   9.570   8.465  0.3157  0.0275 -0.3231
 2597W        W 6661   1.703  10.074   9.238  0.1052 -0.4468 -0.0540
 2598W        W 6662   9.394   7.437   8.308  0.0330  0.1065  0.2663
 2599W        W 6663   0.121   9.984  10.948  0.0857 -0.2663  0.0385
 2600W        W 6664   7.735   0.562   8.806 -0.2293 -0.1414 -0.1844
 2601W        W 6665   2.807   7.388  10.562  0.0392  0.0204  0.0114
 2602W        W 6666   3.579   6.638  11.145 -0.0741 -0.1575 -0.2354
 2603W        W 6667   9.104  10.373   3.834 -0.4275  0.1075  0.1770
 2604W        W 6668   9.672   2.551   1.213  0.2506 -0.0976  0.1398
 2605W        W 6669   4.241   8.417   8.604  0.2767  0.0957 -0.2245
 2606W        W 6670   8.697  10.414   8.739 -0.0400 -0.1116 -0.2209
 2607W        W 6671   6.220   9.941   1.695  0.0477 -0.0575  0.1576
 2608W        W 6672  10.657   2.366   2.971  0.0948 -0.3061 -0.1768
 2609W        W 6673   7.929   1.129   4.246  0.1702  0.2969 -0.5773
 2610W        W 6674   3.673   3.005   2.364  0.2729 -0.0312 -0.1036
 2611W        W 6675   4.237   9.285  10.234  0.1921 -0.0509 -0.2296
 2612W        W 6676   2.848   7.918  10.493 -0.0609 -0.3334  0.1596
 2613W        W 6677   2.241   3.572   3.442  0.0868  0.0635 -0.1418
 2614W        W 6678   8.197   6.541   8.061 -0.1476  0.0977  0.0645
 2615W        W 6679   2.642   4.677  11.443  0.4143 -0.0027  0.0455
 2616W        W 6680  10.038   7.716   3.309 -0.0145 -0.2546 -0.2180
 2617W        W 6681  10.490   4.228   0.301  0.3260 -0.1352  0.1099
 2618W        W 6682   2.815   4.795   9.825  0.1673 -0.0793 -0.1594
 2619W        W 6683   2.185   0.840   8.499 -0.1342  0.0682  0.0599
 2620W        W 6684   7.042   8.977  11.139  0.0938 -0.0936  0.1215
 2621W        W 6685   2.111   9.779   2.183 -0.0952  0.0286 -0.4827
 2622W        W 6686   0.541   4.804   2.390  0.0128 -0.0167  0.0820
 2623W        W 6687   7.816   8.049  11.508 -0.1798  0.0332 -0.2959
 2624W        W 6688   6.259   0.074   0.604  0.2943  0.0877  0.1226
 2625W        W 6689   2.931   2.794   8.049 -0.1320  0.3247  0.0487
 2626W        W 6690   7.730   7.641   8.158  0.0410  0.0036 -0.2704
 2627W        W 6691   6.607   0.443  10.314  0.1195  0.0308 -0.0342
 2628W        W 6692   0.526   0.174   2.909 -0.1351 -0.0063 -0.3600
 2629W        W 6693   6.087   8.541   1.411 -0.1075  0.1327  0.1982
 2630W        W 6694   7.050   4.636   0.373 -0.0366 -0.1398 -0.2451
 2631W        W 6695   1.503  10.496   2.273  0.0005 -0.3105  0.0404
 2632W        W 6696   4.558   0.354   9.153  0.2621 -0.0736  0.1107
 2633W        W 6697   8.311   4.700   2.056  0.2546 -0.3247 -0.0893
 2634W        W 6698   7.136  10.433   3.557  0.2384  0.3827  0.0912
 2635W        W 6699   7.994   6.900  11.127 -0.0158  0.2141  0.1769
 2636W        W 6700   3.804   3.592   1.366  0.2265  0.0681  0.1873
 2637W        W 6701   2.853   3.704   0.284  0.0642 -0.0998  0.0784
 2638W        W 6702   3.080   6.579   0.338  0.2026  0.3556 -0.0596
 2639W        W 6703   7.565   3.728   8.425 -0.0386  0.2322  0.4707
 2640W        W 6704   2.026  10.179   0.020  0.0685 -0.2991 -0.0825
 2641W        W 6705   3.300   3.379   3.211 -0.2703 -0.3275  0.0748
 2642W        W 6706   0.211   8.027   2.222  0.1149  0.4126  0.0714
 2643W        W 6707   8.284   6.089   2.499 -0.2628 -0.1014 -0.2013
 2644W        W 6708   7.489   9.931   1.592 -0.0361  0.0522 -0.0001
 2645W        W 6709   6.069   6.100   1.635  0.0122  0.1165  0.1839
 2646W        W 6710   2.868   0.751   9.225 -0.1201  0.1701 -0.0233
 2647W        W 6711   4.037   2.260   7.619  0.2557 -0.2175 -0.4891
 2648W        W 6712   7.179   1.514   1.720  0.0899 -0.1589 -0.0301
 2649W        W 6713   0.672   3.334   0.571 -0.1983 -0.2765 -0.2932
 2650W        W 6714   3.733   8.146  11.501 -0.1105  0.1330 -0.0570
 2651W        W 6715   0.458   1.927   9.708  0.1445 -0.2470  0.1089
 2652W        W 6716   7.594   2.373   8.182 -0.2243 -0.1091  0.1301
 2653W        W 6717   2.034   6.169   3.663  0.1424  0.0494 -0.1302
 2654W        W 6718   8.040   1.048  11.131 -0.2550 -0.1829  0.4264
 2655W        W 6719   3.258  10.325  11.028 -0.0199 -0.1478  0.2118
 2656W        W 6720   2.697   4.961   8.522  0.0528 -0.0870 -0.0616
 2657W        W 6721   7.759   1.323  11.480 -0.0413 -0.1448 -0.3457
 2658W        W 6722   3.132   9.026   9.920  0.0080  0.0653  0.2272
 2659W        W 6723   5.891   6.174  11.492  0.2624  0.1259 -0.2258
 2660W        W 6724   1.189   0.550  10.095 -0.0987 -0.0402 -0.3741
 2661W        W 6725   5.142   3.127   0.998  0.1980  0.0338 -0.3187
 2662W        W 6726   4.017   6.610   0.864 -0.2754 -0.0811  0.0597
 2663W        W 6727  10.124   7.904  10.983  0.0575  0.1514  0.3232
 2664W        W 6728   5.017   2.119  10.390  0.0622  0.0564  0.3096
 2665W        W 6729   8.706   5.122   2.826 -0.0723  0.0511  0.2674
 2666W        W 6730   5.525   4.472  10.435  0.0938 -0.1681  0.0303
 2667W        W 6731   2.526  10.412   0.097  0.0194  0.2146 -0.0050
 2668W        W 6732   6.569   0.310   8.466 -0.0603  0.1034  0.0041
 2669W        W 6733   1.093  10.138   0.530  0.0561  0.3538 -0.3347
 2670W        W 6734   0.890  10.189   8.855 -0.0951  0.2694  0.4015
 2671W        W 6735   0.751   0.993   2.286  0.2822 -0.0778 -0.0704
 2672W        W 6736   5.216   2.243   8.035  0.1874  0.0077 -0.4983
 2673W        W 6737   9.278   9.436  10.720 -0.2627 -0.0847  0.0613
 2674W        W 6738   6.586   8.994   9.043  0.1098 -0.1025 -0.0530
 2675W        W 6739   6.490   0.216   9.862  0.0153  0.1618 -0.0453
 2676W        W 6740   7.488   1.122  10.406  0.2274 -0.1297  0.0942
 2677W        W 6741   1.343   6.428   1.533  0.3463 -0.0531  0.2584
 2678W        W 6742   7.065  10.598   7.554 -0.0257  0.1525  0.0906
 2679W        W 6743  10.263   4.192  10.819 -0.1540  0.0376  0.4800
 2680W        W 6744   7.876   5.414  11.070 -0.0496 -0.1239  0.0204
 2681W        W 6745   4.009   9.644   0.381  0.1665 -0.2662  0.5261
 2682W        W 6746   6.683   8.544   2.724  0.1334 -0.2873 -0.1525
 2683W        W 6747   5.944   2.566   8.718  0.0422 -0.1047  0.0360
 2684W        W 6748   3.233   7.642  10.742 -0.1201  0.3057 -0.1665
 2685W        W 6749   0.942   7.013   8.046 -0.2419 -0.0153 -0.0777
 2686W        W 6750   5.284  10.316  11.405 -0.4356 -0.1217  0.1609
 2687W        W 6751   6.477   2.988   0.095 -0.1289 -0.0020 -0.0638
 2688W        W 6752   8.409   8.008   3.216  0.0999 -0.1094 -0.0498
 2689W        W 6753   1.638   2.817   3.575  0.1138  0.1592 -0.2508
 2690W        W 6754   4.427   1.631   2.480 -0.1439  0.1564  0.0351
 2691W        W 6755   3.751   7.612  11.564 -0.0531  0.0576 -0.0818
 2692W        W 6756   0.924   5.597   9.531  0.4137  0.2604 -0.1244
 2693W        W 6757   5.219  10.293   2.370  0.0262  0.1817 -0.3311
 2694W        W 6758   4.057   4.506   1.147  0.1543 -0.1293 -0.4212
 2695W        W 6759   8.390   2.392   8.680  0.0811  0.0066  0.0891
 2696W        W 6760   1.620   6.488   1.074  0.1401  0.0212  0.0861
 2697W        W 6761   3.700   4.650   2.859 -0.4686  0.0444  0.1304
 2698W        W 6762   9.106   5.292   8.955 -0.2640 -0.0023 -0.1197
 2699W        W 6763   7.598   3.065  11.421 -0.0156  0.0731  0.2992
 2700W        W 6764   1.371   5.183   8.581  0.4149  0.0905 -0.0601
 2701W        W 6765   6.007   0.064   9.801  0.0070 -0.1054  0.0558
 2702W        W 6766   5.464   9.843   2.151  0.0163  0.0284 -0.0528
 2703W        W 6767   7.454   4.296  10.171  0.1041 -0.0787  0.0660
 2704W        W 6768   1.851   2.361   9.477 -0.1854  0.0390 -0.3606
 2705W        W 6769   7.816  10.607   1.024  0.0938  0.1651 -0.1249
 2706W        W 6770   5.314   9.258  11.552  0.1857  0.0372 -0.3902
 2707W        W 6771   2.039   9.865   9.719 -0.0814  0.0778  0.1985
 2708W        W 6772   1.623   8.091   1.925 -0.2867 -0.1553 -0.1686
 2709W        W 6773   5.958   7.955  11.384 -0.0782  0.0221 -0.2547
 2710W        W 6774   8.486   4.325   1.749  0.0750  0.1752  0.1301
 2711W        W 6775   7.603   1.564   9.513 -0.1790  0.0702 -0.2666
 2712W        W 6776   0.012   0.149  11.099  0.1789  0.3357  0.0392
 2713W        W 6777   8.717   5.863   2.558  0.1652  0.3973  0.1638
 2714W        W 6778   4.099   4.940   3.221  0.1935 -0.2771  0.1205
 2715W        W 6779   1.556  10.611   3.010 -0.0144 -0.0786 -0.0557
 2716W        W 6780   1.671   5.231   3.219  0.1479 -0.2818  0.3986
 2717W        W 6781   2.520   0.084   1.536 -0.0563  0.1204 -0.1619
 2718W        W 6782   4.727   5.903   1.730 -0.0697 -0.2463  0.0307
 2719W        W 6783   2.717   1.963   3.144  0.0542 -0.1000 -0.0960
 2720W        W 6784   4.562   8.469   1.512 -0.0377 -0.2242 -0.1481
 2721W        W 6785   2.551   0.051   1.024  0.1471 -0.0858  0.2442
 2722W        W 6786   7.962   5.662  10.225  0.1020  0.2699 -0.1149
 2723W        W 6787   5.312   5.909   2.077  0.0287 -0.3003 -0.0204
 2724W        W 6788   0.693   2.647   2.349  0.3675 -0.5049 -0.2172
 2725W        W 6789   8.904   1.313   9.194  0.0156  0.2471 -0.0624
 2726W        W 6790   4.919   8.423   0.839 -0.0121 -0.2156 -0.1379
 2727W        W 6791   6.909   7.774  11.184  0.1940 -0.1378  0.0839
 2728W        W 6792   5.342   0.600  11.239 -0.0085 -0.0342  0.0225
 2729W        W 6793   8.723   0.183   1.008  0.1392  0.1419 -0.3777
 2730W        W 6794   7.957   9.267   2.909 -0.0667  0.1409 -0.1536
 2731W        W 6795   7.359   4.472   9.141  0.0251  0.3333  0.0156
 2732W        W 6796  10.192   9.205  10.879 -0.1201  0.0805  0.0850
 2733W        W 6797   9.070   2.615   8.504  0.2293 -0.0006 -0.0727
 2734W        W 6798   3.277   8.623   0.919 -0.1618 -0.0316  0.0808
 2735W        W 6799   2.621   2.006   2.416  0.0087 -0.0813  0.1951
 2736W        W 6800   1.563   9.579   9.924 -0.0206  0.2071  0.1168
 2737W        W 6801   4.613   7.309  11.360 -0.0208 -0.1335 -0.4144
 2738W        W 6802   3.242   6.047   1.283 -0.0696  0.1787 -0.1671
 2739W        W 6803   8.529   1.177   0.602  0.1773 -0.0518  0.0995
 2740W        W 6804   8.147  10.505   8.248  0.2513 -0.0282  0.0659
 2741W        W 6805   6.285   7.531   2.979 -0.3213  0.0354 -0.1799
 2742W        W 6806   1.084   2.361   8.525  0.2016 -0.2232 -0.1756
 2743W        W 6807   7.960   3.397   1.611  0.0815 -0.1235  0.0714
 2744W        W 6808   7.106   2.267   8.215 -0.0066 -0.1041  0.0973
 2745W        W 6809   0.176   6.989  11.378  0.3453 -0.1216 -0.0910
 2746W        W 6810   6.951   9.705   8.571  0.0458  0.0517 -0.2420
 2747W        W 6811   6.221   1.261   3.206  0.0584  0.0898 -0.0320
 2748W        W 6812   2.985   1.944   9.057  0.1906 -0.0318  0.1281
 2749W        W 6813   8.629   4.671  10.323 -0.2059 -0.0224 -0.0889
 2750W        W 6814   5.509   0.173   3.209  0.3364 -0.0165 -0.1760
 2751W        W 6815  10.573   6.657   1.816 -0.3311  0.0410  0.0721
 2752W        W 6816   7.876  10.050   2.400 -0.4022 -0.1990  0.0657
 2753W        W 6817   0.202   5.235  10.305  0.2831  0.0477 -0.1759
 2754W        W 6818   7.480   3.329   1.823 -0.0503 -0.1058 -0.1937
 2755W        W 6819   7.018   4.108   9.019  0.0767  0.1903  0.0911
 2756W        W 6820   2.949   4.188   0.143  0.2083  0.0750 -0.3734
 2757W        W 6821   5.119   5.154   9.295  0.0973  0.0877 -0.0562
 2758W        W 6822   1.142   0.592   9.540 -0.0587 -0.3071  0.1774
 2759W        W 6823   0.319   4.829   0.378 -0.0522  0.0327 -0.0864
 2760W        W 6824   4.304   8.145   2.376  0.1962  0.0996 -0.5077
 2761W        W 6825   5.573  10.538   1.507  0.1894 -0.2498 -0.1107
 2762W        W 6826   9.720   2.626   0.665 -0.0529  0.3156 -0.0837
 2763W        W 6827   3.915   5.107   2.002 -0.0664  0.1118 -0.1403
 2764W        W 6828   4.447   2.513   9.877 -0.0333  0.1962 -0.1045
 2765W        W 6829   5.225   1.581  11.524  0.1649  0.1928 -0.0965
 2766W        W 6830  10.631   6.325   9.138  0.1738 -0.2913  0.3485
 2767W        W 6831   5.718   8.349   9.535 -0.4135  0.1977 -0.3445
 2768W        W 6832  10.302   3.199   1.820 -0.1955 -0.0467  0.1863
 2769W        W 6833   5.706   5.693  10.682  0.2322 -0.3461  0.3618
 2770W        W 6834   3.387   0.079   2.735  0.1281 -0.3190  0.0122
 2771W        W 6835   4.395   3.916  11.022 -0.2331  0.1220 -0.2672
 2772W        W 6836   0.922   7.932   8.750 -0.0163 -0.1702  0.0425
 2773W        W 6837   2.351   5.340  11.363  0.0713  0.0921  0.1381
 2774W        W 6838   4.776   0.685   9.465  0.1322 -0.0379  0.1043
 2775W        W 6839   6.730   5.639   2.203  0.2232  0.0003  0.1903
 2776W        W 6840   4.926   7.645   9.093 -0.2620 -0.1027 -0.0506
 2777W        W 6841   1.425   1.626   9.195  0.0427 -0.0380 -0.0308
 2778W        W 6842   9.264   4.869   2.521  0.3036 -0.1592 -0.1422
 2779W        W 6843   6.385   3.784   7.932 -0.2133 -0.4832  0.1309
 2780W        W 6844   8.485   0.878  10.294  0.1538  0.1151 -0.1737
 2781W        W 6845   3.872   1.525   0.547  0.1759 -0.2005 -0.4045
 2782W        W 6846   1.990   8.891   3.010 -0.0104  0.0543  0.0179
 2783W        W 6847   1.462   1.264  11.157 -0.1683  0.0390  0.0359
 2784W        W 6848   1.159   9.955  11.324  0.0591  0.0347  0.1365
 2785W        W 6849  10.219   6.658  10.614 -0.0180  0.0296 -0.0955
 2786W        W 6850   9.753   9.313  10.563  0.1044  0.4547 -0.2264
 2787W        W 6851   9.593  10.466   2.538 -0.1294 -0.1163 -0.1189
 2788W        W 6852   7.499   0.421   1.029 -0.1360 -0.2690  0.3685
 2789W        W 6853   0.595   6.529  11.214  0.1221  0.1102  0.3203
 2790W        W 6854   3.330   6.086   9.734  0.2742 -0.2648  0.0136
 2791W        W 6855   9.608   0.543   9.234 -0.0357  0.1971 -0.3273
 2792W        W 6856   0.819   5.930   8.387 -0.2106  0.0559 -0.3375
 2793W        W 6857   1.394   4.621   8.611 -0.2531  0.0102 -0.1303
 2794W        W 6858   9.075   7.743   9.315  0.0788  0.1829 -0.1449
 2795W        W 6859   6.133   2.076   2.509  0.1150  0.2173  0.2283
 2796W        W 6860   6.079   9.727   0.797  0.1101 -0.0527  0.1607
 2797W        W 6861   2.629   2.422   4.281 -0.3416 -0.1161 -0.2435
 2798W        W 6862   1.982   0.148   1.187 -0.0470 -0.3343  0.3074
 2799W        W 6863   2.002  10.460  11.143  0.1004 -0.0923 -0.1391
 2800W        W 6864   4.546   9.122   0.987 -0.1346  0.3604 -0.0146
 2801W        W 6865   3.613   9.685   0.034 -0.0306  0.0297  0.1570
 2802W        W 6866   1.163   5.081  10.736  0.2590 -0.0459 -0.0430
 2803W        W 6867   5.019   3.940  11.128  0.1429 -0.1601  0.2845
 2804W        W 6868   2.751   2.424   9.095  0.3345  0.1408 -0.1088
 2805W        W 6869   7.231   5.005   8.559 -0.0390  0.2764 -0.0454
 2806W        W 6870   8.779   5.773   9.427 -0.0772 -0.0850 -0.0463
 2807W        W 6871  10.183   1.472   3.557 -0.2407  0.0468  0.3703
 2808W        W 6872   8.858   4.960   9.745  0.0165  0.3484  0.2960
 2809W        W 6873   9.684   9.158   1.743 -0.1733  0.0478  0.0153
 2810W        W 6874   5.047   2.335   2.089  0.1716  0.3470  0.1909
 2811W        W 6875   2.872   3.158   9.443 -0.1061 -0.3642 -0.1792
 2812W        W 6876   6.382   8.889   2.417  0.1622  0.2523 -0.2796
 2813W        W 6877   4.805   3.145   2.964 -0.2384  0.3308  0.0969
 2814W        W 6878   9.779   7.567   9.985 -0.1130  0.0972  0.0984
 2815W        W 6879   9.802   6.472   0.720 -0.2312  0.0541 -0.3574
 2816W        W 6880   1.956   3.292   1.000  0.0181  0.2869 -0.0365
 2817W        W 6881   8.031   2.132   8.366  0.0371 -0.0335 -0.5852
 2818W        W 6882   1.736   7.736   9.833 -0.2629  0.1094  0.0283
 2819W        W 6883   3.002   1.245   2.433 -0.0545  0.1716 -0.1704
 2820W        W 6884   9.648   2.885   4.598  0.1349  0.1971  0.2595
 2821W        W 6885   7.572   5.412  11.491 -0.0655  0.0391 -0.2088
 2822W        W 6886   9.050   4.093   3.071 -0.1349  0.4244  0.1069
 2823W        W 6887   9.599   8.502   8.778  0.0431  0.1037  0.0444
 2824W        W 6888  10.254   2.691   8.708 -0.0092 -0.0633  0.2747
 2825W        W 6889   0.343   8.876   2.007 -0.0560 -0.1659  0.1879
 2826W        W 6890   0.046   3.900   0.564  0.0381  0.0552 -0.1652
 2827W        W 6891   8.099  10.406   1.532  0.1757 -0.0503  0.2407
 2828W        W 6892   9.183   5.682   8.665 -0.2119  0.2218 -0.0285
 2829W        W 6893   7.606   3.557   0.023  0.0822 -0.1202  0.2515
 2830W        W 6894   3.563   1.350   1.526 -0.0339 -0.1829 -0.0801
 2831W        W 6895   9.500   0.654   9.777 -0.4122 -0.1749 -0.0044
 2832W        W 6896   7.080   6.318   0.853  0.0951  0.2305 -0.0416
 2833W        W 6897   8.139   7.565   3.254  0.2405 -0.0806  0.1069
 2834W        W 6898   5.955   3.577   2.867  0.2082  0.0653 -0.0871
 2835W        W 6899   8.809   8.271   9.219 -0.1071 -0.1095  0.0672
 2836W        W 6900   6.977  10.494   1.159 -0.0134 -0.2179 -0.0440
 2837W        W 6901   7.434   2.225   0.377  0.0224  0.1106  0.3822
 2838W        W 6902   2.660   9.375   9.080  0.1903  0.0449  0.0127
 2839W        W 6903   9.554   7.507   1.582  0.1455  0.4002 -0.2667
 2840W        W 6904   5.113   0.939   1.483 -0.1574 -0.3522 -0.1772
 2841W        W 6905   7.254   3.212   7.815 -0.1490  0.0614 -0.1980
 2842W        W 6906   1.556   4.950   9.785  0.3346  0.1032  0.3713
 2843W        W 6907   5.759   8.735   8.726  0.0775  0.3213 -0.0005
 2844W        W 6908   6.969   7.300   0.894  0.0941  0.2295  0.0046
 2845W        W 6909   4.363   6.272  10.247  0.2125  0.0187  0.1990
 2846W        W 6910   3.975   1.469   8.708  0.3917 -0.0275  0.1425
 2847W        W 6911   9.056   7.229   9.191 -0.1859 -0.1247 -0.3240
 2848W        W 6912   9.384   4.929   4.665 -0.0432 -0.1006  0.0739
 2849W        W 6913   9.160   5.751   9.140  0.0216 -0.0400 -0.0670
 2850W        W 6914   4.373   4.949   1.304  0.3816 -0.0293 -0.0239
 2851W        W 6915   3.031   8.300   8.379 -0.1966  0.1051  0.4992
 2852W        W 6916   9.695   5.226   1.740  0.0489  0.0696  0.3494
 2853W        W 6917   4.457   5.367   8.372  0.1268  0.1958  0.1979
 2854W        W 6918  10.403   2.374  10.656 -0.1780  0.0675  0.0849
 2855W        W 6919   0.717   3.487   0.115 -0.0329 -0.2626  0.2467
 2856W        W 6920   3.916   8.946   9.291  0.1397  0.0652 -0.0887
 2857W        W 6921   0.742  10.075   0.013  0.0750  0.0236 -0.1921
 2858W        W 6922  10.114   7.235  10.205 -0.2640 -0.0699  0.2679
 2859W        W 6923   3.597   8.255   1.786 -0.2343  0.0276  0.3016
 2860W        W 6924   4.600   5.702   3.544  0.3849  0.2226 -0.0347
 2861W        W 6925   3.270   7.882   8.547 -0.0833 -0.1446  0.0156
 2862W        W 6926   3.970   9.256   8.844  0.3937 -0.1770  0.0233
 2863W        W 6927   9.471   7.518   9.087 -0.0975  0.0102  0.1445
 2864W        W 6928   8.060   1.188  10.569 -0.1010  0.5666 -0.0992
 2865W        W 6929   8.183   4.094  10.468 -0.0643  0.2703  0.0527
 2866W        W 6930   6.843   0.292   2.033 -0.1583 -0.1875  0.0637
 2867W        W 6931   3.333   0.481   3.568  0.2635  0.0064 -0.1057
 2868W        W 6932   4.694   2.938  11.566 -0.1312 -0.0132 -0.1087
 2869W        W 6933   9.731   0.374  10.621  0.3570 -0.3763 -0.1210
 2870W        W 6934   9.707   8.296   7.714 -0.1487  0.0336  0.0373
 2871W        W 6935   2.745   4.334   3.285 -0.0013 -0.0046  0.1546
 2872W        W 6936   4.865   2.337   1.281 -0.1178  0.0138  0.0335
 2873W        W 6937   7.022   6.676   3.567  0.3130  0.1382 -0.2018
 2874W        W 6938   4.895   4.392  10.566 -0.1090  0.1688 -0.0128
 2875W        W 6939   2.745   1.318   3.251  0.0262  0.0799 -0.0387
 2876W        W 6940   4.520   9.291   1.478  0.1504 -0.1265  0.1331
 2877W        W 6941   1.047   9.643   0.236  0.5977 -0.0812  0.4206
 2878W        W 6942   8.582   4.313  11.335 -0.3075 -0.0964  0.1230
 2879W        W 6943   6.641   9.270   9.851  0.1310 -0.1671  0.1247
 2880W        W 6944   4.472   1.769   8.183  0.3776  0.0229 -0.2191
 2881W        W 6945   4.950   1.134   3.049 -0.0087 -0.0325  0.0258
 2882W        W 6946   5.847   5.936  10.128  0.1105  0.2324  0.0229
 2883W        W 6947   5.109   7.650   1.036  0.1242  0.4710 -0.1545
 2884W        W 6948   3.307   1.567  10.312  0.2922  0.0608 -0.1995
 2885W        W 6949   7.327   9.827  10.639 -0.2578  0.1017 -0.1221
 2886W        W 6950   7.624   0.859   2.864  0.1423  0.1143 -0.3711
 2887W        W 6951   2.164   3.871   2.178  0.1245 -0.3902  0.1062
 2888W        W 6952   0.473   5.296   2.252  0.2111  0.0925 -0.1054
 2889W        W 6953   3.732  10.571   2.435  0.0123 -0.1998 -0.0975
 2890W        W 6954   6.011   6.840   1.548  0.2451  0.3716  0.0072
 2891W        W 6955   7.960   4.340   3.062  0.0420  0.0125 -0.1948
 2892W        W 6956   7.824   6.162   0.942 -0.0584  0.4031  0.2331
 2893W        W 6957   7.129   0.992   3.672 -0.2055 -0.0429  0.3284
 2894W        W 6958   4.833   2.177   9.924 -0.3265 -0.0642  0.0053
 2895W        W 6959   3.309   9.104   2.632  0.0757 -0.0516  0.3831
 2896W        W 6960   6.344   9.757  11.297  0.1192 -0.1592  0.1833
 2897W        W 6961   2.421   5.388   8.344  0.2662  0.0153  0.0750
 2898W        W 6962   5.616   7.719   1.228  0.1056 -0.2951  0.0086
 2899W        W 6963   1.408   8.082  11.009  0.2206 -0.0960 -0.2192
 2900W        W 6964   1.723  10.568   0.129 -0.0001  0.3226 -0.1201
 2901W        W 6965   1.024   5.028  11.310 -0.1059  0.1007  0.2189
 2902W        W 6966   9.649   1.891   7.757 -0.0302  0.0343 -0.0536
 2903W        W 6967   2.759   5.888   9.750 -0.4722  0.2131 -0.2351
 2904W        W 6968   5.855  10.042   9.603  0.2156 -0.0753 -0.2136
 2905W        W 6969  10.471   5.911   0.549  0.1281 -0.0049  0.0765
 2906W        W 6970   7.045   2.555   0.547  0.0092 -0.0916  0.1692
 2907W        W 6971   9.396   4.697   0.279  0.0971 -0.0180  0.0240
 2908W        W 6972   5.616   5.829   9.064  0.1457 -0.1220  0.2033
 2909W        W 6973   8.486   9.308   8.682  0.1290 -0.3459  0.2584
 2910W        W 6974   1.922  10.572   2.713 -0.0438 -0.0695  0.3416
 2911W        W 6975  10.405   0.509   0.786 -0.2681 -0.2122  0.0532
 2912W        W 6976   6.520   2.949  10.233 -0.1749 -0.1819  0.0163
 2913W        W 6977   2.798   4.380   7.138 -0.0247  0.0144 -0.1310
 2914W        W 6978   0.918   6.644  10.876  0.2222 -0.1967 -0.3517
 2915W        W 6979   8.567   5.331   9.075  0.0476  0.2840  0.0438
 2916W        W 6980   4.424   8.461   9.088 -0.0429  0.1036 -0.1476
 2917W        W 6981   5.508   6.724  10.885  0.3230 -0.0008  0.0893
 2918W        W 6982  10.050   6.667   8.147  0.0538  0.4072  0.0472
 2919W        W 6983   6.050   7.352   2.446  0.5292 -0.3409 -0.9435
 2920W        W 6984   3.891   0.876   2.329 -0.0124  0.2628 -0.0941
 2921W        W 6985   0.011   7.219   3.330 -0.0432  0.2613 -0.2491
 2922W        W 6986   7.364  10.597   4.081  0.2078 -0.0673 -0.0837
 2923W        W 6987   0.352   4.455  10.225  0.0960  0.3428  0.2321
 2924W        W 6988  10.350   5.403   1.246 -0.1978  0.1671  0.0760
 2925W        W 6989  10.609   0.023   2.140  0.0996  0.3463 -0.3057
 2926W        W 6990   4.589   6.421   9.739 -0.2353  0.0280 -0.1591
 2927W        W 6991   2.739   1.041   1.784 -0.1784 -0.3010 -0.3335
 2928W        W 6992   2.268   1.766   2.701  0.2344 -0.3406  0.3385
 2929W        W 6993   1.782   7.182  10.026 -0.0711 -0.3068  0.3202
 2930W        W 6994   5.877   4.525   3.398 -0.0233  0.3764 -0.1887
 2931W        W 6995   6.641   8.831   3.221 -0.1937 -0.1976  0.0615
 2932W        W 6996   8.958   0.919  10.523 -0.0661 -0.1788  0.0091
 2933W        W 6997   1.804   9.383   3.120 -0.0928 -0.2048 -0.1642
 2934W        W 6998   7.185  10.201  10.335 -0.0763 -0.1942 -0.3854
 2935W        W 6999   5.910  10.347   0.969  0.0889  0.0386  0.1207
 2936W        W 7000   7.429   6.947   2.591 -0.0990  0.0462 -0.0378
 2937W        W 7001   0.236   1.130   8.778 -0.4304  0.1515  0.0343
 2938W        W 7002   6.180   4.294   9.490 -0.3512 -0.0728 -0.0281
 2939W        W 7003   1.587   4.224   9.411 -0.1327 -0.2180  0.0198
 2940W        W 7004   7.618   3.814   4.717 -0.0772 -0.2708  0.1274
 2941W        W 7005   4.538   2.651   8.273 -0.0922 -0.1331  0.0647
 2942W        W 7006   3.672   8.829   2.457  0.2597  0.0919 -0.3022
 2943W        W 7007   9.896   8.863   8.589  0.0603 -0.2777  0.1685
 2944W        W 7008   6.896   5.478  10.551 -0.0606  0.0181  0.0409
 2945W        W 7009   0.136   3.432   2.409  0.0629 -0.0222 -0.1444
 2946W        W 7010   7.530   9.371   4.111  0.0639  0.0500 -0.0463
 2947W        W 7011   0.136   2.201  11.086 -0.0384 -0.0878  0.3549
 2948W        W 7012   7.606   4.412  10.646  0.2391 -0.3402 -0.0371
 2949W        W 7013   2.520   3.712  11.399  0.2554 -0.1133 -0.0392
 2950W        W 7014   9.542   8.970  11.492  0.1159 -0.0493  0.3532
 2951W        W 7015   8.578   1.880  10.238 -0.1696 -0.1395  0.1393
 2952W        W 7016  10.033   1.696   8.625 -0.0515 -0.0983  0.0415
 2953W        W 7017   0.324   0.636   2.916  0.1386 -0.1145 -0.0136
 2954W        W 7018   6.486   3.526   0.985 -0.1332  0.0160 -0.0871
 2955W        W 7019   0.488   7.508  10.895  0.5112 -0.1028 -0.2490
 2956W        W 7020   8.249   0.861   2.405  0.1006 -0.2066  0.0264
 2957W        W 7021   1.493   3.202   1.098 -0.0686  0.3694  0.2032
 2958W        W 7022   5.910   1.342   8.273  0.0292  0.1474 -0.0114
 2959W        W 7023   6.639   7.387  11.138 -0.0559  0.2013  0.0736
 2960W        W 7024   0.260   4.483   7.838 -0.0314 -0.0865  0.1319
 2961W        W 7025   7.860   8.751   8.475 -0.2472  0.0888  0.0284
 2962W        W 7026   7.378   0.211   2.893  0.3963 -0.0672  0.0967
 2963W        W 7027   3.353   0.485   1.518  0.3945  0.0853 -0.0589
 2964W        W 7028   6.455   3.217   2.925  0.1535  0.1385 -0.1427
 2965W        W 7029  10.290   6.730   0.712  0.0600  0.0510 -0.1625
 2966W        W 7030   4.097   0.161   9.346  0.5150 -0.0647 -0.1338
 2967W        W 7031   5.723   3.415   2.064 -0.0828  0.1664  0.1928
 2968W        W 7032  10.632   6.881   0.316  0.0428 -0.0141  0.1545
 2969W        W 7033   3.240   1.065  10.424  0.0164 -0.0903  0.0699
 2970W        W 7034   1.924   6.417   2.350  0.1048 -0.0066  0.1723
 2971W        W 7035   3.944   9.024   9.881 -0.1307 -0.1199  0.0205
 2972W        W 7036   3.282   3.474   1.521 -0.2796 -0.0383  0.0798
 2973W        W 7037   6.556   1.059  10.264 -0.1638 -0.0053 -0.3627
 2974W        W 7038   1.315   6.629   8.071  0.3206 -0.1151 -0.0611
 2975W        W 7039   5.552   3.414   3.226  0.1099  0.1070 -0.3982
 2976W        W 7040   5.766   6.256  11.017  0.0796 -0.0983 -0.0083
 2977W        W 7041   3.264  10.127   9.219 -0.2702 -0.2219  0.0040
 2978W        W 7042   5.409   8.205   0.904  0.2130 -0.0465  0.3830
 2979W        W 7043   6.260   8.710   3.663  0.1658  0.0344  0.2817
 2980W        W 7044   2.139   5.821   8.122 -0.0652 -0.0673 -0.1067
 2981W        W 7045   7.228   6.579   9.010  0.0252 -0.2023  0.1865
 2982W        W 7046   6.985   8.083   1.763  0.0386 -0.0247 -0.3065
 2983W        W 7047   5.113   6.999   2.655  0.0733  0.0192 -0.1400
 2984W        W 7048   4.077   0.779   0.889  0.3470  0.1683  0.0092
 2985W        W 7049   1.334   9.664   0.646 -0.0962  0.1547 -0.2235
 2986W        W 7050   7.891   0.320   7.394 -0.2529  0.0166  0.2507
 2987W        W 7051   7.050   9.681   0.360  0.3480  0.4679  0.1030
 2988W        W 7052   5.372   0.776   8.709 -0.0003 -0.1606 -0.2222
 2989W        W 7053   2.802   6.590   3.503  0.0639 -0.0153 -0.0034
 2990W        W 7054   3.600   4.167   9.353  0.1585 -0.0152  0.0126
 2991W        W 7055  10.188   4.435   3.556  0.1388 -0.0336  0.2393
 2992W        W 7056   9.823   5.340  10.478  0.0843 -0.2598  0.0475
 2993W        W 7057   0.634   3.231   8.465 -0.0805  0.1551 -0.1102
 2994W        W 7058   5.265   8.299   2.751  0.1269  0.1136  0.1576
 2995W        W 7059   8.838   3.218   0.733  0.2006  0.1321 -0.0587
 2996W        W 7060   9.856   2.241   3.825 -0.0912 -0.1009  0.0380
 2997W        W 7061   5.938   4.349  10.886  0.3541  0.0939  0.0038
 2998W        W 7062  10.213   3.053  10.789 -0.1428 -0.0785 -0.0612
 2999W        W 7063   1.380   2.417   1.196  0.0957 -0.2228  0.0404
 3000W        W 7064   2.996   7.926   2.490  0.3129 -0.1390 -0.2449
 3001W        W 7065   2.195   0.806   7.619 -0.0557  0.1263 -0.0083
 3002W        W 7066   8.094  10.527   4.004 -0.4451 -0.0441 -0.2432
 3003W        W 7067   4.491   8.430   0.523  0.0236  0.1194  0.2657
 3004W        W 7068   5.475   1.047   1.070  0.4485 -0.0713 -0.1135
 3005W        W 7069   5.666  10.182  10.469 -0.1285  0.1481  0.1023
 3006W        W 7070   4.132   8.466  10.923 -0.0539  0.0036 -0.1323
 3007W        W 7071   1.286   1.649  10.257  0.1868  0.0140  0.2444
 3008W        W 7072   7.975   3.783   9.314  0.1623  0.2817 -0.5195
 3009W        W 7073   5.503   0.171   1.078  0.2229 -0.4253 -0.1646
 3010W        W 7074   4.283  10.437   3.614 -0.0454 -0.0003  0.1717
 3011W        W 7075   5.667   8.838   9.523 -0.3506  0.0940  0.1830
 3012W        W 7076   2.007   9.957   1.368 -0.1245 -0.0499 -0.0275
 3013W        W 7077   1.941   3.621  10.935  0.2207 -0.2142 -0.1509
 3014W        W 7078   2.918   6.854   9.387 -0.1358  0.2318 -0.3715
 3015W        W 7079   1.246   4.053   2.170  0.0260  0.0374 -0.0248
 3016W        W 7080   8.397   9.407   8.210 -0.1897 -0.2007  0.0669
 3017W        W 7081   0.238   7.927   1.650  0.1583  0.0530  0.1316
 3018W        W 7082   7.703   7.758   3.511  0.1082  0.3138 -0.2450
 3019W        W 7083   6.889   2.234  10.628 -0.0427 -0.0746 -0.0784
 3020W        W 7084   6.216   7.653   2.042 -0.0960  0.2584 -0.0412
 3021W        W 7085   5.915   8.113  10.292  0.3287  0.1298 -0.0400
 3022W        W 7086   5.392   3.953   9.791  0.0556  0.0460  0.0274
 3023W        W 7087   2.497   4.647   0.977  0.0277 -0.0101  0.1737
 3024W        W 7088  10.073   8.200  10.511 -0.1686  0.1141  0.0464
 3025W        W 7089   6.600   6.394  11.133 -0.1163  0.2156  0.1194
 3026W        W 7090   5.176   8.122  10.351  0.1895  0.1152  0.0382
 3027W        W 7091   1.126   5.460  11.525 -0.1519  0.1937  0.0470
 3028W        W 7092   4.962   6.340   8.303  0.1199 -0.2525  0.0412
 3029W        W 7093  10.283   9.491   8.719  0.1954  0.2651 -0.1644
 3030W        W 7094   3.521   9.506   7.953  0.3628  0.0295  0.2345
 3031W        W 7095   0.398   5.662  10.453 -0.1653 -0.0864  0.4546
 3032W        W 7096   8.940   5.031   3.223 -0.0689 -0.0227  0.2100
 3033W        W 7097   9.762   8.831   1.203 -0.0061 -0.1112 -0.3193
 3034W        W 7098   4.112   4.966  10.000 -0.3674  0.0497  0.0539
 3035W        W 7099   7.984   7.196   2.475 -0.2941 -0.0360  0.0497
 3036W        W 7100   6.420   0.686   9.713 -0.1573 -0.3298 -0.2259
 3037W        W 7101   0.856   2.360   1.445 -0.1867 -0.1053  0.2587
 3038W        W 7102   5.407   6.355   8.608 -0.0342  0.1699  0.0999
 3039W        W 7103  10.224   3.837   1.368  0.0652 -0.0185  0.1315
 3040W        W 7104  10.095   5.656  10.821  0.2988  0.0133  0.3086
 3041W        W 7105   8.132   9.864   8.132  0.0094 -0.1404 -0.0799
 3042W        W 7106   3.340  10.509   8.889  0.4067  0.0040 -0.1291
 3043W        W 7107   4.887   3.219   9.235 -0.3002 -0.0117  0.0170
 3044W        W 7108   9.998   4.260   0.564 -0.2440 -0.1820  0.0754
 3045W        W 7109   6.608   6.626   2.721 -0.0998  0.0026 -0.0149
 3046W        W 7110   1.280   1.559   3.452  0.0831  0.0472 -0.2464
 3047W        W 7111   6.511   3.640   2.640  0.2502  0.2473  0.0314
 3048W        W 7112   6.278   0.731   9.197  0.0446 -0.1877  0.2014
 3049W        W 7113   3.138   5.366   9.097 -0.1822 -0.0200  0.0590
 3050W        W 7114   2.770   1.201   3.723 -0.1112 -0.4753  0.1208
 3051W        W 7115   7.681  10.140  10.604 -0.0723  0.2051  0.1029
 3052W        W 7116   1.676   5.233   9.291  0.1637 -0.0883  0.1080
 3053W        W 7117   8.556   3.804   2.432  0.1880 -0.0782  0.0432
 3054W        W 7118   8.258   8.958   2.638  0.1588 -0.0627  0.1418
 3055W        W 7119   5.617   3.505   8.724  0.0700  0.2262  0.2332
 3056W        W 7120   7.347   8.694   7.992 -0.0531 -0.2000  0.2036
 3057W        W 7121   6.967   4.278  11.257  0.1658 -0.0454  0.0447
 3058W        W 7122   6.887   4.635   9.287  0.6070 -0.1087 -0.2026
 3059W        W 7123   9.514   1.920   1.814 -0.0845  0.1018  0.1718
 3060W        W 7124   0.327   0.835   8.391  0.1506  0.2534  0.1573
 3061W        W 7125   5.204   0.533   9.727 -0.0269  0.3512  0.1228
 3062W        W 7126   6.910   9.716   1.671  0.0254  0.0866 -0.1639
 3063W        W 7127   9.425   3.982   2.443 -0.0064  0.0963  0.4390
 3064W        W 7128   7.773   3.779   1.232  0.0606 -0.0212 -0.2285
 3065W        W 7129   8.994   7.400   0.067  0.0305  0.2121  0.0764
 3066W        W 7130   3.899   2.042  10.994  0.0191 -0.1610 -0.0041
 3067W        W 7131   5.774   7.220   1.351 -0.4126  0.1372  0.0310
 3068W        W 7132   2.725   3.487   3.638  0.0037 -0.3443  0.0462
 3069W        W 7133   8.448   9.666   1.658  0.1340  0.0387 -0.1448
 3070W        W 7134  10.639   7.452   1.942 -0.3652 -0.2165  0.0671
 3071W        W 7135   9.277   8.769   8.474 -0.1624  0.0660 -0.1474
 3072W        W 7136   0.134   6.613   0.850  0.0223  0.0592 -0.0323
 3073W        W 7137   7.436   9.900   8.607  0.5340 -0.0750  0.1051
 3074W        W 7138   2.716   2.853   0.253  0.2016 -0.2302 -0.0427
 3075W        W 7139   7.043   6.021   1.984 -0.0165  0.0725 -0.0517
 3076W        W 7140   9.011   3.310   1.678 -0.0255  0.2616 -0.2499
 3077W        W 7141   5.081   5.475   7.686 -0.2369 -0.2456  0.3499
 3078W        W 7142   1.162   8.374   9.593  0.1199  0.1209  0.0190
 3079W        W 7143   1.140   2.444  10.260  0.1240  0.1651  0.1370
 3080W        W 7144   7.165   8.010  10.774  0.1109 -0.2819  0.2338
 3081W        W 7145   2.204   4.302   3.355  0.2589 -0.0899 -0.0111
 3082W        W 7146   9.425   8.746  11.037 -0.0719  0.0892  0.0617
 3083W        W 7147   5.069   2.692   0.224 -0.3190 -0.0112  0.4812
 3084W        W 7148   5.910   4.812   2.117 -0.4564 -0.1659  0.2726
 3085W        W 7149   6.954  10.599   2.854 -0.1758  0.2488  0.1712
 3086W        W 7150   6.412   5.921   1.307 -0.1801 -0.1791  0.0174
 3087W        W 7151   4.145   3.738   1.799  0.1547 -0.1368  0.0534
 3088W        W 7152   5.565   1.949   0.668  0.0366  0.1302 -0.0518
 3089W        W 7153   7.638   5.840   3.840  0.1159  0.0420  0.0607
 3090W        W 7154   6.248   6.031  10.963 -0.1824 -0.0054  0.3687
 3091W        W 7155  10.039   5.028   1.377  0.1979  0.0336  0.0482
 3092W        W 7156   5.613   0.968   9.838 -0.0031 -0.2781 -0.1973
 3093W        W 7157  10.395   7.412   8.305 -0.2725 -0.1171  0.2816
 3094W        W 7158  10.158   8.532  10.058 -0.0445 -0.0703  0.1258
 3095W        W 7159   3.253   7.261   0.100  0.1606 -0.1294  0.1887
 3096W        W 7160   1.102   3.404   1.351  0.2634  0.1545 -0.1188
 3097W        W 7161   7.685   5.933   1.933  0.0571 -0.2668 -0.1271
 3098W        W 7162   6.098   0.452  10.089  0.0277  0.0142 -0.1130
 3099W        W 7163   5.562   0.172   9.540  0.4083  0.0440  0.2430
 3100W        W 7164   7.985   7.635   2.712 -0.3225  0.0467  0.1251
 3101W        W 7165   0.073   6.493  10.476  0.3001 -0.0789 -0.2258
 3102W        W 7166   9.148   3.014   4.063 -0.1295  0.1392 -0.0241
 3103W        W 7167   5.726   9.453   2.326  0.0399 -0.0633 -0.1567
 3104W        W 7168   4.132   7.362   0.173 -0.2727 -0.0792 -0.1907
 3105W        W 7169   1.984   4.778   3.451 -0.1194  0.0929 -0.1438
 3106W        W 7170   8.854   6.088   0.819  0.3616 -0.2118  0.0695
 3107W        W 7171   4.153   4.362   3.975  0.0046  0.1609  0.1379
 3108W        W 7172   7.460   1.386   0.346  0.2445 -0.1476  0.1083
 3109W        W 7173   1.153   5.988  11.471  0.0579 -0.1349  0.0371
 3110W        W 7174   1.943   8.641   9.796 -0.2562  0.0681 -0.0459
 3111W        W 7175  10.033   5.534   8.961  0.1098 -0.1903  0.2445
 3112W        W 7176   4.564   4.051   9.394  0.1612  0.3230  0.1185
 3113W        W 7177   0.533   1.967   3.588 -0.0214  0.1664 -0.1483
 3114W        W 7178   8.420   2.152  10.734 -0.2183 -0.0984 -0.1887
 3115W        W 7179   7.684   2.776  10.580 -0.3898 -0.0093 -0.2071
 3116W        W 7180   8.775  10.296   2.169  0.5972  0.1870 -0.1126
 3117W        W 7181   5.802   4.352   1.785  0.2962  0.1574 -0.0361
 3118W        W 7182   2.181   6.663   1.950  0.2699  0.2688 -0.1004
 3119W        W 7183  10.505   8.138   2.553 -0.0288  0.1558 -0.0514
 3120W        W 7184   6.904   5.402   8.705 -0.5123  0.1847 -0.1810
 3121W        W 7185   5.150   4.748   1.899  0.1384  0.2011 -0.0638
 3122W        W 7186   9.427   7.783   7.856 -0.3589 -0.0637 -0.1033
 3123W        W 7187   9.168   3.476   9.265 -0.3302 -0.0771  0.4485
 3124W        W 7188  10.056   4.683   3.132 -0.3751 -0.2626 -0.2252
 3125W        W 7189   1.619   7.803   1.045  0.0984  0.1193 -0.2753
 3126W        W 7190   6.604   4.531   0.078  0.1601  0.0576  0.0146
 3127W        W 7191  10.609   9.432   0.421 -0.0842 -0.3465  0.1854
 3128W        W 7192   9.273   7.128   0.405 -0.0357 -0.0022 -0.0382
 3129W        W 7193   8.567   4.230   2.213 -0.0243  0.2275  0.0940
 3130W        W 7194   9.394   6.230   0.996 -0.2231 -0.3958  0.0225
 3131W        W 7195   3.409   5.147   3.067  0.0540  0.1575  0.3015
 3132W        W 7196   2.303   2.669  10.461 -0.3776 -0.1465  0.1614
 3133W        W 7197   2.126   3.502   9.876  0.3002  0.2656  0.0950
 3134W        W 7198   0.628   8.737   0.227  0.2119 -0.2617  0.1003
 3135W        W 7199   5.186   2.124   0.959 -0.1533  0.0242 -0.1473
 3136W        W 7200   9.713   3.297   9.616  0.3908  0.0799 -0.0478
 3137W        W 7201   6.650   4.484   1.481  0.1963 -0.2569  0.2030
 3138W        W 7202   5.376   5.584   9.413 -0.1168  0.1918  0.0037
 3139W        W 7203   8.882   5.285   1.413 -0.1480 -0.1444 -0.0253
 3140W        W 7204   8.180   7.607   0.922  0.0111 -0.1470  0.1068
 3141W        W 7205   3.704   7.100   0.253 -0.1594  0.1771 -0.1630
 3142W        W 7206   2.355   3.091   0.688 -0.0015  0.0593  0.3847
 3143W        W 7207   5.077   1.726   2.345  0.2336 -0.1079  0.0709
 3144W        W 7208  10.374   0.409  10.006  0.2445  0.0026 -0.0600
 3145W        W 7209   5.301   1.246   8.190  0.0837  0.3555  0.3540
 3146W        W 7210   9.043   9.266   0.063 -0.1411 -0.1648  0.0621
 3147W        W 7211   5.955  10.181   3.819  0.3642  0.2215  0.0669
 3148W        W 7212   5.849   8.848  10.826  0.0522  0.2913 -0.0330
 3149W        W 7213   6.052   4.001  11.247  0.0648 -0.1817  0.2081
 3150W        W 7214   4.933   4.524   9.243  0.0168  0.0736 -0.1432
 3151W        W 7215   1.253   7.052  10.879  0.1900  0.0806  0.0862
 3152W        W 7216   4.026  10.467  11.456 -0.3219  0.2741  0.1780
 3153W        W 7217   4.599   2.756   3.259 -0.0376 -0.0782 -0.3578
 3154W        W 7218   2.717   6.552  10.261 -0.0015  0.0174 -0.0442
 3155W        W 7219   3.875   6.838   1.893 -0.1881  0.1490  0.3072
 3156W        W 7220   8.256   2.104   2.389  0.1547 -0.0435  0.0742
 3157W        W 7221   3.904   0.944   8.890  0.1443  0.0281  0.0324
 3158W        W 7222   7.081   5.370   1.140  0.2467  0.1076 -0.0666
 3159W        W 7223   2.147   8.476   0.021  0.0259  0.1447 -0.0226
 3160W        W 7224   5.113   4.322  10.020 -0.0602  0.0772 -0.2814
 3161W        W 7225   7.054   2.072   9.190  0.2897  0.1122 -0.1267
 3162W        W 7226   3.561   1.108   9.599  0.1038  0.1392 -0.3003
 3163W        W 7227  10.180   6.285   2.233  0.0973 -0.1781  0.2313
 3164W        W 7228   2.737   7.470  11.539  0.0366 -0.1195 -0.1030
 3165W        W 7229   0.502   2.246  10.106 -0.0110 -0.1737  0.2445
 3166W        W 7230   6.404   3.965   2.297 -0.0756  0.1125  0.2217
 3167W        W 7231   0.885   2.454   3.669 -0.0954  0.0055 -0.0228
 3168W        W 7232   9.822   3.646   1.164  0.3615  0.3484  0.5949
 3169W        W 7233   8.905   1.470   2.924  0.1834  0.0003 -0.2213
 3170W        W 7234  10.418   3.334  10.381  0.1148  0.2221 -0.1494
 3171W        W 7235   2.907   5.492   2.084 -0.0675 -0.1000  0.1989
 3172W        W 7236   9.779   4.762  10.733 -0.2474 -0.1672 -0.0030
 3173W        W 7237   5.750   5.484   9.734  0.0694 -0.1331  0.0250
 3174W        W 7238   0.926   9.004   1.992  0.2385 -0.1863 -0.2518
 3175W        W 7239   0.798   1.476   0.389  0.1361 -0.0957 -0.2322
 3176W        W 7240   7.474   2.246   8.844  0.2717  0.0568 -0.1238
 3177W        W 7241   4.354   1.172   8.862  0.0730  0.1216  0.0897
 3178W        W 7242   8.665   7.384   8.472 -0.1800 -0.1201 -0.1820
 3179W        W 7243   2.969   9.938   3.104  0.0813 -0.1274  0.1048
 3180W        W 7244   8.054   4.631   3.442 -0.1456 -0.1334  0.0164
 3181W        W 7245   9.858   2.909   1.715 -0.2208  0.2533  0.1798
 3182W        W 7246   6.884  10.010   3.781  0.1863  0.0533 -0.0148
 3183W        W 7247   5.573   7.846  10.598 -0.0904  0.0766  0.0601
 3184W        W 7248  10.138   5.871   8.439  0.1695 -0.1512  0.0248
 3185W        W 7249   4.728   4.642  10.204  0.0052 -0.3053 -0.2122
 3186W        W 7250   5.990   3.695   1.055  0.0420  0.3023  0.0268
 3187W        W 7251   2.630   0.880   2.254  0.1203 -0.0707  0.3030
 3188W        W 7252   1.024   6.637   3.813  0.2012  0.1688  0.2065
 3189W        W 7253   4.114   4.191   8.527  0.1794 -0.0067  0.1384
 3190W        W 7254   1.699   5.580   1.362 -0.0462  0.1073  0.1450
 3191W        W 7255   3.180   7.175   1.372  0.0707 -0.2202  0.0651
 3192W        W 7256   8.357   7.176  11.027 -0.1992 -0.1902  0.1469
 3193W        W 7257   8.597   2.717   9.489 -0.0806 -0.3102  0.0351
 3194W        W 7258   7.308   5.997   8.072 -0.3017 -0.0552 -0.0627
 3195W        W 7259   2.503   8.456   3.612 -0.1238  0.2160  0.0019
 3196W        W 7260   8.801   0.664  10.005  0.1060  0.0681 -0.1417
 3197W        W 7261   4.450   9.767  10.980  0.0310  0.3185 -0.0496
 3198W        W 7262   7.668   6.942   8.658 -0.0903  0.2810 -0.2026
 3199W        W 7263   7.958   5.070   8.970 -0.1716 -0.1498 -0.0954
 3200W        W 7264   8.862   4.193   0.337 -0.0068  0.5709 -0.1559
 3201W        W 7265   3.744   2.440   8.099 -0.3093  0.0819  0.1892
 3202W        W 7266   4.852   9.369   9.495  0.2245  0.1086 -0.0443
 3203W        W 7267   6.999   2.405   2.053 -0.1815  0.1376 -0.2016
 3204W        W 7268   3.501   6.116   2.557  0.0121 -0.1310  0.1572
 3205W        W 7269   4.189   3.861   2.522  0.0909  0.1216  0.0993
 3206W        W 7270   5.274   2.205   9.084  0.0794 -0.2007  0.2396
 3207W        W 7271   9.852   2.706   3.047 -0.2480  0.0380  0.1517
 3208W        W 7272   0.373   6.211   1.195  0.1225  0.0059 -0.4216
 3209W        W 7273   2.343   1.421   8.528 -0.4344  0.0689 -0.1710
 3210W        W 7274   3.775   2.891  10.587 -0.0922  0.1606  0.2180
 3211W        W 7275   2.812   3.880   3.116 -0.0449  0.1215  0.1531
 3212W        W 7276   0.538   2.542  11.111 -0.0965  0.0199  0.3203
 3213W        W 7277   3.730   2.723   7.665 -0.0117 -0.0506 -0.2633
 3214W        W 7278   5.260   7.190   1.391 -0.1408 -0.1464 -0.0126
 3215W        W 7279   0.038   5.636   2.362 -0.0784  0.2226 -0.0838
 3216W        W 7280   3.619   6.089   2.036  0.1125  0.3025  0.0616
 3217W        W 7281   2.073   1.904   3.657 -0.1018 -0.0641  0.2341
 3218W        W 7282   7.863   5.811   7.822 -0.3650  0.2992  0.0037
 3219W        W 7283   3.679   7.679   0.886 -0.0324  0.2494  0.1077
 3220W        W 7284   3.304   5.720   1.754 -0.1384  0.0693  0.2130
 3221W        W 7285   5.193  10.168  10.682 -0.0118  0.0336 -0.1100
 3222W        W 7286   4.782   7.580   3.322 -0.2785 -0.0885 -0.2884
 3223W        W 7287   4.618   3.293   1.580 -0.3103  0.3021 -0.0575
 3224W        W 7288   7.681   1.594  10.480  0.0842  0.0064  0.0795
 3225W        W 7289   0.642   9.965  11.063  0.4063  0.1064  0.2235
 3226W        W 7290   6.776   2.535   7.961 -0.0699  0.0498  0.1072
 3227W        W 7291   3.165   3.059   8.425  0.0483  0.0225  0.2013
 3228W        W 7292   8.620   5.575  11.381  0.2093 -0.0859 -0.1248
 3229W        W 7293   4.374   0.401   1.068  0.1035 -0.4381 -0.0656
 3230W        W 7294   6.108   4.507   0.081  0.0690  0.3577  0.1175
 3231W        W 7295   0.613   0.463   9.380  0.2665 -0.3014 -0.1739
 3232W        W 7296   2.838   4.979   2.438 -0.1854  0.2092 -0.0399
 3233W        W 7297   2.539   3.632   0.677 -0.0299 -0.1214 -0.0952
 3234W        W 7298  10.044   7.673   2.030  0.0055  0.1817  0.2933
 3235W        W 7299   3.888   6.567  11.540 -0.1254 -0.0418  0.3204
 3236W        W 7300   1.374   5.632   3.444 -0.1809  0.2584  0.1391
 3237W        W 7301   7.545   5.665   8.440  0.1866 -0.2323  0.1230
 3238W        W 7302   4.272   8.250   1.876 -0.0628 -0.1293  0.1339
 3239W        W 7303   5.114   7.622  10.485 -0.1727 -0.1575 -0.2743
 3240W        W 7304   8.520   6.368   1.676  0.0927 -0.1339 -0.0782
 3241W        W 7305   5.367   0.256   8.542 -0.1779  0.1104  0.1285
 3242W        W 7306   0.890   6.176   2.533  0.0964 -0.0105 -0.1007
 3243W        W 7307   0.770   3.501  10.168 -0.2259 -0.1096  0.0710
 3244W        W 7308  10.159   2.964   9.661  0.0366  0.0452  0.0546
 3245W        W 7309   0.749   5.140   9.169  0.0373  0.2744 -0.1758
 3246W        W 7310   8.380   7.705   9.757  0.2528 -0.0859  0.0635
 3247W        W 7311   4.842   8.557   3.491 -0.1623 -0.0493  0.5688
 3248W        W 7312   8.162   3.022   2.284 -0.1675  0.2134  0.1017
 3249W        W 7313   4.227   2.272   8.088  0.3271 -0.0258  0.2611
 3250W        W 7314   6.532   3.815   4.099 -0.0664 -0.0176  0.3542
 3251W        W 7315   9.604   6.783   3.095  0.0377  0.1260 -0.1160
 3252W        W 7316   0.273   0.985  11.120  0.0034 -0.2404 -0.2979
 3253W        W 7317   6.810   5.276  10.099 -0.1510  0.0804  0.2821
 3254W        W 7318   8.656   7.193   3.864 -0.1996 -0.3169 -0.0955
 3255W        W 7319   7.985  10.404   9.272 -0.0740  0.1527 -0.1622
 3256W        W 7320   7.514   3.763   2.242 -0.1196 -0.1382 -0.4518
 3257W        W 7321   6.455   6.688   9.896 -0.1612 -0.1318 -0.1324
 3258W        W 7322   7.457   2.270   1.486 -0.1138 -0.0963 -0.0617
 3259W        W 7323   5.584   3.394   0.097  0.0008  0.0985 -0.0543
 3260W        W 7324   4.198   4.442  11.325  0.0850  0.0617  0.5782
 3261W        W 7325   1.654   5.042  10.694 -0.1276  0.3346 -0.0139
 3262W        W 7326   4.370   5.678   9.594  0.0164 -0.0763 -0.0638
 3263W        W 7327   5.822   5.181   2.590  0.2451 -0.0258 -0.1904
 3264W        W 7328   7.200   3.081   1.316  0.1836 -0.0640 -0.2128
 3265W        W 7329   7.307   1.011   4.469  0.0503 -0.4166  0.1986
 3266W        W 7330   1.944   1.863   0.791  0.0405 -0.3092  0.0449
 3267W        W 7331   4.007   1.647   3.352 -0.1062  0.0994 -0.0675
 3268W        W 7332   5.641   7.844   7.753  0.0100 -0.1454  0.2403
 3269W        W 7333   9.754   6.166   1.942 -0.0653 -0.1657  0.1093
 3270W        W 7334   9.904   7.423  11.203 -0.2763  0.1021  0.0321
 3271W        W 7335   3.841   4.229   0.216 -0.0902  0.1083 -0.0406
 3272W        W 7336   7.022   9.485  11.447  0.0586  0.0721 -0.3172
 3273W        W 7337   4.422   3.302   8.417  0.4758  0.0245 -0.1382
 3274W        W 7338   0.476   2.977   2.648  0.1606 -0.2250  0.0154
 3275W        W 7339  10.078   6.031   3.282 -0.3718 -0.0128  0.1643
 3276W        W 7340   0.548   0.485   2.163 -0.3182  0.1255  0.1102
 3277W        W 7341   6.817   8.317   3.165  0.0083 -0.0056  0.0112
 3278W        W 7342   9.368   9.955   3.436 -0.2298 -0.0382 -0.1781
 3279W        W 7343   2.406   2.650   8.739 -0.1735 -0.0002 -0.1053
 3280W        W 7344   6.152   5.711  11.536 -0.1671  0.2043  0.5986
 3281W        W 7345   4.102   3.485   9.026  0.2422 -0.2055 -0.2418
 3282W        W 7346   4.193  10.469  10.942 -0.0939  0.4018 -0.0683
 3283W        W 7347   2.951   9.917   7.964  0.1300 -0.0334 -0.0464
 3284W        W 7348   1.096   9.049   1.122  0.1525  0.0230 -0.0712
 3285W        W 7349   9.141   2.093  11.292 -0.0205  0.1095 -0.2094
 3286W        W 7350   8.988   3.301   3.038  0.2271  0.0046 -0.3034
 3287W        W 7351   1.983   7.152   0.635 -0.2247  0.1495  0.0287
 3288W        W 7352   3.336   2.371   7.673 -0.2099  0.2258 -0.1557
 3289W        W 7353   5.005   2.617   0.864 -0.2386  0.3526 -0.2755
 3290W        W 7354   3.341  10.053   0.227 -0.1043  0.1188  0.0046
 3291W        W 7355   3.263   8.138  10.371 -0.2250 -0.0948 -0.0130
 3292W        W 7356   2.491   2.114   9.420  0.3008 -0.2776  0.1346
 3293W        W 7357   4.650   7.630  10.130  0.3720 -0.1553  0.1022
 3294W        W 7358   6.101   5.504   1.553  0.0489 -0.0396 -0.5082
 3295W        W 7359   2.124   6.705   0.188 -0.0769 -0.5249 -0.3815
 3296W        W 7360   0.082   0.039   8.678 -0.0212  0.0814  0.0008
 3297W        W 7361   5.273   9.178   0.482  0.0982  0.0171  0.0562
 3298W        W 7362   4.746   4.344   2.804  0.0797 -0.1456 -0.1705
 3299W        W 7363   3.646   5.525   2.149 -0.1669  0.4127  0.0203
 3300W        W 7364   1.976   8.504   0.507  0.1981 -0.0847  0.2117
 3301W        W 7365   4.289   9.249   0.292 -0.0787 -0.1205 -0.0174
 3302W        W 7366   1.348   2.751   8.601  0.1376 -0.0810  0.0366
 3303W        W 7367   0.442   1.970   4.345  0.0303  0.0164  0.0847
 3304W        W 7368   3.243   1.533   8.920  0.1882 -0.1335  0.0208
 3305W        W 7369   6.013   8.702   8.303 -0.2170 -0.0847  0.2217
 3306W        W 7370   9.186   2.765   0.993 -0.1704 -0.1428  0.5172
 3307W        W 7371   3.014   1.134  11.400  0.2744 -0.4117  0.0508
 3308W        W 7372   8.777   1.062   2.709 -0.1641  0.1895  0.1421
 3309W        W 7373   2.185   0.218  11.542  0.2015  0.0317  0.1155
 3310W        W 7374   0.284   2.184   8.840 -0.1384  0.1503 -0.0291
 3311W        W 7375   9.036   6.596   0.995 -0.1501 -0.3828  0.0277
 3312W        W 7376   4.309   6.671   2.746  0.0215  0.3557  0.0996
 3313W        W 7377   1.101   6.429   1.096  0.1022 -0.0305  0.0503
 3314W        W 7378   6.353   8.084   2.187  0.0102  0.1298 -0.1736
 3315W        W 7379   3.399   0.821   9.126 -0.2414  0.0643  0.1998
 3316W        W 7380   5.160   7.152   9.459 -0.2762  0.2172  0.0445
 3317W        W 7381   6.933   3.022   3.145 -0.1670  0.1077 -0.2716
 3318W        W 7382   7.347   8.420   2.113  0.0129  0.2138 -0.0201
 3319W        W 7383   2.283   9.295   2.209  0.2664 -0.0387 -0.2259
 3320W        W 7384   8.971   8.379   9.939  0.0736  0.4032 -0.1142
 3321W        W 7385   7.008   2.542   0.041 -0.3252 -0.2233 -0.1164
 3322W        W 7386   1.226   1.107  10.154 -0.2770  0.0620  0.0546
 3323W        W 7387   4.286   6.827   9.415 -0.0011 -0.1654 -0.0380
 3324W        W 7388   6.858   5.724   9.086  0.1872  0.0887  0.0011
 3325W        W 7389   7.371   1.959  10.517  0.0824 -0.1535 -0.0529
 3326W        W 7390   1.905   1.466  11.027 -0.2757 -0.1894  0.2213
 3327W        W 7391   7.379   2.366  10.781 -0.0402  0.1521 -0.0652
 3328W        W 7392   1.506   2.947   0.070 -0.1514  0.2099  0.0258
 3329W        W 7393   0.290   2.323   0.068  0.2229 -0.0296  0.0347
 3330W        W 7394   3.737   4.691  10.150  0.1378  0.3035  0.2288
 3331W        W 7395   3.524   2.505   3.095 -0.1242  0.0012 -0.2900
 3332W        W 7396   5.174   4.377   8.650  0.0042 -0.0561  0.2095
 3333W        W 7397   4.252   7.260   2.088  0.2265 -0.1604 -0.0276
 3334W        W 7398   0.761   4.347   9.906  0.0899 -0.0942 -0.3787
 3335W        W 7399   7.836   2.998   2.673  0.0486 -0.0300 -0.0745
 3336W        W 7400   6.346   6.654   1.092 -0.3407 -0.1198  0.1659
 3337W        W 7401   3.056   6.343   2.756  0.2040 -0.0317 -0.1263
 3338W        W 7402   4.791   0.650   3.395  0.1828 -0.2801  0.3455
 3339W        W 7403   7.444   9.832  10.171 -0.1284  0.0740 -0.2730
 3340W        W 7404   3.115   6.689   3.046 -0.5201  0.0952  0.3826
 3341W        W 7405   0.040   8.690   9.420  0.0372 -0.3296  0.2128
 3342W        W 7406   7.314   4.972   9.033 -0.1698  0.2400  0.2299
 3343W        W 7407   8.383   4.378   8.528  0.0594  0.1195 -0.2793
 3344W        W 7408   4.884  10.060   9.806 -0.3708 -0.1790 -0.2618
 3345W        W 7409   1.146   8.898   0.292  0.4573 -0.1213 -0.2515
 3346W        W 7410   5.730   8.105   2.795  0.0332 -0.0998  0.4355
 3347W        W 7411   1.423   4.689   0.412 -0.1482 -0.0574  0.1495
 3348W        W 7412   2.845   9.349   0.942 -0.0778  0.1611  0.0630
 3349W        W 7413   3.015   9.942  10.485  0.0569 -0.3087  0.0402
 3350W        W 7414   4.133   2.624   1.317  0.1589  0.0691 -0.2482
 3351W        W 7415   7.950   3.385   3.058  0.1301 -0.0001 -0.4166
 3352W        W 7416   1.133  10.467   3.366  0.1128 -0.1248  0.0392
 3353W        W 7417  10.270   6.073  10.688 -0.1766  0.1496  0.1150
 3354W        W 7418   4.865   0.374   2.364 -0.0561  0.1534  0.2077
 3355W        W 7419   3.666   1.794   8.905  0.1086 -0.3247 -0.0149
 3356W        W 7420   0.902   5.438   0.550  0.0504  0.0779 -0.3052
 3357W        W 7421   6.449   6.465   8.490  0.1673  0.0230  0.1501
 3358W        W 7422   9.513   6.522  11.183 -0.1773 -0.2327 -0.0543
 3359W        W 7423   4.536   9.860   3.356  0.2258  0.0346  0.3648
 3360W        W 7424   0.356   0.989   3.328 -0.0583  0.2448  0.3823
 3361W        W 7425   9.966   4.507   1.490  0.1667  0.0335  0.0532
 3362W        W 7426   8.045   5.492   1.183  0.0451 -0.1305 -0.1260
 3363W        W 7427  10.095   8.376   8.558 -0.0014  0.0684 -0.0125
 3364W        W 7428   6.013   2.108  11.400  0.0080 -0.1211  0.1299
 3365W        W 7429   1.961   4.127   1.239  0.0620  0.0665 -0.2426
 3366W        W 7430   6.711   2.638   1.305 -0.0111 -0.2622 -0.1407
 3367W        W 7431   6.883   8.518   8.806  0.1986 -0.3074  0.0838
 3368W        W 7432   2.061   5.061   7.016  0.1238  0.1605  0.0635
 3369W        W 7433   4.911   1.263   1.162  0.1713 -0.0174  0.0196
 3370W        W 7434   3.449   8.160   9.910  0.1655  0.0567 -0.1441
 3371W        W 7435   5.927   8.305   0.190  0.2239  0.1637  0.1158
 3372W        W 7436   5.727   1.612  11.337  0.0311 -0.1334 -0.0392
 3373W        W 7437   1.235   0.274   0.954  0.2924 -0.1480 -0.0468
 3374W        W 7438   0.185   8.515   0.372  0.1064 -0.2957  0.0497
 3375W        W 7439   6.661   2.220   8.851  0.2416 -0.1761 -0.4974
 3376W        W 7440  10.526   8.770  10.788 -0.2225  0.0689  0.1747
 3377W        W 7441   7.178   3.216   4.150  0.1227  0.1898  0.0097
 3378W        W 7442   6.018   7.152   1.919 -0.0440 -0.1347 -0.1223
 3379W        W 7443   4.194   8.845   0.667  0.1986 -0.0773  0.1044
 3380W        W 7444   5.253   9.735   0.494 -0.1365 -0.0127 -0.0837
 3381W        W 7445   6.004   7.567   0.890  0.0526 -0.0280 -0.1254
 3382W        W 7446   6.574   1.210  11.535 -0.1321 -0.2242  0.1594
 3383W        W 7447   8.377   4.096   9.314  0.1580 -0.0526 -0.2035
 3384W        W 7448   8.687   9.699   8.485 -0.4748  0.0546 -0.3075
 3385W        W 7449   2.535   9.194   1.791  0.3118 -0.0379  0.3821
 3386W        W 7450   9.339   3.080   1.981 -0.2055  0.0664 -0.0875
 3387W        W 7451   5.309   2.561  10.206  0.3763  0.2043 -0.0687
 3388W        W 7452   2.513   1.500   1.779  0.1347 -0.0991  0.2290
 3389W        W 7453   0.064   4.292   9.825 -0.2579  0.1533  0.0975
 3390W        W 7454   2.489   8.041   2.763 -0.0483 -0.3217 -0.1239
 3391W        W 7455   3.897   4.754   0.695 -0.1150 -0.1497  0.1329
 3392W        W 7456   0.504   1.611   2.777 -0.1993 -0.3347 -0.1101
 3393W        W 7457   2.191   9.804   0.876  0.2198 -0.1428  0.0530
 3394W        W 7458  10.158   8.620   2.469  0.1379  0.2273 -0.0724
 3395W        W 7459   3.076   1.610   1.563  0.6061  0.2025 -0.1162
 3396W        W 7460   6.041   8.985   0.988  0.1089  0.1041 -0.0811
 3397W        W 7461   6.268   8.312  11.344 -0.0768 -0.1651  0.4265
 3398W        W 7462   7.051   1.161   0.037  0.0273  0.0450  0.2080
 3399W        W 7463   6.944   1.814  10.251  0.2778  0.1914  0.0782
 3400W        W 7464   6.007   4.463   9.012 -0.1922 -0.1143  0.1708
 3401W        W 7465   4.966   1.499   1.589 -0.0759 -0.0048 -0.0407
 3402W        W 7466   3.857   0.205  10.699 -0.1299  0.3611 -0.1468
 3403W        W 7467   0.691   4.037   2.611  0.1187 -0.1692 -0.4259
 3404W        W 7468   2.778   1.432   0.773 -0.1247 -0.3423 -0.2635
 3405W        W 7469   2.035   7.959   0.152  0.1097 -0.1685  0.3053
 3406W        W 7470   5.230   7.736   3.095  0.0717 -0.1341  0.3924
 3407W        W 7471   1.281   0.141   0.019  0.0714 -0.2684 -0.1208
 3408W        W 7472   3.026   4.323   2.873  0.0704 -0.0290  0.0828
 3409W        W 7473   9.873   4.380   8.519 -0.1084  0.2391 -0.2582
 3410W        W 7474   4.887   3.026  10.169 -0.0419  0.4757  0.1161
 3411W        W 7475  10.397   7.808   1.591 -0.1823 -0.1639 -0.0101
 3412W        W 7476   8.871   9.677   3.282  0.0386  0.4373 -0.0267
 3413W        W 7477   6.580   5.315   3.000 -0.0586 -0.2589 -0.0738
 3414W        W 7478   2.145   6.328   1.137  0.0339  0.0119  0.3474
 3415W        W 7479   0.650   9.432   1.184  0.0625 -0.1215  0.2086
 3416W        W 7480   1.685   6.209  11.473  0.0480  0.0600 -0.0613
 3417W        W 7481   2.611   2.984   3.414 -0.1537  0.2426 -0.0313
 3418W        W 7482   8.442   1.548   9.295  0.0200  0.1672 -0.0782
 3419W        W 7483   9.353   6.215  10.479  0.0752 -0.1753 -0.0179
 3420W        W 7484  10.240   7.730   8.684  0.1289  0.0505 -0.0231
 3421W        W 7485   7.756   4.716   2.005  0.1412  0.0597 -0.2197
 3422W        W 7486   9.896  10.120   0.742 -0.0599  0.2160 -0.4052
 3423W        W 7487   5.163   2.330   3.129  0.0223  0.0836 -0.1347
 3424W        W 7488   6.273   0.104   8.030  0.2888  0.1274  0.3974
 3425W        W 7489   4.039   1.391   1.659  0.0751  0.1734 -0.0712
 3426W        W 7490   1.004   4.903   4.242  0.2288  0.1815  0.3551
 3427W        W 7491   4.917   4.851   3.580  0.3776  0.2186  0.0082
 3428W        W 7492   2.144   4.998   1.659 -0.1745 -0.1382  0.1845
 3429W        W 7493   7.637   4.696   8.755  0.1043  0.2138 -0.0157
 3430W        W 7494   7.998   4.381   9.521  0.0973  0.0423 -0.1530
 3431W        W 7495   6.927   8.571   1.825 -0.1685 -0.0781 -0.3098
 3432W        W 7496   2.627   2.758   7.182  0.3139  0.2362 -0.1896
 3433W        W 7497   8.324   0.187   2.706  0.2748  0.3463  0.0655
 3434W        W 7498   0.466   4.626   9.043 -0.1005 -0.1163  0.0287
 3435W        W 7499   8.873   8.915  10.857 -0.4892  0.2470 -0.0914
 3436W        W 7500   0.943   7.931   1.424  0.0072 -0.0085 -0.0581
 3437W        W 7501   4.804  10.003  10.324 -0.0113 -0.0371  0.0019
 3438W        W 7502   2.199   0.099  10.790 -0.1268  0.0233 -0.0351
 3439W        W 7503   6.156   4.542   2.981  0.1855  0.2003  0.1491
 3440W        W 7504   4.376   3.168   1.162 -0.2153  0.0328 -0.0554
 3441W        W 7505   9.968   6.320  10.969 -0.1522  0.0320 -0.5113
 3442W        W 7506   1.739   4.907   8.841 -0.4129 -0.2275  0.0151
 3443W        W 7507   6.369   7.050   0.268 -0.2261 -0.1942  0.1886
 3444W        W 7508   7.266   7.276   1.504  0.0451  0.1968 -0.1947
 3445W        W 7509   0.144   7.523   0.669  0.2808 -0.5235 -0.1659
 3446W        W 7510   7.962   3.555  10.778  0.1461 -0.2148 -0.1234
 3447W        W 7511   2.392   0.305   3.552 -0.0613 -0.0641  0.1082
 3448W        W 7512   5.203   6.355   7.365  0.1680  0.1618  0.0180
 3449W        W 7513   5.015   1.716   3.832  0.1689  0.0312  0.0442
 3450W        W 7514   7.209   7.569   8.017  0.1488  0.1480 -0.0467
 3451W        W 7515   8.643   5.688   1.160  0.0685 -0.1366  0.0874
 3452W        W 7516   6.078   2.596   3.315  0.0518  0.2116 -0.1549
 3453W        W 7517   9.602  10.646   3.010  0.0420  0.1367  0.0627
 3454W        W 7518   4.692   2.597   2.280 -0.1471 -0.1239 -0.2611
 3455W        W 7519   1.539   3.414   0.650 -0.1197 -0.1493 -0.1618
 3456W        W 7520   8.926   5.240   2.407 -0.0971  0.3455  0.1250
 3457W        W 7521   5.925   8.097  10.886 -0.2594 -0.3793 -0.1289
 3458W        W 7522   3.576   0.623   2.646  0.0827  0.1011  0.1514
 3459W        W 7523   0.650   5.440  10.052  0.0609  0.0224 -0.0824
 3460W        W 7524   2.895   4.545   0.739 -0.0584 -0.1813 -0.4085
 3461W        W 7525   6.213   5.751   9.864  0.3395  0.0404  0.0090
 3462W        W 7526   2.764   2.197   8.651 -0.0060  0.0953 -0.1519
 3463W        W 7527   0.392   4.598   3.375  0.0654  0.0285 -0.2169
 3464W        W 7528   0.057   1.646   9.525  0.2401 -0.2889 -0.0243
 3465W        W 7529  10.471   3.466   1.015  0.4558 -0.0075 -0.1341
 3466W        W 7530   7.144   6.678   4.080  0.2309  0.1585 -0.0594
 3467W        W 7531   8.640   0.495  10.745  0.0019  0.0697  0.0193
 3468W        W 7532   6.335   5.416   2.508  0.3302 -0.1205  0.2099
 3469W        W 7533   8.026   1.872  10.676 -0.1360 -0.0111 -0.0801
 3470W        W 7534  10.200   9.836   1.125 -0.0425 -0.0418 -0.3364
 3471W        W 7535   2.896   3.750   1.036  0.0635 -0.2020 -0.1443
 3472W        W 7536   4.525   9.578   2.459 -0.0184  0.3081 -0.1418
 3473W        W 7537   4.879   5.585   8.175 -0.0153 -0.3990  0.1419
 3474W        W 7538   2.062   7.069   1.149  0.1385 -0.0101  0.1845
 3475W        W 7539   4.809   6.778   8.177  0.1793  0.4938  0.1771
 3476W        W 7540   1.252   3.618   8.243  0.2654 -0.0301  0.0370
 3477W        W 7541   1.023   3.251   2.839  0.1843 -0.2321 -0.2029
 3478W        W 7542   4.506   7.087   2.944  0.0160 -0.2831 -0.0620
 3479W        W 7543   6.079   7.826   8.875  0.2119  0.0414 -0.2304
 3480W        W 7544   2.134   5.888  10.708 -0.3363  0.2287 -0.0497
 3481W        W 7545   9.575   0.305   1.310  0.0821 -0.0665  0.0086
 3482W        W 7546   6.752   9.060   4.309 -0.0063  0.1360  0.0415
 3483W        W 7547   5.173   6.088   0.455  0.3166 -0.2501 -0.0157
 3484W        W 7548   7.942   3.472   2.116 -0.2758  0.1639 -0.1342
 3485W        W 7549   4.798   7.983   2.284  0.0266 -0.1353  0.1146
 3486W        W 7550   5.858   5.801  11.126 -0.0024  0.1289 -0.3257
 3487W        W 7551   9.549   0.934   3.399 -0.2141 -0.2670  0.3636
 3488W        W 7552   6.848   6.496   0.003  0.0546  0.1063  0.2153
 3489W        W 7553   9.868   1.602   8.131  0.0414  0.0808 -0.1006
 3490W        W 7554   8.438   4.365   3.702  0.0484  0.0128 -0.0760
 3491W        W 7555   8.112   5.558  11.531 -0.2261  0.1670 -0.0003
 3492W        W 7556   9.477   4.787   1.847 -0.0307 -0.0283  0.0317
 3493W        W 7557   9.236   6.145   8.799 -0.0390  0.0813  0.1300
 3494W        W 7558   7.112   9.560   9.810  0.0160 -0.0814 -0.0561
 3495W        W 7559   6.988   3.609   0.946 -0.1932  0.2195 -0.2672
 3496W        W 7560   1.005   9.504   9.822  0.2391 -0.2023  0.1794
 3497W        W 7561   3.092   9.174   8.600  0.0518 -0.2181  0.2435
 3498W        W 7562   3.394  10.113   8.158  0.2807  0.1724 -0.2362
 3499W        W 7563   5.315   2.071   8.553 -0.3017  0.0048 -0.0567
 3500W        W 7564   4.507   7.779   1.534 -0.0435  0.1222  0.2466
 3501W        W 7565   7.522  10.391   2.652 -0.0684  0.0160  0.1918
 3502W        W 7566   9.120   4.438   3.421 -0.0978 -0.2335 -0.2273
 3503W        W 7567   4.250   2.152   2.383 -0.0607  0.2931  0.2572
 3504W        W 7568   3.732   1.571   2.956  0.1786  0.1552 -0.3323
 3505W        W 7569   3.692   1.124   0.873 -0.2509 -0.1340  0.2936
 3506W        W 7570   4.498   2.671   0.962  0.0069 -0.1461 -0.2753
 3507W        W 7571   7.146   3.090   0.007 -0.1193 -0.1472  0.0841
 3508W        W 7572   0.374   4.102   0.174 -0.1702  0.1770  0.0361
 3509W        W 7573   0.785   6.488   1.561  0.0641 -0.0131 -0.0090
 3510W        W 7574   8.969   7.883  10.802 -0.1336  0.2048 -0.1676
 3511W        W 7575   9.505   0.730   0.934  0.1334  0.0278  0.2689
 3512W        W 7576   7.470   6.053   0.562 -0.3105 -0.1985  0.0307
 3513W        W 7577   2.765   8.085   8.741 -0.0291  0.0814 -0.3555
 3514W        W 7578   0.354   6.185   2.649  0.0554  0.2190  0.0988
 3515W        W 7579   7.753   2.224  10.336  0.2273  0.4451  0.1790
 3516W        W 7580   7.226   8.254  10.247  0.0225 -0.1012 -0.2078
 3517W        W 7581   3.443   7.869   7.745 -0.3071  0.0580  0.3455
 3518W        W 7582   0.190   3.001  10.461  0.1745  0.0012  0.1886
 3519W        W 7583  10.205   0.169   1.389 -0.1234 -0.2499 -0.0369
 3520W        W 7584  10.541   7.036   9.772  0.2251  0.3621 -0.0806
 3521W        W 7585   6.220   7.662  10.544  0.3306  0.2710 -0.0760
 3522W        W 7586   6.974   4.069   3.881  0.1944 -0.2906  0.0413
 3523W        W 7587   6.705  10.174   1.948  0.3129  0.1615  0.1777
 3524W        W 7588   3.610   1.573   3.657  0.0527 -0.1493 -0.0289
 3525W        W 7589   0.518   2.196   0.664 -0.0421  0.5151  0.1248
 3526W        W 7590   6.563   1.643   8.392  0.1234 -0.1711  0.1174
 3527W        W 7591   6.950   8.853  10.655  0.0352  0.1751  0.0513
 3528W        W 7592   8.779   2.342   9.073 -0.2354 -0.2815 -0.2740
 3529W        W 7593   6.349   3.726   3.167  0.2393 -0.0830  0.1430
 3530W        W 7594   4.606   2.515   1.735 -0.0893  0.3568  0.2264
 3531W        W 7595   7.244   5.226   0.217  0.1812 -0.0362 -0.1595
 3532W        W 7596   9.236   6.686   8.939 -0.2343 -0.1182  0.3123
 3533W        W 7597   1.492   5.201  11.163  0.1183  0.4269  0.0346
 3534W        W 7598   4.171   3.776   0.326 -0.1208  0.1121  0.1283
 3535W        W 7599   9.285   4.069   9.208  0.1031  0.2620 -0.2191
 3536W        W 7600   8.655   7.404   9.473 -0.2620  0.1441 -0.3118
 3537W        W 7601   4.870   9.649   8.930 -0.2452  0.2265  0.0085
 3538W        W 7602  10.170   9.234  11.437 -0.0603 -0.2409  0.0775
 3539W        W 7603   0.951   8.806   9.388 -0.2015  0.0792 -0.2433
 3540W        W 7604   3.626   8.393   3.603 -0.0754  0.1353  0.0183
 3541W        W 7605   3.871   5.290   2.909  0.1246  0.0286  0.0615
 3542W        W 7606   9.613   2.635   2.060  0.1168  0.3579  0.0639
 3543W        W 7607   9.529   0.963   2.609 -0.3955 -0.3257  0.1771
 3544W        W 7608   8.271   7.938   1.284  0.0824  0.2366  0.2891
 3545W        W 7609   6.795   0.200   1.519  0.1456  0.1855  0.0348
 3546W        W 7610   1.186   6.007   9.256 -0.1616  0.2076  0.0316
 3547W        W 7611  10.265   1.992   2.462  0.4253  0.1062  0.1661
 3548W        W 7612   2.613   0.681  10.045  0.1189 -0.1093  0.3219
 3549W        W 7613   2.184   4.707   2.994 -0.0917  0.0209  0.2367
 3550W        W 7614   3.988   3.603   8.526 -0.1540 -0.0480  0.0065
 3551W        W 7615   1.166   1.261   8.955  0.0210 -0.1921 -0.4004
 3552W        W 7616   8.495   5.105   7.643  0.1227 -0.0394  0.0306
 3553W        W 7617   1.316   5.968   4.684 -0.2289 -0.0073  0.0469
 3554W        W 7618   0.107   7.975   0.222 -0.1151 -0.0820  0.4006
 3555W        W 7619   5.446   4.736   9.150 -0.1458  0.0344  0.0440
 3556W        W 7620   7.536   1.827   0.120 -0.2815  0.1303 -0.0029
 3557W        W 7621   4.485   9.606   1.104  0.1035  0.4281 -0.1181
 3558W        W 7622   7.291   0.578   3.227 -0.0903  0.1631  0.0235
 3559W        W 7623   8.560   8.230   1.705 -0.1493  0.3283  0.4039
 3560W        W 7624   4.404   0.801   2.284 -0.2695 -0.0230 -0.3020
 3561W        W 7625   6.503   2.127   2.147 -0.0747  0.0369 -0.0054
 3562W        W 7626   3.351   6.297   7.622  0.1180 -0.1871  0.0693
 3563W        W 7627   0.031   5.830   1.559 -0.1302 -0.0319 -0.0015
 3564W        W 7628   7.821   3.885   1.743  0.2419  0.1726 -0.0978
 3565W        W 7629   7.602   4.398   1.108  0.1432  0.0299  0.2439
 3566W        W 7630  10.376   1.600   1.538 -0.2589  0.0111  0.1354
 3567W        W 7631   3.635   0.018   1.924 -0.1532  0.0743  0.0107
 3568W        W 7632   5.404   8.620   2.409  0.0198  0.1260  0.1765
 3569W        W 7633   2.907   5.891   8.899  0.1449  0.2361  0.0258
 3570W        W 7634   1.306  10.514   8.426  0.0516 -0.0295 -0.0836
 3571W        W 7635   1.822   3.691   3.070 -0.1274  0.1785 -0.0690
 3572W        W 7636   7.431   0.921   0.256  0.2093 -0.1283 -0.1620
 3573W        W 7637   7.840   5.746   2.985 -0.4861 -0.0572 -0.0658
 3574W        W 7638   7.077   5.403   9.343  0.2671 -0.0417 -0.1453
 3575W        W 7639   3.943   9.909   2.616 -0.0412 -0.3375  0.4771
 3576W        W 7640   2.188   6.055   8.960  0.3053 -0.0904 -0.0831
 3577W        W 7641   3.362   0.369  10.834  0.0411  0.0097 -0.0073
 3578W        W 7642   0.382   8.106   9.038 -0.1243 -0.0333 -0.1439
 3579W        W 7643   0.729  10.402   3.139  0.1266  0.0657 -0.2757
 3580W        W 7644   3.957   3.071   1.328 -0.0182 -0.0461 -0.0953
 3581W        W 7645   3.144   4.588  10.100 -0.4130  0.1477  0.1313
 3582W        W 7646   0.061   9.480  10.637  0.4500  0.1442 -0.0850
 3583W        W 7647  10.611   0.487   0.286 -0.0666  0.2177 -0.0299
 3584W        W 7648   3.573   9.180   8.479 -0.1484  0.0188  0.1437
 3585W        W 7649   9.365   4.148   8.542 -0.0426  0.0556  0.0542
 3586W        W 7650   4.963   9.755   3.029 -0.4139  0.1319 -0.4225
 3587W        W 7651   6.390   4.466   2.526 -0.1748 -0.1673 -0.1430
 3588W        W 7652   4.326   7.647  10.563  0.3947 -0.1036  0.0601
 3589W        W 7653   7.789   3.362   9.831  0.0418  0.0770 -0.2581
 3590W        W 7654   2.895   8.176   0.826 -0.3145  0.1694 -0.1358
 3591W        W 7655   2.644   3.889   8.366  0.0529  0.1746  0.0447
 3592W        W 7656   8.925   0.840   8.195 -0.3951 -0.1146 -0.0368
 3593W        W 7657   6.910   8.871   0.867 -0.0495 -0.0456  0.4005
 3594W        W 7658   6.191   5.955   0.804 -0.0774  0.0023 -0.0780
 3595W        W 7659   0.908   3.601  11.246 -0.3304 -0.1211  0.3516
 3596W        W 7660   4.280   9.256   9.410  0.0633  0.2160 -0.0201
 3597W        W 7661   3.483   0.472  11.359  0.3471 -0.0456  0.3411
 3598W        W 7662   2.708   4.185   1.131  0.3112 -0.1025 -0.4435
 3599W        W 7663   3.833   7.027  10.808  0.0917 -0.1879 -0.0741
 3600W        W 7664   1.757  10.173   9.988  0.4579  0.0743  0.1259
 3601W        W 7665   2.566   0.882   9.594  0.2459 -0.0974 -0.0894
 3602W        W 7666   8.321   0.264  11.361  0.0559 -0.1136  0.3132
 3603W        W 7667   1.933   9.188   0.643  0.1870  0.0219 -0.0490
 3604W        W 7668   9.605   3.599   3.801  0.1519  0.2246 -0.1458
 3605W        W 7669   3.235   2.382   1.565  0.1102  0.0487  0.0235
 3606W        W 7670   4.844   6.319  10.649  0.0866  0.0221 -0.0587
 3607W        W 7671   3.469   8.621   2.063  0.3584 -0.1110  0.1976
 3608W        W 7672   8.720   6.348   8.156  0.1709  0.2288 -0.0253
 3609W        W 7673   8.449   7.000   9.212 -0.1934  0.0627  0.3142
 3610W        W 7674   8.378   8.389   0.716  0.0459  0.0233 -0.4274
 3611W        W 7675   0.022   8.878   0.773 -0.2059 -0.1251  0.0719
 3612W        W 7676   2.226   7.369   9.865  0.1758 -0.1228 -0.1093
 3613W        W 7677   6.105   5.543   8.246 -0.0303  0.2380 -0.0957
 3614W        W 7678   1.303   5.131   0.653 -0.0159 -0.0871 -0.0344
 3615W        W 7679   8.343   9.863   8.793 -0.0195  0.1257 -0.2678
 3616W        W 7680   3.293   3.806  10.172 -0.1266 -0.0410  0.0124
 3617W        W 7681   5.044   5.813  10.675  0.1195  0.0482  0.2595
 3618W        W 7682   8.431   3.698  10.702  0.0788  0.2066 -0.0120
 3619W        W 7683   2.403   2.014   1.146  0.1080 -0.3255 -0.0850
 3620W        W 7684  10.269  10.366   1.291  0.2325  0.0685  0.1548
 3621W        W 7685   8.010   0.348   8.381  0.4147 -0.4694 -0.1704
 3622W        W 7686   6.638   0.776   1.871  0.2378 -0.1139 -0.2776
 3623W        W 7687   2.933   9.863   9.465  0.0354 -0.1020 -0.3623
 3624W        W 7688   4.924   7.598   9.600 -0.0371 -0.0139  0.3994
 3625W        W 7689   2.977   6.655   1.225 -0.2170 -0.2043  0.1160
 3626W        W 7690   9.621   7.831   9.548  0.0642 -0.2846  0.0411
 3627W        W 7691   7.420   6.422   3.780  0.2586  0.1692 -0.1232
 3628W        W 7692   8.855   8.628  10.358  0.0479  0.1431  0.2301
 3629W        W 7693   0.736   2.307  10.629  0.1240  0.0342 -0.1451
 3630W        W 7694   1.361   4.195   1.716 -0.0037 -0.1491 -0.2266
 3631W        W 7695   1.920   8.833   0.969  0.0420 -0.2234  0.1981
 3632W        W 7696   2.057   5.450   2.621  0.0010  0.0300 -0.1062
 3633W        W 7697   7.896   6.704   2.875 -0.0413 -0.1129  0.1891
 3634W        W 7698   4.548   8.955   3.661 -0.0582  0.1928 -0.0724
 3635W        W 7699   1.452   1.452   3.024  0.3534 -0.0228  0.4281
 3636W        W 7700   6.122   9.222   0.516 -0.0237  0.0068  0.1555
 3637W        W 7701   9.488  10.179  10.736  0.3540 -0.0361 -0.2138
 3638W        W 7702   8.486   3.414   0.281  0.2552  0.0838 -0.0763
 3639W        W 7703   1.168   8.902   2.435  0.1023  0.0793  0.0112
 3640W        W 7704   2.166   5.053   9.187  0.0973  0.2500 -0.0930
 3641W        W 7705   4.350   2.922  10.675  0.2841 -0.3281  0.2956
 3642W        W 7706  10.220  10.421   1.880 -0.0228  0.0060 -0.0042
 3643W        W 7707   9.411   9.113   8.820 -0.1908  0.1114  0.1061
 3644W        W 7708   5.767   5.698   2.480 -0.0166  0.1015  0.1730
 3645W        W 7709   0.451  10.066   8.579  0.0449 -0.0027  0.2052
 3646W        W 7710   7.745   0.321   0.594 -0.0264  0.0694  0.1298
 3647W        W 7711   5.723   7.824   2.150 -0.0689 -0.0792 -0.2600
 3648W        W 7712   3.482  10.611   0.567  0.1755  0.2972  0.0387
 3649W        W 7713  10.226   4.007   8.551 -0.2431  0.0408 -0.1310
 3650W        W 7714   9.847   1.180   3.066  0.0960 -0.3752  0.2459
 3651W        W 7715   3.913   9.331  11.518  0.1455  0.0271 -0.0401
 3652W        W 7716   6.709   1.599   9.836  0.2028  0.0639 -0.0335
 3653W        W 7717   1.570   2.090   9.122  0.0507 -0.2228 -0.2813
 3654W        W 7718   9.499   9.220   1.000 -0.0329 -0.1813 -0.1992
 3655W        W 7719   3.902   4.177   8.021  0.0634  0.2601 -0.0145
 3656W        W 7720   4.854   8.947  10.296 -0.1709  0.2260  0.0237
 3657W        W 7721   3.375   1.488   0.626  0.4005  0.1182 -0.2239
 3658W        W 7722   3.165   1.727   3.038  0.2052  0.3805 -0.1355
 3659W        W 7723   7.715   4.808   9.316  0.2315  0.3843  0.2608
 3660W        W 7724   1.902   4.480   1.602 -0.1545 -0.1186 -0.0711
 3661W        W 7725   0.747   7.859  10.413 -0.3780  0.1080 -0.2555
 3662W        W 7726   2.913   6.347  11.494 -0.0948  0.1076 -0.1266
 3663W        W 7727   7.981   9.682   3.188 -0.0134 -0.2739  0.1162
 3664W        W 7728   6.330   3.377   2.099 -0.0347 -0.1427  0.2928
 3665W        W 7729   2.009   7.017   8.686 -0.0765  0.1727  0.0578
 3666W        W 7730   2.112  10.419   1.459  0.1726  0.1327  0.2113
 3667W        W 7731   2.591   1.088  10.471  0.0768  0.1927 -0.0368
 3668W        W 7732   5.353   0.482   0.635  0.2829  0.2042 -0.0331
 3669W        W 7733   5.278   1.565   8.620  0.1152  0.0984  0.1493
 3670W        W 7734   9.829   9.559  10.113  0.1874  0.0392 -0.3247
 3671W        W 7735   7.916   6.528   8.514 -0.1108 -0.1977  0.0106
 3672W        W 7736   0.602   1.996  11.058 -0.0819  0.3264 -0.1383
 3673W        W 7737   5.534   6.189   1.700 -0.1491 -0.0865 -0.0978
 3674W        W 7738   5.787   2.674   2.530 -0.0965  0.2603  0.1260
 3675W        W 7739   1.912   5.400  10.538  0.0002  0.0995 -0.6295
 3676W        W 7740   6.270   7.144   1.232  0.0527 -0.1024 -0.0093
 3677W        W 7741   0.730   6.933   9.631 -0.1775 -0.0378  0.1632
 3678W        W 7742   1.869   4.679   4.342 -0.0520 -0.1740  0.1591
 3679W        W 7743   6.485   1.651   0.297  0.1227  0.1419 -0.0126
 3680W        W 7744   3.575   2.603   0.833 -0.0249  0.3018 -0.1568
 3681W        W 7745   2.094   9.448   9.972  0.1512 -0.0412  0.1486
 3682W        W 7746   4.346   4.510   1.630  0.2749  0.1847  0.1873
 3683W        W 7747   9.130   9.531   3.647 -0.3447 -0.0689 -0.1266
 3684W        W 7748   1.103   7.614   1.817  0.5145  0.0546 -0.1843
 3685W        W 7749   6.988   0.346   1.068  0.0193  0.3311 -0.0799
 3686W        W 7750   8.599   2.227   4.192 -0.2802  0.1363  0.4236
 3687W        W 7751   4.646   8.080   0.131 -0.1677  0.0940  0.0551
 3688W        W 7752   8.740   8.701   3.356  0.2982 -0.2869 -0.0451
 3689W        W 7753   7.999   0.097   3.539 -0.3289  0.1516 -0.2091
 3690W        W 7754   1.883   5.213   8.478  0.2248 -0.0387  0.1206
 3691W        W 7755  10.537   5.810   3.952 -0.2348  0.2181  0.2417
 3692W        W 7756   2.437   6.152   3.343 -0.1468 -0.2419  0.2242
 3693W        W 7757  10.163   3.303   1.386  0.0713  0.0815  0.3858
 3694W        W 7758   7.452   7.084  10.810  0.1244 -0.2693  0.3548
 3695W        W 7759   6.877   9.746   9.430  0.0531  0.0513 -0.1666
 3696W        W 7760   7.758   8.502   0.728  0.2092  0.0485 -0.2186
 3697W        W 7761   0.680   4.910  10.949 -0.1239  0.4750 -0.3567
 3698W        W 7762   2.783   7.552   2.724 -0.0335 -0.6149 -0.1347
 3699W        W 7763   9.832   4.855   0.520 -0.1496  0.0555 -0.1560
 3700W        W 7764   7.160   3.254   9.290  0.1765  0.2473 -0.0416
 3701W        W 7765   1.382   8.668  10.978  0.0007  0.0328 -0.0940
 3702W        W 7766   2.888   9.341   9.523  0.1950 -0.2119  0.1064
 3703W        W 7767  10.550   8.121  10.310 -0.0223 -0.1631 -0.0866
 3704W        W 7768   5.989   8.303   9.095  0.1608 -0.2023 -0.1009
 3705W        W 7769   3.956   5.363   9.588 -0.1489  0.0875 -0.1201
 3706W        W 7770   3.923   9.313   0.756 -0.0217  0.1726 -0.4390
 3707W        W 7771   1.131   6.742   9.882 -0.0267 -0.0234  0.0170
 3708W        W 7772   2.274   6.298   9.838 -0.1754  0.1236  0.1900
 3709W        W 7773   3.138   2.073   3.366  0.0103  0.0008  0.1373
 3710W        W 7774   9.779   6.680   2.242 -0.4095  0.1009  0.1464
 3711W        W 7775  10.393   3.058  11.309 -0.0739  0.3928  0.0641
 3712W        W 7776   6.544   6.779  10.810 -0.0316 -0.1344 -0.1956
 3713W        W 7777   9.644   7.772   8.655  0.0391 -0.2453 -0.0077
 3714W        W 7778   7.294   4.893   1.662  0.1952 -0.1913 -0.0648
 3715W        W 7779   3.309   6.361   8.127  0.2682  0.0036 -0.0717
 3716W        W 7780   6.426   9.314   9.381 -0.0247 -0.3223 -0.1990
 3717W        W 7781   2.262   8.389  11.131  0.0335  0.0957  0.0080
 3718W        W 7782   5.067   3.998   0.910 -0.2380  0.3088 -0.1298
 3719W        W 7783   1.627   4.260  10.402 -0.2373 -0.1538 -0.1191
 3720W        W 7784   2.730   2.674   9.562  0.1547 -0.3230  0.1373
 3721W        W 7785   9.720  10.456   2.056 -0.1137 -0.0551 -0.0135
 3722W        W 7786   4.602   4.841   1.945  0.0141  0.0956 -0.3319
 3723W        W 7787   8.169   5.191   2.863  0.0773  0.1828  0.0115
 3724W        W 7788   5.833   3.249   0.821  0.1870  0.0621 -0.2201
 3725W        W 7789   0.273   3.527   0.850  0.2077  0.1409  0.0997
 3726W        W 7790   9.141   6.214   1.785  0.1218 -0.2926  0.0746
 3727W        W 7791   3.461   7.711   1.548 -0.0003  0.2025 -0.2837
 3728W        W 7792   0.046   5.217   8.557  0.0278 -0.0847  0.3005
 3729W        W 7793   9.280   5.502   3.368  0.2832  0.4535 -0.0421
 3730W        W 7794   6.851   1.789   8.040  0.1217 -0.0118 -0.1519
 3731W        W 7795   0.641   3.538   3.675  0.0571  0.0648  0.1750
 3732W        W 7796   6.053   1.790  11.022 -0.0636 -0.1108 -0.3132
 3733W        W 7797   5.819   8.912   3.992 -0.0504  0.0516  0.1469
 3734W        W 7798   1.237   8.404   2.930 -0.0356 -0.2223  0.2329
 3735W        W 7799   1.827   9.301   8.558 -0.2091  0.1687  0.0105
 3736W        W 7800   6.605   5.482   9.634  0.2572 -0.0793  0.4562
 3737W        W 7801   6.519   7.811  11.473 -0.2079 -0.2939  0.0129
 3738W        W 7802   7.311   3.232   0.883 -0.3654 -0.0071  0.0692
 3739W        W 7803   8.239   3.432   2.639 -0.1177  0.2130 -0.0636
 3740W        W 7804   3.067   8.784   2.322  0.1180 -0.4002  0.0758
 3741W        W 7805   5.190   9.254   2.982  0.0984 -0.1388  0.3994
 3742W        W 7806   5.888   4.591   2.561 -0.3757  0.3815  0.2867
 3743W        W 7807   2.324   3.885   0.310 -0.0693 -0.1962  0.0793
 3744W        W 7808   0.327   3.504  10.390  0.1178 -0.3726 -0.0797
 3745W        W 7809   4.487   1.970  10.813  0.2877 -0.0950 -0.1146
 3746W        W 7810   9.878   9.790  10.586  0.1492 -0.2900  0.1368
 3747W        W 7811   6.268   6.386   2.388 -0.1369  0.3301  0.0048
 3748W        W 7812   7.454   7.581   7.587  0.1559 -0.1364  0.1129
 3749W        W 7813   1.932   2.127   7.522  0.1497 -0.3066  0.0322
 3750W        W 7814   7.832   1.014   8.854  0.0441  0.2209  0.0270
 3751W        W 7815   7.200   6.808   8.554  0.2470 -0.2402 -0.0366
 3752W        W 7816   8.239   0.706   9.762 -0.1581 -0.1163  0.1892
 3753W        W 7817   6.044   7.610   1.572 -0.1941  0.0116 -0.0661
 3754W        W 7818   7.592   8.039   7.921 -0.2383  0.0325  0.0138
 3755W        W 7819  10.611   0.923   7.944  0.2670 -0.1767  0.1409
 3756W        W 7820   2.210   8.852   1.437  0.0329  0.0526  0.1983
 3757W        W 7821   0.557   6.575   3.600  0.1427 -0.0468  0.0329
 3758W        W 7822   6.320  10.341   9.720 -0.0803 -0.2242  0.0568
 3759W        W 7823   8.369   7.139   3.384 -0.1403 -0.3869  0.2366
 3760W        W 7824   4.841   3.854  10.667  0.0237  0.0571 -0.0143
 3761W        W 7825   6.213   7.151  11.008  0.1642 -0.3696 -0.0634
 3762W        W 7826   0.363   7.601   3.179  0.0376 -0.0057 -0.1080
 3763W        W 7827   9.440  10.068   0.099  0.1268 -0.1199 -0.0218
 3764W        W 7828   2.458   4.380   3.845  0.1729 -0.2203 -0.1649
 3765W        W 7829   7.459   7.954   0.810  0.0325 -0.0144  0.0347
 3766W        W 7830   4.871   4.866   9.694  0.0283 -0.0495 -0.1655
 3767W        W 7831   4.870   0.265  10.791 -0.0206  0.0429  0.0462
 3768W        W 7832   7.287   6.331   9.484 -0.1663  0.2157  0.1673
 3769W        W 7833   6.843   5.830   1.142 -0.1214 -0.0280 -0.0800
 3770W        W 7834   5.144   2.608  11.262  0.1613  0.1459  0.1674
 3771W        W 7835   8.861   4.933   0.997  0.2028  0.0501  0.0587
 3772W        W 7836   3.063   7.012   3.444 -0.3453 -0.0203  0.0489
 3773W        W 7837   8.650  10.565   9.449  0.1933  0.4045  0.1167
 3774W        W 7838  10.112   8.872   3.992  0.1253 -0.2928  0.0282
 3775W        W 7839   0.517   7.346  10.388 -0.0504 -0.3397 -0.2805
 3776W        W 7840   5.316   4.476   9.579  0.2465 -0.1165 -0.0813
 3777W        W 7841   4.885   9.148   9.009  0.1107 -0.1210  0.0963
 3778W        W 7842   9.019   8.829   9.440 -0.2776 -0.0299  0.0331
 3779W        W 7843   8.393   2.469   3.114  0.0824 -0.2732 -0.0071
 3780W        W 7844   1.722   5.235   1.726 -0.1969 -0.0617 -0.0745
 3781W        W 7845   5.009   8.285  11.364 -0.1281 -0.0841 -0.2385
 3782W        W 7846   0.984   5.368   8.156 -0.1070 -0.2079 -0.1105
 3783W        W 7847   4.520   6.759   1.424  0.3532  0.2525  0.0440
 3784W        W 7848   1.438   1.890  11.319 -0.0121  0.0605  0.0143
 3785W        W 7849   2.467   7.648   3.148  0.2559 -0.1629  0.3389
 3786W        W 7850   7.598   1.947   3.528  0.1766 -0.0534 -0.1502
 3787W        W 7851   3.471   4.987   0.297 -0.0134  0.0439  0.2462
 3788W        W 7852   3.386   6.433  11.552  0.0173 -0.0695  0.0595
 3789W        W 7853   8.810   0.724   9.180 -0.0492 -0.2913 -0.0543
 3790W        W 7854   3.496   9.126   2.084 -0.1002 -0.0736 -0.1626
 3791W        W 7855   3.393   6.114  11.103  0.2164 -0.2875 -0.2358
 3792W        W 7856   3.820   4.735   1.578 -0.0684  0.0901  0.1263
 3793W        W 7857   2.530   2.705  10.904 -0.4023  0.0387 -0.3684
 3794W        W 7858   1.250   9.813   9.009 -0.2139 -0.1027  0.0641
 3795W        W 7859   4.445   5.193  10.295  0.0910  0.1194  0.2829
 3796W        W 7860   8.588   6.854   9.688  0.2206 -0.1059 -0.3198
 3797W        W 7861   6.324   8.186  10.596  0.0113 -0.0864  0.2394
 3798W        W 7862   9.065   5.863  10.100  0.1919  0.0039  0.0531
 3799W        W 7863   3.427   1.407  11.137  0.0152  0.0041  0.0007
 3800W        W 7864   4.730  10.556   8.933  0.2884  0.4261 -0.0693
 3801W        W 7865   8.551   4.165  10.828 -0.1605 -0.1798 -0.1730
 3802W        W 7866   0.620   6.970   1.519 -0.0842 -0.2073 -0.0364
 3803W        W 7867   9.210   5.628   2.587  0.0781 -0.0571 -0.3968
 3804W        W 7868   7.891   0.002  11.403  0.1071  0.1695  0.0941
 3805W        W 7869   2.281   4.906   8.159 -0.3302  0.0862  0.0379
 3806W        W 7870  10.228   0.738  10.542 -0.0658  0.2710  0.2015
 3807W        W 7871   1.022   0.099  10.231  0.0203  0.0289 -0.0442
 3808W        W 7872   3.901   7.733   9.166 -0.0141  0.2543 -0.1200
 3809W        W 7873   2.364   2.061   7.814 -0.3699  0.4683  0.1233
 3810W        W 7874   3.334   4.270   8.873 -0.4205 -0.1966 -0.3318
 3811W        W 7875   1.763   3.818   7.502 -0.1687 -0.0306  0.0857
 3812W        W 7876   2.298   8.537   9.424  0.2371  0.2633 -0.0581
 3813W        W 7877   4.918   8.270   3.956 -0.1570  0.0058 -0.4757
 3814W        W 7878   9.454   7.177   3.985  0.0532 -0.0968 -0.0618
 3815W        W 7879   1.397   8.061   9.089  0.2226 -0.0173 -0.0339
 3816W        W 7880  10.567   7.425   0.242 -0.0574  0.3102  0.1455
 3817W        W 7881   1.242   3.451   9.792  0.1400 -0.2621  0.0011
 3818W        W 7882   9.885   9.358   9.406 -0.1365 -0.3038  0.0255
 3819W        W 7883   9.768   3.395  11.219 -0.4827  0.3117  0.1085
 3820W        W 7884   4.481   3.583   9.359 -0.2168  0.0867  0.0319
 3821W        W 7885   5.625   2.312   1.146  0.0137 -0.0259  0.2825
 3822W        W 7886   1.255   4.579   2.044 -0.2531  0.4481  0.0910
 3823W        W 7887   9.747   4.813  11.399 -0.0023 -0.0163  0.1773
 3824W        W 7888   1.151   1.654   0.085  0.0047 -0.1643  0.0385
 3825W        W 7889   1.102   6.672  10.394 -0.0974  0.2479  0.2618
 3826W        W 7890   1.137   9.701   1.821 -0.1968  0.0241 -0.0969
 3827W        W 7891   6.932   9.284   2.502 -0.1181  0.0232  0.2904
 3828W        W 7892   3.154   9.042   1.211  0.1994  0.1165 -0.2252
 3829W        W 7893   4.012   3.625   3.434 -0.1503  0.0141 -0.2930
 3830W        W 7894   4.800   8.882   1.401  0.0370  0.1187 -0.1365
 3831W        W 7895   0.117   5.961   3.472 -0.5343 -0.1340 -0.2227
 3832W        W 7896   7.677   9.145   8.180  0.0618 -0.2961  0.0516
 3833W        W 7897   3.254   4.812   2.594 -0.0803 -0.0849 -0.2849
 3834W        W 7898   1.992   2.089  11.453  0.0249  0.1750 -0.0255
 3835W        W 7899   9.935   4.393  11.216 -0.0639 -0.1969 -0.1469
 3836W        W 7900   6.183   9.014   3.259  0.0257  0.0684  0.2721
 3837W        W 7901  10.500   6.916  10.953 -0.2665 -0.0200  0.0472
 3838W        W 7902   9.501   3.900   2.941 -0.0240 -0.3675  0.0582
 3839W        W 7903  10.014   2.984   3.417  0.1054  0.1640  0.2047
 3840W        W 7904   0.888  10.225   9.351 -0.0917  0.2633 -0.4739
 3841W        W 7905   3.498   1.595   8.409  0.1722 -0.2585  0.0714
 3842W        W 7906   0.018   6.101   2.025 -0.0295  0.0131  0.2446
 3843W        W 7907   9.382   1.951   9.270  0.2194 -0.1004  0.0537
 3844W        W 7908  10.081   6.574   3.264 -0.0823 -0.0366  0.1484
 3845W        W 7909   1.453   7.110   8.152  0.0494 -0.0017  0.1555
 3846W        W 7910   5.874   2.995   9.385  0.2430 -0.1528 -0.2177
 3847W        W 7911   4.073   0.847   4.015 -0.2178  0.3052 -0.3665
 3848W        W 7912   4.650   8.886   0.472 -0.0299 -0.0008 -0.3169
 3849W        W 7913   2.723   8.537   0.393  0.2703  0.0743 -0.1077
 3850W        W 7914   5.483   1.946   0.185 -0.1478 -0.1766  0.2217
 3851W        W 7915   2.817   9.938  10.954 -0.2883 -0.1515  0.1151
 3852W        W 7916   6.020   5.101   4.194 -0.1101  0.2662 -0.2473
 3853W        W 7917   5.697   9.099  11.217  0.0416  0.5022  0.1203
 3854W        W 7918   5.597   8.921  10.384  0.1027 -0.0743 -0.1546
 3855W        W 7919   7.503   4.468   4.148  0.0392  0.2188 -0.2414
 3856W        W 7920   3.965   9.203   2.306  0.0228  0.3556  0.0538
 3857W        W 7921   1.920   8.441  10.757 -0.4218 -0.0407  0.3550
 3858W        W 7922   2.163  10.330   9.119 -0.2130 -0.3268  0.2395
 3859W        W 7923   2.775   8.384  10.346 -0.1203 -0.2404 -0.2429
 3860W        W 7924   7.018   7.757   0.075 -0.2118 -0.4540 -0.4195
 3861W        W 7925   3.206   3.896   3.969 -0.1224 -0.0311 -0.0668
 3862W        W 7926  10.388   1.865  10.791  0.0574  0.2682 -0.0033
 3863W        W 7927   9.047   7.541   1.596  0.1507 -0.3590  0.0233
 3864W        W 7928   0.452   9.579   0.290  0.0804 -0.3728 -0.1126
 3865W        W 7929   9.449   9.144   9.656  0.1573  0.3700  0.2442
 3866W        W 7930   7.008   2.589   8.583 -0.4026 -0.3758  0.4660
 3867W        W 7931   0.772   0.591  11.170 -0.1935 -0.1902 -0.2736
 3868W        W 7932  10.303   6.576   2.757  0.0974 -0.0315  0.2031
 3869W        W 7933   2.190   4.013   8.135 -0.1618  0.0575  0.1204
 3870W        W 7934   5.570   1.488   7.862 -0.1216  0.1582  0.1523
 3871W        W 7935   7.386   4.262   3.661  0.2364 -0.2480  0.1384
 3872W        W 7936   1.648   4.762   3.076  0.0142  0.0862 -0.2258
 3873W        W 7937   8.088   3.860   3.885 -0.0379  0.0672 -0.0117
 3874W        W 7938   0.621   0.739   1.057 -0.2493  0.1177 -0.1559
 3875W        W 7939   3.000   8.952   9.087  0.2190  0.0284  0.0256
 3876W        W 7940   6.128   9.052   1.471 -0.1290  0.2151  0.0303
 3877W        W 7941   3.219   5.016   8.347 -0.0582  0.1178 -0.2072
 3878W        W 7942   8.530   1.713   9.780  0.1217 -0.0029  0.1064
 3879W        W 7943   8.744   1.558   2.290  0.0900 -0.0571 -0.2098
 3880W        W 7944   3.102   1.735   8.126  0.0772 -0.1749 -0.0967
 3881W        W 7945   6.516   1.882  10.599 -0.1627  0.2426 -0.1745
 3882W        W 7946   8.607   6.621   3.591 -0.1674  0.0439  0.0069
 3883W        W 7947   3.902   8.253   9.703  0.3301 -0.3391  0.0585
 3884W        W 7948   8.112   9.701  11.492 -0.0140 -0.4325 -0.1469
 3885W        W 7949   8.735   0.469   3.459  0.0800  0.3183  0.0906
 3886W        W 7950  10.091   3.354   9.289 -0.0494 -0.0569  0.2427
 3887W        W 7951   1.666  10.036  11.230 -0.1467  0.3179  0.0708
 3888W        W 7952   6.809   1.267   0.995 -0.1391 -0.3369 -0.1589
 3889W        W 7953   0.236   9.681   8.055  0.0168  0.0422 -0.0106
 3890W        W 7954   2.256   3.710   9.456 -0.3813 -0.3734  0.3515
 3891W        W 7955   7.125   0.962   3.017  0.2002 -0.0070  0.2188
 3892W        W 7956   5.243   3.029  11.488 -0.1347  0.1050 -0.0956
 3893W        W 7957   3.169  10.490  10.545  0.0750 -0.3809 -0.2027
 3894W        W 7958   4.188   4.436   2.985 -0.0216 -0.0286 -0.0384
 3895W        W 7959   1.117   0.481   2.129  0.0134  0.1128 -0.1560
 3896W        W 7960  10.283   8.668   0.555 -0.0187 -0.0603 -0.6272
 3897W        W 7961   7.577   4.051  11.227  0.1708 -0.6305  0.2907
 3898W        W 7962   1.460   3.150   4.562 -0.2357 -0.2219  0.3418
 3899W        W 7963   0.465   2.969  10.925 -0.1433  0.2402 -0.0249
 3900W        W 7964   4.536   5.130   8.776 -0.5796  0.1792  0.0244
 3901W        W 7965   2.354   5.681   3.511 -0.0707 -0.0565  0.0281
 3902W        W 7966   3.644   2.719   9.056  0.0001  0.3457  0.1961
 3903W        W 7967   6.414   4.835   0.566 -0.3501 -0.2789  0.0017
 3904W        W 7968   8.844   8.594   7.865  0.1299 -0.1455 -0.1310
 3905W        W 7969   6.383   3.063   1.199  0.0719 -0.2402  0.2918
 3906W        W 7970   2.553   6.883   8.679  0.1612  0.2763 -0.2978
 3907W        W 7971   3.610   0.712  10.586  0.0797  0.1330  0.1132
 3908W        W 7972   2.229   4.935   8.704  0.1339 -0.1519  0.0081
 3909W        W 7973   7.219   2.958  10.451  0.1873 -0.2287  0.2592
 3910W        W 7974   4.971   6.539   0.509 -0.1973 -0.3340  0.1269
 3911W        W 7975   7.201  10.056   9.716  0.2487  0.0106 -0.3866
 3912W        W 7976   2.309   5.832   1.645 -0.2122  0.4927 -0.2015
 3913W        W 7977   7.239   2.280   2.499  0.0530  0.1355 -0.2135
 3914W        W 7978   9.308   0.814   8.545  0.2289  0.0365  0.1596
 3915W        W 7979   7.885   4.128   3.507 -0.0851 -0.2283  0.0896
 3916W        W 7980   8.905   6.247   1.314  0.1627 -0.0458 -0.2337
 3917W        W 7981   6.858   9.783   2.547 -0.1626  0.1087  0.1945
 3918W        W 7982   1.103   9.719  10.264 -0.1417  0.0765  0.0523
 3919W        W 7983   2.601   9.139   2.730 -0.1221  0.3195  0.0269
 3920W        W 7984   4.873   8.599   8.943 -0.1913  0.0397 -0.1075
 3921W        W 7985   2.858   3.952   8.783  0.1024 -0.1348  0.0059
 3922W        W 7986   0.902   3.925   9.763 -0.1497 -0.0016 -0.0198
 3923W        W 7987   8.738   8.012   9.605  0.2399 -0.0770 -0.2433
 3924W        W 7988   8.108   4.703   1.601  0.0514 -0.0203  0.2033
 3925W        W 7989   2.719   8.492   1.930 -0.2391  0.0167 -0.2684
 3926W        W 7990   5.651   6.417   7.614  0.2655  0.2149  0.2942
 3927W        W 7991   1.949   4.109   9.760  0.1635  0.0300 -0.0893
 3928W        W 7992  10.123   4.983   3.539  0.0088 -0.3844 -0.0370
 3929W        W 7993  10.497   5.848   9.222  0.0604  0.0451  0.2807
 3930W        W 7994   2.004  10.359   9.600 -0.0841 -0.0147 -0.0725
 3931W        W 7995   1.913   4.562  10.702 -0.3052 -0.0401 -0.0979
 3932W        W 7996   4.134   6.046   0.107  0.2180 -0.2989 -0.0006
 3933W        W 7997   6.865   2.912   3.647  0.1708  0.4365  0.1487
 3934W        W 7998   3.665   7.468  11.056  0.0115 -0.4356  0.4021
 3935W        W 7999   0.665   9.604  11.416 -0.1090 -0.2097  0.1018
 3936W        W 8000   9.339   7.508   2.027 -0.0193 -0.1138 -0.0131
 3937W        W 8001   5.067   3.470   9.973  0.2950 -0.2929 -0.0537
 3938W        W 8002   5.755   8.524   9.993 -0.0806 -0.2010  0.2317
 3939W        W 8003   2.541   8.872   9.099  0.2760 -0.0342 -0.0927
 3940W        W 8004   5.301   3.275   2.833  0.1768  0.3283 -0.0079
 3941W        W 8005   2.500   6.905   9.805  0.1040 -0.1156  0.1544
 3942W        W 8006   2.233   2.633   3.526 -0.0467 -0.2610 -0.2320
 3943W        W 8007   8.500   3.805  11.195  0.0029  0.3417  0.0772
 3944W        W 8008   0.272   8.378   1.882 -0.1719 -0.2472  0.0843
 3945W        W 8009   2.564   0.937  11.000  0.0068  0.3295  0.2019
 3946W        W 8010   8.402   3.754  10.142  0.2152  0.0941  0.1098
 3947W        W 8011   6.549   2.079   3.034  0.3647 -0.1233  0.1928
 3948W        W 8012   3.414   5.793   4.161 -0.0048  0.1705  0.1011
 3949W        W 8013   7.076   6.964   0.005 -0.0612 -0.0475 -0.1427
 3950W        W 8014   8.360   7.859   2.196 -0.0844 -0.2281 -0.0532
 3951W        W 8015   6.204   8.550  10.904  0.0733 -0.1214 -0.1508
 3952W        W 8016  10.125   0.775   9.354 -0.3389  0.2790 -0.1996
 3953W        W 8017   7.087   8.503  11.051 -0.0727  0.0187 -0.0572
 3954W        W 8018   5.374  10.026   2.750 -0.4338  0.2756  0.0062
 3955W        W 8019   0.285   3.979   3.593 -0.1635  0.2753 -0.0868
 3956W        W 8020   4.898   9.936   2.569  0.1161 -0.1605  0.1392
 3957W        W 8021   5.683   9.143   1.825 -0.0221 -0.0612  0.2271
 3958W        W 8022   8.983   1.356   3.394 -0.4364  0.0150 -0.3122
 3959W        W 8023  10.150   2.457   3.320 -0.2020 -0.1419 -0.0049
 3960W        W 8024   8.047   3.825   9.815  0.4375  0.0441  0.3725
 3961W        W 8025   5.282   1.294  10.028  0.1192 -0.0204  0.1591
 3962W        W 8026   1.366   0.222   2.587  0.0694 -0.3029  0.3027
 3963W        W 8027   0.282   5.948   9.029 -0.0664 -0.0726 -0.1060
 3964W        W 8028   6.410   2.960   3.344 -0.0693  0.0926 -0.0066
 3965W        W 8029   6.513   1.677   8.867  0.1418 -0.0685 -0.2691
 3966W        W 8030   0.053   9.258   8.915 -0.4673 -0.0707  0.0031
 3967W        W 8031   2.958   3.507   2.686 -0.2646  0.1288 -0.0204
 3968W        W 8032   2.405   0.993   9.046 -0.2214  0.0121 -0.2497
 3969W        W 8033   0.987   2.421   0.790 -0.1503  0.0314 -0.3332
 3970W        W 8034   2.615   6.111   2.803 -0.1659 -0.4139 -0.1012
 3971W        W 8035   6.900   5.229  10.992 -0.5162 -0.0411  0.1006
 3972W        W 8036   5.975   0.107   1.681 -0.0242 -0.1104  0.4248
 3973W        W 8037   3.231   2.952   0.713  0.2820 -0.1198  0.2444
 3974W        W 8038  10.393   9.779   7.980  0.2582  0.0543  0.0295
 3975W        W 8039   5.711   1.964   2.708  0.0964  0.3286 -0.0511
 3976W        W 8040   6.960   0.728   4.606  0.1707 -0.1251 -0.2143
 3977W        W 8041   6.444   5.866   2.966  0.2944  0.0478 -0.0650
 3978W        W 8042   3.429   9.812  10.176  0.1680  0.0483  0.2779
 3979W        W 8043   6.641   8.928   8.057  0.0335  0.0720  0.0644
 3980W        W 8044   4.070   8.520   1.527 -0.0413  0.2766 -0.1408
 3981W        W 8045   3.565   0.693  10.086  0.0538 -0.3759  0.5455
 3982W        W 8046   4.509   0.034  11.239 -0.3200  0.0582  0.1825
 3983W        W 8047   4.922   5.071  11.479 -0.1486  0.2035 -0.0366
 3984W        W 8048   7.187   2.608   9.885  0.2436  0.0842  0.0164
 3985W        W 8049   6.815   4.031   0.095 -0.1050  0.0301 -0.0260
 3986W        W 8050   2.602   8.834   2.290 -0.1498 -0.0590  0.0234
 3987W        W 8051   4.550   1.139   1.656 -0.0553 -0.0154  0.1323
 3988W        W 8052   4.102   9.204   1.819  0.0534 -0.1559 -0.4139
 3989W        W 8053   6.378   5.591  10.933 -0.1454  0.0319  0.0909
 3990W        W 8054   6.746  10.560  11.317 -0.0039 -0.0760  0.0547
 3991W        W 8055   8.649   9.904   0.872 -0.1417 -0.1849 -0.0147
 3992W        W 8056   1.864   1.708   3.166  0.2482 -0.2202 -0.1348
 3993W        W 8057   6.797   4.991   9.615  0.0219 -0.0531  0.0036
 3994W        W 8058   9.969   3.409   0.670  0.1684  0.0403 -0.0865
 3995W        W 8059   9.932   6.003   0.827 -0.0756 -0.2211 -0.1688
 3996W        W 8060   3.132   5.423   1.086 -0.2564  0.0049 -0.0924
 3997W        W 8061   6.023   1.059   9.579 -0.0607 -0.2753 -0.0984
 3998W        W 8062   1.684   0.564   2.354 -0.0669 -0.0673  0.2690
 3999W        W 8063   5.278   2.632   1.294 -0.1137 -0.4422 -0.1036
 4000W        W 8064   6.291   2.655   2.365  0.3253  0.1469 -0.1267
 4001W        W 8065   1.339   5.718   0.378 -0.2803  0.0167 -0.2840
 4002W        W 8066   0.246   0.706   9.199 -0.0857 -0.1058  0.1128
 4003W        W 8067   3.375   3.456   7.526 -0.0635  0.0357  0.3166
 4004W        W 8068   8.900   6.745   9.332  0.0378 -0.2260  0.1574
 4005W        W 8069   0.788   9.714   9.342 -0.5034 -0.2168  0.0497
 4006W        W 8070  10.082   2.276   5.166 -0.1795 -0.1977 -0.1456
 4007W        W 8071   7.302   5.009  10.774  0.4295  0.0094 -0.1288
 4008W        W 8072   7.088   4.312   1.776  0.1343  0.5494  0.3864
 4009W        W 8073   2.695   7.234   1.268 -0.1616  0.0935  0.0971
 4010W        W 8074   8.440   3.126   9.864 -0.2218  0.1984 -0.0656
 4011W        W 8075   6.340  10.186  11.547 -0.1637  0.0549 -0.0086
 4012W        W 8076   3.424   8.730   7.592  0.2611  0.2209  0.0033
 4013W        W 8077   7.473   3.938   8.912 -0.2645 -0.1150  0.0033
 4014W        W 8078   5.480   3.082  10.688  0.0202  0.1432 -0.0688
 4015W        W 8079   6.576   2.408   3.418  0.0263  0.1536 -0.0810
 4016W        W 8080   4.368   7.095   9.806  0.0659  0.0993 -0.0704
 4017W        W 8081   4.742   3.868   0.528  0.0233  0.0475  0.1094
 4018W        W 8082   6.413   1.009   0.799 -0.0933  0.0477 -0.0600
 4019W        W 8083   0.146   9.889   3.068  0.1217 -0.3650 -0.0978
 4020W        W 8084   4.911   6.823  10.677  0.0661 -0.0196 -0.2410
 4021W        W 8085   8.569   7.095   0.661 -0.1328 -0.0880 -0.2231
 4022W        W 8086   8.074   0.593   9.288  0.0892 -0.5397  0.2929
 4023W        W 8087   6.971   3.638   9.959 -0.1938 -0.1822 -0.0622
 4024W        W 8088  10.025   5.656   1.631 -0.2744  0.0855  0.3667
 4025W        W 8089   4.081   9.941  10.745 -0.1519 -0.0119 -0.2727
 4026W        W 8090   5.684   5.647   1.859 -0.0138  0.0751  0.1084
 4027W        W 8091   2.871   0.458   9.644  0.1449 -0.0602  0.0469
 4028W        W 8092   9.170   9.538   8.667 -0.1756  0.0030 -0.0254
 4029W        W 8093   6.335   6.198  10.143  0.1376  0.3613  0.0423
 4030W        W 8094   7.568   5.841  11.291  0.0041  0.0518 -0.2399
 4031W        W 8095   8.554   3.674   4.402 -0.3219  0.1323 -0.2632
 4032W        W 8096   5.613   7.441   1.760 -0.2315 -0.1026 -0.3896
 4033W        W 8097   8.725   8.197   2.275  0.1133 -0.1215  0.0843
 4034W        W 8098   4.798   2.361   0.425 -0.0020  0.0727 -0.0643
 4035W        W 8099   4.143   1.867   0.972 -0.1040 -0.0043 -0.4402
 4036W        W 8100  10.161   2.717   0.436  0.4698  0.1377 -0.0193
 4037W        W 8101   7.250   5.441   2.813  0.1674 -0.0946 -0.0613
 4038W        W 8102   1.101   0.738   0.840  0.0515 -0.1123 -0.2579
 4039W        W 8103  10.365   1.950   9.383  0.0365 -0.0854  0.0821
 4040W        W 8104   0.845   3.879   0.449 -0.0514  0.1803  0.0246
 4041W        W 8105   0.799   1.609   2.109 -0.0275  0.1076  0.1045
 4042W        W 8106   1.916   3.942   3.502  0.0112 -0.1036  0.2797
 4043W        W 8107   8.728   0.394   2.925 -0.3479  0.0655 -0.0306
 4044W        W 8108   7.675   2.726   1.233 -0.2156  0.1605  0.1855
 4045W        W 8109   7.247   6.217   4.170 -0.1676  0.0718  0.0586
 4046W        W 8110   1.175   4.413  10.235 -0.2706 -0.2776 -0.0950
 4047W        W 8111   1.845   3.489   2.008 -0.0843 -0.3018  0.1978
 4048W        W 8112   6.493   3.787  11.240 -0.0013 -0.2631 -0.0898
 4049W        W 8113   6.629   7.722   9.612  0.0022  0.0998 -0.2602
 4050W        W 8114   8.447  10.053  11.531  0.0332  0.1087 -0.0609
 4051W        W 8115   3.350   2.600  11.439  0.2681 -0.0621 -0.0384
 4052W        W 8116   8.873   1.360  10.173  0.1821  0.1585 -0.0754
 4053W        W 8117   9.550   8.643   9.723 -0.0272  0.3215 -0.1865
 4054W        W 8118   1.409   0.815   8.788 -0.1887  0.1869 -0.0996
 4055W        W 8119   4.599   8.864   9.338  0.0315 -0.1176 -0.0680
 4056W        W 8120   4.574   5.412   0.916  0.4200  0.0148 -0.1112
 4057W        W 8121   2.472   2.938   7.978  0.1329 -0.1094 -0.1859
 4058W        W 8122   4.534   3.580   2.759  0.2561  0.3949  0.0976
 4059W        W 8123   5.259   6.559  10.393  0.0191  0.2115 -0.1763
 4060W        W 8124   5.395   3.643  10.778  0.1526 -0.1436  0.0594
 4061W        W 8125   8.761   3.046   0.239 -0.5608  0.1162  0.0737
 4062W        W 8126   6.302   5.136   8.050  0.0223 -0.2197 -0.0161
 4063W        W 8127   1.333   9.868   2.313  0.0716 -0.0589 -0.1787
 4064W        W 8128   0.668   1.394   8.925  0.1360 -0.1888  0.0530
 4065W        W 8129   1.165   1.030   0.447 -0.2193  0.1788  0.1538
 4066W        W 8130   9.049  10.266  10.466  0.1298  0.0995  0.0760
 4067W        W 8131  10.262   0.890   0.443 -0.0713  0.1086  0.0951
 4068W        W 8132   9.595   5.094   9.716  0.1523 -0.1480 -0.0725
 4069W        W 8133   0.685   0.645   3.222 -0.3396  0.0164  0.1060
 4070W        W 8134   0.462   1.875  10.573  0.1002 -0.0312  0.0067
 4071W        W 8135   9.296   2.432   0.390  0.2504  0.0461 -0.0352
 4072W        W 8136   9.467   5.899  11.248  0.0639 -0.0908 -0.0055
 4073W        W 8137   2.605   2.344   9.899 -0.0219  0.1073  0.3497
 4074W        W 8138   7.050   7.407  10.806 -0.0600 -0.1045  0.1020
 4075W        W 8139   6.634   9.668   1.233  0.1141 -0.0318  0.2407
 4076W        W 8140   6.715   0.372   8.947  0.0232  0.0378 -0.1005
 4077W        W 8141   7.695   5.104   8.464  0.0716  0.5374 -0.0245
 4078W        W 8142   5.846   5.019   9.895  0.1724 -0.0302 -0.3721
 4079W        W 8143   0.812   9.617   0.708  0.2193  0.3221  0.0325
 4080W        W 8144   1.103   4.417   8.993  0.2182  0.0041 -0.0156
 4081W        W 8145   8.101   3.815   2.935 -0.0475 -0.2608  0.0302
 4082W        W 8146   2.005   0.816   2.937  0.0134  0.1243  0.0747
 4083W        W 8147   0.131   6.625   2.815  0.0948 -0.3189  0.1151
 4084W        W 8148   6.030   5.457   7.663 -0.3705  0.1503 -0.2850
 4085W        W 8149   0.859   3.984   1.618  0.0938 -0.0324  0.1769
 4086W        W 8150   2.598   3.932   2.026 -0.1426  0.4028 -0.0036
 4087W        W 8151   1.258   4.433   0.805  0.5246 -0.0273 -0.1262
 4088W        W 8152   5.281   1.250   2.027  0.5605 -0.0922  0.1869
 4089W        W 8153   8.332   6.455   2.835  0.2920  0.0795 -0.0366
 4090W        W 8154   4.778   0.710  10.529 -0.2181 -0.1429  0.2734
 4091W        W 8155   2.576   4.896   0.558 -0.1461 -0.0071  0.0713
 4092W        W 8156   0.756   4.428   0.404 -0.0458  0.0262  0.1007
 4093W        W 8157  10.457  10.396   3.169  0.0929 -0.1054  0.1394
 4094W        W 8158   0.625   8.553   0.687  0.1436  0.1325 -0.1678
 4095W        W 8159   3.461   6.808   0.956 -0.1420  0.1585 -0.1788
 4096W        W 8160   6.965   4.586   8.810  0.2623 -0.3055  0.1023
 4097W        W 8161   4.303   7.686   3.406  0.0689  0.5845  0.1242
 4098W        W 8162   4.212   5.862   1.595 -0.3101  0.1240 -0.3191
 4099W        W 8163   4.533   0.946   0.079  0.1219 -0.2000  0.0851
 4100W        W 8164   6.127   0.320   2.580  0.1096 -0.0383 -0.0377
 4101W        W 8165   2.135   9.608   1.647 -0.1009 -0.2215  0.0506
 4102W        W 8166   3.775  10.436   9.766  0.0480  0.0385  0.1406
 4103W        W 8167   6.246   4.098   4.424  0.0584  0.1363  0.0249
 4104W        W 8168   1.217   5.517   1.611  0.2344 -0.4062 -0.1452
 4105W        W 8169   2.973  10.520   0.261 -0.1200  0.2085  0.1107
 4106W        W 8170   1.324   2.349   1.795 -0.2964 -0.0849  0.0603
 4107W        W 8171   5.158   1.881   1.858 -0.1197 -0.1008 -0.0675
 4108W        W 8172   3.107   8.233   1.723  0.2406  0.2705  0.0708
 4109W        W 8173   3.500   8.634   9.163  0.1167 -0.0332  0.1184
 4110W        W 8174   6.983   2.489   2.888 -0.4165  0.0634  0.0048
 4111W        W 8175   6.010   1.585   1.551 -0.1570  0.1639 -0.1677
 4112W        W 8176   6.813   1.080   2.510 -0.0882 -0.0452  0.0274
 4113W        W 8177   9.171   3.119   0.010 -0.1725 -0.2539  0.1193
 4114W        W 8178   2.754   4.098   0.631  0.2150  0.1751  0.1288
 4115W        W 8179   1.522   8.584   3.293 -0.1524  0.0957 -0.0094
 4116W        W 8180   7.047   4.258   3.260  0.0677  0.1255  0.0998
 4117W        W 8181   0.312   5.878   3.037  0.2107 -0.0969 -0.0554
 4118W        W 8182   7.732   2.589   9.944 -0.0933  0.0820 -0.3290
 4119W        W 8183   0.611   3.077   9.182  0.0983 -0.0120 -0.1030
 4120W        W 8184   8.365   2.743   1.848  0.1822  0.2376 -0.0105
 4121W        W 8185   4.959   8.576  10.641  0.1223  0.4094 -0.0679
 4122W        W 8186   0.319   2.722   1.984  0.0531  0.1979  0.3750
 4123W        W 8187   2.646   6.654  11.089  0.3494 -0.1171  0.6889
 4124W        W 8188   4.418  10.176   9.046 -0.2893 -0.0834  0.1130
 4125W        W 8189   7.399   7.191   9.054  0.2869 -0.0424  0.3837
 4126W        W 8190   9.222  10.506   9.500 -0.0049  0.2868  0.0282
 4127W        W 8191   4.104   8.091  10.563  0.1657 -0.2095 -0.0106
 4128W        W 8192  10.400   5.445  10.501  0.0074  0.1159 -0.0295
 4129W        W 8193   1.803   5.173   7.452  0.1613 -0.2318 -0.2613
 4130W        W 8194   0.741   3.100  11.342 -0.2966  0.0686 -0.1322
 4131W        W 8195   4.585   7.079   2.444  0.2314 -0.5187  0.1237
 4132W        W 8196   4.980   7.141   3.639 -0.0945 -0.2526 -0.1380
 4133W        W 8197   2.484   1.154   0.459 -0.0284  0.2200 -0.2054
 4134W        W 8198   4.993   6.808   1.583  0.5032  0.1654  0.0481
 4135W        W 8199   7.787   5.260   0.368 -0.1507  0.2923  0.1522
 4136W        W 8200   0.378   3.805  11.313  0.0981 -0.0848 -0.0272
 4137W        W 8201   4.568   5.840   2.928 -0.2349  0.2057  0.0191
 4138W        W 8202   9.275   7.909   3.024 -0.1776 -0.0321  0.2582
 4139W        W 8203   1.861   2.079   8.060 -0.3267 -0.0320 -0.1250
 4140W        W 8204   3.659   5.202   8.174 -0.0825 -0.0372 -0.0497
 4141W        W 8205   2.854   1.596  10.557 -0.1256 -0.3297  0.1639
 4142W        W 8206   1.373   2.742   0.822 -0.3020 -0.0035 -0.0631
 4143W        W 8207   2.130   2.922   7.006 -0.1194 -0.0431  0.2754
 4144W        W 8208   0.146   0.106   9.276 -0.2718  0.0062  0.0583
 4145W        W 8209   8.986   7.307   8.001 -0.1027  0.1089  0.0311
 4146W        W 8210   2.957   3.498   8.413  0.0736 -0.0167 -0.3122
 4147W        W 8211   4.368   4.214   0.159 -0.1166 -0.2950  0.1645
 4148W        W 8212   4.112   3.465   8.022  0.0392  0.1201  0.1600
 4149W        W 8213   0.046   1.598   3.133  0.1553  0.0769  0.0890
 4150W        W 8214   5.211   1.169   9.078  0.1128  0.1700  0.0167
 4151W        W 8215   8.194   3.436   4.145 -0.0336  0.0472  0.2516
 4152W        W 8216  10.406   5.432   1.749 -0.1492 -0.0138 -0.1566
 4153W        W 8217   6.009   5.163   0.615 -0.2489  0.4663  0.0044
 4154W        W 8218   4.668   9.857   9.389 -0.1317 -0.1072 -0.1547
 4155W        W 8219   7.547   6.097   3.426  0.0876 -0.1460 -0.1270
 4156W        W 8220   4.017   9.898   9.343  0.1946 -0.0491  0.2926
 4157W        W 8221   2.572   0.187   0.471  0.0634  0.1401 -0.0782
 4158W        W 8222   8.352   1.311   3.647  0.2928  0.1482  0.2368
 4159W        W 8223   7.538   9.076   2.655  0.1231 -0.1566 -0.1339
 4160W        W 8224   7.092   1.415   4.043  0.3693 -0.3851  0.1335
 4161W        W 8225   5.047   3.761   1.399 -0.0545  0.3122 -0.1303
 4162W        W 8226   3.053   9.815   8.851  0.1721  0.3570  0.1372
 4163W        W 8227   3.298   2.945   2.942  0.0982 -0.2399 -0.1971
 4164W        W 8228   5.102   6.639   1.090  0.1715  0.3118 -0.0961
 4165W        W 8229   3.654   7.134   3.836 -0.3455 -0.3699 -0.0500
 4166W        W 8230   8.843   0.446  11.219 -0.0556  0.3209 -0.2928
 4167W        W 8231   7.140   6.475  11.206 -0.0193  0.4070  0.1784
 4168W        W 8232   5.670   0.621   0.151  0.1793 -0.1050 -0.1423
 4169W        W 8233   1.790   2.780   1.089  0.2009  0.2085 -0.3341
 4170W        W 8234   3.173   2.910   9.741 -0.0636  0.2003  0.3699
 4171W        W 8235   9.512   0.164   3.875  0.1634 -0.2431  0.0998
 4172W        W 8236   3.505   7.961   2.629  0.1247 -0.1430 -0.1245
 4173W        W 8237   3.206   8.578  10.558 -0.0332 -0.0048 -0.0556
 4174W        W 8238   4.409  10.184  11.324 -0.4197  0.1410  0.0768
 4175W        W 8239   7.982   4.240   8.221  0.2917  0.0476 -0.1603
 4176W        W 8240   9.685   7.142  10.912  0.0898  0.2072  0.0928
 4177W        W 8241   4.119   9.941   3.609 -0.2774 -0.1449 -0.3188
 4178W        W 8242   8.701   8.756   9.071  0.1525  0.1726  0.1093
 4179W        W 8243   8.917   8.560   0.787 -0.2212  0.2263  0.2187
 4180W        W 8244   4.494   3.044  11.171  0.1373 -0.2102 -0.1839
 4181W        W 8245   4.334  10.132   0.230  0.3862  0.0053 -0.0224
 4182W        W 8246   2.011   7.626  10.240 -0.3231  0.1989 -0.2392
 4183W        W 8247   2.280   1.338   9.425 -0.0784  0.0184  0.0737
 4184W        W 8248   7.186   6.696   0.381  0.2283  0.0665 -0.2273
 4185W        W 8249   3.789   5.120   1.114  0.0959 -0.3049 -0.1830
 4186W        W 8250   2.185   5.636   2.098 -0.1834 -0.3152  0.2141
 4187W        W 8251   5.084   7.382   0.652  0.1929  0.0461  0.0103
 4188W        W 8252   4.767   9.677   8.356 -0.0297 -0.0185  0.1421
 4189W        W 8253   8.712   2.231   3.670  0.1814 -0.0647 -0.1670
 4190W        W 8254   8.107   6.199   9.062 -0.4512  0.2275 -0.1714
 4191W        W 8255   9.239   7.476   2.697 -0.4384  0.5127 -0.0234
 4192W        W 8256   4.338   0.180   2.566  0.0018  0.0037  0.3854
 4193W        W 8257   6.645   9.384   8.264 -0.0301 -0.2461  0.1099
 4194W        W 8258   2.754   9.467   3.356  0.1946  0.3523  0.1814
 4195W        W 8259   5.980   2.491   1.965 -0.1721  0.2147 -0.0112
 4196W        W 8260   6.188   2.678   1.513  0.1033  0.0412 -0.0147
 4197W        W 8261   3.839   8.325   2.693 -0.0842 -0.0360 -0.0795
 4198W        W 8262   3.100   1.852   0.853  0.0501  0.1735 -0.2170
 4199W        W 8263   2.860  10.300  10.138  0.0876  0.2338 -0.3862
 4200W        W 8264   8.200   4.700  11.259  0.0736  0.2787 -0.0900
 4201W        W 8265   3.931   2.135   9.854  0.1649  0.2620 -0.1738
 4202W        W 8266   9.708   3.367   8.531  0.0562 -0.0394  0.0274
 4203W        W 8267   6.130   9.687   3.943 -0.0651 -0.1862  0.2102
 4204W        W 8268   2.355   7.546   1.426 -0.0890  0.1098  0.2016
 4205W        W 8269   8.264   8.262   9.655  0.0860 -0.2728 -0.0157
 4206W        W 8270   4.474   3.947   3.104  0.1999 -0.1944 -0.1924
 4207W        W 8271   1.007   5.601  11.007 -0.0859 -0.0438  0.0764
 4208W        W 8272   5.871   7.153   2.886 -0.1619  0.1199 -0.0779
 4209W        W 8273   0.446   7.860   9.533 -0.1731 -0.1305  0.0497
 4210W        W 8274   7.900   8.728   2.917 -0.1609  0.3574 -0.1687
 4211W        W 8275   7.526   6.583   3.263  0.0434  0.2976 -0.0256
 4212W        W 8276   4.881   4.623   0.063 -0.0646  0.3425  0.0726
 4213W        W 8277   9.679   5.943  10.738  0.0862 -0.0327  0.0024
 4214W        W 8278   5.039   4.602   3.162 -0.1530 -0.2043 -0.4438
 4215W        W 8279   1.551   1.984   3.768 -0.0246 -0.1206  0.1309
 4216W        W 8280   0.042  10.580  10.317  0.0227  0.2599  0.2581
 4217W        W 8281   2.243   5.448   1.297 -0.1009  0.0723 -0.3229
 4218W        W 8282   3.735   9.879   9.763  0.0793  0.2735  0.0309
 4219W        W 8283   4.787   2.672   2.779  0.0381 -0.2761  0.1551
 4220W        W 8284   1.491   4.689   9.331 -0.0475 -0.1796 -0.1826
 4221W        W 8285   9.298   3.135  11.064 -0.0105 -0.1346 -0.0355
 4222W        W 8286   2.746   7.716  10.937  0.3541  0.0927  0.3416
 4223W        W 8287   8.335   0.984   1.470 -0.2076 -0.0144 -0.0205
 4224W        W 8288   0.277   8.399   1.061  0.2254 -0.1877 -0.1028
 4225W        W 8289   1.993   2.295   8.943  0.2340 -0.1573 -0.1029
 4226W        W 8290   6.469   2.586   8.562  0.2040 -0.0714  0.1692
 4227W        W 8291   1.878   2.192   1.848 -0.0247 -0.1610 -0.3402
 4228W        W 8292   9.738   2.040   2.668 -0.0605  0.0982 -0.2405
 4229W        W 8293   2.178   6.907   2.954 -0.1316 -0.2151 -0.0152
 4230W        W 8294   0.659   2.786   0.740  0.0867  0.0166 -0.0850
 4231W        W 8295   2.414  10.229  10.930 -0.1668 -0.0283 -0.0143
 4232W        W 8296   6.751   3.458   3.817 -0.1374  0.0413 -0.0029
 4233W        W 8297   3.774   3.456  11.323  0.0597 -0.1731  0.1654
 4234W        W 8298   5.710   8.839   1.378  0.2778  0.2189 -0.1315
 4235W        W 8299  10.461   3.776  10.591  0.2107 -0.0134 -0.1213
 4236W        W 8300   1.464   2.171   0.752 -0.1023  0.2121  0.0357
 4237W        W 8301   5.140   4.187   7.202  0.1486 -0.0090 -0.2148
 4238W        W 8302   4.614   3.388  10.692 -0.0134  0.2991  0.0034
 4239W        W 8303   0.640   4.578   0.895  0.2985  0.2319  0.0880
 4240W        W 8304   5.933   0.522   7.897 -0.2277 -0.3611 -0.3653
 4241W        W 8305   1.252   3.730   0.077 -0.2499  0.4549 -0.1146
 4242W        W 8306   0.722   4.913   1.855 -0.0194 -0.1204 -0.0134
 4243W        W 8307   8.858   5.049   1.944 -0.2358  0.0530  0.2765
 4244W        W 8308   7.825   8.396   8.132  0.2500 -0.0648 -0.0925
 4245W        W 8309   2.931   7.977   9.987 -0.0799 -0.0464  0.1144
 4246W        W 8310   1.954   4.058  10.641 -0.2769  0.0780 -0.1941
 4247W        W 8311   9.909   8.348   2.071 -0.1417  0.1105  0.1090
 4248W        W 8312   9.439   3.690  10.892 -0.0294  0.1633 -0.2338
 4249W        W 8313   8.500   9.443  10.041 -0.0317 -0.0168  0.2957
 4250W        W 8314   4.341   5.900   8.239  0.1947 -0.1322 -0.1716
 4251W        W 8315   5.203   7.758   2.031 -0.1475  0.1407 -0.1791
 4252W        W 8316   5.585   4.869   0.805  0.1886  0.0248 -0.2651
 4253W        W 8317   3.593   4.597   1.057  0.0610  0.0675  0.1591
 4254W        W 8318   3.080   6.753   7.479 -0.2204  0.1958  0.1376
 4255W        W 8319   0.463   2.306   8.319 -0.3790  0.2891 -0.0174
 4256W        W 8320   9.230   5.407   1.014  0.3108 -0.0950  0.1152
 4257W        W 8321   0.272   3.520   0.353  0.1303  0.0945  0.1302
 4258W        W 8322   9.552   0.641   3.026 -0.2434  0.2402  0.2562
 4259W        W 8323   3.155   4.569   6.816 -0.0143 -0.4041  0.2570
 4260W        W 8324   3.838  10.572   1.001 -0.0824 -0.0605  0.0221
 4261W        W 8325   4.001   5.737  10.861 -0.0215  0.1378 -0.1638
 4262W        W 8326   1.762   0.369   2.841  0.1723  0.0865  0.0472
 4263W        W 8327   6.459   2.158   1.458  0.0482 -0.3785 -0.1322
 4264W        W 8328   7.778   4.884   1.212  0.0344  0.0899 -0.1537
 4265W        W 8329   8.774   1.288   1.819  0.0220 -0.1503 -0.0717
 4266W        W 8330   2.984   7.972   2.990  0.0621 -0.1315 -0.2016
 4267W        W 8331   7.659   7.389   1.099  0.0122  0.0117 -0.1573
 4268W        W 8332   7.604   1.415   8.629  0.0614 -0.1871 -0.0700
 4269W        W 8333   4.950   2.555   3.504  0.1190 -0.1052  0.3178
 4270W        W 8334   3.797   7.089   0.712 -0.2977 -0.1502 -0.0301
 4271W        W 8335   1.836   4.881   2.656 -0.1297 -0.1179  0.0229
 4272W        W 8336   7.943   6.421  10.743  0.1001  0.4299  0.1080
 4273W        W 8337   0.232   6.374   7.809 -0.2135 -0.3274 -0.1780
 4274W        W 8338   0.822   5.509   1.915  0.0673 -0.1034  0.1762
 4275W        W 8339  10.248   1.693  10.326  0.0631  0.1875  0.1585
 4276W        W 8340   5.292   8.586   1.204  0.3953  0.2104  0.2445
 4277W        W 8341   3.607   8.379  11.084  0.0671  0.1125  0.1352
 4278W        W 8342   3.593   9.373   9.986  0.0852 -0.0064  0.0213
 4279W        W 8343   8.135   9.137   9.886 -0.1596  0.0448 -0.1043
 4280W        W 8344   2.760   5.878   1.793  0.4903  0.0003 -0.0393
 4281W        W 8345   3.160   6.426   0.826 -0.0438 -0.0113 -0.0458
 4282W        W 8346   8.067   4.479   8.894 -0.0417 -0.0968 -0.1154
 4283W        W 8347  10.433   7.619   2.398  0.1565 -0.3813 -0.0240
 4284W        W 8348   0.952   4.511  11.001  0.1448  0.1673 -0.2952
 4285W        W 8349   3.140   9.273  10.352 -0.1109 -0.1470 -0.0829
 4286W        W 8350   3.225   8.206   2.201 -0.0762 -0.0448  0.0086
 4287W        W 8351   0.864   5.161   1.466  0.3588  0.0714  0.4101
 4288W        W 8352   9.860  10.397   8.185 -0.0863 -0.3458 -0.4972
 4289W        W 8353   1.710   9.195   7.979  0.3237  0.1924 -0.0985
 4290W        W 8354   1.086   6.913  11.335  0.0314  0.3155 -0.1051
 4291W        W 8355   8.798   9.455  10.919  0.0835  0.0354 -0.0802
 4292W        W 8356   2.630   5.181  10.115  0.1283 -0.1148  0.0286
 4293W        W 8357   8.753   4.787   7.238 -0.2087 -0.2013  0.1417
 4294W        W 8358   3.126   5.513  10.287  0.0308 -0.2022  0.1476
 4295W        W 8359   9.758   2.124   0.429 -0.0730 -0.3918 -0.0166
 4296W        W 8360   5.171   3.898  10.298  0.0798  0.0384  0.0473
 4297W        W 8361   7.380   0.486   2.041 -0.2817  0.2731 -0.0468
 4298W        W 8362   8.412   1.379   4.200 -0.0043  0.5163 -0.0086
 4299W        W 8363   8.231   8.996   3.230  0.3611 -0.0201 -0.0230
 4300W        W 8364  10.087   5.977   2.718  0.1609 -0.0208 -0.1684
 4301W        W 8365   4.941   1.705   3.316  0.0448 -0.1006  0.1679
 4302W        W 8366   0.451   9.876   0.972 -0.0675 -0.0829 -0.1104
 4303W        W 8367   2.445   8.971   7.966 -0.1802 -0.0243  0.1463
 4304W        W 8368   6.082   3.168   2.507  0.0562 -0.0134 -0.0774
 4305W        W 8369   2.615   1.596   9.125 -0.2738  0.1205  0.3139
 4306W        W 8370   6.639  10.180   2.799 -0.1463 -0.2313  0.0369
 4307W        W 8371   2.770   7.725   0.997 -0.3201  0.2888 -0.0718
 4308W        W 8372   8.860   1.206   0.257  0.0156  0.1436 -0.0609
 4309W        W 8373   7.921   2.742   0.444 -0.1099  0.0458  0.0820
 4310W        W 8374   4.085   3.372   2.664 -0.3123  0.2986  0.3747
 4311W        W 8375   3.077   1.704  11.445  0.3205 -0.0808 -0.4456
 4312W        W 8376   6.767   1.520   2.156 -0.1095 -0.2065 -0.2946
 4313W        W 8377   3.140   0.962   1.503 -0.1396 -0.0874  0.1025
 4314W        W 8378   1.698   2.568   3.076  0.1680 -0.1763  0.1411
 4315W        W 8379   3.510   2.048   2.853  0.1742 -0.4155 -0.0404
 4316W        W 8380   1.625   5.816  10.434 -0.0470  0.3147 -0.2866
 4317W        W 8381   2.326   7.494  11.245  0.2148 -0.3284 -0.1546
 4318W        W 8382   9.782   1.795   0.746  0.0921 -0.0347  0.0438
 4319W        W 8383   5.729   3.788   8.269 -0.1817  0.0758 -0.0461
 4320W        W 8384   7.775   5.117   1.670 -0.2799 -0.2743 -0.1193
 4321W        W 8385   9.625   5.106   0.938 -0.0601  0.0862  0.1094
 4322W        W 8386   3.269   8.704   8.617 -0.0825  0.1049 -0.2900
 4323W        W 8387   7.817   1.377   7.553  0.2329 -0.2066 -0.1765
 4324W        W 8388   2.138   2.175   2.390 -0.0638  0.2207  0.2085
 4325W        W 8389   6.419   7.431   8.671 -0.0676  0.0555 -0.0743
 4326W        W 8390   0.042   2.120  10.337 -0.3232 -0.2265 -0.0552
 4327W        W 8391   6.941   3.420   2.876  0.0417  0.0656 -0.2546
 4328W        W 8392   9.054   3.733   2.691  0.1063  0.3626 -0.1185
 4329W        W 8393   8.405   4.530   1.202  0.2790 -0.0122  0.3096
 4330W        W 8394   7.692   3.258  10.478 -0.1996  0.1699 -0.0861
 4331W        W 8395   3.700   1.968   2.376  0.0323 -0.1960  0.4507
 4332W        W 8396   5.607  10.564   8.275 -0.0866  0.2116 -0.2088
 4333W        W 8397   9.763   8.989  10.124  0.0872 -0.0755 -0.0980
 4334W        W 8398   5.926   9.722  10.406 -0.0658 -0.0508  0.1611
 4335W        W 8399   4.407   8.931   8.902  0.3024  0.0309 -0.0632
 4336W        W 8400   2.299   7.917   8.827 -0.0993  0.0267 -0.2884
 4337W        W 8401   5.567   5.486   8.432  0.0421  0.2074  0.0140
 4338W        W 8402   5.571   5.729   0.064 -0.0209  0.1550  0.1001
 4339W        W 8403   9.602   7.936   2.041  0.0845  0.1952  0.1106
 4340W        W 8404   6.394   8.244   8.793 -0.1219 -0.0147 -0.2010
 4341W        W 8405   4.174   0.672  10.693  0.0299 -0.1248 -0.0782
 4342W        W 8406   2.483   5.729  11.073 -0.0649 -0.2597  0.2232
 4343W        W 8407   1.810   5.148   0.531  0.1933 -0.1412  0.1696
 4344W        W 8408   0.734   4.860   3.772 -0.1208  0.4954 -0.1831
 4345W        W 8409   8.538  10.653   1.452 -0.0577  0.0855  0.3322
 4346W        W 8410   4.748   4.828   8.294 -0.1339 -0.0124 -0.0740
 4347W        W 8411   6.855   1.721  11.359  0.0901 -0.0561  0.2758
 4348W        W 8412   6.557   0.543   2.412 -0.2604  0.0899  0.2732
 4349W        W 8413  10.613   5.147   0.279  0.0189 -0.4651  0.0289
 4350W        W 8414   1.844   8.726  11.177  0.2434  0.2325 -0.0727
 4351W        W 8415   7.123   9.795   8.099  0.0734 -0.0685  0.2827
 4352W        W 8416   5.610   9.362  10.200  0.5628 -0.2590  0.1193
 4353W        W 8417   6.846   1.669   3.649  0.1423  0.0595  0.0197
 4354W        W 8418   9.218   7.186  10.211 -0.2227  0.1269 -0.0597
 4355W        W 8419   5.609   0.326  10.020 -0.0443  0.0047  0.0503
 4356W        W 8420   3.283   9.589   9.694 -0.5039  0.1972 -0.2155
 4357W        W 8421   9.079   4.379  11.539 -0.2914  0.0148  0.0413
 4358W        W 8422   8.698   0.346   0.075 -0.1184  0.0618 -0.1168
 4359W        W 8423   3.751   3.195   7.803  0.1930  0.0727  0.1054
 4360W        W 8424   2.367   4.017   1.533  0.1332  0.0870 -0.1559
 4361W        W 8425   5.129   6.266   9.595 -0.0341 -0.0216 -0.3427
 4362W        W 8426   1.805   4.177   7.090 -0.3068  0.0720 -0.0983
 4363W        W 8427   0.639   2.605   8.004  0.1812  0.4018  0.0408
 4364W        W 8428   4.571   5.692   2.417  0.3526  0.0877 -0.1638
 4365W        W 8429   1.341   9.512   8.641 -0.1494  0.2622  0.1413
 4366W        W 8430   1.789   3.599   1.414  0.0235  0.1279  0.0319
 4367W        W 8431   1.193   9.566   1.116  0.0427 -0.0060  0.3653
 4368W        W 8432   6.553   6.053  11.559  0.1802 -0.0195 -0.2552
 4369W        W 8433   2.787   4.859  10.481 -0.3324 -0.2643 -0.0747
 4370W        W 8434  10.406   9.112   9.404 -0.1255 -0.1042 -0.0362
 4371W        W 8435   5.768   6.018   3.644  0.4371  0.0039 -0.2296
 4372W        W 8436   4.339   8.403   7.625  0.0554  0.2153  0.0018
 4373W        W 8437   8.411   3.140   9.089 -0.2528 -0.2419  0.3706
 4374W        W 8438   5.928   0.643  11.041  0.3364  0.0709  0.0785
 4375W        W 8439   1.785   1.474   3.701 -0.0269 -0.1779 -0.1155
 4376W        W 8440   9.552   3.283   9.028 -0.0228  0.0459 -0.0990
 4377W        W 8441   9.525   3.159  10.084  0.3498 -0.1031 -0.0393
 4378W        W 8442   8.830   7.966   1.380  0.0390  0.0402 -0.0494
 4379W        W 8443   7.612   8.343   1.161  0.2254  0.0351  0.0513
 4380W        W 8444   9.259   4.884   3.701 -0.1577 -0.4745  0.2739
 4381W        W 8445   2.898   2.037   1.305  0.0873 -0.1021  0.0758
 4382W        W 8446   1.107   3.077   2.373  0.0138  0.1975  0.0302
 4383W        W 8447   1.635   6.619   0.432 -0.3344  0.0586  0.1110
 4384W        W 8448   2.671   2.471   3.239 -0.0119  0.2382 -0.2288
 4385W        W 8449   8.674   7.463   2.035  0.0730 -0.1569 -0.1523
 4386W        W 8450   7.625   8.052  10.588 -0.1409  0.1123 -0.0245
 4387W        W 8451   6.709   7.842  10.620 -0.1325  0.2404  0.1026
 4388W        W 8452   4.033  10.194   1.340 -0.1631 -0.1867 -0.2617
 4389W        W 8453   4.817   7.142   1.020 -0.0089 -0.3786 -0.1685
 4390W        W 8454   6.110   3.713   1.866 -0.0093 -0.0256  0.1164
 4391W        W 8455   6.571   5.537   0.862 -0.5314  0.0379  0.2577
 4392W        W 8456   2.203   6.591  10.706 -0.4585  0.0453  0.1675
 4393W        W 8457   5.189   9.879   4.651  0.1509 -0.0757  0.1081
 4394W        W 8458   7.106   3.979  10.286 -0.2409  0.2141  0.1147
 4395W        W 8459   0.479   7.010   2.378 -0.1647  0.2351  0.0631
 4396W        W 8460   9.937   8.961   2.164  0.0263 -0.1556 -0.2405
 4397W        W 8461  10.647   0.021   1.113  0.2801 -0.0470  0.1845
 4398W        W 8462   4.245   8.114   1.237  0.2576  0.1327  0.0641
 4399W        W 8463   1.567   3.175   2.289 -0.4254 -0.0742  0.0007
 4400W        W 8464   7.883   2.484   3.077  0.0448  0.0067 -0.0158
 4401W        W 8465   1.489   5.440   7.166  0.2884  0.0019  0.1261
 4402W        W 8466   6.304   3.619   1.442 -0.0371 -0.2127  0.4028
 4403W        W 8467   8.870   4.250   2.628  0.2458  0.0610 -0.0463
 4404W        W 8468   2.150   3.612   8.940  0.2408  0.2153  0.1735
 4405W        W 8469   3.232   5.808   2.261  0.0419 -0.0874 -0.1043
 4406W        W 8470   4.747   7.477  10.830 -0.3305 -0.3987  0.0114
 4407W        W 8471   2.572   1.921   0.685  0.1689  0.0775  0.2969
 4408W        W 8472   4.440   9.999   2.778  0.0704  0.1643 -0.1597
 4409W        W 8473   4.594   2.353  10.438  0.2123 -0.0089  0.0637
 4410W        W 8474   6.313   7.707   3.458 -0.4465  0.0284  0.0950
 4411W        W 8475   8.893   2.086   9.576 -0.1413  0.2493  0.0961
 4412W        W 8476   0.300   6.150  10.245 -0.0173 -0.0462  0.2954
 4413W        W 8477   5.568   4.757   1.677 -0.0184  0.4724  0.1507
 4414W        W 8478   7.692  10.009   7.393 -0.1972 -0.1950  0.0701
 4415W        W 8479   6.824   7.988   3.534  0.2820 -0.2720 -0.0378
 4416W        W 8480   2.720   5.614   0.319 -0.0221 -0.0149  0.1078
 4417W        W 8481   4.239   2.625   2.212 -0.1011  0.0540 -0.2507
 4418W        W 8482   6.162   3.487   8.406 -0.0484  0.1461  0.3434
 4419W        W 8483   0.750   6.181   0.816  0.1931  0.3886  0.0158
 4420W        W 8484   5.254   5.868   8.685  0.2360 -0.0874 -0.1400
 4421W        W 8485   6.367   6.381   4.639 -0.1785 -0.1907  0.0581
 4422W        W 8486   0.682   7.862   1.920  0.0513  0.0598 -0.1041
 4423W        W 8487   2.536   3.246   1.150  0.0110  0.0760  0.0944
 4424W        W 8488   8.967   6.383  10.242  0.0802 -0.1641 -0.0196
 4425W        W 8489   2.714   6.331  10.735 -0.3452 -0.0790  0.1877
 4426W        W 8490   3.014   9.656  11.565 -0.0421 -0.0400 -0.2870
 4427W        W 8491   1.842   7.043   3.278 -0.0076  0.0634  0.2842
 4428W        W 8492   0.904   1.717   9.825 -0.4163 -0.0134  0.0180
 4429W        W 8493   8.653   8.365   8.743 -0.1190  0.1738  0.1478
 4430W        W 8494   9.836   6.850   8.660 -0.3123  0.3398 -0.0565
 4431W        W 8495   3.309   4.507   8.389 -0.1062  0.3062  0.1036
 4432W        W 8496   5.656   0.562   2.381 -0.1589  0.2889  0.0158
 4433W        W 8497   8.753   6.314   0.292  0.0674  0.0536 -0.1600
 4434W        W 8498   9.017  10.232   1.153  0.0266 -0.1067 -0.2548
 4435W        W 8499   6.018   0.229   1.180 -0.2752 -0.1511  0.4286
 4436W        W 8500   5.399   4.785  10.037 -0.0443  0.3506 -0.2294
 4437W        W 8501   2.635   6.048   3.799  0.1880 -0.5419 -0.1251
 4438W        W 8502   6.121   7.903   4.063  0.1017  0.0488 -0.0184
 4439W        W 8503   6.168   2.273   1.082  0.2658 -0.2986 -0.2747
 4440W        W 8504   5.338   8.110   9.458  0.3310  0.0203  0.1454
 4441W        W 8505   1.163   5.127   9.480 -0.1676  0.2461 -0.2008
 4442W        W 8506  10.574   6.936  10.426  0.0920 -0.0603  0.0016
 4443W        W 8507   2.360   4.492   8.418  0.0957 -0.0080 -0.1070
 4444W        W 8508  10.414   4.695   7.760  0.0703  0.1116  0.0252
 4445W        W 8509   3.139   9.571  10.828 -0.1968  0.0438 -0.1386
 4446W        W 8510   2.386   6.317   1.571  0.0252 -0.1343  0.1922
 4447W        W 8511   0.489   0.536   1.470 -0.4940  0.1460 -0.0670
 4448W        W 8512   3.830   7.602   2.972 -0.0390 -0.2437 -0.0304
 4449W        W 8513   8.338   6.993  10.147  0.1502  0.1887 -0.0584
 4450W        W 8514   0.181   8.470  11.052 -0.0973  0.0081  0.1107
 4451W        W 8515   8.919   6.781   0.412 -0.0651 -0.0238  0.1201
 4452W        W 8516  10.265  10.316   2.355  0.1899  0.0108  0.3456
 4453W        W 8517   7.605   3.980   0.324  0.3590  0.1421 -0.0327
 4454W        W 8518   0.707   5.905   3.414 -0.0305 -0.0849  0.0471
 4455W        W 8519   3.677   5.727   9.353 -0.2124  0.0803 -0.1865
 4456W        W 8520   4.747   6.027   7.902 -0.0122  0.0035 -0.0243
 4457W        W 8521   9.686   9.254  11.041  0.3550  0.2400 -0.0636
 4458W        W 8522   3.100   8.195  10.927 -0.0211  0.1588 -0.0653
 4459W        W 8523   7.822   0.608   4.498 -0.1285 -0.0999  0.0354
 4460W        W 8524   2.586   0.392   2.113  0.0844  0.1518 -0.2857
 4461W        W 8525   2.251   3.643  10.504 -0.3031 -0.1353 -0.2407
 4462W        W 8526   5.076  10.646   0.849  0.1771  0.0316 -0.1350
 4463W        W 8527   7.652   3.269   1.234 -0.1999 -0.2173  0.1091
 4464W        W 8528   1.647  10.334   1.385  0.0065 -0.1665 -0.2781
 4465W        W 8529   0.958   1.532   8.571 -0.4224 -0.0956 -0.2666
 4466W        W 8530   2.424   2.253   3.871 -0.3696 -0.3328  0.0032
 4467W        W 8531   5.361   0.030  10.567 -0.0608  0.0173 -0.1343
 4468W        W 8532   4.890   9.916   0.940  0.0020  0.0453 -0.1384
 4469W        W 8533   2.138   0.612   9.800  0.0872 -0.1478  0.1753
 4470W        W 8534   9.380  10.557   3.464 -0.1377 -0.3663  0.1012
 4471W        W 8535   0.855   0.369   2.572 -0.0328 -0.2084 -0.0124
 4472W        W 8536   4.617   6.245   3.688  0.0769 -0.3117 -0.1839
 4473W        W 8537   2.663   1.067   8.513  0.1124 -0.3393 -0.2301
 4474W        W 8538   1.559   8.669   3.772 -0.0136  0.2916 -0.2796
 4475W        W 8539   9.612   6.955   9.132 -0.3552 -0.2431 -0.1062
 4476W        W 8540   5.476   1.673   3.693  0.0417 -0.0764 -0.1079
 4477W        W 8541   7.500   8.031   1.686  0.0190 -0.0493 -0.1937
 4478W        W 8542  10.133   5.523   3.056 -0.0726  0.0251 -0.4879
 4479W        W 8543   2.389   2.397   0.791  0.0514  0.0841 -0.1565
 4480W        W 8544   9.911   9.393   1.360  0.1679 -0.4348  0.1160
 4481W        W 8545   5.557   1.723  10.792 -0.0593 -0.4300 -0.0943
 4482W        W 8546   7.247   9.260  10.202  0.0576  0.1848  0.1594
 4483W        W 8547   6.493   9.779   3.548 -0.1120  0.1684  0.0973
 4484W        W 8548   9.550   3.014   2.537 -0.1518 -0.2960 -0.2635
 4485W        W 8549   5.582   1.714   7.381 -0.0453  0.3598 -0.1019
 4486W        W 8550   5.233   1.010  11.547 -0.1514 -0.2442  0.0629
 4487W        W 8551   3.624   4.998  10.545 -0.1708  0.0203 -0.2122
 4488W        W 8552   2.419  10.304   9.931 -0.2962 -0.2163 -0.3540
 4489W        W 8553   6.348   7.866  10.071 -0.0016  0.0664 -0.0179
 4490W        W 8554   5.451   4.237  10.883 -0.0437  0.4229  0.0261
 4491W        W 8555   4.134   7.557   0.649 -0.0350  0.1054 -0.3970
 4492W        W 8556   6.402   2.328   4.121 -0.1267 -0.0610 -0.0067
 4493W        W 8557  10.410   2.796  10.367  0.1160  0.0294  0.0138
 4494W        W 8558   0.349   6.400   3.169  0.0926 -0.2008 -0.2870
 4495W        W 8559   6.374   5.135   9.979 -0.0368 -0.0192  0.3048
 4496W        W 8560   5.163  10.578   3.579 -0.2777 -0.1035 -0.2248
 4497W        W 8561   5.742   2.554  10.581  0.2621  0.0052 -0.1846
 4498W        W 8562   8.438   1.577   0.199  0.0343  0.0795  0.2570
 4499W        W 8563   9.401   6.268   9.964 -0.1616 -0.2782 -0.1353
 4500W        W 8564   0.746   7.633   8.370  0.0125  0.0395 -0.0713
 4501W        W 8565   9.070   3.239   1.193  0.1174  0.2222  0.1043
 4502W        W 8566   7.197   3.387   8.376 -0.2228  0.1804 -0.1329
 4503W        W 8567   5.315   7.630  11.049  0.1684 -0.3276 -0.0400
 4504W        W 8568   5.803  10.490  11.418 -0.2176  0.1996  0.1300
 4505W        W 8569   2.578   7.744   9.640  0.0109 -0.1998  0.0552
 4506W        W 8570   0.402   8.298  11.479  0.1837 -0.2192 -0.1000
 4507W        W 8571   1.390   8.073   8.568  0.3816 -0.0665 -0.0741
 4508W        W 8572   4.099   3.430   9.596  0.1737 -0.1110 -0.2422
 4509W        W 8573   7.444   7.940   2.179  0.1880 -0.2078  0.2473
 4510W        W 8574   2.758   0.304  11.537 -0.0534 -0.0008 -0.0538
 4511W        W 8575   3.249   6.406  10.137  0.0117 -0.3194  0.1586
 4512W        W 8576   1.545   7.205  11.257 -0.3510  0.0575  0.3004
 4513W        W 8577   3.951   6.561  10.413 -0.3290 -0.2585  0.0956
 4514W        W 8578   4.642  10.202  10.807 -0.2079 -0.2152  0.3614
 4515W        W 8579   1.163   8.319   1.687  0.2982  0.0424 -0.0105
 4516W        W 8580   4.380   9.362   3.360 -0.2145 -0.0324  0.1309
 4517W        W 8581   6.707   2.397   9.309  0.1845  0.2230  0.2854
 4518W        W 8582   5.720   5.183   9.178 -0.1419 -0.0680  0.2887
 4519W        W 8583   3.837   6.229   8.926  0.0531 -0.0189  0.2430
 4520W        W 8584   3.015   5.208   0.487 -0.0206  0.1173 -0.2554
 4521W        W 8585   7.728  10.382   3.702  0.1433 -0.0200 -0.3523
 4522W        W 8586   4.265   0.865   3.573  0.0718 -0.1835 -0.0496
 4523W        W 8587   1.285   6.855   9.012  0.1620 -0.0804  0.1010
 4524W        W 8588   1.700   0.512  10.127 -0.1578 -0.0109  0.2148
 4525W        W 8589   8.359   6.623   8.940  0.0264 -0.3857 -0.0626
 4526W        W 8590   9.796   5.716   2.319  0.0831  0.0967 -0.1685
 4527W        W 8591   1.740   6.582   9.985 -0.0483  0.1535  0.2451
 4528W        W 8592   2.267   1.182   1.421 -0.2304  0.0157 -0.0408
 4529W        W 8593   5.858   1.402   9.174  0.1131 -0.1456 -0.1341
 4530W        W 8594   0.115   0.818   0.642  0.0661 -0.2034  0.2110
 4531W        W 8595   6.393  10.632   7.112 -0.1783 -0.4489 -0.2476
 4532W        W 8596   8.466   9.490   7.716 -0.2394  0.1217  0.3675
 4533W        W 8597   2.938   3.991   2.448  0.1366  0.1073  0.2210
 4534W        W 8598   3.852   7.059  11.343 -0.0317  0.2381  0.2210
 4535W        W 8599   7.477   5.750  10.439  0.1082  0.1027  0.1229
 4536W        W 8600   9.173   8.816   9.981 -0.0219  0.0101  0.0873
 4537W        W 8601   8.528   6.660   1.250 -0.1960  0.0786  0.1659
 4538W        W 8602  10.112   3.398  11.571  0.1606 -0.1893  0.4061
 4539W        W 8603   4.479  10.262   8.467  0.0830 -0.1885  0.2972
 4540W        W 8604   2.529  10.614  11.231  0.1050 -0.1952 -0.1246
 4541W        W 8605   4.361  10.123   9.869  0.2416 -0.1021  0.0345
 4542W        W 8606   0.952   4.301   8.374 -0.3424 -0.0306 -0.1793
 4543W        W 8607   7.933   6.571  10.259 -0.1272  0.0349 -0.3430
 4544W        W 8608   6.362   7.857   8.418  0.0232  0.0922 -0.0438
 4545W        W 8609   7.920   4.069   8.661 -0.1023 -0.1420  0.0453
 4546W        W 8610   6.351   6.942   3.157 -0.2740 -0.1787  0.0390
 4547W        W 8611   1.564   5.639  11.462  0.1271 -0.2587 -0.0677
 4548W        W 8612   9.693   8.179   3.293 -0.1239  0.0942 -0.0433
 4549W        W 8613   7.699  10.221   8.933 -0.0160 -0.0370 -0.1086
 4550W        W 8614   7.848   8.710   9.177  0.3661  0.1982 -0.2365
 4551W        W 8615   0.376   2.617   9.206 -0.0659  0.0902 -0.1708
 4552W        W 8616   9.314   7.504   9.782 -0.0738 -0.1141  0.1761
 4553W        W 8617   0.041   1.532  10.517 -0.0824  0.0468  0.0498
 4554W        W 8618   2.541   2.371   2.075  0.1201 -0.2505  0.3327
 4555W        W 8619   6.790   2.920  11.245 -0.0869 -0.0487 -0.4981
 4556W        W 8620   8.756   5.055  10.690  0.0673 -0.0262  0.1994
 4557W        W 8621   3.110   2.340   9.448 -0.2197 -0.1426  0.1960
 4558W        W 8622   7.534   6.082   9.975 -0.0720  0.1230 -0.1728
 4559W        W 8623  10.628   0.461   1.390  0.0783  0.2674 -0.1523
 4560W        W 8624   5.503   0.267   7.987 -0.2010  0.1424 -0.0405
 4561W        W 8625   5.949   6.383   8.263  0.1415  0.0735 -0.1152
 4562W        W 8626   5.285   3.102   8.361 -0.1335  0.2129  0.0610
 4563W        W 8627   4.395   0.171  10.680  0.0292 -0.1933 -0.1671
 4564W        W 8628   9.152  10.585   2.114 -0.0917 -0.1458  0.0532
 4565W        W 8629   3.123   3.549   9.766  0.1902 -0.0924  0.4261
 4566W        W 8630   8.808   0.993   2.247 -0.0652  0.0423  0.1330
 4567W        W 8631   1.585   5.357   2.622  0.2184  0.0863 -0.2999
 4568W        W 8632   7.009   3.662   4.253 -0.1993 -0.0616  0.0070
 4569W        W 8633  10.427   2.597  11.495 -0.2449 -0.0569 -0.4683
 4570W        W 8634   8.510   3.203  10.982 -0.1706 -0.1975 -0.3275
 4571W        W 8635   4.730   5.818   1.217 -0.1895  0.2474  0.0246
 4572W        W 8636   3.726   5.505   0.186 -0.0219 -0.0510  0.1579
 4573W        W 8637   9.637   3.969   1.449 -0.1700  0.0297  0.1380
 4574W        W 8638  10.461   4.018   3.725  0.0945  0.0884  0.0710
 4575W        W 8639   2.861   0.427   0.924 -0.3039  0.2393  0.1606
 4576W        W 8640   0.156   4.457   1.097 -0.1866  0.0412 -0.0511
 4577W        W 8641   8.907   9.429   0.538 -0.1166  0.1195 -0.1276
 4578W        W 8642   4.794   6.721  10.210 -0.0311 -0.4655  0.0672
 4579W        W 8643   4.169   7.458  11.025  0.1630 -0.0930 -0.0152
 4580W        W 8644   6.154   1.865   9.188  0.0238  0.4151 -0.1002
 4581W        W 8645   0.408   7.437   1.669  0.0325 -0.2000  0.1631
 4582W        W 8646   3.822   0.520   1.722 -0.1741 -0.3180 -0.1228
 4583W        W 8647   3.259   6.556   9.619  0.0199 -0.2022 -0.0156
 4584W        W 8648   6.583   6.259   9.682  0.3743 -0.1632 -0.2260
 4585W        W 8649   1.579   2.724   1.993  0.2258  0.1269 -0.2500
 4586W        W 8650   2.087   8.372   3.157 -0.1692  0.0035  0.2612
 4587W        W 8651   1.556   0.183   1.411 -0.0992  0.3161  0.1051
 4588W        W 8652   5.859   9.982   4.265  0.0009 -0.1631 -0.3732
 4589W        W 8653   1.878   7.382   8.329  0.0632  0.1259  0.1778
 4590W        W 8654   7.890   5.441   8.161 -0.0668 -0.1675  0.1173
 4591W        W 8655   0.470   5.357   8.218  0.3913  0.1987  0.0027
 4592W        W 8656   3.800   9.723   3.308  0.1060  0.0633  0.1263
 4593W        W 8657   1.167   6.487  11.484  0.2113  0.2094  0.0266
 4594W        W 8658   7.844   9.073  10.852  0.1437 -0.2313 -0.3196
 4595W        W 8659   1.874   2.909   9.610 -0.2145  0.0057 -0.2397
 4596W        W 8660   8.320   4.224   2.659 -0.2369 -0.1775  0.4421
 4597W        W 8661   2.084   8.317   2.679  0.2462  0.0221  0.0014
 4598W        W 8662   3.038   7.121   2.804  0.0563  0.0137 -0.0281
 4599W        W 8663   7.061   1.951   8.624  0.2567  0.1038  0.1808
 4600W        W 8664   2.027   0.051   3.247  0.2626 -0.0009 -0.1698
 4601W        W 8665  10.384  10.427  10.806 -0.2618  0.0649 -0.2898
 4602W        W 8666  10.268   5.464   2.572 -0.0109  0.1158  0.0515
 4603W        W 8667   4.974   9.732   2.103 -0.0566 -0.1177  0.1000
 4604W        W 8668   4.061   2.523  10.270 -0.1428  0.0034 -0.1965
 4605W        W 8669   4.040   5.343  10.481 -0.1425 -0.1443  0.1125
 4606W        W 8670   1.581   4.498   3.480  0.4254 -0.0025 -0.0774
 4607W        W 8671   5.800   5.269   0.144  0.1445 -0.0122  0.2646
 4608W        W 8672   5.351   8.642   0.627  0.2003 -0.0064  0.3299
 4609W        W 8673   2.325   4.812   2.404  0.1016 -0.3911  0.0628
 4610W        W 8674   8.472   1.221  11.393  0.0513 -0.1295  0.0973
 4611W        W 8675   3.352   8.440   2.615 -0.3984 -0.1084 -0.3138
 4612W        W 8676   9.519   0.206   2.254 -0.2185 -0.2973  0.0673
 4613W        W 8677   5.878   3.805   3.370 -0.3431 -0.0442 -0.0459
 4614W        W 8678   5.105   2.892   8.783 -0.0690  0.3654 -0.0257
 4615W        W 8679   7.621   6.219  10.432 -0.0179 -0.0508 -0.0321
 4616W        W 8680   5.153   4.367   1.401 -0.0555 -0.3346 -0.1211
 4617W        W 8681   7.364   7.038   9.706  0.0635 -0.0869  0.1167
 4618W        W 8682   0.750   8.109   9.785 -0.2580 -0.1062 -0.2181
 4619W        W 8683   0.307   7.612   2.648 -0.0499 -0.0317 -0.2329
 4620W        W 8684   6.635   3.263   9.120 -0.0602 -0.0126  0.0662
 4621W        W 8685   4.079   9.442   8.336 -0.2474 -0.0411  0.1452
 4622W        W 8686  10.105   7.256   2.293 -0.0800  0.1430 -0.1677
 4623W        W 8687   9.391   2.633  10.294 -0.1368 -0.2188 -0.2132
 4624W        W 8688   3.575   5.381   4.009  0.2276  0.0537  0.0689
 4625W        W 8689   5.693   9.284  10.695  0.0571  0.1497 -0.4018
 4626W        W 8690   0.872   8.601   1.107  0.0160 -0.2472 -0.0157
 4627W        W 8691   8.834   2.432  10.924  0.3456  0.1424  0.1611
 4628W        W 8692   6.326   4.039   0.132 -0.2772 -0.1059 -0.4120
 4629W        W 8693   2.865   2.711   2.852 -0.1237 -0.1594  0.0420
 4630W        W 8694  10.459   4.726   1.768 -0.0907 -0.0438 -0.1971
 4631W        W 8695   3.427  10.121   7.646  0.1542 -0.0196  0.2201
 4632W        W 8696   9.481   2.243   0.841 -0.2798  0.2172 -0.2704
 4633W        W 8697   9.734   9.451   2.139 -0.3773  0.0927 -0.0139
 4634W        W 8698   5.628   9.478   0.248  0.1740  0.0586 -0.0863
 4635W        W 8699   4.484   0.464   8.028  0.2407 -0.1700 -0.0329
 4636W        W 8700   3.682   2.359  10.606  0.3062 -0.0089 -0.0071
 4637W        W 8701   8.368   9.619   3.521 -0.1529  0.0069  0.1342
 4638W        W 8702   4.547   9.248   9.901  0.0140 -0.0349 -0.3603
 4639W        W 8703   2.379   2.799   3.018  0.0314  0.1200  0.1887
 4640W        W 8704   9.760   3.792   9.887 -0.2654  0.0340  0.1398
 4641W        W 8705   5.896   4.962   1.160 -0.0655 -0.2723  0.4695
 4642W        W 8706   8.112   3.569   0.982  0.1283 -0.1775 -0.0613
 4643W        W 8707   9.631   5.232   3.684 -0.1233 -0.2883  0.1728
 4644W        W 8708   7.635  10.417  10.149  0.1006  0.1523 -0.1484
 4645W        W 8709   3.338   7.074   9.184  0.1535  0.1481  0.0292
 4646W        W 8710  10.386   9.580   9.204 -0.1267 -0.0119 -0.1635
 4647W        W 8711   9.739   0.437   2.656 -0.1603 -0.0587 -0.2040
 4648W        W 8712   0.117   7.142   8.616  0.0018 -0.2609 -0.0926
 4649W        W 8713   9.056   5.536  10.535 -0.1034  0.1752  0.2317
 4650W        W 8714   7.416   9.275  11.120 -0.0651 -0.0455 -0.1892
 4651W        W 8715   8.682   1.004   9.590  0.0446  0.1806  0.0312
 4652W        W 8716   7.681   7.519   8.669 -0.1308 -0.0676 -0.1891
 4653W        W 8717  10.077   9.129   9.043  0.0326  0.2521 -0.1808
 4654W        W 8718   7.899   5.405   2.152  0.2156  0.2139 -0.0139
 4655W        W 8719   2.895   2.302   0.845  0.0378 -0.1580  0.0053
 4656W        W 8720   7.890   2.530   8.656  0.2185 -0.2131 -0.0782
 4657W        W 8721   7.099   4.479  10.493 -0.0613 -0.0482  0.0364
 4658W        W 8722   4.862  10.076   8.675 -0.1867  0.1349  0.1101
 4659W        W 8723   4.102   6.624  11.019 -0.1296  0.0105 -0.0034
 4660W        W 8724  10.259   2.145   1.326  0.1766 -0.1216  0.0734
 4661W        W 8725   5.284   1.371  11.077  0.2369  0.0534  0.0824
 4662W        W 8726   8.881   9.454   2.813 -0.0812  0.4128 -0.0113
 4663W        W 8727   9.873   7.833   9.127 -0.0228  0.0129  0.1187
 4664W        W 8728  10.439   3.833   7.688 -0.1832 -0.1560  0.1002
 4665W        W 8729   5.045   2.883   9.602 -0.0593  0.1673 -0.1103
 4666W        W 8730   7.233   2.854   2.086 -0.0778 -0.3523 -0.1279
 4667W        W 8731   6.884   0.081   0.630 -0.2522 -0.0244 -0.3454
 4668W        W 8732   0.620   7.985   2.487  0.0438 -0.1634  0.1460
 4669W        W 8733   8.582   8.897   0.561 -0.4287  0.0646 -0.2811
 4670W        W 8734   8.194   8.804   8.885 -0.1646 -0.2909 -0.2400
 4671W        W 8735   0.765   0.195   1.807 -0.1560  0.2719  0.1741
 4672W        W 8736   5.250   5.275   8.076  0.1337 -0.0621 -0.0810
 4673W        W 8737   8.978   6.706   2.604  0.2194  0.1007 -0.0158
 4674W        W 8738   5.377  10.470   1.960 -0.0106  0.2356  0.2730
 4675W        W 8739   1.054   7.449   3.692 -0.2470 -0.0318  0.1002
 4676W        W 8740   6.323   0.850   3.491  0.1878 -0.1383  0.0385
 4677W        W 8741   5.719   7.135  11.031 -0.0811  0.0531  0.2010
 4678W        W 8742   3.756   5.554   7.305 -0.2353 -0.1034  0.2153
 4679W        W 8743   3.974   5.120   0.372 -0.1002 -0.0453  0.0425
 4680W        W 8744   6.583   3.672   8.562  0.1847  0.0536 -0.1147
 4681W        W 8745   9.239   5.940   3.124 -0.3282 -0.1203  0.2142
 4682W        W 8746   7.156   1.510   0.764  0.1742  0.0208 -0.2342
 4683W        W 8747   8.224   1.533  11.096 -0.1131  0.0648  0.0923
 4684W        W 8748   1.069   9.333   9.127  0.1010  0.0763  0.2526
 4685W        W 8749   6.158   5.241  11.202  0.1624  0.2376  0.2320
 4686W        W 8750   4.117   7.474  10.061 -0.1030  0.2514 -0.4181
 4687W        W 8751   4.110   2.056   8.991  0.0173  0.0991 -0.1191
 4688W        W 8752   7.738   7.243   9.399 -0.0055 -0.0394  0.1041
 4689W        W 8753   7.973   5.157   9.529 -0.1090  0.0028 -0.1116
 4690W        W 8754   1.170   6.846   0.278  0.0555  0.4011  0.0962
 4691W        W 8755   6.191   2.743   9.869 -0.1868 -0.3286  0.0526
 4692W        W 8756   5.120   9.034   3.706 -0.1320  0.1106  0.2293
 4693W        W 8757   8.009   1.293   1.170  0.2183 -0.1291  0.3478
 4694W        W 8758   1.604   7.221   0.948  0.0786 -0.0828 -0.2018
 4695W        W 8759   4.284   4.594   9.474 -0.1405  0.0130  0.1181
 4696W        W 8760   1.160   4.019  11.202 -0.2614 -0.1657  0.0181
 4697W        W 8761   3.602   9.832   2.044 -0.1570  0.3941 -0.1504
 4698W        W 8762   7.818   6.924   1.003  0.1179 -0.0984 -0.1544
 4699W        W 8763   7.878  10.101   1.195  0.0081  0.1884  0.0200
 4700W        W 8764   5.364   5.852   3.348 -0.0792  0.0676 -0.2153
 4701W        W 8765   7.309   3.944   0.966  0.0705 -0.3543 -0.0439
 4702W        W 8766   4.955   4.618  10.997 -0.1035 -0.1137 -0.2694
 4703W        W 8767   9.345   8.125   8.389 -0.0947  0.1334  0.1392
 4704W        W 8768   6.382   0.505   1.548 -0.0858  0.0950 -0.0220
 4705W        W 8769   3.425   3.302   2.627  0.1017  0.0650 -0.0344
 4706W        W 8770   6.866   8.814   2.324 -0.0171  0.3882 -0.1500
 4707W        W 8771   8.520   7.604   1.549 -0.3688  0.1222  0.0443
 4708W        W 8772   5.430   2.121   9.967 -0.0761 -0.1999 -0.0546
 4709W        W 8773   6.089  10.343   1.999 -0.1164  0.0215 -0.0508
 4710W        W 8774   4.096   8.738   0.191  0.0438 -0.3835 -0.0390
 4711W        W 8775   4.190   7.324   2.619  0.0062 -0.0784  0.1776
 4712W        W 8776   6.300   0.016   0.041  0.1712  0.2103 -0.0086
 4713W        W 8777   1.222   3.805   9.338 -0.2168 -0.0927 -0.1311
 4714W        W 8778   9.910   3.475   2.612 -0.2252 -0.0270 -0.0926
 4715W        W 8779   9.463   1.446   3.293  0.1786  0.1099  0.1793
 4716W        W 8780   6.440   4.485   0.996  0.1579  0.2116 -0.2129
 4717W        W 8781   8.487   0.683   1.976 -0.3371 -0.3073 -0.2758
 4718W        W 8782   2.558   7.069   2.578 -0.0460 -0.1067 -0.1041
 4719W        W 8783   7.941   2.412   1.632 -0.1636 -0.1993 -0.0206
 4720W        W 8784   8.882   2.341  10.401 -0.1426 -0.0445 -0.1515
 4721W        W 8785   7.883   7.783   7.629 -0.0149  0.2642  0.1447
 4722W        W 8786   4.358   1.563  11.337  0.0704 -0.0678 -0.3872
 4723W        W 8787   7.404   7.557   9.602  0.0644  0.0847  0.0197
 4724W        W 8788   4.706   2.992   0.650  0.1156 -0.2304 -0.0168
 4725W        W 8789   2.834   4.453   8.620  0.2507 -0.1036 -0.1229
 4726W        W 8790   8.798   1.477   3.830  0.2665 -0.0013  0.1061
 4727W        W 8791   5.323   0.173   2.257  0.1239  0.0790  0.0975
 4728W        W 8792   8.949   0.248   1.496 -0.0278 -0.1086 -0.0399
 4729W        W 8793   7.603   6.597   1.802 -0.2332 -0.1257  0.1201
 4730W        W 8794  10.157  10.184  10.475 -0.1667 -0.0606  0.1505
 4731W        W 8795   3.555   3.215   9.791 -0.1773 -0.2583 -0.2154
 4732W        W 8796  10.346   0.047   9.500 -0.2613 -0.0015 -0.1032
 4733W        W 8797   3.124   4.984  11.317  0.0497 -0.0147 -0.2398
 4734W        W 8798   8.727   4.978   0.419  0.1488 -0.0014  0.1408
 4735W        W 8799   5.159  10.247   0.438 -0.0437  0.3617 -0.2401
 4736W        W 8800   1.304   4.878  10.292 -0.2339  0.1406  0.0013
 4737W        W 8801   3.332   3.805  10.686  0.0324  0.1711  0.2277
 4738W        W 8802   2.122   1.394  10.336  0.1016  0.0718  0.1345
 4739W        W 8803   8.645  10.580   7.518  0.0349  0.2239 -0.0674
 4740W        W 8804   8.299   5.809   8.798 -0.2129  0.0798  0.1682
 4741W        W 8805   9.750   4.683   3.520 -0.0051  0.1838 -0.2227
 4742W        W 8806   6.735   4.786   1.880  0.0106  0.1559  0.0599
 4743W        W 8807   9.543   7.334   1.050 -0.1815  0.1145 -0.0430
 4744W        W 8808   9.489   3.667   7.637 -0.1984  0.2418  0.2196
 4745W        W 8809   0.393   8.172  10.141  0.1503 -0.0420  0.0861
 4746W        W 8810   2.101   4.675   0.597  0.1044 -0.2032  0.0001
 4747W        W 8811   0.187   0.260   2.550  0.0351  0.1158  0.0803
 4748W        W 8812  10.577   1.218  10.898 -0.0617 -0.0488  0.2991
 4749W        W 8813   7.275   9.119   8.956  0.3115  0.1422 -0.3285
 4750W        W 8814   1.733   3.280  11.199 -0.0811  0.5975  0.2292
 4751W        W 8815  10.512   1.436   2.454 -0.1611 -0.1372  0.2145
 4752W        W 8816   3.990   5.626   1.220 -0.1608  0.0919 -0.2717
 4753W        W 8817   2.415   5.433  10.636  0.2041 -0.0292 -0.2071
 4754W        W 8818   6.435   5.468   8.958  0.1001 -0.0911 -0.0402
 4755W        W 8819   5.636   8.873   3.519 -0.0595  0.1870 -0.3807
 4756W        W 8820   2.930   7.517   3.256  0.2961 -0.1424 -0.3221
 4757W        W 8821   1.452   8.286   2.438  0.0334 -0.2192 -0.0251
 4758W        W 8822   2.666   9.770   1.632 -0.0098 -0.1647 -0.1790
 4759W        W 8823   8.776   5.298   8.579  0.1309 -0.0594  0.0944
 4760W        W 8824   8.667   8.605   2.562  0.1616 -0.0371  0.1388
 4761W        W 8825   9.052   0.743   1.876 -0.1581 -0.1368  0.1250
 4762W        W 8826   2.276   4.862  11.115  0.2921  0.1146 -0.0470
 4763W        W 8827   1.252   4.192   0.286  0.2004  0.1396 -0.3084
 4764W        W 8828   3.058   0.137   1.808 -0.1667 -0.1195 -0.1012
 4765W        W 8829   4.300   0.411   3.083 -0.1251  0.0830  0.2317
 4766W        W 8830   3.127   0.072  11.246  0.3580 -0.0922 -0.3330
 4767W        W 8831   6.432   8.817   0.635 -0.0127  0.1551 -0.0759
 4768W        W 8832   6.481   7.195   2.176  0.1519 -0.1684 -0.1502
 4769W        W 8833   0.862   1.188  11.011  0.1237 -0.2301 -0.0112
 4770W        W 8834   9.662   3.720   9.329  0.3388  0.0494  0.1155
 4771W        W 8835   5.496   5.157   1.986 -0.0417  0.0132 -0.0783
 4772W        W 8836   0.900   2.750   4.584  0.0400  0.1603  0.0124
 4773W        W 8837   6.282   8.018   9.302 -0.3190  0.0926 -0.2563
 4774W        W 8838   4.319   6.726   2.215 -0.2115  0.1325  0.2123
 4775W        W 8839   1.922   0.108   2.243  0.1672 -0.0309  0.1213
 4776W        W 8840   7.566  10.134  11.373 -0.3221  0.0470  0.1771
 4777W        W 8841   2.910   5.225   2.883 -0.2035  0.1831 -0.1465
 4778W        W 8842   8.056   4.716  10.319 -0.0618 -0.1252 -0.0361
 4779W        W 8843   7.121  10.323   0.570 -0.0243 -0.1007  0.2933
 4780W        W 8844   0.790  10.340  10.485 -0.0069 -0.1918 -0.2225
 4781W        W 8845  10.090   4.428  10.419  0.1413 -0.3256  0.0632
 4782W        W 8846   2.532   9.221  10.742  0.1427  0.2940  0.2516
 4783W        W 8847   2.776   8.386   2.467  0.1259  0.0171 -0.2882
 4784W        W 8848   7.644   7.540   1.690 -0.1837 -0.1114 -0.1553
 4785W        W 8849   5.834   2.337   9.760  0.0718 -0.0283  0.1039
 4786W        W 8850   9.372  10.479   0.330 -0.0209 -0.0540  0.1345
 4787W        W 8851   3.671   0.389   0.589  0.2931 -0.1955 -0.1086
 4788W        W 8852   2.746   3.666   1.498 -0.2484  0.0909  0.2747
 4789W        W 8853   7.636   7.969   3.042 -0.1188  0.2412  0.1911
 4790W        W 8854   0.236   0.330   1.839 -0.0243  0.1779 -0.1396
 4791W        W 8855   1.281   6.964   3.450 -0.0523 -0.3575  0.3922
 4792W        W 8856   6.053   2.155   3.190 -0.3356 -0.0577  0.1660
 4793W        W 8857   9.378   7.965   1.534 -0.1622  0.3261  0.0021
 4794W        W 8858   0.414   5.267   1.211 -0.0188  0.1060  0.0095
 4795W        W 8859   2.516   3.429   2.013  0.1546  0.3322  0.3860
 4796W        W 8860   0.207   3.758   8.277 -0.0873 -0.0779 -0.1531
 4797W        W 8861   0.895   7.321   3.230 -0.2221 -0.1788 -0.4901
 4798W        W 8862   7.386   8.796   9.382 -0.0214 -0.0005 -0.0770
 4799W        W 8863   5.267   5.069   2.844  0.0046  0.0841 -0.0518
 4800W        W 8864   6.398   5.818   7.848  0.2543  0.2602  0.2004
 4801W        W 8865   4.759   1.391   2.108 -0.0885  0.1030  0.1266
 4802W        W 8866   9.619   5.948   9.157  0.2828  0.0798  0.0439
 4803W        W 8867   7.153   4.509   1.305  0.0953 -0.1884  0.1981
 4804W        W 8868   9.330   5.392  10.055 -0.0713 -0.0560 -0.0612
 4805W        W 8869   6.113   9.540   1.267 -0.1434 -0.0853  0.0018
 4806W        W 8870   0.411   9.121  10.125  0.2209 -0.0816 -0.1548
 4807W        W 8871   6.193   7.492  11.398 -0.3121  0.1281  0.0106
 4808W        W 8872   2.621   8.331   3.128  0.3150 -0.0018 -0.0937
 4809W        W 8873   2.293   4.205   0.855 -0.1377  0.0921  0.3408
 4810W        W 8874   3.288   2.957  10.684 -0.1961  0.0953  0.3074
 4811W        W 8875   3.166   8.741   0.288  0.3376  0.3164  0.1356
 4812W        W 8876   1.211   8.385   0.357 -0.3449  0.5547 -0.1477
 4813W        W 8877   9.969   9.096   2.689 -0.0557 -0.0063 -0.0199
 4814W        W 8878   0.846   5.677   7.365 -0.3705 -0.3427  0.0567
 4815W        W 8879   6.526   9.281   0.907  0.2035  0.2134  0.2299
 4816W        W 8880   1.247   0.644  11.466 -0.0526 -0.0861  0.0475
 4817W        W 8881  10.041   4.805   9.844  0.2275 -0.1357 -0.0302
 4818W        W 8882   7.188   7.331  11.281 -0.1128 -0.0978 -0.5208
 4819W        W 8883   0.322   9.099   0.428  0.0039 -0.0030  0.0464
 4820W        W 8884   5.160   8.916   9.387  0.0370  0.2297 -0.0855
 4821W        W 8885  10.031   3.167   8.208 -0.0290  0.1339  0.0796
 4822W        W 8886   8.100   7.468   9.159  0.0824  0.0739 -0.1262
 4823W        W 8887   6.651   5.760   1.671  0.1637 -0.1210 -0.1486
 4824W        W 8888   3.676   9.878   1.146 -0.0373  0.0306  0.2978
 4825W        W 8889   1.429   7.872   1.527 -0.0448  0.2450  0.1466
 4826W        W 8890   6.296   5.779   2.031 -0.2010  0.0375  0.1511
 4827W        W 8891   6.345   0.141   1.983 -0.1641  0.2000  0.0916
 4828W        W 8892   9.839   6.910   7.803 -0.0125 -0.1433 -0.2508
 4829W        W 8893   5.051   3.710   2.744  0.0452  0.0820  0.2525
 4830W        W 8894   6.578   0.309   2.929  0.3270  0.2195 -0.2514
 4831W        W 8895   2.878   7.177   8.450  0.0498 -0.0430 -0.0895
 4832W        W 8896   4.806   5.261  10.681 -0.2183 -0.1553 -0.0993
 4833W        W 8897   7.442   2.758   1.641 -0.1495  0.0629  0.0333
 4834W        W 8898   5.344   9.773  11.555  0.0460  0.2504 -0.1770
 4835W        W 8899   3.670   8.902  11.357  0.2373 -0.4788  0.2765
 4836W        W 8900   4.575   4.811  11.185 -0.1163  0.1649 -0.0291
 4837W        W 8901   7.739   0.558   3.648  0.0978 -0.3548  0.0127
 4838W        W 8902   3.841   8.585   3.116 -0.0443  0.4978 -0.1556
 4839W        W 8903   6.763   1.606   1.334  0.2151 -0.0381  0.2778
 4840W        W 8904   6.906   0.847  11.209 -0.1022  0.1876  0.1971
 4841W        W 8905   9.809   9.584   2.953 -0.0554  0.1557 -0.2959
 4842W        W 8906   5.001   5.397   3.523  0.1889  0.0046 -0.1598
 4843W        W 8907   7.722   0.025   8.097  0.1266  0.1020 -0.1310
 4844W        W 8908   0.811   9.102   0.633 -0.1414 -0.1861  0.2562
 4845W        W 8909   9.367   6.254   0.000  0.0100  0.0016  0.2519
 4846W        W 8910   5.439   7.003  11.449 -0.1292 -0.1835 -0.0789
 4847W        W 8911   1.112   5.876   2.195 -0.4270 -0.0894 -0.0693
 4848W        W 8912   0.536   6.476   9.792  0.0407  0.2953  0.2369
 4849W        W 8913   9.221   1.832   3.041 -0.4283  0.0259 -0.0766
 4850W        W 8914   6.743   8.409  11.494 -0.1884 -0.2137  0.0438
 4851W        W 8915   7.622   6.929   0.222 -0.0728 -0.0396  0.5018
 4852W        W 8916   7.357   5.461   8.863  0.1929  0.0021 -0.3181
 4853W        W 8917   4.669   4.288   8.423  0.2351 -0.0567 -0.1516
 4854W        W 8918   5.656   6.015   9.564  0.1418 -0.4111  0.0326
 4855W        W 8919   0.102   4.605   0.052 -0.3857  0.0472  0.0306
 4856W        W 8920   9.944   3.416  10.553  0.3223  0.1718  0.4439
 4857W        W 8921   5.402   5.400   2.390  0.0811  0.0208 -0.0538
 4858W        W 8922   3.007   3.414  10.637 -0.2691  0.2188  0.2552
 4859W        W 8923   9.930   6.275   9.871  0.1695 -0.1806 -0.1983
 4860W        W 8924   1.765   4.749   1.982  0.0105  0.1378  0.2775
 4861W        W 8925   8.840   8.441  11.035  0.0588  0.0295  0.1873
 4862W        W 8926   4.720   4.949   4.469 -0.4327 -0.1740 -0.2316
 4863W        W 8927   2.164  10.256   3.128 -0.0800 -0.0859  0.4618
 4864W        W 8928   3.463   7.563   3.379  0.0065 -0.0431 -0.3241
 4865W        W 8929   7.627   5.308   9.235 -0.2173 -0.1256 -0.1050
 4866W        W 8930   2.655   2.540   1.239  0.1099 -0.0775 -0.2141
 4867W        W 8931  10.213   4.163   3.068  0.4004  0.0003  0.3908
 4868W        W 8932   0.718   4.042  10.935  0.3755  0.1289 -0.1034
 4869W        W 8933   6.381   1.310   1.256  0.1418  0.3813  0.0051
 4870W        W 8934   3.751  10.337   2.895  0.4126 -0.0534 -0.0528
 4871W        W 8935   9.223   0.540   8.951  0.0764 -0.3367 -0.0233
 4872W        W 8936   7.958   3.227   0.240 -0.2935  0.0514 -0.1380
 4873W        W 8937   0.052   5.732   1.096 -0.0886 -0.1979  0.1053
 4874W        W 8938  10.470   0.437   9.134 -0.0079  0.1170 -0.0690
 4875W        W 8939   1.138   5.913   0.771 -0.0747  0.1589 -0.3267
 4876W        W 8940   5.328   5.633   0.590 -0.1705  0.3287 -0.2347
 4877W        W 8941   2.420   5.267   9.584 -0.0428 -0.1137  0.2396
 4878W        W 8942   6.587   4.669  10.185  0.2778 -0.2806  0.0565
 4879W        W 8943   6.712   7.813   8.783 -0.2483 -0.1122  0.1188
 4880W        W 8944   2.541   4.212   9.283 -0.2074  0.1361  0.1481
 4881W        W 8945   5.223   5.771   1.562 -0.0395  0.2564  0.0856
 4882W        W 8946   5.691   9.093   3.073 -0.1775  0.1322 -0.1260
 4883W        W 8947   4.380   3.535   0.829 -0.0346 -0.0481  0.3247
 4884W        W 8948   8.234   6.083  10.472 -0.3156 -0.1415  0.0034
 4885W        W 8949   5.334   9.695   1.136 -0.0938 -0.1689 -0.0279
 4886W        W 8950   3.236   8.254   8.982  0.1226  0.0864 -0.0475
 4887W        W 8951   8.981   6.670   1.579 -0.1949 -0.0964  0.1595
 4888W        W 8952   2.381   0.485   1.267  0.0732 -0.3552  0.4520
 4889W        W 8953   5.493   2.552   3.543  0.0585 -0.0025  0.0289
 4890W        W 8954   7.866   9.292  11.355  0.2058  0.2194 -0.1054
 4891W        W 8955   3.453   9.426   0.995  0.1686  0.0694  0.2502
 4892W        W 8956   3.033   6.743   8.909  0.0559  0.0871 -0.0267
 4893W        W 8957   2.503  10.153   2.335 -0.1406  0.1468 -0.0037
 4894W        W 8958   3.274   8.752   1.599 -0.3599 -0.0170  0.0321
 4895W        W 8959   1.498   2.582   9.033 -0.0984  0.1662 -0.2222
 4896W        W 8960   4.173   2.433   0.719  0.1339 -0.0098  0.1787
 4897W        W 8961   0.676   0.701   0.542  0.1201 -0.0532  0.0878
 4898W        W 8962   5.005   7.025  11.101  0.0032 -0.0335 -0.1031
 4899W        W 8963   2.640   5.596   9.305 -0.1293 -0.0624 -0.3112
 4900W        W 8964   5.669   0.875   9.255 -0.0046  0.0550 -0.0186
 4901W        W 8965   3.198   3.950   0.589 -0.2268  0.0691 -0.4049
 4902W        W 8966   3.198   7.643  10.268  0.1278  0.1713 -0.0292
 4903W        W 8967  10.631   1.074   9.546  0.0176 -0.0629 -0.1263
 4904W        W 8968   2.851  10.298   8.985  0.2697 -0.1618 -0.3269
 4905W        W 8969   2.263   0.351   2.955 -0.4231 -0.0663  0.3270
 4906W        W 8970   0.593   4.212   9.474  0.1518  0.1477  0.0936
 4907W        W 8971   3.503   3.370  10.891 -0.2087 -0.3288  0.0122
 4908W        W 8972   2.910   6.033  10.155 -0.0287 -0.0870 -0.1307
 4909W        W 8973   5.381   1.636   4.219 -0.0658  0.2108  0.0808
 4910W        W 8974   7.470   8.442   2.784 -0.1046 -0.0820  0.1797
 4911W        W 8975   4.862   6.104   3.310 -0.0739  0.0765  0.3478
 4912W        W 8976   2.697   8.941   1.422 -0.1818  0.3193 -0.0091
 4913W        W 8977   3.031   3.217  10.095  0.0834 -0.2290 -0.1189
 4914W        W 8978   2.810   3.341   3.164 -0.0551  0.0546  0.3284
 4915W        W 8979   6.083   1.709   2.984 -0.0090  0.2455  0.0057
 4916W        W 8980   8.921   9.805   2.477 -0.6985  0.0590 -0.1710
 4917W        W 8981   7.137   8.776   2.832  0.1818 -0.1279  0.1306
 4918W        W 8982   0.156   3.364   9.092  0.0219 -0.1515  0.0909
 4919W        W 8983   1.333   4.436   2.941 -0.0582 -0.2502 -0.1452
 4920W        W 8984   3.473   2.205  11.198  0.3433  0.2542  0.2752
 4921W        W 8985   8.437   8.651  11.148 -0.2187 -0.1788  0.2683
 4922W        W 8986   4.006   7.845   1.702 -0.1151 -0.4260 -0.1108
 4923W        W 8987   5.303   9.505   9.140 -0.1954  0.1511  0.0805
 4924W        W 8988   0.095   4.770  11.104  0.2719 -0.2541  0.0549
 4925W        W 8989   4.349   0.745   8.612 -0.1531  0.0091 -0.0240
 4926W        W 8990   4.104   5.914   9.197 -0.2311 -0.2517 -0.4081
 4927W        W 8991   1.622   2.209   2.263  0.1867 -0.0526  0.3206
 4928W        W 8992   1.936   5.196   2.139  0.2815  0.2513  0.1073
 4929W        W 8993   6.468   9.586  10.837  0.2543 -0.3118  0.1260
 4930W        W 8994   0.296   3.991   1.632 -0.1301  0.1268 -0.0966
 4931W        W 8995   2.763   3.915   9.625  0.1705 -0.0425  0.1967
 4932W        W 8996   0.141   1.814   1.260 -0.0204  0.1990  0.0577
 4933W        W 8997   8.589   9.190   0.199 -0.0201 -0.0498 -0.1905
 4934W        W 8998   7.484   5.285   9.754 -0.1992 -0.2804 -0.1363
 4935W        W 8999   3.532   1.000  11.482  0.1325  0.2520 -0.2322
 4936W        W 9000   9.371   9.561   0.308 -0.0226 -0.0480  0.0867
 4937W        W 9001   8.532   5.279   0.874 -0.0030 -0.0424 -0.3728
 4938W        W 9002   6.089   9.982   8.217 -0.3296 -0.0814  0.0071
 4939W        W 9003   5.967   8.135   1.776 -0.1120 -0.0241  0.1217
 4940W        W 9004   4.881   0.003   2.025  0.0820  0.3164 -0.1253
 4941W        W 9005  10.209   4.472   2.136 -0.1760  0.1869  0.2563
 4942W        W 9006   9.869   4.168   1.018 -0.0256 -0.0168 -0.0311
 4943W        W 9007   6.038   8.675  10.395 -0.3008  0.0905 -0.0755
 4944W        W 9008   5.654   2.207  10.956  0.2655 -0.0233 -0.3746
 4945W        W 9009  10.355   4.742   0.483  0.1551 -0.1877  0.2778
 4946W        W 9010  10.137  10.623   0.780 -0.2429 -0.2245  0.1481
 4947W        W 9011   2.678   9.912   0.776 -0.0321  0.3333 -0.2380
 4948W        W 9012   1.256  10.386   9.118  0.0587  0.3199 -0.2113
 4949W        W 9013   4.860   1.311   0.274 -0.0651  0.0895 -0.4278
 4950W        W 9014   3.031   0.090   1.300 -0.4214 -0.4359 -0.0111
 4951W        W 9015   9.619   6.100   0.415 -0.0033  0.1964 -0.1727
 4952W        W 9016   1.542   7.197   0.420 -0.1131  0.1535 -0.4517
 4953W        W 9017   5.381   3.520   1.025 -0.0844 -0.0353 -0.4174
 4954W        W 9018   5.140   6.459   1.964 -0.1450  0.1499  0.1753
 4955W        W 9019   9.047   8.735  11.426  0.1190 -0.2881  0.0758
 4956W        W 9020  10.048   7.151   3.997 -0.2277 -0.0805  0.3305
 4957W        W 9021   3.340   3.247   2.078  0.3135 -0.2788  0.0263
 4958W        W 9022   7.390   3.177   2.773  0.1324 -0.2311 -0.0566
 4959W        W 9023   9.987  10.055  10.010 -0.0585 -0.4196 -0.1873
 4960W        W 9024   0.902  10.384   9.969  0.1020  0.2017  0.1301
 4961W        W 9025   2.905   9.297   2.351 -0.0948  0.0190  0.1951
 4962W        W 9026   9.182   3.378   9.765  0.7309 -0.0678 -0.0989
 4963W        W 9027   2.988   9.012   3.127  0.2461 -0.2780  0.0527
 4964W        W 9028   8.916   7.762   9.981 -0.1129  0.0074 -0.1142
 4965W        W 9029   2.139   2.047   9.859  0.1390 -0.0819 -0.0458
 4966W        W 9030   7.169   5.427   8.234  0.0318 -0.5094  0.2479
 4967W        W 9031   8.269   5.078   1.334  0.0408  0.1050 -0.2077
 4968W        W 9032   4.614   7.981   8.808 -0.2010  0.1024  0.1291
 4969W        W 9033   0.864   6.993   9.167  0.2223  0.2019 -0.0126
 4970W        W 9034   7.975   4.461   2.434 -0.0293 -0.0143  0.2514
 4971W        W 9035   9.849   0.092   1.690 -0.2226  0.3038 -0.1265
 4972W        W 9036   4.069   9.768   1.638  0.3139  0.1196  0.0554
 4973W        W 9037   4.880   3.034   4.005 -0.0918  0.2783  0.0140
 4974W        W 9038   8.584   0.193   9.032  0.0230 -0.0696  0.0328
 4975W        W 9039   8.100   4.825   8.497 -0.1691 -0.0097 -0.0103
 4976W        W 9040   9.524   5.772   1.749  0.3159  0.2384  0.2028
 4977W        W 9041   1.893   0.941   1.063  0.1019 -0.0796 -0.0751
 4978W        W 9042   5.137   7.623   1.561  0.2299 -0.3704 -0.0142
 4979W        W 9043   7.510   8.752  11.079 -0.2185  0.0160  0.0253
 4980W        W 9044   9.149   1.781   2.583  0.1217 -0.2192  0.0578
 4981W        W 9045   7.822   6.423   0.421  0.1888  0.1519  0.2588
 4982W        W 9046   5.611   3.132   2.435 -0.0865 -0.1459  0.4253
 4983W        W 9047   2.738   6.370   9.767 -0.2991  0.1430  0.1136
 4984W        W 9048   0.222   1.133  10.074  0.0919  0.0598 -0.2244
 4985W        W 9049   8.644   8.224   0.374 -0.0710  0.1782 -0.3035
 4986W        W 9050   6.461   7.219   3.649 -0.1549  0.0622 -0.2150
 4987W        W 9051   6.379   1.546  10.262 -0.2397 -0.1889 -0.1339
 4988W        W 9052   4.349   5.705   0.416 -0.3168 -0.0822  0.0313
 4989W        W 9053   6.950  10.282   2.411 -0.4549 -0.2267  0.1079
 4990W        W 9054   0.644   2.475   8.773 -0.0459 -0.2253  0.1498
 4991W        W 9055   0.552   5.725   0.836 -0.1033 -0.4148  0.2625
 4992W        W 9056   9.800   5.904   8.091  0.1848 -0.2180  0.0283
 4993W        W 9057   0.506   6.178   2.167 -0.0153 -0.2952 -0.0602
 4994W        W 9058   4.133   7.995   7.291 -0.0049 -0.0756 -0.1099
 4995W        W 9059   5.935   9.704   7.849 -0.0700  0.1450 -0.0491
 4996W        W 9060   6.697   9.204   2.085 -0.2472  0.2026 -0.3047
 4997W        W 9061   6.397   1.227   9.802  0.0345 -0.3929 -0.1849
 4998W        W 9062   7.711   8.448  10.123 -0.2907  0.1614  0.5440
 4999W        W 9063   8.295   0.638   3.572 -0.0908 -0.2535 -0.1280
 5000W        W 9064   9.874   1.051   8.008 -0.1464  0.0716  0.1064
 5001W        W 9065   3.777   6.147   7.962 -0.2804  0.0624 -0.0180
 5002W        W 9066   6.818   6.170   2.948  0.1578  0.2916  0.2384
 5003W        W 9067  10.028   0.226   3.152 -0.1465 -0.0736  0.1535
 5004W        W 9068   0.562   3.220   2.108 -0.1523  0.1506  0.1816
 5005W        W 9069   4.954   5.355   1.252  0.0589  0.1146 -0.1811
 5006W        W 9070   3.322   7.580   2.369  0.0673 -0.5460 -0.0104
 5007W        W 9071   5.423   1.188   3.885 -0.0389 -0.4099 -0.1957
 5008W        W 9072   9.840   7.382   9.416 -0.2854  0.1373  0.2214
 5009W        W 9073   8.599   2.351   9.889  0.2360 -0.0618 -0.4264
 5010W        W 9074   6.237  10.274   8.855  0.1466 -0.0739 -0.0200
 5011W        W 9075   2.621   6.847  10.657 -0.1266 -0.0537 -0.1100
 5012W        W 9076   8.669   3.565   3.385 -0.5408 -0.0714 -0.0824
 5013W        W 9077   1.208   4.573  11.483  0.0755  0.1078 -0.1454
 5014W        W 9078   3.257   1.131   7.022 -0.0367 -0.2326 -0.0558
 5015W        W 9079   4.629   6.750   9.047  0.1093 -0.0268  0.1113
 5016W        W 9080   3.958   8.070   8.305 -0.0497 -0.1098  0.1927
 5017W        W 9081   3.738   9.114   0.349 -0.1159  0.1651 -0.0237
 5018W        W 9082   7.398   0.591  10.446  0.0634 -0.3615  0.1885
 5019W        W 9083   4.179   3.154  11.557 -0.1097 -0.1974 -0.1434
 5020W        W 9084   4.562   3.400   8.890 -0.2074  0.2164 -0.0521
 5021W        W 9085   5.747   5.952   8.499  0.0744 -0.1458 -0.1744
 5022W        W 9086   9.491   8.831   9.200  0.2498  0.1911 -0.1058
 5023W        W 9087  10.236   5.941   1.262  0.4021  0.1700  0.0612
 5024W        W 9088   1.232   7.329   9.345  0.2454  0.4047  0.2315
 5025W        W 9089   7.175   3.819   1.875  0.0977 -0.1605 -0.3184
 5026W        W 9090   6.161   5.702   3.426  0.0423  0.0863 -0.1526
 5027W        W 9091   5.392   6.039  10.397  0.0962  0.0416  0.3037
 5028W        W 9092   7.790   6.295   9.451 -0.5512  0.1369  0.0774
 5029W        W 9093   7.635   4.598   8.291  0.0503 -0.0296 -0.0789
 5030W        W 9094   4.241   6.754   3.245  0.2793  0.2401  0.3167
 5031W        W 9095   9.884   0.604   2.208 -0.0612  0.0558 -0.2518
 5032W        W 9096   7.203   1.016  10.798  0.0196 -0.1431  0.1364
 5033W        W 9097   8.430   4.753   2.560 -0.0788 -0.4713 -0.1814
 5034W        W 9098   2.350   1.674   3.200 -0.1814 -0.0233 -0.0262
 5035W        W 9099   7.908   2.408   9.513  0.0848  0.2883  0.2149
 5036W        W 9100   3.208   0.552   0.613  0.0878 -0.1009  0.1062
 5037W        W 9101   1.403  10.448   9.598  0.1472 -0.1693  0.3338
 5038W        W 9102  10.221   6.721  10.121  0.4208 -0.1041  0.0487
 5039W        W 9103   7.391   8.951   2.184 -0.0530  0.0087 -0.1939
 5040W        W 9104   2.122   9.284   9.006 -0.0449 -0.2136 -0.0182
 5041W        W 9105   2.361   7.988   1.018 -0.0446  0.2353 -0.2489
 5042W        W 9106   8.362   6.526   2.207  0.0014 -0.0054  0.2646
 5043W        W 9107   5.470   6.324   8.066 -0.0029  0.0268 -0.0513
 5044W        W 9108   2.815   3.099  10.982 -0.0641  0.2234 -0.0298
 5045W        W 9109   1.764   3.060   3.073 -0.0687 -0.0068 -0.1853
 5046W        W 9110   5.212   3.704   2.068 -0.0071  0.1117  0.3281
 5047W        W 9111   5.793   0.280   0.696  0.1906 -0.4057  0.0099
 5048W        W 9112   3.622   4.140   8.467 -0.5235 -0.1379 -0.0455
 5049W        W 9113   3.910   3.082   9.334  0.2136  0.0492  0.1708
 5050W        W 9114   1.160   8.489   8.648 -0.2533  0.2282 -0.2354
 5051W        W 9115  10.186   1.989   3.513  0.1273 -0.0055  0.3545
 5052W        W 9116   8.314   3.916   3.385  0.0862  0.3042 -0.2330
 5053W        W 9117   3.723   4.520  10.655  0.0523 -0.2646  0.2068
 5054W        W 9118   4.194  10.338   9.438  0.3141 -0.1035  0.0526
 5055W        W 9119   3.513   9.889  10.683 -0.2908 -0.2679  0.0210
 5056W        W 9120   7.555   4.269   1.980  0.1598 -0.2025  0.0502
 5057W        W 9121   4.052   8.936   2.839  0.0281  0.3243  0.1397
 5058W        W 9122   4.228   4.837   2.691  0.1968  0.0121 -0.0553
 5059W        W 9123   6.515   2.275  10.247 -0.0531 -0.0915  0.0299
 5060W        W 9124   8.489   2.577   2.312  0.4206  0.3760  0.0302
 5061W        W 9125   5.527   6.934   1.855  0.2023  0.0495  0.0355
 5062W        W 9126   4.053   7.775   2.444  0.1199 -0.1287  0.1220
 5063W        W 9127   3.893   0.977  10.309 -0.2126 -0.2084  0.0570
 5064W        W 9128   7.962   9.451   0.875  0.0934 -0.2135  0.2006
 5065W        W 9129   2.101   0.102   9.987 -0.1265 -0.3954  0.1054
 5066W        W 9130   0.043  10.204   8.853 -0.0669  0.2236  0.0865
 5067W        W 9131   0.594   1.767   8.164  0.2633 -0.2093 -0.0373
 5068W        W 9132   0.831   8.991   9.836 -0.1587  0.2293  0.2158
 5069W        W 9133   1.402   9.065   1.847 -0.2554  0.1279 -0.1751
 5070W        W 9134   6.260   0.133   8.818  0.1365 -0.1700  0.0502
 5071W        W 9135   0.890   5.715   2.824 -0.1339  0.3141 -0.0873
 5072W        W 9136   1.738   9.597   2.562 -0.0451 -0.1292  0.1569
 5073W        W 9137   4.502   5.221   9.691  0.1841  0.2455  0.2851
 5074W        W 9138  10.044   0.981   2.547 -0.1131  0.0994 -0.3536
 5075W        W 9139   9.243   2.614   8.985 -0.0826 -0.1892 -0.1738
 5076W        W 9140   6.838   1.119   8.355  0.5526 -0.1211 -0.3294
 5077W        W 9141   9.283   1.157   1.836  0.3460  0.2086 -0.0410
 5078W        W 9142   1.830   0.332   0.377 -0.1469 -0.3905  0.1089
 5079W        W 9143   3.568   1.733   1.882 -0.2570 -0.0560  0.0139
 5080W        W 9144   0.530   9.833   2.678  0.0327  0.1540  0.1499
 5081W        W 9145   1.863   2.524   2.538 -0.2835 -0.0868 -0.1663
 5082W        W 9146   3.470   6.941   1.639  0.1949  0.2613 -0.0312
 5083W        W 9147   8.436   3.923   8.806  0.0037  0.2684  0.0741
 5084W        W 9148   8.386   7.286  10.558 -0.1760  0.1434  0.0736
 5085W        W 9149   1.927   6.200  10.340  0.1176 -0.1807 -0.1066
 5086W        W 9150   8.857   6.805   7.931  0.0421  0.1194  0.0642
 5087W        W 9151   3.957   5.954  10.361 -0.1576  0.2121 -0.1279
 5088W        W 9152   6.555  10.228  10.972 -0.1513  0.0339  0.4424
 5089W        W 9153   9.742   1.041   0.437 -0.0208 -0.3951 -0.4770
 5090W        W 9154   4.320   1.613   9.641  0.1619 -0.1099 -0.0892
 5091W        W 9155   8.798   1.582  11.130  0.1327  0.1998  0.0690
 5092W        W 9156   4.931   9.712  10.782 -0.2537  0.1792  0.0073
 5093W        W 9157   4.191  10.612   2.086  0.0782  0.1603  0.1829
 5094W        W 9158   4.280   6.882  11.481 -0.0099  0.0927  0.3172
 5095W        W 9159   6.553   8.444   1.580  0.4256 -0.2202 -0.0966
 5096W        W 9160   0.116   6.692   3.677 -0.0284 -0.0562  0.0268
 5097W        W 9161   9.318   0.862   0.034 -0.0920  0.1608 -0.0998
 5098W        W 9162   0.222   3.304  11.384  0.2996  0.0115 -0.0107
 5099W        W 9163   4.573   8.316   9.761 -0.1588 -0.0399  0.3253
 5100W        W 9164   6.216   2.056   8.601  0.2063 -0.1861  0.1598
 5101W        W 9165   6.376   9.948   9.395 -0.0163 -0.0392  0.0298
 5102W        W 9166   4.385   0.020   0.250 -0.1254 -0.1214 -0.0491
 5103W        W 9167   5.658   6.917   0.542  0.0241 -0.0324 -0.0764
 5104W        W 9168   4.328   3.954   9.000 -0.2816  0.1757  0.2008
 5105W        W 9169   2.665   8.397  11.459  0.0686  0.0227  0.2509
 5106W        W 9170   6.469  10.569   9.233  0.4089  0.0828  0.0011
 5107W        W 9171   6.398   1.817  11.369  0.0500 -0.1903 -0.2582
 5108W        W 9172   1.004   4.101   3.074 -0.1415 -0.0521 -0.1998
 5109W        W 9173   7.940   6.011   0.005 -0.0028 -0.4738  0.1876
 5110W        W 9174   3.414   1.010   0.443 -0.2192 -0.1994  0.1170
 5111W        W 9175   8.536   1.133  10.761  0.1288  0.0932  0.3240
 5112W        W 9176   0.480   7.568   9.944  0.0111  0.3302  0.0563
 5113W        W 9177  10.491   2.870   2.195 -0.0372 -0.1034 -0.1472
 5114W        W 9178   1.845   9.444   9.429 -0.0195  0.1836 -0.2132
 5115W        W 9179   2.531   6.271   8.228 -0.0518  0.1658  0.0530
 5116W        W 9180   9.018   1.224   0.897 -0.0485  0.2425 -0.2671
 5117W        W 9181   0.520  10.483   8.995  0.0349  0.3953  0.0530
 5118W        W 9182   6.605   3.801   0.540 -0.0018  0.2472  0.0817
 5119W        W 9183   8.018   6.150  10.008  0.3945 -0.0528 -0.2262
 5120W        W 9184   5.398   8.634   3.120  0.2810  0.0777  0.1111
 5121W        W 9185   3.300   3.087  11.231 -0.2576  0.1158 -0.0006
 5122W        W 9186  10.644   9.805   9.672 -0.2183  0.0725 -0.0454
 5123W        W 9187   6.938   4.124   9.523 -0.1174 -0.0433  0.2286
 5124W        W 9188   6.780   3.367  10.344 -0.1072 -0.0150  0.0229
 5125W        W 9189   4.335   2.471   2.866  0.0405  0.1194 -0.1527
 5126W        W 9190   4.063   5.455   0.732 -0.0094 -0.1410 -0.0247
 5127W        W 9191   2.373   4.118   8.777  0.2518 -0.1632  0.2470
 5128W        W 9192   9.636   8.284   2.512  0.0169 -0.0051  0.1519
 5129W        W 9193   6.797   5.261   2.548  0.0562  0.0173 -0.3316
 5130W        W 9194   9.122   9.673   9.458 -0.1929  0.1856  0.0805
 5131W        W 9195   0.001   3.208   8.600 -0.2604 -0.0033 -0.0262
 5132W        W 9196   2.001   6.264   9.435 -0.0902  0.2131 -0.0624
 5133W        W 9197   3.102   2.507  10.898  0.0979 -0.4433 -0.2224
 5134W        W 9198   8.591   7.358   7.613 -0.2079  0.0560  0.2109
 5135W        W 9199   4.767   7.310   1.507 -0.1149 -0.0407 -0.0883
 5136W        W 9200   1.332   8.584   2.037 -0.0791  0.0132 -0.0405
 5137W        W 9201   7.529   8.829   1.010 -0.4510 -0.1182 -0.1011
 5138W        W 9202   2.882   7.920  11.328 -0.3275 -0.3481  0.0031
 5139W        W 9203   7.397   8.525   3.710  0.1087 -0.1528  0.0413
 5140W        W 9204   6.771   3.388   1.397 -0.0716  0.1082  0.1068
 5141W        W 9205   3.858   7.896   3.584 -0.1793  0.3187  0.1996
 5142W        W 9206   9.192   8.222   1.063  0.2560 -0.1982  0.2476
 5143W        W 9207   3.627   5.072  11.406  0.4758  0.0131 -0.0059
 5144W        W 9208   0.060   9.073  11.127  0.1177  0.0094  0.3655
 5145W        W 9209   7.522   6.862  11.228  0.1977  0.0642  0.0035
 5146W        W 9210   3.823   0.067   8.653 -0.2630 -0.1667 -0.2985
 5147W        W 9211   5.219   6.699   9.914  0.1863 -0.2276  0.2791
 5148W        W 9212   3.193   9.420   9.098 -0.0623  0.2208  0.0188
 5149W        W 9213   3.032   4.395   7.701  0.0056  0.3709 -0.0700
 5150W        W 9214   5.414   8.423  11.006 -0.1137 -0.1193  0.1225
 5151W        W 9215  10.226   4.694  10.952  0.4151 -0.0746  0.1403
 5152W        W 9216   5.894   8.870   2.301  0.0207  0.0843  0.0482
 5153W        W 9217   8.815   5.877   7.875 -0.1299 -0.1429  0.0293
 5154W        W 9218   2.157   6.112   2.013 -0.3119  0.0206  0.1411
 5155W        W 9219   9.444   7.167   8.727  0.2156 -0.0904 -0.1647
 5156W        W 9220   5.342   3.126   0.431  0.2101  0.2193 -0.3058
 5157W        W 9221   8.136   9.941  10.660 -0.1056  0.1138  0.2887
 5158W        W 9222   0.653   1.565   1.311 -0.0187  0.0171 -0.0373
 5159W        W 9223   6.217   9.778   8.959  0.2212 -0.1479 -0.2255
 5160W        W 9224   5.076   7.223   8.117  0.1151  0.0742 -0.0089
 5161W        W 9225   8.810   5.292   8.040 -0.1969 -0.2077 -0.0377
 5162W        W 9226   1.990   4.809   9.606  0.1461  0.0172  0.0849
 5163W        W 9227   8.237   7.471   0.330  0.1987  0.3219 -0.1982
 5164W        W 9228   8.177  10.332  11.153  0.2799  0.2273  0.2828
 5165W        W 9229   7.355   9.441   1.506  0.3942 -0.0089 -0.0645
 5166W        W 9230   8.948   1.896   4.036 -0.0121 -0.0837 -0.0600
 5167W        W 9231   7.699   6.990   1.480  0.0301  0.0561 -0.0146
 5168W        W 9232   6.175   6.955   0.730 -0.0602  0.0548  0.2050
 5169W        W 9233   6.323   1.095   8.444 -0.1666 -0.0314 -0.1375
 5170W        W 9234   1.202   5.996   3.087  0.0394  0.0881 -0.0910
 5171W        W 9235   4.404   5.468   1.982  0.0260  0.0204 -0.1405
 5172W        W 9236   3.982   8.054   0.826 -0.3636  0.3045  0.0970
 5173W        W 9237   3.677   2.790   8.520 -0.1628  0.0472  0.3541
 5174W        W 9238   6.944   2.211   1.594  0.1959  0.0641 -0.2257
 5175W        W 9239   7.682   0.833  10.809 -0.2886  0.1355  0.0117
 5176W        W 9240   1.998   1.073   9.843  0.2298  0.0163 -0.0605
 5177W        W 9241   7.136   2.670   1.060  0.0592  0.1100  0.1319
 5178W        W 9242   4.263   7.165   1.576 -0.1683 -0.1598  0.0853
 5179W        W 9243   3.153   2.407   9.941 -0.0370 -0.0177 -0.2237
 5180W        W 9244   6.006   8.762   1.853 -0.1520 -0.0575  0.0550
 5181W        W 9245   5.255   2.407  10.720 -0.0856  0.2879 -0.0982
 5182W        W 9246   8.018   2.956   9.427 -0.1157  0.2349 -0.1037
 5183W        W 9247   9.880   1.642  10.971  0.2583 -0.1939 -0.2151
 5184W        W 9248   1.263   5.844   8.128  0.3777  0.0430  0.1232
 5185W        W 9249   0.625   1.700   0.822 -0.0884 -0.0811  0.1391
 5186W        W 9250   7.376   4.973   4.100  0.2204  0.1544  0.4445
 5187W        W 9251   8.505   0.445   9.450 -0.4707 -0.1340 -0.1712
 5188W        W 9252  10.161   7.564   0.999  0.2196  0.2379 -0.0228
 5189W        W 9253   0.134   5.307  10.920 -0.3566  0.0615  0.0194
 5190W        W 9254   6.576   8.956   1.688  0.1380  0.0118  0.1779
 5191W        W 9255   5.785   5.829   1.295  0.1874  0.1634 -0.1919
 5192W        W 9256   3.538   5.438   1.371 -0.1424  0.0872  0.1573
 5193W        W 9257   6.973   0.804   7.637 -0.0027 -0.0325  0.0503
 5194W        W 9258  10.371   4.656   1.201  0.1610 -0.4877 -0.2627
 5195W        W 9259   2.915   6.722   2.492 -0.2825 -0.4683 -0.0819
 5196W        W 9260   6.277   0.534   0.805 -0.1157  0.0660 -0.0467
 5197W        W 9261   8.651   4.552   8.900 -0.1085  0.3597  0.0712
 5198W        W 9262   9.914   1.813   0.002  0.1712 -0.2566  0.1990
 5199W        W 9263   1.538   3.362   9.382  0.1093  0.0036  0.0118
 5200W        W 9264   4.439   0.926   3.017 -0.1421 -0.0393  0.2397
 5201W        W 9265   5.754   7.627   9.929 -0.1257  0.0586  0.1799
 5202W        W 9266   8.235   5.137   1.843  0.0580 -0.2868  0.4113
 5203W        W 9267   8.473   3.401   2.174 -0.1743  0.0574  0.1533
 5204W        W 9268   5.676   9.458   0.794 -0.0721 -0.1800  0.1687
 5205W        W 9269  10.454   3.009   3.671  0.1377  0.1572 -0.1885
 5206W        W 9270   0.255   5.296   1.648  0.1944  0.0075  0.1207
 5207W        W 9271  10.273   8.463   9.557  0.2186 -0.0905 -0.1197
 5208W        W 9272   3.906   5.481   1.693 -0.0779 -0.2813 -0.2165
 5209W        W 9273  10.565   0.547   9.590  0.0462  0.1065  0.0401
 5210W        W 9274   6.070   9.877   2.715 -0.0828  0.1356  0.0205
 5211W        W 9275   5.642   9.966   0.743 -0.0199  0.1646 -0.1543
 5212W        W 9276   8.492   7.494  11.432 -0.1274 -0.3068  0.1408
 5213W        W 9277   9.428   1.941   9.768  0.2682  0.1244  0.2604
 5214W        W 9278   2.487   1.928   8.294 -0.0777  0.0050  0.0110
 5215W        W 9279   6.082   3.039   3.702  0.3932  0.1370 -0.1833
 5216W        W 9280   7.024   8.110   0.424  0.1998 -0.0678 -0.2051
 5217W        W 9281   9.546   8.715   3.268  0.0048 -0.1286 -0.2832
 5218W        W 9282   7.100   1.937  10.983 -0.2704  0.2623  0.4224
 5219W        W 9283   2.384   5.116   2.762 -0.1959 -0.2272  0.1712
 5220W        W 9284   9.504   5.798   0.811 -0.0422  0.0122 -0.2543
 5221W        W 9285   4.844   4.751   8.783  0.2595  0.3582  0.1535
 5222W        W 9286   5.476   2.771   0.787 -0.0873  0.2486 -0.1778
 5223W        W 9287   5.116   7.396  11.416  0.0705  0.0442 -0.0095
 5224W        W 9288   5.663   6.873   2.482 -0.0624 -0.4918 -0.2685
 5225W        W 9289   4.732  10.017   7.524 -0.0207  0.5706  0.1994
 5226W        W 9290   4.424   6.429   8.715  0.1782 -0.0944  0.1107
 5227W        W 9291   8.553   5.963  10.023 -0.0264 -0.0436  0.0811
 5228W        W 9292   4.626   7.225   9.378 -0.2461  0.0361 -0.3282
 5229W        W 9293   1.780   7.820   9.298  0.2447 -0.1036 -0.1165
 5230W        W 9294   1.926   7.467  10.829  0.1755 -0.0661  0.0263
 5231W        W 9295  10.096   7.185   3.241 -0.1641  0.3386  0.5409
 5232W        W 9296   3.002   6.049   8.371  0.3709 -0.1082 -0.0895
 5233W        W 9297   5.375   8.034   3.917 -0.0478 -0.0953 -0.0179
 5234W        W 9298   9.718   2.536   2.547  0.1086 -0.1390  0.1283
 5235W        W 9299   0.849   0.799   1.812  0.0255  0.0901 -0.0251
 5236W        W 9300   1.717   4.249   8.152 -0.0752 -0.0119 -0.0596
 5237W        W 9301   4.541   9.370   8.662  0.0764  0.0564  0.1288
 5238W        W 9302  10.416   3.352   4.163 -0.0397  0.0231 -0.0339
 5239W        W 9303   3.612   6.775   8.697  0.1453  0.2421 -0.0090
 5240W        W 9304   7.342   2.090   7.773  0.3207 -0.0949  0.0139
 5241W        W 9305   4.749   6.618   2.431  0.1134  0.0725 -0.1055
 5242W        W 9306   6.406   9.050  10.809  0.2064 -0.1680 -0.2123
 5243W        W 9307   0.655   1.993   2.444 -0.1289  0.1751 -0.3308
 5244W        W 9308   1.135   4.132  10.696 -0.2947  0.0665  0.1036
 5245W        W 9309   0.256   2.759   8.314 -0.2232 -0.0186  0.0944
 5246W        W 9310   9.061   5.923   0.411 -0.1816  0.2694 -0.2321
 5247W        W 9311   9.956   1.847   1.617 -0.2697 -0.1846  0.0702
 5248W        W 9312   4.955   3.924   8.264  0.1259  0.0261 -0.3068
 5249W        W 9313   8.616   1.994  11.329 -0.1573  0.0960 -0.1499
 5250W        W 9314   4.753   3.488   8.129  0.2385  0.1911  0.2111
 5251W        W 9315   7.664   5.910   2.493 -0.2395  0.4179 -0.1476
 5252W        W 9316   5.449   5.068   9.668  0.2004 -0.0240  0.5428
 5253W        W 9317   2.772   7.710   9.045 -0.1182  0.1604  0.0080
 5254W        W 9318   5.864   7.477   7.507  0.1171 -0.0415  0.1007
 5255W        W 9319   7.399   9.073  10.639 -0.1681  0.0801  0.2575
 5256W        W 9320   6.153  10.358  10.662  0.1117 -0.0179  0.3706
 5257W        W 9321   1.811   8.550   2.174  0.0307 -0.0563 -0.1132
 5258W        W 9322  10.196   7.948   9.529  0.3209  0.1075  0.2013
 5259W        W 9323   5.532   5.504   2.892  0.0012  0.2973  0.0301
 5260W        W 9324   8.310   5.008   3.650 -0.4311 -0.0007 -0.0554
 5261W        W 9325   5.095   8.058   8.318 -0.1001 -0.2570 -0.2633
 5262W        W 9326   8.427   9.466   3.036 -0.0449  0.0547 -0.2165
 5263W        W 9327  10.631  10.617   0.072 -0.1052  0.4043 -0.0204
 5264W        W 9328   2.048   1.862   9.271  0.0434 -0.2532 -0.2099
 5265W        W 9329   7.391   5.020  11.273 -0.0571 -0.0188 -0.1268
 5266W        W 9330   0.454   6.956   3.218 -0.0645  0.1188 -0.1089
 5267W        W 9331   3.908   0.212   2.778  0.1289  0.0681 -0.0523
 5268W        W 9332   8.394   1.337   2.546  0.3456  0.2776 -0.3369
 5269W        W 9333   6.431   8.743   0.146  0.0515  0.0451 -0.3199
 5270W        W 9334  10.308   5.065   3.026 -0.2863  0.1081  0.0107
 5271W        W 9335   3.937   4.011  10.889  0.1989 -0.1109  0.3038
 5272W        W 9336   7.693   7.338  11.242 -0.0399  0.2860 -0.1594
 5273W        W 9337   9.088   1.775   2.046 -0.2039 -0.1616  0.0969
 5274W        W 9338   1.502  10.525  11.197  0.1378  0.0024 -0.1591
 5275W        W 9339   5.115   5.962   9.216  0.1357  0.1294 -0.2203
 5276W        W 9340   4.079   7.564   1.275  0.4047  0.2669  0.0140
 5277W        W 9341  10.214   4.015  11.398  0.0120  0.2592 -0.2741
 5278W        W 9342   7.456   3.156   0.405 -0.0889 -0.0845  0.1079
 5279W        W 9343   5.734   6.743   7.968 -0.2407 -0.1240  0.0107
 5280W        W 9344   6.732   1.840   1.802  0.1602  0.0087 -0.2554
 5281W        W 9345   4.085   2.957   8.263 -0.0326  0.2785  0.1911
 5282W        W 9346  10.058   4.933  10.340 -0.2187 -0.0120 -0.1748
 5283W        W 9347   6.093   5.494   1.025 -0.1276  0.3459 -0.1473
 5284W        W 9348   5.441   7.258   8.475 -0.3218 -0.3172 -0.2007
 5285W        W 9349   9.287   8.296   2.101 -0.0862  0.1236  0.0470
 5286W        W 9350   3.015   7.449   9.395 -0.1336 -0.3149 -0.2448
 5287W        W 9351   2.969   1.822   0.343  0.2119  0.1173 -0.0263
 5288W        W 9352   6.735   1.269   0.450  0.3127  0.0908 -0.0132
 5289W        W 9353   4.824   6.267   8.960  0.2371 -0.1741  0.2702
 5290W        W 9354   9.682   2.245  11.350  0.1610  0.2676 -0.0440
 5291W        W 9355   9.700   1.084   9.015  0.2248  0.1714  0.3633
 5292W        W 9356   1.666   2.225   8.564 -0.2986 -0.0979  0.1099
 5293W        W 9357   6.252   4.624   1.850  0.4514 -0.1811  0.1840
 5294W        W 9358   8.390  10.361   0.973 -0.1899 -0.2906  0.2038
 5295W        W 9359   9.730   8.294   9.333 -0.0612  0.1956  0.1494
 5296W        W 9360   1.507   9.274   0.231 -0.1532  0.0409 -0.3005
 5297W        W 9361   6.613   9.482   8.928 -0.4103 -0.0589  0.4340
 5298W        W 9362   8.830   6.183   2.971  0.2632 -0.0620 -0.1572
 5299W        W 9363   2.251   5.721   0.101 -0.3834 -0.2087 -0.1412
 5300W        W 9364   4.777   7.234   8.795  0.1777 -0.3498  0.1493
 5301W        W 9365   6.137   2.567  10.332 -0.1338  0.3836  0.0702
 5302W        W 9366   0.793   7.792   3.405 -0.2277 -0.0798 -0.1638
 5303W        W 9367   7.987   4.989   2.364 -0.4138 -0.3444 -0.0711
 5304W        W 9368   6.947   0.348  11.175 -0.0862 -0.6659  0.1122
 5305W        W 9369  10.596   8.282   0.716  0.0858 -0.4993 -0.0604
 5306W        W 9370   8.477   3.260   3.025  0.0568 -0.2314 -0.0038
 5307W        W 9371   6.439   5.309   3.997 -0.1007 -0.4526  0.0569
 5308W        W 9372   7.861   8.260   2.073  0.2858 -0.1284  0.1729
 5309W        W 9373   0.695   5.116   9.687 -0.0476 -0.2219  0.1647
 5310W        W 9374   9.370   3.685   1.874 -0.2339  0.3244  0.0023
 5311W        W 9375   7.198   1.236   9.613  0.1043  0.0348 -0.2711
 5312W        W 9376   3.587   3.869   1.726  0.1655 -0.1621 -0.0839
 5313W        W 9377   0.514  10.073   9.659  0.1393 -0.3046 -0.1889
 5314W        W 9378   3.904   3.772   2.918 -0.1213 -0.0699 -0.0968
 5315W        W 9379   2.707   4.712   2.812  0.4709 -0.1536 -0.3637
 5316W        W 9380   1.200   7.904   3.129 -0.0194  0.2095  0.1755
 5317W        W 9381   3.026   0.188   2.351  0.0730 -0.3216  0.0985
 5318W        W 9382   8.072   2.586   2.596  0.1587  0.2473 -0.1193
 5319W        W 9383   4.364   6.271  11.270  0.1428 -0.2227 -0.1828
 5320W        W 9384   3.950   6.239   2.830 -0.1619  0.3295  0.3258
 5321W        W 9385   2.501   7.713  10.142 -0.0297  0.0513 -0.0163
 5322W        W 9386   8.019   5.858   8.346  0.4483 -0.0867  0.0114
 5323W        W 9387  10.044   7.484   1.559 -0.4013 -0.0648  0.0752
 5324W        W 9388   4.126   2.436  10.785  0.2422 -0.0320 -0.5338
 5325W        W 9389   4.036   4.209  10.325 -0.0895  0.0308 -0.0419
 5326W        W 9390   8.620   4.792   1.546  0.2479  0.2436  0.0916
 5327W        W 9391   7.954   0.538   2.691  0.2699 -0.1288  0.0496
 5328W        W 9392   4.195   5.932   3.310 -0.1402 -0.0976 -0.1343
 5329W        W 9393   1.047  10.374   2.680  0.1422  0.0621 -0.0352
 5330W        W 9394   0.067   1.928   2.636 -0.0436 -0.1793 -0.0746
 5331W        W 9395   8.449  10.223   9.144 -0.1304 -0.2333 -0.0446
 5332W        W 9396   6.362   4.925   2.249  0.1125  0.0926 -0.2081
 5333W        W 9397  10.374   7.173  11.385  0.0923  0.1166  0.3373
 5334W        W 9398   2.721  10.491   1.984  0.1673 -0.1801 -0.1898
 5335W        W 9399   3.821   3.368   0.882 -0.0261  0.2359  0.2196
 5336W        W 9400   5.082   3.353  10.487  0.2248 -0.0847  0.1353
 5337W        W 9401   4.939   6.236  10.161 -0.0501  0.2322  0.2393
 5338W        W 9402   9.600   0.285  11.139 -0.0609 -0.2087 -0.1985
 5339W        W 9403   2.843   8.835  10.315 -0.1741  0.0149  0.0305
 5340W        W 9404   1.904   5.815   0.424  0.0408  0.5182  0.0347
 5341W        W 9405   9.688   1.816   3.637  0.1066 -0.0898 -0.0926
 5342W        W 9406   8.674   3.023   8.459  0.2995 -0.1635 -0.0368
 5343W        W 9407   6.876   9.878  10.842 -0.4321 -0.1208 -0.0511
 5344W        W 9408   5.741   9.599   8.834  0.1398  0.1194  0.0949
 5345W        W 9409   5.947   8.092   0.686  0.0765 -0.1148  0.2134
 5346W        W 9410   5.101   1.082   9.556  0.0211  0.1622  0.3232
 5347W        W 9411   0.005  10.213   9.359 -0.2169  0.1104  0.6264
 5348W        W 9412   9.414   8.079   9.056 -0.2549 -0.4381 -0.1621
 5349W        W 9413   5.718   5.423   3.348 -0.1786  0.0687 -0.1113
 5350W        W 9414   6.893   0.640   0.102 -0.2747  0.3006 -0.1178
 5351W        W 9415   1.873   4.685   8.342  0.1172  0.0787 -0.3925
 5352W        W 9416  10.450   1.955   8.906  0.2695 -0.0238 -0.1152
 5353W        W 9417   2.995  10.221  11.420  0.0081 -0.0522  0.0252
 5354W        W 9418   9.321  10.530  10.026  0.1222  0.2453  0.1491
 5355W        W 9419   0.367   0.070   1.460 -0.0031  0.0620 -0.3764
 5356W        W 9420   7.733   1.956   4.147  0.0449  0.3298  0.0446
 5357W        W 9421   9.174   8.980   7.972  0.1719 -0.3768  0.0411
 5358W        W 9422   9.795   4.429   2.357  0.0761 -0.1199 -0.1671
 5359W        W 9423   7.924   7.336  10.736 -0.2301  0.0503 -0.1718
 5360W        W 9424   8.998   4.129  11.016 -0.0031 -0.4084 -0.1739
 5361W        W 9425   1.337   7.319   9.820  0.3040 -0.1706 -0.0179
 5362W        W 9426   1.026   3.362   9.176 -0.1645  0.0932 -0.2994
 5363W        W 9427   7.575   5.195   3.642  0.0381 -0.1394 -0.1335
 5364W        W 9428   1.988   0.284   9.458  0.1995 -0.1610 -0.2049
 5365W        W 9429   6.762   1.149   3.355  0.1407 -0.3224  0.0176
 5366W        W 9430   9.261   2.201   3.400  0.1744 -0.0842  0.2008
 5367W        W 9431   3.956   8.991  10.929  0.1549 -0.0223  0.3401
 5368W        W 9432   7.637   9.507   9.849 -0.1504 -0.3991 -0.0406
 5369W        W 9433   6.060   1.917   1.919  0.0007 -0.1670  0.0422
 5370W        W 9434   1.628   4.201  10.966  0.0901 -0.2585  0.0776
 5371W        W 9435   0.804   5.167   2.827  0.1438  0.0185  0.0807
 5372W        W 9436   3.555   8.458   1.312  0.1538  0.0109 -0.0393
 5373W        W 9437   3.316   0.770   1.041  0.0018 -0.0972 -0.0607
 5374W        W 9438   5.660  10.330  10.948  0.2600  0.1591  0.0159
 5375W        W 9439   8.633   7.330   9.994 -0.1958  0.4048 -0.1672
 5376W        W 9440   1.967   1.425   2.339  0.1850  0.0205  0.1175
 5377W        W 9441   3.904  10.105   8.870 -0.3039  0.3890 -0.0333
 5378W        W 9442   9.061   7.200   0.891  0.3692  0.0059 -0.3020
 5379W        W 9443   6.585   1.810   2.601  0.1403 -0.0193  0.0548
 5380W        W 9444   9.943   1.965   9.063 -0.1333 -0.0457  0.3427
 5381W        W 9445   4.693   2.129   2.623 -0.0586 -0.4199 -0.3266
 5382W        W 9446   7.412   8.360   0.304  0.2058 -0.3225  0.0077
 5383W        W 9447   9.955   0.376   1.011 -0.1941 -0.1920 -0.0469
 5384W        W 9448   0.605   6.646   2.650  0.1998  0.2024 -0.2747
 5385W        W 9449   9.015   2.752   9.800 -0.0395  0.0971 -0.0517
 5386W        W 9450   7.440   2.888   8.651  0.1568  0.0086 -0.0348
 5387W        W 9451   2.314   2.174   3.382 -0.2579  0.3104  0.0210
 5388W        W 9452   2.858   5.009   1.030  0.1149  0.4232  0.1038
 5389W        W 9453   0.264   0.946   0.072 -0.1045  0.3404 -0.1792
 5390W        W 9454   4.123   8.321   3.366 -0.2865 -0.1322 -0.1663
 5391W        W 9455   0.412   9.537  10.963 -0.0709  0.1717  0.3440
 5392W        W 9456   1.433   3.314  10.823  0.0056  0.1570 -0.2477
 5393W        W 9457   9.502   6.589   1.834  0.2998  0.0614  0.0719
 5394W        W 9458  10.522   5.436   9.526 -0.0592 -0.2001  0.2227
 5395W        W 9459   5.453   2.522   8.732  0.1905  0.0646 -0.1129
 5396W        W 9460   4.941   3.685   9.072 -0.2223 -0.1431 -0.1596
 5397W        W 9461   3.309   9.249   0.167  0.1006 -0.1537  0.2023
 5398W        W 9462   0.927  10.021   0.970  0.0053 -0.3698  0.1205
 5399W        W 9463   2.706   5.443   0.838 -0.2159  0.0902 -0.1062
 5400W        W 9464   5.223   3.602   0.517  0.1206 -0.1154 -0.0666
 5401W        W 9465   6.277   6.412  10.594  0.1929 -0.1716  0.0246
 5402W        W 9466   9.918   8.002   1.645 -0.3249  0.1858  0.1878
 5403W        W 9467   4.233   5.554  10.039  0.0537 -0.1391 -0.2915
 5404W        W 9468   0.290  10.356   0.772 -0.2364  0.1110 -0.0326
 5405W        W 9469   0.539  10.595   2.501  0.0871 -0.2487 -0.2065
 5406W        W 9470   0.825   6.805   0.614  0.1336  0.0571 -0.2570
 5407W        W 9471   0.801   2.473   0.316  0.1116  0.0950  0.0796
 5408W        W 9472   9.747   4.947   2.283  0.2160 -0.2769 -0.1647
 5409W        W 9473   4.472   1.581   1.288  0.0620  0.1388 -0.2519
 5410W        W 9474   7.411   6.354   0.092 -0.2528  0.0278  0.0067
 5411W        W 9475   9.339   1.614  10.421 -0.0256  0.1564 -0.2629
 5412W        W 9476   1.243  10.019   1.445  0.1679 -0.1162 -0.0492
 5413W        W 9477   5.070   0.042   8.081  0.0828  0.1349 -0.2020
 5414W        W 9478   2.948   1.831   9.563  0.0830 -0.1703  0.1373
 5415W        W 9479   5.898  10.446   7.899 -0.4445 -0.0436 -0.0397
 5416W        W 9480   0.019  10.094  10.417  0.1989 -0.1459  0.0570
 5417W        W 9481   1.777   7.671  11.287  0.2954  0.3301 -0.2035
 5418W        W 9482   6.268   6.920   8.709  0.0910 -0.4605 -0.1419
 5419W        W 9483   4.524   2.905   8.736 -0.1891 -0.1265 -0.2296
 5420W        W 9484   3.587   9.739   9.124 -0.1711  0.0951  0.0105
 5421W        W 9485   3.788   2.835   1.781  0.0695 -0.1934  0.3404
 5422W        W 9486   5.116   4.587   0.939 -0.2328  0.1659  0.0044
 5423W        W 9487   4.197   1.277  10.045  0.1020  0.0499 -0.1984
 5424W        W 9488   4.876   5.155   3.117 -0.1263 -0.2126 -0.2869
 5425W        W 9489   8.846   2.973   2.262  0.2625  0.1818  0.2829
 5426W        W 9490   2.032   5.685   8.677  0.0908  0.2722  0.0779
 5427W        W 9491   0.257   8.029   2.946 -0.0465  0.2488  0.1356
 5428W        W 9492   5.696   0.565  10.445 -0.0477  0.3989 -0.1619
 5429W        W 9493   3.504   6.834  10.090  0.1936  0.2238  0.3161
 5430W        W 9494   5.442   8.608  11.539  0.3878  0.1250  0.0149
 5431W        W 9495   1.003   4.964   2.274 -0.2396  0.1171 -0.0429
 5432W        W 9496   0.643   2.718  10.310  0.1411  0.0610  0.3244
 5433W        W 9497   1.039   7.667   0.985  0.3096  0.2081 -0.0225
 5434W        W 9498  10.165   5.249   0.389  0.1785 -0.1718  0.2498
 5435W        W 9499   6.265   2.070   3.649  0.2196  0.3479 -0.2639
 5436W        W 9500   7.306   1.038   1.651 -0.1175 -0.4577  0.1842
 5437W        W 9501   9.361   2.206   2.178  0.3933 -0.0849 -0.0812
 5438W        W 9502   8.382   7.877   0.569 -0.3137  0.2166 -0.2198
 5439W        W 9503   6.805   5.715   2.746 -0.0648 -0.1301  0.2731
 5440W        W 9504   4.020   3.074   8.799  0.0431  0.0876  0.0939
 5441W        W 9505   6.945   0.597  10.727 -0.1601  0.4334 -0.2695
 5442W        W 9506   6.204   3.604  10.307  0.0288  0.3414 -0.1270
 5443W        W 9507   3.857   7.635   8.659 -0.1343  0.1632  0.4235
 5444W        W 9508   9.815   7.995   8.089 -0.2680 -0.0657 -0.1975
 5445W        W 9509   3.200   1.166   2.899 -0.1019  0.0874 -0.2597
 5446W        W 9510   1.816   6.004   4.368  0.1582 -0.2397  0.0942
 5447W        W 9511   4.718   1.459   9.876 -0.2134  0.0417  0.0589
 5448W        W 9512   3.913   9.157   3.232  0.3319 -0.0411 -0.1801
 5449W        W 9513   3.083   3.316   1.093  0.2685  0.3896 -0.2978
 5450W        W 9514   1.912   0.560   3.369  0.1003  0.1408  0.0625
 5451W        W 9515   9.769   1.791  10.110 -0.0590 -0.1078  0.1454
 5452W        W 9516   7.859   1.836   8.739  0.1653 -0.1853  0.1640
 5453W        W 9517   1.662   1.860   9.585 -0.0576 -0.0921  0.2931
 5454W        W 9518   4.161   9.436  10.742 -0.1370  0.2724  0.1827
 5455W        W 9519   6.635   1.862   9.383 -0.1146  0.1153  0.1908
 5456W        W 9520   8.108   2.658   0.923  0.1447 -0.1962  0.1110
 5457W        W 9521   5.695   1.046   2.310  0.2343  0.2581 -0.2266
 5458W        W 9522   7.992   1.776  11.443 -0.0355 -0.2767 -0.2111
 5459W        W 9523   6.891   1.251   7.874 -0.3127 -0.0905 -0.1728
 5460W        W 9524   7.824   3.114   0.811  0.2657 -0.0197 -0.0018
 5461W        W 9525   8.466   5.132   9.568  0.3083  0.2146  0.1657
 5462W        W 9526   1.636   5.525   8.838  0.2111  0.2238 -0.0134
 5463W        W 9527   2.028   1.569   9.805 -0.1117 -0.1472 -0.0191
 5464W        W 9528   6.339   2.639   7.646  0.1533 -0.2124 -0.1069
 5465W        W 9529   9.397   6.841   0.787  0.0730  0.0437  0.1297
 5466W        W 9530   5.983   5.068   1.717 -0.0522  0.2201  0.0967
 5467W        W 9531   3.417   9.541   2.485  0.2035 -0.0716  0.0529
 5468W        W 9532   7.841   9.210   9.503 -0.3455  0.0281  0.2283
 5469W        W 9533   2.743   5.193   0.042  0.1731  0.1163 -0.0913
 5470W        W 9534   2.870   0.084   8.679  0.0105  0.4894  0.0239
 5471W        W 9535   6.295   9.989   1.117  0.3520  0.2224 -0.2149
 5472W        W 9536   4.601   8.110   3.229  0.0988 -0.1227 -0.0969
 5473W        W 9537   4.374   2.197   1.367 -0.0359  0.2735  0.1982
 5474W        W 9538   1.348   8.608   9.153  0.2010  0.1014  0.0552
 5475W        W 9539   2.874   2.657   1.715 -0.2767 -0.1156  0.2770
 5476W        W 9540   7.190   2.544   3.395  0.2138 -0.2955 -0.0099
 5477W        W 9541   0.741   9.343   2.856 -0.1260  0.1037  0.0886
 5478W        W 9542   8.494  10.133   8.374  0.0240  0.0544  0.1237
 5479W        W 9543   6.700   3.501   0.096  0.2137 -0.1252 -0.3536
 5480W        W 9544   2.664   0.106   9.993  0.0636  0.0531 -0.0382
 5481W        W 9545   2.385   5.251   4.246 -0.0953  0.2091  0.4202
 5482W        W 9546   4.479   9.558   1.954 -0.0034  0.1595  0.1001
 5483W        W 9547   5.907   0.580   1.564 -0.0552  0.0157  0.1399
 5484W        W 9548   3.917   1.474   2.469  0.1814  0.1676 -0.1522
 5485W        W 9549   7.295   4.249   8.114 -0.0917  0.1094 -0.3181
 5486W        W 9550   7.289   1.970   1.912  0.0277  0.1981  0.0027
 5487W        W 9551   0.753   3.816   8.478  0.1276 -0.1675  0.0131
 5488W        W 9552   8.653   7.522   1.020 -0.0596 -0.5221  0.0271
 5489W        W 9553   3.101   1.936  11.021  0.3165  0.1613  0.0053
 5490W        W 9554   6.650   7.726   0.396 -0.3674 -0.1684 -0.2006
 5491W        W 9555   7.201   3.610  10.732  0.0010 -0.3329 -0.0971
 5492W        W 9556   2.668   5.038   7.604 -0.0133 -0.0221  0.1605
 5493W        W 9557   3.029   5.822   2.727  0.1337  0.2070 -0.0451
 5494W        W 9558   8.485   8.845   1.130 -0.1362 -0.2838  0.2083
 5495W        W 9559   2.612   1.444   0.010  0.2386  0.1019 -0.0996
 5496W        W 9560   5.546  10.463   0.659 -0.2066  0.3199  0.1061
 5497W        W 9561   3.658   0.046  11.215  0.1201  0.0426  0.0571
 5498W        W 9562   3.377   0.578   9.648 -0.1248 -0.1049 -0.0889
 5499W        W 9563   8.409   0.826   0.226 -0.3243 -0.0794 -0.0710
 5500W        W 9564   2.268   0.491   2.496  0.3103 -0.1871  0.0655
 5501W        W 9565   0.997   0.040   2.248  0.0365  0.0867  0.1341
 5502W        W 9566   5.501   6.299   9.076  0.2012 -0.2741  0.0117
 5503W        W 9567   4.506   8.040  10.926  0.5394 -0.0472 -0.0266
 5504W        W 9568  10.585   4.530  10.677 -0.4362  0.0170  0.0386
 5505W        W 9569   4.051   1.228   9.451  0.2051 -0.1639  0.2006
 5506W        W 9570   5.847   5.978   3.138 -0.0347 -0.1257 -0.4364
 5507W        W 9571   6.825  10.124   3.249  0.0503 -0.1002  0.1012
 5508W        W 9572   2.763   4.338   1.791 -0.0184 -0.2360  0.2083
 5509W        W 9573   1.230   4.408   8.019  0.1337  0.0821  0.3273
 5510W        W 9574   4.864   2.303   9.444 -0.1502 -0.1144  0.3496
 5511W        W 9575   9.741   7.836  11.416  0.1236  0.1148 -0.0660
 5512W        W 9576   4.891   1.179  10.336 -0.2155 -0.1462 -0.1938
 5513W        W 9577   0.617   8.918   1.559  0.1485  0.1238 -0.1374
 5514W        W 9578   4.639   4.148  10.205  0.3822  0.1559  0.0908
 5515W        W 9579  10.415   2.444   3.853  0.1942 -0.1890  0.0797
 5516W        W 9580   5.789   3.487   9.439 -0.2109  0.2373 -0.0159
 5517W        W 9581   9.256   4.115  10.600  0.2213 -0.1518 -0.1201
 5518W        W 9582   0.825   1.461  10.239 -0.1197  0.1639 -0.0422
 5519W        W 9583   2.144   1.439   8.954 -0.2069  0.2986  0.0117
 5520W        W 9584   2.502   2.990  11.323 -0.1323 -0.1962 -0.2424
 5521W        W 9585   8.705   9.607  11.391  0.0030  0.0879  0.3001
 5522W        W 9586   2.955   6.212   3.210 -0.2618  0.0579 -0.1360
 5523W        W 9587   3.894   3.594   2.260 -0.0216 -0.0605  0.0245
 5524W        W 9588  10.065   4.539   0.123 -0.0552 -0.1676  0.0639
 5525W        W 9589   5.376   3.172   3.615 -0.2320 -0.0457 -0.0041
 5526W        W 9590   9.979   4.008   2.677 -0.2293 -0.2545  0.1195
 5527W        W 9591   1.697   1.361  10.603  0.0823 -0.0038 -0.0061
 5528W        W 9592   6.231   8.661   2.913  0.1002 -0.1119  0.0166
 5529W        W 9593  10.062   8.547   1.509  0.2206  0.1872 -0.1303
 5530W        W 9594   8.722   9.162   1.522 -0.0122  0.1185 -0.3024
 5531W        W 9595   5.071   8.851  11.277 -0.2569 -0.2119 -0.1530
 5532W        W 9596  10.191   2.640   1.367 -0.1766 -0.3666  0.1821
 5533W        W 9597   6.505   3.069   9.665  0.0047 -0.1848  0.0171
 5534W        W 9598  10.372   7.700  10.576  0.2420 -0.1015  0.0147
 5535W        W 9599  10.655   2.379   8.482  0.1857  0.0637  0.0723
 5536W        W 9600   9.345   4.598  10.881  0.0510  0.1690 -0.2170
 5537W        W 9601   3.157   2.625   7.306 -0.0377  0.0332 -0.3836
 5538W        W 9602   7.709   4.633  11.344  0.1266  0.0993 -0.2438
 5539W        W 9603  10.603   7.206   9.288 -0.0103 -0.2622  0.0260
 5540W        W 9604   5.642   1.772   8.349 -0.0648 -0.0403  0.2861
 5541W        W 9605   5.414  10.433   7.843 -0.0498 -0.2751  0.0084
 5542W        W 9606   8.019   1.097   8.360 -0.0285 -0.0208 -0.0700
 5543W        W 9607   7.157   9.800   1.217  0.1461 -0.2059 -0.0989
 5544W        W 9608   2.367   9.385   0.605  0.1653 -0.0762 -0.0356
 5545W        W 9609   1.007   2.003   0.427 -0.0694  0.1311 -0.2659
 5546W        W 9610   4.156   0.033   8.315  0.1458  0.1186  0.2938
 5547W        W 9611   8.391   7.682  10.858 -0.1511 -0.0277 -0.4295
 5548W        W 9612   2.354   6.553   3.801  0.1298  0.2237  0.0404
 5549W        W 9613   3.556   1.608   7.874 -0.3573  0.1425 -0.2509
 5550W        W 9614   3.614   2.413  10.129 -0.0764 -0.1333 -0.1108
 5551W        W 9615   7.677   4.856   0.648 -0.0801 -0.1734 -0.0472
 5552W        W 9616   0.228   7.777  10.483  0.2037 -0.2447  0.1761
 5553W        W 9617   5.387   3.757   3.983 -0.0528  0.3022 -0.0221
 5554W        W 9618   6.993   4.591   8.319 -0.1516  0.2789  0.3206
 5555W        W 9619   1.444   7.627   0.606 -0.1730 -0.2146  0.1849
 5556W        W 9620   9.571   4.474   9.033  0.0207 -0.0187 -0.1413
 5557W        W 9621   0.291   0.412   3.388 -0.0376 -0.2809  0.3211
 5558W        W 9622   2.932   6.155   7.353 -0.0398 -0.0688 -0.0384
 5559W        W 9623   6.036   3.903   9.218 -0.0944  0.1502 -0.2916
 5560W        W 9624   4.654   4.301  11.275  0.1253 -0.3215  0.2922
 5561W        W 9625   0.759  10.365   1.748  0.1108  0.3012  0.1825
 5562W        W 9626   3.576   6.303   1.034  0.0687 -0.0141  0.0761
 5563W        W 9627   9.258   8.201  11.096  0.0434  0.1528 -0.1293
 5564W        W 9628   9.607   4.371   0.023 -0.0253  0.4084  0.0674
 5565W        W 9629   6.774   8.617   9.981 -0.0559 -0.0848 -0.1337
 5566W        W 9630   5.764   9.625   8.367  0.0557 -0.2584  0.2174
 5567W        W 9631   0.446   6.246   8.287  0.3189 -0.1619  0.1319
 5568W        W 9632   9.202   1.683   8.749  0.0236  0.0171 -0.0957
 5569W        W 9633   9.902   6.473  11.515 -0.1438  0.1536 -0.0986
 5570W        W 9634   4.409   6.281   3.044  0.1336 -0.2786  0.0524
 5571W        W 9635   8.188   8.607   9.985 -0.3844  0.0134  0.0639
 5572W        W 9636   9.605   6.933   7.340  0.3075 -0.0669  0.0932
 5573W        W 9637  10.516   3.793   3.202  0.1221  0.1827 -0.1308
 5574W        W 9638   7.129  10.078   9.054  0.1751  0.1345 -0.1663
 5575W        W 9639  10.118   6.867   0.232 -0.0663  0.1512 -0.1123
 5576W        W 9640   3.673   5.035   2.508  0.0601  0.0693  0.0466
 5577W        W 9641   9.036   7.907   3.476 -0.1755  0.1060 -0.1652
 5578W        W 9642   6.435   9.497   1.631 -0.2138 -0.2520 -0.0444
 5579W        W 9643   0.383   7.970   8.547  0.1196 -0.1519 -0.3619
 5580W        W 9644   2.137   4.360  10.262  0.2131  0.0568  0.2836
 5581W        W 9645   6.600   9.328  11.202 -0.1517 -0.2057 -0.1691
 5582W        W 9646   5.941   8.748   0.485 -0.1231  0.1344  0.0403
 5583W        W 9647   2.825   2.935  10.508  0.1845 -0.3204 -0.0983
 5584W        W 9648   7.340  10.552   8.777  0.3574 -0.0367 -0.0021
 5585W        W 9649   2.424   6.190  10.380  0.3096  0.0313  0.1610
 5586W        W 9650   7.053   6.222   3.353  0.1258 -0.1574 -0.0190
 5587W        W 9651   9.321   1.195   1.326  0.2407  0.2937 -0.1010
 5588W        W 9652   4.163   6.348   7.256 -0.2192  0.0702  0.1135
 5589W        W 9653   2.370   0.009   9.453 -0.2975  0.0762 -0.0449
 5590W        W 9654   1.379   6.996  10.212  0.2048  0.1569 -0.1507
 5591W        W 9655   0.534   6.567   9.161  0.0461  0.1088 -0.2277
 5592W        W 9656  10.573   5.852  10.292  0.1638 -0.0665 -0.0251
 5593W        W 9657   9.268   0.949   9.337  0.0641  0.0116  0.0963
 5594W        W 9658  10.614   7.426  10.114 -0.1352  0.1172 -0.1035
 5595W        W 9659   5.276   3.565   8.177 -0.0409 -0.0704  0.0636
 5596W        W 9660   0.448   0.222   0.375 -0.2983 -0.0109 -0.0496
 5597W        W 9661   6.251   3.606   3.695  0.0058  0.0817 -0.1052
 5598W        W 9662   9.707   1.188   2.184 -0.2942  0.1271 -0.0456
 5599W        W 9663   6.933   5.242   1.630  0.0281  0.1011 -0.2160
 5600W        W 9664   5.586   8.420  10.564 -0.0595 -0.2205 -0.1294
 5601W        W 9665   9.258   3.024   8.757 -0.1647 -0.3009  0.0694
 5602W        W 9666   4.109   1.783   0.128  0.0915 -0.0573  0.1395
 5603W        W 9667   1.588   9.743   0.088  0.2236 -0.3424  0.0412
 5604W        W 9668   2.994   8.454   1.280  0.1736 -0.2914  0.1962
 5605W        W 9669   8.791   6.293   9.632  0.2755 -0.0033  0.0501
 5606W        W 9670   3.708   2.934   0.003  0.0816  0.1942  0.3169
 5607W        W 9671   2.946   9.865   3.756  0.1179  0.0333  0.1506
 5608W        W 9672   3.059   2.750   3.356  0.3020 -0.1557 -0.1424
 5609W        W 9673   5.224   4.006   2.423 -0.0003 -0.0614  0.2622
 5610W        W 9674   5.805   8.385   2.174  0.0186  0.1058 -0.3333
 5611W        W 9675   0.004   9.331   8.396  0.1272  0.0846  0.0393
 5612W        W 9676   6.858   9.098   8.589 -0.0923 -0.1211  0.0550
 5613W        W 9677   3.286   7.019  10.896  0.3785 -0.1738 -0.0017
 5614W        W 9678   1.789  10.500   1.819 -0.1980 -0.1048 -0.0034
 5615W        W 9679   9.998   3.602   7.808  0.0887  0.0171 -0.2447
 5616W        W 9680   1.263   0.901   2.430  0.4603  0.0423  0.3132
 5617W        W 9681   2.444   7.768   0.586 -0.2124 -0.2369 -0.0659
 5618W        W 9682   7.796   2.233  11.520  0.0160 -0.1203 -0.1882
 5619W        W 9683   3.256  10.288   2.890  0.1079 -0.0556 -0.0135
 5620W        W 9684   6.428   7.949   1.692 -0.1889 -0.0897  0.3603
 5621W        W 9685   1.017   2.720   1.912  0.0520  0.2131  0.1633
 5622W        W 9686  10.299   9.575   2.392 -0.0837 -0.1371 -0.2120
 5623W        W 9687   7.661   4.098   2.635  0.2136 -0.3103  0.0878
 5624W        W 9688   8.526   0.924   7.843 -0.0924  0.0635 -0.0257
 5625W        W 9689   9.277   1.111   2.993 -0.2173  0.1078 -0.0364
 5626W        W 9690   8.210   0.212   1.062 -0.1186 -0.1589 -0.2763
 5627W        W 9691   5.595   3.564  10.064 -0.0010 -0.0335  0.0568
 5628W        W 9692   3.754   5.782   3.082 -0.2475 -0.4163  0.3250
 5629W        W 9693   9.691   3.013  10.757 -0.0494  0.4573 -0.2984
 5630W        W 9694   5.485   7.751   3.551  0.0399  0.0597  0.2310
 5631W        W 9695   2.280   5.358   0.442 -0.2190 -0.1740 -0.3008
 5632W        W 9696   3.753   5.702   8.858 -0.0421  0.1132 -0.1957
 5633W        W 9697   5.558   1.648  10.180  0.0175  0.1253  0.1753
 5634W        W 9698  10.277   9.786   0.612 -0.1501 -0.2331 -0.0085
 5635W        W 9699   9.820   1.592   1.174  0.1145  0.1205  0.1784
 5636W        W 9700   1.349   4.072   9.890  0.0550 -0.0523  0.0850
 5637W        W 9701   1.868   5.624   3.443  0.0705  0.1141 -0.0264
 5638W        W 9702   4.980   9.359   1.307 -0.0755 -0.0770  0.0560
 5639W        W 9703   0.504   9.500   9.768  0.2191  0.2176  0.3511
 5640W        W 9704   2.766   8.845   0.871  0.2046  0.0069 -0.0004
 5641W        W 9705   3.056   4.904   9.392 -0.0576 -0.4664  0.2827
 5642W        W 9706   0.146   3.805   9.541  0.0420  0.0547 -0.0337
 5643W        W 9707   8.517   8.260  10.094  0.3179  0.0231  0.2398
 5644W        W 9708   8.004   9.800   0.387 -0.0028 -0.0203  0.0651
 5645W        W 9709   0.369   2.019   3.072  0.0486 -0.3004 -0.1074
 5646W        W 9710   2.805  10.476  10.875  0.0169 -0.3012 -0.0025
 5647W        W 9711   2.051   6.215   8.458 -0.0470 -0.0291  0.2903
 5648W        W 9712   7.660   7.261   2.874 -0.2163 -0.3728  0.1305
 5649W        W 9713   8.815   3.489  10.162 -0.0294 -0.0519  0.0908
 5650W        W 9714   0.560  10.565   9.555 -0.2416 -0.2040 -0.2601
 5651W        W 9715   7.743   9.202   1.307  0.0316  0.1913 -0.1113
 5652W        W 9716   8.424   0.551   0.683 -0.1126 -0.0592  0.1800
 5653W        W 9717   2.828  10.332   1.110 -0.1045 -0.2402 -0.0263
 5654W        W 9718   8.039   7.797  10.521  0.1497  0.0645  0.3349
 5655W        W 9719   9.020   2.893   2.766  0.1902  0.1783 -0.3117
 5656W        W 9720  10.145   1.214   1.701 -0.2447 -0.1855 -0.0081
 5657W        W 9721   4.142   6.122   9.718 -0.1197  0.0452  0.2578
 5658W        W 9722   1.700   6.483   1.885  0.0321 -0.1613  0.0886
 5659W        W 9723   3.347   2.235   1.110  0.1117  0.0921  0.0836
 5660W        W 9724   2.892   5.895   0.828  0.1182 -0.0657  0.1597
 5661W        W 9725   9.344   9.216   2.406 -0.4326  0.0006  0.1500
 5662W        W 9726   5.724   0.467   2.865  0.0233 -0.2371 -0.0313
 5663W        W 9727   9.368   7.279  11.255 -0.2234 -0.0497 -0.1540
 5664W        W 9728   1.217   2.609   8.045 -0.1488  0.0702  0.0944
 5665W        W 9729   4.855   6.781  11.560 -0.0806  0.2549  0.0376
 5666W        W 9730   2.633   4.494  10.200 -0.0586 -0.1200  0.1610
 5667W        W 9731   8.542   2.012   0.553 -0.1341 -0.0398 -0.1664
 5668W        W 9732   7.119   7.603   0.534 -0.2627 -0.3676 -0.0611
 5669W        W 9733   3.863   2.409   2.685  0.0806 -0.0130 -0.0221
 5670W        W 9734   5.740   1.343   0.662  0.0222  0.3155 -0.0575
 5671W        W 9735  10.618   3.561   3.688  0.3780  0.1594  0.0256
 5672W        W 9736   3.530   4.700   3.354 -0.1798 -0.0351  0.3020
 5673W        W 9737   6.609   5.907   0.505 -0.1022 -0.2566 -0.2567
 5674W        W 9738   0.777   8.159   2.967  0.0917  0.3666 -0.1147
 5675W        W 9739   6.609   3.969   3.569 -0.1602  0.0433 -0.0836
 5676W        W 9740   2.062   7.891   3.004 -0.0472  0.3465  0.0961
 5677W        W 9741   8.342   5.542   9.844  0.3995 -0.2536  0.0693
 5678W        W 9742   6.417   6.002   9.306  0.2483  0.0081 -0.0081
 5679W        W 9743   8.667   1.039   8.823  0.0324 -0.1544  0.2532
 5680W        W 9744   3.328   7.147   9.710  0.0429  0.1057 -0.0406
 5681W        W 9745   6.605   7.426  10.201  0.1913  0.1375  0.2268
 5682W        W 9746   0.693   6.097   9.264  0.0709 -0.1311 -0.1274
 5683W        W 9747   1.173   5.451  10.422  0.2412 -0.2880  0.1812
 5684W        W 9748   3.649   7.774   2.045  0.0794  0.2685  0.2022
 5685W        W 9749   0.957   1.403   2.713 -0.1832  0.1124 -0.2539
 5686W        W 9750   2.462   5.241   2.226  0.1268  0.0521  0.0131
 5687W        W 9751   1.031   7.041   1.204 -0.2537  0.2273 -0.3048
 5688W        W 9752   3.822   6.732   9.406  0.2923 -0.0455  0.0654
 5689W        W 9753   2.536   8.820   3.263  0.2056  0.2206  0.0548
 5690W        W 9754   1.667   1.373  10.082 -0.1196 -0.1945  0.2333
 5691W        W 9755  10.446   4.790   9.183 -0.3642  0.0216  0.0069
 5692W        W 9756   8.932  10.358   0.670  0.2100 -0.1730 -0.3018
 5693W        W 9757   2.528  10.124   9.463 -0.2059 -0.2545  0.3304
 5694W        W 9758   4.341  10.293  10.443 -0.0241  0.0256 -0.0613
 5695W        W 9759   5.188   3.197   1.520 -0.2677 -0.0334 -0.3011
 5696W        W 9760   5.704   3.985  10.336 -0.1567  0.2242  0.1560
 5697W        W 9761   4.697   4.012   2.357  0.3389 -0.0211  0.0915
 5698W        W 9762   5.177   9.515   3.864  0.0200 -0.1519 -0.0576
 5699W        W 9763   3.011   0.007   0.788 -0.0557 -0.2264  0.2090
 5700W        W 9764   6.777   5.879  11.097  0.0065  0.1072  0.1425
 5701W        W 9765   7.098   5.564  11.336 -0.3906 -0.0187 -0.1326
 5702W        W 9766   6.502   7.396   0.744 -0.1495  0.0689 -0.0361
 5703W        W 9767   6.286   4.970   0.093 -0.0343  0.0444  0.1751
 5704W        W 9768   9.116   4.454   8.943 -0.1064  0.3494  0.0649
 5705W        W 9769   1.654   3.993   3.942 -0.2983 -0.0652 -0.0889
 5706W        W 9770   9.769   2.551   0.187  0.1378  0.2237 -0.3234
 5707W        W 9771   1.508   0.324   9.714  0.1751  0.0020 -0.0513
 5708W        W 9772  10.071   1.402   9.102 -0.3894 -0.1604 -0.3906
 5709W        W 9773   1.371   0.200   9.176 -0.4095 -0.1154  0.0507
 5710W        W 9774   8.028   4.285   1.971 -0.1371 -0.1188  0.1577
 5711W        W 9775  10.373   1.710   0.181  0.1265  0.1352  0.3550
 5712W        W 9776   7.154   1.708   9.515  0.2724 -0.0625 -0.0023
 5713W        W 9777   4.591   5.908  10.001  0.1186  0.1885  0.1204
 5714W        W 9778   9.431  10.105   9.199  0.1421 -0.2308  0.1857
 5715W        W 9779  10.648   7.068   0.952  0.1330 -0.2551  0.3191
 5716W        W 9780   0.472   5.210   0.731 -0.1630 -0.1175  0.3726
 5717W        W 9781   5.057   2.129   0.018  0.1082  0.0677  0.2736
 5718W        W 9782   8.692   2.632  11.541  0.0312  0.0204  0.1720
 5719W        W 9783   2.501   5.387   1.735 -0.3055  0.0151  0.0024
 5720W        W 9784   8.714   7.514   3.380 -0.1519  0.0214 -0.0719
 5721W        W 9785   6.084   6.959   9.620 -0.0713 -0.1196 -0.3438
 5722W        W 9786   4.302   2.118  11.293  0.2802  0.0103  0.1444
 5723W        W 9787   3.875   8.384   9.217 -0.0874  0.2611  0.1419
 5724W        W 9788   2.939   7.629   1.474  0.1753  0.1692 -0.3088
 5725W        W 9789   4.617   4.937   9.258  0.2519 -0.3867 -0.0365
 5726W        W 9790   4.295   3.784  10.512 -0.0464 -0.2497  0.0825
 5727W        W 9791   3.648   8.299   8.670 -0.3405 -0.1258 -0.0619
 5728W        W 9792   8.740   9.105  11.318 -0.0160  0.0958 -0.0249
 5729W        W 9793   1.729  10.571   9.251  0.1205  0.0923  0.0749
 5730W        W 9794   5.749  10.222   2.347  0.2145  0.1463 -0.1629
 5731W        W 9795   8.635   2.825   0.944 -0.2396 -0.3781  0.1123
 5732W        W 9796   5.312   6.195  10.862 -0.0273 -0.3266  0.1266
 5733W        W 9797   4.851   7.802  11.237  0.2912 -0.1855  0.0139
 5734W        W 9798   9.468   0.092   9.045 -0.0288  0.4215 -0.4115
 5735W        W 9799   6.338   8.844  10.018  0.0784 -0.0762 -0.0270
 5736W        W 9800   8.942   5.100  10.236 -0.0669 -0.1944  0.2985
 5737W        W 9801   5.133   7.249   1.851 -0.0969 -0.0382  0.1033
 5738W        W 9802   8.432  10.175   0.479 -0.1924 -0.2067  0.4235
 5739W        W 9803   0.790   3.023   1.560  0.0364  0.2426 -0.3592
 5740W        W 9804   7.300   1.101   2.549  0.1128 -0.1330 -0.1040
 5741W        W 9805   8.361   3.054  11.422 -0.2233  0.1626 -0.2204
 5742W        W 9806   8.955   7.364   4.214 -0.0692 -0.0240  0.4423
 5743W        W 9807   7.012   1.557   2.600  0.1511  0.0934  0.1287
 5744W        W 9808   0.270   3.544   1.338  0.1205 -0.0106  0.1575
 5745W        W 9809   2.513   9.773   9.999  0.0614  0.0707  0.1856
 5746W        W 9810   3.097   3.691   1.979  0.0801 -0.3743  0.0118
 5747W        W 9811   5.663   9.327   1.301  0.0499 -0.0196  0.0478
 5748W        W 9812   0.099   4.160   8.671 -0.0714  0.1862  0.0386
 5749W        W 9813   5.476   6.474   0.690 -0.0449 -0.0055  0.1031
 5750W        W 9814   3.016   2.993   2.499  0.2248  0.0940 -0.2717
 5751W        W 9815   5.550   9.399   9.632 -0.0016 -0.1290 -0.3275
 5752W        W 9816   4.968   8.451   9.378  0.1029  0.1346  0.3564
 5753W        W 9817   9.177   0.617   7.854 -0.0156  0.2477  0.2492
 5754W        W 9818   5.273  10.186  10.165 -0.0716 -0.4549 -0.1207
 5755W        W 9819   1.520   9.538   1.499 -0.2522 -0.1798  0.0306
 5756W        W 9820   4.952   5.635  10.192 -0.0586 -0.1096  0.0752
 5757W        W 9821   8.451   3.930   0.098  0.3008  0.1963  0.2222
 5758W        W 9822   9.758   1.250  11.254  0.0720  0.2348 -0.1012
 5759W        W 9823   3.807   5.808   9.840  0.1180  0.0139 -0.0175
 5760W        W 9824   8.559   0.219   9.883  0.3465  0.1766  0.0313
 5761W        W 9825   7.068   6.031  11.457 -0.4188  0.0087  0.3012
 5762W        W 9826   2.756   1.537   2.792  0.0257  0.1153 -0.0966
 5763W        W 9827  10.488  10.090   2.740 -0.3978  0.1274 -0.1099
 5764W        W 9828   7.308  10.628   0.854 -0.0747  0.0761  0.2390
 5765W        W 9829   7.811   4.053   0.803  0.0556 -0.2713  0.2377
 5766W        W 9830   0.561   1.468  11.400  0.1463  0.1112 -0.1296
 5767W        W 9831   2.487   9.529   1.230 -0.2051 -0.5125  0.0891
 5768W        W 9832   8.348   4.697   9.807  0.0637  0.0169  0.3131
 5769W        W 9833   9.449   3.421   2.834  0.2676 -0.1161  0.2323
 5770W        W 9834   6.257   8.916  11.304  0.1742  0.0550 -0.0943
 5771W        W 9835   0.898   0.054   9.240 -0.1092  0.0138 -0.3397
 5772W        W 9836   4.828   8.801   9.806  0.1927  0.3558  0.1955
 5773W        W 9837   9.456   0.546   0.461  0.0250  0.1425 -0.1272
 5774W        W 9838   3.172   2.466   8.365 -0.0433 -0.2025  0.0760
 5775W        W 9839   3.637   4.128   1.326 -0.0162 -0.2292 -0.0471
 5776W        W 9840   8.077   3.977  11.003  0.1090  0.2611 -0.0779
 5777W        W 9841   3.306   2.167   2.110  0.3718 -0.2311 -0.0436
 5778W        W 9842   0.491   9.921  10.566  0.1479 -0.2787 -0.6390
 5779W        W 9843   8.068   0.900   0.641 -0.4061  0.2908 -0.0763
 5780W        W 9844  10.159   6.564   9.097 -0.2431 -0.0744 -0.0866
 5781W        W 9845   6.523   4.355   0.534 -0.2303  0.1093  0.0020
 5782W        W 9846   3.149  10.339   1.568 -0.1627  0.0206 -0.3076
 5783W        W 9847   0.987   7.828  10.909  0.0798 -0.0086  0.0085
 5784W        W 9848   0.484   2.106   1.151  0.0238 -0.2350  0.2808
 5785W        W 9849   9.017   7.136   9.712  0.2429 -0.0661 -0.4499
 5786W        W 9850   2.826   1.674   8.635  0.4034 -0.0100  0.0897
 5787W        W 9851   6.057  10.073  10.095  0.0761 -0.1472  0.0871
 5788W        W 9852   1.599   8.458   8.262 -0.2408  0.2204 -0.2208
 5789W        W 9853   6.805   9.997   0.883  0.0356  0.3137  0.0732
 5790W        W 9854   1.882   8.857   8.333  0.0972  0.2405 -0.0998
 5791W        W 9855   6.378   4.753   9.312  0.1304  0.0176 -0.0939
 5792W        W 9856  10.151   1.469   0.518  0.1400 -0.0323 -0.1059
 5793W        W 9857   9.919   4.047   3.451 -0.2274  0.1754 -0.0443
 5794W        W 9858   2.756   2.846   0.863  0.1474  0.3007 -0.1142
 5795W        W 9859   1.607   0.918  10.845 -0.2816 -0.1091  0.2279
 5796W        W 9860   5.714   2.818   9.855 -0.0859 -0.3717  0.3663
 5797W        W 9861   8.884   9.070   8.605  0.0150  0.1585 -0.3192
 5798W        W 9862   8.092   5.933   4.086  0.0754  0.1408  0.3752
 5799W        W 9863   1.216   4.910   8.971 -0.0375 -0.2273  0.2818
 5800W        W 9864   2.710   0.416   2.656 -0.0550 -0.5692 -0.3322
 5801W        W 9865   7.739   9.068   0.571 -0.0918  0.4641  0.0897
 5802W        W 9866   0.700   2.161   9.301 -0.0191  0.1482 -0.0972
 5803W        W 9867   7.024  10.261   8.562 -0.0448  0.1581  0.3208
 5804W        W 9868  10.515   4.709  10.198 -0.1306  0.0858 -0.2034
 5805W        W 9869   0.644  10.063   0.543 -0.2922 -0.2553 -0.1976
 5806W        W 9870   5.985   4.553   0.834  0.1927 -0.1099 -0.2534
 5807W        W 9871   0.855   7.568   2.338 -0.2388  0.2714 -0.1290
 5808W        W 9872   5.967   2.188   1.542  0.1627 -0.1907 -0.0004
 5809W        W 9873   4.707   4.185   1.498 -0.0162  0.4267  0.1878
 5810W        W 9874   0.017   5.630  11.539  0.1146  0.0176 -0.4103
 5811W        W 9875   5.458   7.273   3.307  0.4351 -0.1422 -0.0279
 5812W        W 9876   1.100   2.274   9.013 -0.0173 -0.0420  0.0208
 5813W        W 9877   8.457   5.212   2.360 -0.2121 -0.1933 -0.0007
 5814W        W 9878   5.702   3.579   1.445  0.2455  0.1964 -0.4525
 5815W        W 9879   2.640   1.452   8.140  0.1175 -0.1040 -0.0176
 5816W        W 9880   6.991   9.658   3.378  0.2638  0.0960 -0.2001
 5817W        W 9881   6.560   6.935   9.260  0.0224 -0.1108 -0.3484
 5818W        W 9882   5.580   9.232   8.016 -0.4399 -0.1738  0.5007
 5819W        W 9883   8.467   7.481   2.565  0.2606  0.0322 -0.4312
 5820W        W 9884   6.489   7.538   9.190 -0.0170  0.1407  0.0526
 5821W        W 9885   9.695   1.412   1.727  0.3514  0.2095  0.0683
 5822W        W 9886   7.029   5.627   0.689 -0.0791  0.0647  0.1011
 5823W        W 9887   5.255   5.815   1.057  0.0666 -0.1316  0.0304
 5824W        W 9888   7.096   6.462   8.219 -0.0275  0.0641 -0.0553
 5825W        W 9889   8.257   5.842  11.152 -0.1275  0.1469 -0.0437
 5826W        W 9890   3.470   3.752   0.998  0.0404 -0.0154 -0.0829
 5827W        W 9891   7.627   7.589  10.089  0.2096 -0.1152 -0.2440
 5828W        W 9892  10.622   0.310  10.620 -0.1795  0.1540  0.0588
 5829W        W 9893   7.317   1.503  10.762 -0.0668 -0.4498  0.0461
 5830W        W 9894   6.619   3.822  10.255  0.4330 -0.0385 -0.1288
 5831W        W 9895   5.154   4.282  11.417  0.0338  0.0327  0.2461
 5832W        W 9896  10.540   4.843   9.703  0.1566  0.1440 -0.1689
 5833W        W 9897   4.433   4.739   7.677 -0.0019 -0.0996 -0.1989
 5834W        W 9898   4.382   7.209   3.417 -0.0336 -0.0631  0.3202
 5835W        W 9899   4.852   8.477   2.514  0.1651  0.4222 -0.1547
 5836W        W 9900   6.533   9.158   2.893  0.2111  0.0029  0.1776
 5837W        W 9901   6.994   0.707   9.369 -0.0318  0.2208 -0.0471
 5838W        W 9902   9.568   7.171   2.431 -0.1486 -0.0918 -0.0107
 5839W        W 9903   8.605   9.190   9.534 -0.1780  0.2129  0.1994
 5840W        W 9904   2.373   2.980   9.810 -0.1074  0.1590  0.1253
 5841W        W 9905   8.708   3.425  11.400  0.0668 -0.1047  0.0742
 5842W        W 9906   6.676   5.851  10.058 -0.4663 -0.1194  0.1719
 5843W        W 9907   5.451   8.160   0.422  0.1671 -0.0655 -0.2117
 5844W        W 9908   4.890   3.862   0.037 -0.1504  0.1749 -0.2835
 5845W        W 9909   4.224   4.342   0.678  0.0784  0.0575 -0.1097
 5846W        W 9910   3.299   3.037   0.237 -0.0183  0.2517 -0.1006
 5847W        W 9911   0.943   2.278   2.737 -0.1377  0.4426 -0.1659
 5848W        W 9912   0.047   2.667   2.616 -0.3059 -0.1716 -0.0134
 5849W        W 9913   8.429   8.722   1.644  0.1836 -0.1592 -0.1047
 5850W        W 9914   5.674   1.233   0.115 -0.0325 -0.0371  0.0741
 5851W        W 9915   2.926   4.787   0.245  0.0230  0.2573 -0.2829
 5852W        W 9916   5.990   3.225   9.842  0.0008 -0.2297 -0.0261
 5853W        W 9917   4.089   8.018   8.827 -0.0887 -0.3885 -0.3244
 5854W        W 9918   3.308   3.421   0.623  0.1257  0.1096 -0.1315
 5855W        W 9919   0.417   4.369  11.296  0.1927  0.1920  0.0815
 5856W        W 9920   0.348   4.491   1.593 -0.1169 -0.2131 -0.3338
 5857W        W 9921   4.706   8.060   1.113 -0.3085  0.2509 -0.2557
 5858W        W 9922   5.244   0.775   2.347  0.0246 -0.1850  0.1208
 5859W        W 9923   1.669   0.349  11.410 -0.3553 -0.0956  0.1508
 5860W        W 9924   1.881   2.992   0.637  0.0079 -0.1537  0.1384
 5861W        W 9925   2.921   5.515  11.150  0.1061  0.1098 -0.0738
 5862W        W 9926   5.799   7.713   9.255  0.0909  0.3726 -0.1113
 5863W        W 9927   2.041   7.573   0.914 -0.0074 -0.0752 -0.1880
 5864W        W 9928   0.065   7.619   8.790 -0.1008  0.0571  0.0787
 5865W        W 9929   2.469   4.454   0.367 -0.2576  0.0504 -0.0399
 5866W        W 9930   1.899   6.169   1.535 -0.0491  0.1285 -0.1846
 5867W        W 9931   4.386   4.263  10.676 -0.1332 -0.1121 -0.0001
 5868W        W 9932   2.113  10.559   0.436 -0.2881  0.0595  0.0852
 5869W        W 9933  10.125   6.277   0.396 -0.0734  0.0333 -0.1227
 5870W        W 9934  10.375   4.336   4.090 -0.0363  0.0003  0.1804
 5871W        W 9935   3.858   0.127   0.241 -0.1668 -0.0170 -0.1697
 5872W        W 9936   0.931   2.710   9.902  0.4580 -0.1179  0.1602
 5873W        W 9937   1.509   9.063   1.376 -0.5369  0.0853  0.0318
 5874W        W 9938  10.402   9.953   1.601  0.1867 -0.2894  0.1384
 5875W        W 9939   4.987   7.463   2.739  0.3382 -0.0482 -0.1312
 5876W        W 9940   0.865   0.398   0.098 -0.1026 -0.2026  0.0302
 5877W        W 9941   3.860   7.397   1.740  0.1894  0.5540  0.3091
 5878W        W 9942   6.156  10.612   3.718  0.0433  0.2111 -0.1613
 5879W        W 9943   9.243   7.288  10.728  0.1466  0.0533  0.1397
 5880W        W 9944   2.181   3.112  10.846  0.0542 -0.3063  0.4165
 5881W        W 9945   0.004   4.616   2.389  0.3135  0.2198 -0.1641
 5882W        W 9946  10.371   2.204   8.150 -0.0638  0.1225  0.2831
 5883W        W 9947   2.211   0.522  11.103  0.1725 -0.2086 -0.2007
 5884W        W 9948   9.788   5.090   3.184  0.0395 -0.0515 -0.1274
 5885W        W 9949   6.659   6.066  10.602 -0.3558  0.2042 -0.1254
 5886W        W 9950   4.544   1.558  10.409 -0.1932  0.0749 -0.1984
 5887W        W 9951   7.997   1.632   3.806 -0.1060 -0.0502  0.3192
 5888W        W 9952   3.550   3.715   8.245 -0.0696 -0.0089 -0.1957
 5889W        W 9953   8.115   7.867   8.773  0.3214  0.0915 -0.1581
 5890W        W 9954   7.006   3.135   8.797  0.1391 -0.1464  0.1553
 5891W        W 9955   1.922   9.513  10.897  0.5523 -0.0310 -0.1963
 5892W        W 9956   2.295   2.374   1.606  0.0385  0.3201  0.4595
 5893W        W 9957   5.182   5.210   0.759  0.0566  0.1698  0.0872
 5894W        W 9958   2.913   6.065  11.108 -0.2677  0.1150  0.1034
 5895W        W 9959   1.484   2.494  11.345 -0.3328  0.1537  0.0421
 5896W        W 9960   6.505   2.507  11.358  0.1246 -0.2430  0.4029
 5897W        W 9961   5.710   6.631  11.333  0.2713  0.0909 -0.2061
 5898W        W 9962   1.403   3.950   2.780 -0.1736  0.1234  0.2782
 5899W        W 9963   5.438   4.885   2.431 -0.0020  0.0281 -0.0738
 5900W        W 9964   6.783   0.693   8.093  0.1596 -0.3216  0.1839
 5901W        W 9965  10.345   7.452   3.628  0.0444 -0.0420  0.0803
 5902W        W 9966   8.588   0.090   0.553 -0.0352  0.2291  0.0742
 5903W        W 9967   8.186   7.150   2.949 -0.2282 -0.2163  0.1107
 5904W        W 9968   0.473   4.120   3.114 -0.1354 -0.1555  0.0694
 5905W        W 9969   0.935   8.399   2.513  0.0584 -0.2722 -0.0579
 5906W        W 9970   7.535   8.259  11.117  0.1049  0.2193  0.1395
 5907W        W 9971   1.313   4.379   7.062  0.0544  0.0425  0.2685
 5908W        W 9972   7.045   7.259   2.384 -0.2453  0.0280  0.1493
 5909W        W 9973   2.066   7.644   7.922  0.0709  0.0676 -0.2428
 5910W        W 9974  10.330   0.317   8.670 -0.0436  0.0543  0.2466
 5911W        W 9975   1.265   8.713  10.019 -0.3124  0.0379  0.1658
 5912W        W 9976   5.069   8.847   0.193 -0.2162  0.1118  0.0335
 5913W        W 9977   9.657   2.600   3.480 -0.3385 -0.0732  0.2780
 5914W        W 9978   7.858   2.090   1.165 -0.0976  0.0035 -0.4422
 5915W        W 9979   6.655   9.986   8.914 -0.0789  0.2256 -0.2104
 5916W        W 9980  10.167   7.003   9.421 -0.1047  0.2557  0.0452
 5917W        W 9981   1.591   0.365   1.872  0.3304 -0.1685  0.3001
 5918W        W 9982   4.430   9.131   2.273 -0.3798 -0.1377  0.2779
 5919W        W 9983   3.987   2.986  11.089 -0.0495  0.2578 -0.0206
 5920W        W 9984   6.717   5.091   3.584  0.0890 -0.1540  0.2389
 5921W        W 9985  10.305   8.330   7.471 -0.0617 -0.2530  0.0489
 5922W        W 9986   0.570   8.997  11.186  0.2624 -0.0814 -0.2805
 5923W        W 9987   1.420   2.068   9.968  0.0208 -0.0116 -0.1053
 5924W        W 9988  10.628   4.122   8.039  0.0184 -0.3898  0.0952
 5925W        W 9989   1.840   2.775  10.882  0.2831  0.0081  0.0371
 5926W        W 9990   3.648   0.684   8.060 -0.2983 -0.1154  0.1696
 5927W        W 9991  10.612  10.595   1.632  0.0128  0.0050  0.0666
 5928W        W 9992   7.096   6.695   2.972 -0.1399  0.4373  0.2415
 5929W        W 9993   0.057   3.318  10.911 -0.2118 -0.0567  0.3022
 5930W        W 9994   9.115   8.477   8.876  0.0174  0.2872  0.0296
 5931W        W 9995  10.438   8.446   1.879  0.1004 -0.0912 -0.3460
 5932W        W 9996   9.054   5.347   9.460 -0.1660  0.0034 -0.0897
 5933W        W 9997   3.064   9.692   0.483 -0.1996 -0.1250  0.1324
 5934W        W 9998   0.437   4.418  10.784 -0.0554 -0.1487 -0.0711
 5935W        W 9999   6.790   7.714   2.952 -0.4214 -0.8253  0.2283
 5936W        W10000   9.471   1.378   7.690 -0.0799 -0.0578 -0.1627
 5937W        W10001   9.175   2.321   9.983 -0.1303 -0.0009 -0.2818
 5938W        W10002  10.120   9.344   0.413 -0.1336 -0.0675 -0.3216
 5939W        W10003   1.792   5.901   9.836  0.1308  0.0108  0.0814
 5940W        W10004   6.339   6.366   8.930 -0.0272  0.0114 -0.0055
 5941W        W10005   9.629   8.772   2.542  0.0714  0.1773 -0.0270
 5942W        W10006   3.903   8.983  10.455  0.0239 -0.2230 -0.1138
 5943W        W10007   1.781   6.789   8.165  0.0312 -0.2149 -0.3341
 5944W        W10008  10.613   5.690   8.705  0.2021  0.0756  0.0735
 5945W        W10009   8.561   1.460   1.333  0.1418 -0.2996 -0.0865
 5946W        W10010   7.301   5.213  10.321 -0.0495 -0.1379  0.3794
 5947W        W10011   0.194   9.464   9.372 -0.0274 -0.0527 -0.1187
 5948W        W10012   7.148   4.677   2.127 -0.0822  0.0115  0.0508
 5949W        W10013   8.206   9.174   1.718  0.3943  0.0541  0.0040
 5950W        W10014   6.802   9.924  11.370  0.2033  0.3492  0.1081
 5951W        W10015   0.977   8.161   0.732  0.0744  0.0117 -0.2247
 5952W        W10016   6.941   2.840   9.427 -0.2961 -0.2078 -0.2127
 5953W        W10017   8.099  10.551   0.501  0.3004  0.0378  0.0249
 5954W        W10018   8.475   7.134   8.093 -0.0686  0.1902  0.0880
 5955W        W10019   3.289   7.722   9.067  0.2283  0.1523 -0.0915
 5956W        W10020   6.392   9.466   2.470 -0.4587 -0.0474 -0.0695
 5957W        W10021   7.551   8.051   9.861  0.0270 -0.1290 -0.0651
 5958W        W10022   1.073   8.412  10.684  0.2540  0.0882  0.2369
 5959W        W10023   3.948   8.711   8.886 -0.1323  0.3048  0.3380
 5960W        W10024   5.786   0.428   9.008 -0.0802  0.4182  0.4463
 5961W        W10025   2.529   4.716   9.424  0.1238 -0.1478 -0.1421
 5962W        W10026   9.577   9.694   9.737 -0.0599 -0.0792  0.3479
 5963W        W10027   8.688   6.114  11.055 -0.4877 -0.1269  0.1498
 5964W        W10028   9.328   0.630  10.238 -0.2710 -0.1200 -0.0890
 5965W        W10029   2.542   3.525   8.694  0.0746  0.1190 -0.0258
 5966W        W10030   5.639   7.026   9.359 -0.0484  0.0302  0.0994
 5967W        W10031   1.998   3.961   2.673  0.2515  0.2052  0.2095
 5968W        W10032   8.496   4.148   4.162 -0.2219  0.2342  0.0927
 5969W        W10033   8.261   3.335  10.410 -0.3325  0.0270 -0.0792
 5970W        W10034   9.443   8.904   3.710 -0.0189  0.0851 -0.0937
 5971W        W10035   0.792   8.301   8.261  0.0421 -0.2306  0.0133
 5972W        W10036   6.006   8.524   7.490 -0.1387  0.0623  0.0575
 5973W        W10037   4.128   4.675   2.032 -0.2646  0.0068 -0.3996
 5974W        W10038   0.783   5.873   0.373 -0.1599 -0.4946  0.1887
 5975W        W10039  10.032   8.002   2.420 -0.3013 -0.1360 -0.3038
 5976W        W10040   9.132   7.431   3.156 -0.0845  0.0733 -0.0170
 5977W        W10041   0.810   7.031  10.634 -0.3323 -0.2343 -0.1792
 5978W        W10042   5.521   2.330  11.415  0.0673 -0.3161 -0.2397
 5979W        W10043   5.875  10.542   0.315 -0.0612  0.1949 -0.1618
 5980W        W10044  10.542   5.880  11.079  0.0116 -0.2245 -0.0339
 5981W        W10045   5.470   3.425   7.727 -0.4097  0.0076  0.1261
 5982W        W10046   5.342   4.757  11.457  0.2097 -0.0748  0.1685
 5983W        W10047   3.200   4.844   8.841  0.2487  0.1082  0.2710
 5984W        W10048   1.691   5.704   7.814  0.0113 -0.2001  0.2299
 5985W        W10049   9.468   1.425   9.977  0.1752  0.0644 -0.0186
 5986W        W10050   1.568   3.338   3.498  0.0724 -0.1226 -0.4571
 5987W        W10051   8.824   4.454   9.964 -0.2419  0.1029  0.2812
 5988W        W10052   5.230   3.148   2.015  0.2277 -0.2713  0.0833
 5989W        W10053   1.673   3.448   0.178  0.2226 -0.0024  0.0844
 5990W        W10054   1.757   1.302   9.437 -0.1396  0.0193  0.0804
 5991W        W10055   4.641   1.602   0.778 -0.3631 -0.1060  0.1902
 5992W        W10056   8.523   7.794  10.317  0.2680  0.1046 -0.0687
 5993W        W10057   2.520   1.729   9.768 -0.1125 -0.2828 -0.1785
 5994W        W10058   6.873   4.897   1.240  0.1786 -0.1145 -0.1722
 5995W        W10059   3.582   9.414  10.554 -0.0868  0.0179 -0.0265
 5996W        W10060   8.390   0.806   2.914 -0.0501 -0.0027  0.0683
 5997W        W10061   9.325   4.366   2.717 -0.3012 -0.0368 -0.1104
 5998W        W10062   9.207   8.487  10.646 -0.1023 -0.1216 -0.0729
 5999W        W10063   8.019   5.450   3.786 -0.1661 -0.2299 -0.0828
 6000W        W10064   3.954   0.358   2.259  0.0798 -0.0591 -0.2173
 6001W        W10065   9.138   0.594   2.717  0.0300  0.1645  0.0945
 6002W        W10066   6.950   0.116   0.136 -0.0253 -0.0995  0.3531
 6003W        W10067   8.050   0.938   3.253 -0.1659  0.1057  0.1483
 6004W        W10068  10.240  10.012   8.991  0.0501  0.1792  0.0866
 6005W        W10069   6.999   0.094   8.411  0.0089  0.1104  0.0623
 6006W        W10070   1.687   6.084   8.821 -0.0723 -0.1057 -0.1914
 6007W        W10071   3.917  10.029  10.238  0.0774 -0.0312 -0.0140
 6008W        W10072   0.273   7.599  11.534 -0.1870  0.1449  0.0777
 6009W        W10073   2.367   3.269   9.336 -0.0045 -0.1214 -0.3607
 6010W        W10074   5.320   5.328  11.424 -0.0964  0.1709 -0.0751
 6011W        W10075   2.259   4.936  10.498  0.4234 -0.0020  0.0271
 6012W        W10076   2.093   2.525   7.896 -0.0249 -0.0797  0.1087
 6013W        W10077   7.743  10.043   9.731  0.0011 -0.1019  0.3042
 6014W        W10078   5.966   0.304  11.386  0.0058 -0.1891  0.2649
 6015W        W10079   6.588   2.556   0.315  0.3627  0.2217 -0.0019
 6016W        W10080   3.069   1.287   8.364 -0.0076 -0.1757 -0.0279
 6017W        W10081   1.688   0.753   0.182  0.0421 -0.0128  0.0538
 6018W        W10082   0.788   7.223   1.927  0.1199  0.0135 -0.1047
 6019W        W10083   6.246   6.356   2.963  0.4003 -0.1148 -0.0557
 6020W        W10084   0.179   3.371   1.813 -0.0848  0.1161 -0.1794
 6021W        W10085   7.256   6.032  10.959 -0.0439 -0.3001  0.0199
 6022W        W10086   7.768   8.263   8.872  0.0327  0.1224  0.0494
 6023W        W10087   8.443   8.981   2.180  0.0599 -0.1558 -0.2645
 6024W        W10088  10.250   6.788   2.229 -0.0679  0.2717  0.2759
 6025W        W10089   2.642   5.757   8.129 -0.0986 -0.2419  0.1988
 6026W        W10090   3.941   1.343   0.063 -0.0343 -0.2546  0.5345
 6027W        W10091   4.020  10.177   2.155 -0.1120 -0.0700  0.1348
 6028W        W10092   4.988   6.313   1.449 -0.0863  0.0183  0.0240
 6029W        W10093   3.996   1.922   8.482 -0.1467  0.0116 -0.0437
 6030W        W10094   6.935   9.699  10.306 -0.1033 -0.0473  0.1435
 6031W        W10095   7.516  10.062   0.278  0.2193 -0.2685 -0.0804
 6032W        W10096   6.587   9.564   0.138  0.2332 -0.1008 -0.1812
 6033W        W10097   9.166   4.477   9.491 -0.2513 -0.0738  0.1443
 6034W        W10098   6.560   9.682   2.994 -0.0828 -0.2649  0.1608
 6035W        W10099  10.016   5.775   0.333 -0.2402 -0.2051  0.1581
 6036W        W10100   5.354   2.378   0.488  0.0841  0.0960 -0.0215
 6037W        W10101   3.692   1.237  10.734  0.2284 -0.1364  0.2943
 6038W        W10102  10.499   1.234   0.848  0.1130  0.1183 -0.1362
 6039W        W10103   9.458   2.173  10.386  0.2433 -0.1751  0.0633
 6040W        W10104   6.461   2.584  10.761  0.0102 -0.0633 -0.0128
 6041W        W10105   4.683  10.440  10.013  0.0478 -0.2006 -0.0216
 6042W        W10106   8.719   9.543   1.227 -0.3450  0.1179 -0.2122
 6043W        W10107   9.569   2.436   8.576  0.1750  0.0237  0.0427
 6044W        W10108   8.444   9.436   2.522  0.2470 -0.2068 -0.1983
 6045W        W10109   3.238   0.803   8.322 -0.0398 -0.0052 -0.0015
 6046W        W10110   2.992   2.819   4.327 -0.1664  0.0891  0.2217
 6047W        W10111   2.034   0.880   9.391 -0.1076  0.0188  0.3436
 6048W        W10112   6.361   1.779   1.077  0.2287 -0.1490  0.1572
 6049W        W10113   0.023   9.327   9.786  0.4236  0.1796 -0.1647
 6050W        W10114   3.395   0.929  10.998 -0.0493 -0.2081 -0.1505
 6051W        W10115   1.622   5.417  10.089 -0.1492  0.2216 -0.0534
 6052W        W10116   9.720   6.933  11.487 -0.0727 -0.4244 -0.2825
 6053W        W10117   8.810   5.106  11.218 -0.2459  0.0911 -0.0951
 6054W        W10118   3.741   5.999   1.502  0.2320  0.2132 -0.2550
 6055W        W10119   0.114   9.755   2.415 -0.0960 -0.4228  0.0529
 6056W        W10120   9.983   9.934   2.615  0.0212 -0.1285 -0.0795
 6057W        W10121   7.622   4.538   1.569 -0.0305  0.0254 -0.2793
 6058W        W10122   8.474   1.658  10.674 -0.0894  0.2998 -0.2212
 6059W        W10123   2.134   8.253   1.789  0.2304 -0.3072  0.1698
 6060W        W10124  10.331   4.943   8.561 -0.1216 -0.1337  0.0048
 6061W        W10125   3.730   5.221  10.953  0.3580  0.0831 -0.1573
 6062W        W10126   8.212  10.374   8.726 -0.2421  0.0419 -0.1276
 6063W        W10127   5.394   3.295   9.152 -0.2103 -0.0134 -0.1958
 6064W        W10128   6.127   8.368   2.567 -0.1543  0.0983  0.2246
 6065W        W10129   3.990   3.894   1.006  0.0988  0.2095 -0.0286
 6066W        W10130   2.733  10.070   0.301 -0.1399 -0.2821 -0.0642
 6067W        W10131   0.145   0.896   1.133 -0.1164  0.1325 -0.1757
 6068W        W10132   4.847   0.742  11.317 -0.0223 -0.2436 -0.1111
 6069W        W10133   3.378   0.021   8.433 -0.0908  0.0032  0.0765
 6070W        W10134   0.838   2.251   4.539 -0.4333 -0.0195  0.0916
 6071W        W10135   4.128   4.475   7.265 -0.2598 -0.1041 -0.3227
 6072W        W10136   8.609   0.176   2.006  0.1703  0.0452 -0.3135
 6073W        W10137   8.277   7.080   1.098 -0.1101 -0.1004  0.0100
 6074W        W10138   4.156   1.066   7.429 -0.0144 -0.2563  0.1503
 6075W        W10139   9.078   3.576   3.833  0.2015 -0.0661  0.0028
 6076W        W10140   7.359   3.749   7.961 -0.1599  0.2419  0.2429
 6077W        W10141   9.637   9.215   0.490 -0.1143 -0.1263  0.1477
 6078W        W10142   7.341   0.123   1.394 -0.0647 -0.0875 -0.2435
 6079W        W10143   2.978   7.854   8.068 -0.1050 -0.0697  0.1871
 6080W        W10144   8.164   0.127   9.516  0.0067  0.0063 -0.2227
 6081W        W10145   1.211   1.871   2.636  0.1778 -0.0248 -0.3355
 6082W        W10146   8.261   9.027  11.472 -0.0423 -0.0423  0.0798
 6083W        W10147   9.064   8.711   2.992  0.0635  0.3388 -0.0465
 6084W        W10148   3.301   0.279   0.226  0.0288 -0.0786  0.0267
 6085W        W10149   5.346   7.669   8.118 -0.0637 -0.2008  0.3815
 6086W        W10150   6.182   5.207   9.437 -0.1085  0.1650  0.0095
 6087W        W10151   9.248   6.417   2.254 -0.1226 -0.0307  0.0479
 6088W        W10152   4.815   1.065   7.484 -0.0122  0.0127  0.2142
 6089W        W10153   8.186   6.370  11.138  0.0637  0.0154 -0.0066
 6090W        W10154   3.274   7.746   9.774 -0.3262  0.1329  0.2011
 6091W        W10155  10.165   1.280   1.191  0.2834 -0.0824 -0.0762
 6092W        W10156   9.782   5.340   2.623 -0.1564 -0.2350 -0.2483
 6093W        W10157   6.718   4.104   2.622 -0.0968 -0.2299 -0.3009
 6094W        W10158   8.979   5.945  11.427  0.0250 -0.1006 -0.1968
 6095W        W10159   4.273  10.274   8.000  0.1398  0.2476 -0.1830
 6096W        W10160  10.634   0.039   0.563  0.2915  0.1843  0.3147
 6097W        W10161   7.386   5.003   8.103  0.3049 -0.2593  0.1179
 6098W        W10162  10.291   9.033   1.276 -0.2692  0.0516  0.0620
 6099W        W10163   2.195   4.802   4.006 -0.1978  0.0205 -0.0060
 6100W        W10164   1.363   2.419   3.662 -0.2599 -0.3622 -0.1910
 6101W        W10165   0.523   2.875   0.212  0.1182  0.0496 -0.0796
 6102W        W10166   1.305   3.896   0.759 -0.1213  0.1519  0.3486
 6103W        W10167   2.100   6.664  11.251 -0.0404 -0.0340  0.0066
 6104W        W10168   6.121   0.436   0.295  0.0217  0.0298 -0.0858
 6105W        W10169   2.418   6.617   4.291 -0.7295  0.2289  0.2082
 6106W        W10170   7.323   1.548   3.449  0.0418 -0.2878 -0.0979
 6107W        W10171   6.236   6.867   2.496  0.1695 -0.3109 -0.0574
 6108W        W10172   2.383   2.010   8.933 -0.1020  0.1607  0.3214
 6109W        W10173   0.172   6.575   2.228  0.0407  0.1170 -0.2890
 6110W        W10174   4.369   2.027  10.052 -0.0342 -0.0738 -0.0842
 6111W        W10175   9.850   3.944   2.156 -0.0339  0.1513  0.1874
 6112W        W10176   1.132   7.988   2.661  0.1234  0.2116 -0.1874
 6113W        W10177   6.278   8.721   8.768 -0.2565 -0.1842 -0.2183
 6114W        W10178   8.466  10.288   1.828 -0.1740  0.0165  0.2234
 6115W        W10179   6.045   0.114   3.107  0.0168  0.3991 -0.1819
 6116W        W10180   8.838   7.484  10.497 -0.0680 -0.1110  0.3483
 6117W        W10181   3.875   4.360   9.696 -0.0263  0.3918 -0.1719
 6118W        W10182   4.863   9.434   3.435  0.1101 -0.3035  0.3124
 6119W        W10183   5.072   8.085   8.853  0.1068 -0.0911 -0.0548
 6120W        W10184   9.493   7.060   9.629  0.0680  0.0485  0.2074
 6121W        W10185   1.927   6.718   0.836  0.0832  0.0678  0.3289
 6122W        W10186  10.352   9.824  10.748 -0.0563 -0.0832 -0.0255
 6123W        W10187   7.772   4.878  10.856 -0.2842 -0.2377 -0.1200
 6124W        W10188   8.406   8.725  10.634  0.2903  0.0534 -0.1359
 6125W        W10189  10.499   7.361   1.388 -0.2156  0.0288  0.2372
 6126W        W10190   1.028   2.947   0.425 -0.0673  0.5663  0.0920
 6127W        W10191   6.883   0.072  10.793  0.0673  0.0329 -0.1699
 6128W        W10192   3.453   3.234   8.803 -0.0950  0.1835 -0.1459
 6129W        W10193   9.740   6.330   2.934  0.2366  0.0739 -0.1894
 6130W        W10194   1.907   3.553   3.852 -0.1471  0.2523 -0.4252
 6131W        W10195   0.786   7.670   2.936  0.0209  0.1853 -0.2678
 6132W        W10196   5.423   0.209   0.050 -0.0074 -0.2946 -0.4540
 6133W        W10197   4.773   8.417  10.171 -0.0012 -0.0566 -0.0780
 6134W        W10198   1.670   5.649   8.312 -0.1383 -0.2060 -0.1002
 6135W        W10199   3.113   8.495  10.027 -0.1952 -0.0501  0.1263
 6136W        W10200   8.988   4.565   1.804 -0.0890 -0.0932  0.0103
 6137W        W10201   2.254   9.153  11.215  0.4026  0.0131  0.1789
 6138W        W10202   9.328   4.125   1.049 -0.0630  0.0756 -0.0497
 6139W        W10203   8.560   3.000   3.501  0.4265 -0.1334 -0.2465
 6140W        W10204   2.203   8.995  10.215 -0.0553 -0.2853  0.0241
 6141W        W10205   6.135   9.713   0.255  0.0013 -0.1089  0.1279
 6142W        W10206   8.130   2.202   9.905  0.0923 -0.2822 -0.1294
 6143W        W10207   0.542   5.726  11.540  0.2563  0.4161 -0.2034
 6144W        W10208   2.917   0.208  10.447  0.0649 -0.2015 -0.4292
 6145W        W10209   5.734   9.017   0.131 -0.0483 -0.2335 -0.0768
 6146W        W10210   4.806   0.190   1.288 -0.1036  0.3395 -0.2206
 6147W        W10211   7.352   4.359   0.015  0.2685  0.0411 -0.1028
 6148W        W10212  10.235   3.496   2.226 -0.0325  0.2762 -0.1060
 6149W        W10213   8.051   2.168   3.390  0.1328  0.0082 -0.2068
 6150W        W10214   7.808   6.864   2.206  0.2644  0.2448  0.1143
 6151W        W10215   6.471   8.462   8.330  0.1502  0.2045  0.0244
 6152W        W10216   6.985   0.793  10.227 -0.1090  0.2079  0.1241
 6153W        W10217   4.808   1.793  11.276  0.0747  0.0419 -0.2440
 6154W        W10218   3.558   8.218   0.822 -0.1001 -0.0386  0.0592
 6155W        W10219   9.031   4.000   2.135  0.0395  0.0273 -0.3112
 6156W        W10220   9.550   5.776  10.274  0.0624  0.1759 -0.3603
 6157W        W10221   6.015   1.582   8.667 -0.4285 -0.1377  0.1713
 6158W        W10222   6.159   0.237   7.494 -0.4183  0.0241 -0.2127
 6159W        W10223   6.116   1.983   0.632  0.1615 -0.1992  0.1919
 6160W        W10224   1.998   1.839  10.681  0.1178  0.2048  0.2267
 6161W        W10225   6.011   7.246   9.198  0.0857 -0.0602  0.0043
 6162W        W10226   0.181   6.086   9.525 -0.0504  0.1074  0.1323
 6163W        W10227   3.755   7.267   2.171 -0.1788 -0.0652 -0.3109
 6164W        W10228   1.037   5.507   1.082  0.1607  0.1264 -0.1869
 6165W        W10229   6.805  10.341   9.540  0.2347  0.1544  0.0952
 6166W        W10230   3.146   5.275   3.460  0.0982 -0.0142  0.0489
 6167W        W10231   0.691   9.464  10.526  0.2970 -0.0244  0.1470
 6168W        W10232   4.868   9.207  10.879  0.1601 -0.0201 -0.0948
 6169W        W10233   4.196   9.452   2.887 -0.1458  0.0817 -0.1253
 6170W        W10234   7.720   0.197   2.419 -0.0466  0.0356 -0.1289
 6171W        W10235   8.834   7.105   1.308 -0.1077 -0.1977 -0.0760
 6172W        W10236   4.589  10.549   9.543 -0.1919 -0.1970  0.1247
 6173W        W10237   6.908   3.688   2.343 -0.0923  0.0371  0.0846
 6174W        W10238   5.717   1.032   1.585  0.0598 -0.3183  0.1014
 6175W        W10239   2.338   4.817   9.997 -0.3372  0.1477 -0.0659
 6176W        W10240   3.575   1.762  10.750 -0.0169  0.0693 -0.1646
 6177W        W10241   0.355   1.313   2.397  0.4325 -0.0565 -0.2435
 6178W        W10242   8.135   1.726   0.856  0.0079  0.0873 -0.0507
 6179W        W10243   6.755   8.342   0.853 -0.3566 -0.1160  0.2369
 6180W        W10244   0.293   5.569   0.384 -0.1132  0.2187  0.0235
 6181W        W10245  10.651   7.812   9.808 -0.1868 -0.2722 -0.0865
 6182W        W10246   2.894   1.386  10.124  0.1100 -0.3692 -0.0923
 6183W        W10247   2.151   6.827   2.488 -0.0994 -0.1590 -0.0645
 6184W        W10248   4.361  10.101   0.992 -0.0872 -0.0837 -0.0191
 6185W        W10249   3.702   1.109   2.710 -0.0246 -0.1448 -0.0252
 6186W        W10250   0.880   8.503  10.223  0.0456  0.0583 -0.2886
 6187W        W10251   9.644   0.384   8.663 -0.3465  0.1295  0.0414
 6188W        W10252   0.048   1.519   9.083  0.1226  0.0616  0.1232
 6189W        W10253   7.763   5.820   9.262 -0.2206  0.2154 -0.0354
 6190W        W10254   9.224   6.771  10.462  0.3338 -0.2541  0.1705
 6191W        W10255   6.124   0.839   1.181 -0.1011  0.2099 -0.1110
 6192W        W10256   5.535   7.311   2.232 -0.0575 -0.0184 -0.0104
 6193W        W10257   8.203   7.268   9.607 -0.3458  0.2027 -0.0857
 6194W        W10258   4.590   0.900   1.109 -0.2652 -0.0670  0.0676
 6195W        W10259   1.271   8.167   1.152  0.2248  0.1759  0.0995
 6196W        W10260   3.989   5.577  11.321  0.1496 -0.1834  0.3698
 6197W        W10261   4.178   2.281   1.847  0.1335  0.0372  0.2991
 6198W        W10262   6.473   5.295   1.934  0.2366 -0.1110  0.0078
 6199W        W10263   5.673   6.864  10.397  0.0922  0.0928  0.2222
 6200W        W10264   9.496   6.641   2.615 -0.2223 -0.1647 -0.1526
 6201W        W10265  10.116   0.684   8.287 -0.1422  0.1790  0.1013
 6202W        W10266   1.666   8.220  10.008 -0.0291  0.5111  0.1293
 6203W        W10267   3.484  10.018   8.736  0.2295  0.0056 -0.0071
 6204W        W10268   3.673   4.266   0.710 -0.3620  0.1900 -0.1342
 6205W        W10269   5.009   1.731  10.736  0.0164 -0.0347 -0.1509
 6206W        W10270   7.432   1.369   2.956 -0.0230  0.0445  0.2162
 6207W        W10271   2.921   2.738   8.721 -0.2197 -0.0579  0.2200
 6208W        W10272   0.629   3.529   2.528  0.1320 -0.0301 -0.0675
 6209W        W10273   6.166   0.621   3.019 -0.0118  0.2159 -0.1582
 6210W        W10274  10.331   4.015   2.315 -0.1547 -0.0417  0.2023
 6211W        W10275   6.803   5.028   8.170 -0.0478  0.1603 -0.0165
 6212W        W10276   8.509   4.588   7.614  0.1036 -0.0281  0.0218
 6213W        W10277   9.285   5.096   0.574 -0.0487 -0.0362  0.2857
 6214W        W10278   4.931   5.422   2.617  0.0454 -0.1082 -0.1006
 6215W        W10279   8.705   7.207   2.949 -0.0906 -0.1267 -0.0498
 6216W        W10280   1.851   1.068   8.852  0.0363  0.1882 -0.1641
 6217W        W10281   2.555  10.091   3.372  0.2103  0.0183 -0.2041
 6218W        W10282  10.142   3.838  10.216  0.1302  0.1189  0.2160
 6219W        W10283   8.241   3.024   3.896 -0.0925  0.2174  0.0963
 6220W        W10284   3.182   6.258  10.610  0.0322  0.1860 -0.1262
 6221W        W10285   6.145   4.912  10.374  0.1277  0.0452 -0.2057
 6222W        W10286   4.827   3.037   8.397 -0.0078 -0.0006  0.1621
 6223W        W10287   7.772   2.424   4.073 -0.0041  0.0386 -0.1328
 6224W        W10288   9.630   5.517   1.286  0.1004 -0.1213 -0.1609
 6225W        W10289   5.733   2.021   8.926  0.0312 -0.0196 -0.2512
 6226W        W10290  10.472   4.410  11.318 -0.1035 -0.0854 -0.2677
 6227W        W10291   7.038   9.258   3.005 -0.0231  0.2771  0.1120
 6228W        W10292   8.173   0.691  10.754 -0.2656 -0.1232  0.2923
 6229W        W10293   3.729   5.254  10.069  0.3467 -0.1745  0.1748
 6230W        W10294   8.021   2.923   1.507 -0.1361  0.1418  0.0652
 6231W        W10295   3.615   4.550   2.093 -0.0911  0.0270  0.1182
 6232W        W10296   9.755   2.855   8.721  0.2692  0.0005  0.2478
 6233W        W10297   3.443   5.202   1.863 -0.0827 -0.1238  0.0408
 6234W        W10298  10.044   5.838  10.244  0.0267 -0.1140  0.0312
 6235W        W10299   6.082   0.913  10.072 -0.0627 -0.1373  0.0543
 6236W        W10300   9.602   6.076   3.444 -0.0191  0.1101  0.0693
 6237W        W10301   6.716   6.681   8.880  0.0300  0.2289  0.2083
 6238W        W10302   8.221   2.874   8.599 -0.1044 -0.1672  0.0631
 6239W        W10303   4.554   1.064   0.612 -0.0753  0.1997  0.1395
 6240W        W10304  10.004   3.712   3.050 -0.2043  0.2033 -0.1778
 6241W        W10305   2.139   4.381  11.202 -0.1009  0.0889  0.2674
 6242W        W10306   4.957   4.776   7.839 -0.0887  0.2171  0.2778
 6243W        W10307   1.434   2.857   1.519  0.2638  0.0437 -0.1702
 6244W        W10308   2.815   5.309   7.215 -0.1369  0.0199  0.1457
 6245W        W10309   7.490  10.270   8.273 -0.0785  0.0516  0.0332
 6246W        W10310   6.396   3.073   0.606 -0.0838 -0.2602 -0.1379
 6247W        W10311   7.717   2.607  11.096  0.0198  0.0095 -0.3896
 6248W        W10312   3.568   9.637   0.575 -0.0861  0.0715 -0.3974
 6249W        W10313   8.657   4.515   9.498  0.0491 -0.1819  0.0695
 6250W        W10314   7.052   8.149   2.806 -0.3667 -0.4623  0.1106
 6251W        W10315   0.679   4.722   0.003  0.0077 -0.0865  0.3653
 6252W        W10316   0.929   4.493   1.638  0.0798 -0.0538  0.1312
 6253W        W10317   6.343   7.820  10.976  0.0286  0.0560  0.0714
 6254W        W10318   8.757   5.927   1.636 -0.0142  0.1503 -0.0679
 6255W        W10319   9.675   1.412   0.166  0.0018 -0.4064  0.0479
 6256W        W10320   7.407   3.915   9.823 -0.0291  0.0922 -0.0058
 6257W        W10321   1.718   7.299   2.503  0.1663 -0.0861  0.2858
 6258W        W10322   6.595   0.354   0.363 -0.0146  0.0427  0.0064
 6259W        W10323   2.445   1.351   2.390  0.2883 -0.1657 -0.1223
 6260W        W10324   4.999   3.107   2.464 -0.1214 -0.0597 -0.2816
 6261W        W10325   5.925   0.543   3.457 -0.1104  0.1360  0.0482
 6262W        W10326  10.564   7.599  11.059 -0.1322  0.0461 -0.4048
 6263W        W10327   4.168   0.858   1.844 -0.1212  0.0365 -0.3087
 6264W        W10328   3.675   8.067   4.065 -0.2368  0.0090  0.1220
 6265W        W10329   9.762  10.518  10.298  0.3070  0.1591 -0.0016
 6266W        W10330   9.190  10.096   9.804  0.0135  0.4315  0.1244
 6267W        W10331   8.065   9.316   0.291  0.0353 -0.0262 -0.0394
 6268W        W10332   8.496   9.140  10.430  0.1116  0.0609  0.0021
 6269W        W10333   4.521   2.374   9.068  0.3058  0.1192 -0.2232
 6270W        W10334   7.814   0.685   2.212 -0.2623  0.1005 -0.1343
 6271W        W10335   2.152   6.713   7.847  0.1762 -0.0595 -0.1672
 6272W        W10336   4.367   6.198   2.490 -0.0964  0.0053 -0.0170
 6273W        W10337   4.021   7.126   8.549  0.2835 -0.3226 -0.3250
 6274W        W10338   7.642  10.440   1.648  0.1480 -0.0084  0.5207
 6275W        W10339   7.916   1.483   9.162  0.1380  0.1217 -0.2210
 6276W        W10340  10.601   3.655   8.742  0.1417  0.0993  0.1620
 6277W        W10341   9.587   6.634   0.282 -0.2735  0.3642 -0.2486
 6278W        W10342   8.031   7.382   1.456 -0.1447 -0.0317  0.0169
 6279W        W10343   7.094   7.935   9.809 -0.0421 -0.0673 -0.0086
 6280W        W10344   3.262   5.306   2.420  0.0015  0.1582  0.0467
 6281W        W10345   6.806   3.894   3.059 -0.0165 -0.1807  0.1310
 6282W        W10346   9.462   5.362   2.200 -0.2586 -0.1473 -0.0050
 6283W        W10347   9.509   4.011   4.030 -0.1914  0.0559 -0.0804
 6284W        W10348   6.489   4.690   8.310 -0.5660  0.0566 -0.1558
 6285W        W10349   3.025   0.648  11.226  0.0009  0.0372  0.0259
 6286W        W10350   5.287   5.078   0.280  0.0180 -0.0791 -0.1515
 6287W        W10351   6.100   4.634   1.416 -0.1177  0.2463  0.0467
 6288W        W10352   8.177  10.349   2.718 -0.2061 -0.2814 -0.0623
 6289W        W10353   0.859   1.861   1.668 -0.0035  0.4383  0.0016
 6290W        W10354   6.868   8.263   2.262 -0.1751  0.0129  0.0495
 6291W        W10355   4.718   9.329   2.953 -0.0255 -0.2218 -0.2279
 6292W        W10356   7.350   7.575   3.248 -0.0094 -0.0234 -0.0504
 6293W        W10357   9.528   7.723  10.965  0.1933 -0.0137  0.1367
 6294W        W10358   1.835   9.899   3.027 -0.1111  0.0065  0.0097
 6295W        W10359   0.439   8.062   0.669 -0.1002  0.0658  0.3238
 6296W        W10360   0.137   9.475   2.822 -0.0497 -0.1938  0.0261
 6297W        W10361   5.383   3.265   4.101 -0.0197 -0.1622 -0.2588
 6298W        W10362   4.001   6.782   1.361 -0.0299  0.2374 -0.3004
 6299W        W10363   8.328  10.122   9.632  0.2714 -0.0857 -0.0880
 6300W        W10364   8.176   5.834   3.455 -0.3981  0.1595  0.0624
 6301W        W10365   4.308   1.925   0.554  0.0084 -0.1982 -0.0576
 6302W        W10366   4.933   8.951   3.258  0.3096  0.0752 -0.0089
 6303W        W10367   4.010   2.634   3.285 -0.3757  0.1174  0.1971
 6304W        W10368   1.706   8.505   8.738 -0.0723 -0.1116  0.0329
 6305W        W10369   9.051   8.014   0.555  0.1880  0.1026  0.5000
 6306W        W10370   6.976   5.123   2.124  0.0410  0.1681  0.1101
 6307W        W10371   5.651   4.356  11.374  0.0343 -0.2481 -0.0067
 6308W        W10372   7.523   6.861   3.672  0.0507 -0.1648  0.2552
 6309W        W10373   8.059   1.851   9.502  0.1114 -0.1258 -0.2598
 6310W        W10374  10.004   9.057   0.841 -0.0829  0.2014 -0.0217
 6311W        W10375   1.420   2.856   2.741 -0.2642 -0.1172 -0.1130
 6312W        W10376   0.966   9.002  10.911 -0.0570 -0.1725 -0.2266
 6313W        W10377   4.430   5.358   0.011 -0.3119  0.0974 -0.1686
 6314W        W10378   9.843   9.763   0.384 -0.2915  0.2619 -0.0116
 6315W        W10379   1.853   5.941   1.060 -0.1814 -0.1425  0.3355
 6316W        W10380   1.179   8.117  10.040 -0.0241  0.1189 -0.2533
 6317W        W10381   0.082   4.315   9.273  0.1490 -0.1498 -0.2371
 6318W        W10382   8.470   9.991   3.216 -0.1587 -0.0978 -0.1231
 6319W        W10383   4.153   6.464   1.667 -0.0086 -0.0463  0.1983
 6320W        W10384   7.492   6.626   0.738  0.1912 -0.0914  0.0378
 6321W        W10385  10.488   3.749   0.127 -0.0850 -0.2202  0.0735
 6322W        W10386   9.758   1.042   1.363 -0.0233  0.0289 -0.1456
 6323W        W10387   1.655   7.040   1.760  0.0453  0.1150  0.1821
 6324W        W10388   3.072   3.822   7.943  0.0547 -0.0225 -0.2015
 6325W        W10389   6.028   5.309  10.666 -0.3062  0.2508  0.0526
 6326W        W10390   1.354   6.818   0.818 -0.1164  0.1382 -0.0105
 6327W        W10391   7.327   6.063   9.056 -0.2935 -0.1984  0.0092
 6328W        W10392   3.232   5.131  10.898 -0.0762 -0.0733  0.0954
 6329W        W10393   9.965   5.373   9.972 -0.0734 -0.1439  0.0212
 6330W        W10394   2.978   9.660  10.067  0.0623 -0.5259  0.0363
 6331W        W10395   8.167   7.547   8.407  0.0961  0.2355  0.1739
 6332W        W10396   4.401   3.955   8.137 -0.2054 -0.0204  0.1522
 6333W        W10397   4.304   4.776   8.562 -0.0559 -0.1200 -0.0455
 6334W        W10398  10.576   2.463   9.043 -0.2166  0.2012  0.1910
 6335W        W10399   6.966   8.586   9.381  0.2453  0.4405 -0.0383
 6336W        W10400   5.583   9.869   3.863  0.0242  0.2575  0.0763
 6337W        W10401   8.240   4.727   9.334 -0.1373 -0.2527 -0.0012
 6338W        W10402   6.640   4.460   3.027 -0.0570 -0.0118  0.0496
 6339W        W10403   0.244   3.787   2.834 -0.1913  0.2082 -0.2401
 6340W        W10404   0.225   6.508   0.006  0.1290 -0.0974 -0.0771
 6341W        W10405   4.941   5.486  11.136  0.1499  0.0200 -0.0292
 6342W        W10406   1.102   1.722   8.126 -0.1311  0.1629 -0.1557
 6343W        W10407   9.353   3.359   0.735 -0.1911 -0.0776  0.3190
 6344W        W10408   4.835   6.793   9.528 -0.1438  0.1365 -0.4775
 6345W        W10409   2.467   6.722   1.139  0.3010 -0.2057 -0.0086
 6346W        W10410   9.591   5.171   0.120 -0.1835  0.0151  0.3060
 6347W        W10411   3.720   2.214   1.710  0.0243 -0.6084  0.1252
 6348W        W10412   8.743   6.039  10.491  0.0695 -0.1754 -0.1521
 6349W        W10413   4.175   6.838   0.474  0.0523  0.3517  0.0002
 6350W        W10414   1.196   1.182   2.050  0.1566 -0.3233  0.1608
 6351W        W10415   3.044   0.985   8.804  0.3369 -0.0294 -0.2874
 6352W        W10416   7.318   2.388   9.411  0.0436 -0.1654 -0.2188
 6353W        W10417   8.477   6.963   2.133 -0.2907  0.1169 -0.0982
 6354W        W10418   3.426   1.761   9.372 -0.2600  0.0900 -0.0588
 6355W        W10419   8.997   1.837  10.029  0.0807  0.3034  0.1639
 6356W        W10420   2.991   1.892  10.047 -0.0141 -0.0074  0.0330
 6357W        W10421   2.403   2.677   2.490 -0.0018  0.0876  0.1365
 6358W        W10422   4.869   6.084   2.205  0.1881 -0.1232 -0.2086
 6359W        W10423   8.648   0.539   2.451 -0.1020 -0.4846 -0.0072
 6360W        W10424   3.601   3.081   7.334 -0.1568 -0.0603 -0.1038
 6361W        W10425   8.406   9.829  11.073 -0.0536 -0.1134 -0.1420
 6362W        W10426   0.419   7.523   2.176  0.0863  0.0182  0.1435
 6363W        W10427   5.144   6.559  11.242 -0.2976 -0.1264  0.3320
 6364W        W10428   9.204  10.597  11.441  0.1110 -0.0179 -0.1043
 6365W        W10429   5.307   6.773   8.208 -0.0033 -0.1556  0.0510
 6366W        W10430   6.576   8.305   9.653  0.1514  0.3640  0.1763
 6367W        W10431   7.400   7.364   0.146 -0.0888 -0.2221 -0.1268
 6368W        W10432   6.313  10.167   7.856  0.2527 -0.0814 -0.0603
 6369W        W10433   8.614   6.542   0.749 -0.1968 -0.1706 -0.0880
 6370W        W10434   2.114   7.982   9.660 -0.0083  0.2863 -0.0133
 6371W        W10435   8.965   4.435   8.433  0.3640 -0.0078 -0.0479
 6372W        W10436   4.825  10.221   3.096  0.1394  0.3307  0.2987
 6373W        W10437   8.947   7.133   1.807  0.0128  0.1176  0.3134
 6374W        W10438   4.306   6.367   9.252  0.0491  0.2999  0.2358
 6375W        W10439   4.636   0.564   3.865 -0.2686 -0.0692  0.1960
 6376W        W10440   5.876   3.768   0.124  0.2163  0.0655  0.1464
 6377W        W10441   5.277   0.553  10.711 -0.0043 -0.1276 -0.4360
 6378W        W10442   6.733   4.840   4.013 -0.1720 -0.0311 -0.0407
 6379W        W10443   8.609   8.205  10.662 -0.0555  0.0982 -0.0953
 6380W        W10444   5.338   4.832   8.368 -0.0166 -0.1923 -0.1036
 6381W        W10445   7.223   0.121   2.408  0.2611  0.0083 -0.0237
 6382W        W10446   3.782   4.666   0.074 -0.0599  0.1586  0.0032
 6383W        W10447   2.021  10.260  10.402  0.1317 -0.1589  0.3984
 6384W        W10448   7.598   4.773  10.329 -0.0479  0.0037 -0.1159
 6385W        W10449   0.483   1.201   1.893  0.2010  0.1091 -0.1688
 6386W        W10450   2.520   1.946  10.738  0.0194 -0.2469  0.0280
 6387W        W10451   9.318   2.369  10.851 -0.1670  0.0034 -0.0456
 6388W        W10452   7.042   1.963   2.839  0.1371  0.0740  0.1359
 6389W        W10453   7.388   9.960   2.432 -0.2752 -0.0259  0.0339
 6390W        W10454   3.784   7.204   8.981 -0.2673 -0.0518  0.1970
 6391W        W10455   1.810   4.321   0.771  0.3326  0.0149  0.1109
 6392W        W10456   8.916   3.916   9.977  0.1783 -0.1728  0.0237
 6393W        W10457   3.547   5.131   7.698  0.1072 -0.1273 -0.0293
 6394W        W10458   8.431   6.153  11.523 -0.0756  0.2312  0.1374
 6395W        W10459   2.959   3.283   8.898 -0.0814 -0.2429 -0.0433
 6396W        W10460   8.638   7.914  11.201 -0.0690  0.1202 -0.0735
 6397W        W10461   9.176   3.716   1.321  0.1087  0.3694 -0.0870
 6398W        W10462   9.572   1.267   0.910 -0.3600  0.1711 -0.0428
 6399W        W10463   4.248   1.274   2.121 -0.2378 -0.2518  0.0584
 6400W        W10464   6.033   5.503   2.892 -0.1922  0.1713 -0.1738
 6401W        W10465   9.856   5.963  11.504 -0.0652  0.0756  0.0527
 6402W        W10466   1.452   3.446   4.067  0.1902  0.1508  0.0139
 6403W        W10467   1.269   5.050   1.818 -0.1300 -0.1973  0.2483
 6404W        W10468   0.467   5.721  11.040  0.4066  0.0449 -0.0990
 6405W        W10469   0.970   2.744   1.175 -0.2383  0.0009 -0.3669
 6406W        W10470   6.431   5.036   1.518 -0.1364 -0.1214  0.0774
 6407W        W10471   6.141   1.868   8.100  0.0575  0.0379  0.0280
 6408W        W10472   8.272   2.585   3.586  0.0189  0.1218  0.2905
 6409W        W10473   3.244   7.366   0.895 -0.2582  0.0185  0.0863
 6410W        W10474   5.515   7.727   0.669  0.1337  0.0788  0.1103
 6411W        W10475   9.494   4.325   0.614 -0.1096  0.1096 -0.4796
 6412W        W10476   0.500   7.054   0.912 -0.1034 -0.2544 -0.2774
 6413W        W10477   7.311   3.461  10.284  0.0129  0.0013  0.0218
 6414W        W10478  10.168   8.046   1.201  0.1489 -0.0916 -0.1298
 6415W        W10479   2.895   1.369   7.300 -0.0943  0.4813 -0.0538
 6416W        W10480   7.666   3.328   9.344  0.1849  0.1283  0.5126
 6417W        W10481   1.757   6.771  10.933  0.0486  0.1178  0.1687
 6418W        W10482   8.489   5.470   1.577  0.0813 -0.1863 -0.0176
 6419W        W10483   4.779   0.097   2.818  0.5141  0.3986  0.2860
 6420W        W10484   8.531   3.619   9.198  0.5010 -0.2477  0.1062
 6421W        W10485   5.735  10.050   1.744 -0.3489  0.1321 -0.2968
 6422W        W10486   0.911   1.939  10.294  0.0998  0.0383 -0.0168
 6423W        W10487   5.706   5.891   0.814 -0.1236  0.0205 -0.0901
 6424W        W10488   5.739  10.011   9.135 -0.0721  0.0707 -0.0513
 6425W        W10489   9.879   7.305   8.875 -0.1501 -0.1908  0.0089
 6426W        W10490   0.917   1.061   9.759 -0.2752 -0.1093  0.1682
 6427W        W10491   5.052   8.114   3.473 -0.1919  0.1168 -0.0710
 6428W        W10492   8.111   7.466   7.910  0.0817  0.1397  0.0228
 6429W        W10493   1.929   6.882   9.645  0.0674 -0.3261  0.2938
 6430W        W10494   3.241   2.387   8.914  0.0776 -0.0254  0.2336
 6431W        W10495   4.258   2.963   2.968 -0.0857  0.1324 -0.1859
 6432W        W10496   7.468   0.333   8.455 -0.2164 -0.3694  0.1059
 6433W        W10497   2.648  10.264   1.564  0.1349 -0.3255 -0.1442
 6434W        W10498   1.273   9.994   9.863 -0.0703 -0.0754  0.1031
 6435W        W10499   0.580   1.079   2.823 -0.1716 -0.0487 -0.0597
 6436W        W10500   1.787   8.646   1.667  0.3840  0.0773 -0.2581
 6437W        W10501   5.032   1.930   2.905 -0.3094  0.3996  0.0992
 6438W        W10502   7.279   8.129   8.839 -0.1173  0.2343 -0.1096
 6439W        W10503   7.841   7.579   0.109  0.1223  0.0540  0.0054
 6440W        W10504   2.834   3.281   0.560  0.1156  0.0811 -0.0071
 6441W        W10505   7.779   1.790   3.075  0.0784 -0.0425 -0.2124
 6442W        W10506   9.319   2.147   8.843 -0.3119 -0.0135 -0.2130
 6443W        W10507   0.952   2.212  11.442  0.4045 -0.0263 -0.1553
 6444W        W10508   3.889  10.589   3.353  0.2622  0.1942  0.0824
 6445W        W10509   3.865   8.458  10.166  0.1475  0.0755  0.1834
 6446W        W10510   4.057   0.491   8.322  0.4577  0.0186  0.3104
 6447W        W10511   2.026   4.050   9.138  0.1181  0.0388 -0.3844
 6448W        W10512   6.924   6.973  10.512  0.2239 -0.1552  0.2117
 6449W        W10513  10.275   6.910   1.262 -0.1297 -0.3441  0.0811
 6450W        W10514   1.062   6.393   8.923  0.0129  0.3030  0.0652
 6451W        W10515   7.309  10.657  11.299 -0.1901  0.0468  0.1336
 6452W        W10516   1.768   9.294  11.388 -0.0895 -0.2127 -0.0742
 6453W        W10517   6.841   4.692   2.512 -0.0806 -0.0153 -0.1887
 6454W        W10518   1.409   5.630   9.598  0.1749  0.1597 -0.1693
 6455W        W10519   4.994   8.050   9.879  0.2928  0.1506  0.2848
 6456W        W10520   5.665   4.333   9.964  0.0146  0.0290 -0.1475
 6457W        W10521   1.334  10.239   0.112  0.2130 -0.0501  0.2523
 6458W        W10522   4.621   7.631   0.298  0.1050 -0.2114  0.0816
 6459W        W10523   1.923   5.290   0.032  0.3420 -0.1667 -0.2159
 6460W        W10524   8.611   8.110   8.006  0.1270 -0.2821 -0.0561
 6461W        W10525   3.798   1.573   9.795  0.2108  0.2392 -0.0228
 6462W        W10526  10.450   3.595   2.726 -0.0532  0.2523 -0.1407
 6463W        W10527   9.529   8.517  11.495 -0.2386 -0.2305  0.2181
 6464W        W10528   6.912   9.232   9.368 -0.0632  0.1766  0.5683
 6465W        W10529  10.549   3.390   9.545  0.0058  0.0847  0.0700
 6466W        W10530   6.697   2.566   9.817 -0.0810 -0.2162  0.0089
 6467W        W10531   3.522   0.268  10.310 -0.0046  0.2331 -0.2374
 6468W        W10532   4.112   4.716  10.936  0.2236 -0.1111 -0.1240
 6469W        W10533   3.599   5.638   2.617 -0.1021  0.2955 -0.1991
 6470W        W10534   7.930   1.759  10.136 -0.1060 -0.0007 -0.1561
 6471W        W10535   2.933   4.600   1.336  0.1925 -0.0421 -0.2622
 6472W        W10536   6.912   0.461   9.879 -0.0776 -0.0201 -0.2031
 6473W        W10537   5.102   0.391   3.681 -0.1836 -0.0220  0.2447
 6474W        W10538   9.870  10.224   1.611 -0.1258  0.2310 -0.1627
 6475W        W10539   0.869   1.636  10.692 -0.0773  0.0723  0.0110
 6476W        W10540   7.086   4.080   0.544 -0.1025 -0.1327 -0.3581
 6477W        W10541   7.556   0.728   9.243  0.3252  0.2643 -0.1140
 6478W        W10542   4.097   7.281   9.432 -0.1714 -0.2829  0.1223
 6479W        W10543   8.847  10.448   0.197 -0.1899  0.2415 -0.0355
 6480W        W10544   8.632  10.043   1.441  0.1926  0.2023  0.1707
 6481W        W10545  10.028   8.193   0.754  0.1294  0.0837  0.0122
 6482W        W10546   7.002   8.310   4.116 -0.3649  0.4894 -0.0167
 6483W        W10547   7.224   6.643  10.292 -0.1808 -0.2805  0.1150
 6484W        W10548   2.369   7.015  11.420  0.1028  0.0035  0.1158
 6485W        W10549  10.143   3.229   8.680  0.1815  0.1410 -0.1080
 6486W        W10550   8.637   6.087   2.077 -0.3257  0.0906 -0.0593
 6487W        W10551   8.776   3.191   9.455 -0.0255 -0.0063  0.1110
 6488W        W10552  10.322   1.718   1.042  0.0547 -0.1877  0.0982
 6489W        W10553   0.928   1.735   3.085 -0.2943  0.0148  0.0205
 6490W        W10554   1.410   9.684   9.471  0.1499 -0.1450  0.1693
 6491W        W10555   3.657   3.235   8.313  0.0586  0.1765  0.0285
 6492W        W10556   1.767   9.099   9.800  0.2587 -0.0134 -0.3447
 6493W        W10557   4.072   1.043   0.452  0.1898  0.2266 -0.0569
 6494W        W10558   1.687   1.577   8.787 -0.0121  0.2670  0.1685
 6495W        W10559   8.021   2.933  10.181  0.3193 -0.0133 -0.0188
 6496W        W10560   3.988  10.602  10.311 -0.1000  0.0774  0.1182
 6497W        W10561   3.219   2.998   7.670 -0.1317  0.1052 -0.0867
 6498W        W10562   2.030   0.611   8.945 -0.0678 -0.0683 -0.0980
 6499W        W10563   5.514   1.334   3.274 -0.0014 -0.0649  0.0844
 6500W        W10564   9.869   1.720   3.138  0.1231  0.1000 -0.0341
 6501W        W10565   8.525   6.816   8.480 -0.1968  0.0195 -0.2352
 6502W        W10566   2.418   0.879   0.856  0.1490 -0.3089 -0.1125
 6503W        W10567   5.334   1.495   0.430  0.0092 -0.0413 -0.0073
 6504W        W10568   7.164   9.564   9.015 -0.1732 -0.1994  0.2210
 6505W        W10569  10.189   9.644   9.655  0.2763  0.0460 -0.2046
 6506W        W10570   5.343   6.500   2.546 -0.2816  0.2324 -0.2235
 6507W        W10571   7.422   9.288   0.947 -0.2380 -0.1750  0.3789
 6508W        W10572   5.432   9.738  10.534 -0.1381  0.1289  0.0151
 6509W        W10573   4.685   2.465  11.452  0.2429  0.1882  0.0674
 6510W        W10574   6.929   2.377  11.096 -0.0775  0.1848 -0.2518
 6511W        W10575   5.455   4.301   3.342 -0.0141  0.2409  0.1443
 6512W        W10576   8.456   6.883   2.646 -0.3420  0.2250  0.1863
 6513W        W10577   1.896   4.836  10.209 -0.1686  0.1892 -0.0853
 6514W        W10578  10.443   1.000   2.223  0.1055 -0.3898 -0.1088
 6515W        W10579   0.007   5.361   0.761  0.1938  0.4159  0.3123
 6516W        W10580   2.438   0.123   8.911  0.2585  0.1151 -0.2936
 6517W        W10581   9.366   5.282   2.907 -0.0227 -0.2042  0.2469
 6518W        W10582   2.608   0.864  11.524  0.0752  0.0615  0.1476
 6519W        W10583   1.510   2.948   7.693  0.1597 -0.0760 -0.0927
 6520W        W10584   8.500   4.570   0.667 -0.0314 -0.0010 -0.0821
 6521W        W10585   1.488   5.584   0.863 -0.2029  0.0266 -0.1997
 6522W        W10586   4.531  10.593   1.635 -0.1032 -0.1872  0.0702
 6523W        W10587   3.236  10.411   2.063 -0.3015 -0.1734 -0.3807
 6524W        W10588   9.795   8.638  10.664 -0.0736  0.3270 -0.1862
 6525W        W10589   8.492   9.284   0.810 -0.0520  0.3345 -0.3343
 6526W        W10590   5.998   2.986  11.356 -0.1920  0.0038  0.2672
 6527W        W10591   4.766   3.481  11.235  0.1025  0.1715 -0.0847
 6528W        W10592   0.956   8.737  11.311 -0.1782 -0.2163  0.0167
 6529W        W10593   5.683   5.227  11.073 -0.2519  0.0984  0.3645
 6530W        W10594   9.647   4.372   3.126  0.1572 -0.1964  0.3353
 6531W        W10595   3.727   0.216   8.102  0.0229  0.4620  0.0348
 6532W        W10596   5.346   2.495   9.678  0.1649  0.0807 -0.0943
 6533W        W10597   3.376   0.256   0.991 -0.0065  0.1186  0.0404
 6534W        W10598   0.009   2.768  10.909  0.0342  0.1604  0.3234
 6535W        W10599   6.021   7.205  10.555  0.4045  0.1784  0.1582
 6536W        W10600   7.497   4.608   2.470  0.0994 -0.0271 -0.2079
 6537W        W10601   8.188   9.351   9.125 -0.0481  0.1858 -0.0533
 6538W        W10602   1.063   0.958   1.337  0.2948  0.0209  0.0885
 6539W        W10603   7.646   6.319  11.234  0.2612 -0.3125  0.1651
 6540W        W10604   3.429   3.177   9.286  0.0595 -0.0462 -0.3823
 6541W        W10605   8.175  10.505   2.171 -0.4582  0.1617 -0.1920
 6542W        W10606   4.096   1.583  10.924  0.2679 -0.1744 -0.2723
 6543W        W10607   8.138   9.630   9.695 -0.1505 -0.1032  0.1940
 6544W        W10608   8.230   5.772   2.021 -0.3379 -0.0994  0.1560
 6545W        W10609   7.464   7.862   0.280 -0.1599  0.0213  0.3350
 6546W        W10610   2.562   7.011   2.046  0.0296  0.0614 -0.0048
 6547W        W10611   9.813   1.658   9.521  0.1842 -0.1444  0.1465
 6548W        W10612   6.346   9.543  10.242  0.0774 -0.2971  0.0946
 6549W        W10613   4.997   3.445   8.628 -0.3331  0.0192  0.1807
 6550W        W10614  10.610   8.246   1.405 -0.2731  0.0868 -0.1611
 6551W        W10615   8.954   4.483   1.315 -0.0327 -0.1068 -0.1302
 6552W        W10616   8.733   4.750   3.566  0.0207  0.1610  0.1872
 6553W        W10617   0.215   6.171   0.738 -0.0760  0.2140 -0.0523
 6554W        W10618   6.085   2.161  10.662  0.0853  0.0477  0.0527
 6555W        W10619   9.349   1.063   8.038 -0.1524  0.0297 -0.0024
 6556W        W10620   9.584   3.358   1.523 -0.1110  0.0994 -0.2556
 6557W        W10621  10.386  10.569   9.030 -0.1659  0.1873 -0.0618
 6558W        W10622   5.298   9.874   9.540 -0.0413  0.0160 -0.1666
 6559W        W10623   1.000   6.109   9.684  0.0843  0.1652 -0.3120
 6560W        W10624   5.455   3.189   9.630  0.0568  0.0706  0.1459
 6561W        W10625   2.252  10.385   8.237 -0.3236  0.1214 -0.0525
 6562W        W10626   7.237   4.330   2.772  0.1471  0.0201 -0.0200
 6563W        W10627  10.540   5.271   3.735 -0.0413  0.1362  0.1831
 6564W        W10628   6.808   9.020  11.569 -0.0606  0.0063  0.4757
 6565W        W10629   2.178   7.080  10.935 -0.1619  0.2842  0.2387
 6566W        W10630   5.302   9.254   2.089 -0.0443 -0.0409 -0.4575
 6567W        W10631   8.857   8.585   1.939 -0.3119  0.2084 -0.0242
 6568W        W10632   4.323   5.851   0.915 -0.0432 -0.0794  0.1454
 6569W        W10633   8.298   6.681   0.382 -0.1885  0.3389  0.2620
 6570W        W10634   0.379   7.027   9.971  0.4675  0.1120  0.1553
 6571W        W10635   3.703   4.277  11.291 -0.1795  0.0915  0.1980
 6572W        W10636   2.074   8.809   2.466 -0.0379 -0.2136 -0.0202
 6573W        W10637   2.792   2.778  10.055 -0.2009 -0.1488  0.1523
 6574W        W10638   0.289  10.417  10.713  0.1498 -0.1474 -0.0629
 6575W        W10639   4.881   2.169  10.993 -0.1160  0.0558  0.2405
 6576W        W10640  10.598   4.160   2.768  0.2664  0.2457 -0.3710
 6577W        W10641   2.038  10.295   2.312  0.0961  0.0250  0.0827
 6578W        W10642   7.488   1.889   8.310  0.1882 -0.0183  0.3171
 6579W        W10643   0.967  10.595   1.367 -0.1181 -0.0710  0.0934
 6580W        W10644   1.601   4.236   8.887 -0.0746  0.0181  0.1189
 6581W        W10645   2.224   1.744   2.093  0.1204 -0.0515  0.0708
 6582W        W10646   3.634   1.938  10.227 -0.0019 -0.1399  0.0532
 6583W        W10647   5.506   3.610   2.487  0.0574 -0.0751 -0.1227
 6584W        W10648   2.595  10.111   2.829  0.1378 -0.1843 -0.1199
 6585W        W10649   7.930   9.646   1.632 -0.1435 -0.1641 -0.0134
 6586W        W10650   4.668   0.922   8.054  0.1211  0.2781 -0.2171
 6587W        W10651   7.022   9.410  10.791  0.1041  0.0337  0.0474
 6588W        W10652   2.042   7.184   2.156  0.3526 -0.3524 -0.0917
 6589W        W10653   4.671   7.973  10.456 -0.2795  0.1844 -0.2616
 6590W        W10654   7.991   2.706  11.486  0.2160  0.0134  0.0957
 6591W        W10655   3.673   3.600   9.303 -0.1046 -0.1474 -0.0181
 6592W        W10656   7.389   9.267   9.466 -0.1523 -0.2284  0.3110
 6593W        W10657   1.307   8.851  10.532  0.1931  0.2361 -0.0718
 6594W        W10658   2.589   5.651  10.148 -0.1203 -0.1347 -0.1509
 6595W        W10659   0.352   9.086  10.711 -0.2065 -0.0658  0.2413
 6596W        W10660  10.209   2.439   9.448  0.0499 -0.2435  0.1995
 6597W        W10661   8.182   1.289   9.722 -0.3383  0.3040 -0.0473
 6598W        W10662   8.295   9.334  10.912  0.2264  0.1339  0.3007
 6599W        W10663   2.008   4.302   0.200  0.0594  0.0156 -0.0139
 6600W        W10664   2.258   1.381   0.893  0.2807  0.1478  0.1668
 6601W        W10665   0.686   2.238   2.019  0.3920  0.0061  0.4178
 6602W        W10666   5.002   8.402   0.320 -0.1177  0.1807 -0.2678
 6603W        W10667   5.413   5.432  10.221 -0.1607  0.2310 -0.0191
 6604W        W10668   9.472   9.469   7.859  0.0892 -0.0262 -0.1421
 6605W        W10669   2.007   5.325  11.004 -0.0887  0.0286 -0.1023
 6606W        W10670   6.333   8.189   3.612  0.1058 -0.0673 -0.0775
 6607W        W10671   5.805   6.271   2.655 -0.2013  0.0650 -0.2408
 6608W        W10672   1.693   5.488   3.902  0.3276 -0.0663 -0.1840
 6609W        W10673   2.509   4.289   2.863  0.1728  0.1296  0.0824
 6610W        W10674   7.382   5.810   9.570  0.1318 -0.1455  0.3043
 6611W        W10675  10.450   1.442   8.677 -0.0098  0.1191  0.2400
 6612W        W10676   9.893   3.836  10.950 -0.5665 -0.3808 -0.4115
 6613W        W10677   9.211   8.365   3.398  0.0243  0.0454 -0.0998
 6614W        W10678   8.900   0.838   3.142 -0.2495  0.0521  0.1557
 6615W        W10679   6.463   0.851   0.338  0.1156 -0.1963  0.0746
 6616W        W10680   5.879   0.068  10.348 -0.1186  0.1154 -0.0468
 6617W        W10681  10.325   0.331   1.817  0.0095 -0.1218  0.0432
 6618W        W10682   8.557   7.648   8.038  0.0197  0.0558 -0.0200
 6619W        W10683  10.506   5.759   2.870 -0.0931 -0.1190 -0.0838
 6620W        W10684   8.057   9.894   9.247  0.1420 -0.0192  0.0850
 6621W        W10685   1.155   3.278   8.587  0.1458  0.3525 -0.1351
 6622W        W10686   1.163   6.551   2.031  0.2075 -0.0403  0.2019
 6623W        W10687   3.855   5.877   0.522 -0.2992  0.0009 -0.1609
 6624W        W10688   3.274   7.279   8.688  0.0878  0.0320  0.0515
 6625W        W10689   3.419   5.311   8.707  0.0635 -0.3286  0.0770
 6626W        W10690   7.815   5.694   9.766  0.0633  0.3933  0.0321
 6627W        W10691   1.267  10.212  10.335  0.1300  0.1726 -0.0139
 6628W        W10692   0.247   2.522  10.555 -0.0488 -0.0094  0.0538
 6629W        W10693   8.281   7.155   8.770  0.1344  0.1000  0.0803
 6630W        W10694   7.316   3.308   2.297 -0.2211 -0.2838  0.1926
 6631W        W10695   2.953   6.284   9.219  0.2237 -0.3467 -0.2097
 6632W        W10696   8.395   6.443   9.939  0.0403 -0.3362 -0.2613
 6633W        W10697   5.922   5.419   8.731 -0.2569 -0.0299  0.1860
 6634W        W10698   2.753   5.787  10.610 -0.0217  0.3263 -0.1460
 6635W        W10699   6.321   4.113   1.716  0.0740 -0.2718  0.0778
 6636W        W10700   9.055   0.261  10.318 -0.1377  0.0097 -0.1578
 6637W        W10701   4.461   8.021   8.357 -0.0712  0.0834 -0.1097
 6638W        W10702   9.950   3.614   1.748  0.2763 -0.0197  0.2595
 6639W        W10703   7.190   3.852  11.481  0.1395  0.0160 -0.0919
 6640W        W10704   0.203   0.804   1.924 -0.0013  0.0973  0.0517
 6641W        W10705   8.818   0.575   8.680  0.0923 -0.3479  0.1878
 6642W        W10706   8.504   0.521   1.368  0.1107 -0.0026  0.4347
 6643W        W10707   6.288   4.097   8.795  0.0693  0.0857 -0.0400
 6644W        W10708   5.691   4.171   9.478 -0.0999 -0.3102 -0.0002
 6645W        W10709   4.902   9.593   7.771 -0.0197 -0.0361 -0.1758
 6646W        W10710  10.049   9.935   8.374  0.1506  0.0425  0.0306
 6647W        W10711   6.639   3.766   1.847 -0.1496 -0.0074 -0.1531
 6648W        W10712   7.688  10.614   9.708  0.0760 -0.1852  0.0463
 6649W        W10713   0.242  10.441   2.921 -0.2458  0.0637 -0.2370
 6650W        W10714   1.614   2.530   9.908  0.1677  0.3299  0.2955
 6651W        W10715   5.012   1.035   0.736 -0.1948 -0.1539 -0.0777
 6652W        W10716   5.591   4.877   4.203  0.2099  0.1108  0.0177
 6653W        W10717   9.870   0.735   0.085  0.0150 -0.0706 -0.0529
 6654W        W10718   1.272   6.216  10.628 -0.2158  0.0592  0.1053
 6655W        W10719   7.790   8.488   9.593  0.1244  0.3064  0.2155
 6656W        W10720   2.119   2.537   9.832 -0.0799  0.0769 -0.2758
 6657W        W10721   4.457   3.533   0.050  0.1601 -0.0307  0.3737
 6658W        W10722   5.861   3.318   4.286  0.0780  0.0041  0.1494
 6659W        W10723   4.608   0.125   0.733  0.3158  0.3432  0.2288
 6660W        W10724   3.828   0.664   9.316  0.0703 -0.0870 -0.0778
 6661W        W10725   0.507   3.106   1.162  0.1677 -0.1242 -0.1193
 6662W        W10726   7.661  10.588  10.904 -0.0637  0.1847  0.2613
 6663W        W10727   2.028   0.345   1.607 -0.1086 -0.1643 -0.0864
 6664W        W10728   4.568   7.603   2.474  0.0907 -0.0485  0.0559
 6665W        W10729   9.163   5.382   1.770 -0.0235 -0.0534  0.0885
 6666W        W10730   5.551   8.172   3.226 -0.3348 -0.1828 -0.0790
 6667W        W10731   8.504   6.502  10.439 -0.4875 -0.0820 -0.1118
 6668W        W10732   8.611   1.818   1.896 -0.2446  0.1122  0.3548
 6669W        W10733   0.330   4.005  10.583  0.1691  0.2537 -0.2922
 6670W        W10734   6.691   8.233  11.025 -0.1551  0.0295  0.2277
 6671W        W10735  10.213   5.044   0.832  0.1514  0.1649 -0.0542
 6672W        W10736   4.554   0.316  10.245 -0.0262  0.0024  0.2173
 6673W        W10737   5.920   6.617   9.948  0.2030 -0.1246 -0.1804
 6674W        W10738   2.074  10.084   8.669  0.1115  0.2679 -0.2173
 6675W        W10739   3.857   5.743   8.359 -0.0576 -0.0240  0.1243
 6676W        W10740   3.468   3.850  11.209  0.0124  0.0481 -0.0694
 6677W        W10741   6.091   5.910   8.853 -0.4662  0.1200 -0.1004
 6678W        W10742   8.850   0.964   1.432  0.1337  0.1266 -0.2269
 6679W        W10743   6.308   7.288   8.189 -0.0666 -0.2423  0.1091
 6680W        W10744   4.064   2.508   9.333  0.3645 -0.1907 -0.1255
 6681W        W10745   1.923   9.296   1.197  0.0679  0.0296  0.0836
 6682W        W10746   0.209   2.682   3.850  0.0181 -0.2113 -0.1288
 6683W        W10747   5.085   0.570   0.153  0.0248 -0.0851 -0.0031
 6684W        W10748   5.029   0.148   9.326  0.0310  0.1807  0.3020
 6685W        W10749   4.336   3.624   1.326 -0.0348  0.0797  0.1607
 6686W        W10750   8.366   8.496   2.099  0.1459  0.0267 -0.2163
 6687W        W10751   3.440   2.790   8.057  0.4098 -0.2965 -0.4359
 6688W        W10752   1.671  10.170   0.465 -0.0301 -0.1713 -0.0466
 6689W        W10753   7.682   2.591   9.128 -0.0108 -0.0339 -0.2214
 6690W        W10754   2.860   2.644  11.359  0.0226  0.1024 -0.1492
 6691W        W10755  10.225   2.561   9.984  0.1030 -0.3072  0.0405
 6692W        W10756   1.596   1.672   8.269 -0.0593  0.2298 -0.4828
 6693W        W10757  10.318   1.942   3.048  0.0151  0.1229  0.0251
 6694W        W10758   3.086   4.011   9.239  0.0971 -0.0612  0.0043
 6695W        W10759   2.089   0.620   2.069  0.0300  0.0757  0.0223
 6696W        W10760   4.955   7.893   0.593  0.0903 -0.3748 -0.0603
 6697W        W10761   2.439   0.365  10.426 -0.0374 -0.0662  0.1528
 6698W        W10762   4.084   1.863   2.766  0.0243  0.0298  0.2269
 6699W        W10763  10.444   6.224   4.233 -0.1426 -0.0424  0.2043
 6700W        W10764   4.388   8.762   3.283  0.1485 -0.2469  0.1455
 6701W        W10765   7.894   6.430   2.435  0.1522  0.0598 -0.1782
 6702W        W10766   3.359   3.470   0.083  0.1475 -0.3763 -0.1040
 6703W        W10767   2.539  10.375   0.682  0.1163 -0.0481 -0.1581
 6704W        W10768   7.923   3.546   8.856 -0.1456  0.0547  0.1059
 6705W        W10769   3.090   5.774   9.387 -0.0020  0.0042  0.0152
 6706W        W10770   0.966   0.757   2.823  0.1384 -0.0601  0.1618
 6707W        W10771   9.611   2.734   9.759 -0.0188 -0.1508 -0.1179
 6708W        W10772   6.368   0.174  10.643  0.1606  0.1253 -0.0009
 6709W        W10773   3.708   6.869   3.437 -0.1186  0.1338  0.1196
 6710W        W10774   4.482   0.988  11.018 -0.0662  0.0304 -0.0362
 6711W        W10775   4.457  10.126   3.982 -0.0584  0.0304  0.5136
 6712W        W10776   3.751   6.630   8.185 -0.0949  0.2225 -0.3217
 6713W        W10777   1.114   6.856   1.664 -0.1252 -0.2173  0.1338
 6714W        W10778   7.106   6.082  10.366  0.1181 -0.1112 -0.2659
 6715W        W10779   6.569   5.448  11.323 -0.0756  0.2331 -0.1631
 6716W        W10780   5.587   5.397   0.948 -0.0819  0.0867 -0.3679
 6717W        W10781   4.812   9.510  11.267 -0.0405  0.1411 -0.2533
 6718W        W10782   5.870   8.510   3.317  0.1905  0.0911  0.0776
 6719W        W10783   9.343  10.332   8.653  0.1664  0.0961  0.4398
 6720W        W10784   2.964  10.330   2.459 -0.0196 -0.1801 -0.1879
 6721W        W10785   2.110   0.971   2.486 -0.0566  0.0070  0.0306
 6722W        W10786   8.956   8.073  10.333 -0.0499 -0.2379 -0.1218
 6723W        W10787   9.831   6.317   8.412  0.2962 -0.0893 -0.0599
 6724W        W10788   9.758   7.901   2.911  0.3539  0.0566  0.1606
 6725W        W10789  10.417   2.888   9.177 -0.1211 -0.2735 -0.2406
 6726W        W10790   3.541  10.455   0.057  0.0341  0.2478 -0.4384
 6727W        W10791   7.313   4.273   8.610 -0.0565  0.3472 -0.0691
 6728W        W10792   4.890  10.605   8.508 -0.0245 -0.0701  0.2239
 6729W        W10793   4.974   8.570   7.700  0.0948 -0.1778  0.3486
 6730W        W10794   1.378  10.145   3.040  0.0725 -0.1269 -0.1746
 6731W        W10795   9.075   9.994   8.381  0.1557 -0.0850 -0.1300
 6732W        W10796   4.457   7.087  10.930 -0.4020  0.2032  0.0597
 6733W        W10797   3.304   5.632   9.790 -0.2998  0.1177 -0.4154
 6734W        W10798   1.049   6.898   2.471  0.1908 -0.1093 -0.1017
 6735W        W10799   8.002   6.726   9.690  0.1104 -0.1065  0.1254
 6736W        W10800   2.781   2.767   3.819 -0.3754  0.2750  0.2569
 6737W        W10801   9.921   6.338  10.403  0.1514 -0.0357  0.0738
 6738W        W10802   7.885   0.835   0.119 -0.0775 -0.2468  0.1127
 6739W        W10803   1.599   0.613   0.768  0.0560  0.0222 -0.3882
 6740W        W10804   8.490   5.425   3.210 -0.1478  0.2069  0.0376
 6741W        W10805   1.736   1.013   2.086  0.1194 -0.2391 -0.2925
 6742W        W10806   6.789   6.725   0.907  0.0546  0.1295  0.2331
 6743W        W10807   3.444   6.665   2.617 -0.1885  0.1475 -0.1714
 6744W        W10808   7.375   9.406   8.566  0.1038 -0.5086  0.0907
 6745W        W10809   2.616   6.368   8.821  0.2890  0.1030  0.0335
 6746W        W10810   2.281   2.176  10.342  0.4422 -0.2354 -0.1733
 6747W        W10811   2.305   3.932  10.992 -0.0858 -0.1697  0.2955
 6748W        W10812   9.352   8.757   0.874 -0.0053  0.1191 -0.2789
 6749W        W10813   4.334   9.816   8.605  0.1823  0.1138  0.0784
 6750W        W10814   4.293   9.793   8.028 -0.2995  0.1057 -0.3654
 6751W        W10815   7.799   1.127   1.668  0.0446  0.1841 -0.0882
 6752W        W10816   2.497   8.676   9.999  0.2184  0.1842  0.0579
 6753W        W10817   9.777   7.096   0.548 -0.3920 -0.2496 -0.0471
 6754W        W10818   5.012   7.375   2.291  0.1490 -0.0107  0.1028
 6755W        W10819   2.267   5.818   9.644  0.0310  0.1508  0.0297
 6756W        W10820   5.646   7.664   4.100  0.2489  0.2965  0.1694
 6757W        W10821   5.314   1.962  11.173  0.3024  0.2517 -0.0603
 6758W        W10822   2.207   1.881   1.586 -0.4123  0.2001  0.1161
 6759W        W10823   4.874   5.484   8.965  0.0952  0.0963 -0.3529
 6760W        W10824   2.993   4.395   9.551  0.2527 -0.0665 -0.3200
 6761W        W10825  10.559   6.092   2.512 -0.2183  0.2733 -0.2015
 6762W        W10826   2.232  10.379   3.570 -0.1112  0.0625 -0.0936
 6763W        W10827   2.844   3.207   1.565 -0.1014  0.4310  0.0345
 6764W        W10828   3.270   4.470   0.417 -0.2820  0.4280  0.2932
 6765W        W10829   6.467   2.157  11.013  0.3565 -0.0594  0.1314
 6766W        W10830   6.026   4.238   2.159  0.3216 -0.3309 -0.1947
 6767W        W10831   1.028   4.927   0.251 -0.3363 -0.0737  0.0096
 6768W        W10832   9.392   7.092   3.405  0.0924 -0.0499  0.1024
 6769W        W10833   0.878   3.121   9.686  0.3682  0.0935  0.3360
 6770W        W10834   8.374   5.242  11.065 -0.0072  0.1580 -0.1237
 6771W        W10835   2.281   2.686   0.399 -0.3903  0.1769 -0.0001
 6772W        W10836   6.774  10.244  10.028  0.0942 -0.0826  0.2397
 6773W        W10837   8.935   1.910  10.691 -0.3351 -0.0708 -0.2192
 6774W        W10838   3.402   3.959   0.132 -0.1701 -0.2939  0.0019
 6775W        W10839   5.093   2.705   1.797  0.1374 -0.0090  0.2559
 6776W        W10840   6.373   5.127   8.567 -0.1770  0.1721  0.0927
 6777W        W10841   4.656   1.957   2.120  0.1009 -0.0085 -0.0384
 6778W        W10842   9.673   3.844   0.688 -0.0003 -0.1478 -0.0264
 6779W        W10843  10.047   8.653   9.123 -0.2124 -0.1445 -0.1197
 6780W        W10844   4.883   6.110  11.137  0.0237 -0.1936  0.1058
 6781W        W10845   5.273   9.039   9.927  0.0248 -0.0081  0.0166
 6782W        W10846   5.856   6.577   0.248  0.0189  0.1065 -0.1942
 6783W        W10847   0.810   4.217   2.103 -0.0055  0.1220 -0.1648
 6784W        W10848   0.562   1.067   1.396 -0.1742  0.1035 -0.0695
 6785W        W10849   6.943   4.455   0.875 -0.0815 -0.1291 -0.1223
 6786W        W10850   6.346   1.380   9.270 -0.3899 -0.3345  0.1367
 6787W        W10851   3.383   7.157   3.158  0.2819  0.3007  0.0595
 6788W        W10852   8.486   4.339   3.167 -0.0856 -0.1651 -0.0031
 6789W        W10853  10.640   1.243   0.342 -0.1497  0.1463 -0.2449
 6790W        W10854   5.532   4.014   1.274  0.0829 -0.0698  0.1027
 6791W        W10855   8.966   9.906   0.340 -0.2879 -0.5020 -0.0208
 6792W        W10856   0.234   4.405   0.566  0.2333 -0.1480 -0.1217
 6793W        W10857   2.655   5.067  10.889 -0.1277 -0.0013 -0.1547
 6794W        W10858   8.288   4.069   0.976 -0.0473 -0.1603 -0.2526
 6795W        W10859   8.863   8.168   3.098 -0.0381  0.1206 -0.0336
 6796W        W10860   1.740   9.983   1.823  0.3280  0.0575 -0.0065
 6797W        W10861   6.629   1.014   9.325 -0.0208  0.2922  0.1060
 6798W        W10862   5.864   5.900   4.601 -0.3053 -0.3349 -0.2988
 6799W        W10863   4.304   0.757  10.220 -0.1374  0.0658 -0.1023
 6800W        W10864   4.824   7.705   8.096  0.3848 -0.3539 -0.2048
 6801W        W10865   0.300  10.186   1.622 -0.1470  0.1025 -0.0531
 6802W        W10866   1.503   1.021   2.838  0.0676  0.1492 -0.0147
 6803W        W10867   9.898   7.636  10.429 -0.0340  0.2089  0.0187
 6804W        W10868   2.054   2.976   2.658 -0.0779  0.6097 -0.1285
 6805W        W10869   3.054   7.773   1.996  0.1871  0.2022 -0.0994
 6806W        W10870   0.653   7.523   0.632  0.2918  0.0695 -0.0641
 6807W        W10871   7.865   2.873   3.557  0.1495 -0.3462 -0.1250
 6808W        W10872   0.787   7.428   1.344  0.0524 -0.0349 -0.0143
 6809W        W10873   2.539   3.482  10.905  0.2125 -0.1701 -0.2484
 6810W        W10874   5.147   8.105   1.325  0.0982 -0.3640 -0.0499
 6811W        W10875   2.878   2.369  10.398  0.2140  0.0735 -0.0235
 6812W        W10876   0.537   7.327   7.916  0.3062 -0.2117  0.2442
 6813W        W10877   6.746   3.453   3.303  0.3413 -0.2423 -0.1821
 6814W        W10878   7.729   8.033   8.481  0.3029 -0.0192 -0.0067
 6815W        W10879   3.652  10.128   0.704 -0.0995  0.1245  0.1131
 6816W        W10880   1.467   1.420   2.485  0.1157  0.3196 -0.0067
 6817W        W10881   0.277   2.602   1.003 -0.1471  0.2403  0.0861
 6818W        W10882   4.703   3.844   1.831 -0.3986 -0.3709 -0.0837
 6819W        W10883   7.306   4.864   0.958 -0.3100 -0.1721 -0.0300
 6820W        W10884   7.894   5.555   8.834  0.0226 -0.1786  0.1496
 6821W        W10885   1.072   2.735  11.552 -0.2122 -0.0518 -0.1721
 6822W        W10886   4.860   8.044   1.731 -0.4840 -0.1062 -0.2517
 6823W        W10887   4.810   0.721   9.995  0.0599  0.4148  0.4185
 6824W        W10888   4.538   5.748  11.035 -0.2322 -0.1002 -0.1693
 6825W        W10889   1.727  10.342   3.405  0.0207  0.0316  0.0400
 6826W        W10890   0.622   4.778   1.324 -0.1126  0.0288  0.0022
 6827W        W10891   9.287   0.688   1.447 -0.2429 -0.4309 -0.1971
 6828W        W10892  10.008   0.402   9.707 -0.0293 -0.0810 -0.0123
 6829W        W10893   1.018   9.755   2.684 -0.1639  0.5265 -0.1365
 6830W        W10894   5.516   3.769   9.150 -0.0012 -0.4785  0.0285
 6831W        W10895   5.016   4.531   2.418  0.1908  0.1871  0.2943
 6832W        W10896   2.598   6.345   0.826 -0.4027 -0.2305 -0.0755
 6833W        W10897   2.479  10.324   8.688 -0.4264  0.2605  0.4749
 6834W        W10898   9.300   3.642   3.346 -0.0738 -0.0229 -0.0436
 6835W        W10899   2.178   2.318   8.417  0.0340 -0.0695 -0.0291
 6836W        W10900   8.941   6.477  10.761  0.2563 -0.2138  0.0284
 6837W        W10901   7.239  10.593   7.984 -0.1911  0.1696  0.1964
 6838W        W10902   5.478   8.075   9.931 -0.0470 -0.0995 -0.1311
 6839W        W10903   0.148   2.155   9.338 -0.1786 -0.2439  0.0200
 6840W        W10904  10.592   2.802   1.637 -0.0768  0.2696 -0.1252
 6841W        W10905   8.912   7.204   2.398 -0.0151  0.0533  0.2741
 6842W        W10906   4.507   0.285   8.544  0.2370 -0.0780 -0.0435
 6843W        W10907   5.873   6.837   3.322  0.3597 -0.0093  0.0222
 6844W        W10908   3.764   2.451   2.124  0.1492 -0.0059  0.0329
 6845W        W10909   0.230   8.919   8.490 -0.2771  0.0320 -0.0213
 6846W        W10910   2.748   5.671   1.311 -0.0311  0.2993 -0.0446
 6847W        W10911   6.405   1.084   2.180  0.0408  0.0522  0.3665
 6848W        W10912   0.565   0.756   8.862 -0.2013  0.0351  0.0898
 6849W        W10913   3.129   6.570  10.991 -0.0228 -0.1926  0.0777
 6850W        W10914   3.418   4.711   9.706 -0.0386 -0.0652  0.2078
 6851W        W10915   3.669   7.254   1.219 -0.0884 -0.1861 -0.1603
 6852W        W10916   5.974   1.651  10.514 -0.1251 -0.1962  0.3120
 6853W        W10917   0.946   7.792   9.249 -0.0586 -0.4045  0.0034
 6854W        W10918   6.013   1.894   7.578  0.1167  0.1452  0.0869
 6855W        W10919  10.172   3.824   0.842 -0.0478 -0.1389  0.2789
 6856W        W10920   3.290   3.342   8.000  0.2294 -0.0388  0.3702
 6857W        W10921   0.212   8.568  10.456 -0.3735  0.0830  0.2003
 6858W        W10922   6.568   6.789   3.775 -0.2880 -0.0752  0.1955
 6859W        W10923   3.523   0.808   3.156  0.1868 -0.1002 -0.1352
 6860W        W10924   8.770  10.201   2.663 -0.0207  0.1137  0.0627
 6861W        W10925   5.126   8.509   8.180  0.2589  0.2042  0.1115
 6862W        W10926   1.185   6.850   8.521 -0.2974  0.2888 -0.2842
 6863W        W10927   3.266   5.713  10.735  0.0134  0.1673  0.1403
 6864W        W10928   1.529   4.498   2.491  0.0118  0.0073 -0.0409
 6865W        W10929   0.365  10.331   0.207  0.0282 -0.3643 -0.0138
 6866W        W10930   7.551   0.567   1.537 -0.3872 -0.3826 -0.1826
 6867W        W10931   8.321   9.888   3.938 -0.0010 -0.1311 -0.3025
 6868W        W10932   0.257   6.056   0.199 -0.0827 -0.1866 -0.0095
 6869W        W10933   1.060   1.917   0.983  0.1744 -0.2725  0.3055
 6870W        W10934  10.449   2.600   0.932 -0.2002  0.1539 -0.1122
 6871W        W10935   7.631   2.099   9.813 -0.3305 -0.0962  0.2823
 6872W        W10936   5.219   8.634  10.226 -0.1067  0.2532  0.4428
 6873W        W10937   2.987   7.979   9.436 -0.1787 -0.0102 -0.1231
 6874W        W10938   3.713   8.975   1.108  0.2718  0.1444  0.2796
 6875W        W10939   4.198   4.964   8.128 -0.1685  0.1457 -0.1754
 6876W        W10940   1.194   0.255  11.035 -0.1250  0.0221  0.0182
 6877W        W10941   3.276   9.213  11.225 -0.0311  0.1376  0.1940
 6878W        W10942   2.497   4.527   7.617 -0.1820  0.0644 -0.0679
 6879W        W10943   7.489   5.083   3.200  0.0901 -0.0403 -0.1156
 6880W        W10944   9.131   2.813  10.675  0.2625 -0.2608  0.1461
 6881W        W10945   6.964   1.961   2.311 -0.1253  0.0885 -0.1080
 6882W        W10946   9.401   4.669   8.534 -0.0726 -0.1096  0.3753
 6883W        W10947   0.857   9.000  10.353  0.0630  0.0920  0.2258
 6884W        W10948   8.265   4.211   7.760  0.2795 -0.0452  0.1480
 6885W        W10949   4.888   9.125   2.390 -0.2142 -0.1754 -0.0428
 6886W        W10950   8.913   2.440   2.029  0.4512 -0.0638  0.1896
 6887W        W10951   9.990   0.226   9.071  0.0850  0.3821  0.1776
 6888W        W10952   1.997   1.862   8.530 -0.1766  0.0408 -0.1022
 6889W        W10953   4.224   4.109   1.358 -0.0490  0.1130 -0.0682
 6890W        W10954   3.439   5.314   0.712  0.0299  0.1000 -0.0164
 6891W        W10955   1.205   6.384   0.439 -0.0367 -0.1971  0.2731
 6892W        W10956   4.333   4.162   2.043 -0.1088  0.1000  0.0058
 6893W        W10957   6.932   2.045   3.325  0.0622  0.0513 -0.2514
 6894W        W10958   4.450   5.122   2.355 -0.0429  0.2791  0.1598
 6895W        W10959   6.538  10.323   1.500  0.0610  0.2128  0.0700
 6896W        W10960   4.861   3.903   9.849 -0.2218  0.0416 -0.0654
 6897W        W10961   9.756   8.982   8.027 -0.0014  0.0332  0.2346
 6898W        W10962   7.711   9.140   1.795 -0.0197  0.0332 -0.2789
 6899W        W10963   1.222   5.418   3.029 -0.1185  0.1183 -0.1440
 6900W        W10964   7.007   7.163   9.402 -0.1930  0.1373 -0.2346
 6901W        W10965   7.454   1.243   9.142 -0.0665  0.3070  0.2021
 6902W        W10966  10.592   6.439  10.966 -0.0838  0.3195 -0.1394
 6903W        W10967   6.819   5.640   0.184 -0.2133  0.0006 -0.0801
 6904W        W10968   7.382   8.657   8.883  0.0797  0.1434  0.1187
 6905W        W10969   7.035   1.682   0.295  0.0743 -0.0311  0.0955
 6906W        W10970   9.761   7.606   2.484  0.3181  0.0171 -0.0031
 6907W        W10971   6.135   8.068   1.299  0.0247 -0.1049 -0.2303
 6908W        W10972   7.511  10.310   2.106 -0.2035 -0.1924 -0.1373
 6909W        W10973   7.226   8.410   0.769 -0.0343  0.1725 -0.0059
 6910W        W10974   6.505   0.805   7.382  0.1041 -0.0105 -0.1620
 6911W        W10975   8.804   6.814  10.148 -0.0608  0.1509  0.2111
 6912W        W10976   6.695   2.360   2.531  0.2707 -0.1920  0.1659
 6913W        W10977   9.232   0.406   0.066  0.0483 -0.1466 -0.0373
 6914W        W10978   6.432  10.140   2.355  0.0319  0.0624 -0.2928
 6915W        W10979   7.010   2.901   2.622 -0.0757 -0.0764 -0.0768
 6916W        W10980   5.343   6.561   0.153 -0.3609  0.1682 -0.0567
 6917W        W10981   0.272   6.132  11.255 -0.0026 -0.2342  0.0462
 6918W        W10982   7.310   5.977   2.976  0.0917 -0.1313  0.0363
 6919W        W10983   5.034   0.583   1.053 -0.0108 -0.1612  0.0106
 6920W        W10984   6.240   2.334   9.090 -0.0942 -0.1480  0.1325
 6921W        W10985   3.122   0.488   3.017 -0.2747  0.3351 -0.3047
 6922W        W10986   9.890   9.545   0.861 -0.2211 -0.0029 -0.0836
 6923W        W10987   0.305   2.974   9.584 -0.2102 -0.2816 -0.0154
 6924W        W10988   3.316   4.448  11.492  0.1614  0.0465 -0.0665
 6925W        W10989   1.625   8.459   0.147 -0.4811  0.1560 -0.0899
 6926W        W10990   2.631   3.434   9.780  0.2112  0.2094  0.1116
 6927W        W10991   0.241   6.665   1.367  0.0946  0.1192 -0.0206
 6928W        W10992   7.827   0.010   2.925  0.2574  0.1047  0.2378
 6929W        W10993   5.866   8.119   3.709  0.1409  0.0244 -0.1206
 6930W        W10994   7.937   5.312   3.304 -0.3404 -0.0405  0.2687
 6931W        W10995   6.680   1.017  10.769  0.0836 -0.0572  0.1372
 6932W        W10996   2.466   4.249   2.373 -0.1091 -0.1112 -0.0152
 6933W        W10997  10.633   6.715   4.263 -0.2203  0.4733  0.3592
 6934W        W10998   4.253   8.085   9.353  0.3628 -0.1566  0.0094
 6935W        W10999   0.454   2.447   3.465  0.4314  0.1060  0.0052
 6936W        W11000   6.809   7.024   3.291  0.2020  0.0078 -0.0977
 6937W        W11001   6.372   0.324   3.448 -0.0182  0.0517 -0.0603
 6938W        W11002   3.947   3.450   7.420 -0.1643  0.0847 -0.3587
 6939W        W11003   0.271   7.444   1.165 -0.0633  0.3805  0.0309
 6940W        W11004   8.170   8.458   2.534  0.0914 -0.0908  0.1443
 6941W        W11005   4.946   2.372   8.754 -0.0123  0.1157 -0.1851
 6942W        W11006   1.820   9.702   0.528  0.0884  0.0345  0.0828
 6943W        W11007   0.897   2.208   9.820  0.0686 -0.0466 -0.2829
 6944W        W11008   1.597   0.172   3.538 -0.2718 -0.1162  0.0184
 6945W        W11009   8.190   3.845   7.403  0.1977  0.1230  0.1091
 6946W        W11010  10.168   0.077  10.424  0.0693 -0.2263  0.0012
 6947W        W11011   2.001   8.531   3.628 -0.1250  0.0919 -0.4118
 6948W        W11012  10.086   5.338   3.907  0.1405  0.1411  0.1901
 6949W        W11013   2.653   9.643   2.102  0.1721  0.0848  0.0103
 6950W        W11014   5.237  10.562   2.905  0.2556  0.0460 -0.3183
 6951W        W11015   8.235   5.372   8.518 -0.2108  0.0377  0.1808
 6952W        W11016   0.009   2.144   0.929  0.1161  0.1503  0.0319
 6953W        W11017   2.968   4.037  11.260 -0.0060 -0.2360  0.1601
 6954W        W11018   6.619   0.774   8.678  0.0152 -0.0309 -0.0062
 6955W        W11019   9.263   1.122   3.771 -0.0616 -0.4420 -0.0222
 6956W        W11020   2.603   2.497   8.283  0.1543  0.0603  0.1588
 6957W        W11021   0.338   5.466   2.768 -0.0866  0.0074 -0.0416
 6958W        W11022   6.963   9.178   1.281  0.1883 -0.2638  0.0245
 6959W        W11023   2.909  10.655   2.815 -0.0077  0.3211 -0.2051
 6960W        W11024   9.608   6.867   8.191 -0.3228 -0.0379 -0.2350
 6961W        W11025   5.893   9.779  10.872 -0.0208  0.1706 -0.1970
 6962W        W11026   9.817  10.578   1.171  0.0588  0.1675  0.0368
 6963W        W11027   9.134   6.937   8.411 -0.1020 -0.0543  0.3389
 6964W        W11028   7.544   0.880   3.972 -0.0167  0.2495  0.1628
 6965W        W11029   8.132   8.781   0.337 -0.0677  0.1518 -0.0949
 6966W        W11030   0.469   4.011   0.795 -0.1816  0.1356 -0.0648
 6967W        W11031   1.229   1.252  10.633  0.3101  0.1859  0.0926
 6968W        W11032   5.019   9.555   9.935  0.2418 -0.2156  0.0821
 6969W        W11033   8.958   8.277  11.542  0.0775 -0.2723  0.0013
 6970W        W11034   8.024   8.287   0.348  0.2397 -0.0175  0.1142
 6971W        W11035   8.815   0.966   3.655  0.0285 -0.0421  0.1058
 6972W        W11036  10.196   8.350   7.989  0.0686  0.2296 -0.2099
 6973W        W11037   0.581   9.264   9.051 -0.0942 -0.3233 -0.1307
 6974W        W11038   4.858   5.399   0.339 -0.0903 -0.0683 -0.1161
 6975W        W11039   9.257   3.322  10.580 -0.2281 -0.1708  0.2394
 6976W        W11040   2.214   5.934   2.508  0.2008  0.1237 -0.0232
 6977W        W11041   4.513   6.638   0.789 -0.0190 -0.0841  0.0036
 6978W        W11042  10.144   4.490   2.688  0.0467 -0.0369 -0.3675
 6979W        W11043   1.219   5.389   9.090  0.1540  0.1170  0.0793
 6980W        W11044   6.079   1.395   7.652  0.0240  0.0262 -0.2581
 6981W        W11045   3.131   0.487   8.772 -0.0491  0.1042 -0.3021
 6982W        W11046   7.639   9.667   1.195 -0.2484 -0.0315  0.0492
 6983W        W11047  10.508   9.006   0.200  0.2005  0.1849  0.2773
 6984W        W11048   3.468   5.814   0.920 -0.2238  0.1300  0.0107
 6985W        W11049   4.588   7.155   0.583  0.1948 -0.1175 -0.0533
 6986W        W11050   2.283   4.304   1.899  0.1722 -0.0048  0.0426
 6987W        W11051   4.077   2.005  10.536  0.1734 -0.1419  0.4813
 6988W        W11052   9.457   4.143  11.172  0.0222  0.0641 -0.3041
 6989W        W11053   1.128   3.835   8.863 -0.1979  0.3389 -0.2344
 6990W        W11054   3.872   7.527  10.568 -0.1111  0.0292 -0.3502
 6991W        W11055   1.772   2.537   1.573  0.1143 -0.1869  0.2375
 6992W        W11056   1.212   9.259  11.341  0.1255  0.0846  0.0212
 6993W        W11057   4.335   1.296   8.358  0.0354  0.1900 -0.1306
 6994W        W11058   5.628   2.987   8.821  0.0159 -0.5106  0.0949
 6995W        W11059   9.538   3.478   0.245 -0.1387 -0.1085  0.1339
 6996W        W11060   9.183   0.281   1.018 -0.0086  0.4053  0.3870
 6997W        W11061   8.357   0.703   8.262 -0.0992  0.0896  0.0626
 6998W        W11062   1.388   6.471  11.069  0.2170  0.0487 -0.0111
 6999W        W11063   1.069   9.309   1.520  0.1165 -0.3313 -0.2562
 7000W        W11064   9.647   0.785   1.798 -0.2919 -0.1746  0.2515
 7001W        W11065   7.348   8.780  10.252  0.2663  0.1098 -0.1225
 7002W        W11066   5.990   5.078   3.153 -0.0213 -0.2140 -0.1483
 7003W        W11067   8.847   9.296   9.070 -0.0344  0.4692  0.2229
 7004W        W11068   4.511   1.773   3.083 -0.2105  0.0110  0.0623
 7005W        W11069   8.358   6.289   3.313  0.0789  0.1473  0.0058
 7006W        W11070   3.656   6.469   1.591  0.0786 -0.3530  0.0776
 7007W        W11071   3.257   6.362   8.697 -0.1738  0.2521  0.2829
 7008W        W11072   3.158   1.238   9.313  0.2523  0.2784  0.0597
 7009W        W11073   3.096   2.781   9.185  0.2911  0.2922  0.1698
 7010W        W11074   8.363   1.437  10.236 -0.3689  0.0063  0.2159
 7011W        W11075   9.340   1.515   0.568 -0.2632  0.0019 -0.1593
 7012W        W11076   8.613   3.810   2.919  0.0064  0.1756  0.1010
 7013W        W11077   7.964   8.801   1.437 -0.0286 -0.3176  0.0087
 7014W        W11078   4.137   2.135   3.266  0.0149  0.0631  0.0139
 7015W        W11079   0.051   1.330  11.401 -0.0224  0.1535 -0.0901
 7016W        W11080   4.657   8.780   8.084 -0.1266 -0.1534  0.1377
 7017W        W11081  10.601   6.382   0.430 -0.0096 -0.2417 -0.0162
 7018W        W11082   2.838   8.428   9.210 -0.0144  0.1365 -0.0919
 7019W        W11083   9.099   9.778  10.425 -0.1808 -0.2329  0.5146
 7020W        W11084   6.187   6.077   0.305  0.0859  0.0381  0.1609
 7021W        W11085   9.772   0.847  10.637  0.2517 -0.1464  0.2426
 7022W        W11086   0.256   1.727   2.180  0.2024  0.4993 -0.7308
 7023W        W11087   0.608   5.307  11.243  0.0253 -0.1748 -0.2023
 7024W        W11088   5.291   8.912   8.828 -0.1652 -0.0982 -0.0223
 7025W        W11089   9.813   1.424  10.488 -0.0581 -0.3273  0.0132
 7026W        W11090   3.388   9.329   3.156  0.3631  0.2115  0.1649
 7027W        W11091   8.866   9.909   1.844 -0.1353  0.0935 -0.1638
 7028W        W11092   9.130  10.346  11.012 -0.1954 -0.4289  0.1709
 7029W        W11093   2.386   5.600   3.004  0.2577 -0.0556 -0.1964
 7030W        W11094   0.485   7.901   1.226  0.1090 -0.3252  0.1270
 7031W        W11095   1.112   3.117  10.377  0.0679 -0.0117 -0.0380
 7032W        W11096   7.945   0.148   4.404 -0.1411  0.0816  0.2413
 7033W        W11097   8.422   9.897   2.314 -0.1129 -0.1317 -0.2747
 7034W        W11098   0.170  10.228   8.224  0.2910  0.1386 -0.2648
 7035W        W11099   1.012   3.640  10.669  0.0117  0.0535 -0.1748
 7036W        W11100   3.157   5.845  11.527  0.0529 -0.0923 -0.1122
 7037W        W11101   1.893   1.666   0.060 -0.1621 -0.3293  0.2290
 7038W        W11102   3.243   5.705   0.462  0.1706 -0.0610 -0.0743
 7039W        W11103   0.497   2.669   1.563  0.0987  0.0051  0.4010
 7040W        W11104  10.365   6.251   0.880 -0.0739  0.0846  0.1763
 7041W        W11105   3.110   2.578   0.362  0.2372  0.3166 -0.0609
 7042W        W11106   0.736   6.745   8.754 -0.2672  0.0961  0.0268
 7043W        W11107   6.612   0.766   1.153  0.2117  0.1154  0.0206
 7044W        W11108   8.218   5.587   2.585  0.0230 -0.2570 -0.0773
 7045W        W11109   5.046   0.441   1.843  0.0498 -0.0593  0.1058
 7046W        W11110   2.090   8.792   8.821  0.2311 -0.0696  0.1402
 7047W        W11111   4.315   2.283   0.216  0.0422  0.4360  0.0188
 7048W        W11112   7.025   6.139   0.372 -0.1600  0.0985 -0.0499
 7049W        W11113   6.871   4.719  10.886 -0.0456  0.1481 -0.0315
 7050W        W11114   1.995   4.453   8.719  0.2177  0.1881 -0.1634
 7051W        W11115   5.657   7.188   4.246  0.1304  0.0167 -0.3786
 7052W        W11116   0.430   0.340  10.870 -0.1217 -0.0441 -0.1581
 7053W        W11117   0.851   3.960   3.516 -0.0860 -0.0480  0.2208
 7054W        W11118   3.694   8.701   0.670 -0.1216  0.3371 -0.3473
 7055W        W11119   6.882   2.125   7.608  0.2105 -0.1951 -0.3341
 7056W        W11120   4.831   2.847   1.377  0.1140  0.2484  0.1900
 7057W        W11121   2.036   7.498   3.455 -0.3545  0.2009  0.2062
 7058W        W11122   1.370   3.634   1.747 -0.0159  0.2121  0.1435
 7059W        W11123   1.287   0.521   0.391  0.3714  0.2528 -0.0120
 7060W        W11124   9.954   2.879  11.433  0.0921  0.0915 -0.1435
 7061W        W11125   1.538   6.900   1.295  0.0699 -0.0543  0.3034
 7062W        W11126   4.766   4.950   0.981  0.1665  0.0132  0.3741
 7063W        W11127   4.503   4.512   2.400  0.1748 -0.1947 -0.1753
 7064W        W11128   4.674   5.590   4.075  0.0052 -0.1726  0.1576
 7065W        W11129   2.039   4.459   2.629 -0.0375  0.1417  0.1956
 7066W        W11130   9.682   4.338   1.876  0.0070 -0.3026 -0.3466
 7067W        W11131   6.788   6.267   9.205 -0.1022 -0.0562 -0.3194
 7068W        W11132   5.946   2.751   0.985  0.0783  0.2815 -0.3242
 7069W        W11133   4.458  10.421   7.396  0.1761  0.1430  0.2390
 7070W        W11134   4.739   2.198   8.212 -0.1536 -0.0341 -0.0053
 7071W        W11135   7.224   6.938   1.079 -0.1677 -0.0123 -0.0002
 7072W        W11136   0.035   8.438   3.454 -0.1593 -0.1476 -0.0049
 7073W        W11137   8.932   3.525  10.988 -0.0154 -0.4288 -0.2095
 7074W        W11138   4.782   1.924   9.043 -0.3022 -0.0583 -0.0128
 7075W        W11139   0.017   7.124   2.303 -0.1287 -0.1159  0.0982
 7076W        W11140   8.829   2.848   9.034 -0.0828 -0.2655 -0.3095
 7077W        W11141   2.250  10.590   1.923 -0.3867 -0.0073 -0.1942
 7078W        W11142   0.078   7.315  10.688 -0.3187 -0.1798  0.0492
 7079W        W11143   2.738   3.672  10.298 -0.1791 -0.1113 -0.1611
 7080W        W11144   5.231  10.005   9.086 -0.0742 -0.0280  0.1840
 7081W        W11145   9.345   2.940   1.456 -0.3699 -0.1805 -0.2212
 7082W        W11146   3.267   2.163   7.236 -0.5588 -0.1589 -0.3245
 7083W        W11147   2.236   9.514  10.457  0.3878  0.2075 -0.0745
 7084W        W11148   9.126   0.292   9.834  0.2518 -0.0028 -0.1301
 7085W        W11149   1.316   1.084   9.382  0.0805  0.1270  0.1327
 7086W        W11150  10.613   8.094  10.806 -0.0663  0.0616 -0.0628
 7087W        W11151   1.639   3.751   9.632  0.3387 -0.0609  0.0235
 7088W        W11152   9.512   6.620   1.294 -0.0361 -0.4097 -0.1550
 7089W        W11153   6.765   1.092   1.516 -0.1090  0.0618 -0.0116
 7090W        W11154   6.158   1.192   0.224  0.3371 -0.1496  0.0104
 7091W        W11155   2.380   7.233  10.365  0.3272  0.5341 -0.0854
 7092W        W11156   5.140   6.754   9.106  0.1194  0.4056  0.0635
 7093W        W11157   1.921   1.342   2.877  0.0125  0.3266  0.2344
 7094W        W11158   8.584   4.773   8.289  0.0291  0.1801  0.1109
 7095W        W11159   8.546   8.635   0.083  0.0069 -0.0542 -0.2627
 7096W        W11160   8.278   2.648   9.109 -0.1230 -0.0376  0.0932
 7097W        W11161   1.370   5.967   1.239 -0.0255  0.2142  0.1727
 7098W        W11162   5.797  10.603   4.160  0.1675  0.0636 -0.0565
 7099W        W11163   5.595   8.308   8.186 -0.0714  0.0622 -0.1349
 7100W        W11164   4.330   8.974   4.100  0.2127  0.0491  0.0992
 7101W        W11165   5.864   0.202  10.807  0.4194  0.0594  0.1402
 7102W        W11166   8.280   8.363   9.140 -0.0795 -0.2471 -0.1262
 7103W        W11167   0.371   5.590   3.711  0.2400  0.2013  0.0214
 7104W        W11168   1.397   2.060  10.464  0.0753 -0.1152 -0.0788
 7105W        W11169   1.554   6.804   2.264  0.2733  0.0004 -0.2827
 7106W        W11170   0.996   2.840   8.970 -0.1541  0.2121  0.1748
 7107W        W11171   4.349   1.420   0.375 -0.2563 -0.0222  0.1334
 7108W        W11172   9.403   0.742   2.182  0.2377 -0.2183 -0.1163
 7109W        W11173   5.889   1.321   2.740 -0.3936  0.2508 -0.2776
 7110W        W11174   3.860   7.073   9.807 -0.0704 -0.3061  0.2120
 7111W        W11175   0.325   6.752  10.861 -0.0198 -0.1499 -0.0246
 7112W        W11176   6.081   9.490   3.195 -0.2457 -0.0840  0.0125
 7113W        W11177   0.033   3.020   1.133 -0.0957 -0.1972 -0.1214
 7114W        W11178   6.245   0.609   8.264  0.1893  0.0540 -0.0731
 7115W        W11179   6.410   4.641  10.676 -0.0520 -0.1292 -0.2471
 7116W        W11180   2.714   3.602   9.223  0.0598 -0.1939 -0.1253
 7117W        W11181   7.584   9.525   0.505  0.2321 -0.4624  0.0135
 7118W        W11182  10.202   7.869  10.079 -0.1205  0.2476 -0.0972
 7119W        W11183   0.220   2.143   3.908  0.4728  0.0077 -0.3803
 7120W        W11184   2.312   1.273  11.222  0.0982  0.1205 -0.1318
 7121W        W11185   2.250   3.720   1.132 -0.0156  0.0931 -0.0651
 7122W        W11186   7.387   3.498   3.180 -0.0387 -0.0897  0.3124
 7123W        W11187   3.959   1.437   8.090 -0.0379 -0.0748 -0.1709
 7124W        W11188   3.262   7.550   2.873  0.0060 -0.0928 -0.2247
 7125W        W11189   9.542   3.377   8.064 -0.0338 -0.3699 -0.1720
 7126W        W11190   7.420   7.372   3.681 -0.0153  0.2254 -0.0134
 7127W        W11191   7.279   4.918   9.545 -0.1825  0.2504  0.0839
 7128W        W11192   8.440   8.816   8.464 -0.1613 -0.0850  0.1027
 7129W        W11193   2.447   4.553   8.954  0.0076 -0.0737 -0.1301
 7130W        W11194   0.752   0.912   0.105  0.0043  0.0237  0.0327
 7131W        W11195   7.152   7.589   8.848  0.3043 -0.1242 -0.1556
 7132W        W11196   2.548  10.504  10.454 -0.0702 -0.2193 -0.1762
 7133W        W11197   1.037   4.245   1.222  0.2570  0.1485 -0.1955
 7134W        W11198   0.376   8.658   9.931 -0.0283 -0.0904  0.0454
 7135W        W11199   5.648   7.508  11.418  0.0889  0.0739 -0.0033
 7136W        W11200   7.902   0.239   1.465 -0.0304 -0.1002 -0.1527
 7137W        W11201   3.005   0.298   8.275  0.1302 -0.0431  0.0238
 7138W        W11202  10.139   2.018   9.818  0.2028 -0.0044  0.0465
 7139W        W11203  10.189   8.887  10.455  0.3344 -0.4053  0.1081
 7140W        W11204   4.554   4.001   1.007  0.0468  0.3485 -0.0524
 7141W        W11205   2.760   7.634   8.550 -0.0509 -0.1167  0.3124
 7142W        W11206   3.609   2.194   9.210  0.3222 -0.1508 -0.4295
 7143W        W11207   4.419   7.754   9.717 -0.2278 -0.3417 -0.0369
 7144W        W11208   0.408   0.505   7.851  0.0347 -0.2360 -0.1782
 7145W        W11209  10.560   6.373   1.392 -0.0063  0.1322  0.1954
 7146W        W11210   0.052   5.406   3.200 -0.2507 -0.0743  0.2120
 7147W        W11211   6.911   1.397   9.191 -0.1387 -0.2114  0.0542
 7148W        W11212   3.393   5.796   8.586 -0.1222  0.1516  0.0522
 7149W        W11213   9.498   1.672  11.312 -0.2077  0.0969 -0.0834
 7150W        W11214   1.904   2.996   1.708  0.1684  0.2416 -0.1112
 7151W        W11215   0.366   4.638   9.541  0.3463  0.1660 -0.0692
 7152W        W11216  10.405   8.367   0.142 -0.1843 -0.0243 -0.0536
 7153W        W11217   9.126   5.862   2.187  0.2247 -0.0825  0.1058
 7154W        W11218   2.884   2.186   7.972 -0.1616 -0.0345  0.0845
 7155W        W11219   7.476   9.108   7.699 -0.1954 -0.1366  0.0757
 7156W        W11220   9.907   4.683   1.001 -0.0215 -0.0967  0.1705
 7157W        W11221   9.657   8.448  10.192 -0.0480 -0.0966  0.2928
 7158W        W11222   4.661   3.508   2.251  0.0110 -0.0306 -0.3008
 7159W        W11223   6.656   4.186  10.782  0.0851  0.1959  0.0438
 7160W        W11224   5.359   5.370   8.886 -0.2960 -0.0205 -0.0501
 7161W        W11225   6.564   7.521   2.557  0.0977 -0.3294  0.3675
 7162W        W11226   1.820   3.899   0.424  0.1666 -0.0584  0.2424
 7163W        W11227   9.061  10.393   9.060  0.2358  0.0750 -0.0915
 7164W        W11228   0.120   0.824  10.571 -0.0361 -0.1467 -0.0342
 7165W        W11229   8.433   8.551   3.004  0.0063 -0.1185  0.1722
 7166W        W11230   2.700   6.474   1.934 -0.2777  0.2131  0.0445
 7167W        W11231   8.177   8.795   9.565  0.1810  0.1872  0.1627
 7168W        W11232   8.902   9.376   8.190  0.1789  0.0175 -0.1658
 7169W        W11233   9.693   5.934   8.664 -0.0548 -0.0442 -0.0968
 7170W        W11234   8.454   4.599   0.173  0.3747  0.1482 -0.1595
 7171W        W11235   8.068   4.336  10.043  0.0303  0.0557  0.0131
 7172W        W11236   4.393   8.374   2.796 -0.0191 -0.2742 -0.2950
 7173W        W11237   6.301   4.186  10.016  0.3133  0.2785 -0.1881
 7174W        W11238  10.220   8.407  10.938  0.4553  0.2784  0.1225
 7175W        W11239   8.859   2.722   3.191 -0.1039 -0.1284  0.0152
 7176W        W11240   2.356   4.382   9.778 -0.0758  0.0187  0.1884
 7177W        W11241   1.792   9.034   3.517  0.2391 -0.0512  0.2983
 7178W        W11242   9.020   9.069   1.002  0.4240 -0.4616 -0.2232
 7179W        W11243   4.010   1.840   1.489 -0.1474  0.0343 -0.1645
 7180W        W11244   9.560   1.489   2.735 -0.4072  0.4766  0.0042
 7181W        W11245   2.493   1.683  10.241 -0.2605  0.0002  0.1627
 7182W        W11246   7.081   4.140   2.290  0.0308 -0.1138 -0.0945
 7183W        W11247   2.484   4.553  10.813 -0.0766 -0.0487 -0.0420
 7184W        W11248   0.922   8.870   8.891  0.0762 -0.3227 -0.2760
 7185W        W11249   1.866   1.495   1.292 -0.0095 -0.0052  0.0347
 7186W        W11250   8.476   6.666  11.492 -0.0025 -0.2353  0.2363
 7187W        W11251   0.441   0.104  11.469 -0.1929 -0.1075 -0.4854
 7188W        W11252   9.739   3.443   3.321  0.3553  0.2155 -0.2599
 7189W        W11253   6.301   8.371  10.058  0.0863  0.1853 -0.0186
 7190W        W11254   4.870  10.490  10.488  0.5801  0.1363 -0.0661
 7191W        W11255   2.182   7.406   2.753 -0.0271 -0.2177 -0.0077
 7192W        W11256   2.089   1.065  10.772 -0.0964  0.0531  0.0131
 7193W        W11257   1.728   0.262  10.860 -0.0417 -0.0175  0.0044
 7194W        W11258   2.023   6.473   3.224  0.1700  0.4269 -0.1632
 7195W        W11259   7.383   5.382   1.882  0.0402  0.0207 -0.0403
 7196W        W11260   7.919  10.003   8.539 -0.0372 -0.2347  0.1610
 7197W        W11261   9.254   2.261   2.722 -0.1581 -0.2433  0.1651
 7198W        W11262   3.603   7.224   2.700 -0.1250 -0.1060 -0.0197
 7199W        W11263   2.430   7.397   8.835  0.1783  0.0987 -0.1046
 7200W        W11264   6.666   8.099   1.271 -0.2077  0.1057 -0.0691
 7201W        W11265   8.781   5.857   8.823 -0.2373 -0.0631  0.0437
 7202W        W11266   6.740  10.110   0.322  0.3495 -0.0921 -0.1726
 7203W        W11267   2.955   4.539  11.076  0.2776  0.2191  0.0163
 7204W        W11268   5.872   1.181   3.575  0.2023 -0.1922  0.0086
 7205W        W11269   7.152   5.880   8.616 -0.0537  0.2017  0.2584
 7206W        W11270   0.376  10.283  10.083 -0.0442  0.1776  0.0966
 7207W        W11271   5.672   4.100   2.571  0.3533 -0.2100  0.0110
 7208W        W11272   6.193   9.262   3.735 -0.0256  0.2650  0.2677
 7209W        W11273   1.556   1.351   0.229  0.0537 -0.3533  0.3335
 7210W        W11274   6.800   7.516   3.423 -0.1701  0.0885 -0.3110
 7211W        W11275   2.080   9.733  11.339 -0.1777  0.1080 -0.0730
 7212W        W11276   9.726   2.214   3.133 -0.0622  0.0023 -0.1150
 7213W        W11277   7.770   3.654   3.472 -0.1670  0.1137 -0.0955
 7214W        W11278   2.485   6.489   2.359  0.0266  0.0045 -0.1432
 7215W        W11279   2.342   2.497  11.535 -0.2769 -0.1635 -0.0331
 7216W        W11280   5.955   6.201   9.240 -0.1336  0.2167  0.1112
 7217W        W11281   9.162   9.652   0.906 -0.2464  0.2247 -0.1038
 7218W        W11282   6.390   7.647   1.244 -0.3751  0.2414  0.1135
 7219W        W11283   0.326   6.270   1.694  0.0325  0.0326 -0.1189
 7220W        W11284   1.499   0.878   9.784 -0.4278 -0.0571  0.3009
 7221W        W11285   4.401   1.403   7.812 -0.1955 -0.1754 -0.1216
 7222W        W11286   5.772   9.958   1.284  0.1098  0.1653  0.1792
 7223W        W11287   9.167   1.290  11.216 -0.1395 -0.0523  0.0017
 7224W        W11288   4.690   4.248   3.506  0.1113 -0.1270  0.1124
 7225W        W11289   7.140   0.867   8.937 -0.2207  0.1901 -0.3412
 7226W        W11290   3.307   2.996   1.646 -0.0257  0.2688  0.1082
 7227W        W11291   1.115   2.006   2.135 -0.1880  0.0280  0.0475
 7228W        W11292   7.768   9.185  10.236  0.0603  0.3242  0.0888
 7229W        W11293   6.286  10.053   3.168 -0.1243 -0.2167  0.2934
 7230W        W11294   4.978   5.207   8.527 -0.2869 -0.2299 -0.2957
 7231W        W11295   7.232   2.127  11.459 -0.2350 -0.3012  0.0112
 7232W        W11296   7.847   1.093   9.447 -0.0856  0.0040 -0.3256
 7233W        W11297   9.453   3.020   3.136 -0.1928  0.0300 -0.1995
 7234W        W11298   1.501   1.951   0.312  0.1642 -0.2224 -0.0735
 7235W        W11299   0.703   3.509   1.625  0.2943 -0.0306 -0.2254
 7236W        W11300   4.299   8.903   8.359  0.0604  0.1985 -0.1814
 7237W        W11301   9.496   6.187   7.508 -0.2136  0.0509  0.2488
 7238W        W11302   9.040   4.933   0.063  0.1377 -0.1010 -0.1490
 7239W        W11303   1.486   7.986   0.258 -0.2851 -0.2221 -0.0610
 7240W        W11304   5.487   6.875   2.978  0.0775  0.0796  0.2202
 7241W        W11305   9.997   4.718   8.850  0.1916 -0.0127  0.0267
 7242W        W11306   7.472   6.435   7.784  0.1091 -0.0429 -0.1003
 7243W        W11307   1.124   2.109  10.941 -0.0998  0.2440 -0.0058
 7244W        W11308   3.826   8.254   2.194  0.1994  0.0232 -0.0000
 7245W        W11309   6.549   3.164   8.634 -0.1253  0.1875  0.0600
 7246W        W11310  10.281   7.426   9.664  0.1161  0.0343  0.0919
 7247W        W11311   5.208   8.227   2.110 -0.1216  0.3473  0.0179
 7248W        W11312   1.231  10.233   1.918 -0.1052 -0.3767 -0.1294
 7249W        W11313   5.404   8.385   8.649  0.0693 -0.0287 -0.0278
 7250W        W11314   6.325   2.118   0.181 -0.1596 -0.3438  0.3767
 7251W        W11315   9.010   3.593   0.386 -0.1082 -0.1568 -0.2948
 7252W        W11316   5.450   8.561   9.142 -0.0836 -0.0844  0.1585
 7253W        W11317   0.463  10.025   9.113  0.3278 -0.2434 -0.1181
 7254W        W11318   7.572   7.743   9.154 -0.2049  0.0775  0.3601
 7255W        W11319   7.129   8.993   9.797 -0.0107  0.0489  0.1724
 7256W        W11320   3.767   9.407   9.496  0.2227 -0.3813 -0.0731
 7257W        W11321   1.844   3.650   8.037 -0.0108  0.0746 -0.1487
 7258W        W11322   1.810   4.813   0.106 -0.4512  0.0622 -0.1887
 7259W        W11323   1.906   7.809   2.447 -0.0761 -0.2494  0.2917
 7260W        W11324   4.932  10.015  11.203  0.0175  0.1335 -0.4134
 7261W        W11325   9.121   6.066   8.270  0.1063  0.0576 -0.1775
 7262W        W11326   7.324   2.442  10.337 -0.0117 -0.0043  0.0721
 7263W        W11327   2.858   3.830  10.788  0.0039 -0.0205 -0.2026
 7264W        W11328   9.449   1.317  10.812 -0.1486 -0.0551 -0.2557
 7265W        W11329   8.220   9.887   2.797 -0.0950  0.2432  0.0765
 7266W        W11330   2.163   0.421   0.805  0.1449  0.1973  0.0976
 7267W        W11331   7.397   8.608   1.656  0.5631 -0.1036 -0.0209
 7268W        W11332   1.082   8.111   2.134 -0.0553  0.2586  0.2534
 7269W        W11333   7.502   6.585   9.877 -0.2403 -0.0376 -0.1327
 7270W        W11334   9.339   7.981   0.158  0.1884  0.1330  0.0046
 7271W        W11335   9.975  10.010  11.476  0.1549  0.1525 -0.0349
 7272W        W11336   4.302   9.796  10.323 -0.1811 -0.0086 -0.0849
 7273W        W11337   8.161   9.853   7.625 -0.1044  0.1084 -0.2639
 7274W        W11338   5.050   3.513   3.210 -0.3029 -0.0107  0.0364
 7275W        W11339   0.892   4.025   7.956 -0.0302 -0.1389  0.1524
 7276W        W11340   3.590   2.708   9.590 -0.0002  0.0006 -0.1318
 7277W        W11341   2.923   4.452   2.310  0.2068  0.1338 -0.1641
 7278W        W11342   4.189   2.703   7.869  0.3849  0.0832  0.1419
 7279W        W11343   9.104   4.627  10.426  0.1928 -0.1352 -0.1052
 7280W        W11344   0.166   0.603   9.978 -0.0696  0.1130 -0.2039
 7281W        W11345   4.842   8.926   8.565  0.0325 -0.0977  0.5415
 7282W        W11346   1.258   5.870   8.711 -0.1900  0.0832  0.0611
 7283W        W11347   7.566   0.779   0.700  0.0256 -0.1295 -0.3775
 7284W        W11348   5.955   1.743   0.197  0.0068 -0.0590 -0.1964
 7285W        W11349   0.432   8.974   9.541 -0.1717  0.0941 -0.1929
 7286W        W11350   1.631   9.832  10.336  0.0942  0.0140 -0.3834
 7287W        W11351   2.118   2.974   8.316  0.5527 -0.2644  0.0842
 7288W        W11352   5.658   2.748   1.683  0.1659 -0.0172  0.3127
 7289W        W11353   5.469   9.571   7.662  0.1931  0.2330  0.0814
 7290W        W11354   6.001   9.495   9.309  0.0410 -0.1005 -0.2303
 7291W        W11355   0.689   4.202   8.847 -0.0067 -0.1149 -0.0559
 7292W        W11356   8.751   8.064   0.890  0.1306  0.0575 -0.2627
 7293W        W11357   4.532   4.455   1.135 -0.1382 -0.2329 -0.0161
 7294W        W11358   2.215   3.439   1.557  0.4271  0.3296  0.0377
 7295W        W11359   5.855   8.555  11.277 -0.0548  0.0254  0.2581
 7296W        W11360   9.115   1.530   0.050  0.4291 -0.1072  0.1902
 7297W        W11361  10.202   5.720   7.911 -0.1719  0.3551 -0.0981
 7298W        W11362   8.305   3.894   8.284  0.2577 -0.1151  0.0657
 7299W        W11363   9.708   5.832   2.943  0.1444  0.0338 -0.0209
 7300W        W11364   9.107   2.017   0.669 -0.0099 -0.0705 -0.2294
 7301W        W11365   6.906   2.109   9.696  0.0876 -0.0092 -0.0974
 7302W        W11366   7.151   0.799   1.085 -0.0150  0.1380 -0.2298
 7303W        W11367   2.068   9.447   0.196  0.0986 -0.0224 -0.1390
 7304W        W11368   7.038  10.182   1.532  0.0220 -0.1294 -0.0890
 7305W        W11369   0.470   3.449   9.750 -0.0712 -0.1798  0.0109
 7306W        W11370   4.018   0.023   1.565 -0.0100  0.0756  0.0505
 7307W        W11371   7.006   7.406   9.884  0.0657  0.3508  0.0341
 7308W        W11372   7.550   3.585  11.095 -0.2874 -0.1565  0.3120
 7309W        W11373   2.119   5.214   3.234 -0.0826 -0.0862 -0.0884
 7310W        W11374   2.501   5.024   1.347 -0.0285 -0.0923 -0.2471
 7311W        W11375   0.619   9.512   1.736 -0.0930 -0.0739 -0.2545
 7312W        W11376   0.444   8.369   9.491  0.0203  0.2479  0.0202
 7313ION    NA+11377   5.846   6.073   2.140  0.1789 -0.2204  0.2646
 7314ION    NA+11378   2.298   9.226   3.187  0.1976 -0.0302  0.0934
 7315ION    NA+11379   4.932   0.515   7.271 -0.0683  0.2598 -0.2439
 7316ION    NA+11380   2.402   8.640  10.650  0.2000  0.1380  0.0338
 7317ION    NA+11381   7.309   7.193  10.211  0.2275 -0.1238 -0.2020
 7318ION    NA+11382   9.341   4.866   4.167 -0.2032  0.1216 -0.4231
 7319ION    NA+11383   6.228   1.481   0.723 -0.0506  0.1026 -0.0185
 7320ION    NA+11384   1.057   3.624   7.673 -0.0097 -0.2183 -0.0907
 7321ION    NA+11385   5.050   3.085  11.064 -0.0961  0.2326 -0.4160
 7322ION    NA+11386   5.898   6.433   8.727  0.1833  0.1030 -0.1653
 7323ION    NA+11387   5.354   9.521   1.669  0.0866  0.0499  0.0868
 7324ION    NA+11388   4.031   8.325   0.402 -0.0153  0.3008  0.0269
 7325ION    NA+11389   7.834   6.725   4.106 -0.1023 -0.0595 -0.3957
 7326ION    NA+11390   8.559   9.664  10.533  0.4329 -0.1364  0.0241
 7327ION    NA+11391   6.318   6.569  11.563 -0.1154  0.1481  0.2268
 7328ION    NA+11392   4.499   1.009   9.785  0.1695  0.1025  0.1607
 7329ION    NA+11393   9.350   1.756   1.083  0.1208 -0.1802  0.0042
 7330ION    NA+11394   7.552   8.477   7.627  0.1328 -0.3172  0.0195
 7331ION    NA+11395   7.269   7.077   3.277  0.0164  0.0211  0.2118
 7332ION    NA+11396   8.018   8.342   1.596  0.0839 -0.1229 -0.0602
 7333ION    NA+11397   7.087   1.339   8.746  0.0440 -0.0138  0.0886
 7334ION    NA+11398   9.026   6.273   7.740 -0.0835 -0.2525 -0.0506
 7335ION    NA+11399   2.608   1.811   3.657 -0.1186  0.1970  0.0532
 7336ION    NA+11400   8.998   6.429  11.272 -0.0915 -0.0483  0.1828
 7337ION    NA+11401   5.784   3.075   2.913  0.2137 -0.0328  0.0423
 7338ION    NA+11402   3.349   0.016   9.479  0.0587  0.5706  0.2882
 7339ION    NA+11403   3.758   5.255   9.125  0.0441 -0.0066 -0.0069
 7340ION    NA+11404   4.196   0.201   7.400  0.0393 -0.2237  0.1251
 7341ION    NA+11405   9.893   2.393   1.636 -0.2486  0.1266 -0.1962
 7342ION    NA+11406   2.410   5.387   8.868 -0.0663 -0.5686  0.1778
 7343ION    NA+11407   5.128   8.809   2.762 -0.2404  0.1189 -0.0560
 7344ION    NA+11408   6.899   5.298   4.174  0.1350  0.0440 -0.0473
 7345ION    NA+11409   7.791   6.071   8.748  0.0603  0.1350 -0.0019
 7346ION    NA+11410   6.038   6.283   1.172 -0.3542 -0.3609  0.2744
 7347ION    NA+11411   2.390   1.997   7.291  0.1856  0.1595 -0.1513
 7348ION    NA+11412   9.749   5.402   7.995  0.1112 -0.1172  0.3432
 7349ION    NA+11413   9.673  10.219   9.710  0.1344 -0.3219  0.2303
 7350ION    NA+11414   9.433   3.447   2.357 -0.0267 -0.1516  0.2018
 7351ION    NA+11415   8.741   1.530   8.703 -0.0099  0.0952  0.0644
 7352ION    NA+11416   0.353   2.896   4.371 -0.1547 -0.0136 -0.0979
 7353ION    NA+11417   3.480   9.083   8.939 -0.0120 -0.0173 -0.3011
 7354ION    NA+11418   4.028   0.467   8.942  0.0030  0.4118  0.1473
 7355ION    NA+11419   4.017   6.977   7.691  0.0348 -0.0856  0.0259
 7356ION    NA+11420   7.592   3.037   3.219 -0.0288  0.1756  0.4146
 7357ION    NA+11421   7.180   4.102   7.639  0.1227 -0.1806 -0.0018
 7358ION    NA+11422   5.157   4.870  10.563  0.0576 -0.1266  0.3297
 7359ION    NA+11423  10.480  10.227  10.000 -0.0844  0.2925  0.1573
 7360ION    NA+11424  10.125   2.186   8.585 -0.1010 -0.0825  0.3764
 7361ION    NA+11425   6.060   0.797   2.533 -0.4785 -0.0717  0.0535
 7362ION    NA+11426   5.693   0.997  11.264 -0.2046  0.2779 -0.0761
 7363ION    NA+11427   6.715   7.100   2.781 -0.1061 -0.2517 -0.1225
 7364ION    NA+11428   8.920   4.816   7.886 -0.0870  0.0164 -0.0821
 7365ION    NA+11429   8.014   1.700   2.641 -0.0904  0.2494  0.2236
 7366ION    NA+11430   8.691   5.650  10.918 -0.0854  0.2439 -0.1722
 7367ION    NA+11431   4.089   9.769  11.310 -0.0847  0.2833  0.1453
 7368ION    NA+11432   3.248   5.369   0.030  0.2740 -0.0500  0.0479
 7369ION    NA+11433   5.375   3.797   3.490 -0.1557 -0.0027 -0.1035
 7370ION    NA+11434   8.564   7.500   8.985  0.2312  0.2887 -0.1424
 7371ION    NA+11435  10.032  10.343   2.850  0.1489  0.1299 -0.0825
 7372ION    NA+11436   0.452   0.292   8.903  0.1495 -0.2347  0.2008
 7373ION    NA+11437   6.498   8.798   1.193  0.0242  0.1632  0.0910
 7374ION    NA+11438   5.589   5.314   1.479  0.0369 -0.0217 -0.2487
 7375ION    NA+11439   6.969   2.611   4.122 -0.0073 -0.1738 -0.2240
 7376ION    NA+11440   0.224  10.235   2.459 -0.0994  0.0490 -0.3041
 7377ION    NA+11441   7.574   5.018   7.592  0.0100  0.0362 -0.0070
 7378ION    NA+11442   4.745   8.001   2.769  0.3890 -0.1339 -0.1062
 7379ION    NA+11443   5.994   2.957  10.844 -0.1696  0.2237  0.1304
 7380ION    NA+11444   6.955   0.841   4.155  0.0372 -0.0647  0.0663
 7381ION    NA+11445   2.091   1.178   0.152  0.2436  0.2151 -0.1379
 7382ION    NA+11446   2.782   9.370  11.181  0.1892 -0.2110  0.0042
 7383ION    NA+11447   2.248  10.066   1.814 -0.0244 -0.3032  0.4857
 7384ION    NA+11448   7.438   4.057   1.495  0.6061 -0.0326  0.2505
 7385ION    NA+11449   9.046   6.390   3.960  0.0315  0.0901 -0.2510
 7386ION    NA+11450   4.259   4.656   3.602  0.2169  0.1369 -0.0615
 7387ION    NA+11451   1.200   6.473   7.530  0.0738 -0.3434 -0.2246
 7388ION    NA+11452   9.870  10.500   8.704 -0.0360 -0.0207  0.0565
 7389ION    NA+11453   0.663   8.344   1.570 -0.1115 -0.1173 -0.0122
 7390ION    CL-11454   0.423   9.915   2.014 -0.1095  0.1002  0.0478
 7391ION    CL-11455  10.422   4.455   8.331  0.1804 -0.2298 -0.0483
 7392ION    CL-11456   6.668   0.064   2.471  0.0151  0.1699  0.2662
 7393ION    CL-11457   3.258   9.580   8.426 -0.4218 -0.1971  0.1155
 7394ION    CL-11458   3.873   1.003   8.399 -0.1852  0.0619  0.2631
 7395ION    CL-11459   2.934   4.731   8.031  0.4563  0.1378 -0.0137
 7396ION    CL-11460   7.980   9.457   8.450 -0.2452 -0.3152 -0.2564
 7397ION    CL-11461   6.970   3.625   8.859  0.0647  0.3397 -0.1247
 7398ION    CL-11462   0.965   3.292   3.364  0.3629  0.0121  0.0794
 7399ION    CL-11463   7.521   8.533   3.244  0.4490 -0.1463 -0.2477
 7400ION    CL-11464   7.465   6.349   8.563 -0.1091 -0.2146  0.0962
 7401ION    CL-11465   7.509   5.077   2.266 -0.3640  0.0441 -0.2095
 7402ION    CL-11466  10.392   9.704  10.099  0.0846 -0.0847  0.3251
 7403ION    CL-11467   8.203   0.353   2.242 -0.1477 -0.0528 -0.0463
 7404ION    CL-11468  10.439  10.634   2.683  0.3582  0.3083  0.1652
 7405ION    CL-11469   9.065   7.466   8.723 -0.2096  0.1622 -0.1164
 7406ION    CL-11470   8.040   4.345   4.002  0.1031 -0.0329  0.1265
 7407ION    CL-11471   6.155   6.611  11.137  0.0570  0.0052  0.1437
 7408ION    CL-11472   5.517   4.745  10.880 -0.0863  0.2843  0.0980
 7409ION    CL-11473   3.275   9.857  11.229  0.0033 -0.4330 -0.0816
 7410ION    CL-11474   9.778  10.433   9.257  0.0560 -0.1636 -0.0212
 7411ION    CL-11475   6.958   5.763   3.225  0.0688  0.1881 -0.2505
 7412ION    CL-11476   9.638   2.059   1.317 -0.0783  0.2728  0.2033
 7413ION    CL-11477   8.251   1.403   8.787 -0.2058  0.0748 -0.2415
 7414ION    CL-11478   5.575   0.952  10.787  0.0345 -0.1956 -0.3271
 7415ION    CL-11479   5.967   7.337   3.402 -0.1430 -0.0152  0.0784
 7416ION    CL-11480   8.552  10.528   3.092 -0.1492  0.0268  0.0571
 7417ION    CL-11481   7.964   6.980   9.054  0.1868  0.2389 -0.0296
 7418ION    CL-11482   7.997   8.781   2.013 -0.0021  0.1766  0.1035
 7419ION    CL-11483   4.438   7.616   2.938  0.0889 -0.2436 -0.0026
 7420ION    CL-11484   8.043   7.898   1.723  0.0331  0.0963  0.0638
 7421ION    CL-11485   5.482   6.236   1.134 -0.1178  0.0414 -0.1999
 7422ION    CL-11486   2.903  10.457   9.604 -0.1982 -0.1191 -0.1491
 7423ION    CL-11487   6.300   8.439   0.903  0.2915 -0.3205  0.0081
 7424ION    CL-11488   8.616   6.737   3.122  0.1188 -0.2061 -0.2440
 7425ION    CL-11489   1.933   4.568   9.204 -0.1197  0.1811  0.1431
 7426ION    CL-11490   6.608   6.539   3.272  0.0557 -0.0468 -0.2320
 7427ION    CL-11491   6.597   1.195   8.872  0.0245 -0.2048 -0.0640
 7428ION    CL-11492   3.525   6.675  10.641 -0.0543  0.0496  0.4066
 7429ION    CL-11493   4.350   0.813   9.268  0.0301  0.1498 -0.1561
 7430ION    CL-11494   3.515   0.266   9.117 -0.0315  0.0260  0.1072
 7431ION    CL-11495   5.630   2.549   3.034 -0.1776  0.1383  0.0947
 7432ION    CL-11496   2.423   8.041   9.296  0.1357  0.2349 -0.2851
 7433ION    CL-11497   6.568   6.711   2.195  0.1180  0.0012 -0.0894
 7434ION    CL-11498   6.621   6.451   0.492 -0.2591  0.2179  0.0259
 7435ION    CL-11499   7.473   7.565  10.563 -0.1072 -0.0084 -0.1313
 7436ION    CL-11500   6.800   0.122   7.962  0.1570 -0.1572 -0.0681
 7437ION    CL-11501   2.014   2.176   2.974 -0.1370 -0.3114  0.4064
 7438ION    CL-11502   4.237  10.621   8.848 -0.2015 -0.1679  0.2673
 7439ION    CL-11503   6.060   3.301   3.278  0.0674 -0.3009 -0.0777
 7440ION    CL-11504   9.135   5.953  10.828 -0.1203  0.2122 -0.4419
 7441ION    CL-11505   8.864   9.949   8.906 -0.0754  0.0558  0.0108
 7442ION    CL-11506   5.496   8.821   8.305 -0.0514 -0.2100  0.0272
 7443ION    CL-11507   7.144   7.319   2.862 -0.1203 -0.3363  0.0160
 7444ION    CL-11508   2.912   5.547   8.534 -0.1852 -0.2150 -0.1204
 7445ION    CL-11509   4.913   3.122   3.501 -0.2202 -0.0196  0.1213
 7446ION    CL-11510   5.374   4.922   1.272  0.0528  0.3249  0.1675
 7447ION    CL-11511   9.165   0.317   3.183 -0.0946 -0.3101 -0.2438
 7448ION    CL-11512   5.468   3.891   2.939 -0.0107  0.0277  0.1328
 7449ION    CL-11513   7.800   7.185   3.399  0.1518 -0.0219 -0.0797
 7450ION    CL-11514   7.487   0.120   3.483 -0.0024  0.2400  0.0109
 7451ION    CL-11515   3.606   8.542   0.202 -0.1512 -0.1242  0.1865
 7452ION    CL-11516   5.514   9.121   2.578  0.1833  0.1280 -0.0990
 7453ION    CL-11517   4.066   5.236   8.734  0.1204 -0.1201  0.0793
 7454ION    CL-11518   7.443   2.670   2.925 -0.2227  0.0040  0.0714
 7455ION    CL-11519   2.014   8.932  10.692  0.2699 -0.1737 -0.0916
 7456ION    CL-11520   2.523   3.755   2.624  0.1006 -0.3769 -0.0163
 7457ION    CL-11521   1.451   3.031   8.195 -0.0809 -0.1707 -0.0451
 7458ION    CL-11522   4.890   6.175   2.679  0.0016  0.0842 -0.0894
 7459ION    CL-11523   8.608   5.767   8.349  0.0021 -0.1674 -0.0533
 7460ION    CL-11524   9.541   5.016   8.853 -0.1288 -0.0244  0.0682
 7461ION    CL-11525   4.854   8.462   3.005  0.1925 -0.0164 -0.0098
 7462ION    CL-11526   5.622   2.693  11.081  0.1301  0.0229 -0.1279
 7463ION    CL-11527   1.349   5.817   2.649 -0.3358 -0.0639  0.0939
 7464ION    CL-11528   5.559   8.586   1.767  0.0202  0.2425  0.0957
 7465ION    CL-11529   5.959   3.051  10.339  0.0338 -0.1264  0.5067
 7466ION    CL-11530   4.931   5.166  10.199 -0.0501  0.3367 -0.3659
  10.65810  10.65810  11.57146
