Protein in INSANE! Membrane UpperLeaflet>POPC=1.0 LowerLeaflet>POPC=1.0
11125
    1AU     AUC    1   5.246   5.296   6.008
    1AU     AUC    2   5.539   5.297   5.839
    1AU     AUC    3   5.509   5.295   6.178
    1AU     AUC    4   4.972   5.284   5.845
    1AU     AUC    5   4.979   5.332   6.196
    1AU     AUC    6   5.071   5.565   6.010
    1AU     AUC    7   5.436   5.559   5.998
    1AU     AUC    8   5.059   5.030   6.007
    1AU     AUC    9   5.412   5.027   6.016
    1AU     AUC   10   5.250   5.130   6.281
    1AU     AUC   11   5.232   5.466   6.268
    1AU     AUC   12   5.246   5.131   5.740
    1AU     AUC   13   5.277   5.445   5.738
    1AU     AUC   14   5.871   5.291   5.680
    1AU     AUC   15   5.864   5.278   6.018
    1AU     AUC   16   5.798   5.285   6.363
    1AU     AUC   17   4.656   5.292   5.679
    1AU     AUC   18   4.632   5.331   6.043
    1AU     AUC   19   4.676   5.365   6.386
    1AU     AUC   20   4.909   5.892   5.981
    1AU     AUC   21   5.255   5.899   5.960
    1AU     AUC   22   5.620   5.860   5.983
    1AU     AUC   23   4.855   4.744   6.009
    1AU     AUC   24   5.188   4.688   5.982
    1AU     AUC   25   5.575   4.701   5.997
    1AU     AUC   26   5.232   4.958   6.577
    1AU     AUC   27   5.267   5.330   6.627
    1AU     AUC   28   5.260   5.660   6.563
    1AU     AUC   29   5.275   4.960   5.456
    1AU     AUC   30   5.262   5.272   5.398
    1AU     AUC   31   5.273   5.594   5.428
    1AU     AUC   32   5.522   5.111   6.503
    1AU     AUC   33   5.553   5.478   6.502
    1AU     AUC   34   5.589   5.115   5.524
    1AU     AUC   35   5.594   5.464   5.535
    1AU     AUC   36   4.943   5.177   6.531
    1AU     AUC   37   4.959   5.537   6.493
    1AU     AUC   38   4.945   5.114   5.552
    1AU     AUC   39   4.929   5.426   5.507
    1AU     AUC   40   5.785   5.575   5.832
    1AU     AUC   41   5.745   5.591   6.178
    1AU     AUC   42   4.756   5.597   5.844
    1AU     AUC   43   4.769   5.658   6.195
    1AU     AUC   44   5.748   4.981   5.850
    1AU     AUC   45   5.702   4.959   6.184
    1AU     AUC   46   4.712   5.002   5.876
    1AU     AUC   47   4.771   5.059   6.223
    1AU     AUC   48   5.070   5.839   6.271
    1AU     AUC   49   5.432   5.777   6.251
    1AU     AUC   50   5.045   4.837   6.298
    1AU     AUC   51   5.373   4.786   6.282
    1AU     AUC   52   5.079   5.723   5.701
    1AU     AUC   53   5.465   5.748   5.669
    1AU     AUC   54   5.038   4.813   5.722
    1AU     AUC   55   5.426   4.841   5.721
    1AU    AUSL   56   5.800   5.246   6.708
    1AU    AUSL   57   5.524   4.792   6.675
    1AU     AUL   58   5.841   4.837   6.839
    1AU       S   59   5.867   4.427   6.639
    1AU     LIG   60   5.777   4.281   7.007
    1AU     LIG   61   6.007   3.960   7.218
    1AU     LIG   62   6.260   3.629   7.418
    1AU     LIG   63   6.439   3.488   7.820
    1AU       S   64   6.072   5.223   6.779
    1AU     LIG   65   6.026   5.131   7.246
    1AU     LIG   66   6.145   5.039   7.703
    1AU     LIG   67   6.473   5.040   8.059
    1AU     LIG   68   6.847   5.135   8.348
    1AU    AUSL   69   5.406   5.145   6.903
    1AU    AUSL   70   5.109   5.491   6.926
    1AU     AUL   71   5.306   5.433   7.253
    1AU       S   72   5.555   5.097   7.071
    1AU     LIG   73   5.422   4.954   7.448
    1AU     LIG   74   5.659   4.823   7.826
    1AU     LIG   75   5.768   4.627   8.243
    1AU     LIG   76   5.918   4.648   8.687
    1AU       S   77   4.920   5.213   7.149
    1AU     LIG   78   4.978   5.169   7.624
    1AU     LIG   79   4.694   5.167   7.983
    1AU     LIG   80   4.541   5.199   8.425
    1AU     LIG   81   4.545   5.451   8.828
    1AU    AUSL   82   5.526   5.582   6.868
    1AU    AUSL   83   5.898   5.660   6.604
    1AU     AUL   84   5.802   5.519   6.991
    1AU       S   85   5.403   5.856   6.990
    1AU     LIG   86   5.653   5.815   7.383
    1AU     LIG   87   5.727   5.901   7.861
    1AU     LIG   88   5.772   5.947   8.348
    1AU     LIG   89   5.795   5.909   8.828
    1AU       S   90   5.990   5.890   6.779
    1AU     LIG   91   6.381   5.742   6.865
    1AU     LIG   92   6.690   5.928   7.175
    1AU     LIG   93   6.953   6.175   7.487
    1AU     LIG   94   7.300   6.403   7.711
    1AU    AUSL   95   5.779   5.329   5.392
    1AU    AUSL   96   5.681   5.762   5.300
    1AU     AUL   97   5.992   5.564   5.129
    1AU       S   98   5.627   5.515   4.870
    1AU     LIG   99   6.054   5.489   4.596
    1AU     LIG  100   6.231   5.167   4.310
    1AU     LIG  101   6.282   5.016   3.874
    1AU     LIG  102   6.484   5.050   3.451
    1AU       S  103   5.983   6.014   5.285
    1AU     LIG  104   6.123   6.177   4.905
    1AU     LIG  105   6.287   6.356   4.511
    1AU     LIG  106   6.505   6.663   4.256
    1AU     LIG  107   6.715   6.975   4.009
    1AU    AUSL  108   5.565   5.084   5.089
    1AU    AUSL  109   5.985   4.949   5.422
    1AU     AUL  110   5.934   5.102   5.147
    1AU       S  111   6.069   4.650   5.187
    1AU     LIG  112   6.238   4.333   4.866
    1AU     LIG  113   6.490   3.964   4.719
    1AU     LIG  114   6.765   3.708   4.438
    1AU     LIG  115   7.186   3.756   4.213
    1AU       S  116   5.673   5.329   4.840
    1AU     LIG  117   5.813   4.993   4.583
    1AU     LIG  118   5.900   4.778   4.161
    1AU     LIG  119   5.878   4.753   3.686
    1AU     LIG  120   6.069   4.821   3.259
    1AU    AUSL  121   5.375   5.451   5.268
    1AU    AUSL  122   5.145   5.065   5.209
    1AU     AUL  123   5.288   5.113   4.940
    1AU       S  124   4.829   5.117   4.804
    1AU     LIG  125   4.792   4.795   4.486
    1AU     LIG  126   4.672   4.610   4.073
    1AU     LIG  127   4.487   4.697   3.658
    1AU     LIG  128   4.605   4.747   3.218
    1AU       S  129   5.448   5.570   4.929
    1AU     LIG  130   5.499   5.436   4.398
    1AU     LIG  131   5.796   5.268   4.039
    1AU     LIG  132   5.935   5.255   3.569
    1AU     LIG  133   5.928   5.473   3.147
    1AU    AUSL  134   4.708   5.425   6.759
    1AU    AUSL  135   5.020   5.773   6.614
    1AU     AUL  136   4.872   5.717   6.956
    1AU       S  137   4.745   5.345   7.223
    1AU     LIG  138   4.517   5.002   7.422
    1AU     LIG  139   4.273   4.912   7.827
    1AU     LIG  140   4.115   4.943   8.279
    1AU     LIG  141   3.772   5.077   8.585
    1AU       S  142   4.598   6.029   6.725
    1AU     LIG  143   4.721   6.231   7.090
    1AU     LIG  144   4.510   6.434   7.441
    1AU     LIG  145   4.195   6.694   7.675
    1AU     LIG  146   3.990   6.827   8.082
    1AU    AUSL  147   5.031   5.133   6.680
    1AU    AUSL  148   4.583   5.010   6.643
    1AU     AUL  149   4.561   5.189   6.833
    1AU       S  150   4.442   4.735   6.893
    1AU     LIG  151   4.053   4.416   6.941
    1AU     LIG  152   3.743   4.065   6.947
    1AU     LIG  153   3.479   3.794   7.214
    1AU     LIG  154   3.067   3.664   7.415
    1AU       S  155   4.964   5.066   7.073
    1AU     LIG  156   4.955   4.727   7.376
    1AU     LIG  157   4.746   4.684   7.777
    1AU     LIG  158   4.577   4.707   8.205
    1AU     LIG  159   4.443   4.561   8.617
    1AU    AUSL  160   4.740   5.207   5.294
    1AU    AUSL  161   4.936   4.829   5.500
    1AU     AUL  162   4.925   4.826   5.145
    1AU       S  163   4.604   5.104   4.954
    1AU     LIG  164   4.338   5.007   4.602
    1AU     LIG  165   4.291   4.953   4.136
    1AU     LIG  166   4.015   4.928   3.748
    1AU     LIG  167   3.570   5.056   3.607
    1AU       S  168   4.518   4.705   5.306
    1AU     LIG  169   4.546   4.382   5.047
    1AU     LIG  170   4.213   4.125   4.884
    1AU     LIG  171   3.876   3.912   4.665
    1AU     LIG  172   3.736   3.652   4.306
    1AU    AUSL  173   5.003   5.490   5.060
    1AU    AUSL  174   4.525   5.570   5.422
    1AU     AUL  175   4.651   5.536   5.106
    1AU       S  176   4.255   5.749   5.254
    1AU     LIG  177   4.041   6.004   4.932
    1AU     LIG  178   3.972   6.232   4.533
    1AU     LIG  179   3.647   6.400   4.240
    1AU     LIG  180   3.164   6.450   4.189
    1AU       S  181   4.907   5.346   4.764
    1AU     LIG  182   4.697   5.282   4.336
    1AU     LIG  183   4.717   5.114   3.896
    1AU     LIG  184   4.636   5.207   3.443
    1AU     LIG  185   4.756   5.469   3.059
    1AU    AUSL  186   6.001   5.795   6.008
    1AU    AUSL  187   6.022   5.628   5.591
    1AU     AUL  188   6.287   5.919   5.849
    1AU       S  189   6.108   5.888   5.440
    1AU     LIG  190   6.436   5.827   5.135
    1AU     LIG  191   6.580   5.980   4.729
    1AU     LIG  192   6.812   6.312   4.503
    1AU     LIG  193   7.042   6.641   4.257
    1AU       S  194   6.469   5.661   6.206
    1AU     LIG  195   6.850   5.863   6.058
    1AU     LIG  196   7.287   6.055   6.066
    1AU     LIG  197   7.483   6.507   6.072
    1AU     LIG  198   7.739   6.782   6.352
    1AU    AUSL  199   6.228   5.403   5.901
    1AU    AUSL  200   6.177   5.067   6.211
    1AU     AUL  201   6.548   5.167   6.216
    1AU       S  202   6.352   5.480   5.964
    1AU     LIG  203   6.796   5.394   5.852
    1AU     LIG  204   7.242   5.571   5.849
    1AU     LIG  205   7.663   5.745   5.764
    1AU     LIG  206   8.048   5.512   5.576
    1AU       S  207   6.423   4.779   6.012
    1AU     LIG  208   6.884   4.761   6.085
    1AU     LIG  209   7.243   4.467   6.198
    1AU     LIG  210   7.667   4.349   6.309
    1AU     LIG  211   8.085   4.489   6.458
    1AU    AUSL  212   5.946   5.432   6.248
    1AU    AUSL  213   5.809   6.010   6.333
    1AU     AUL  214   6.079   5.871   6.321
    1AU       S  215   6.008   6.187   6.669
    1AU     LIG  216   6.390   6.270   6.926
    1AU     LIG  217   6.727   6.522   7.162
    1AU     LIG  218   6.901   6.954   7.302
    1AU     LIG  219   6.978   7.447   7.253
    1AU       S  220   6.285   5.481   6.403
    1AU     LIG  221   6.749   5.486   6.564
    1AU     LIG  222   7.167   5.571   6.354
    1AU     LIG  223   7.609   5.725   6.356
    1AU     LIG  224   8.030   5.887   6.539
    1AU    AUSL  225   4.583   5.881   6.016
    1AU    AUSL  226   4.637   5.670   6.416
    1AU     AUL  227   4.354   6.000   6.264
    1AU       S  228   4.479   5.821   6.677
    1AU     LIG  229   4.241   6.033   7.069
    1AU     LIG  230   4.021   6.261   7.424
    1AU     LIG  231   3.785   6.405   7.815
    1AU     LIG  232   3.411   6.478   8.098
    1AU       S  233   4.586   6.263   5.942
    1AU     LIG  234   4.111   6.219   5.852
    1AU     LIG  235   3.625   6.308   5.853
    1AU     LIG  236   3.191   6.522   5.883
    1AU     LIG  237   2.780   6.674   6.071
    1AU    AUSL  238   4.559   5.477   5.833
    1AU    AUSL  239   4.688   5.945   5.602
    1AU     AUL  240   4.381   5.829   5.703
    1AU       S  241   4.181   5.272   5.462
    1AU     LIG  242   3.834   5.608   5.552
    1AU     LIG  243   3.432   5.850   5.680
    1AU     LIG  244   3.097   6.146   5.508
    1AU     LIG  245   2.619   6.199   5.451
    1AU       S  246   4.525   6.187   5.420
    1AU     LIG  247   4.282   6.433   5.110
    1AU     LIG  248   4.214   6.651   4.708
    1AU     LIG  249   3.963   7.011   4.551
    1AU     LIG  250   3.635   7.311   4.715
    1AU    AUSL  251   4.298   5.545   6.191
    1AU    AUSL  252   4.266   5.171   5.913
    1AU     AUL  253   4.154   5.476   5.894
    1AU       S  254   4.068   5.102   6.186
    1AU     LIG  255   3.760   5.143   5.840
    1AU     LIG  256   3.384   4.890   5.696
    1AU     LIG  257   2.971   4.668   5.714
    1AU     LIG  258   2.565   4.808   5.630
    1AU       S  259   4.149   5.578   6.388
    1AU     LIG  260   3.729   5.558   6.195
    1AU     LIG  261   3.315   5.722   6.394
    1AU     LIG  262   2.880   5.939   6.405
    1AU     LIG  263   2.476   6.217   6.357
    1AU    AUSL  264   5.957   4.709   6.050
    1AU    AUSL  265   5.785   4.981   6.375
    1AU     AUL  266   6.118   4.879   6.424
    1AU       S  267   6.276   4.599   6.066
    1AU     LIG  268   6.650   4.310   5.975
    1AU     LIG  269   7.057   4.063   5.935
    1AU     LIG  270   7.496   3.917   6.039
    1AU     LIG  271   7.781   3.850   6.393
    1AU       S  272   6.005   4.449   6.497
    1AU     LIG  273   6.285   4.248   6.859
    1AU     LIG  274   6.533   4.012   7.189
    1AU     LIG  275   6.754   3.798   7.541
    1AU     LIG  276   7.057   3.860   7.907
    1AU    AUSL  277   5.948   5.087   5.823
    1AU    AUSL  278   5.825   4.595   5.648
    1AU     AUL  279   6.083   4.729   5.665
    1AU       S  280   6.424   4.978   5.804
    1AU     LIG  281   6.699   4.670   5.603
    1AU     LIG  282   7.127   4.512   5.692
    1AU     LIG  283   7.561   4.367   5.783
    1AU     LIG  284   7.971   4.318   5.573
    1AU       S  285   6.011   4.424   5.308
    1AU     LIG  286   6.053   3.977   5.209
    1AU     LIG  287   6.257   3.605   4.999
    1AU     LIG  288   6.580   3.328   4.792
    1AU     LIG  289   6.814   2.906   4.884
    1AU    AUSL  290   4.457   4.803   6.077
    1AU    AUSL  291   4.581   5.034   5.656
    1AU     AUL  292   4.228   4.877   5.787
    1AU       S  293   4.441   4.851   5.375
    1AU     LIG  294   4.068   4.605   5.133
    1AU     LIG  295   3.724   4.290   5.003
    1AU     LIG  296   3.378   4.052   4.762
    1AU     LIG  297   3.031   4.107   4.436
    1AU       S  298   4.046   4.864   6.230
    1AU     LIG  299   3.699   4.661   6.031
    1AU     LIG  300   3.251   4.557   6.127
    1AU     LIG  301   2.896   4.361   6.373
    1AU     LIG  302   2.558   4.003   6.332
    1AU    AUSL  303   4.546   5.199   6.263
    1AU    AUSL  304   4.808   4.815   6.327
    1AU     AUL  305   4.466   4.777   6.402
    1AU       S  306   4.498   4.532   6.784
    1AU     LIG  307   4.385   4.078   6.690
    1AU     LIG  308   4.057   3.708   6.727
    1AU     LIG  309   3.719   3.421   6.930
    1AU     LIG  310   3.276   3.324   7.097
    1AU       S  311   4.135   5.104   6.377
    1AU     LIG  312   3.594   5.078   6.327
    1AU     LIG  313   3.163   5.060   6.129
    1AU     LIG  314   2.756   4.860   6.148
    1AU     LIG  315   2.438   4.652   6.424
    1AU    AUSL  316   5.255   6.120   6.479
    1AU    AUSL  317   4.837   6.051   6.326
    1AU     AUL  318   5.056   6.109   6.714
    1AU       S  319   4.700   6.263   6.451
    1AU     LIG  320   4.373   6.465   6.772
    1AU     LIG  321   4.161   6.682   7.144
    1AU     LIG  322   3.940   7.054   7.370
    1AU     LIG  323   3.687   7.480   7.375
    1AU       S  324   5.298   6.451   6.444
    1AU     LIG  325   5.448   6.518   6.839
    1AU     LIG  326   5.511   6.950   7.008
    1AU     LIG  327   5.606   7.385   7.156
    1AU     LIG  328   5.650   7.712   7.494
    1AU    AUSL  329   5.090   6.274   6.060
    1AU    AUSL  330   5.423   6.218   5.713
    1AU     AUL  331   5.302   6.569   5.855
    1AU       S  332   5.116   6.523   6.281
    1AU     LIG  333   5.310   6.939   6.515
    1AU     LIG  334   5.346   7.386   6.691
    1AU     LIG  335   5.166   7.842   6.692
    1AU     LIG  336   4.842   8.159   6.868
    1AU       S  337   5.159   6.368   5.474
    1AU     LIG  338   5.472   6.776   5.433
    1AU     LIG  339   5.707   7.222   5.347
    1AU     LIG  340   5.988   7.654   5.316
    1AU     LIG  341   6.175   8.114   5.276
    1AU    AUSL  342   5.454   6.015   6.099
    1AU    AUSL  343   5.481   5.757   6.490
    1AU     AUL  344   5.562   6.088   6.554
    1AU       S  345   5.840   6.018   6.909
    1AU     LIG  346   6.136   5.981   7.265
    1AU     LIG  347   6.433   6.256   7.490
    1AU     LIG  348   6.708   6.571   7.715
    1AU     LIG  349   6.742   6.799   8.129
    1AU       S  350   5.542   6.384   6.196
    1AU     LIG  351   5.767   6.683   6.473
    1AU     LIG  352   5.807   7.135   6.630
    1AU     LIG  353   5.831   7.591   6.741
    1AU     LIG  354   5.829   8.040   6.770
    1AU    AUSL  355   5.196   4.628   6.436
    1AU    AUSL  356   5.612   4.590   6.283
    1AU     AUL  357   5.408   4.485   6.661
    1AU       S  358   5.166   4.116   6.521
    1AU     LIG  359   4.871   3.941   6.841
    1AU     LIG  360   4.807   3.481   6.892
    1AU     LIG  361   4.880   3.017   6.915
    1AU     LIG  362   4.704   2.633   7.155
    1AU       S  363   5.768   4.366   6.352
    1AU     LIG  364   5.945   3.941   6.619
    1AU     LIG  365   6.287   3.683   6.882
    1AU     LIG  366   6.655   3.454   7.132
    1AU     LIG  367   6.880   3.001   7.136
    1AU    AUSL  368   4.868   4.430   6.165
    1AU    AUSL  369   4.936   4.729   6.758
    1AU     AUL  370   4.860   4.476   6.511
    1AU       S  371   4.976   4.049   6.366
    1AU     LIG  372   4.756   3.651   6.404
    1AU     LIG  373   4.629   3.191   6.484
    1AU     LIG  374   4.486   2.774   6.684
    1AU     LIG  375   4.590   2.322   6.751
    1AU       S  376   4.727   4.644   6.947
    1AU     LIG  377   4.558   4.247   7.172
    1AU     LIG  378   4.198   3.950   7.162
    1AU     LIG  379   3.954   3.618   7.375
    1AU     LIG  380   4.006   3.416   7.808
    1AU    AUSL  381   5.304   4.336   6.122
    1AU    AUSL  382   5.053   4.464   5.767
    1AU     AUL  383   4.929   4.204   5.933
    1AU       S  384   5.295   4.166   5.659
    1AU     LIG  385   5.013   3.749   5.730
    1AU     LIG  386   4.806   3.284   5.673
    1AU     LIG  387   4.735   2.821   5.499
    1AU     LIG  388   4.598   2.465   5.214
    1AU       S  389   5.301   4.155   6.260
    1AU     LIG  390   5.258   3.680   6.195
    1AU     LIG  391   5.146   3.307   6.487
    1AU     LIG  392   5.347   2.904   6.652
    1AU     LIG  393   5.766   2.663   6.671
    1AU    AUSL  394   5.280   5.917   5.387
    1AU    AUSL  395   5.682   5.877   5.724
    1AU     AUL  396   5.547   6.108   5.381
    1AU       S  397   5.148   6.336   5.263
    1AU     LIG  398   5.465   6.503   5.009
    1AU     LIG  399   5.514   6.961   4.931
    1AU     LIG  400   5.486   7.321   4.630
    1AU     LIG  401   5.588   7.618   4.274
    1AU       S  402   5.936   6.121   5.622
    1AU     LIG  403   6.366   6.310   5.378
    1AU     LIG  404   6.571   6.453   4.958
    1AU     LIG  405   6.798   6.794   4.695
    1AU     LIG  406   7.134   7.149   4.655
    1AU    AUSL  407   5.073   5.952   5.778
    1AU    AUSL  408   4.966   5.629   5.463
    1AU     AUL  409   4.931   5.935   5.327
    1AU       S  410   4.967   6.327   5.599
    1AU     LIG  411   4.962   6.814   5.489
    1AU     LIG  412   5.172   7.213   5.323
    1AU     LIG  413   5.045   7.683   5.302
    1AU     LIG  414   4.794   8.030   5.095
    1AU       S  415   4.499   5.976   5.171
    1AU     LIG  416   4.500   6.146   4.736
    1AU     LIG  417   4.424   6.365   4.332
    1AU     LIG  418   4.130   6.691   4.174
    1AU     LIG  419   4.134   7.159   4.051
    1AU    AUSL  420   5.267   4.571   5.394
    1AU    AUSL  421   4.650   4.601   5.749
    1AU     AUL  422   4.905   4.441   5.456
    1AU       S  423   4.457   4.554   5.537
    1AU     LIG  424   4.201   4.186   5.403
    1AU     LIG  425   3.902   3.856   5.208
    1AU     LIG  426   3.592   3.583   4.955
    1AU     LIG  427   3.447   3.127   4.827
    1AU       S  428   5.301   4.153   5.437
    1AU     LIG  429   5.226   3.714   5.265
    1AU     LIG  430   4.985   3.286   5.186
    1AU     LIG  431   4.825   2.879   4.977
    1AU     LIG  432   4.743   2.608   4.580
    1AU    AUSL  433   5.447   4.618   5.828
    1AU    AUSL  434   5.538   4.895   5.471
    1AU     AUL  435   5.579   4.528   5.434
    1AU       S  436   5.533   4.194   5.747
    1AU     LIG  437   5.524   3.721   5.715
    1AU     LIG  438   5.313   3.316   5.593
    1AU     LIG  439   5.240   2.874   5.410
    1AU     LIG  440   5.386   2.407   5.431
    1AU       S  441   5.800   4.657   5.063
    1AU     LIG  442   5.726   4.243   4.911
    1AU     LIG  443   5.964   3.901   4.690
    1AU     LIG  444   6.238   3.602   4.446
    1AU     LIG  445   6.458   3.534   4.031
    2POPC   NC3  446  10.170   5.903   8.082
    2POPC   PO4  447   0.002   5.340   7.930
    2POPC   GL1  448  10.301   5.482   7.658
    2POPC   GL2  449   9.995   5.574   7.724
    2POPC   C1A  450  10.149   5.345   7.268
    2POPC   D2A  451  10.354   5.393   6.875
    2POPC   C3A  452  10.134   5.430   6.457
    2POPC   C4A  453  10.132   5.392   5.963
    2POPC   C1B  454  10.213   5.845   7.350
    2POPC   C2B  455  10.279   5.967   6.950
    2POPC   C3B  456  10.068   5.950   6.592
    2POPC   C4B  457  10.198   5.850   6.198
    3POPC   NC3  458   0.474   9.264   8.328
    3POPC   PO4  459   0.689   9.618   7.844
    3POPC   GL1  460   0.514   9.487   7.486
    3POPC   GL2  461   0.372   9.202   7.551
    3POPC   C1A  462   0.226   9.569   7.194
    3POPC   D2A  463   0.357   9.705   6.818
    3POPC   C3A  464   0.081   9.681   6.510
    3POPC   C4A  465   0.264   9.722   6.150
    3POPC   C1B  466   0.257   9.023   7.181
    3POPC   C2B  467   0.509   9.107   6.799
    3POPC   C3B  468   0.441   9.332   6.422
    3POPC   C4B  469   0.505   9.316   5.931
    4POPC   NC3  470   9.367   7.402   8.183
    4POPC   PO4  471   8.861   7.046   7.987
    4POPC   GL1  472   9.109   7.048   7.661
    4POPC   GL2  473   9.456   7.111   7.744
    4POPC   C1A  474   9.263   7.031   7.268
    4POPC   D2A  475   9.132   6.895   6.899
    4POPC   C3A  476   9.182   7.184   6.572
    4POPC   C4A  477   9.209   7.108   6.149
    4POPC   C1B  478   9.746   7.180   7.387
    4POPC   C2B  479   9.758   7.050   6.980
    4POPC   C3B  480   9.848   7.186   6.592
    4POPC   C4B  481   9.619   7.391   6.283
    5POPC   NC3  482   5.913   8.547   8.076
    5POPC   PO4  483   5.728   9.215   8.156
    5POPC   GL1  484   5.894   8.968   7.805
    5POPC   GL2  485   5.610   8.934   7.535
    5POPC   C1A  486   6.084   8.972   7.407
    5POPC   D2A  487   5.844   9.205   7.047
    5POPC   C3A  488   5.772   9.050   6.611
    5POPC   C4A  489   5.648   8.757   6.296
    5POPC   C1B  490   5.743   8.697   7.150
    5POPC   C2B  491   5.572   8.521   6.763
    5POPC   C3B  492   5.550   8.247   6.397
    5POPC   C4B  493   5.687   8.243   5.971
    6POPC   NC3  494   6.440   1.965   8.098
    6POPC   PO4  495   6.048   2.431   7.994
    6POPC   GL1  496   6.370   2.152   7.629
    6POPC   GL2  497   6.499   1.788   7.608
    6POPC   C1A  498   6.493   2.032   7.151
    6POPC   D2A  499   6.283   2.267   6.785
    6POPC   C3A  500   6.530   2.336   6.396
    6POPC   C4A  501   6.390   2.253   5.953
    6POPC   C1B  502   6.676   1.466   7.294
    6POPC   C2B  503   6.748   1.599   6.867
    6POPC   C3B  504   6.570   1.879   6.640
    6POPC   C4B  505   6.387   1.859   6.265
    7POPC   NC3  506   8.674   5.869   7.916
    7POPC   PO4  507   8.877   5.242   8.143
    7POPC   GL1  508   8.711   5.350   7.704
    7POPC   GL2  509   8.498   5.614   7.528
    7POPC   C1A  510   8.926   5.482   7.323
    7POPC   D2A  511   8.983   5.634   6.882
    7POPC   C3A  512   8.923   5.494   6.440
    7POPC   C4A  513   8.898   5.636   6.036
    7POPC   C1B  514   8.506   5.659   7.083
    7POPC   C2B  515   8.496   5.420   6.698
    7POPC   C3B  516   8.432   5.604   6.289
    7POPC   C4B  517   8.076   5.681   6.052
    8POPC   NC3  518   3.742   9.648   8.070
    8POPC   PO4  519   3.201   9.965   8.182
    8POPC   GL1  520   3.165   9.771   7.756
    8POPC   GL2  521   3.294   9.432   7.793
    8POPC   C1A  522   3.295   9.833   7.320
    8POPC   D2A  523   3.138   9.708   6.897
    8POPC   C3A  524   3.462   9.582   6.607
    8POPC   C4A  525   3.454   9.430   6.164
    8POPC   C1B  526   3.463   9.206   7.438
    8POPC   C2B  527   3.441   9.229   6.993
    8POPC   C3B  528   3.557   9.053   6.568
    8POPC   C4B  529   3.758   8.954   6.176
    9POPC   NC3  530   2.615   7.869   8.442
    9POPC   PO4  531   3.047   8.215   8.083
    9POPC   GL1  532   2.681   7.971   7.869
    9POPC   GL2  533   2.453   8.178   7.704
    9POPC   C1A  534   2.582   7.780   7.411
    9POPC   D2A  535   2.847   7.664   7.035
    9POPC   C3A  536   2.687   7.697   6.610
    9POPC   C4A  537   2.506   7.523   6.246
    9POPC   C1B  538   2.878   8.201   7.440
    9POPC   C2B  539   2.999   8.156   7.017
    9POPC   C3B  540   3.005   8.092   6.556
    9POPC   C4B  541   2.799   7.965   6.164
   10POPC   NC3  542   8.450   7.003   8.174
   10POPC   PO4  543   8.512   7.577   8.409
   10POPC   GL1  544   8.592   7.469   7.881
   10POPC   GL2  545   8.495   7.121   7.664
   10POPC   C1A  546   8.688   7.506   7.369
   10POPC   D2A  547   8.515   7.659   6.936
   10POPC   C3A  548   8.427   7.480   6.492
   10POPC   C4A  549   8.426   7.511   6.019
   10POPC   C1B  550   8.734   7.008   7.257
   10POPC   C2B  551   8.712   7.160   6.807
   10POPC   C3B  552   8.728   7.035   6.353
   10POPC   C4B  553   8.778   7.167   5.890
   11POPC   NC3  554   6.154   9.084   8.250
   11POPC   PO4  555   6.324   8.398   8.198
   11POPC   GL1  556   6.325   8.585   7.751
   11POPC   GL2  557   6.650   8.728   7.696
   11POPC   C1A  558   6.365   8.595   7.263
   11POPC   D2A  559   6.668   8.445   6.964
   11POPC   C3A  560   6.556   8.511   6.531
   11POPC   C4A  561   6.428   8.535   6.089
   11POPC   C1B  562   6.702   8.949   7.327
   11POPC   C2B  563   6.565   8.969   6.907
   11POPC   C3B  564   6.618   9.005   6.477
   11POPC   C4B  565   6.188   8.960   6.254
   12POPC   NC3  566   5.052   1.151   8.068
   12POPC   PO4  567   5.275   1.800   8.061
   12POPC   GL1  568   4.930   1.573   7.757
   12POPC   GL2  569   4.922   1.253   7.603
   12POPC   C1A  570   4.722   1.552   7.274
   12POPC   D2A  571   5.014   1.492   6.883
   12POPC   C3A  572   4.797   1.511   6.494
   12POPC   C4A  573   4.845   1.419   6.031
   12POPC   C1B  574   4.939   1.063   7.214
   12POPC   C2B  575   4.789   1.067   6.806
   12POPC   C3B  576   4.994   1.060   6.387
   12POPC   C4B  577   4.613   0.973   6.159
   13POPC   NC3  578   0.221   9.513   7.899
   13POPC   PO4  579   9.996   9.418   8.044
   13POPC   GL1  580  10.224   9.555   7.716
   13POPC   GL2  581  10.349   9.215   7.658
   13POPC   C1A  582  10.137   9.807   7.347
   13POPC   D2A  583  10.313   9.778   6.936
   13POPC   C3A  584  10.100   9.873   6.547
   13POPC   C4A  585  10.218   9.676   6.144
   13POPC   C1B  586  10.286   9.314   7.242
   13POPC   C2B  587  10.460   9.273   6.832
   13POPC   C3B  588  10.141   9.357   6.555
   13POPC   C4B  589   9.991   9.233   6.175
   14POPC   NC3  590   1.709   5.536   8.399
   14POPC   PO4  591   1.116   5.443   8.171
   14POPC   GL1  592   1.172   5.546   7.722
   14POPC   GL2  593   1.356   5.275   7.562
   14POPC   C1A  594   1.108   5.829   7.353
   14POPC   D2A  595   1.254   5.675   6.928
   14POPC   C3A  596   1.110   5.867   6.509
   14POPC   C4A  597   1.145   5.679   6.104
   14POPC   C1B  598   0.944   5.363   7.299
   14POPC   C2B  599   0.813   5.382   6.837
   14POPC   C3B  600   0.848   5.371   6.368
   14POPC   C4B  601   0.843   5.305   5.885
   15POPC   NC3  602   8.552   3.378   8.008
   15POPC   PO4  603   8.634   4.014   7.800
   15POPC   GL1  604   8.706   3.663   7.494
   15POPC   GL2  605   8.699   3.267   7.524
   15POPC   C1A  606   8.832   3.519   7.071
   15POPC   D2A  607   8.628   3.423   6.682
   15POPC   C3A  608   8.877   3.330   6.344
   15POPC   C4A  609   8.811   3.516   5.956
   15POPC   C1B  610   8.368   3.383   7.211
   15POPC   C2B  611   8.229   3.672   6.902
   15POPC   C3B  612   8.127   3.503   6.518
   15POPC   C4B  613   8.390   3.543   6.211
   16POPC   NC3  614   0.500   2.757   8.072
   16POPC   PO4  615   0.307   2.107   8.166
   16POPC   GL1  616   0.366   2.383   7.734
   16POPC   GL2  617   0.145   2.682   7.708
   16POPC   C1A  618   0.127   2.400   7.308
   16POPC   D2A  619   0.162   2.641   6.912
   16POPC   C3A  620   0.471   2.540   6.572
   16POPC   C4A  621   0.138   2.472   6.269
   16POPC   C1B  622   0.414   2.822   7.337
   16POPC   C2B  623   0.459   3.064   6.954
   16POPC   C3B  624   0.327   3.036   6.522
   16POPC   C4B  625   0.484   2.858   6.147
   17POPC   NC3  626   8.907   7.805   8.314
   17POPC   PO4  627   8.575   8.202   7.943
   17POPC   GL1  628   8.658   7.962   7.607
   17POPC   GL2  629   8.973   7.768   7.697
   17POPC   C1A  630   8.622   8.219   7.239
   17POPC   D2A  631   8.357   8.243   6.902
   17POPC   C3A  632   8.501   8.048   6.582
   17POPC   C4A  633   8.609   8.183   6.170
   17POPC   C1B  634   9.062   7.919   7.262
   17POPC   C2B  635   8.957   8.120   6.844
   17POPC   C3B  636   8.964   7.927   6.429
   17POPC   C4B  637   8.905   7.508   6.270
   18POPC   NC3  638   2.832  10.130   8.422
   18POPC   PO4  639   3.069   0.063   7.888
   18POPC   GL1  640   3.312  10.291   7.636
   18POPC   GL2  641   3.565  10.099   7.804
   18POPC   C1A  642   3.510  10.309   7.229
   18POPC   D2A  643   3.429  10.164   6.790
   18POPC   C3A  644   3.592  10.406   6.409
   18POPC   C4A  645   3.410  10.336   5.969
   18POPC   C1B  646   3.809   9.903   7.459
   18POPC   C2B  647   3.800   9.851   7.022
   18POPC   C3B  648   3.828   9.939   6.597
   18POPC   C4B  649   3.550   9.931   6.247
   19POPC   NC3  650   9.675   8.258   8.032
   19POPC   PO4  651   9.357   7.799   8.419
   19POPC   GL1  652   9.503   7.765   7.885
   19POPC   GL2  653   9.458   8.006   7.640
   19POPC   C1A  654   9.366   7.535   7.460
   19POPC   D2A  655   9.154   7.473   7.016
   19POPC   C3A  656   9.351   7.657   6.615
   19POPC   C4A  657   9.334   7.760   6.126
   19POPC   C1B  658   9.576   8.193   7.301
   19POPC   C2B  659   9.460   8.055   6.914
   19POPC   C3B  660   9.445   8.142   6.471
   19POPC   C4B  661   9.706   8.101   6.107
   20POPC   NC3  662   8.423   9.251   8.202
   20POPC   PO4  663   8.982   8.996   8.032
   20POPC   GL1  664   8.660   9.083   7.699
   20POPC   GL2  665   8.486   9.407   7.692
   20POPC   C1A  666   8.567   9.188   7.231
   20POPC   D2A  667   8.743   9.116   6.832
   20POPC   C3A  668   8.565   9.131   6.447
   20POPC   C4A  669   8.804   9.141   6.097
   20POPC   C1B  670   8.879   9.521   7.444
   20POPC   C2B  671   8.907   9.583   6.996
   20POPC   C3B  672   8.582   9.595   6.678
   20POPC   C4B  673   8.647   9.601   6.245
   21POPC   NC3  674   9.358   4.605   8.466
   21POPC   PO4  675   9.397   4.457   7.862
   21POPC   GL1  676   9.498   4.738   7.613
   21POPC   GL2  677   9.537   5.019   7.794
   21POPC   C1A  678   9.500   4.759   7.186
   21POPC   D2A  679   9.222   4.803   6.897
   21POPC   C3A  680   9.318   4.682   6.500
   21POPC   C4A  681   8.996   4.648   6.219
   21POPC   C1B  682   9.657   5.202   7.408
   21POPC   C2B  683   9.398   5.378   7.089
   21POPC   C3B  684   9.290   5.265   6.694
   21POPC   C4B  685   9.467   5.148   6.328
   22POPC   NC3  686   0.825   0.909   8.078
   22POPC   PO4  687   1.436   0.783   7.981
   22POPC   GL1  688   1.146   0.922   7.679
   22POPC   GL2  689   1.077   1.260   7.800
   22POPC   C1A  690   1.145   1.096   7.270
   22POPC   D2A  691   1.402   1.090   6.919
   22POPC   C3A  692   1.216   0.893   6.583
   22POPC   C4A  693   1.174   1.081   6.210
   22POPC   C1B  694   1.278   1.525   7.525
   22POPC   C2B  695   1.245   1.572   7.087
   22POPC   C3B  696   1.091   1.445   6.678
   22POPC   C4B  697   1.394   1.512   6.371
   23POPC   NC3  698   6.900   8.702   8.130
   23POPC   PO4  699   7.341   9.200   8.179
   23POPC   GL1  700   7.079   9.058   7.811
   23POPC   GL2  701   7.286   8.746   7.748
   23POPC   C1A  702   7.190   9.051   7.366
   23POPC   D2A  703   7.108   8.804   6.981
   23POPC   C3A  704   7.249   8.886   6.551
   23POPC   C4A  705   7.041   8.810   6.158
   23POPC   C1B  706   7.051   8.522   7.420
   23POPC   C2B  707   7.147   8.271   7.059
   23POPC   C3B  708   7.082   8.405   6.635
   23POPC   C4B  709   6.914   8.332   6.223
   24POPC   NC3  710   0.125   6.409   8.276
   24POPC   PO4  711  10.010   6.365   8.120
   24POPC   GL1  712   9.896   6.411   7.699
   24POPC   GL2  713  10.171   6.223   7.654
   24POPC   C1A  714   9.825   6.227   7.237
   24POPC   D2A  715   9.999   6.419   6.849
   24POPC   C3A  716   9.787   6.390   6.479
   24POPC   C4A  717   9.756   6.078   6.207
   24POPC   C1B  718  10.295   6.397   7.276
   24POPC   C2B  719  10.488   6.441   6.866
   24POPC   C3B  720  10.337   6.369   6.435
   24POPC   C4B  721  10.467   6.587   6.057
   25POPC   NC3  722   5.375   0.366   8.213
   25POPC   PO4  723   4.672   0.165   8.196
   25POPC   GL1  724   4.815   0.391   7.801
   25POPC   GL2  725   4.954   0.743   7.748
   25POPC   C1A  726   4.976   0.288   7.355
   25POPC   D2A  727   5.109   0.445   6.937
   25POPC   C3A  728   4.993   0.169   6.580
   25POPC   C4A  729   5.167   0.096   6.175
   25POPC   C1B  730   4.669   0.688   7.425
   25POPC   C2B  731   4.612   0.622   6.996
   25POPC   C3B  732   4.767   0.632   6.568
   25POPC   C4B  733   4.984   0.588   6.182
   26POPC   NC3  734   5.928   1.244   8.019
   26POPC   PO4  735   5.415   0.811   8.020
   26POPC   GL1  736   5.379   1.015   7.589
   26POPC   GL2  737   5.442   1.379   7.657
   26POPC   C1A  738   5.429   1.138   7.109
   26POPC   D2A  739   5.769   1.227   6.762
   26POPC   C3A  740   5.602   1.025   6.379
   26POPC   C4A  741   5.411   0.848   6.031
   26POPC   C1B  742   5.690   1.521   7.264
   26POPC   C2B  743   5.509   1.672   6.862
   26POPC   C3B  744   5.409   1.514   6.462
   26POPC   C4B  745   5.800   1.459   6.231
   27POPC   NC3  746   9.413   5.176   8.258
   27POPC   PO4  747   9.730   5.762   8.175
   27POPC   GL1  748   9.480   5.762   7.804
   27POPC   GL2  749   9.689   5.969   7.652
   27POPC   C1A  750   9.275   5.827   7.385
   27POPC   D2A  751   9.449   5.928   6.947
   27POPC   C3A  752   9.257   5.875   6.540
   27POPC   C4A  753   9.300   5.940   6.115
   27POPC   C1B  754   9.746   5.698   7.308
   27POPC   C2B  755   9.876   5.598   6.925
   27POPC   C3B  756   9.669   5.593   6.569
   27POPC   C4B  757   9.699   5.568   6.156
   28POPC   NC3  758   5.321   9.105   7.927
   28POPC   PO4  759   5.697   9.696   7.983
   28POPC   GL1  760   5.566   9.463   7.683
   28POPC   GL2  761   5.855   9.394   7.559
   28POPC   C1A  762   5.389   9.317   7.289
   28POPC   D2A  763   5.179   9.450   6.918
   28POPC   C3A  764   5.349   9.339   6.524
   28POPC   C4A  765   5.435   9.539   6.140
   28POPC   C1B  766   5.797   9.687   7.290
   28POPC   C2B  767   5.611   9.778   6.918
   28POPC   C3B  768   5.760   9.633   6.528
   28POPC   C4B  769   5.956   9.435   6.190
   29POPC   NC3  770   9.522   2.594   8.351
   29POPC   PO4  771   9.726   3.212   8.158
   29POPC   GL1  772   9.625   2.882   7.834
   29POPC   GL2  773   9.261   2.760   7.768
   29POPC   C1A  774   9.614   2.719   7.396
   29POPC   D2A  775   9.276   2.773   7.069
   29POPC   C3A  776   9.402   2.865   6.656
   29POPC   C4A  777   9.647   2.632   6.359
   29POPC   C1B  778   9.216   2.398   7.455
   29POPC   C2B  779   9.153   2.272   7.036
   29POPC   C3B  780   9.136   2.424   6.627
   29POPC   C4B  781   9.242   2.351   6.217
   30POPC   NC3  782   2.688   3.454   8.514
   30POPC   PO4  783   2.285   3.331   8.158
   30POPC   GL1  784   2.327   3.476   7.756
   30POPC   GL2  785   2.362   3.158   7.607
   30POPC   C1A  786   2.566   3.556   7.357
   30POPC   D2A  787   2.738   3.364   6.985
   30POPC   C3A  788   2.585   3.475   6.554
   30POPC   C4A  789   2.439   3.475   6.121
   30POPC   C1B  790   2.823   3.105   7.462
   30POPC   C2B  791   2.969   2.910   7.066
   30POPC   C3B  792   2.961   3.052   6.630
   30POPC   C4B  793   3.155   3.229   6.257
   31POPC   NC3  794   4.683  10.158   8.353
   31POPC   PO4  795   4.185   9.797   8.128
   31POPC   GL1  796   4.473   9.921   7.825
   31POPC   GL2  797   4.411  10.251   7.712
   31POPC   C1A  798   4.403   9.844   7.379
   31POPC   D2A  799   4.306  10.025   6.965
   31POPC   C3A  800   4.316   9.831   6.574
   31POPC   C4A  801   4.422   9.983   6.179
   31POPC   C1B  802   4.119  10.303   7.351
   31POPC   C2B  803   3.922  10.372   6.927
   31POPC   C3B  804   4.160  10.319   6.551
   31POPC   C4B  805   4.189   0.009   6.176
   32POPC   NC3  806   2.799   5.313   8.605
   32POPC   PO4  807   2.368   5.227   8.149
   32POPC   GL1  808   2.443   5.325   7.646
   32POPC   GL2  809   2.450   5.707   7.590
   32POPC   C1A  810   2.576   5.424   7.186
   32POPC   D2A  811   2.690   5.628   6.792
   32POPC   C3A  812   2.868   5.422   6.390
   32POPC   C4A  813   3.105   5.541   5.978
   32POPC   C1B  814   2.451   5.941   7.177
   32POPC   C2B  815   2.265   5.940   6.753
   32POPC   C3B  816   2.422   5.714   6.375
   32POPC   C4B  817   2.392   5.882   5.937
   33POPC   NC3  818   5.665  10.143   8.141
   33POPC   PO4  819   6.275  10.077   7.942
   33POPC   GL1  820   5.954  10.044   7.637
   33POPC   GL2  821   5.597  10.111   7.657
   33POPC   C1A  822   5.833  10.179   7.231
   33POPC   D2A  823   5.976  10.361   6.893
   33POPC   C3A  824   5.863  10.126   6.562
   33POPC   C4A  825   6.017  10.159   6.148
   33POPC   C1B  826   5.323  10.309   7.349
   33POPC   C2B  827   5.451  10.278   6.920
   33POPC   C3B  828   5.394  10.329   6.521
   33POPC   C4B  829   5.519  10.155   6.131
   34POPC   NC3  830   6.169   9.633   7.880
   34POPC   PO4  831   6.590   9.112   8.117
   34POPC   GL1  832   6.446   9.230   7.695
   34POPC   GL2  833   6.742   9.393   7.557
   34POPC   C1A  834   6.275   9.407   7.279
   34POPC   D2A  835   6.124   9.620   6.915
   34POPC   C3A  836   6.209   9.323   6.606
   34POPC   C4A  837   6.475   9.402   6.216
   34POPC   C1B  838   6.667   9.670   7.177
   34POPC   C2B  839   6.608   9.567   6.766
   34POPC   C3B  840   6.762   9.752   6.448
   34POPC   C4B  841   6.958   9.826   6.112
   35POPC   NC3  842   0.608   1.868   7.892
   35POPC   PO4  843  10.422   1.752   7.988
   35POPC   GL1  844   0.198   1.612   7.740
   35POPC   GL2  845   0.193   1.934   7.597
   35POPC   C1A  846   0.277   1.530   7.315
   35POPC   D2A  847   0.363   1.674   6.926
   35POPC   C3A  848   0.519   1.530   6.585
   35POPC   C4A  849   0.410   1.692   6.215
   35POPC   C1B  850   0.469   2.028   7.294
   35POPC   C2B  851   0.392   2.178   6.922
   35POPC   C3B  852   0.268   2.055   6.543
   35POPC   C4B  853   0.566   2.167   6.196
   36POPC   NC3  854   3.485   1.018   8.275
   36POPC   PO4  855   3.141   1.435   7.941
   36POPC   GL1  856   3.399   1.144   7.699
   36POPC   GL2  857   3.571   0.798   7.669
   36POPC   C1A  858   3.266   1.090   7.292
   36POPC   D2A  859   3.011   1.074   6.949
   36POPC   C3A  860   3.265   1.222   6.602
   36POPC   C4A  861   3.150   1.332   6.190
   36POPC   C1B  862   3.766   0.992   7.302
   36POPC   C2B  863   3.814   1.251   6.982
   36POPC   C3B  864   3.849   1.130   6.608
   36POPC   C4B  865   3.646   1.205   6.239
   37POPC   NC3  866   9.794   4.278   8.053
   37POPC   PO4  867   0.018   4.393   8.005
   37POPC   GL1  868  10.357   4.465   7.670
   37POPC   GL2  869  10.087   4.223   7.641
   37POPC   C1A  870  10.417   4.444   7.277
   37POPC   D2A  871  10.139   4.455   6.973
   37POPC   C3A  872  10.361   4.479   6.638
   37POPC   C4A  873  10.252   4.616   6.241
   37POPC   C1B  874  10.245   3.957   7.315
   37POPC   C2B  875  10.138   3.939   6.917
   37POPC   C3B  876   9.981   4.169   6.584
   37POPC   C4B  877  10.141   4.124   6.178
   38POPC   NC3  878   7.577   0.131   7.860
   38POPC   PO4  879   7.652   0.769   8.031
   38POPC   GL1  880   7.869   0.519   7.713
   38POPC   GL2  881   7.964   0.156   7.557
   38POPC   C1A  882   7.885   0.596   7.287
   38POPC   D2A  883   7.841   0.855   6.960
   38POPC   C3A  884   7.776   0.671   6.590
   38POPC   C4A  885   7.977   0.771   6.253
   38POPC   C1B  886   7.978   0.113   7.153
   38POPC   C2B  887   7.689   0.244   6.857
   38POPC   C3B  888   7.916   0.179   6.493
   38POPC   C4B  889   7.914   0.288   6.065
   39POPC   NC3  890   8.037   1.991   8.075
   39POPC   PO4  891   7.461   1.610   8.191
   39POPC   GL1  892   7.532   1.675   7.726
   39POPC   GL2  893   7.866   1.739   7.672
   39POPC   C1A  894   7.614   1.665   7.246
   39POPC   D2A  895   7.907   1.721   6.922
   39POPC   C3A  896   7.630   1.781   6.595
   39POPC   C4A  897   7.566   1.767   6.182
   39POPC   C1B  898   7.977   2.022   7.370
   39POPC   C2B  899   8.223   2.123   6.983
   39POPC   C3B  900   8.025   2.095   6.569
   39POPC   C4B  901   7.855   2.196   6.185
   40POPC   NC3  902  10.303   7.819   7.973
   40POPC   PO4  903   9.816   7.341   8.025
   40POPC   GL1  904   9.917   7.586   7.629
   40POPC   GL2  905   9.960   7.946   7.608
   40POPC   C1A  906   9.779   7.697   7.187
   40POPC   D2A  907   9.966   7.948   6.844
   40POPC   C3A  908  10.022   7.823   6.405
   40POPC   C4A  909  10.401   7.786   6.108
   40POPC   C1B  910  10.285   7.811   7.290
   40POPC   C2B  911  10.483   7.861   6.871
   40POPC   C3B  912  10.397   8.157   6.531
   40POPC   C4B  913  10.209   8.264   6.135
   41POPC   NC3  914   2.192   4.754   8.040
   41POPC   PO4  915   1.724   5.295   8.009
   41POPC   GL1  916   1.890   5.277   7.588
   41POPC   GL2  917   1.817   4.950   7.543
   41POPC   C1A  918   2.201   5.094   7.250
   41POPC   D2A  919   2.190   4.955   6.793
   41POPC   C3A  920   2.401   5.157   6.413
   41POPC   C4A  921   2.274   4.969   6.002
   41POPC   C1B  922   1.741   5.213   7.109
   41POPC   C2B  923   1.689   5.112   6.677
   41POPC   C3B  924   1.915   4.888   6.347
   41POPC   C4B  925   1.774   4.657   5.956
   42POPC   NC3  926   7.694   8.602   8.147
   42POPC   PO4  927   8.277   8.419   8.381
   42POPC   GL1  928   8.114   8.434   7.864
   42POPC   GL2  929   7.839   8.635   7.672
   42POPC   C1A  930   8.120   8.363   7.366
   42POPC   D2A  931   7.918   8.493   6.955
   42POPC   C3A  932   7.950   8.287   6.531
   42POPC   C4A  933   8.153   8.384   6.137
   42POPC   C1B  934   7.627   8.806   7.303
   42POPC   C2B  935   7.713   8.936   6.869
   42POPC   C3B  936   7.753   8.831   6.434
   42POPC   C4B  937   7.526   8.972   6.048
   43POPC   NC3  938   1.189   5.900   8.086
   43POPC   PO4  939   1.267   6.610   8.077
   43POPC   GL1  940   1.377   6.271   7.790
   43POPC   GL2  941   1.072   6.226   7.674
   43POPC   C1A  942   1.499   6.151   7.384
   43POPC   D2A  943   1.262   6.196   7.014
   43POPC   C3A  944   1.427   6.317   6.634
   43POPC   C4A  945   1.493   6.130   6.242
   43POPC   C1B  946   1.190   6.592   7.404
   43POPC   C2B  947   1.178   6.827   7.021
   43POPC   C3B  948   1.250   6.928   6.577
   43POPC   C4B  949   1.154   6.598   6.292
   44POPC   NC3  950   1.447   3.204   8.380
   44POPC   PO4  951   0.883   3.022   8.029
   44POPC   GL1  952   1.142   3.186   7.684
   44POPC   GL2  953   1.254   3.548   7.747
   44POPC   C1A  954   1.227   3.312   7.258
   44POPC   D2A  955   1.164   3.577   6.920
   44POPC   C3A  956   1.258   3.310   6.622
   44POPC   C4A  957   1.065   3.273   6.258
   44POPC   C1B  958   1.455   3.758   7.376
   44POPC   C2B  959   1.670   3.570   7.023
   44POPC   C3B  960   1.604   3.691   6.616
   44POPC   C4B  961   1.417   3.616   6.230
   45POPC   NC3  962   1.182   9.512   7.952
   45POPC   PO4  963   0.753   8.945   8.152
   45POPC   GL1  964   0.854   9.118   7.718
   45POPC   GL2  965   1.013   9.400   7.510
   45POPC   C1A  966   0.779   9.071   7.252
   45POPC   D2A  967   1.042   9.347   6.981
   45POPC   C3A  968   0.908   9.444   6.602
   45POPC   C4A  969   0.891   9.183   6.257
   45POPC   C1B  970   1.345   9.567   7.330
   45POPC   C2B  971   1.440   9.709   6.931
   45POPC   C3B  972   1.423   9.513   6.573
   45POPC   C4B  973   1.247   9.511   6.203
   46POPC   NC3  974   8.837   2.500   8.392
   46POPC   PO4  975   8.434   3.002   8.262
   46POPC   GL1  976   8.495   2.814   7.786
   46POPC   GL2  977   8.747   2.526   7.761
   46POPC   C1A  978   8.361   2.862   7.313
   46POPC   D2A  979   8.570   2.978   6.928
   46POPC   C3A  980   8.367   3.016   6.517
   46POPC   C4A  981   8.551   3.018   6.117
   46POPC   C1B  982   8.805   2.636   7.295
   46POPC   C2B  983   8.657   2.456   6.895
   46POPC   C3B  984   8.649   2.596   6.466
   46POPC   C4B  985   9.010   2.814   6.257
   47POPC   NC3  986   0.468   8.560   8.074
   47POPC   PO4  987   0.085   9.113   8.105
   47POPC   GL1  988   0.160   8.789   7.735
   47POPC   GL2  989   0.531   8.718   7.570
   47POPC   C1A  990   0.104   8.490   7.393
   47POPC   D2A  991   0.097   8.388   6.967
   47POPC   C3A  992   0.274   8.665   6.651
   47POPC   C4A  993   0.144   8.533   6.223
   47POPC   C1B  994   0.582   8.631   7.090
   47POPC   C2B  995   0.812   8.421   6.748
   47POPC   C3B  996   0.866   8.707   6.422
   47POPC   C4B  997   0.494   8.878   6.203
   48POPC   NC3  998   2.817   0.536   7.999
   48POPC   PO4  999   2.622  10.470   8.189
   48POPC   GL1 1000   2.621   0.189   7.693
   48POPC   GL2 1001   2.620   0.562   7.553
   48POPC   C1A 1002   2.603   0.182   7.238
   48POPC   D2A 1003   2.547   0.483   6.931
   48POPC   C3A 1004   2.722   0.347   6.547
   48POPC   C4A 1005   2.533   0.388   6.174
   48POPC   C1B 1006   2.912   0.668   7.251
   48POPC   C2B 1007   3.065   0.558   6.869
   48POPC   C3B 1008   3.046   0.772   6.537
   48POPC   C4B 1009   2.911   0.710   6.181
   49POPC   NC3 1010   9.600   0.227   8.371
   49POPC   PO4 1011   9.654   0.724   7.927
   49POPC   GL1 1012   9.584   0.451   7.601
   49POPC   GL2 1013   9.239   0.450   7.623
   49POPC   C1A 1014   9.496   0.334   7.162
   49POPC   D2A 1015   9.135   0.170   6.903
   49POPC   C3A 1016   9.314   0.255   6.495
   49POPC   C4A 1017   9.673   0.195   6.220
   49POPC   C1B 1018   9.283   0.764   7.308
   49POPC   C2B 1019   9.219   0.676   6.888
   49POPC   C3B 1020   9.316   0.787   6.486
   49POPC   C4B 1021   9.444   0.618   6.126
   50POPC   NC3 1022   3.918   1.079   7.906
   50POPC   PO4 1023   4.576   1.181   8.167
   50POPC   GL1 1024   4.478   1.048   7.765
   50POPC   GL2 1025   4.328   0.753   7.812
   50POPC   C1A 1026   4.435   1.121   7.318
   50POPC   D2A 1027   4.341   1.350   6.952
   50POPC   C3A 1028   4.371   1.228   6.540
   50POPC   C4A 1029   4.363   1.498   6.170
   50POPC   C1B 1030   4.164   0.682   7.387
   50POPC   C2B 1031   4.156   0.856   6.973
   50POPC   C3B 1032   4.223   0.717   6.578
   50POPC   C4B 1033   4.102   0.934   6.223
   51POPC   NC3 1034   3.184   2.725   8.026
   51POPC   PO4 1035   3.756   2.776   8.094
   51POPC   GL1 1036   3.623   2.742   7.648
   51POPC   GL2 1037   3.407   2.434   7.637
   51POPC   C1A 1038   3.633   2.940   7.193
   51POPC   D2A 1039   3.441   2.983   6.765
   51POPC   C3A 1040   3.641   3.024   6.351
   51POPC   C4A 1041   3.538   3.150   5.907
   51POPC   C1B 1042   3.291   2.520   7.201
   51POPC   C2B 1043   3.145   2.534   6.773
   51POPC   C3B 1044   3.302   2.647   6.385
   51POPC   C4B 1045   3.229   2.339   6.052
   52POPC   NC3 1046   2.549   1.217   7.985
   52POPC   PO4 1047   2.872   1.646   8.381
   52POPC   GL1 1048   2.724   1.636   7.781
   52POPC   GL2 1049   2.850   1.280   7.573
   52POPC   C1A 1050   2.651   1.605   7.256
   52POPC   D2A 1051   2.887   1.545   6.822
   52POPC   C3A 1052   2.750   1.225   6.490
   52POPC   C4A 1053   2.570   1.353   6.078
   52POPC   C1B 1054   2.564   1.030   7.316
   52POPC   C2B 1055   2.359   0.976   6.910
   52POPC   C3B 1056   2.476   0.795   6.516
   52POPC   C4B 1057   2.436   0.876   6.091
   53POPC   NC3 1058   3.456   7.931   8.081
   53POPC   PO4 1059   3.921   8.437   8.034
   53POPC   GL1 1060   3.668   8.322   7.635
   53POPC   GL2 1061   3.345   8.139   7.648
   53POPC   C1A 1062   3.529   8.234   7.184
   53POPC   D2A 1063   3.414   8.304   6.770
   53POPC   C3A 1064   3.489   8.020   6.418
   53POPC   C4A 1065   3.302   8.079   6.015
   53POPC   C1B 1066   3.260   7.825   7.340
   53POPC   C2B 1067   3.356   7.795   6.893
   53POPC   C3B 1068   3.182   7.606   6.510
   53POPC   C4B 1069   3.168   7.601   6.066
   54POPC   NC3 1070   3.627   8.796   7.944
   54POPC   PO4 1071   3.062   8.996   7.976
   54POPC   GL1 1072   3.040   8.908   7.565
   54POPC   GL2 1073   3.250   8.635   7.579
   54POPC   C1A 1074   2.960   8.677   7.167
   54POPC   D2A 1075   3.242   8.772   6.873
   54POPC   C3A 1076   3.200   8.681   6.479
   54POPC   C4A 1077   3.227   8.950   6.136
   54POPC   C1B 1078   3.592   8.735   7.253
   54POPC   C2B 1079   3.790   8.653   6.815
   54POPC   C3B 1080   3.677   8.493   6.376
   54POPC   C4B 1081   3.518   8.563   5.928
   55POPC   NC3 1082   1.387   4.167   8.115
   55POPC   PO4 1083   0.989   4.620   8.078
   55POPC   GL1 1084   0.941   4.357   7.710
   55POPC   GL2 1085   1.079   4.036   7.717
   55POPC   C1A 1086   1.172   4.402   7.301
   55POPC   D2A 1087   1.268   4.571   6.869
   55POPC   C3A 1088   1.015   4.513   6.529
   55POPC   C4A 1089   1.092   4.422   6.118
   55POPC   C1B 1090   0.993   3.925   7.283
   55POPC   C2B 1091   1.338   4.058   6.944
   55POPC   C3B 1092   1.260   4.057   6.493
   55POPC   C4B 1093   0.938   3.752   6.385
   56POPC   NC3 1094   9.079   8.539   8.050
   56POPC   PO4 1095   9.645   8.784   8.024
   56POPC   GL1 1096   9.467   8.584   7.665
   56POPC   GL2 1097   9.215   8.817   7.620
   56POPC   C1A 1098   9.507   8.707   7.213
   56POPC   D2A 1099   9.292   8.530   6.826
   56POPC   C3A 1100   9.486   8.648   6.498
   56POPC   C4A 1101   9.481   8.557   6.080
   56POPC   C1B 1102   9.146   9.100   7.283
   56POPC   C2B 1103   9.238   9.025   6.863
   56POPC   C3B 1104   9.083   8.944   6.462
   56POPC   C4B 1105   9.299   9.028   6.067
   57POPC   NC3 1106   1.096   7.835   8.121
   57POPC   PO4 1107   1.415   8.299   7.820
   57POPC   GL1 1108   1.250   7.950   7.635
   57POPC   GL2 1109   0.872   7.889   7.667
   57POPC   C1A 1110   1.397   7.995   7.228
   57POPC   D2A 1111   1.507   7.747   6.919
   57POPC   C3A 1112   1.353   7.888   6.557
   57POPC   C4A 1113   1.542   7.831   6.206
   57POPC   C1B 1114   0.846   7.741   7.263
   57POPC   C2B 1115   0.979   7.932   6.914
   57POPC   C3B 1116   0.815   7.910   6.526
   57POPC   C4B 1117   0.997   7.952   6.164
   58POPC   NC3 1118   2.115   7.325   7.997
   58POPC   PO4 1119   1.494   7.582   8.034
   58POPC   GL1 1120   1.622   7.304   7.668
   58POPC   GL2 1121   1.931   7.288   7.531
   58POPC   C1A 1122   1.558   7.087   7.268
   58POPC   D2A 1123   1.764   7.292   6.908
   58POPC   C3A 1124   1.632   7.258   6.465
   58POPC   C4A 1125   1.692   6.852   6.214
   58POPC   C1B 1126   2.336   7.318   7.351
   58POPC   C2B 1127   2.395   7.424   6.930
   58POPC   C3B 1128   2.130   7.463   6.591
   58POPC   C4B 1129   2.085   7.214   6.205
   59POPC   NC3 1130   6.948   9.440   8.161
   59POPC   PO4 1131   7.541   9.869   8.113
   59POPC   GL1 1132   7.275   9.601   7.799
   59POPC   GL2 1133   7.472   9.337   7.671
   59POPC   C1A 1134   7.147   9.583   7.333
   59POPC   D2A 1135   6.933   9.292   7.023
   59POPC   C3A 1136   7.026   9.335   6.600
   59POPC   C4A 1137   7.016   9.309   6.178
   59POPC   C1B 1138   7.624   9.335   7.286
   59POPC   C2B 1139   7.416   9.326   6.941
   59POPC   C3B 1140   7.547   9.311   6.565
   59POPC   C4B 1141   7.519   9.448   6.224
   60POPC   NC3 1142   0.502   7.523   7.869
   60POPC   PO4 1143   0.668   8.145   8.072
   60POPC   GL1 1144   0.453   8.210   7.692
   60POPC   GL2 1145   0.178   7.979   7.625
   60POPC   C1A 1146   0.584   8.181   7.291
   60POPC   D2A 1147   0.473   8.053   6.900
   60POPC   C3A 1148   0.400   8.202   6.520
   60POPC   C4A 1149   0.635   8.330   6.208
   60POPC   C1B 1150   0.314   7.722   7.263
   60POPC   C2B 1151   0.469   7.566   6.851
   60POPC   C3B 1152   0.275   7.718   6.460
   60POPC   C4B 1153   0.466   7.886   6.071
   61POPC   NC3 1154   2.648   1.973   8.165
   61POPC   PO4 1155   2.043   2.196   8.283
   61POPC   GL1 1156   2.312   2.188   7.797
   61POPC   GL2 1157   2.651   2.132   7.681
   61POPC   C1A 1158   2.386   2.060   7.276
   61POPC   D2A 1159   2.584   1.942   6.830
   61POPC   C3A 1160   2.458   2.168   6.410
   61POPC   C4A 1161   2.342   2.190   5.925
   61POPC   C1B 1162   2.986   1.976   7.416
   61POPC   C2B 1163   3.099   2.054   6.978
   61POPC   C3B 1164   2.997   2.063   6.543
   61POPC   C4B 1165   2.760   1.730   6.347
   62POPC   NC3 1166   4.173   2.590   8.089
   62POPC   PO4 1167   4.590   3.087   7.919
   62POPC   GL1 1168   4.361   2.799   7.581
   62POPC   GL2 1169   4.120   2.503   7.588
   62POPC   C1A 1170   4.190   2.750   7.127
   62POPC   D2A 1171   3.977   2.974   6.781
   62POPC   C3A 1172   4.158   3.009   6.367
   62POPC   C4A 1173   4.008   2.943   5.961
   62POPC   C1B 1174   3.788   2.460   7.257
   62POPC   C2B 1175   3.688   2.551   6.816
   62POPC   C3B 1176   3.895   2.568   6.404
   62POPC   C4B 1177   4.340   2.488   6.282
   63POPC   NC3 1178   2.819   8.611   7.965
   63POPC   PO4 1179   2.326   9.099   8.116
   63POPC   GL1 1180   2.541   8.970   7.731
   63POPC   GL2 1181   2.599   8.634   7.532
   63POPC   C1A 1182   2.627   9.075   7.320
   63POPC   D2A 1183   2.525   8.864   6.977
   63POPC   C3A 1184   2.737   8.880   6.608
   63POPC   C4A 1185   2.589   8.889   6.209
   63POPC   C1B 1186   2.476   8.377   7.198
   63POPC   C2B 1187   2.614   8.390   6.781
   63POPC   C3B 1188   2.681   8.422   6.366
   63POPC   C4B 1189   3.008   8.485   6.065
   64POPC   NC3 1190   5.809   0.510   7.939
   64POPC   PO4 1191   5.309  10.435   8.030
   64POPC   GL1 1192   5.552   0.127   7.717
   64POPC   GL2 1193   5.390   0.453   7.633
   64POPC   C1A 1194   5.689   0.161   7.274
   64POPC   D2A 1195   5.588   0.243   6.841
   64POPC   C3A 1196   5.803   0.126   6.462
   64POPC   C4A 1197   5.672   0.136   6.008
   64POPC   C1B 1198   5.620   0.667   7.266
   64POPC   C2B 1199   5.558   0.741   6.816
   64POPC   C3B 1200   5.444   0.518   6.431
   64POPC   C4B 1201   5.824   0.580   6.204
   65POPC   NC3 1202   8.937   4.372   7.901
   65POPC   PO4 1203   9.453   4.107   8.335
   65POPC   GL1 1204   9.323   3.970   7.848
   65POPC   GL2 1205   9.628   3.911   7.679
   65POPC   C1A 1206   9.262   4.166   7.349
   65POPC   D2A 1207   9.419   4.313   6.926
   65POPC   C3A 1208   9.091   4.237   6.619
   65POPC   C4A 1209   9.201   4.130   6.217
   65POPC   C1B 1210   9.710   3.935   7.223
   65POPC   C2B 1211   9.662   3.800   6.788
   65POPC   C3B 1212   9.638   3.888   6.354
   65POPC   C4B 1213   9.654   4.345   6.234
   66POPC   NC3 1214   1.452  10.204   8.258
   66POPC   PO4 1215   0.903   0.047   8.145
   66POPC   GL1 1216   1.179  10.381   7.789
   66POPC   GL2 1217   1.213  10.016   7.770
   66POPC   C1A 1218   1.345  10.443   7.363
   66POPC   D2A 1219   1.338  10.202   6.951
   66POPC   C3A 1220   1.426  10.383   6.584
   66POPC   C4A 1221   1.378  10.345   6.175
   66POPC   C1B 1222   1.074   9.997   7.341
   66POPC   C2B 1223   0.948   9.874   6.897
   66POPC   C3B 1224   1.126   9.949   6.467
   66POPC   C4B 1225   1.131   9.951   5.991
   67POPC   NC3 1226  10.403   1.335   8.175
   67POPC   PO4 1227   0.600   1.315   8.112
   67POPC   GL1 1228   0.321   1.114   7.805
   67POPC   GL2 1229   0.612   1.140   7.628
   67POPC   C1A 1230   0.223   1.035   7.327
   67POPC   D2A 1231   0.046   1.239   6.964
   67POPC   C3A 1232   0.224   1.114   6.589
   67POPC   C4A 1233   0.267   0.988   6.161
   67POPC   C1B 1234   0.780   1.448   7.353
   67POPC   C2B 1235   0.710   1.247   6.974
   67POPC   C3B 1236   0.736   1.058   6.569
   67POPC   C4B 1237   0.730   1.294   6.191
   68POPC   NC3 1238   8.726   6.608   7.911
   68POPC   PO4 1239   8.377   6.096   7.648
   68POPC   GL1 1240   8.791   6.212   7.530
   68POPC   GL2 1241   8.939   6.574   7.464
   68POPC   C1A 1242   8.871   6.035   7.157
   68POPC   D2A 1243   8.627   6.063   6.765
   68POPC   C3A 1244   8.785   6.018   6.360
   68POPC   C4A 1245   8.909   6.189   5.972
   68POPC   C1B 1246   8.651   6.503   7.138
   68POPC   C2B 1247   8.602   6.608   6.728
   68POPC   C3B 1248   8.606   6.528   6.308
   68POPC   C4B 1249   8.414   6.848   5.990
   69POPC   NC3 1250   7.736   9.450   8.072
   69POPC   PO4 1251   8.127   8.910   8.064
   69POPC   GL1 1252   7.987   9.139   7.677
   69POPC   GL2 1253   7.974   9.504   7.637
   69POPC   C1A 1254   8.057   9.070   7.232
   69POPC   D2A 1255   8.232   9.210   6.832
   69POPC   C3A 1256   8.044   9.271   6.429
   69POPC   C4A 1257   8.269   9.339   6.046
   69POPC   C1B 1258   8.126   9.577   7.253
   69POPC   C2B 1259   7.881   9.560   6.886
   69POPC   C3B 1260   7.808   9.810   6.545
   69POPC   C4B 1261   7.943   9.720   6.151
   70POPC   NC3 1262   1.285   5.004   8.073
   70POPC   PO4 1263   1.751   4.439   8.133
   70POPC   GL1 1264   1.450   4.608   7.720
   70POPC   GL2 1265   1.143   4.814   7.643
   70POPC   C1A 1266   1.429   4.845   7.260
   70POPC   D2A 1267   1.251   5.134   6.984
   70POPC   C3A 1268   1.190   5.025   6.584
   70POPC   C4A 1269   1.416   4.774   6.299
   70POPC   C1B 1270   0.897   4.851   7.302
   70POPC   C2B 1271   0.797   4.784   6.925
   70POPC   C3B 1272   0.696   4.913   6.546
   70POPC   C4B 1273   0.923   4.896   6.166
   71POPC   NC3 1274  10.420   2.232   7.920
   71POPC   PO4 1275   9.823   2.227   8.299
   71POPC   GL1 1276   9.909   2.241   7.825
   71POPC   GL2 1277  10.000   1.914   7.731
   71POPC   C1A 1278  10.043   2.257   7.351
   71POPC   D2A 1279  10.301   2.240   6.955
   71POPC   C3A 1280  10.218   2.021   6.552
   71POPC   C4A 1281  10.444   1.930   6.171
   71POPC   C1B 1282  10.270   1.793   7.357
   71POPC   C2B 1283  10.355   1.724   6.948
   71POPC   C3B 1284  10.496   1.588   6.566
   71POPC   C4B 1285  10.491   1.412   6.187
   72POPC   NC3 1286   7.307   1.367   8.549
   72POPC   PO4 1287   7.149   0.914   8.113
   72POPC   GL1 1288   7.152   0.996   7.663
   72POPC   GL2 1289   6.934   1.275   7.738
   72POPC   C1A 1290   6.947   0.983   7.261
   72POPC   D2A 1291   6.715   1.079   6.894
   72POPC   C3A 1292   6.925   1.093   6.522
   72POPC   C4A 1293   7.005   0.950   6.117
   72POPC   C1B 1294   7.178   1.449   7.425
   72POPC   C2B 1295   7.172   1.387   7.014
   72POPC   C3B 1296   7.231   1.470   6.599
   72POPC   C4B 1297   7.258   1.373   6.170
   73POPC   NC3 1298  10.477   3.946   7.915
   73POPC   PO4 1299   0.643   3.957   8.011
   73POPC   GL1 1300   0.549   4.029   7.621
   73POPC   GL2 1301   0.356   4.326   7.602
   73POPC   C1A 1302   0.374   3.922   7.234
   73POPC   D2A 1303   0.108   4.115   6.948
   73POPC   C3A 1304   0.010   4.005   6.542
   73POPC   C4A 1305   0.127   4.282   6.234
   73POPC   C1B 1306   0.671   4.363   7.262
   73POPC   C2B 1307   0.815   4.190   6.882
   73POPC   C3B 1308   0.611   4.163   6.496
   73POPC   C4B 1309   0.596   4.488   6.211
   74POPC   NC3 1310   1.692   6.432   8.149
   74POPC   PO4 1311   1.859   6.951   7.985
   74POPC   GL1 1312   1.643   6.713   7.667
   74POPC   GL2 1313   1.856   6.392   7.653
   74POPC   C1A 1314   1.665   6.595   7.205
   74POPC   D2A 1315   1.659   6.765   6.798
   74POPC   C3A 1316   2.024   6.904   6.611
   74POPC   C4A 1317   2.302   6.719   6.304
   74POPC   C1B 1318   2.000   6.203   7.241
   74POPC   C2B 1319   2.054   6.420   6.863
   74POPC   C3B 1320   1.945   6.336   6.471
   74POPC   C4B 1321   1.979   5.941   6.257
   75POPC   NC3 1322   9.988   0.277   7.914
   75POPC   PO4 1323  10.253   0.816   8.295
   75POPC   GL1 1324  10.144   0.815   7.804
   75POPC   GL2 1325  10.369   0.595   7.672
   75POPC   C1A 1326   9.989   0.603   7.342
   75POPC   D2A 1327  10.004   0.321   6.978
   75POPC   C3A 1328   9.775   0.488   6.627
   75POPC   C4A 1329   9.939   0.633   6.238
   75POPC   C1B 1330   0.002   0.563   7.255
   75POPC   C2B 1331   0.037   0.513   6.846
   75POPC   C3B 1332  10.396   0.631   6.469
   75POPC   C4B 1333  10.348   0.257   6.210
   76POPC   NC3 1334   6.467   7.963   8.251
   76POPC   PO4 1335   6.817   7.546   8.023
   76POPC   GL1 1336   6.535   7.838   7.761
   76POPC   GL2 1337   6.191   8.035   7.823
   76POPC   C1A 1338   6.489   8.154   7.440
   76POPC   D2A 1339   6.216   8.150   7.085
   76POPC   C3A 1340   6.347   8.080   6.685
   76POPC   C4A 1341   6.472   8.054   6.254
   76POPC   C1B 1342   6.163   7.754   7.415
   76POPC   C2B 1343   6.309   7.634   6.975
   76POPC   C3B 1344   6.282   7.619   6.501
   76POPC   C4B 1345   5.982   7.904   6.272
   77POPC   NC3 1346   1.888   8.947   8.105
   77POPC   PO4 1347   1.599   8.432   8.299
   77POPC   GL1 1348   1.843   8.530   7.813
   77POPC   GL2 1349   2.210   8.601   7.882
   77POPC   C1A 1350   1.664   8.579   7.306
   77POPC   D2A 1351   1.620   8.814   6.887
   77POPC   C3A 1352   1.715   8.650   6.458
   77POPC   C4A 1353   1.782   8.731   6.002
   77POPC   C1B 1354   2.133   8.742   7.424
   77POPC   C2B 1355   2.082   8.605   6.985
   77POPC   C3B 1356   2.234   8.673   6.586
   77POPC   C4B 1357   2.213   8.552   6.204
   78POPC   NC3 1358   1.951   9.939   8.264
   78POPC   PO4 1359   1.669   0.076   8.060
   78POPC   GL1 1360   1.699  10.206   7.769
   78POPC   GL2 1361   1.962  10.275   7.517
   78POPC   C1A 1362   1.602  10.008   7.336
   78POPC   D2A 1363   1.862  10.096   6.951
   78POPC   C3A 1364   1.688   9.959   6.555
   78POPC   C4A 1365   1.618   9.830   6.135
   78POPC   C1B 1366   2.132   0.027   7.211
   78POPC   C2B 1367   2.266   0.060   6.786
   78POPC   C3B 1368   2.119  10.322   6.442
   78POPC   C4B 1369   2.107   9.928   6.275
   79POPC   NC3 1370   0.508   7.160   8.366
   79POPC   PO4 1371   0.039   7.415   7.922
   79POPC   GL1 1372   0.278   7.111   7.678
   79POPC   GL2 1373   0.641   7.027   7.757
   79POPC   C1A 1374   0.370   7.213   7.260
   79POPC   D2A 1375   0.127   7.194   6.914
   79POPC   C3A 1376   0.338   7.199   6.514
   79POPC   C4A 1377   0.671   7.460   6.303
   79POPC   C1B 1378   0.625   6.770   7.342
   79POPC   C2B 1379   0.406   6.735   6.923
   79POPC   C3B 1380   0.285   6.673   6.490
   79POPC   C4B 1381   0.449   6.865   6.141
   80POPC   NC3 1382   1.886   0.871   7.980
   80POPC   PO4 1383   2.143   1.490   7.986
   80POPC   GL1 1384   2.009   1.229   7.629
   80POPC   GL2 1385   1.639   1.085   7.575
   80POPC   C1A 1386   2.169   1.333   7.249
   80POPC   D2A 1387   2.186   1.658   6.994
   80POPC   C3A 1388   2.356   1.508   6.636
   80POPC   C4A 1389   2.172   1.203   6.363
   80POPC   C1B 1390   1.834   0.955   7.177
   80POPC   C2B 1391   1.896   1.225   6.808
   80POPC   C3B 1392   1.678   1.107   6.424
   80POPC   C4B 1393   1.555   0.723   6.236
   81POPC   NC3 1394   2.865  10.155   7.922
   81POPC   PO4 1395   2.202  10.066   7.897
   81POPC   GL1 1396   2.475  10.209   7.552
   81POPC   GL2 1397   2.829  10.279   7.455
   81POPC   C1A 1398   2.482  10.181   7.090
   81POPC   D2A 1399   2.367   9.948   6.733
   81POPC   C3A 1400   2.608  10.011   6.378
   81POPC   C4A 1401   2.636  10.416   6.268
   81POPC   C1B 1402   3.002  10.204   7.084
   81POPC   C2B 1403   2.980  10.427   6.703
   81POPC   C3B 1404   3.106  10.199   6.360
   81POPC   C4B 1405   3.056   9.747   6.338
   82POPC   NC3 1406   7.886  10.163   8.234
   82POPC   PO4 1407   8.215   9.637   8.071
   82POPC   GL1 1408   8.128   9.990   7.776
   82POPC   GL2 1409   7.816  10.182   7.732
   82POPC   C1A 1410   8.150  10.131   7.330
   82POPC   D2A 1411   8.217   9.959   6.915
   82POPC   C3A 1412   8.205  10.233   6.573
   82POPC   C4A 1413   7.924  10.246   6.223
   82POPC   C1B 1414   7.649  10.287   7.309
   82POPC   C2B 1415   7.756  10.233   6.859
   82POPC   C3B 1416   7.506  10.345   6.492
   82POPC   C4B 1417   7.514  10.434   6.003
   83POPC   NC3 1418   1.412   7.078   8.049
   83POPC   PO4 1419   0.833   7.445   8.183
   83POPC   GL1 1420   1.078   7.416   7.765
   83POPC   GL2 1421   1.157   7.069   7.616
   83POPC   C1A 1422   1.290   7.516   7.357
   83POPC   D2A 1423   1.239   7.318   6.945
   83POPC   C3A 1424   1.093   7.452   6.580
   83POPC   C4A 1425   1.216   7.450   6.157
   83POPC   C1B 1426   0.878   7.219   7.310
   83POPC   C2B 1427   0.740   7.128   6.902
   83POPC   C3B 1428   0.753   6.875   6.558
   83POPC   C4B 1429   0.920   7.046   6.209
   84POPC   NC3 1430   6.903   9.984   8.211
   84POPC   PO4 1431   7.141   0.075   8.000
   84POPC   GL1 1432   7.198  10.395   7.614
   84POPC   GL2 1433   7.314  10.102   7.719
   84POPC   C1A 1434   7.168  10.166   7.222
   84POPC   D2A 1435   6.951   9.962   6.903
   84POPC   C3A 1436   6.846  10.235   6.589
   84POPC   C4A 1437   7.072  10.314   6.227
   84POPC   C1B 1438   7.581   9.819   7.439
   84POPC   C2B 1439   7.466   9.825   6.985
   84POPC   C3B 1440   7.288   9.789   6.557
   84POPC   C4B 1441   7.458   9.946   6.172
   85POPC   NC3 1442   4.389   0.524   8.272
   85POPC   PO4 1443   3.816   0.685   8.121
   85POPC   GL1 1444   3.936   0.400   7.767
   85POPC   GL2 1445   4.286   0.246   7.821
   85POPC   C1A 1446   3.896   0.257   7.319
   85POPC   D2A 1447   3.829   0.471   6.943
   85POPC   C3A 1448   3.922   0.278   6.566
   85POPC   C4A 1449   3.969   0.455   6.163
   85POPC   C1B 1450   4.436   0.224   7.390
   85POPC   C2B 1451   4.280   0.243   6.965
   85POPC   C3B 1452   4.452   0.236   6.558
   85POPC   C4B 1453   4.477   0.471   6.184
   86POPC   NC3 1454   1.608   2.368   8.394
   86POPC   PO4 1455   1.513   2.989   7.983
   86POPC   GL1 1456   1.648   2.815   7.589
   86POPC   GL2 1457   2.006   2.789   7.642
   86POPC   C1A 1458   1.619   2.542   7.226
   86POPC   D2A 1459   1.656   2.362   6.799
   86POPC   C3A 1460   1.501   2.524   6.474
   86POPC   C4A 1461   1.775   2.673   6.182
   86POPC   C1B 1462   2.143   2.510   7.350
   86POPC   C2B 1463   2.064   2.608   6.967
   86POPC   C3B 1464   2.116   2.584   6.557
   86POPC   C4B 1465   2.304   2.621   6.170
   87POPC   NC3 1466   8.438   5.082   8.057
   87POPC   PO4 1467   8.853   4.587   8.334
   87POPC   GL1 1468   9.055   4.847   7.909
   87POPC   GL2 1469   8.755   4.837   7.730
   87POPC   C1A 1470   9.105   5.007   7.410
   87POPC   D2A 1471   8.850   5.139   6.983
   87POPC   C3A 1472   8.860   4.988   6.570
   87POPC   C4A 1473   8.628   5.120   6.215
   87POPC   C1B 1474   8.641   4.812   7.299
   87POPC   C2B 1475   8.767   4.558   6.940
   87POPC   C3B 1476   8.629   4.489   6.524
   87POPC   C4B 1477   8.444   4.648   6.145
   88POPC   NC3 1478  10.181   9.849   8.159
   88POPC   PO4 1479   9.808  10.394   8.156
   88POPC   GL1 1480   9.971  10.292   7.725
   88POPC   GL2 1481  10.312  10.112   7.739
   88POPC   C1A 1482   9.809  10.448   7.302
   88POPC   D2A 1483   9.578  10.392   6.897
   88POPC   C3A 1484   9.842  10.327   6.542
   88POPC   C4A 1485  10.033  10.364   6.141
   88POPC   C1B 1486  10.299  10.306   7.329
   88POPC   C2B 1487  10.180  10.279   6.925
   88POPC   C3B 1488   0.005  10.192   6.628
   88POPC   C4B 1489  10.451  10.110   6.219
   89POPC   NC3 1490   0.707   1.936   8.377
   89POPC   PO4 1491   1.348   1.991   8.327
   89POPC   GL1 1492   1.409   2.103   7.902
   89POPC   GL2 1493   1.106   1.957   7.805
   89POPC   C1A 1494   1.464   1.994   7.458
   89POPC   D2A 1495   1.355   2.084   7.071
   89POPC   C3A 1496   1.278   1.937   6.663
   89POPC   C4A 1497   1.420   2.004   6.254
   89POPC   C1B 1498   0.970   1.952   7.370
   89POPC   C2B 1499   0.838   1.848   6.984
   89POPC   C3B 1500   0.767   1.970   6.620
   89POPC   C4B 1501   0.931   1.767   6.299
   90POPC   NC3 1502   8.655   5.088   8.540
   90POPC   PO4 1503   8.308   5.546   8.023
   90POPC   GL1 1504   8.180   5.256   7.640
   90POPC   GL2 1505   8.238   4.912   7.610
   90POPC   C1A 1506   8.328   5.187   7.177
   90POPC   D2A 1507   8.404   4.903   6.792
   90POPC   C3A 1508   8.167   5.015   6.404
   90POPC   C4A 1509   8.122   5.120   5.953
   90POPC   C1B 1510   8.149   4.691   7.193
   90POPC   C2B 1511   7.890   4.802   6.801
   90POPC   C3B 1512   7.666   4.868   6.370
   90POPC   C4B 1513   7.454   4.857   5.939
   91POPC   NC3 1514   5.587   2.170   7.965
   91POPC   PO4 1515   6.098   1.670   7.983
   91POPC   GL1 1516   5.746   1.818   7.661
   91POPC   GL2 1517   5.872   2.176   7.562
   91POPC   C1A 1518   5.557   2.017   7.228
   91POPC   D2A 1519   5.757   2.184   6.858
   91POPC   C3A 1520   5.535   2.215   6.454
   91POPC   C4A 1521   5.513   1.902   6.130
   91POPC   C1B 1522   6.050   1.876   7.275
   91POPC   C2B 1523   6.074   1.783   6.850
   91POPC   C3B 1524   5.927   1.892   6.457
   91POPC   C4B 1525   5.982   1.979   5.999
   92POPC   NC3 1526   1.706   8.034   8.060
   92POPC   PO4 1527   2.284   7.713   8.179
   92POPC   GL1 1528   2.126   7.748   7.694
   92POPC   GL2 1529   1.764   7.797   7.614
   92POPC   C1A 1530   2.075   7.732   7.195
   92POPC   D2A 1531   2.346   7.969   6.889
   92POPC   C3A 1532   2.330   8.008   6.409
   92POPC   C4A 1533   2.043   7.722   6.172
   92POPC   C1B 1534   1.966   8.174   7.418
   92POPC   C2B 1535   1.836   8.164   6.991
   92POPC   C3B 1536   1.867   7.954   6.610
   92POPC   C4B 1537   1.872   8.199   6.230
   93POPC   NC3 1538   9.566   3.660   8.213
   93POPC   PO4 1539   8.852   3.696   8.212
   93POPC   GL1 1540   9.078   3.519   7.817
   93POPC   GL2 1541   9.442   3.407   7.777
   93POPC   C1A 1542   9.226   3.666   7.388
   93POPC   D2A 1543   9.201   3.856   6.966
   93POPC   C3A 1544   9.155   3.695   6.583
   93POPC   C4A 1545   9.259   3.617   6.154
   93POPC   C1B 1546   9.287   3.164   7.408
   93POPC   C2B 1547   9.309   3.344   6.966
   93POPC   C3B 1548   9.540   3.363   6.570
   93POPC   C4B 1549   9.454   3.125   6.213
   94POPC   NC3 1550   0.533   4.432   8.079
   94POPC   PO4 1551   0.264   5.015   8.313
   94POPC   GL1 1552   0.281   4.829   7.808
   94POPC   GL2 1553   0.627   4.791   7.725
   94POPC   C1A 1554   0.343   4.739   7.302
   94POPC   D2A 1555   0.355   4.547   6.853
   94POPC   C3A 1556   0.235   4.755   6.452
   94POPC   C4A 1557   0.199   4.733   5.984
   94POPC   C1B 1558   0.499   5.184   7.478
   94POPC   C2B 1559   0.383   5.177   7.020
   94POPC   C3B 1560   0.327   5.275   6.583
   94POPC   C4B 1561   0.450   5.140   6.143
   95POPC   NC3 1562   1.230   8.641   8.086
   95POPC   PO4 1563   1.618   9.254   7.915
   95POPC   GL1 1564   1.423   8.888   7.674
   95POPC   GL2 1565   1.078   8.668   7.603
   95POPC   C1A 1566   1.288   8.965   7.258
   95POPC   D2A 1567   1.074   8.838   6.893
   95POPC   C3A 1568   1.274   9.017   6.549
   95POPC   C4A 1569   1.302   8.826   6.166
   95POPC   C1B 1570   1.084   8.418   7.211
   95POPC   C2B 1571   1.337   8.351   6.823
   95POPC   C3B 1572   1.270   8.354   6.361
   95POPC   C4B 1573   1.055   8.429   5.952
   96POPC   NC3 1574   6.782   0.736   7.909
   96POPC   PO4 1575   6.138   0.802   8.089
   96POPC   GL1 1576   6.352   0.969   7.741
   96POPC   GL2 1577   6.416   1.310   7.783
   96POPC   C1A 1578   6.423   0.935   7.305
   96POPC   D2A 1579   6.118   0.860   6.983
   96POPC   C3A 1580   6.303   0.920   6.593
   96POPC   C4A 1581   6.102   1.030   6.225
   96POPC   C1B 1582   6.179   1.382   7.387
   96POPC   C2B 1583   6.277   1.342   6.955
   96POPC   C3B 1584   6.281   1.432   6.518
   96POPC   C4B 1585   6.551   1.245   6.210
   97POPC   NC3 1586   3.289   1.752   8.231
   97POPC   PO4 1587   3.825   1.374   8.247
   97POPC   GL1 1588   3.673   1.561   7.832
   97POPC   GL2 1589   3.409   1.833   7.730
   97POPC   C1A 1590   3.624   1.517   7.373
   97POPC   D2A 1591   3.380   1.575   6.987
   97POPC   C3A 1592   3.495   1.676   6.542
   97POPC   C4A 1593   3.268   1.840   6.172
   97POPC   C1B 1594   3.503   2.023   7.319
   97POPC   C2B 1595   3.612   2.057   6.896
   97POPC   C3B 1596   3.512   2.192   6.489
   97POPC   C4B 1597   3.724   2.166   6.115
   98POPC   NC3 1598   6.354   0.489   8.373
   98POPC   PO4 1599   5.790   0.158   8.241
   98POPC   GL1 1600   6.082   0.075   7.824
   98POPC   GL2 1601   6.293   0.400   7.729
   98POPC   C1A 1602   6.187   0.049   7.343
   98POPC   D2A 1603   6.081   0.356   6.970
   98POPC   C3A 1604   6.250   0.402   6.526
   98POPC   C4A 1605   6.170   0.194   6.117
   98POPC   C1B 1606   6.536   0.418   7.321
   98POPC   C2B 1607   6.575   0.578   6.917
   98POPC   C3B 1608   6.739   0.623   6.522
   98POPC   C4B 1609   6.558   0.730   6.167
   99POPC   NC3 1610   1.282   2.606   7.909
   99POPC   PO4 1611   0.770   2.282   8.039
   99POPC   GL1 1612   0.875   2.403   7.625
   99POPC   GL2 1613   0.820   2.749   7.613
   99POPC   C1A 1614   0.781   2.433   7.170
   99POPC   D2A 1615   1.061   2.389   6.803
   99POPC   C3A 1616   1.021   2.338   6.361
   99POPC   C4A 1617   0.886   2.570   5.987
   99POPC   C1B 1618   1.163   2.793   7.309
   99POPC   C2B 1619   1.307   2.842   6.896
   99POPC   C3B 1620   1.066   2.830   6.520
   99POPC   C4B 1621   1.272   2.849   6.151
  100POPC   NC3 1622   1.958   4.009   8.114
  100POPC   PO4 1623   2.323   4.343   7.881
  100POPC   GL1 1624   1.919   4.394   7.658
  100POPC   GL2 1625   1.655   4.127   7.694
  100POPC   C1A 1626   1.687   4.412   7.260
  100POPC   D2A 1627   1.767   4.656   6.895
  100POPC   C3A 1628   1.747   4.422   6.517
  100POPC   C4A 1629   2.090   4.364   6.210
  100POPC   C1B 1630   1.922   3.973   7.358
  100POPC   C2B 1631   1.894   4.030   6.919
  100POPC   C3B 1632   2.049   3.947   6.516
  100POPC   C4B 1633   1.725   4.006   6.224
  101POPC   NC3 1634   8.137   2.666   8.131
  101POPC   PO4 1635   8.161   3.206   7.801
  101POPC   GL1 1636   7.963   2.811   7.654
  101POPC   GL2 1637   8.101   2.433   7.686
  101POPC   C1A 1638   7.835   2.973   7.250
  101POPC   D2A 1639   8.034   3.138   6.889
  101POPC   C3A 1640   7.858   3.051   6.479
  101POPC   C4A 1641   8.065   3.181   6.111
  101POPC   C1B 1642   8.002   2.502   7.249
  101POPC   C2B 1643   8.173   2.640   6.881
  101POPC   C3B 1644   8.046   2.585   6.502
  101POPC   C4B 1645   8.116   2.682   6.121
  102POPC   NC3 1646   1.271   0.332   8.018
  102POPC   PO4 1647   0.637   0.501   7.975
  102POPC   GL1 1648   0.802   0.233   7.668
  102POPC   GL2 1649   1.108   0.387   7.537
  102POPC   C1A 1650   0.837  10.480   7.299
  102POPC   D2A 1651   1.079   0.132   6.935
  102POPC   C3A 1652   0.916  10.449   6.546
  102POPC   C4A 1653   0.749   0.156   6.201
  102POPC   C1B 1654   1.408   0.654   7.300
  102POPC   C2B 1655   1.515   0.581   6.862
  102POPC   C3B 1656   1.324   0.366   6.505
  102POPC   C4B 1657   1.214   0.332   6.070
  103POPC   NC3 1658  10.374   4.924   8.097
  103POPC   PO4 1659   9.749   4.765   8.250
  103POPC   GL1 1660   9.958   4.722   7.847
  103POPC   GL2 1661  10.050   5.046   7.720
  103POPC   C1A 1662   9.958   4.679   7.392
  103POPC   D2A 1663   9.942   4.947   7.006
  103POPC   C3A 1664   9.845   4.738   6.598
  103POPC   C4A 1665   9.929   4.990   6.228
  103POPC   C1B 1666  10.397   4.939   7.429
  103POPC   C2B 1667  10.458   4.878   6.988
  103POPC   C3B 1668  10.301   4.976   6.605
  103POPC   C4B 1669  10.453   5.110   6.225
  104POPC   NC3 1670  10.186   7.065   7.965
  104POPC   PO4 1671   0.318   6.805   8.129
  104POPC   GL1 1672   0.003   6.681   7.747
  104POPC   GL2 1673  10.153   6.821   7.538
  104POPC   C1A 1674   0.083   6.802   7.306
  104POPC   D2A 1675  10.239   6.863   7.021
  104POPC   C3A 1676  10.348   6.899   6.621
  104POPC   C4A 1677  10.101   6.810   6.353
  104POPC   C1B 1678  10.263   7.257   7.337
  104POPC   C2B 1679  10.168   7.438   6.939
  104POPC   C3B 1680  10.345   7.428   6.535
  104POPC   C4B 1681  10.106   7.366   6.189
  105POPC   NC3 1682   8.109   5.978   7.994
  105POPC   PO4 1683   8.328   6.569   8.165
  105POPC   GL1 1684   8.245   6.598   7.707
  105POPC   GL2 1685   7.935   6.385   7.681
  105POPC   C1A 1686   8.162   6.577   7.238
  105POPC   D2A 1687   8.176   6.297   6.882
  105POPC   C3A 1688   8.138   6.446   6.477
  105POPC   C4A 1689   8.292   6.149   6.193
  105POPC   C1B 1690   7.664   6.558   7.334
  105POPC   C2B 1691   7.733   6.570   6.861
  105POPC   C3B 1692   7.662   6.272   6.508
  105POPC   C4B 1693   7.796   6.116   6.117
  106POPC   NC3 1694   1.777   1.831   8.148
  106POPC   PO4 1695   1.741   2.511   7.976
  106POPC   GL1 1696   1.839   2.246   7.635
  106POPC   GL2 1697   1.929   1.863   7.650
  106POPC   C1A 1698   1.885   2.094   7.177
  106POPC   D2A 1699   2.104   2.108   6.779
  106POPC   C3A 1700   1.902   2.155   6.373
  106POPC   C4A 1701   1.846   2.226   5.938
  106POPC   C1B 1702   1.742   1.603   7.293
  106POPC   C2B 1703   1.689   1.709   6.855
  106POPC   C3B 1704   1.884   1.639   6.471
  106POPC   C4B 1705   2.229   1.757   6.205
  107POPC   NC3 1706   9.594   6.192   8.136
  107POPC   PO4 1707   8.961   6.230   8.011
  107POPC   GL1 1708   9.277   6.261   7.709
  107POPC   GL2 1709   9.396   6.586   7.743
  107POPC   C1A 1710   9.303   6.310   7.259
  107POPC   D2A 1711   9.064   6.387   6.860
  107POPC   C3A 1712   9.192   6.368   6.445
  107POPC   C4A 1713   9.386   6.493   6.089
  107POPC   C1B 1714   9.630   6.686   7.361
  107POPC   C2B 1715   9.540   6.591   6.918
  107POPC   C3B 1716   9.494   6.794   6.533
  107POPC   C4B 1717   9.660   6.901   6.162
  108POPC   NC3 1718   2.194   2.601   8.099
  108POPC   PO4 1719   2.858   2.391   8.064
  108POPC   GL1 1720   2.883   2.581   7.640
  108POPC   GL2 1721   2.533   2.661   7.635
  108POPC   C1A 1722   2.791   2.424   7.236
  108POPC   D2A 1723   2.519   2.424   6.922
  108POPC   C3A 1724   2.616   2.681   6.634
  108POPC   C4A 1725   2.828   2.500   6.315
  108POPC   C1B 1726   2.473   2.856   7.202
  108POPC   C2B 1727   2.299   3.070   6.861
  108POPC   C3B 1728   2.315   3.057   6.414
  108POPC   C4B 1729   2.701   2.980   6.201
  109POPC   NC3 1730   6.607  10.390   7.916
  109POPC   PO4 1731   6.647   9.708   7.940
  109POPC   GL1 1732   6.534   9.885   7.583
  109POPC   GL2 1733   6.812  10.050   7.554
  109POPC   C1A 1734   6.312  10.030   7.228
  109POPC   D2A 1735   6.428  10.031   6.808
  109POPC   C3A 1736   6.249   9.807   6.432
  109POPC   C4A 1737   6.267   9.760   5.931
  109POPC   C1B 1738   6.696  10.394   7.255
  109POPC   C2B 1739   6.492   0.055   6.874
  109POPC   C3B 1740   6.306  10.388   6.496
  109POPC   C4B 1741   6.545  10.145   6.184
  110POPC   NC3 1742   2.113   5.548   7.940
  110POPC   PO4 1743   1.712   5.976   8.239
  110POPC   GL1 1744   1.633   5.780   7.798
  110POPC   GL2 1745   1.928   5.871   7.607
  110POPC   C1A 1746   1.585   5.655   7.326
  110POPC   D2A 1747   1.757   5.851   6.922
  110POPC   C3A 1748   1.583   5.703   6.527
  110POPC   C4A 1749   1.630   5.580   6.089
  110POPC   C1B 1750   2.083   5.608   7.253
  110POPC   C2B 1751   2.156   5.456   6.852
  110POPC   C3B 1752   1.994   5.437   6.452
  110POPC   C4B 1753   2.132   5.467   6.063
  111POPC   NC3 1754   0.782   3.470   7.970
  111POPC   PO4 1755   0.176   3.086   8.010
  111POPC   GL1 1756   0.459   3.168   7.701
  111POPC   GL2 1757   0.379   3.538   7.667
  111POPC   C1A 1758   0.718   3.283   7.345
  111POPC   D2A 1759   0.652   3.563   6.987
  111POPC   C3A 1760   0.730   3.344   6.616
  111POPC   C4A 1761   0.583   3.377   6.168
  111POPC   C1B 1762   0.221   3.420   7.273
  111POPC   C2B 1763   0.061   3.599   6.894
  111POPC   C3B 1764   0.288   3.581   6.534
  111POPC   C4B 1765   0.366   3.845   6.172
  112POPC   NC3 1766   6.440   2.666   8.043
  112POPC   PO4 1767   6.915   3.047   7.962
  112POPC   GL1 1768   6.666   2.892   7.609
  112POPC   GL2 1769   6.690   2.545   7.626
  112POPC   C1A 1770   6.386   3.023   7.245
  112POPC   D2A 1771   6.404   3.164   6.794
  112POPC   C3A 1772   6.716   3.021   6.465
  112POPC   C4A 1773   6.719   3.034   6.003
  112POPC   C1B 1774   6.525   2.532   7.223
  112POPC   C2B 1775   6.591   2.680   6.820
  112POPC   C3B 1776   6.264   2.739   6.513
  112POPC   C4B 1777   6.021   2.389   6.310
  113POPC   NC3 1778  10.080   8.950   8.048
  113POPC   PO4 1779  10.144   8.255   8.004
  113POPC   GL1 1780   9.986   8.459   7.628
  113POPC   GL2 1781   9.923   8.823   7.577
  113POPC   C1A 1782  10.077   8.312   7.213
  113POPC   D2A 1783   9.803   8.440   6.898
  113POPC   C3A 1784   9.911   8.364   6.523
  113POPC   C4A 1785   9.949   8.733   6.316
  113POPC   C1B 1786  10.200   8.808   7.216
  113POPC   C2B 1787  10.242   8.720   6.770
  113POPC   C3B 1788  10.408   8.937   6.414
  113POPC   C4B 1789   0.011   9.259   6.170
  114POPC   NC3 1790  10.171   3.093   8.043
  114POPC   PO4 1791  10.026   3.833   8.017
  114POPC   GL1 1792   9.981   3.524   7.721
  114POPC   GL2 1793  10.355   3.426   7.685
  114POPC   C1A 1794   9.718   3.427   7.329
  114POPC   D2A 1795   9.720   3.063   7.037
  114POPC   C3A 1796   9.906   3.007   6.622
  114POPC   C4A 1797   9.935   3.266   6.239
  114POPC   C1B 1798  10.211   3.448   7.253
  114POPC   C2B 1799  10.021   3.446   6.859
  114POPC   C3B 1800  10.097   3.676   6.485
  114POPC   C4B 1801  10.415   3.628   6.188
  115POPC   NC3 1802   7.310   0.479   8.189
  115POPC   PO4 1803   6.665   0.323   8.077
  115POPC   GL1 1804   6.897   0.324   7.654
  115POPC   GL2 1805   7.247   0.491   7.685
  115POPC   C1A 1806   7.086   0.245   7.263
  115POPC   D2A 1807   7.095   0.458   6.894
  115POPC   C3A 1808   7.029   0.211   6.549
  115POPC   C4A 1809   6.668   0.151   6.288
  115POPC   C1B 1810   7.379   0.695   7.288
  115POPC   C2B 1811   7.311   0.912   6.865
  115POPC   C3B 1812   7.268   0.696   6.469
  115POPC   C4B 1813   7.467   0.334   6.313
  116POPC   NC3 1814   9.230  10.190   8.201
  116POPC   PO4 1815   9.222   0.390   8.181
  116POPC   GL1 1816   9.409   0.038   7.853
  116POPC   GL2 1817   9.474  10.166   7.775
  116POPC   C1A 1818   9.286  10.427   7.392
  116POPC   D2A 1819   9.177  10.081   7.091
  116POPC   C3A 1820   9.145  10.215   6.643
  116POPC   C4A 1821   9.386  10.287   6.308
  116POPC   C1B 1822   9.639   9.983   7.408
  116POPC   C2B 1823   9.755   9.909   6.975
  116POPC   C3B 1824   9.569   9.879   6.559
  116POPC   C4B 1825   9.764   9.942   6.160
  117POPC   NC3 1826   7.498   1.198   7.961
  117POPC   PO4 1827   8.181   1.464   7.962
  117POPC   GL1 1828   8.057   1.264   7.557
  117POPC   GL2 1829   7.781   1.009   7.577
  117POPC   C1A 1830   8.277   0.975   7.272
  117POPC   D2A 1831   8.373   0.928   6.833
  117POPC   C3A 1832   8.080   1.156   6.584
  117POPC   C4A 1833   7.997   1.515   6.328
  117POPC   C1B 1834   7.571   1.166   7.257
  117POPC   C2B 1835   7.646   1.304   6.838
  117POPC   C3B 1836   7.584   1.116   6.449
  117POPC   C4B 1837   7.710   1.155   6.036
  118POPC   NC3 1838   9.402   9.220   8.004
  118POPC   PO4 1839   9.066   9.785   8.042
  118POPC   GL1 1840   9.326   9.656   7.681
  118POPC   GL2 1841   9.680   9.506   7.642
  118POPC   C1A 1842   9.360   9.589   7.238
  118POPC   D2A 1843   9.475   9.463   6.841
  118POPC   C3A 1844   9.129   9.470   6.519
  118POPC   C4A 1845   9.119   9.845   6.249
  118POPC   C1B 1846   9.715   9.191   7.282
  118POPC   C2B 1847   9.773   8.986   6.855
  118POPC   C3B 1848   9.594   9.137   6.468
  118POPC   C4B 1849   9.529   9.488   6.180
  119POPC   NC3 1850   0.395   5.456   8.137
  119POPC   PO4 1851   0.745   6.007   7.988
  119POPC   GL1 1852   0.655   5.706   7.693
  119POPC   GL2 1853   0.293   5.694   7.687
  119POPC   C1A 1854   0.610   5.769   7.265
  119POPC   D2A 1855   0.808   5.908   6.911
  119POPC   C3A 1856   0.598   5.771   6.553
  119POPC   C4A 1857   0.630   5.837   6.145
  119POPC   C1B 1858   0.148   5.540   7.296
  119POPC   C2B 1859   0.249   5.705   6.913
  119POPC   C3B 1860   0.051   5.739   6.553
  119POPC   C4B 1861   0.160   5.568   6.202
  120POPC   NC3 1862   4.258   1.515   8.299
  120POPC   PO4 1863   4.422   2.169   8.143
  120POPC   GL1 1864   4.344   1.945   7.733
  120POPC   GL2 1865   4.420   1.573   7.772
  120POPC   C1A 1866   4.036   2.041   7.378
  120POPC   D2A 1867   4.110   2.247   6.933
  120POPC   C3A 1868   4.068   2.090   6.504
  120POPC   C4A 1869   4.218   2.027   6.053
  120POPC   C1B 1870   4.148   1.543   7.396
  120POPC   C2B 1871   3.986   1.724   6.995
  120POPC   C3B 1872   4.016   1.599   6.580
  120POPC   C4B 1873   3.877   1.676   6.174
  121POPC   NC3 1874   2.154   9.539   7.986
  121POPC   PO4 1875   1.542   9.779   8.083
  121POPC   GL1 1876   1.791   9.692   7.666
  121POPC   GL2 1877   2.161   9.742   7.518
  121POPC   C1A 1878   1.827   9.548   7.205
  121POPC   D2A 1879   2.019   9.603   6.807
  121POPC   C3A 1880   1.898   9.480   6.405
  121POPC   C4A 1881   1.637   9.209   6.160
  121POPC   C1B 1882   2.180   9.271   7.416
  121POPC   C2B 1883   2.087   9.116   7.008
  121POPC   C3B 1884   2.284   9.174   6.605
  121POPC   C4B 1885   2.132   9.090   6.178
  122POPC   NC3 1886   8.681   1.589   8.011
  122POPC   PO4 1887   8.401   2.253   8.182
  122POPC   GL1 1888   8.508   2.038   7.789
  122POPC   GL2 1889   8.897   2.017   7.775
  122POPC   C1A 1890   8.404   1.763   7.398
  122POPC   D2A 1891   8.350   1.473   7.023
  122POPC   C3A 1892   8.362   1.743   6.658
  122POPC   C4A 1893   8.371   1.877   6.230
  122POPC   C1B 1894   8.766   2.125   7.348
  122POPC   C2B 1895   8.748   1.949   6.931
  122POPC   C3B 1896   8.771   2.080   6.481
  122POPC   C4B 1897   8.752   2.296   6.063
  123POPC   NC3 1898   8.627   9.849   7.946
  123POPC   PO4 1899   8.817  10.388   8.291
  123POPC   GL1 1900   8.914  10.378   7.814
  123POPC   GL2 1901   8.981  10.060   7.613
  123POPC   C1A 1902   8.760  10.467   7.371
  123POPC   D2A 1903   8.455  10.486   7.028
  123POPC   C3A 1904   8.647   0.039   6.641
  123POPC   C4A 1905   8.895   0.045   6.268
  123POPC   C1B 1906   8.670   9.971   7.265
  123POPC   C2B 1907   8.705  10.065   6.829
  123POPC   C3B 1908   8.674  10.096   6.370
  123POPC   C4B 1909   8.342  10.021   6.080
  124POPC   NC3 1910   1.909   3.205   7.937
  124POPC   PO4 1911   1.567   3.743   8.142
  124POPC   GL1 1912   1.795   3.630   7.718
  124POPC   GL2 1913   1.653   3.316   7.526
  124POPC   C1A 1914   2.066   3.491   7.332
  124POPC   D2A 1915   2.236   3.605   6.942
  124POPC   C3A 1916   2.032   3.428   6.605
  124POPC   C4A 1917   1.942   3.551   6.197
  124POPC   C1B 1918   1.848   3.047   7.177
  124POPC   C2B 1919   1.783   2.961   6.725
  124POPC   C3B 1920   1.655   3.147   6.342
  124POPC   C4B 1921   1.867   3.120   5.951
  125POPC   NC3 1922   4.867   2.033   8.023
  125POPC   PO4 1923   5.290   2.404   7.709
  125POPC   GL1 1924   5.206   1.990   7.608
  125POPC   GL2 1925   4.834   2.011   7.512
  125POPC   C1A 1926   5.198   1.683   7.318
  125POPC   D2A 1927   4.990   1.969   7.016
  125POPC   C3A 1928   5.115   1.937   6.602
  125POPC   C4A 1929   5.037   1.843   6.196
  125POPC   C1B 1930   4.501   1.999   7.188
  125POPC   C2B 1931   4.456   1.817   6.778
  125POPC   C3B 1932   4.581   1.962   6.387
  125POPC   C4B 1933   4.832   2.319   6.263
  126POPC   NC3 1934   2.777   9.247   8.218
  126POPC   PO4 1935   2.527   9.806   8.253
  126POPC   GL1 1936   2.614   9.732   7.804
  126POPC   GL2 1937   2.771   9.420   7.728
  126POPC   C1A 1938   2.653   9.764   7.349
  126POPC   D2A 1939   2.494   9.480   7.029
  126POPC   C3A 1940   2.663   9.532   6.625
  126POPC   C4A 1941   2.407   9.534   6.264
  126POPC   C1B 1942   3.009   9.403   7.340
  126POPC   C2B 1943   2.943   9.208   6.947
  126POPC   C3B 1944   3.088   9.244   6.544
  126POPC   C4B 1945   2.861   9.307   6.183
  127POPC   NC3 1946   7.367   2.048   8.073
  127POPC   PO4 1947   6.788   2.345   8.099
  127POPC   GL1 1948   7.046   2.191   7.717
  127POPC   GL2 1949   7.020   1.826   7.739
  127POPC   C1A 1950   7.419   2.104   7.398
  127POPC   D2A 1951   7.681   2.172   6.985
  127POPC   C3A 1952   7.513   2.283   6.585
  127POPC   C4A 1953   7.343   2.227   6.175
  127POPC   C1B 1954   6.968   1.890   7.286
  127POPC   C2B 1955   7.236   1.900   6.924
  127POPC   C3B 1956   7.092   1.932   6.501
  127POPC   C4B 1957   6.843   1.643   6.281
  128POPC   NC3 1958   3.485   0.184   8.012
  128POPC   PO4 1959   3.205   0.763   8.012
  128POPC   GL1 1960   3.160   0.472   7.628
  128POPC   GL2 1961   3.457   0.293   7.537
  128POPC   C1A 1962   3.112   0.186   7.214
  128POPC   D2A 1963   3.417   0.179   6.849
  128POPC   C3A 1964   3.247   0.302   6.429
  128POPC   C4A 1965   3.018   0.200   6.042
  128POPC   C1B 1966   3.430   0.603   7.226
  128POPC   C2B 1967   3.492   0.851   6.881
  128POPC   C3B 1968   3.616   0.691   6.513
  128POPC   C4B 1969   3.415   0.753   6.183
  129POPC   NC3 1970   8.059   0.994   8.005
  129POPC   PO4 1971   8.659   0.768   8.022
  129POPC   GL1 1972   8.616   1.100   7.713
  129POPC   GL2 1973   8.857   0.901   7.541
  129POPC   C1A 1974   8.739   1.389   7.357
  129POPC   D2A 1975   8.867   1.443   6.897
  129POPC   C3A 1976   8.567   1.316   6.551
  129POPC   C4A 1977   8.484   0.925   6.317
  129POPC   C1B 1978   8.816   0.952   7.106
  129POPC   C2B 1979   8.881   0.968   6.670
  129POPC   C3B 1980   8.972   1.139   6.258
  129POPC   C4B 1981   9.185   0.977   5.909
  130POPC   NC3 1982   8.271   7.975   8.219
  130POPC   PO4 1983   7.688   7.739   7.953
  130POPC   GL1 1984   7.794   8.078   7.684
  130POPC   GL2 1985   8.150   7.954   7.698
  130POPC   C1A 1986   7.609   8.299   7.317
  130POPC   D2A 1987   7.621   8.076   6.890
  130POPC   C3A 1988   7.446   8.089   6.459
  130POPC   C4A 1989   7.426   8.481   6.248
  130POPC   C1B 1990   8.152   7.878   7.241
  130POPC   C2B 1991   7.945   7.680   6.876
  130POPC   C3B 1992   7.848   7.689   6.441
  130POPC   C4B 1993   8.168   7.878   6.260
  131POPC   NC3 1994   7.242   7.723   7.999
  131POPC   PO4 1995   7.266   8.405   8.123
  131POPC   GL1 1996   7.277   8.170   7.726
  131POPC   GL2 1997   6.897   8.203   7.803
  131POPC   C1A 1998   7.408   7.849   7.334
  131POPC   D2A 1999   7.209   7.774   6.907
  131POPC   C3A 2000   7.342   7.584   6.501
  131POPC   C4A 2001   7.448   7.679   6.068
  131POPC   C1B 2002   6.931   7.945   7.422
  131POPC   C2B 2003   6.731   7.933   7.026
  131POPC   C3B 2004   6.841   7.962   6.599
  131POPC   C4B 2005   6.981   7.824   6.210
  132POPC   NC3 2006   0.220   0.652   8.036
  132POPC   PO4 2007  10.439   0.107   7.886
  132POPC   GL1 2008   0.293   0.295   7.614
  132POPC   GL2 2009   0.396   0.647   7.568
  132POPC   C1A 2010   0.496   0.359   7.180
  132POPC   D2A 2011   0.479   0.760   6.941
  132POPC   C3A 2012   0.406   0.653   6.527
  132POPC   C4A 2013   0.355   0.490   6.165
  132POPC   C1B 2014   0.780   0.748   7.365
  132POPC   C2B 2015   0.994   0.658   6.996
  132POPC   C3B 2016   0.857   0.485   6.625
  132POPC   C4B 2017   0.845   0.677   6.233
  133POPC   NC3 2018   4.193   8.045   8.110
  133POPC   PO4 2019   3.786   7.619   8.085
  133POPC   GL1 2020   3.889   7.864   7.700
  133POPC   GL2 2021   4.252   7.861   7.649
  133POPC   C1A 2022   3.927   7.920   7.222
  133POPC   D2A 2023   3.892   8.127   6.781
  133POPC   C3A 2024   3.983   7.896   6.361
  133POPC   C4A 2025   3.682   7.661   6.063
  133POPC   C1B 2026   4.414   8.104   7.311
  133POPC   C2B 2027   4.359   7.947   6.916
  133POPC   C3B 2028   4.503   7.961   6.527
  133POPC   C4B 2029   4.476   8.035   6.130
  134POPC   NC3 2030   8.529   8.639   8.059
  134POPC   PO4 2031   9.157   8.101   8.028
  134POPC   GL1 2032   9.036   8.284   7.633
  134POPC   GL2 2033   8.779   8.550   7.627
  134POPC   C1A 2034   9.105   8.421   7.275
  134POPC   D2A 2035   8.866   8.701   7.090
  134POPC   C3A 2036   8.758   8.583   6.677
  134POPC   C4A 2037   9.028   8.433   6.356
  134POPC   C1B 2038   8.450   8.727   7.404
  134POPC   C2B 2039   8.362   8.748   6.979
  134POPC   C3B 2040   8.258   8.722   6.549
  134POPC   C4B 2041   8.555   8.689   6.203
  135POPC   NC3 2042   0.453  10.479   8.013
  135POPC   PO4 2043   0.151   9.857   8.193
  135POPC   GL1 2044   0.333  10.020   7.746
  135POPC   GL2 2045   0.698  10.132   7.696
  135POPC   C1A 2046   0.320  10.353   7.376
  135POPC   D2A 2047   0.136   0.038   6.997
  135POPC   C3A 2048   0.368   0.114   6.590
  135POPC   C4A 2049   0.276  10.481   6.156
  135POPC   C1B 2050   0.582   9.951   7.267
  135POPC   C2B 2051   0.531  10.198   6.890
  135POPC   C3B 2052   0.492  10.088   6.459
  135POPC   C4B 2053   0.670  10.155   6.069
  136POPC   NC3 2054   9.830   1.056   8.179
  136POPC   PO4 2055   9.963   1.604   8.288
  136POPC   GL1 2056   9.927   1.430   7.844
  136POPC   GL2 2057  10.248   1.360   7.676
  136POPC   C1A 2058   9.833   1.532   7.389
  136POPC   D2A 2059  10.000   1.354   6.993
  136POPC   C3A 2060   9.833   1.534   6.618
  136POPC   C4A 2061  10.020   1.634   6.254
  136POPC   C1B 2062  10.220   1.049   7.349
  136POPC   C2B 2063  10.190   0.875   6.921
  136POPC   C3B 2064  10.226   1.136   6.553
  136POPC   C4B 2065  10.110   1.094   6.146
  137POPC   NC3 2066   0.639   6.448   7.979
  137POPC   PO4 2067   0.142   5.972   8.173
  137POPC   GL1 2068   0.183   6.186   7.751
  137POPC   GL2 2069   0.519   6.197   7.573
  137POPC   C1A 2070   0.164   6.060   7.283
  137POPC   D2A 2071   0.415   6.203   6.954
  137POPC   C3A 2072   0.298   6.173   6.550
  137POPC   C4A 2073   0.155   6.076   6.153
  137POPC   C1B 2074   0.807   6.285   7.261
  137POPC   C2B 2075   0.854   6.466   6.868
  137POPC   C3B 2076   0.797   6.279   6.498
  137POPC   C4B 2077   0.568   6.364   6.146
  138POPC   NC3 2078   9.139   0.802   7.974
  138POPC   PO4 2079   9.146   1.516   8.108
  138POPC   GL1 2080   9.120   1.310   7.724
  138POPC   GL2 2081   9.460   1.171   7.733
  138POPC   C1A 2082   9.221   1.264   7.282
  138POPC   D2A 2083   9.497   1.323   6.970
  138POPC   C3A 2084   9.323   1.335   6.577
  138POPC   C4A 2085   9.419   1.530   6.186
  138POPC   C1B 2086   9.706   1.045   7.370
  138POPC   C2B 2087   9.691   0.845   6.988
  138POPC   C3B 2088   9.749   1.014   6.592
  138POPC   C4B 2089   9.618   1.082   6.177
  139POPC   NC3 2090   2.224   0.036   7.949
  139POPC   PO4 2091   2.374   0.778   7.967
  139POPC   GL1 2092   2.135   0.492   7.713
  139POPC   GL2 2093   1.754   0.461   7.728
  139POPC   C1A 2094   2.184   0.585   7.303
  139POPC   D2A 2095   2.013   0.486   6.963
  139POPC   C3A 2096   1.967   0.741   6.636
  139POPC   C4A 2097   2.069   0.563   6.270
  139POPC   C1B 2098   1.733   0.275   7.366
  139POPC   C2B 2099   1.676   0.097   6.971
  139POPC   C3B 2100   1.814   0.225   6.566
  139POPC   C4B 2101   1.710   0.232   6.143
  140POPC   NC3 2102   5.315   9.545   8.187
  140POPC   PO4 2103   4.845   9.049   8.049
  140POPC   GL1 2104   4.821   9.235   7.687
  140POPC   GL2 2105   5.044   9.468   7.671
  140POPC   C1A 2106   4.915   9.081   7.288
  140POPC   D2A 2107   4.708   9.174   6.938
  140POPC   C3A 2108   4.866   9.203   6.554
  140POPC   C4A 2109   4.760   8.918   6.277
  140POPC   C1B 2110   4.834   9.586   7.268
  140POPC   C2B 2111   4.738   9.689   6.819
  140POPC   C3B 2112   4.781   9.680   6.405
  140POPC   C4B 2113   4.947   9.493   6.037
  141POPC   NC3 2114   9.550   1.825   8.200
  141POPC   PO4 2115   9.193   2.367   8.112
  141POPC   GL1 2116   9.421   2.079   7.776
  141POPC   GL2 2117   9.466   1.706   7.719
  141POPC   C1A 2118   9.584   2.029   7.332
  141POPC   D2A 2119   9.860   1.922   6.978
  141POPC   C3A 2120   9.714   2.132   6.594
  141POPC   C4A 2121   9.644   2.037   6.176
  141POPC   C1B 2122   9.147   1.763   7.386
  141POPC   C2B 2123   9.261   1.781   6.940
  141POPC   C3B 2124   9.252   1.900   6.504
  141POPC   C4B 2125   9.093   1.903   6.059
  142POPC   NC3 2126  10.210   1.988   8.315
  142POPC   PO4 2127  10.224   2.630   8.019
  142POPC   GL1 2128  10.101   2.705   7.613
  142POPC   GL2 2129  10.017   3.043   7.546
  142POPC   C1A 2130  10.082   2.719   7.152
  142POPC   D2A 2131   9.787   2.560   6.889
  142POPC   C3A 2132  10.084   2.512   6.579
  142POPC   C4A 2133  10.059   2.363   6.177
  142POPC   C1B 2134  10.436   3.004   7.365
  142POPC   C2B 2135  10.448   3.107   6.935
  142POPC   C3B 2136  10.367   3.235   6.530
  142POPC   C4B 2137  10.279   2.880   6.288
  143POPC   NC3 2138   4.517   9.477   8.073
  143POPC   PO4 2139   3.931   9.143   8.020
  143POPC   GL1 2140   4.262   9.175   7.734
  143POPC   GL2 2141   4.142   9.526   7.690
  143POPC   C1A 2142   4.430   9.288   7.352
  143POPC   D2A 2143   4.320   9.512   7.001
  143POPC   C3A 2144   4.382   9.338   6.585
  143POPC   C4A 2145   4.429   9.439   6.153
  143POPC   C1B 2146   3.918   9.401   7.295
  143POPC   C2B 2147   3.883   9.375   6.823
  143POPC   C3B 2148   3.916   9.381   6.406
  143POPC   C4B 2149   3.996   9.686   6.198
  144POPC   NC3 2150   4.925   8.564   8.093
  144POPC   PO4 2151   5.495   8.687   7.969
  144POPC   GL1 2152   5.132   8.733   7.640
  144POPC   GL2 2153   4.750   8.730   7.652
  144POPC   C1A 2154   5.237   8.704   7.212
  144POPC   D2A 2155   5.353   8.974   6.912
  144POPC   C3A 2156   5.202   8.827   6.558
  144POPC   C4A 2157   5.155   8.534   6.254
  144POPC   C1B 2158   4.779   8.497   7.268
  144POPC   C2B 2159   4.775   8.672   6.840
  144POPC   C3B 2160   4.684   8.449   6.457
  144POPC   C4B 2161   4.532   8.530   6.045
  145POPC   NC3 2162   8.685   4.132   8.249
  145POPC   PO4 2163   8.380   4.633   8.014
  145POPC   GL1 2164   8.439   4.437   7.609
  145POPC   GL2 2165   8.766   4.363   7.438
  145POPC   C1A 2166   8.295   4.183   7.262
  145POPC   D2A 2167   8.327   4.268   6.851
  145POPC   C3A 2168   8.276   4.012   6.461
  145POPC   C4A 2169   8.070   4.137   6.061
  145POPC   C1B 2170   8.777   4.058   7.139
  145POPC   C2B 2171   8.698   3.915   6.751
  145POPC   C3B 2172   8.759   3.880   6.328
  145POPC   C4B 2173   8.734   4.229   6.095
  146POPC   NC3 2174   7.138   2.681   8.089
  146POPC   PO4 2175   7.720   2.346   8.058
  146POPC   GL1 2176   7.499   2.517   7.682
  146POPC   GL2 2177   7.172   2.704   7.588
  146POPC   C1A 2178   7.493   2.584   7.224
  146POPC   D2A 2179   7.669   2.708   6.848
  146POPC   C3A 2180   7.400   2.800   6.527
  146POPC   C4A 2181   7.607   2.653   6.212
  146POPC   C1B 2182   7.016   2.406   7.261
  146POPC   C2B 2183   6.861   2.244   6.883
  146POPC   C3B 2184   7.013   2.427   6.550
  146POPC   C4B 2185   7.004   2.655   6.228
  147POPC   NC3 2186   4.878  10.389   7.875
  147POPC   PO4 2187   4.897   9.771   8.178
  147POPC   GL1 2188   5.162   9.928   7.835
  147POPC   GL2 2189   4.906   9.988   7.572
  147POPC   C1A 2190   5.311   9.804   7.379
  147POPC   D2A 2191   5.092   9.961   7.024
  147POPC   C3A 2192   5.223   9.857   6.583
  147POPC   C4A 2193   5.037  10.055   6.207
  147POPC   C1B 2194   4.692  10.259   7.278
  147POPC   C2B 2195   4.656  10.406   6.911
  147POPC   C3B 2196   4.689  10.204   6.560
  147POPC   C4B 2197   4.684  10.426   6.191
  148POPC   NC3 2198   8.642   0.317   8.195
  148POPC   PO4 2199   7.980   0.092   8.071
  148POPC   GL1 2200   8.355   0.362   7.781
  148POPC   GL2 2201   8.735   0.375   7.697
  148POPC   C1A 2202   8.374   0.445   7.308
  148POPC   D2A 2203   8.173   0.470   6.869
  148POPC   C3A 2204   8.355   0.448   6.469
  148POPC   C4A 2205   8.360   0.081   6.209
  148POPC   C1B 2206   8.881   0.453   7.271
  148POPC   C2B 2207   8.693   0.495   6.895
  148POPC   C3B 2208   8.865   0.484   6.535
  148POPC   C4B 2209   8.934   0.628   6.183
  149POPC   NC3 2210   4.235   8.778   8.068
  149POPC   PO4 2211   4.600   8.244   8.076
  149POPC   GL1 2212   4.320   8.447   7.679
  149POPC   GL2 2213   4.011   8.705   7.613
  149POPC   C1A 2214   4.381   8.785   7.303
  149POPC   D2A 2215   4.199   8.987   6.951
  149POPC   C3A 2216   4.311   8.842   6.532
  149POPC   C4A 2217   4.268   8.967   6.105
  149POPC   C1B 2218   4.021   8.431   7.237
  149POPC   C2B 2219   4.294   8.446   6.861
  149POPC   C3B 2220   4.180   8.367   6.409
  149POPC   C4B 2221   4.031   8.545   6.009
  150POPC   NC3 2222   9.793  10.352   4.122
  150POPC   PO4 2223   9.182  10.286   3.706
  150POPC   GL1 2224   9.232   9.925   4.157
  150POPC   GL2 2225   9.520   9.994   4.373
  150POPC   C1A 2226   9.086  10.077   4.678
  150POPC   D2A 2227   9.020  10.369   5.075
  150POPC   C3A 2228   9.196  10.235   5.478
  150POPC   C4A 2229   9.108  10.243   5.900
  150POPC   C1B 2230   9.655  10.191   4.772
  150POPC   C2B 2231   9.825  10.069   5.179
  150POPC   C3B 2232   9.855  10.359   5.544
  150POPC   C4B 2233   9.606  10.341   5.862
  151POPC   NC3 2234   6.357   9.860   3.911
  151POPC   PO4 2235   6.848  10.085   3.677
  151POPC   GL1 2236   6.784  10.000   4.146
  151POPC   GL2 2237   6.565  10.294   4.229
  151POPC   C1A 2238   6.506   9.899   4.558
  151POPC   D2A 2239   6.288   9.992   4.955
  151POPC   C3A 2240   6.558   9.925   5.292
  151POPC   C4A 2241   6.668   9.965   5.714
  151POPC   C1B 2242   6.253  10.359   4.570
  151POPC   C2B 2243   6.235   0.022   4.982
  151POPC   C3B 2244   6.333  10.375   5.353
  151POPC   C4B 2245   6.316  10.326   5.776
  152POPC   NC3 2246   0.750   9.586   4.121
  152POPC   PO4 2247   1.259   9.300   3.760
  152POPC   GL1 2248   1.222   9.393   4.228
  152POPC   GL2 2249   1.496   9.626   4.216
  152POPC   C1A 2250   1.009   9.245   4.654
  152POPC   D2A 2251   1.031   9.017   5.073
  152POPC   C3A 2252   0.816   9.159   5.451
  152POPC   C4A 2253   1.000   9.392   5.788
  152POPC   C1B 2254   1.456   9.688   4.641
  152POPC   C2B 2255   1.391   9.387   4.955
  152POPC   C3B 2256   1.291   9.375   5.365
  152POPC   C4B 2257   1.508   9.518   5.745
  153POPC   NC3 2258   1.293  10.343   3.894
  153POPC   PO4 2259   0.709  10.009   3.899
  153POPC   GL1 2260   0.922  10.206   4.243
  153POPC   GL2 2261   1.102   9.930   4.307
  153POPC   C1A 2262   1.184  10.283   4.635
  153POPC   D2A 2263   0.916  10.269   4.966
  153POPC   C3A 2264   0.923  10.303   5.414
  153POPC   C4A 2265   1.027  10.429   5.821
  153POPC   C1B 2266   0.958   9.804   4.703
  153POPC   C2B 2267   1.147   9.824   5.080
  153POPC   C3B 2268   1.149   9.843   5.499
  153POPC   C4B 2269   1.499  10.053   5.662
  154POPC   NC3 2270   1.105   1.430   4.086
  154POPC   PO4 2271   1.574   0.919   3.860
  154POPC   GL1 2272   1.471   1.113   4.271
  154POPC   GL2 2273   1.186   1.006   4.465
  154POPC   C1A 2274   1.508   1.358   4.706
  154POPC   D2A 2275   1.320   1.424   5.126
  154POPC   C3A 2276   1.556   1.472   5.527
  154POPC   C4A 2277   1.558   1.248   5.924
  154POPC   C1B 2278   0.967   1.339   4.701
  154POPC   C2B 2279   0.804   1.478   5.057
  154POPC   C3B 2280   0.818   1.219   5.395
  154POPC   C4B 2281   1.065   1.245   5.728
  155POPC   NC3 2282   8.825   7.794   3.895
  155POPC   PO4 2283   8.275   8.281   3.834
  155POPC   GL1 2284   8.269   8.166   4.279
  155POPC   GL2 2285   8.584   7.955   4.312
  155POPC   C1A 2286   8.283   8.056   4.707
  155POPC   D2A 2287   8.567   8.121   5.015
  155POPC   C3A 2288   8.536   8.015   5.442
  155POPC   C4A 2289   8.262   8.001   5.790
  155POPC   C1B 2290   8.841   7.853   4.659
  155POPC   C2B 2291   8.848   7.702   5.088
  155POPC   C3B 2292   9.036   7.855   5.480
  155POPC   C4B 2293   8.832   7.841   5.894
  156POPC   NC3 2294   2.805   1.031   4.009
  156POPC   PO4 2295   3.149   1.527   3.689
  156POPC   GL1 2296   3.037   1.418   4.180
  156POPC   GL2 2297   2.657   1.443   4.254
  156POPC   C1A 2298   2.975   1.435   4.662
  156POPC   D2A 2299   3.013   1.078   4.968
  156POPC   C3A 2300   3.067   1.174   5.410
  156POPC   C4A 2301   2.876   1.056   5.820
  156POPC   C1B 2302   2.531   1.187   4.635
  156POPC   C2B 2303   2.576   1.377   5.063
  156POPC   C3B 2304   2.577   1.306   5.494
  156POPC   C4B 2305   2.315   0.988   5.621
  157POPC   NC3 2306   0.584   3.398   3.975
  157POPC   PO4 2307  10.441   3.450   3.868
  157POPC   GL1 2308   0.135   3.571   4.262
  157POPC   GL2 2309   0.325   3.280   4.395
  157POPC   C1A 2310   0.044   3.603   4.713
  157POPC   D2A 2311   0.270   3.447   5.056
  157POPC   C3A 2312   0.144   3.448   5.469
  157POPC   C4A 2313   0.338   3.171   5.758
  157POPC   C1B 2314   0.641   3.430   4.679
  157POPC   C2B 2315   0.826   3.434   5.061
  157POPC   C3B 2316   0.729   3.361   5.469
  157POPC   C4B 2317   0.534   3.660   5.738
  158POPC   NC3 2318   8.778   5.377   3.831
  158POPC   PO4 2319   8.895   6.044   3.948
  158POPC   GL1 2320   8.830   5.762   4.327
  158POPC   GL2 2321   8.498   5.744   4.277
  158POPC   C1A 2322   8.938   5.524   4.744
  158POPC   D2A 2323   8.731   5.501   5.134
  158POPC   C3A 2324   8.851   5.525   5.536
  158POPC   C4A 2325   8.520   5.385   5.800
  158POPC   C1B 2326   8.463   5.695   4.716
  158POPC   C2B 2327   8.244   5.676   5.092
  158POPC   C3B 2328   8.423   5.831   5.437
  158POPC   C4B 2329   8.516   5.887   5.841
  159POPC   NC3 2330   7.911   4.879   3.855
  159POPC   PO4 2331   8.441   4.706   3.911
  159POPC   GL1 2332   8.236   4.798   4.302
  159POPC   GL2 2333   7.870   4.739   4.355
  159POPC   C1A 2334   8.196   4.877   4.769
  159POPC   D2A 2335   8.079   4.682   5.186
  159POPC   C3A 2336   7.830   4.807   5.573
  159POPC   C4A 2337   7.934   4.649   5.996
  159POPC   C1B 2338   7.718   5.019   4.729
  159POPC   C2B 2339   7.821   5.167   5.186
  159POPC   C3B 2340   7.601   5.255   5.609
  159POPC   C4B 2341   7.663   5.313   6.063
  160POPC   NC3 2342   2.014  10.281   3.833
  160POPC   PO4 2343   1.543   0.250   3.898
  160POPC   GL1 2344   1.767  10.498   4.239
  160POPC   GL2 2345   1.578  10.182   4.300
  160POPC   C1A 2346   2.082  10.500   4.656
  160POPC   D2A 2347   2.199  10.400   5.129
  160POPC   C3A 2348   2.022   0.081   5.547
  160POPC   C4A 2349   2.177   0.094   6.011
  160POPC   C1B 2350   1.682  10.161   4.753
  160POPC   C2B 2351   1.819  10.026   5.167
  160POPC   C3B 2352   2.008  10.067   5.584
  160POPC   C4B 2353   1.841  10.247   5.978
  161POPC   NC3 2354   1.864   4.500   4.047
  161POPC   PO4 2355   1.808   3.900   3.748
  161POPC   GL1 2356   2.027   4.023   4.184
  161POPC   GL2 2357   1.790   4.088   4.433
  161POPC   C1A 2358   2.199   3.999   4.684
  161POPC   D2A 2359   1.941   4.089   5.072
  161POPC   C3A 2360   2.162   4.001   5.487
  161POPC   C4A 2361   2.208   3.949   5.955
  161POPC   C1B 2362   1.775   4.468   4.696
  161POPC   C2B 2363   1.779   4.671   5.088
  161POPC   C3B 2364   1.776   4.427   5.432
  161POPC   C4B 2365   1.778   4.180   5.774
  162POPC   NC3 2366   7.075   0.588   4.025
  162POPC   PO4 2367   7.704   0.470   3.863
  162POPC   GL1 2368   7.579   0.597   4.254
  162POPC   GL2 2369   7.383   0.289   4.294
  162POPC   C1A 2370   7.549   0.524   4.711
  162POPC   D2A 2371   7.468   0.408   5.152
  162POPC   C3A 2372   7.388   0.715   5.485
  162POPC   C4A 2373   7.433   0.714   5.966
  162POPC   C1B 2374   7.093   0.309   4.679
  162POPC   C2B 2375   6.991   0.224   5.110
  162POPC   C3B 2376   7.097   0.288   5.582
  162POPC   C4B 2377   7.028   0.405   6.043
  163POPC   NC3 2378   7.943   0.097   3.956
  163POPC   PO4 2379   8.629   0.092   3.823
  163POPC   GL1 2380   8.360   0.254   4.204
  163POPC   GL2 2381   8.123   0.572   4.177
  163POPC   C1A 2382   8.054   0.192   4.576
  163POPC   D2A 2383   7.798  10.452   4.898
  163POPC   C3A 2384   7.849   0.085   5.340
  163POPC   C4A 2385   7.610   0.297   5.662
  163POPC   C1B 2386   8.020   0.699   4.615
  163POPC   C2B 2387   7.973   0.473   5.000
  163POPC   C3B 2388   7.882   0.642   5.365
  163POPC   C4B 2389   7.887   0.727   5.762
  164POPC   NC3 2390   8.812  10.226   4.075
  164POPC   PO4 2391   8.736   9.600   3.915
  164POPC   GL1 2392   8.838   9.736   4.364
  164POPC   GL2 2393   8.618   9.994   4.473
  164POPC   C1A 2394   8.779   9.649   4.805
  164POPC   D2A 2395   8.860   9.909   5.114
  164POPC   C3A 2396   8.974   9.790   5.505
  164POPC   C4A 2397   8.774   9.887   5.861
  164POPC   C1B 2398   8.660  10.391   4.709
  164POPC   C2B 2399   8.514  10.479   5.117
  164POPC   C3B 2400   8.638  10.227   5.461
  164POPC   C4B 2401   8.629  10.366   5.854
  165POPC   NC3 2402   1.955   2.789   3.917
  165POPC   PO4 2403   1.364   2.572   3.983
  165POPC   GL1 2404   1.559   2.828   4.309
  165POPC   GL2 2405   1.887   2.702   4.394
  165POPC   C1A 2406   1.606   2.786   4.781
  165POPC   D2A 2407   1.845   2.712   5.148
  165POPC   C3A 2408   1.567   2.869   5.385
  165POPC   C4A 2409   1.531   2.796   5.733
  165POPC   C1B 2410   2.147   2.613   4.753
  165POPC   C2B 2411   2.352   2.373   5.058
  165POPC   C3B 2412   2.177   2.364   5.460
  165POPC   C4B 2413   2.011   2.659   5.732
  166POPC   NC3 2414   6.604   8.356   3.715
  166POPC   PO4 2415   6.129   8.846   3.863
  166POPC   GL1 2416   6.154   8.764   4.368
  166POPC   GL2 2417   6.522   8.785   4.529
  166POPC   C1A 2418   6.257   8.435   4.733
  166POPC   D2A 2419   6.502   8.557   5.110
  166POPC   C3A 2420   6.325   8.532   5.543
  166POPC   C4A 2421   6.185   8.180   5.813
  166POPC   C1B 2422   6.231   8.942   4.848
  166POPC   C2B 2423   6.211   9.020   5.276
  166POPC   C3B 2424   6.561   8.981   5.524
  166POPC   C4B 2425   6.615   8.995   5.959
  167POPC   NC3 2426  10.203   7.254   3.968
  167POPC   PO4 2427   9.848   6.708   3.860
  167POPC   GL1 2428   9.834   7.008   4.260
  167POPC   GL2 2429  10.154   7.158   4.441
  167POPC   C1A 2430   9.796   6.995   4.734
  167POPC   D2A 2431   9.946   6.869   5.136
  167POPC   C3A 2432  10.013   7.094   5.490
  167POPC   C4A 2433  10.069   6.982   5.880
  167POPC   C1B 2434  10.222   7.402   4.828
  167POPC   C2B 2435  10.413   7.212   5.213
  167POPC   C3B 2436   0.021   6.961   5.647
  167POPC   C4B 2437  10.499   7.074   6.137
  168POPC   NC3 2438   8.305   1.616   4.217
  168POPC   PO4 2439   8.193   0.993   3.830
  168POPC   GL1 2440   8.234   1.078   4.251
  168POPC   GL2 2441   7.870   1.045   4.307
  168POPC   C1A 2442   8.398   1.088   4.675
  168POPC   D2A 2443   8.181   0.935   5.053
  168POPC   C3A 2444   8.300   0.942   5.489
  168POPC   C4A 2445   8.200   1.112   5.906
  168POPC   C1B 2446   7.916   1.233   4.695
  168POPC   C2B 2447   7.887   1.334   5.132
  168POPC   C3B 2448   7.802   1.170   5.527
  168POPC   C4B 2449   7.599   1.537   5.721
  169POPC   NC3 2450   4.891   8.425   4.056
  169POPC   PO4 2451   4.779   9.109   3.920
  169POPC   GL1 2452   4.873   8.923   4.296
  169POPC   GL2 2453   4.598   8.729   4.347
  169POPC   C1A 2454   4.806   9.015   4.734
  169POPC   D2A 2455   4.621   8.947   5.110
  169POPC   C3A 2456   4.794   8.837   5.459
  169POPC   C4A 2457   4.943   8.706   5.835
  169POPC   C1B 2458   4.788   8.482   4.692
  169POPC   C2B 2459   4.926   8.520   5.103
  169POPC   C3B 2460   4.839   8.329   5.513
  169POPC   C4B 2461   4.925   8.195   5.941
  170POPC   NC3 2462   7.797   6.516   3.913
  170POPC   PO4 2463   7.563   7.042   4.068
  170POPC   GL1 2464   7.808   6.737   4.397
  170POPC   GL2 2465   8.044   6.470   4.355
  170POPC   C1A 2466   7.939   6.540   4.843
  170POPC   D2A 2467   7.734   6.370   5.216
  170POPC   C3A 2468   7.778   6.576   5.618
  170POPC   C4A 2469   8.013   6.554   5.983
  170POPC   C1B 2470   8.210   6.146   4.615
  170POPC   C2B 2471   8.344   6.192   5.023
  170POPC   C3B 2472   8.223   6.384   5.378
  170POPC   C4B 2473   8.060   6.106   5.697
  171POPC   NC3 2474   5.705   2.253   3.972
  171POPC   PO4 2475   5.355   1.659   3.840
  171POPC   GL1 2476   5.517   1.716   4.250
  171POPC   GL2 2477   5.834   1.856   4.266
  171POPC   C1A 2478   5.675   1.627   4.686
  171POPC   D2A 2479   5.859   1.716   5.073
  171POPC   C3A 2480   5.603   1.827   5.404
  171POPC   C4A 2481   5.722   1.628   5.761
  171POPC   C1B 2482   5.666   2.122   4.642
  171POPC   C2B 2483   5.757   2.225   5.091
  171POPC   C3B 2484   5.875   2.252   5.549
  171POPC   C4B 2485   5.639   2.365   5.939
  172POPC   NC3 2486   1.526   3.756   4.101
  172POPC   PO4 2487   0.973   3.349   3.733
  172POPC   GL1 2488   1.061   3.493   4.172
  172POPC   GL2 2489   1.203   3.216   4.320
  172POPC   C1A 2490   1.098   3.671   4.628
  172POPC   D2A 2491   1.267   3.731   5.075
  172POPC   C3A 2492   0.975   3.795   5.445
  172POPC   C4A 2493   1.016   3.591   5.864
  172POPC   C1B 2494   1.431   3.263   4.678
  172POPC   C2B 2495   1.272   3.189   5.088
  172POPC   C3B 2496   1.332   3.391   5.471
  172POPC   C4B 2497   1.390   3.253   5.871
  173POPC   NC3 2498   0.667   2.344   4.137
  173POPC   PO4 2499   0.717   3.013   4.188
  173POPC   GL1 2500   0.602   2.752   4.442
  173POPC   GL2 2501   0.284   2.746   4.439
  173POPC   C1A 2502   0.696   2.489   4.773
  173POPC   D2A 2503   0.473   2.497   5.130
  173POPC   C3A 2504   0.662   2.630   5.526
  173POPC   C4A 2505   0.417   2.466   5.832
  173POPC   C1B 2506   0.430   2.984   4.837
  173POPC   C2B 2507   0.441   3.001   5.259
  173POPC   C3B 2508   0.171   2.733   5.479
  173POPC   C4B 2509   0.027   2.797   5.876
  174POPC   NC3 2510   1.819   7.197   4.000
  174POPC   PO4 2511   2.509   7.262   3.901
  174POPC   GL1 2512   2.229   7.112   4.295
  174POPC   GL2 2513   1.928   7.318   4.466
  174POPC   C1A 2514   2.158   6.987   4.753
  174POPC   D2A 2515   2.126   7.266   5.121
  174POPC   C3A 2516   2.141   6.973   5.456
  174POPC   C4A 2517   2.082   6.846   5.864
  174POPC   C1B 2518   1.675   7.155   4.791
  174POPC   C2B 2519   1.690   6.979   5.193
  174POPC   C3B 2520   1.686   7.136   5.606
  174POPC   C4B 2521   1.682   7.413   5.943
  175POPC   NC3 2522   7.230   7.359   4.014
  175POPC   PO4 2523   6.750   7.933   3.887
  175POPC   GL1 2524   7.010   7.963   4.342
  175POPC   GL2 2525   7.383   7.988   4.394
  175POPC   C1A 2526   7.080   7.793   4.776
  175POPC   D2A 2527   7.253   7.763   5.218
  175POPC   C3A 2528   7.091   7.707   5.660
  175POPC   C4A 2529   7.054   7.367   5.978
  175POPC   C1B 2530   7.342   8.257   4.754
  175POPC   C2B 2531   7.393   8.392   5.172
  175POPC   C3B 2532   7.204   8.192   5.509
  175POPC   C4B 2533   7.265   8.132   5.921
  176POPC   NC3 2534   1.369   2.172   3.772
  176POPC   PO4 2535   1.550   1.597   4.104
  176POPC   GL1 2536   1.446   1.869   4.386
  176POPC   GL2 2537   1.117   1.766   4.462
  176POPC   C1A 2538   1.432   1.866   4.824
  176POPC   D2A 2539   1.356   1.985   5.196
  176POPC   C3A 2540   1.098   1.738   5.472
  176POPC   C4A 2541   1.247   1.650   5.918
  176POPC   C1B 2542   0.907   1.922   4.834
  176POPC   C2B 2543   0.909   2.228   5.168
  176POPC   C3B 2544   0.759   2.144   5.571
  176POPC   C4B 2545   0.997   2.087   5.911
  177POPC   NC3 2546   5.035   0.542   3.840
  177POPC   PO4 2547   4.393   0.591   4.079
  177POPC   GL1 2548   4.621   0.603   4.439
  177POPC   GL2 2549   4.847   0.356   4.276
  177POPC   C1A 2550   4.648   0.636   4.908
  177POPC   D2A 2551   4.663   0.367   5.245
  177POPC   C3A 2552   4.737   0.579   5.603
  177POPC   C4A 2553   4.791   0.263   5.842
  177POPC   C1B 2554   4.956   0.301   4.685
  177POPC   C2B 2555   5.114   0.489   5.053
  177POPC   C3B 2556   5.151   0.335   5.434
  177POPC   C4B 2557   5.285   0.410   5.810
  178POPC   NC3 2558   3.510   1.811   3.855
  178POPC   PO4 2559   2.999   1.894   4.169
  178POPC   GL1 2560   3.270   1.851   4.432
  178POPC   GL2 2561   3.632   1.915   4.350
  178POPC   C1A 2562   3.212   1.854   4.873
  178POPC   D2A 2563   3.399   1.936   5.231
  178POPC   C3A 2564   3.232   1.644   5.456
  178POPC   C4A 2565   2.962   1.581   5.795
  178POPC   C1B 2566   3.519   2.206   4.689
  178POPC   C2B 2567   3.591   2.393   5.081
  178POPC   C3B 2568   3.705   2.291   5.497
  178POPC   C4B 2569   3.454   2.022   5.728
  179POPC   NC3 2570   6.604   2.265   3.933
  179POPC   PO4 2571   6.874   1.670   4.066
  179POPC   GL1 2572   6.660   1.842   4.373
  179POPC   GL2 2573   6.338   1.809   4.272
  179POPC   C1A 2574   6.641   1.979   4.791
  179POPC   D2A 2575   6.781   1.876   5.185
  179POPC   C3A 2576   6.589   2.085   5.512
  179POPC   C4A 2577   6.607   1.799   5.823
  179POPC   C1B 2578   6.146   1.929   4.697
  179POPC   C2B 2579   6.236   2.052   5.152
  179POPC   C3B 2580   6.144   1.817   5.541
  179POPC   C4B 2581   6.198   1.499   5.916
  180POPC   NC3 2582   9.008   0.317   3.715
  180POPC   PO4 2583   9.276  10.395   4.191
  180POPC   GL1 2584   8.911   0.148   4.348
  180POPC   GL2 2585   8.829   0.475   4.232
  180POPC   C1A 2586   8.916   0.370   4.763
  180POPC   D2A 2587   9.135   0.376   5.158
  180POPC   C3A 2588   8.906   0.181   5.478
  180POPC   C4A 2589   8.745   0.348   5.825
  180POPC   C1B 2590   8.510   0.586   4.573
  180POPC   C2B 2591   8.494   0.519   5.053
  180POPC   C3B 2592   8.339   0.412   5.494
  180POPC   C4B 2593   8.326   0.571   5.949
  181POPC   NC3 2594  10.348   0.589   3.965
  181POPC   PO4 2595   9.685   0.538   3.834
  181POPC   GL1 2596   9.831   0.520   4.253
  181POPC   GL2 2597  10.104   0.516   4.409
  181POPC   C1A 2598   9.790   0.234   4.650
  181POPC   D2A 2599   9.650   0.428   5.020
  181POPC   C3A 2600   9.842   0.429   5.423
  181POPC   C4A 2601   9.997   0.298   5.828
  181POPC   C1B 2602  10.205   0.444   4.814
  181POPC   C2B 2603  10.181   0.669   5.153
  181POPC   C3B 2604  10.340   0.682   5.530
  181POPC   C4B 2605  10.383   0.691   5.966
  182POPC   NC3 2606   8.415   2.556   3.987
  182POPC   PO4 2607   8.938   3.021   3.863
  182POPC   GL1 2608   8.919   2.858   4.261
  182POPC   GL2 2609   8.572   2.978   4.338
  182POPC   C1A 2610   9.077   2.736   4.666
  182POPC   D2A 2611   8.961   2.891   5.041
  182POPC   C3A 2612   9.023   2.573   5.335
  182POPC   C4A 2613   8.937   2.661   5.758
  182POPC   C1B 2614   8.581   2.596   4.615
  182POPC   C2B 2615   8.611   2.498   5.028
  182POPC   C3B 2616   8.547   2.776   5.348
  182POPC   C4B 2617   8.438   2.699   5.747
  183POPC   NC3 2618   4.616  10.178   3.904
  183POPC   PO4 2619   5.203   0.047   3.864
  183POPC   GL1 2620   5.204  10.426   4.255
  183POPC   GL2 2621   5.053  10.106   4.158
  183POPC   C1A 2622   5.322  10.455   4.673
  183POPC   D2A 2623   5.061  10.465   5.050
  183POPC   C3A 2624   5.240  10.342   5.423
  183POPC   C4A 2625   5.016  10.321   5.776
  183POPC   C1B 2626   4.806  10.237   4.556
  183POPC   C2B 2627   4.803  10.034   4.975
  183POPC   C3B 2628   4.961   9.889   5.369
  183POPC   C4B 2629   4.754   9.886   5.790
  184POPC   NC3 2630   9.178   1.237   3.910
  184POPC   PO4 2631   9.774   1.349   4.198
  184POPC   GL1 2632   9.676   0.996   4.431
  184POPC   GL2 2633   9.359   1.072   4.365
  184POPC   C1A 2634   9.875   0.841   4.751
  184POPC   D2A 2635   9.705   0.899   5.129
  184POPC   C3A 2636   9.828   1.120   5.422
  184POPC   C4A 2637   9.529   1.275   5.707
  184POPC   C1B 2638   9.417   1.264   4.774
  184POPC   C2B 2639   9.402   1.329   5.198
  184POPC   C3B 2640   9.083   1.200   5.471
  184POPC   C4B 2641   9.036   1.459   5.831
  185POPC   NC3 2642   2.430   8.754   3.907
  185POPC   PO4 2643   2.826   8.202   3.774
  185POPC   GL1 2644   2.669   8.519   4.259
  185POPC   GL2 2645   2.354   8.583   4.395
  185POPC   C1A 2646   2.750   8.756   4.670
  185POPC   D2A 2647   2.944   8.766   5.082
  185POPC   C3A 2648   2.763   9.077   5.371
  185POPC   C4A 2649   2.848   8.920   5.790
  185POPC   C1B 2650   2.208   8.399   4.762
  185POPC   C2B 2651   2.434   8.536   5.088
  185POPC   C3B 2652   2.635   8.589   5.468
  185POPC   C4B 2653   2.560   8.414   5.871
  186POPC   NC3 2654   7.281  10.199   3.800
  186POPC   PO4 2655   6.897   0.157   4.070
  186POPC   GL1 2656   7.146  10.331   4.288
  186POPC   GL2 2657   7.317   9.966   4.248
  186POPC   C1A 2658   6.930  10.176   4.625
  186POPC   D2A 2659   6.696  10.310   4.971
  186POPC   C3A 2660   6.861  10.331   5.400
  186POPC   C4A 2661   6.813  10.438   5.826
  186POPC   C1B 2662   7.293   9.832   4.682
  186POPC   C2B 2663   7.179  10.050   5.056
  186POPC   C3B 2664   7.068   9.858   5.432
  186POPC   C4B 2665   7.197  10.104   5.763
  187POPC   NC3 2666   7.111   9.214   3.791
  187POPC   PO4 2667   7.557   9.499   4.069
  187POPC   GL1 2668   7.407   9.245   4.394
  187POPC   GL2 2669   7.079   9.215   4.297
  187POPC   C1A 2670   7.199   9.320   4.796
  187POPC   D2A 2671   7.322   9.569   5.117
  187POPC   C3A 2672   7.348   9.369   5.480
  187POPC   C4A 2673   7.284   9.585   5.814
  187POPC   C1B 2674   6.906   9.599   4.473
  187POPC   C2B 2675   6.840   9.681   4.936
  187POPC   C3B 2676   6.884   9.327   5.276
  187POPC   C4B 2677   7.037   9.050   5.678
  188POPC   NC3 2678   9.151   8.941   3.884
  188POPC   PO4 2679   9.700   8.570   3.811
  188POPC   GL1 2680   9.705   8.722   4.217
  188POPC   GL2 2681   9.399   8.614   4.316
  188POPC   C1A 2682   9.756   8.788   4.664
  188POPC   D2A 2683   9.622   8.857   5.093
  188POPC   C3A 2684   9.889   8.830   5.450
  188POPC   C4A 2685   9.781   8.905   5.872
  188POPC   C1B 2686   9.226   8.794   4.720
  188POPC   C2B 2687   9.143   8.717   5.149
  188POPC   C3B 2688   9.274   8.753   5.589
  188POPC   C4B 2689   8.967   8.677   5.910
  189POPC   NC3 2690   3.617  10.155   3.898
  189POPC   PO4 2691   2.980   9.706   3.879
  189POPC   GL1 2692   3.132   9.685   4.280
  189POPC   GL2 2693   3.387   9.919   4.283
  189POPC   C1A 2694   2.991   9.838   4.690
  189POPC   D2A 2695   3.088  10.075   5.073
  189POPC   C3A 2696   3.034   9.892   5.476
  189POPC   C4A 2697   3.232   9.836   5.871
  189POPC   C1B 2698   3.421  10.122   4.670
  189POPC   C2B 2699   3.623  10.137   5.079
  189POPC   C3B 2700   3.532  10.189   5.503
  189POPC   C4B 2701   3.840   0.016   5.727
  190POPC   NC3 2702   8.305   9.393   3.852
  190POPC   PO4 2703   8.362  10.041   3.991
  190POPC   GL1 2704   8.389   9.570   4.294
  190POPC   GL2 2705   8.719   9.257   4.257
  190POPC   C1A 2706   8.441   9.270   4.652
  190POPC   D2A 2707   8.635   9.210   5.064
  190POPC   C3A 2708   8.586   9.536   5.308
  190POPC   C4A 2709   8.633   9.440   5.719
  190POPC   C1B 2710   8.959   9.212   4.626
  190POPC   C2B 2711   9.141   9.326   5.037
  190POPC   C3B 2712   9.043   9.274   5.467
  190POPC   C4B 2713   9.106   9.477   5.891
  191POPC   NC3 2714   2.640   0.413   3.820
  191POPC   PO4 2715   3.130   0.802   3.768
  191POPC   GL1 2716   2.912   0.521   4.209
  191POPC   GL2 2717   2.880   0.159   4.215
  191POPC   C1A 2718   2.724   0.679   4.649
  191POPC   D2A 2719   2.555   0.851   5.044
  191POPC   C3A 2720   2.727   0.806   5.390
  191POPC   C4A 2721   2.658   0.600   5.745
  191POPC   C1B 2722   2.550   0.219   4.541
  191POPC   C2B 2723   2.427   0.349   4.958
  191POPC   C3B 2724   2.474   0.282   5.388
  191POPC   C4B 2725   2.607   0.093   5.750
  192POPC   NC3 2726   8.797   6.514   3.883
  192POPC   PO4 2727   8.172   6.784   3.972
  192POPC   GL1 2728   8.507   6.639   4.284
  192POPC   GL2 2729   8.536   6.274   4.255
  192POPC   C1A 2730   8.469   6.607   4.737
  192POPC   D2A 2731   8.755   6.536   5.098
  192POPC   C3A 2732   8.748   6.739   5.531
  192POPC   C4A 2733   8.919   6.688   5.971
  192POPC   C1B 2734   8.741   6.146   4.655
  192POPC   C2B 2735   8.803   5.997   5.078
  192POPC   C3B 2736   8.761   6.199   5.484
  192POPC   C4B 2737   8.488   6.395   5.801
  193POPC   NC3 2738   9.697   8.103   3.886
  193POPC   PO4 2739   9.040   8.201   3.978
  193POPC   GL1 2740   9.202   8.154   4.366
  193POPC   GL2 2741   9.541   8.096   4.364
  193POPC   C1A 2742   9.449   8.348   4.772
  193POPC   D2A 2743   9.585   8.101   5.122
  193POPC   C3A 2744   9.437   8.234   5.537
  193POPC   C4A 2745   9.181   8.196   5.917
  193POPC   C1B 2746   9.350   7.852   4.727
  193POPC   C2B 2747   9.355   7.637   5.115
  193POPC   C3B 2748   9.564   7.703   5.519
  193POPC   C4B 2749   9.858   7.673   5.878
  194POPC   NC3 2750   1.090   2.922   3.922
  194POPC   PO4 2751   0.867   2.227   3.746
  194POPC   GL1 2752   1.123   2.237   4.242
  194POPC   GL2 2753   1.067   2.616   4.358
  194POPC   C1A 2754   1.201   2.311   4.718
  194POPC   D2A 2755   1.355   2.492   5.100
  194POPC   C3A 2756   1.186   2.447   5.543
  194POPC   C4A 2757   1.373   2.405   5.976
  194POPC   C1B 2758   1.089   2.842   4.727
  194POPC   C2B 2759   0.939   2.793   5.133
  194POPC   C3B 2760   1.071   2.949   5.525
  194POPC   C4B 2761   0.857   3.065   5.861
  195POPC   NC3 2762   6.621   1.036   3.497
  195POPC   PO4 2763   7.201   1.094   3.899
  195POPC   GL1 2764   7.033   1.080   4.262
  195POPC   GL2 2765   7.126   1.362   4.448
  195POPC   C1A 2766   6.954   0.820   4.622
  195POPC   D2A 2767   7.145   0.783   4.998
  195POPC   C3A 2768   6.899   0.679   5.309
  195POPC   C4A 2769   6.829   0.742   5.705
  195POPC   C1B 2770   7.443   1.025   4.585
  195POPC   C2B 2771   7.626   0.930   5.001
  195POPC   C3B 2772   7.375   1.192   5.277
  195POPC   C4B 2773   7.293   1.143   5.721
  196POPC   NC3 2774   1.850   1.308   3.923
  196POPC   PO4 2775   2.321   1.685   3.928
  196POPC   GL1 2776   2.136   1.460   4.321
  196POPC   GL2 2777   2.130   1.078   4.298
  196POPC   C1A 2778   2.059   1.338   4.766
  196POPC   D2A 2779   2.124   1.099   5.114
  196POPC   C3A 2780   2.089   1.398   5.421
  196POPC   C4A 2781   2.102   1.393   5.860
  196POPC   C1B 2782   1.793   0.946   4.605
  196POPC   C2B 2783   1.634   0.974   5.062
  196POPC   C3B 2784   1.786   0.992   5.516
  196POPC   C4B 2785   1.936   0.934   5.966
  197POPC   NC3 2786   3.335   9.205   4.030
  197POPC   PO4 2787   4.052   9.143   4.006
  197POPC   GL1 2788   3.740   9.138   4.346
  197POPC   GL2 2789   3.622   9.465   4.357
  197POPC   C1A 2790   3.742   9.198   4.813
  197POPC   D2A 2791   3.695   9.207   5.262
  197POPC   C3A 2792   3.875   9.576   5.422
  197POPC   C4A 2793   3.714   9.745   5.777
  197POPC   C1B 2794   3.402   9.561   4.708
  197POPC   C2B 2795   3.423   9.677   5.118
  197POPC   C3B 2796   3.359   9.517   5.489
  197POPC   C4B 2797   3.020   9.393   5.718
  198POPC   NC3 2798   8.399  10.265   3.544
  198POPC   PO4 2799   7.764  10.179   3.820
  198POPC   GL1 2800   7.957  10.208   4.249
  198POPC   GL2 2801   7.673  10.362   4.375
  198POPC   C1A 2802   8.195  10.205   4.649
  198POPC   D2A 2803   8.337   9.963   5.021
  198POPC   C3A 2804   8.121  10.124   5.397
  198POPC   C4A 2805   8.117  10.419   5.763
  198POPC   C1B 2806   7.756   9.970   4.622
  198POPC   C2B 2807   7.734   9.903   5.039
  198POPC   C3B 2808   7.577  10.060   5.406
  198POPC   C4B 2809   7.773  10.017   5.782
  199POPC   NC3 2810   4.934   1.884   3.771
  199POPC   PO4 2811   4.491   2.254   3.934
  199POPC   GL1 2812   4.743   1.930   4.244
  199POPC   GL2 2813   5.001   1.636   4.253
  199POPC   C1A 2814   4.663   1.692   4.644
  199POPC   D2A 2815   4.868   1.704   5.057
  199POPC   C3A 2816   4.666   1.666   5.457
  199POPC   C4A 2817   4.667   1.886   5.859
  199POPC   C1B 2818   5.189   1.803   4.641
  199POPC   C2B 2819   5.257   2.036   5.045
  199POPC   C3B 2820   4.958   2.109   5.420
  199POPC   C4B 2821   5.114   2.208   5.844
  200POPC   NC3 2822   2.351   2.173   3.965
  200POPC   PO4 2823   1.806   2.428   3.663
  200POPC   GL1 2824   1.772   2.262   4.122
  200POPC   GL2 2825   1.952   1.950   4.249
  200POPC   C1A 2826   1.700   2.282   4.601
  200POPC   D2A 2827   1.857   2.205   5.042
  200POPC   C3A 2828   1.676   2.321   5.454
  200POPC   C4A 2829   1.463   2.021   5.682
  200POPC   C1B 2830   1.914   1.811   4.679
  200POPC   C2B 2831   1.802   1.692   5.121
  200POPC   C3B 2832   1.937   1.861   5.555
  200POPC   C4B 2833   1.755   1.729   5.982
  201POPC   NC3 2834   3.117   3.542   4.055
  201POPC   PO4 2835   2.594   3.396   3.779
  201POPC   GL1 2836   2.467   3.402   4.226
  201POPC   GL2 2837   2.780   3.371   4.435
  201POPC   C1A 2838   2.336   3.495   4.670
  201POPC   D2A 2839   2.601   3.392   5.029
  201POPC   C3A 2840   2.515   3.347   5.439
  201POPC   C4A 2841   2.808   3.264   5.793
  201POPC   C1B 2842   2.752   3.775   4.739
  201POPC   C2B 2843   2.569   3.877   5.199
  201POPC   C3B 2844   2.628   3.780   5.698
  201POPC   C4B 2845   2.899   3.677   6.096
  202POPC   NC3 2846   5.181   9.350   3.870
  202POPC   PO4 2847   4.648   9.724   3.988
  202POPC   GL1 2848   4.855   9.672   4.379
  202POPC   GL2 2849   5.069   9.391   4.361
  202POPC   C1A 2850   4.963   9.577   4.821
  202POPC   D2A 2851   4.695   9.447   5.112
  202POPC   C3A 2852   4.770   9.424   5.536
  202POPC   C4A 2853   4.659   9.129   5.833
  202POPC   C1B 2854   5.284   9.194   4.711
  202POPC   C2B 2855   5.123   9.080   5.158
  202POPC   C3B 2856   5.171   9.115   5.647
  202POPC   C4B 2857   5.210   9.060   6.106
  203POPC   NC3 2858   9.360   2.801   3.886
  203POPC   PO4 2859   9.423   2.158   3.727
  203POPC   GL1 2860   9.413   2.280   4.174
  203POPC   GL2 2861   9.443   2.608   4.349
  203POPC   C1A 2862   9.424   2.177   4.618
  203POPC   D2A 2863   9.385   2.256   5.076
  203POPC   C3A 2864   9.770   2.398   5.290
  203POPC   C4A 2865   9.757   2.354   5.760
  203POPC   C1B 2866   9.592   2.624   4.768
  203POPC   C2B 2867   9.446   2.785   5.117
  203POPC   C3B 2868   9.467   2.708   5.537
  203POPC   C4B 2869   9.408   2.720   5.926
  204POPC   NC3 2870   2.212   5.124   4.085
  204POPC   PO4 2871   1.567   4.885   3.974
  204POPC   GL1 2872   1.702   5.149   4.303
  204POPC   GL2 2873   1.916   4.871   4.405
  204POPC   C1A 2874   1.694   5.426   4.722
  204POPC   D2A 2875   1.879   5.419   5.157
  204POPC   C3A 2876   1.634   5.427   5.551
  204POPC   C4A 2877   1.801   5.148   5.892
  204POPC   C1B 2878   2.053   5.050   4.790
  204POPC   C2B 2879   2.199   4.954   5.198
  204POPC   C3B 2880   2.059   4.840   5.553
  204POPC   C4B 2881   2.183   4.472   5.717
  205POPC   NC3 2882   2.207   5.751   3.654
  205POPC   PO4 2883   1.589   5.752   3.881
  205POPC   GL1 2884   1.947   5.579   4.130
  205POPC   GL2 2885   2.142   5.880   4.161
  205POPC   C1A 2886   2.162   5.551   4.571
  205POPC   D2A 2887   2.108   5.795   4.929
  205POPC   C3A 2888   2.265   5.761   5.379
  205POPC   C4A 2889   2.162   5.355   5.582
  205POPC   C1B 2890   1.792   5.909   4.497
  205POPC   C2B 2891   1.677   6.045   4.905
  205POPC   C3B 2892   1.779   5.938   5.335
  205POPC   C4B 2893   1.921   5.824   5.753
  206POPC   NC3 2894   5.829   0.680   3.993
  206POPC   PO4 2895   6.014   0.051   3.972
  206POPC   GL1 2896   5.797   0.003   4.350
  206POPC   GL2 2897   5.603   0.285   4.294
  206POPC   C1A 2898   5.792   0.102   4.769
  206POPC   D2A 2899   5.517   0.184   5.091
  206POPC   C3A 2900   5.655   0.173   5.473
  206POPC   C4A 2901   6.065   0.233   5.618
  206POPC   C1B 2902   5.480   0.505   4.670
  206POPC   C2B 2903   5.546   0.745   5.050
  206POPC   C3B 2904   5.402   0.791   5.463
  206POPC   C4B 2905   5.722   0.625   5.692
  207POPC   NC3 2906   6.608   1.307   3.997
  207POPC   PO4 2907   6.651   0.711   3.857
  207POPC   GL1 2908   6.550   0.976   4.337
  207POPC   GL2 2909   6.227   1.078   4.428
  207POPC   C1A 2910   6.604   1.184   4.749
  207POPC   D2A 2911   6.543   1.025   5.168
  207POPC   C3A 2912   6.880   1.175   5.425
  207POPC   C4A 2913   6.858   1.362   5.828
  207POPC   C1B 2914   6.121   1.391   4.726
  207POPC   C2B 2915   6.357   1.563   5.066
  207POPC   C3B 2916   6.462   1.442   5.473
  207POPC   C4B 2917   6.442   1.077   5.734
  208POPC   NC3 2918   6.926   3.157   3.613
  208POPC   PO4 2919   6.822   2.667   3.999
  208POPC   GL1 2920   7.116   2.674   4.326
  208POPC   GL2 2921   7.247   2.323   4.298
  208POPC   C1A 2922   7.284   2.958   4.668
  208POPC   D2A 2923   7.225   3.155   5.085
  208POPC   C3A 2924   7.294   3.013   5.524
  208POPC   C4A 2925   7.237   3.058   6.008
  208POPC   C1B 2926   7.385   2.463   4.697
  208POPC   C2B 2927   7.255   2.621   5.066
  208POPC   C3B 2928   7.431   2.530   5.442
  208POPC   C4B 2929   7.299   2.587   5.822
  209POPC   NC3 2930   9.895   3.729   3.675
  209POPC   PO4 2931  10.383   4.015   3.911
  209POPC   GL1 2932  10.188   4.174   4.271
  209POPC   GL2 2933  10.300   4.437   4.362
  209POPC   C1A 2934   9.936   4.213   4.642
  209POPC   D2A 2935   9.720   4.332   5.027
  209POPC   C3A 2936   9.918   4.085   5.322
  209POPC   C4A 2937   9.997   4.107   5.698
  209POPC   C1B 2938  10.438   4.118   4.700
  209POPC   C2B 2939  10.378   3.957   5.098
  209POPC   C3B 2940  10.409   4.257   5.413
  209POPC   C4B 2941  10.379   4.414   5.791
  210POPC   NC3 2942   7.806   3.338   4.123
  210POPC   PO4 2943   8.226   3.707   4.014
  210POPC   GL1 2944   8.177   3.530   4.424
  210POPC   GL2 2945   8.101   3.163   4.510
  210POPC   C1A 2946   8.177   3.518   4.889
  210POPC   D2A 2947   8.125   3.169   5.190
  210POPC   C3A 2948   8.056   3.320   5.624
  210POPC   C4A 2949   7.950   3.653   5.943
  210POPC   C1B 2950   7.729   3.298   4.820
  210POPC   C2B 2951   7.650   3.362   5.292
  210POPC   C3B 2952   7.529   3.435   5.738
  210POPC   C4B 2953   7.592   3.388   6.199
  211POPC   NC3 2954   0.246   8.937   4.002
  211POPC   PO4 2955   0.553   8.369   3.959
  211POPC   GL1 2956   0.552   8.532   4.342
  211POPC   GL2 2957   0.218   8.647   4.406
  211POPC   C1A 2958   0.452   8.352   4.731
  211POPC   D2A 2959   0.456   8.088   5.060
  211POPC   C3A 2960   0.432   8.330   5.422
  211POPC   C4A 2961   0.502   8.564   5.790
  211POPC   C1B 2962   0.481   8.959   4.636
  211POPC   C2B 2963   0.482   9.098   5.047
  211POPC   C3B 2964   0.372   8.878   5.407
  211POPC   C4B 2965   0.177   8.974   5.783
  212POPC   NC3 2966   2.330   6.826   3.851
  212POPC   PO4 2967   1.674   6.746   3.956
  212POPC   GL1 2968   1.774   6.820   4.370
  212POPC   GL2 2969   2.073   6.605   4.346
  212POPC   C1A 2970   1.756   6.642   4.786
  212POPC   D2A 2971   1.728   6.453   5.181
  212POPC   C3A 2972   1.747   6.617   5.572
  212POPC   C4A 2973   1.856   6.393   5.977
  212POPC   C1B 2974   2.116   6.269   4.682
  212POPC   C2B 2975   2.189   6.239   5.133
  212POPC   C3B 2976   2.122   6.257   5.562
  212POPC   C4B 2977   2.373   6.405   5.893
  213POPC   NC3 2978  10.136   4.439   3.846
  213POPC   PO4 2979   9.991   5.113   3.701
  213POPC   GL1 2980   9.995   4.860   4.121
  213POPC   GL2 2981  10.315   4.929   4.180
  213POPC   C1A 2982   9.989   4.722   4.607
  213POPC   D2A 2983  10.207   4.499   4.994
  213POPC   C3A 2984  10.016   4.579   5.414
  213POPC   C4A 2985   9.883   4.574   5.858
  213POPC   C1B 2986  10.277   5.138   4.588
  213POPC   C2B 2987  10.165   5.010   5.017
  213POPC   C3B 2988  10.084   5.072   5.462
  213POPC   C4B 2989  10.230   4.913   5.822
  214POPC   NC3 2990   3.299   2.557   3.763
  214POPC   PO4 2991   3.197   3.105   4.126
  214POPC   GL1 2992   3.448   2.712   4.274
  214POPC   GL2 2993   3.254   2.383   4.284
  214POPC   C1A 2994   3.735   2.688   4.667
  214POPC   D2A 2995   3.842   2.852   5.098
  214POPC   C3A 2996   3.678   2.796   5.531
  214POPC   C4A 2997   3.604   2.644   5.960
  214POPC   C1B 2998   3.230   2.621   4.726
  214POPC   C2B 2999   3.253   2.754   5.163
  214POPC   C3B 3000   3.212   2.557   5.572
  214POPC   C4B 3001   3.121   2.829   5.935
  215POPC   NC3 3002   1.440   8.873   3.838
  215POPC   PO4 3003   2.141   9.163   3.833
  215POPC   GL1 3004   2.031   8.949   4.204
  215POPC   GL2 3005   1.798   8.664   4.233
  215POPC   C1A 3006   2.014   8.854   4.651
  215POPC   D2A 3007   1.886   8.689   5.050
  215POPC   C3A 3008   2.102   8.745   5.415
  215POPC   C4A 3009   2.297   8.829   5.778
  215POPC   C1B 3010   1.692   8.437   4.642
  215POPC   C2B 3011   1.673   8.180   5.011
  215POPC   C3B 3012   1.899   8.231   5.372
  215POPC   C4B 3013   2.050   8.363   5.763
  216POPC   NC3 3014   0.460   9.463   3.692
  216POPC   PO4 3015  10.352   9.058   3.780
  216POPC   GL1 3016  10.435   9.172   4.289
  216POPC   GL2 3017   0.289   9.347   4.335
  216POPC   C1A 3018   0.028   9.232   4.760
  216POPC   D2A 3019   0.182   9.551   5.060
  216POPC   C3A 3020   0.313   9.389   5.451
  216POPC   C4A 3021   0.045   9.535   5.753
  216POPC   C1B 3022   0.545   9.489   4.722
  216POPC   C2B 3023   0.722   9.557   5.174
  216POPC   C3B 3024   0.663   9.745   5.665
  216POPC   C4B 3025   0.759   9.675   6.166
  217POPC   NC3 3026   4.188   7.892   3.911
  217POPC   PO4 3027   3.735   8.254   3.817
  217POPC   GL1 3028   3.843   8.063   4.264
  217POPC   GL2 3029   4.190   7.956   4.417
  217POPC   C1A 3030   3.786   7.833   4.689
  217POPC   D2A 3031   3.793   8.047   5.107
  217POPC   C3A 3032   3.884   7.815   5.503
  217POPC   C4A 3033   4.167   7.743   5.858
  217POPC   C1B 3034   4.339   8.107   4.845
  217POPC   C2B 3035   4.318   7.981   5.278
  217POPC   C3B 3036   4.634   7.864   5.610
  217POPC   C4B 3037   4.825   7.680   5.989
  218POPC   NC3 3038   0.591   7.095   4.003
  218POPC   PO4 3039   0.024   7.157   3.654
  218POPC   GL1 3040   0.139   7.172   4.194
  218POPC   GL2 3041   0.401   7.456   4.315
  218POPC   C1A 3042   0.161   7.186   4.677
  218POPC   D2A 3043   0.406   7.319   5.061
  218POPC   C3A 3044   0.303   7.363   5.504
  218POPC   C4A 3045   0.289   7.435   5.963
  218POPC   C1B 3046   0.684   7.206   4.640
  218POPC   C2B 3047   0.865   7.048   5.032
  218POPC   C3B 3048   0.811   7.273   5.395
  218POPC   C4B 3049   0.663   7.137   5.783
  219POPC   NC3 3050   0.893   0.562   4.208
  219POPC   PO4 3051   0.276   0.399   3.891
  219POPC   GL1 3052   0.413   0.371   4.279
  219POPC   GL2 3053   0.089   0.404   4.373
  219POPC   C1A 3054   0.449   0.543   4.710
  219POPC   D2A 3055   0.725   0.447   5.044
  219POPC   C3A 3056   0.782   0.688   5.407
  219POPC   C4A 3057   0.723   0.452   5.788
  219POPC   C1B 3058   0.114   0.150   4.691
  219POPC   C2B 3059   0.121   0.348   5.077
  219POPC   C3B 3060   0.368   0.377   5.404
  219POPC   C4B 3061   0.168   0.332   5.748
  220POPC   NC3 3062   6.488   2.785   4.295
  220POPC   PO4 3063   6.143   2.303   4.065
  220POPC   GL1 3064   6.387   2.296   4.430
  220POPC   GL2 3065   6.727   2.344   4.406
  220POPC   C1A 3066   6.386   2.428   4.844
  220POPC   D2A 3067   6.431   2.718   5.174
  220POPC   C3A 3068   6.310   2.555   5.558
  220POPC   C4A 3069   6.281   2.739   5.997
  220POPC   C1B 3070   6.894   2.421   4.746
  220POPC   C2B 3071   6.814   2.382   5.143
  220POPC   C3B 3072   6.901   2.656   5.443
  220POPC   C4B 3073   6.755   2.569   5.810
  221POPC   NC3 3074   1.740   8.194   4.018
  221POPC   PO4 3075   1.556   7.557   3.971
  221POPC   GL1 3076   1.990   7.744   4.200
  221POPC   GL2 3077   2.012   8.073   4.422
  221POPC   C1A 3078   2.223   7.680   4.655
  221POPC   D2A 3079   2.196   7.947   5.014
  221POPC   C3A 3080   2.139   7.718   5.393
  221POPC   C4A 3081   2.172   7.445   5.743
  221POPC   C1B 3082   1.728   7.816   4.645
  221POPC   C2B 3083   1.750   7.604   5.032
  221POPC   C3B 3084   1.634   7.646   5.453
  221POPC   C4B 3085   1.820   7.899   5.765
  222POPC   NC3 3086   1.070   7.839   3.836
  222POPC   PO4 3087   1.365   8.464   4.034
  222POPC   GL1 3088   1.318   8.237   4.371
  222POPC   GL2 3089   1.375   7.926   4.247
  222POPC   C1A 3090   1.169   8.257   4.791
  222POPC   D2A 3091   0.951   8.201   5.180
  222POPC   C3A 3092   1.270   8.267   5.495
  222POPC   C4A 3093   1.531   8.304   5.878
  222POPC   C1B 3094   1.224   7.777   4.597
  222POPC   C2B 3095   1.287   7.811   5.021
  222POPC   C3B 3096   1.119   7.781   5.401
  222POPC   C4B 3097   1.295   7.853   5.782
  223POPC   NC3 3098   0.185   7.946   3.885
  223POPC   PO4 3099   0.712   7.885   3.546
  223POPC   GL1 3100   0.648   7.891   4.119
  223POPC   GL2 3101   0.339   8.010   4.354
  223POPC   C1A 3102   0.746   7.926   4.620
  223POPC   D2A 3103   0.797   7.643   4.996
  223POPC   C3A 3104   0.614   7.769   5.409
  223POPC   C4A 3105   0.783   8.089   5.701
  223POPC   C1B 3106   0.254   7.732   4.740
  223POPC   C2B 3107   0.084   7.719   5.178
  223POPC   C3B 3108   0.153   7.826   5.630
  223POPC   C4B 3109   0.135   8.209   5.845
  224POPC   NC3 3110  10.145   3.699   4.138
  224POPC   PO4 3111   9.705   3.300   3.742
  224POPC   GL1 3112   9.873   3.267   4.218
  224POPC   GL2 3113  10.235   3.199   4.281
  224POPC   C1A 3114   9.980   3.403   4.695
  224POPC   D2A 3115  10.215   3.447   5.105
  224POPC   C3A 3116  10.062   3.592   5.522
  224POPC   C4A 3117   9.969   3.694   5.970
  224POPC   C1B 3118  10.449   3.099   4.654
  224POPC   C2B 3119  10.460   3.001   5.079
  224POPC   C3B 3120  10.314   3.076   5.478
  224POPC   C4B 3121  10.285   3.254   5.870
  225POPC   NC3 3122   1.868   0.581   3.985
  225POPC   PO4 3123   2.404   0.802   3.912
  225POPC   GL1 3124   2.286   0.572   4.290
  225POPC   GL2 3125   1.906   0.446   4.453
  225POPC   C1A 3126   2.228   0.736   4.688
  225POPC   D2A 3127   1.933   0.560   4.955
  225POPC   C3A 3128   2.101   0.616   5.342
  225POPC   C4A 3129   2.158   0.525   5.768
  225POPC   C1B 3130   1.605   0.163   4.686
  225POPC   C2B 3131   1.689   0.090   5.109
  225POPC   C3B 3132   1.614   0.460   5.346
  225POPC   C4B 3133   1.625   0.574   5.761
  226POPC   NC3 3134   7.310   1.560   3.999
  226POPC   PO4 3135   7.940   1.432   4.003
  226POPC   GL1 3136   7.688   1.591   4.375
  226POPC   GL2 3137   7.375   1.829   4.410
  226POPC   C1A 3138   7.513   1.533   4.801
  226POPC   D2A 3139   7.535   1.695   5.216
  226POPC   C3A 3140   7.162   1.660   5.478
  226POPC   C4A 3141   7.142   1.775   5.898
  226POPC   C1B 3142   7.173   1.982   4.787
  226POPC   C2B 3143   7.253   2.120   5.207
  226POPC   C3B 3144   7.062   2.188   5.621
  226POPC   C4B 3145   6.868   2.152   6.075
  227POPC   NC3 3146   7.914   7.999   3.948
  227POPC   PO4 3147   8.419   7.553   3.993
  227POPC   GL1 3148   8.158   7.663   4.336
  227POPC   GL2 3149   7.878   7.884   4.433
  227POPC   C1A 3150   8.079   7.574   4.773
  227POPC   D2A 3151   8.178   7.798   5.151
  227POPC   C3A 3152   8.124   7.580   5.546
  227POPC   C4A 3153   7.920   7.573   5.928
  227POPC   C1B 3154   7.626   7.811   4.803
  227POPC   C2B 3155   7.703   7.970   5.203
  227POPC   C3B 3156   7.633   7.895   5.629
  227POPC   C4B 3157   7.762   8.069   6.037
  228POPC   NC3 3158   4.292   2.647   3.841
  228POPC   PO4 3159   3.775   2.234   3.862
  228POPC   GL1 3160   3.888   2.362   4.283
  228POPC   GL2 3161   4.231   2.512   4.341
  228POPC   C1A 3162   4.009   2.261   4.718
  228POPC   D2A 3163   4.095   2.386   5.144
  228POPC   C3A 3164   4.167   2.612   5.499
  228POPC   C4A 3165   4.059   2.456   5.862
  228POPC   C1B 3166   4.280   2.690   4.781
  228POPC   C2B 3167   4.346   2.945   5.158
  228POPC   C3B 3168   4.324   3.091   5.597
  228POPC   C4B 3169   4.523   2.903   5.993
  229POPC   NC3 3170   9.710   5.334   3.978
  229POPC   PO4 3171   9.144   5.094   3.662
  229POPC   GL1 3172   9.262   4.926   4.201
  229POPC   GL2 3173   9.553   5.038   4.337
  229POPC   C1A 3174   9.178   5.058   4.676
  229POPC   D2A 3175   9.341   5.287   5.088
  229POPC   C3A 3176   9.204   5.124   5.535
  229POPC   C4A 3177   9.087   5.155   6.003
  229POPC   C1B 3178   9.700   5.123   4.741
  229POPC   C2B 3179   9.679   4.878   5.132
  229POPC   C3B 3180   9.522   4.716   5.528
  229POPC   C4B 3181   9.427   4.753   5.988
  230POPC   NC3 3182   7.961   7.215   3.925
  230POPC   PO4 3183   7.504   7.729   3.952
  230POPC   GL1 3184   7.642   7.453   4.349
  230POPC   GL2 3185   7.952   7.219   4.415
  230POPC   C1A 3186   7.633   7.292   4.797
  230POPC   D2A 3187   7.775   7.449   5.206
  230POPC   C3A 3188   7.543   7.388   5.619
  230POPC   C4A 3189   7.564   7.183   6.046
  230POPC   C1B 3190   8.105   7.015   4.786
  230POPC   C2B 3191   8.021   6.906   5.265
  230POPC   C3B 3192   7.974   7.065   5.734
  230POPC   C4B 3193   8.071   7.168   6.199
  231POPC   NC3 3194  10.345   6.440   3.888
  231POPC   PO4 3195   9.923   6.019   4.117
  231POPC   GL1 3196  10.232   6.260   4.357
  231POPC   GL2 3197  10.215   6.644   4.336
  231POPC   C1A 3198  10.344   6.328   4.788
  231POPC   D2A 3199  10.070   6.332   5.123
  231POPC   C3A 3200  10.235   6.090   5.459
  231POPC   C4A 3201  10.280   6.188   5.841
  231POPC   C1B 3202  10.309   6.822   4.765
  231POPC   C2B 3203  10.420   6.702   5.180
  231POPC   C3B 3204  10.148   6.594   5.563
  231POPC   C4B 3205   9.937   6.499   5.994
  232POPC   NC3 3206   5.607  10.314   3.916
  232POPC   PO4 3207   5.913   9.737   3.915
  232POPC   GL1 3208   5.880   9.991   4.270
  232POPC   GL2 3209   5.533  10.039   4.322
  232POPC   C1A 3210   5.816  10.087   4.727
  232POPC   D2A 3211   5.848  10.232   5.142
  232POPC   C3A 3212   6.047   9.978   5.462
  232POPC   C4A 3213   5.805  10.249   5.707
  232POPC   C1B 3214   5.221   9.971   4.616
  232POPC   C2B 3215   5.356  10.026   5.017
  232POPC   C3B 3216   5.524   9.932   5.406
  232POPC   C4B 3217   5.269   9.877   5.785
  233POPC   NC3 3218   0.532  10.441   3.890
  233POPC   PO4 3219   0.285   9.745   4.006
  233POPC   GL1 3220   0.433   9.984   4.334
  233POPC   GL2 3221   0.312  10.331   4.335
  233POPC   C1A 3222   0.496  10.023   4.759
  233POPC   D2A 3223   0.547  10.013   5.202
  233POPC   C3A 3224   0.226   9.890   5.445
  233POPC   C4A 3225   0.227  10.070   5.804
  233POPC   C1B 3226   0.616   0.012   4.608
  233POPC   C2B 3227   0.469  10.491   5.030
  233POPC   C3B 3228   0.254  10.401   5.403
  233POPC   C4B 3229   0.531  10.482   5.718
  234POPC   NC3 3230  10.487  10.100   4.012
  234POPC   PO4 3231  10.166   0.166   4.062
  234POPC   GL1 3232  10.271  10.398   4.388
  234POPC   GL2 3233  10.064  10.101   4.483
  234POPC   C1A 3234  10.196  10.406   4.831
  234POPC   D2A 3235  10.012   0.070   5.114
  234POPC   C3A 3236  10.293   0.169   5.426
  234POPC   C4A 3237  10.389  10.439   5.797
  234POPC   C1B 3238  10.469   9.974   4.648
  234POPC   C2B 3239   0.067  10.113   5.023
  234POPC   C3B 3240  10.296  10.158   5.370
  234POPC   C4B 3241  10.141  10.010   5.782
  235POPC   NC3 3242   3.458   0.630   4.052
  235POPC   PO4 3243   3.296  10.470   3.991
  235POPC   GL1 3244   3.550   0.133   4.300
  235POPC   GL2 3245   3.372   0.377   4.461
  235POPC   C1A 3246   3.654   0.072   4.757
  235POPC   D2A 3247   3.316   0.044   5.105
  235POPC   C3A 3248   3.413   0.187   5.542
  235POPC   C4A 3249   3.527   0.321   5.973
  235POPC   C1B 3250   3.056   0.279   4.702
  235POPC   C2B 3251   2.983   0.500   5.052
  235POPC   C3B 3252   2.979   0.380   5.435
  235POPC   C4B 3253   3.165   0.603   5.756
  236POPC   NC3 3254   9.642   6.303   3.885
  236POPC   PO4 3255   9.144   6.639   4.160
  236POPC   GL1 3256   9.598   6.531   4.323
  236POPC   GL2 3257   9.583   6.155   4.458
  236POPC   C1A 3258   9.863   6.506   4.675
  236POPC   D2A 3259   9.541   6.625   4.955
  236POPC   C3A 3260   9.648   6.509   5.343
  236POPC   C4A 3261   9.652   6.744   5.671
  236POPC   C1B 3262   9.616   6.138   4.941
  236POPC   C2B 3263   9.214   6.294   5.185
  236POPC   C3B 3264   9.212   6.418   5.608
  236POPC   C4B 3265   9.590   6.202   5.743
  237POPC   NC3 3266   1.203   4.578   3.959
  237POPC   PO4 3267   0.857   5.165   3.878
  237POPC   GL1 3268   1.149   4.970   4.294
  237POPC   GL2 3269   1.427   4.675   4.400
  237POPC   C1A 3270   1.065   4.790   4.748
  237POPC   D2A 3271   0.967   5.056   5.123
  237POPC   C3A 3272   1.058   4.950   5.565
  237POPC   C4A 3273   1.310   5.137   5.923
  237POPC   C1B 3274   1.533   4.951   4.733
  237POPC   C2B 3275   1.474   5.117   5.138
  237POPC   C3B 3276   1.556   4.896   5.515
  237POPC   C4B 3277   1.351   4.529   5.700
  238POPC   NC3 3278   8.646   8.397   4.066
  238POPC   PO4 3279   8.405   8.973   3.997
  238POPC   GL1 3280   8.525   8.792   4.368
  238POPC   GL2 3281   8.900   8.745   4.335
  238POPC   C1A 3282   8.670   8.811   4.776
  238POPC   D2A 3283   8.649   8.594   5.135
  238POPC   C3A 3284   8.740   8.855   5.456
  238POPC   C4A 3285   8.494   8.962   5.767
  238POPC   C1B 3286   8.908   8.381   4.690
  238POPC   C2B 3287   9.064   8.199   5.090
  238POPC   C3B 3288   8.919   8.356   5.501
  238POPC   C4B 3289   8.514   8.453   5.728
  239POPC   NC3 3290   7.248   8.145   3.940
  239POPC   PO4 3291   6.951   8.752   3.796
  239POPC   GL1 3292   7.007   8.716   4.242
  239POPC   GL2 3293   7.236   8.502   4.332
  239POPC   C1A 3294   7.021   8.861   4.676
  239POPC   D2A 3295   7.215   8.900   5.095
  239POPC   C3A 3296   6.958   8.642   5.354
  239POPC   C4A 3297   6.802   8.561   5.756
  239POPC   C1B 3298   7.528   8.745   4.635
  239POPC   C2B 3299   7.741   8.741   5.047
  239POPC   C3B 3300   7.574   8.852   5.473
  239POPC   C4B 3301   7.296   8.624   5.747
  240POPC   NC3 3302   4.274   0.952   3.809
  240POPC   PO4 3303   3.850   1.492   3.837
  240POPC   GL1 3304   3.974   1.195   4.170
  240POPC   GL2 3305   4.280   1.089   4.287
  240POPC   C1A 3306   3.926   1.221   4.645
  240POPC   D2A 3307   4.158   1.288   5.054
  240POPC   C3A 3308   4.084   1.101   5.463
  240POPC   C4A 3309   3.980   1.257   5.865
  240POPC   C1B 3310   4.320   0.930   4.682
  240POPC   C2B 3311   4.167   0.746   5.026
  240POPC   C3B 3312   4.267   0.623   5.395
  240POPC   C4B 3313   4.306   0.774   5.799
  241POPC   NC3 3314   9.916   9.343   3.874
  241POPC   PO4 3315  10.049   9.983   4.012
  241POPC   GL1 3316   9.887   9.672   4.259
  241POPC   GL2 3317  10.218   9.613   4.381
  241POPC   C1A 3318   9.822   9.708   4.697
  241POPC   D2A 3319  10.170   9.583   4.976
  241POPC   C3A 3320  10.170   9.655   5.421
  241POPC   C4A 3321   9.866   9.586   5.789
  241POPC   C1B 3322  10.021   9.241   4.586
  241POPC   C2B 3323  10.086   9.057   4.989
  241POPC   C3B 3324  10.353   9.172   5.316
  241POPC   C4B 3325  10.194   9.184   5.718
  242POPC   NC3 3326   6.326   7.785   4.006
  242POPC   PO4 3327   6.289   8.402   4.052
  242POPC   GL1 3328   6.655   8.334   4.254
  242POPC   GL2 3329   6.513   8.066   4.404
  242POPC   C1A 3330   6.832   8.379   4.668
  242POPC   D2A 3331   6.935   8.191   5.069
  242POPC   C3A 3332   6.680   8.181   5.421
  242POPC   C4A 3333   6.742   8.063   5.827
  242POPC   C1B 3334   6.512   8.008   4.853
  242POPC   C2B 3335   6.539   7.743   5.205
  242POPC   C3B 3336   6.403   7.744   5.630
  242POPC   C4B 3337   6.554   7.597   6.037
  243POPC   NC3 3338   8.585   0.794   3.913
  243POPC   PO4 3339   8.709   1.498   3.961
  243POPC   GL1 3340   8.777   1.151   4.242
  243POPC   GL2 3341   8.978   1.379   4.404
  243POPC   C1A 3342   8.892   0.941   4.657
  243POPC   D2A 3343   8.700   1.006   5.095
  243POPC   C3A 3344   8.803   0.741   5.448
  243POPC   C4A 3345   8.689   0.913   5.847
  243POPC   C1B 3346   8.785   1.445   4.822
  243POPC   C2B 3347   8.754   1.517   5.268
  243POPC   C3B 3348   8.591   1.350   5.614
  243POPC   C4B 3349   8.569   1.417   6.061
  244POPC   NC3 3350   2.565   9.445   3.816
  244POPC   PO4 3351   2.904   8.918   4.022
  244POPC   GL1 3352   2.536   9.129   4.240
  244POPC   GL2 3353   2.682   9.440   4.305
  244POPC   C1A 3354   2.305   9.281   4.619
  244POPC   D2A 3355   2.349   9.043   5.017
  244POPC   C3A 3356   2.282   9.231   5.414
  244POPC   C4A 3357   2.480   9.290   5.826
  244POPC   C1B 3358   2.818   9.349   4.719
  244POPC   C2B 3359   2.837   9.568   5.115
  244POPC   C3B 3360   2.593   9.645   5.479
  244POPC   C4B 3361   2.714   9.746   5.919
  245POPC   NC3 3362   5.772   8.617   4.031
  245POPC   PO4 3363   5.304   8.236   4.095
  245POPC   GL1 3364   5.305   8.649   4.310
  245POPC   GL2 3365   5.589   8.848   4.440
  245POPC   C1A 3366   5.249   8.700   4.758
  245POPC   D2A 3367   5.447   8.504   5.093
  245POPC   C3A 3368   5.302   8.665   5.445
  245POPC   C4A 3369   5.444   8.679   5.842
  245POPC   C1B 3370   5.799   8.656   4.736
  245POPC   C2B 3371   5.962   8.589   5.140
  245POPC   C3B 3372   5.814   8.478   5.524
  245POPC   C4B 3373   5.965   8.684   5.889
  246POPC   NC3 3374   9.231   3.412   3.817
  246POPC   PO4 3375   9.690   3.747   4.095
  246POPC   GL1 3376   9.401   3.519   4.306
  246POPC   GL2 3377   9.372   3.155   4.239
  246POPC   C1A 3378   9.440   3.609   4.718
  246POPC   D2A 3379   9.723   3.765   4.998
  246POPC   C3A 3380   9.554   3.679   5.420
  246POPC   C4A 3381   9.576   3.435   5.817
  246POPC   C1B 3382   9.567   3.109   4.640
  246POPC   C2B 3383   9.629   3.261   5.082
  246POPC   C3B 3384   9.342   3.181   5.450
  246POPC   C4B 3385   9.106   3.136   5.840
  247POPC   NC3 3386   0.262   1.852   3.799
  247POPC   PO4 3387   0.703   1.895   4.213
  247POPC   GL1 3388   0.468   1.641   4.414
  247POPC   GL2 3389   0.122   1.719   4.307
  247POPC   C1A 3390   0.338   1.748   4.802
  247POPC   D2A 3391   0.501   1.933   5.150
  247POPC   C3A 3392   0.578   1.681   5.462
  247POPC   C4A 3393   0.752   1.660   5.835
  247POPC   C1B 3394   0.163   2.151   4.541
  247POPC   C2B 3395   0.064   2.142   5.002
  247POPC   C3B 3396   0.185   2.212   5.434
  247POPC   C4B 3397   0.321   1.968   5.794
  248POPC   NC3 3398   9.454   0.152   3.861
  248POPC   PO4 3399   9.043   0.767   3.843
  248POPC   GL1 3400   9.321   0.614   4.193
  248POPC   GL2 3401   9.377   0.339   4.360
  248POPC   C1A 3402   9.352   0.689   4.698
  248POPC   D2A 3403   9.193   0.872   5.083
  248POPC   C3A 3404   9.382   0.735   5.495
  248POPC   C4A 3405   9.770   0.780   5.778
  248POPC   C1B 3406   9.335   0.098   4.771
  248POPC   C2B 3407   9.507  10.484   5.176
  248POPC   C3B 3408   9.422   0.202   5.557
  248POPC   C4B 3409   9.228   0.221   5.940
  249POPC   NC3 3410   8.460   3.295   3.926
  249POPC   PO4 3411   8.874   3.806   3.873
  249POPC   GL1 3412   8.693   3.627   4.234
  249POPC   GL2 3413   8.905   3.380   4.235
  249POPC   C1A 3414   8.605   3.413   4.643
  249POPC   D2A 3415   8.618   3.267   5.068
  249POPC   C3A 3416   8.423   3.565   5.333
  249POPC   C4A 3417   8.407   3.711   5.729
  249POPC   C1B 3418   9.073   3.252   4.637
  249POPC   C2B 3419   9.131   3.395   5.054
  249POPC   C3B 3420   8.916   3.464   5.460
  249POPC   C4B 3421   8.576   3.195   5.642
  250POPC   NC3 3422  10.242   5.765   3.886
  250POPC   PO4 3423   0.302   5.563   3.976
  250POPC   GL1 3424   0.104   5.565   4.383
  250POPC   GL2 3425  10.292   5.725   4.377
  250POPC   C1A 3426  10.475   5.540   4.825
  250POPC   D2A 3427   0.015   5.340   5.211
  250POPC   C3A 3428  10.258   5.549   5.478
  250POPC   C4A 3429  10.459   5.738   5.783
  250POPC   C1B 3430  10.097   5.898   4.705
  250POPC   C2B 3431  10.099   5.831   5.067
  250POPC   C3B 3432   9.774   5.887   5.362
  250POPC   C4B 3433   9.908   5.813   5.771
  251POPC   NC3 3434   9.064   9.829   3.681
  251POPC   PO4 3435   9.455   9.275   3.815
  251POPC   GL1 3436   9.224   9.404   4.178
  251POPC   GL2 3437   9.353   9.121   4.327
  251POPC   C1A 3438   9.271   9.617   4.599
  251POPC   D2A 3439   9.371   9.823   5.004
  251POPC   C3A 3440   9.466   9.689   5.403
  251POPC   C4A 3441   9.420   9.858   5.803
  251POPC   C1B 3442   9.521   9.214   4.706
  251POPC   C2B 3443   9.677   9.381   5.032
  251POPC   C3B 3444   9.812   9.307   5.372
  251POPC   C4B 3445   9.505   9.251   5.664
  252POPC   NC3 3446   3.080   5.507   4.072
  252POPC   PO4 3447   2.440   5.497   3.947
  252POPC   GL1 3448   2.610   5.583   4.307
  252POPC   GL2 3449   2.577   5.926   4.419
  252POPC   C1A 3450   2.649   5.481   4.732
  252POPC   D2A 3451   2.406   5.388   5.080
  252POPC   C3A 3452   2.647   5.303   5.480
  252POPC   C4A 3453   2.616   5.355   5.945
  252POPC   C1B 3454   2.573   5.970   4.878
  252POPC   C2B 3455   2.757   5.746   5.221
  252POPC   C3B 3456   2.791   5.769   5.661
  252POPC   C4B 3457   2.830   6.146   5.946
  253POPC   NC3 3458   2.186   3.619   3.700
  253POPC   PO4 3459   1.636   3.320   4.004
  253POPC   GL1 3460   1.966   3.207   4.238
  253POPC   GL2 3461   1.971   3.545   4.324
  253POPC   C1A 3462   1.975   3.125   4.669
  253POPC   D2A 3463   1.769   3.219   5.065
  253POPC   C3A 3464   1.964   3.193   5.460
  253POPC   C4A 3465   2.135   3.511   5.715
  253POPC   C1B 3466   1.844   3.629   4.741
  253POPC   C2B 3467   2.103   3.598   5.125
  253POPC   C3B 3468   1.765   3.681   5.385
  253POPC   C4B 3469   1.658   3.680   5.791
  254POPC   NC3 3470   0.296   4.169   3.827
  254POPC   PO4 3471   0.880   3.975   3.968
  254POPC   GL1 3472   0.573   4.250   4.235
  254POPC   GL2 3473   0.218   4.135   4.303
  254POPC   C1A 3474   0.474   4.386   4.663
  254POPC   D2A 3475   0.237   4.354   5.036
  254POPC   C3A 3476   0.401   4.434   5.428
  254POPC   C4A 3477   0.379   4.242   5.804
  254POPC   C1B 3478   0.453   3.883   4.572
  254POPC   C2B 3479   0.526   3.886   5.011
  254POPC   C3B 3480   0.303   3.932   5.389
  254POPC   C4B 3481  10.485   3.882   5.751
  255POPC   NC3 3482   5.047   1.270   3.896
  255POPC   PO4 3483   4.661   0.748   3.628
  255POPC   GL1 3484   4.726   0.952   4.069
  255POPC   GL2 3485   5.010   0.863   4.243
  255POPC   C1A 3486   4.733   1.191   4.491
  255POPC   D2A 3487   4.666   1.252   4.933
  255POPC   C3A 3488   4.572   1.009   5.294
  255POPC   C4A 3489   4.511   1.225   5.710
  255POPC   C1B 3490   5.066   0.829   4.675
  255POPC   C2B 3491   5.111   1.036   5.086
  255POPC   C3B 3492   4.985   1.239   5.472
  255POPC   C4B 3493   4.980   0.973   5.815
  256POPC   NC3 3494   8.012   8.782   3.839
  256POPC   PO4 3495   7.641   8.333   4.084
  256POPC   GL1 3496   7.819   8.392   4.412
  256POPC   GL2 3497   8.003   8.673   4.338
  256POPC   C1A 3498   7.843   8.279   4.819
  256POPC   D2A 3499   8.100   8.333   5.179
  256POPC   C3A 3500   7.799   8.365   5.507
  256POPC   C4A 3501   7.759   8.545   5.879
  256POPC   C1B 3502   8.206   8.616   4.740
  256POPC   C2B 3503   8.228   8.875   5.128
  256POPC   C3B 3504   8.083   8.785   5.558
  256POPC   C4B 3505   8.076   8.886   6.043
  257POPC   NC3 3506   2.779   4.423   3.653
  257POPC   PO4 3507   2.323   4.680   4.051
  257POPC   GL1 3508   2.233   4.448   4.426
  257POPC   GL2 3509   2.498   4.209   4.327
  257POPC   C1A 3510   2.231   4.496   4.902
  257POPC   D2A 3511   2.564   4.520   5.203
  257POPC   C3A 3512   2.622   4.275   5.562
  257POPC   C4A 3513   2.576   4.396   5.993
  257POPC   C1B 3514   2.654   4.273   4.749
  257POPC   C2B 3515   2.963   4.182   5.064
  257POPC   C3B 3516   3.131   4.225   5.483
  257POPC   C4B 3517   3.005   4.146   5.910
  258POPC   NC3 3518   5.733   1.344   3.838
  258POPC   PO4 3519   5.391   0.844   3.931
  258POPC   GL1 3520   5.417   1.195   4.235
  258POPC   GL2 3521   5.756   1.266   4.332
  258POPC   C1A 3522   5.326   1.271   4.669
  258POPC   D2A 3523   5.623   1.254   5.044
  258POPC   C3A 3524   5.484   1.295   5.475
  258POPC   C4A 3525   5.345   1.348   5.951
  258POPC   C1B 3526   5.783   0.949   4.640
  258POPC   C2B 3527   6.050   0.945   5.010
  258POPC   C3B 3528   6.011   1.149   5.426
  258POPC   C4B 3529   5.808   1.115   5.833
  259POPC   NC3 3530   9.269   5.836   4.106
  259POPC   PO4 3531   9.814   5.717   3.728
  259POPC   GL1 3532   9.695   5.654   4.343
  259POPC   GL2 3533   9.382   5.522   4.497
  259POPC   C1A 3534   9.682   5.642   4.846
  259POPC   D2A 3535   9.866   5.398   5.137
  259POPC   C3A 3536   9.689   5.399   5.493
  259POPC   C4A 3537   9.680   5.150   5.824
  259POPC   C1B 3538   9.232   5.904   4.746
  259POPC   C2B 3539   9.262   5.793   5.174
  259POPC   C3B 3540   9.197   5.897   5.590
  259POPC   C4B 3541   9.336   5.548   5.809
  260POPC   NC3 3542   6.105   9.304   3.907
  260POPC   PO4 3543   5.501   9.026   3.988
  260POPC   GL1 3544   5.735   9.297   4.267
  260POPC   GL2 3545   5.537   9.550   4.222
  260POPC   C1A 3546   5.817   9.202   4.727
  260POPC   D2A 3547   5.616   8.995   5.077
  260POPC   C3A 3548   5.732   8.989   5.504
  260POPC   C4A 3549   5.674   9.125   5.922
  260POPC   C1B 3550   5.553   9.622   4.681
  260POPC   C2B 3551   5.404   9.505   5.122
  260POPC   C3B 3552   5.494   9.473   5.586
  260POPC   C4B 3553   5.769   9.759   5.843
  261POPC   NC3 3554   9.397   6.954   3.919
  261POPC   PO4 3555   9.643   7.590   3.835
  261POPC   GL1 3556   9.532   7.594   4.260
  261POPC   GL2 3557   9.385   7.291   4.311
  261POPC   C1A 3558   9.657   7.457   4.684
  261POPC   D2A 3559   9.791   7.376   5.088
  261POPC   C3A 3560   9.538   7.197   5.378
  261POPC   C4A 3561   9.614   7.240   5.799
  261POPC   C1B 3562   9.145   7.386   4.685
  261POPC   C2B 3563   9.286   7.090   4.948
  261POPC   C3B 3564   9.197   6.814   5.276
  261POPC   C4B 3565   9.202   6.948   5.674
  262POPC   NC3 3566   2.748   1.781   3.813
  262POPC   PO4 3567   2.801   2.456   3.818
  262POPC   GL1 3568   2.716   2.286   4.302
  262POPC   GL2 3569   2.539   1.935   4.351
  262POPC   C1A 3570   2.768   2.104   4.775
  262POPC   D2A 3571   3.033   2.283   5.122
  262POPC   C3A 3572   2.981   2.077   5.552
  262POPC   C4A 3573   2.822   2.065   5.979
  262POPC   C1B 3574   2.431   1.698   4.680
  262POPC   C2B 3575   2.283   1.844   5.065
  262POPC   C3B 3576   2.484   1.966   5.421
  262POPC   C4B 3577   2.476   1.733   5.763
  263POPC   NC3 3578   4.135   1.925   3.892
  263POPC   PO4 3579   4.667   1.532   3.879
  263POPC   GL1 3580   4.323   1.617   4.264
  263POPC   GL2 3581   4.262   1.997   4.361
  263POPC   C1A 3582   4.112   1.700   4.726
  263POPC   D2A 3583   3.868   1.932   5.061
  263POPC   C3A 3584   3.871   1.800   5.486
  263POPC   C4A 3585   4.219   1.656   5.703
  263POPC   C1B 3586   4.497   2.164   4.718
  263POPC   C2B 3587   4.404   1.974   5.115
  263POPC   C3B 3588   4.337   2.125   5.533
  263POPC   C4B 3589   4.578   2.405   5.803
  264POPC   NC3 3590   2.985  10.141   4.025
  264POPC   PO4 3591   2.404   0.023   3.913
  264POPC   GL1 3592   2.546  10.253   4.273
  264POPC   GL2 3593   2.520   9.899   4.136
  264POPC   C1A 3594   2.822  10.311   4.671
  264POPC   D2A 3595   2.793   0.007   5.096
  264POPC   C3A 3596   3.010  10.385   5.493
  264POPC   C4A 3597   2.907  10.213   5.888
  264POPC   C1B 3598   2.492   9.822   4.606
  264POPC   C2B 3599   2.573  10.012   5.033
  264POPC   C3B 3600   2.544  10.161   5.470
  264POPC   C4B 3601   2.389  10.138   5.909
  265POPC   NC3 3602   4.335   0.326   3.715
  265POPC   PO4 3603   3.825   0.802   3.820
  265POPC   GL1 3604   3.925   0.673   4.264
  265POPC   GL2 3605   4.031   0.299   4.274
  265POPC   C1A 3606   3.801   0.588   4.694
  265POPC   D2A 3607   3.589   0.469   5.092
  265POPC   C3A 3608   3.812   0.483   5.497
  265POPC   C4A 3609   3.795   0.785   5.825
  265POPC   C1B 3610   4.249   0.346   4.676
  265POPC   C2B 3611   4.072   0.234   5.045
  265POPC   C3B 3612   4.219   0.087   5.391
  265POPC   C4B 3613   4.283   0.274   5.763
  266POPC   NC3 3614   1.278   6.964   3.879
  266POPC   PO4 3615   0.904   7.436   4.038
  266POPC   GL1 3616   1.059   7.102   4.306
  266POPC   GL2 3617   1.406   7.241   4.337
  266POPC   C1A 3618   1.298   6.845   4.609
  266POPC   D2A 3619   1.284   6.701   5.033
  266POPC   C3A 3620   1.220   6.890   5.459
  266POPC   C4A 3621   1.311   6.963   5.912
  266POPC   C1B 3622   1.196   7.316   4.765
  266POPC   C2B 3623   1.310   7.323   5.201
  266POPC   C3B 3624   1.226   7.371   5.651
  266POPC   C4B 3625   0.848   7.594   5.833
  267POPC   NC3 3626   7.585   2.449   3.867
  267POPC   PO4 3627   8.074   2.976   3.998
  267POPC   GL1 3628   7.975   2.614   4.244
  267POPC   GL2 3629   7.643   2.673   4.317
  267POPC   C1A 3630   8.080   2.430   4.644
  267POPC   D2A 3631   8.147   2.681   5.019
  267POPC   C3A 3632   8.106   2.501   5.419
  267POPC   C4A 3633   7.821   2.473   5.766
  267POPC   C1B 3634   7.767   2.811   4.698
  267POPC   C2B 3635   7.674   2.879   5.102
  267POPC   C3B 3636   7.803   2.895   5.475
  267POPC   C4B 3637   7.705   2.971   5.851
  268POPC   NC3 3638   1.702   9.331   3.855
  268POPC   PO4 3639   1.634  10.011   3.677
  268POPC   GL1 3640   1.931   9.847   4.096
  268POPC   GL2 3641   2.074   9.506   4.188
  268POPC   C1A 3642   1.978   9.760   4.607
  268POPC   D2A 3643   2.196   9.632   5.030
  268POPC   C3A 3644   1.923   9.585   5.425
  268POPC   C4A 3645   2.027   9.594   5.890
  268POPC   C1B 3646   1.780   9.292   4.506
  268POPC   C2B 3647   1.871   9.241   4.939
  268POPC   C3B 3648   1.731   9.114   5.313
  268POPC   C4B 3649   1.884   9.135   5.718
  269POPC   NC3 3650   9.152   1.823   3.874
  269POPC   PO4 3651   8.554   2.126   4.096
  269POPC   GL1 3652   8.938   2.074   4.342
  269POPC   GL2 3653   8.741   1.815   4.472
  269POPC   C1A 3654   8.948   2.182   4.799
  269POPC   D2A 3655   8.704   2.023   5.161
  269POPC   C3A 3656   8.710   2.231   5.548
  269POPC   C4A 3657   8.649   1.855   5.797
  269POPC   C1B 3658   8.445   2.070   4.721
  269POPC   C2B 3659   8.197   2.142   5.067
  269POPC   C3B 3660   8.258   2.024   5.487
  269POPC   C4B 3661   8.274   2.237   5.879
  270POPC   NC3 3662   2.835   2.930   3.890
  270POPC   PO4 3663   2.312   2.596   4.136
  270POPC   GL1 3664   2.551   2.890   4.318
  270POPC   GL2 3665   2.896   2.772   4.363
  270POPC   C1A 3666   2.490   3.022   4.711
  270POPC   D2A 3667   2.252   3.017   5.078
  270POPC   C3A 3668   2.373   2.861   5.455
  270POPC   C4A 3669   2.349   3.037   5.853
  270POPC   C1B 3670   2.724   2.591   4.714
  270POPC   C2B 3671   2.726   2.723   5.108
  270POPC   C3B 3672   2.685   2.468   5.454
  270POPC   C4B 3673   2.687   2.577   5.843
  271POPC   NC3 3674  10.089   8.707   3.627
  271POPC   PO4 3675  10.139   8.077   3.726
  271POPC   GL1 3676  10.093   8.380   4.097
  271POPC   GL2 3677  10.233   8.708   4.151
  271POPC   C1A 3678   9.957   8.355   4.543
  271POPC   D2A 3679  10.041   8.517   4.992
  271POPC   C3A 3680   9.947   8.341   5.371
  271POPC   C4A 3681   9.880   8.427   5.778
  271POPC   C1B 3682  10.285   8.773   4.613
  271POPC   C2B 3683   0.018   8.754   5.031
  271POPC   C3B 3684  10.381   8.680   5.482
  271POPC   C4B 3685  10.269   8.728   5.929
  272POPC   NC3 3686   8.900   4.750   3.924
  272POPC   PO4 3687   9.147   5.389   4.099
  272POPC   GL1 3688   8.781   5.248   4.338
  272POPC   GL2 3689   8.754   4.914   4.358
  272POPC   C1A 3690   8.629   5.142   4.775
  272POPC   D2A 3691   8.910   5.031   5.105
  272POPC   C3A 3692   8.688   5.036   5.452
  272POPC   C4A 3693   8.782   4.818   5.800
  272POPC   C1B 3694   8.824   4.669   4.716
  272POPC   C2B 3695   8.582   4.670   5.036
  272POPC   C3B 3696   8.545   4.543   5.383
  272POPC   C4B 3697   8.310   4.723   5.667
  273POPC   NC3 3698  10.142   3.125   3.778
  273POPC   PO4 3699   9.786   2.640   3.986
  273POPC   GL1 3700   9.939   2.772   4.375
  273POPC   GL2 3701  10.273   2.654   4.359
  273POPC   C1A 3702  10.018   2.894   4.796
  273POPC   D2A 3703   9.934   2.872   5.207
  273POPC   C3A 3704   9.828   3.074   5.570
  273POPC   C4A 3705   9.901   2.845   5.947
  273POPC   C1B 3706  10.444   2.584   4.775
  273POPC   C2B 3707  10.281   2.517   5.177
  273POPC   C3B 3708  10.180   2.572   5.582
  273POPC   C4B 3709  10.419   2.307   5.844
  274POPC   NC3 3710   0.322   0.854   3.773
  274POPC   PO4 3711   0.892   0.992   4.052
  274POPC   GL1 3712   0.647   0.967   4.436
  274POPC   GL2 3713   0.291   0.899   4.299
  274POPC   C1A 3714   0.646   0.969   4.920
  274POPC   D2A 3715   0.285   0.825   5.193
  274POPC   C3A 3716   0.324   0.809   5.664
  274POPC   C4A 3717   0.670   0.954   5.839
  274POPC   C1B 3718   0.254   1.239   4.637
  274POPC   C2B 3719   0.321   1.339   5.078
  274POPC   C3B 3720   0.315   1.261   5.460
  274POPC   C4B 3721   0.359   1.367   5.838
  275POPC   NC3 3722   4.219   9.619   3.813
  275POPC   PO4 3723   4.237  10.346   3.702
  275POPC   GL1 3724   4.139  10.271   4.155
  275POPC   GL2 3725   3.835  10.206   4.354
  275POPC   C1A 3726   4.287  10.321   4.597
  275POPC   D2A 3727   4.552  10.495   4.935
  275POPC   C3A 3728   4.660  10.329   5.374
  275POPC   C4A 3729   4.430  10.280   5.763
  275POPC   C1B 3730   3.940   9.962   4.715
  275POPC   C2B 3731   4.160  10.148   5.083
  275POPC   C3B 3732   4.026  10.092   5.509
  275POPC   C4B 3733   3.960  10.121   5.983
  276POPC   NC3 3734   6.546   8.784   4.033
  276POPC   PO4 3735   6.556   9.431   3.931
  276POPC   GL1 3736   6.563   9.233   4.302
  276POPC   GL2 3737   6.240   9.266   4.414
  276POPC   C1A 3738   6.642   9.244   4.759
  276POPC   D2A 3739   6.364   9.472   5.057
  276POPC   C3A 3740   6.457   9.489   5.504
  276POPC   C4A 3741   6.764   9.472   5.781
  276POPC   C1B 3742   6.069   9.635   4.631
  276POPC   C2B 3743   5.886   9.686   5.065
  276POPC   C3B 3744   5.967   9.457   5.452
  276POPC   C4B 3745   6.162   9.184   5.785
  277POPC   NC3 3746   1.337   5.341   3.926
  277POPC   PO4 3747   1.039   5.962   4.010
  277POPC   GL1 3748   1.049   5.573   4.274
  277POPC   GL2 3749   1.410   5.591   4.341
  277POPC   C1A 3750   1.100   5.325   4.677
  277POPC   D2A 3751   0.914   5.557   5.021
  277POPC   C3A 3752   1.062   5.447   5.440
  277POPC   C4A 3753   0.875   5.770   5.694
  277POPC   C1B 3754   1.289   5.797   4.689
  277POPC   C2B 3755   1.405   5.651   5.089
  277POPC   C3B 3756   1.282   5.883   5.412
  277POPC   C4B 3757   1.431   5.964   5.776
  278POPC   NC3 3758   1.194   3.740   3.727
  278POPC   PO4 3759   1.471   4.232   4.081
  278POPC   GL1 3760   1.247   4.109   4.374
  278POPC   GL2 3761   1.025   4.373   4.415
  278POPC   C1A 3762   1.414   4.119   4.776
  278POPC   D2A 3763   1.354   4.353   5.142
  278POPC   C3A 3764   1.396   4.061   5.475
  278POPC   C4A 3765   1.301   4.015   5.918
  278POPC   C1B 3766   0.909   4.146   4.784
  278POPC   C2B 3767   0.837   4.256   5.209
  278POPC   C3B 3768   0.894   4.279   5.647
  278POPC   C4B 3769   0.796   4.035   6.000
  279POPC   NC3 3770  10.007   1.520   3.847
  279POPC   PO4 3771  10.363   2.066   3.826
  279POPC   GL1 3772  10.145   1.965   4.231
  279POPC   GL2 3773   9.908   2.253   4.345
  279POPC   C1A 3774  10.275   1.868   4.661
  279POPC   D2A 3775  10.383   1.612   5.011
  279POPC   C3A 3776   0.069   1.718   5.354
  279POPC   C4A 3777  10.438   1.653   5.738
  279POPC   C1B 3778   9.996   2.312   4.764
  279POPC   C2B 3779  10.060   2.033   5.085
  279POPC   C3B 3780  10.182   2.060   5.469
  279POPC   C4B 3781  10.032   1.944   5.852
  280POPC   NC3 3782   9.263   3.998   4.057
  280POPC   PO4 3783   9.780   4.172   3.660
  280POPC   GL1 3784   9.698   4.244   4.162
  280POPC   GL2 3785   9.603   4.529   4.262
  280POPC   C1A 3786   9.452   4.128   4.635
  280POPC   D2A 3787   9.266   4.022   5.048
  280POPC   C3A 3788   9.423   4.190   5.447
  280POPC   C4A 3789   9.534   3.984   5.854
  280POPC   C1B 3790   9.488   4.644   4.674
  280POPC   C2B 3791   9.240   4.582   5.024
  280POPC   C3B 3792   9.041   4.611   5.397
  280POPC   C4B 3793   9.108   4.417   5.783
  281POPC   NC3 3794   2.615   7.787   3.813
  281POPC   PO4 3795   2.173   8.343   4.009
  281POPC   GL1 3796   2.492   8.044   4.242
  281POPC   GL2 3797   2.527   7.646   4.272
  281POPC   C1A 3798   2.622   8.114   4.685
  281POPC   D2A 3799   2.751   8.135   5.139
  281POPC   C3A 3800   2.406   8.150   5.448
  281POPC   C4A 3801   2.358   7.942   5.849
  281POPC   C1B 3802   2.764   7.630   4.660
  281POPC   C2B 3803   2.590   7.609   5.043
  281POPC   C3B 3804   2.650   7.717   5.436
  281POPC   C4B 3805   2.731   7.589   5.813
  282POPC   NC3 3806   0.638   6.201   3.969
  282POPC   PO4 3807   0.229   6.683   4.045
  282POPC   GL1 3808   0.436   6.491   4.356
  282POPC   GL2 3809   0.672   6.743   4.362
  282POPC   C1A 3810   0.356   6.521   4.789
  282POPC   D2A 3811   0.269   6.241   5.107
  282POPC   C3A 3812   0.135   6.387   5.493
  282POPC   C4A 3813   0.366   6.578   5.747
  282POPC   C1B 3814   0.865   6.620   4.727
  282POPC   C2B 3815   0.790   6.512   5.125
  282POPC   C3B 3816   0.728   6.751   5.453
  282POPC   C4B 3817   0.875   6.681   5.870
  283POPC   NC3 3818  10.021   7.664   3.592
  283POPC   PO4 3819  10.425   7.626   4.106
  283POPC   GL1 3820  10.047   7.639   4.353
  283POPC   GL2 3821   9.997   7.910   4.242
  283POPC   C1A 3822   9.885   7.885   4.737
  283POPC   D2A 3823  10.086   7.928   5.112
  283POPC   C3A 3824  10.114   7.600   5.404
  283POPC   C4A 3825  10.328   7.427   5.737
  283POPC   C1B 3826  10.347   8.037   4.569
  283POPC   C2B 3827  10.478   8.238   4.929
  283POPC   C3B 3828  10.442   8.198   5.358
  283POPC   C4B 3829  10.178   8.015   5.689
  284POPC   NC3 3830   8.451   7.116   4.137
  284POPC   PO4 3831   8.963   6.940   3.739
  284POPC   GL1 3832   8.935   7.092   4.210
  284POPC   GL2 3833   8.820   7.449   4.305
  284POPC   C1A 3834   8.841   6.971   4.662
  284POPC   D2A 3835   8.765   7.061   5.106
  284POPC   C3A 3836   9.039   7.308   5.355
  284POPC   C4A 3837   9.162   7.459   5.762
  284POPC   C1B 3838   8.570   7.418   4.730
  284POPC   C2B 3839   8.323   7.307   5.129
  284POPC   C3B 3840   8.430   7.161   5.514
  284POPC   C4B 3841   8.640   7.529   5.559
  285POPC   NC3 3842   6.470   0.286   3.931
  285POPC   PO4 3843   6.130   1.034   3.935
  285POPC   GL1 3844   6.247   0.601   4.244
  285POPC   GL2 3845   6.635   0.495   4.345
  285POPC   C1A 3846   6.112   0.493   4.681
  285POPC   D2A 3847   5.979   0.446   5.132
  285POPC   C3A 3848   6.240   0.678   5.434
  285POPC   C4A 3849   6.175   0.680   5.864
  285POPC   C1B 3850   6.583   0.251   4.678
  285POPC   C2B 3851   6.513   0.444   5.055
  285POPC   C3B 3852   6.593   0.290   5.446
  285POPC   C4B 3853   6.545   0.348   5.834
  286POPC   NC3 3854   4.452   9.316   4.170
  286POPC   PO4 3855   3.869   9.790   4.046
  286POPC   GL1 3856   4.225   9.780   4.305
  286POPC   GL2 3857   4.109   9.490   4.504
  286POPC   C1A 3858   4.446   9.813   4.688
  286POPC   D2A 3859   4.230   9.634   5.032
  286POPC   C3A 3860   4.430   9.804   5.384
  286POPC   C4A 3861   4.266   9.726   5.768
  286POPC   C1B 3862   4.263   9.158   4.778
  286POPC   C2B 3863   4.140   9.003   5.169
  286POPC   C3B 3864   4.260   9.242   5.524
  286POPC   C4B 3865   3.981   9.312   5.873
  287POPC   NC3 3866   8.494   4.073   3.954
  287POPC   PO4 3867   9.045   4.397   4.185
  287POPC   GL1 3868   8.639   4.424   4.283
  287POPC   GL2 3869   8.693   4.096   4.422
  287POPC   C1A 3870   8.365   4.417   4.625
  287POPC   D2A 3871   8.562   4.181   4.937
  287POPC   C3A 3872   8.354   4.070   5.307
  287POPC   C4A 3873   8.435   4.207   5.720
  287POPC   C1B 3874   8.953   3.801   4.651
  287POPC   C2B 3875   8.809   3.773   5.065
  287POPC   C3B 3876   8.865   4.077   5.402
  287POPC   C4B 3877   9.032   3.921   5.775
  288POPC   NC3 3878   8.268   1.605   3.717
  288POPC   PO4 3879   7.769   2.040   3.822
  288POPC   GL1 3880   7.752   2.143   4.270
  288POPC   GL2 3881   8.042   2.003   4.382
  288POPC   C1A 3882   7.688   2.080   4.730
  288POPC   D2A 3883   7.732   2.363   5.059
  288POPC   C3A 3884   7.765   2.114   5.400
  288POPC   C4A 3885   7.540   2.048   5.744
  288POPC   C1B 3886   8.036   1.730   4.785
  288POPC   C2B 3887   8.288   1.633   5.136
  288POPC   C3B 3888   8.134   1.543   5.561
  288POPC   C4B 3889   7.995   1.803   5.890
  289POPC   NC3 3890   9.861   2.180   3.853
  289POPC   PO4 3891   9.525   1.524   3.775
  289POPC   GL1 3892   9.634   1.820   4.125
  289POPC   GL2 3893   9.376   1.717   4.312
  289POPC   C1A 3894   9.782   1.834   4.601
  289POPC   D2A 3895   9.634   1.753   4.999
  289POPC   C3A 3896   9.624   1.937   5.403
  289POPC   C4A 3897   9.532   1.778   5.766
  289POPC   C1B 3898   9.203   1.729   4.692
  289POPC   C2B 3899   9.146   1.774   5.101
  289POPC   C3B 3900   9.096   1.884   5.509
  289POPC   C4B 3901   9.252   2.254   5.704
  290POPC   NC3 3902   3.300   8.358   3.713
  290POPC   PO4 3903   3.000   7.813   4.084
  290POPC   GL1 3904   3.369   7.890   4.308
  290POPC   GL2 3905   3.413   7.530   4.309
  290POPC   C1A 3906   3.435   8.193   4.704
  290POPC   D2A 3907   3.275   8.243   5.153
  290POPC   C3A 3908   3.505   8.143   5.552
  290POPC   C4A 3909   3.803   8.122   5.918
  290POPC   C1B 3910   3.283   7.686   4.755
  290POPC   C2B 3911   3.405   7.721   5.197
  290POPC   C3B 3912   3.171   7.770   5.583
  290POPC   C4B 3913   2.891   8.093   5.677
  291POPC   NC3 3914   0.362   5.116   3.899
  291POPC   PO4 3915   0.081   4.541   3.966
  291POPC   GL1 3916   0.259   4.690   4.300
  291POPC   GL2 3917   0.260   5.073   4.395
  291POPC   C1A 3918   0.063   4.703   4.686
  291POPC   D2A 3919   0.157   4.878   5.030
  291POPC   C3A 3920   0.025   4.795   5.421
  291POPC   C4A 3921   0.140   5.157   5.693
  291POPC   C1B 3922   0.588   4.894   4.623
  291POPC   C2B 3923   0.627   4.705   5.026
  291POPC   C3B 3924   0.544   4.916   5.408
  291POPC   C4B 3925   0.654   4.733   5.777
  292POPC   NC3 3926   0.944   8.596   3.846
  292POPC   PO4 3927   0.645   9.155   3.976
  292POPC   GL1 3928   0.912   8.915   4.269
  292POPC   GL2 3929   1.283   8.889   4.321
  292POPC   C1A 3930   0.930   8.697   4.676
  292POPC   D2A 3931   0.694   8.629   5.075
  292POPC   C3A 3932   0.915   8.648   5.474
  292POPC   C4A 3933   0.885   8.888   5.862
  292POPC   C1B 3934   1.447   8.890   4.746
  292POPC   C2B 3935   1.388   8.614   5.111
  292POPC   C3B 3936   1.588   8.667   5.512
  292POPC   C4B 3937   1.382   9.013   5.716
  293POPC   NC3 3938   7.927   9.766   3.997
  293POPC   PO4 3939   7.920   9.202   3.675
  293POPC   GL1 3940   7.952   9.179   4.191
  293POPC   GL2 3941   7.916   9.488   4.416
  293POPC   C1A 3942   7.977   9.071   4.685
  293POPC   D2A 3943   8.147   9.395   5.031
  293POPC   C3A 3944   8.195   9.282   5.477
  293POPC   C4A 3945   8.208   9.707   5.698
  293POPC   C1B 3946   7.680   9.472   4.759
  293POPC   C2B 3947   7.689   9.242   5.121
  293POPC   C3B 3948   7.791   9.570   5.431
  293POPC   C4B 3949   7.805   9.351   5.818
  294POPC   NC3 3950   3.493   1.165   3.784
  294POPC   PO4 3951   3.169   0.916   4.289
  294POPC   GL1 3952   3.521   1.057   4.372
  294POPC   GL2 3953   3.530   1.415   4.239
  294POPC   C1A 3954   3.516   0.992   4.824
  294POPC   D2A 3955   3.732   0.956   5.141
  294POPC   C3A 3956   3.463   0.852   5.436
  294POPC   C4A 3957   3.372   1.069   5.809
  294POPC   C1B 3958   3.493   1.481   4.673
  294POPC   C2B 3959   3.652   1.468   5.072
  294POPC   C3B 3960   3.639   1.343   5.479
  294POPC   C4B 3961   3.523   1.538   5.858
  295POPC   NC3 3962   3.056   8.260   4.165
  295POPC   PO4 3963   3.479   8.761   3.902
  295POPC   GL1 3964   3.548   8.541   4.264
  295POPC   GL2 3965   3.220   8.684   4.387
  295POPC   C1A 3966   3.643   8.724   4.656
  295POPC   D2A 3967   3.473   8.799   5.037
  295POPC   C3A 3968   3.528   8.619   5.408
  295POPC   C4A 3969   3.135   8.526   5.579
  295POPC   C1B 3970   3.236   9.054   4.657
  295POPC   C2B 3971   3.197   9.217   5.069
  295POPC   C3B 3972   3.248   9.022   5.458
  295POPC   C4B 3973   3.513   9.123   5.764
  296POPC   NC3 3974   2.942   7.359   4.077
  296POPC   PO4 3975   3.462   7.028   4.093
  296POPC   GL1 3976   3.131   7.049   4.424
  296POPC   GL2 3977   2.787   6.907   4.264
  296POPC   C1A 3978   3.070   7.228   4.852
  296POPC   D2A 3979   3.011   7.387   5.286
  296POPC   C3A 3980   3.032   7.189   5.740
  296POPC   C4A 3981   2.921   7.190   6.217
  296POPC   C1B 3982   2.619   7.150   4.618
  296POPC   C2B 3983   2.603   7.097   5.065
  296POPC   C3B 3984   2.571   7.222   5.490
  296POPC   C4B 3985   2.517   7.105   5.924
  297POPC   NC3 3986   1.449   6.232   3.963
  297POPC   PO4 3987   0.881   6.712   3.868
  297POPC   GL1 3988   1.121   6.530   4.228
  297POPC   GL2 3989   0.910   6.259   4.392
  297POPC   C1A 3990   1.346   6.341   4.624
  297POPC   D2A 3991   1.186   6.188   5.020
  297POPC   C3A 3992   1.296   6.383   5.427
  297POPC   C4A 3993   1.363   6.468   5.852
  297POPC   C1B 3994   0.719   6.108   4.782
  297POPC   C2B 3995   0.742   6.012   5.247
  297POPC   C3B 3996   0.848   6.259   5.608
  297POPC   C4B 3997   1.013   6.163   6.032
  298POPC   NC3 3998   0.733   5.636   3.854
  298POPC   PO4 3999   0.223   6.179   3.723
  298POPC   GL1 4000   0.202   6.041   4.184
  298POPC   GL2 4001   0.556   5.853   4.323
  298POPC   C1A 4002   0.201   6.003   4.641
  298POPC   D2A 4003   0.405   5.748   4.968
  298POPC   C3A 4004   0.228   5.814   5.367
  298POPC   C4A 4005   0.411   6.043   5.722
  298POPC   C1B 4006   0.598   5.452   4.573
  298POPC   C2B 4007   0.502   5.249   4.980
  298POPC   C3B 4008   0.556   5.421   5.389
  298POPC   C4B 4009   0.426   5.548   5.780
  299POPC   NC3 4010   1.291   0.585   3.692
  299POPC   PO4 4011   0.936   0.158   3.984
  299POPC   GL1 4012   1.245   0.204   4.314
  299POPC   GL2 4013   1.415   0.563   4.268
  299POPC   C1A 4014   1.087   0.261   4.742
  299POPC   D2A 4015   1.177   0.169   5.143
  299POPC   C3A 4016   1.166   0.333   5.534
  299POPC   C4A 4017   1.511   0.075   5.707
  299POPC   C1B 4018   1.428   0.629   4.708
  299POPC   C2B 4019   1.190   0.691   5.062
  299POPC   C3B 4020   1.278   0.875   5.439
  299POPC   C4B 4021   1.152   0.761   5.827
  300POPC   NC3 4022   3.939   8.673   3.942
  300POPC   PO4 4023   4.461   8.232   4.057
  300POPC   GL1 4024   4.164   8.450   4.333
  300POPC   GL2 4025   4.099   8.793   4.425
  300POPC   C1A 4026   3.931   8.334   4.688
  300POPC   D2A 4027   3.914   8.550   5.086
  300POPC   C3A 4028   3.972   8.359   5.481
  300POPC   C4A 4029   4.298   8.230   5.711
  300POPC   C1B 4030   4.329   8.644   4.800
  300POPC   C2B 4031   4.425   8.490   5.231
  300POPC   C3B 4032   4.326   8.728   5.603
  300POPC   C4B 4033   3.915   8.864   5.633
  301POPC   NC3 4034   9.719   0.982   3.941
  301POPC   PO4 4035  10.429   1.096   3.804
  301POPC   GL1 4036  10.351   1.247   4.192
  301POPC   GL2 4037  10.145   0.983   4.240
  301POPC   C1A 4038  10.239   1.365   4.604
  301POPC   D2A 4039   9.934   1.342   4.959
  301POPC   C3A 4040   9.996   1.593   5.362
  301POPC   C4A 4041   9.989   1.439   5.791
  301POPC   C1B 4042  10.390   0.873   4.607
  301POPC   C2B 4043  10.398   1.080   4.982
  301POPC   C3B 4044  10.326   1.213   5.359
  301POPC   C4B 4045  10.418   1.141   5.757
  302W        W 4046  10.390   3.578   8.983
  303W        W 4047   3.403   7.468   2.233
  304W        W 4048   7.999   2.765   1.846
  305W        W 4049   6.077   0.514   0.262
  306W        W 4050   9.217   2.118   8.566
  307W        W 4051   9.850   3.093   8.673
  308W        W 4052   8.193   5.497   9.725
  309W        W 4053   2.270   3.558   0.853
  310W        W 4054  10.061   3.172   0.966
  311W        W 4055   0.267   7.404  10.526
  312W        W 4056   5.251   1.855   2.191
  313W        W 4057   9.706   7.179   9.604
  314W        W 4058   9.885   7.961   8.967
  315W        W 4059   8.433   5.667   0.079
  316W        W 4060   8.995   0.853   3.233
  317W        W 4061   5.262   6.451   1.671
  318W        W 4062   8.006   6.169   1.479
  319W        W 4063   5.651  10.452  11.918
  320W        W 4064   6.515  10.333   1.442
  321W        W 4065   1.849   5.691  11.746
  322W        W 4066   3.516   6.671  11.480
  323W        W 4067   6.447   8.056   0.349
  324W        W 4068   8.967   7.690   9.864
  325W        W 4069   0.975   1.866   9.792
  326W        W 4070  10.310   1.813   9.102
  327W        W 4071   4.620   0.758  10.122
  328W        W 4072  10.007   8.582  10.915
  329W        W 4073   9.744   2.275   0.744
  330W        W 4074   1.933   6.935   2.810
  331W        W 4075   1.378   7.005   1.781
  332W        W 4076   9.545   2.105  11.781
  333W        W 4077   6.347   3.134   9.998
  334W        W 4078   2.177   2.864   2.567
  335W        W 4079   0.429   1.032   9.440
  336W        W 4080   8.727   2.199   2.180
  337W        W 4081   8.896   8.832  10.592
  338W        W 4082   4.972   0.453   1.501
  339W        W 4083   2.723   9.482  11.146
  340W        W 4084   3.522   7.383   2.972
  341W        W 4085   9.126   0.858   2.719
  342W        W 4086   1.371   2.555   0.096
  343W        W 4087   2.352   4.706   2.655
  344W        W 4088   6.753   0.151   3.526
  345W        W 4089  10.459   4.206   9.662
  346W        W 4090   7.011  10.301   1.719
  347W        W 4091   7.406   3.679   9.895
  348W        W 4092   1.643   6.785  10.307
  349W        W 4093  10.261   5.064   1.994
  350W        W 4094   8.443   5.605   0.611
  351W        W 4095   3.579   6.901  11.023
  352W        W 4096   6.977   4.119   1.892
  353W        W 4097   4.684   4.180  10.386
  354W        W 4098   8.505   7.629   9.094
  355W        W 4099   5.148  10.095  10.712
  356W        W 4100   8.542   7.652   9.607
  357W        W 4101   6.413   9.135   2.064
  358W        W 4102   2.259   1.287   1.681
  359W        W 4103   7.578   4.688   9.365
  360W        W 4104   0.885   0.845   0.285
  361W        W 4105   4.804   8.446   9.706
  362W        W 4106   5.294   4.782   0.328
  363W        W 4107   8.394   3.177   1.931
  364W        W 4108   0.437   0.801   1.406
  365W        W 4109   8.900   8.143   0.219
  366W        W 4110   5.188   3.042  11.387
  367W        W 4111   9.626   2.623   3.513
  368W        W 4112   2.153   1.858   3.057
  369W        W 4113   4.844   0.955   1.775
  370W        W 4114   8.467   0.223   1.763
  371W        W 4115   8.982   9.109  10.157
  372W        W 4116   9.258   1.386   1.109
  373W        W 4117   8.034   6.046   2.903
  374W        W 4118   6.155   3.720   0.690
  375W        W 4119   4.918   7.932   0.230
  376W        W 4120   8.725   9.769  10.950
  377W        W 4121   0.940   8.631   9.470
  378W        W 4122   5.691   9.431  10.204
  379W        W 4123   1.020   7.171   2.584
  380W        W 4124   1.898   0.942   1.740
  381W        W 4125   4.578   9.898   9.802
  382W        W 4126   6.700   9.705  11.725
  383W        W 4127   0.931   4.671   2.984
  384W        W 4128   7.133   3.551  10.475
  385W        W 4129   8.115   7.324   1.659
  386W        W 4130   4.794   2.191   2.905
  387W        W 4131   9.657   9.845   0.718
  388W        W 4132   8.448   9.519   3.151
  389W        W 4133   6.687   4.586   9.169
  390W        W 4134   7.024   9.448  10.240
  391W        W 4135   0.776   7.732   0.017
  392W        W 4136   5.437   7.583  10.494
  393W        W 4137   7.502   6.259  11.813
  394W        W 4138   1.626   0.522   1.738
  395W        W 4139   7.876   1.353   2.951
  396W        W 4140   0.922   3.752   8.791
  397W        W 4141   3.519   2.393  11.370
  398W        W 4142   4.054   9.630   9.787
  399W        W 4143   3.094   5.271   2.796
  400W        W 4144   7.197   4.356   3.337
  401W        W 4145   9.410   8.073   2.566
  402W        W 4146   7.699   1.421   9.492
  403W        W 4147   2.212   5.602   8.463
  404W        W 4148   8.181   3.757   2.890
  405W        W 4149   9.786   8.572   1.524
  406W        W 4150   7.569   4.644   3.159
  407W        W 4151   0.749  10.349   0.672
  408W        W 4152   2.588   2.723   2.228
  409W        W 4153   8.113   9.288   9.308
  410W        W 4154   1.752   4.503   8.690
  411W        W 4155   0.390   4.350   9.932
  412W        W 4156   7.900  10.268  10.580
  413W        W 4157   1.190   9.161  11.191
  414W        W 4158   7.048   8.202  11.923
  415W        W 4159   1.272   3.604   9.613
  416W        W 4160   6.359   9.772  11.319
  417W        W 4161   3.651   0.462   0.487
  418W        W 4162   9.246   7.198   2.920
  419W        W 4163   6.684   9.386  11.226
  420W        W 4164   8.062   1.246  10.131
  421W        W 4165   7.864   0.440   0.008
  422W        W 4166   7.741   2.704   8.828
  423W        W 4167  10.058   3.385   3.348
  424W        W 4168   0.975  10.478   1.778
  425W        W 4169   4.173   2.503  11.769
  426W        W 4170   4.741   4.108   2.198
  427W        W 4171   5.316   6.110   3.368
  428W        W 4172   7.449   8.545   3.668
  429W        W 4173   2.053   0.872   3.395
  430W        W 4174   4.287   0.850   1.869
  431W        W 4175  10.085   6.840  11.776
  432W        W 4176   1.980   9.124   1.250
  433W        W 4177   7.521   7.678   2.720
  434W        W 4178   1.768   2.104   0.362
  435W        W 4179   9.918   2.805  10.058
  436W        W 4180   0.228   4.645   9.546
  437W        W 4181   4.452   3.198   3.648
  438W        W 4182   6.516   5.027  11.567
  439W        W 4183   7.909   1.677   3.371
  440W        W 4184   1.857   0.608   8.924
  441W        W 4185   5.012   6.683   0.300
  442W        W 4186   3.747   3.743   1.964
  443W        W 4187   4.108   8.517  10.932
  444W        W 4188   1.244   0.447   2.808
  445W        W 4189   4.544   1.711   1.911
  446W        W 4190   8.224   5.748   9.197
  447W        W 4191   6.909   9.907   0.355
  448W        W 4192   3.445   0.768   0.863
  449W        W 4193   9.555   5.553   2.159
  450W        W 4194   6.643   9.947   3.053
  451W        W 4195   8.929   4.285   3.704
  452W        W 4196   5.084   5.245  11.409
  453W        W 4197   6.754   9.463   2.933
  454W        W 4198  10.338  10.355   2.438
  455W        W 4199   8.400   0.224  11.337
  456W        W 4200   2.848   1.328   8.796
  457W        W 4201   6.080   3.788  11.209
  458W        W 4202   0.768   8.614   1.764
  459W        W 4203   2.184   7.196   1.264
  460W        W 4204   9.515   9.554   2.445
  461W        W 4205   6.677   4.100  11.835
  462W        W 4206   6.937   4.143   9.291
  463W        W 4207   3.202   2.352   2.895
  464W        W 4208   8.169   3.736   0.291
  465W        W 4209   1.771   2.265  11.859
  466W        W 4210   8.016   1.190   3.416
  467W        W 4211   1.493  10.314  11.891
  468W        W 4212   5.485   6.644   9.405
  469W        W 4213   2.095   0.812   0.856
  470W        W 4214   5.960   8.166   0.500
  471W        W 4215  10.372   2.019   1.548
  472W        W 4216   6.629   4.083   9.690
  473W        W 4217   9.007   0.286   9.141
  474W        W 4218   8.003   4.663   2.898
  475W        W 4219   5.131   2.500   1.718
  476W        W 4220   3.105   8.216   2.624
  477W        W 4221   7.418   8.936  11.736
  478W        W 4222   2.890   0.349  11.808
  479W        W 4223  10.382   0.225   1.662
  480W        W 4224   1.949   0.867   0.365
  481W        W 4225   9.282   8.371   3.548
  482W        W 4226   9.829   6.423   9.028
  483W        W 4227   6.041   9.180  11.937
  484W        W 4228   9.384   6.625  10.864
  485W        W 4229   7.557   8.839   9.282
  486W        W 4230   2.389   4.236   9.886
  487W        W 4231   5.496   3.280   1.264
  488W        W 4232   4.500   9.956  11.326
  489W        W 4233   5.240   3.736   1.164
  490W        W 4234   5.034   0.736   9.797
  491W        W 4235   5.075   0.805   9.297
  492W        W 4236   1.293   4.978   3.544
  493W        W 4237   8.122   4.170  10.025
  494W        W 4238   2.937   2.362   3.329
  495W        W 4239   8.524   8.434  11.464
  496W        W 4240   9.777   2.355  10.297
  497W        W 4241   2.308   6.271   8.795
  498W        W 4242   5.966   6.294   9.477
  499W        W 4243   6.136   3.730   1.205
  500W        W 4244   2.801   7.413   0.997
  501W        W 4245   9.322   5.153  10.505
  502W        W 4246   6.855   2.138   1.667
  503W        W 4247   7.211   5.340   2.104
  504W        W 4248   6.123   6.022   2.534
  505W        W 4249   3.270   1.361   2.491
  506W        W 4250   0.081   3.896   0.809
  507W        W 4251   0.177   1.275   2.271
  508W        W 4252  10.087   3.964   8.705
  509W        W 4253   7.347   5.905   8.117
  510W        W 4254   2.765   5.886   9.480
  511W        W 4255  10.146   4.257  10.074
  512W        W 4256   2.152   5.178   2.930
  513W        W 4257   3.822   2.794  11.527
  514W        W 4258   8.311   6.499   0.044
  515W        W 4259   6.872   0.119  10.844
  516W        W 4260   6.644   4.550   1.902
  517W        W 4261   5.642   6.518   3.256
  518W        W 4262   6.112   3.686   2.827
  519W        W 4263   7.710   3.588   2.907
  520W        W 4264   6.572   5.950   1.818
  521W        W 4265   4.605   5.445   2.415
  522W        W 4266   2.913   3.270   0.364
  523W        W 4267   5.146   0.836   0.662
  524W        W 4268   1.425   7.589   1.141
  525W        W 4269   2.803   2.742  11.717
  526W        W 4270   6.537   1.423   2.713
  527W        W 4271   1.819   5.889   9.409
  528W        W 4272   3.597   2.348   2.198
  529W        W 4273  10.011   0.026  10.459
  530W        W 4274   6.511   1.662  10.073
  531W        W 4275   5.807   6.230   4.212
  532W        W 4276   6.703   7.026   0.104
  533W        W 4277   7.714   4.318  11.833
  534W        W 4278   9.328   8.579   9.493
  535W        W 4279   9.072  10.220  10.882
  536W        W 4280   9.125   4.666  10.564
  537W        W 4281   4.217   1.260  10.591
  538W        W 4282   9.895   4.751   1.217
  539W        W 4283   1.672   6.106   0.756
  540W        W 4284   9.647   4.168  10.044
  541W        W 4285   3.468   2.264   3.353
  542W        W 4286   0.457   5.250   9.789
  543W        W 4287   0.378   4.537   2.459
  544W        W 4288   2.401   6.035  10.310
  545W        W 4289   5.577  10.466  10.484
  546W        W 4290   1.914   0.697   2.191
  547W        W 4291   7.666   3.549   8.926
  548W        W 4292   7.964   1.872   9.326
  549W        W 4293   6.637   5.460   0.460
  550W        W 4294   9.803   7.176  10.539
  551W        W 4295  10.158   4.655  10.400
  552W        W 4296   3.756   6.632  10.635
  553W        W 4297   9.586   2.641   3.022
  554W        W 4298   7.554   1.143  11.472
  555W        W 4299   6.615   8.624   2.713
  556W        W 4300   4.557   1.809   3.366
  557W        W 4301   5.027   2.775   8.007
  558W        W 4302   4.194   0.579   9.901
  559W        W 4303   6.458   5.683   2.257
  560W        W 4304   8.901   5.049   9.537
  561W        W 4305   8.919   2.162   0.500
  562W        W 4306   8.488   2.760   2.224
  563W        W 4307   2.175   4.711   9.880
  564W        W 4308   1.382   0.718   0.340
  565W        W 4309   7.879   7.441   1.218
  566W        W 4310   6.907   3.145   1.209
  567W        W 4311  10.111   5.059  10.077
  568W        W 4312   0.789   2.778   9.712
  569W        W 4313   5.207   4.311   2.307
  570W        W 4314   1.201   4.765   9.625
  571W        W 4315   6.582   5.889   0.202
  572W        W 4316   2.019   8.022  11.922
  573W        W 4317   4.721   4.955  11.638
  574W        W 4318   0.648   1.678   1.726
  575W        W 4319   7.102   5.583  11.923
  576W        W 4320   3.355   1.862   2.181
  577W        W 4321   8.855   4.236   1.536
  578W        W 4322   0.334   9.878   1.787
  579W        W 4323   0.466   5.630   1.899
  580W        W 4324   8.495   8.897   8.782
  581W        W 4325   6.061   6.947   2.764
  582W        W 4326   6.244   6.544   9.852
  583W        W 4327   2.719   5.191   3.170
  584W        W 4328   7.144   6.527   9.382
  585W        W 4329   3.763   2.571   0.061
  586W        W 4330   3.259   8.233   0.554
  587W        W 4331   9.344   7.309   9.201
  588W        W 4332   6.680   9.250   0.668
  589W        W 4333   3.065   3.352   2.579
  590W        W 4334   9.417   7.542   2.466
  591W        W 4335   9.055   4.105   0.406
  592W        W 4336   4.505   4.108   0.671
  593W        W 4337   5.200   7.086   9.320
  594W        W 4338   5.111   9.935   9.043
  595W        W 4339   1.970   6.733   9.904
  596W        W 4340   3.757   6.034  10.453
  597W        W 4341   5.914   9.731   3.411
  598W        W 4342   9.439   3.765   0.458
  599W        W 4343   0.880   0.330  10.503
  600W        W 4344   2.319   4.566   1.005
  601W        W 4345   6.663   1.791   8.651
  602W        W 4346   2.736   3.531   3.307
  603W        W 4347   7.693   3.827   3.898
  604W        W 4348   6.043   3.220  10.791
  605W        W 4349   1.303   3.816   9.139
  606W        W 4350   9.546   4.732   1.970
  607W        W 4351   0.881   8.336  11.195
  608W        W 4352   3.561   1.537   3.403
  609W        W 4353   1.255   7.481   8.839
  610W        W 4354   4.784   1.032   1.200
  611W        W 4355   7.687   2.837   1.366
  612W        W 4356   1.336   2.394  11.049
  613W        W 4357   4.615   2.164  10.578
  614W        W 4358   3.250   9.748   9.163
  615W        W 4359   9.292   6.287   9.834
  616W        W 4360   4.090   8.388   9.061
  617W        W 4361   6.976   1.842  11.010
  618W        W 4362   4.114   5.996  11.779
  619W        W 4363   3.441   1.001   2.137
  620W        W 4364   9.050   1.679   0.655
  621W        W 4365   5.142   3.835   0.662
  622W        W 4366   3.371   5.006   9.833
  623W        W 4367   2.125   5.692  10.010
  624W        W 4368   4.570   2.812   8.814
  625W        W 4369   1.596   0.198   9.068
  626W        W 4370   6.913   7.001   3.513
  627W        W 4371   7.668   1.040   9.834
  628W        W 4372   2.401   7.364   0.232
  629W        W 4373   7.615   4.125  10.026
  630W        W 4374   6.143   8.358   1.874
  631W        W 4375   4.782   4.579   2.429
  632W        W 4376   7.254   3.626  11.964
  633W        W 4377   3.600   6.138   2.688
  634W        W 4378   4.744   7.357   0.977
  635W        W 4379   2.428   6.511  10.059
  636W        W 4380   7.507   0.830  11.856
  637W        W 4381   5.051   6.510  10.327
  638W        W 4382   3.211  10.300  11.402
  639W        W 4383   9.871   8.468   9.044
  640W        W 4384   9.198   5.741   0.704
  641W        W 4385   0.364   5.961   0.384
  642W        W 4386  10.137   2.805   1.743
  643W        W 4387   5.529   5.126  10.914
  644W        W 4388   2.152   2.084   9.948
  645W        W 4389   3.273   8.382  10.506
  646W        W 4390   4.744   0.029   1.998
  647W        W 4391  10.074   8.291   9.946
  648W        W 4392   5.671   4.139   9.532
  649W        W 4393   4.088   2.341   2.315
  650W        W 4394   4.506   4.208   1.183
  651W        W 4395   8.003  10.418   0.429
  652W        W 4396   9.489   6.733   9.947
  653W        W 4397   0.044   6.560  11.061
  654W        W 4398   1.771   6.951   3.294
  655W        W 4399   9.003   4.248   1.005
  656W        W 4400   1.932   8.792  10.512
  657W        W 4401   8.628   7.214   2.306
  658W        W 4402   9.833   1.367   0.258
  659W        W 4403   3.310   5.080   8.366
  660W        W 4404   2.319   2.099   1.011
  661W        W 4405   9.326   7.701   2.948
  662W        W 4406   6.785   5.990   8.677
  663W        W 4407   5.238   5.778   9.078
  664W        W 4408   7.604   5.698   2.147
  665W        W 4409   4.847   2.684  11.262
  666W        W 4410   9.089   2.340   1.362
  667W        W 4411   5.661   5.603   1.087
  668W        W 4412   5.905   8.624   1.502
  669W        W 4413   4.058   3.266   2.296
  670W        W 4414   6.101   0.330   2.490
  671W        W 4415   9.465   9.459   8.954
  672W        W 4416   3.832   0.037   1.704
  673W        W 4417   4.972   3.269   3.630
  674W        W 4418  10.062   3.633   1.732
  675W        W 4419   1.216   4.224   1.961
  676W        W 4420   0.506   3.338   3.418
  677W        W 4421   8.052   8.624  11.013
  678W        W 4422   6.509   3.601  11.725
  679W        W 4423   5.364  10.378   2.929
  680W        W 4424   5.058   6.064   1.413
  681W        W 4425   7.999   1.749   0.817
  682W        W 4426   0.829   0.950  11.798
  683W        W 4427   9.828   6.981   0.943
  684W        W 4428   1.947   3.689  11.922
  685W        W 4429   6.544   0.534   2.223
  686W        W 4430   0.306   2.071   1.829
  687W        W 4431   0.354   3.957  10.535
  688W        W 4432   6.226   4.688   0.505
  689W        W 4433   9.629   0.591   0.093
  690W        W 4434   0.517   4.728   1.968
  691W        W 4435   9.954   2.314   1.713
  692W        W 4436  10.240   7.787   9.782
  693W        W 4437   6.735   7.267   2.207
  694W        W 4438   0.856   8.584   2.256
  695W        W 4439   2.337   1.561   9.990
  696W        W 4440   8.634   6.524   1.903
  697W        W 4441   4.816   0.326   3.411
  698W        W 4442   1.926  10.450   3.361
  699W        W 4443   0.276   4.824  11.126
  700W        W 4444   7.191   1.888   8.553
  701W        W 4445   2.026   3.968   9.337
  702W        W 4446   3.771   7.629   2.606
  703W        W 4447   8.929   3.111   0.561
  704W        W 4448   7.769   3.141   3.131
  705W        W 4449   3.833   0.121   3.555
  706W        W 4450   7.986   8.347   3.083
  707W        W 4451   4.769   0.341   0.027
  708W        W 4452   5.210   6.028   1.935
  709W        W 4453   8.508   9.489   2.650
  710W        W 4454   1.264   5.733   8.590
  711W        W 4455   5.608   3.435   8.985
  712W        W 4456   7.912   5.231   9.116
  713W        W 4457   1.005   8.086   9.496
  714W        W 4458   2.305   6.997   8.895
  715W        W 4459   7.004  10.408   8.526
  716W        W 4460   7.137   7.398   1.884
  717W        W 4461   1.640  10.304   2.456
  718W        W 4462   3.210   0.337   0.792
  719W        W 4463   5.172   7.881  10.837
  720W        W 4464   7.100   4.226  10.924
  721W        W 4465   8.444   8.865   9.296
  722W        W 4466   5.678   8.925   2.187
  723W        W 4467   9.767   6.973   9.144
  724W        W 4468   5.127   7.159   0.478
  725W        W 4469   5.513   5.146   2.623
  726W        W 4470   6.423   7.426   0.386
  727W        W 4471   8.185   4.863   8.474
  728W        W 4472   6.411   7.432  11.214
  729W        W 4473   7.717   0.541   9.931
  730W        W 4474   1.411   1.433   1.768
  731W        W 4475   0.295   7.920   2.300
  732W        W 4476   1.581   8.398   1.644
  733W        W 4477   6.039   4.235  11.478
  734W        W 4478   0.090   4.710   0.425
  735W        W 4479   3.640   9.931   9.995
  736W        W 4480   9.527   5.273  10.986
  737W        W 4481   9.717   0.142   9.981
  738W        W 4482   3.781   1.907   0.419
  739W        W 4483   1.257   3.794   0.033
  740W        W 4484   0.416   5.736  11.037
  741W        W 4485  10.014   2.889   3.278
  742W        W 4486   1.145   7.798   3.295
  743W        W 4487   5.664   1.849   0.035
  744W        W 4488   2.085   9.272   8.920
  745W        W 4489   7.558   6.659   1.098
  746W        W 4490   5.657   9.575   8.859
  747W        W 4491   5.671   2.247   2.893
  748W        W 4492  10.053   3.517  10.721
  749W        W 4493   7.430   9.696   9.008
  750W        W 4494   1.762   7.588  11.822
  751W        W 4495   1.442   0.064  11.299
  752W        W 4496   4.331   6.663   1.604
  753W        W 4497   9.979   8.807  10.006
  754W        W 4498   0.580  10.500  10.805
  755W        W 4499   4.214  10.070   2.378
  756W        W 4500   5.333  10.072   9.534
  757W        W 4501   4.527   1.325   8.736
  758W        W 4502   0.446   0.825  10.998
  759W        W 4503   9.388   9.880   9.443
  760W        W 4504   2.065   3.183   0.027
  761W        W 4505   9.026   2.711  11.251
  762W        W 4506   7.239   7.924   9.123
  763W        W 4507   3.285   7.974   2.216
  764W        W 4508   1.351   1.973  10.730
  765W        W 4509   6.989   2.624   1.858
  766W        W 4510   8.969   3.118   0.060
  767W        W 4511   2.597  10.464   8.969
  768W        W 4512   2.170   8.953  11.797
  769W        W 4513   6.561   4.046   0.998
  770W        W 4514   9.857   9.976   9.260
  771W        W 4515   3.088   6.240   3.719
  772W        W 4516   1.694  10.404   1.296
  773W        W 4517   2.247   9.482   2.755
  774W        W 4518   9.613   8.453   0.302
  775W        W 4519   3.349   1.926  10.358
  776W        W 4520   1.299   0.659   1.184
  777W        W 4521   7.402   8.167  10.075
  778W        W 4522   2.741   6.429  10.963
  779W        W 4523   3.791   4.781   0.568
  780W        W 4524   7.696   5.775   1.321
  781W        W 4525   6.175   7.047  11.472
  782W        W 4526   0.370   2.301   1.380
  783W        W 4527   6.157   5.488   0.988
  784W        W 4528   5.543   6.024  10.234
  785W        W 4529   5.060   3.317   2.218
  786W        W 4530   0.846   6.200  11.497
  787W        W 4531   5.770   1.246  10.263
  788W        W 4532   6.338   9.525   3.225
  789W        W 4533   5.588   6.735   2.803
  790W        W 4534   0.085   2.102   8.634
  791W        W 4535   4.294   3.082   1.866
  792W        W 4536   6.642   0.331   1.350
  793W        W 4537   2.722   5.593   9.034
  794W        W 4538   0.140   9.425   3.302
  795W        W 4539   3.239   0.777   1.720
  796W        W 4540   0.270   6.558  10.588
  797W        W 4541   3.100   4.297   2.770
  798W        W 4542   4.280   9.345   8.890
  799W        W 4543   1.264   1.929   2.966
  800W        W 4544   2.999   4.306   8.565
  801W        W 4545   8.273   1.062  10.996
  802W        W 4546   7.251   2.822   0.021
  803W        W 4547   5.196   6.515   1.174
  804W        W 4548   7.229   4.205   8.559
  805W        W 4549  10.010   3.981  10.912
  806W        W 4550   4.783   0.351  11.516
  807W        W 4551   4.161   2.770   9.597
  808W        W 4552   8.882   0.273   8.639
  809W        W 4553   6.785   5.340   1.294
  810W        W 4554   9.346   4.106   1.371
  811W        W 4555   8.970   7.917   1.791
  812W        W 4556   7.021   7.550  10.378
  813W        W 4557   0.945   0.814  10.224
  814W        W 4558   3.717   4.033   3.754
  815W        W 4559   4.675   9.335  10.947
  816W        W 4560   7.560   7.323   3.626
  817W        W 4561  10.255   9.493  10.477
  818W        W 4562   6.951   3.682   9.531
  819W        W 4563  10.227   7.452  10.536
  820W        W 4564   5.626   2.243  11.187
  821W        W 4565   1.064   1.431   8.985
  822W        W 4566   0.125   5.558   9.550
  823W        W 4567   5.145   0.958   3.495
  824W        W 4568   3.601   4.250   1.819
  825W        W 4569   3.768   7.856   2.104
  826W        W 4570   7.118   1.191   0.792
  827W        W 4571   5.984   8.378  11.489
  828W        W 4572   2.471   6.901   2.917
  829W        W 4573   6.697   1.491   2.224
  830W        W 4574   8.052   2.874  11.220
  831W        W 4575   4.495   1.627   0.885
  832W        W 4576   8.546   9.484  10.564
  833W        W 4577   2.678   2.643   9.436
  834W        W 4578   7.896  10.197  10.083
  835W        W 4579   2.557   0.731   3.410
  836W        W 4580   7.440   5.646   8.563
  837W        W 4581   7.931   6.548  11.190
  838W        W 4582   6.045   3.283   0.933
  839W        W 4583   5.622   6.742   1.924
  840W        W 4584   9.142   1.132   2.122
  841W        W 4585   7.116   4.723   0.233
  842W        W 4586   4.846   6.180   0.359
  843W        W 4587   1.088   9.675  11.304
  844W        W 4588   0.728   9.826   2.511
  845W        W 4589   4.769   4.721   0.420
  846W        W 4590   4.744   3.713   9.509
  847W        W 4591   2.226   7.360  11.758
  848W        W 4592   6.195   4.261  11.963
  849W        W 4593   9.947   9.984   3.365
  850W        W 4594   6.574   8.352  10.375
  851W        W 4595   2.889   2.678  10.304
  852W        W 4596   7.868   4.605   8.165
  853W        W 4597   3.341   5.745   2.845
  854W        W 4598   1.841   1.740   2.342
  855W        W 4599   3.098   6.500   2.154
  856W        W 4600   4.064   8.615  11.432
  857W        W 4601   3.350   8.563   1.433
  858W        W 4602   2.150   2.438   2.274
  859W        W 4603   7.748   2.478   9.992
  860W        W 4604   2.331   3.817   3.228
  861W        W 4605   6.674   7.068  11.430
  862W        W 4606   0.481   8.399   3.218
  863W        W 4607   2.765   6.017   0.064
  864W        W 4608   6.656   4.789   2.406
  865W        W 4609   1.303   7.271  11.653
  866W        W 4610   8.918   7.469  10.888
  867W        W 4611   1.171   9.332   3.109
  868W        W 4612   3.661   2.754  10.029
  869W        W 4613   8.062   6.462  10.707
  870W        W 4614   6.452   3.239   0.550
  871W        W 4615   8.661   3.586   2.041
  872W        W 4616   9.532   6.633   1.180
  873W        W 4617   4.179   9.812  10.959
  874W        W 4618   1.433   0.555   2.322
  875W        W 4619   7.882   3.281  10.489
  876W        W 4620   0.323   3.222   9.117
  877W        W 4621   1.737   5.066   3.231
  878W        W 4622   4.119   0.396  10.756
  879W        W 4623   2.593   6.556   2.154
  880W        W 4624   0.516   0.892   9.933
  881W        W 4625   7.534   9.976   1.038
  882W        W 4626   2.064   1.013  11.807
  883W        W 4627   7.402   4.976   9.788
  884W        W 4628   8.460   4.652  10.797
  885W        W 4629  10.053   0.923  10.597
  886W        W 4630   9.649   6.637   2.199
  887W        W 4631   9.367   6.118  10.790
  888W        W 4632   5.004   2.611   8.992
  889W        W 4633   8.469   4.593   8.817
  890W        W 4634   4.683   2.205  11.446
  891W        W 4635  10.242   7.988   1.452
  892W        W 4636   9.090   2.836   0.973
  893W        W 4637   6.563   5.123   0.874
  894W        W 4638   8.193   3.633   8.926
  895W        W 4639  10.411   3.242   9.426
  896W        W 4640   0.682   9.748  10.459
  897W        W 4641   0.878   0.945   1.209
  898W        W 4642   8.117   4.793  11.237
  899W        W 4643   9.400   9.427  10.471
  900W        W 4644   0.496   7.569   0.840
  901W        W 4645   4.004   7.695   1.288
  902W        W 4646   3.582  10.031   0.476
  903W        W 4647   4.732   1.735   8.959
  904W        W 4648   5.616   9.388  11.752
  905W        W 4649   4.268   3.629   0.673
  906W        W 4650   7.528   7.646  10.303
  907W        W 4651   0.803   8.051   2.435
  908W        W 4652   2.555   1.165  11.457
  909W        W 4653   0.931   9.106   1.918
  910W        W 4654   0.860   3.061   2.284
  911W        W 4655   7.994   9.298   3.173
  912W        W 4656   7.555   0.980   3.327
  913W        W 4657   8.538   0.512   0.609
  914W        W 4658   8.425   1.965  11.949
  915W        W 4659   6.985   1.478   0.406
  916W        W 4660   6.510   2.715   3.276
  917W        W 4661   2.235   9.349  11.271
  918W        W 4662   8.104   1.390   9.164
  919W        W 4663   1.726   7.222   8.850
  920W        W 4664   2.154   4.100  10.740
  921W        W 4665   6.517   0.729   0.403
  922W        W 4666   9.885   2.729  11.126
  923W        W 4667   6.394   6.819  10.557
  924W        W 4668   0.940   8.754  10.352
  925W        W 4669   3.518   0.952   1.328
  926W        W 4670   3.329   6.806   0.215
  927W        W 4671  10.020   7.347  11.866
  928W        W 4672   8.867   4.203  10.488
  929W        W 4673   6.994   6.968   9.966
  930W        W 4674   1.526   8.185  11.915
  931W        W 4675   9.067   9.486  11.830
  932W        W 4676   0.577   9.132  11.131
  933W        W 4677   5.494   6.649   4.074
  934W        W 4678   8.394  10.064   8.344
  935W        W 4679   0.571   4.833   0.542
  936W        W 4680   9.383   6.229   8.795
  937W        W 4681   6.620   3.763   1.421
  938W        W 4682   9.359   6.439  10.356
  939W        W 4683   4.387  10.341   2.880
  940W        W 4684   3.872   7.316   2.200
  941W        W 4685   8.425   0.729  11.358
  942W        W 4686   4.560   5.775  11.899
  943W        W 4687   8.713   9.311   2.182
  944W        W 4688   3.665   6.052   1.290
  945W        W 4689   8.315   9.453   0.886
  946W        W 4690   5.185   5.242   9.561
  947W        W 4691   7.910   4.056   1.123
  948W        W 4692   1.830   1.612   0.529
  949W        W 4693   5.110   5.229   0.827
  950W        W 4694   1.701   4.190   3.178
  951W        W 4695   3.294   8.374   9.534
  952W        W 4696   9.934   3.136   9.202
  953W        W 4697   6.097   2.457  10.363
  954W        W 4698   1.887   9.388  10.823
  955W        W 4699   5.611   6.486   2.366
  956W        W 4700   2.602   9.955   9.135
  957W        W 4701   1.011   9.066   2.437
  958W        W 4702   3.823   9.381  11.769
  959W        W 4703   2.718   7.991   3.315
  960W        W 4704   4.580   4.055   8.908
  961W        W 4705   3.648   7.556   3.425
  962W        W 4706   2.402   0.285  11.812
  963W        W 4707   5.663   8.033  11.303
  964W        W 4708   1.421   5.659   2.484
  965W        W 4709   5.260   0.957  11.349
  966W        W 4710   7.565   7.010   8.691
  967W        W 4711   2.903   3.201   8.909
  968W        W 4712   2.635   8.965   9.988
  969W        W 4713   5.651   7.568   8.851
  970W        W 4714   4.071   2.220   8.877
  971W        W 4715   5.966   6.797   9.494
  972W        W 4716   9.837  10.281  11.450
  973W        W 4717   4.225   0.320   2.729
  974W        W 4718   7.478   1.053   2.834
  975W        W 4719   4.186   8.515   2.784
  976W        W 4720   1.859   5.076   9.996
  977W        W 4721   8.889   4.527   2.019
  978W        W 4722   3.221   6.088   9.666
  979W        W 4723   9.014   0.842  11.416
  980W        W 4724   5.550   1.677  10.530
  981W        W 4725   2.812   8.080   1.815
  982W        W 4726   6.638   8.129   2.791
  983W        W 4727   6.660  10.026   1.017
  984W        W 4728   6.698   4.453   0.638
  985W        W 4729   4.824   9.825   0.887
  986W        W 4730  10.421   1.416   0.838
  987W        W 4731  10.313   4.709  11.382
  988W        W 4732   3.572   5.248   9.405
  989W        W 4733   5.454   4.338   1.667
  990W        W 4734   0.161   0.176   2.100
  991W        W 4735   0.835   7.130   3.552
  992W        W 4736   4.583   2.667   2.756
  993W        W 4737   1.164   6.105  10.849
  994W        W 4738   9.092   9.718   2.187
  995W        W 4739   8.802   9.872  11.518
  996W        W 4740   6.869   8.338   2.360
  997W        W 4741   0.211   9.183   2.409
  998W        W 4742   8.949   0.053  10.491
  999W        W 4743  10.294   3.252  11.358
 1000W        W 4744   2.368   2.055   2.043
 1001W        W 4745   7.830   3.301   1.125
 1002W        W 4746   0.789   0.514  11.562
 1003W        W 4747   5.102   4.616   3.166
 1004W        W 4748   2.282   7.838   0.371
 1005W        W 4749   9.885   9.231   2.604
 1006W        W 4750   4.053   3.947   9.138
 1007W        W 4751   5.341   7.901   2.659
 1008W        W 4752   6.583   5.705  11.726
 1009W        W 4753   5.943   2.239  10.781
 1010W        W 4754   5.696   8.563   0.713
 1011W        W 4755  10.308  10.020  11.785
 1012W        W 4756   1.654   9.075   9.116
 1013W        W 4757   2.751   2.819   3.424
 1014W        W 4758   7.436   1.325   1.698
 1015W        W 4759   1.167   1.865   1.591
 1016W        W 4760   3.148   6.128  11.762
 1017W        W 4761   7.931   9.142   0.787
 1018W        W 4762   3.533   7.704   1.661
 1019W        W 4763   3.671   4.698   8.207
 1020W        W 4764   7.096   4.743  10.391
 1021W        W 4765   9.404   3.736  10.143
 1022W        W 4766   8.570   5.696   3.075
 1023W        W 4767   4.000   4.441   1.564
 1024W        W 4768   9.147   3.593  11.343
 1025W        W 4769   9.538   6.352   0.166
 1026W        W 4770   2.605   2.600   3.002
 1027W        W 4771   9.324   7.827  11.510
 1028W        W 4772   8.389  10.185   0.196
 1029W        W 4773   5.544   0.015   8.877
 1030W        W 4774   5.797   9.856   9.593
 1031W        W 4775   1.328   0.774   9.525
 1032W        W 4776   1.229   5.094   3.018
 1033W        W 4777   5.662  10.384   1.965
 1034W        W 4778   5.753   0.662   1.311
 1035W        W 4779   1.861   8.620   3.154
 1036W        W 4780   1.141   1.061   3.615
 1037W        W 4781  10.449   1.777  10.110
 1038W        W 4782   2.316   3.650  11.069
 1039W        W 4783   8.878   5.732   2.667
 1040W        W 4784   8.121   9.280   9.820
 1041W        W 4785   5.211   3.532   1.744
 1042W        W 4786   1.921   8.462  10.127
 1043W        W 4787   5.581   3.694  11.960
 1044W        W 4788   8.326   3.316  10.816
 1045W        W 4789   6.561   8.525   9.868
 1046W        W 4790   2.794   0.378   9.780
 1047W        W 4791   7.531   0.306   2.258
 1048W        W 4792  10.224   5.069   3.216
 1049W        W 4793   1.306   5.922   3.401
 1050W        W 4794   4.586   1.885  11.048
 1051W        W 4795   4.274   3.316  11.260
 1052W        W 4796   8.285  10.228   8.815
 1053W        W 4797   9.744   4.028   1.692
 1054W        W 4798  10.160   5.965   9.020
 1055W        W 4799   2.553   4.542   8.741
 1056W        W 4800   6.662   7.540   1.753
 1057W        W 4801   5.783   6.202  11.511
 1058W        W 4802   6.873   5.161   9.551
 1059W        W 4803   0.921   3.569  10.820
 1060W        W 4804   4.069   0.198  11.226
 1061W        W 4805   9.990   3.233   9.736
 1062W        W 4806   0.824   7.990   2.968
 1063W        W 4807   1.361   9.980  10.611
 1064W        W 4808   0.604   0.496   9.132
 1065W        W 4809   7.121   1.047   8.911
 1066W        W 4810   0.792   2.664   2.970
 1067W        W 4811   8.697   7.311  11.860
 1068W        W 4812   7.148   3.376   8.934
 1069W        W 4813   4.439   0.011   2.396
 1070W        W 4814   7.841   5.185  11.441
 1071W        W 4815   9.547   7.119  10.985
 1072W        W 4816   4.137  10.070  10.038
 1073W        W 4817   7.028   6.081   9.620
 1074W        W 4818   0.148   7.502   9.607
 1075W        W 4819   7.139   4.603   4.236
 1076W        W 4820   7.463   0.867  10.898
 1077W        W 4821   5.258   8.299   0.487
 1078W        W 4822   4.761   9.323   0.915
 1079W        W 4823   9.252   1.636   1.977
 1080W        W 4824   5.161   8.950   1.978
 1081W        W 4825   3.634   8.563   8.912
 1082W        W 4826   6.940   0.178  11.824
 1083W        W 4827   9.894   1.866   1.449
 1084W        W 4828   7.568   5.404  10.998
 1085W        W 4829   8.666   6.819   1.474
 1086W        W 4830   5.781   4.637   1.371
 1087W        W 4831   5.102  10.447   1.548
 1088W        W 4832   8.352   6.205   2.181
 1089W        W 4833   6.132   3.690   1.714
 1090W        W 4834  10.336   1.220   2.634
 1091W        W 4835   3.563   2.741   1.855
 1092W        W 4836   5.260   8.992  11.460
 1093W        W 4837   1.733   7.165   9.817
 1094W        W 4838   9.889   7.077   2.982
 1095W        W 4839   3.686   9.605   0.211
 1096W        W 4840   6.864   2.227  10.691
 1097W        W 4841   9.420   1.208   9.980
 1098W        W 4842   5.357   0.423  10.584
 1099W        W 4843   3.279  10.182  10.886
 1100W        W 4844   8.149   8.392   0.310
 1101W        W 4845   6.500   3.350   2.781
 1102W        W 4846   4.633   7.878   2.322
 1103W        W 4847   2.306   8.356   1.395
 1104W        W 4848   6.080   9.682  10.457
 1105W        W 4849   6.091   1.037   0.176
 1106W        W 4850   3.275   0.514   2.720
 1107W        W 4851   3.903   4.646   2.727
 1108W        W 4852   2.852   3.564  11.736
 1109W        W 4853   5.284   1.347  11.001
 1110W        W 4854   2.942   4.599   9.610
 1111W        W 4855   6.265   1.373  10.536
 1112W        W 4856   3.199   4.576  11.556
 1113W        W 4857   6.570  10.226   0.549
 1114W        W 4858   9.865   1.396  10.686
 1115W        W 4859   0.145   8.316   0.370
 1116W        W 4860   3.409   3.662  10.379
 1117W        W 4861   0.185   6.181   9.862
 1118W        W 4862   4.958   5.651  10.282
 1119W        W 4863   6.165   6.500   1.220
 1120W        W 4864   5.645   3.133  11.148
 1121W        W 4865   4.678   9.109   9.148
 1122W        W 4866   9.525   9.592   0.038
 1123W        W 4867   4.984   4.528   1.850
 1124W        W 4868   1.741   6.018   9.914
 1125W        W 4869   2.189   9.483   9.856
 1126W        W 4870   0.345   2.765   1.161
 1127W        W 4871   2.977   5.937   0.548
 1128W        W 4872   2.235   0.929  10.557
 1129W        W 4873   0.185   1.672  11.074
 1130W        W 4874   3.560   1.707  11.990
 1131W        W 4875   9.967   6.158   1.370
 1132W        W 4876   8.058   7.085   8.512
 1133W        W 4877   5.975   7.476   1.513
 1134W        W 4878   3.705   3.531   1.463
 1135W        W 4879   8.492   5.922   9.605
 1136W        W 4880   1.027   5.934   9.473
 1137W        W 4881   2.821   8.873   2.158
 1138W        W 4882   4.803   3.158   2.705
 1139W        W 4883   9.895   6.015   0.009
 1140W        W 4884   4.998   4.201   8.660
 1141W        W 4885  10.398   7.248   0.212
 1142W        W 4886   9.570   7.055  11.932
 1143W        W 4887   7.586   5.778  11.911
 1144W        W 4888   3.714   1.425   9.346
 1145W        W 4889   0.774   7.047  10.597
 1146W        W 4890   9.188   1.744  10.810
 1147W        W 4891   8.936   3.311   1.082
 1148W        W 4892  10.319   0.471   0.700
 1149W        W 4893   0.296   6.975  10.252
 1150W        W 4894   8.395   5.031   9.656
 1151W        W 4895   0.308   2.857   3.095
 1152W        W 4896   4.411   9.521  10.125
 1153W        W 4897   7.903  10.238   9.573
 1154W        W 4898   2.681   5.664   1.726
 1155W        W 4899   7.185   7.013   0.207
 1156W        W 4900   5.441   7.285   3.704
 1157W        W 4901   8.347  10.489  11.782
 1158W        W 4902   6.474   1.386   9.609
 1159W        W 4903   1.791   4.274   0.631
 1160W        W 4904   9.890   8.902  11.560
 1161W        W 4905   3.528   7.548   1.168
 1162W        W 4906   1.774   3.166   3.010
 1163W        W 4907   6.983   6.040   0.952
 1164W        W 4908   0.489   2.094   0.919
 1165W        W 4909   7.149   9.314   3.275
 1166W        W 4910   2.675   1.934   9.911
 1167W        W 4911   3.700   8.864   0.903
 1168W        W 4912   1.358   0.868  10.531
 1169W        W 4913   9.970   5.711  10.308
 1170W        W 4914   8.748  10.054  10.517
 1171W        W 4915   3.122   9.807  11.350
 1172W        W 4916   1.828   5.745  11.230
 1173W        W 4917   1.001   1.394   3.266
 1174W        W 4918   9.529   7.062   3.437
 1175W        W 4919  10.331   9.852   1.674
 1176W        W 4920   5.748   7.012   2.354
 1177W        W 4921   7.373   5.657   9.092
 1178W        W 4922   2.846   4.814   2.816
 1179W        W 4923   9.475   3.605   3.380
 1180W        W 4924   9.557   4.511   0.414
 1181W        W 4925   5.668   1.296   8.744
 1182W        W 4926   7.045   3.974   2.399
 1183W        W 4927   5.641   3.752   1.975
 1184W        W 4928   7.694   3.824  11.867
 1185W        W 4929   7.168   2.653  10.627
 1186W        W 4930  10.422   4.373   0.771
 1187W        W 4931   7.188   1.233  11.860
 1188W        W 4932   2.924   2.962   8.430
 1189W        W 4933   5.539   2.232   8.803
 1190W        W 4934   8.185   1.910   2.820
 1191W        W 4935   3.313   0.499   2.210
 1192W        W 4936   7.937   7.383   2.708
 1193W        W 4937   0.275   1.346   9.842
 1194W        W 4938   2.346   1.862   8.600
 1195W        W 4939   0.625   8.899   0.948
 1196W        W 4940   6.183   6.004   1.042
 1197W        W 4941   9.078   3.738  10.534
 1198W        W 4942   4.261   1.169   0.850
 1199W        W 4943   2.660   3.782   0.624
 1200W        W 4944   7.890   5.110   0.210
 1201W        W 4945   7.842   8.285  11.334
 1202W        W 4946   7.927   6.610  11.691
 1203W        W 4947   1.233   7.336   3.076
 1204W        W 4948   1.438   6.495  11.017
 1205W        W 4949   7.579   7.895  11.061
 1206W        W 4950   1.680   2.729   3.268
 1207W        W 4951   6.049   1.960   0.744
 1208W        W 4952   2.201   8.578   2.311
 1209W        W 4953   6.893   7.879   9.995
 1210W        W 4954   1.395   5.566   9.431
 1211W        W 4955   1.867   5.912  10.403
 1212W        W 4956   1.753   7.736   8.718
 1213W        W 4957   7.188   1.479  11.321
 1214W        W 4958   2.275   3.788   8.882
 1215W        W 4959  10.023   3.805  10.284
 1216W        W 4960   0.029   9.392   1.419
 1217W        W 4961   9.847   5.490   9.852
 1218W        W 4962   7.586   9.527   8.544
 1219W        W 4963   3.171   2.759   9.359
 1220W        W 4964   7.293   4.422   0.598
 1221W        W 4965   2.967   7.560   8.643
 1222W        W 4966   4.012   7.931   3.414
 1223W        W 4967   3.558   3.167   3.243
 1224W        W 4968   8.197   4.689   0.175
 1225W        W 4969   5.595   1.668   2.528
 1226W        W 4970   3.138   4.092  10.815
 1227W        W 4971   9.527   0.704  11.595
 1228W        W 4972   5.652   8.463   0.209
 1229W        W 4973   2.155   7.332  11.251
 1230W        W 4974   4.596   5.027  10.805
 1231W        W 4975   3.747   1.320  10.372
 1232W        W 4976   2.287   8.424   8.911
 1233W        W 4977   8.956   0.053   1.846
 1234W        W 4978   6.013   5.807   9.571
 1235W        W 4979   0.871   9.955   3.437
 1236W        W 4980   5.721   9.575   2.979
 1237W        W 4981   9.416   1.725   1.496
 1238W        W 4982   3.514   1.711   0.796
 1239W        W 4983   6.991   0.274   9.538
 1240W        W 4984   9.492   0.964   0.908
 1241W        W 4985   9.334   9.600   2.924
 1242W        W 4986   9.326   5.085   9.214
 1243W        W 4987   1.501   7.765   2.931
 1244W        W 4988   2.194   5.785   2.344
 1245W        W 4989   6.174   6.437   3.891
 1246W        W 4990   5.241   3.785   2.302
 1247W        W 4991   0.530   8.296   9.490
 1248W        W 4992   6.221   2.717  10.774
 1249W        W 4993   4.960   3.709   7.812
 1250W        W 4994   4.270   3.901  10.346
 1251W        W 4995   7.378   6.791   3.679
 1252W        W 4996   5.391   7.089  10.558
 1253W        W 4997   5.975   8.381   9.536
 1254W        W 4998   7.166   7.356   0.657
 1255W        W 4999   5.092   0.719   2.153
 1256W        W 5000   4.753   2.707  10.752
 1257W        W 5001   3.343   2.811   0.258
 1258W        W 5002   7.947   0.953   8.867
 1259W        W 5003   5.991   3.907  10.203
 1260W        W 5004   2.249   5.740   8.949
 1261W        W 5005   2.787   4.700   1.939
 1262W        W 5006   9.720   7.146   1.441
 1263W        W 5007   8.559   3.377   3.391
 1264W        W 5008   5.001   7.987   9.786
 1265W        W 5009   1.691   4.697   9.696
 1266W        W 5010   9.120   8.181   9.212
 1267W        W 5011   7.531   5.184   3.614
 1268W        W 5012   6.490   7.339   2.735
 1269W        W 5013   4.545   8.130  10.023
 1270W        W 5014   4.520   9.685   8.547
 1271W        W 5015   7.807  10.417  11.957
 1272W        W 5016   4.133   1.402   0.390
 1273W        W 5017   1.254   6.462   0.302
 1274W        W 5018   8.106   8.911   0.333
 1275W        W 5019   0.132   6.864   8.614
 1276W        W 5020   4.613   5.012   2.676
 1277W        W 5021   9.366   2.452   9.966
 1278W        W 5022  10.158   0.425   9.891
 1279W        W 5023   1.822   1.662  10.046
 1280W        W 5024   1.293   2.184   1.159
 1281W        W 5025   7.933   8.810   3.330
 1282W        W 5026  10.282   6.461   9.669
 1283W        W 5027   0.473   3.463  10.596
 1284W        W 5028   7.047   5.376   0.773
 1285W        W 5029   5.605   9.406   1.457
 1286W        W 5030   3.445   8.572   3.284
 1287W        W 5031   7.471   5.024   0.475
 1288W        W 5032   7.239   9.296   1.883
 1289W        W 5033   9.125   1.343   0.223
 1290W        W 5034   2.824   4.034   3.295
 1291W        W 5035   9.754   0.497   1.901
 1292W        W 5036   1.827   5.564   0.252
 1293W        W 5037   3.108  10.473   9.624
 1294W        W 5038   1.838  10.329  11.524
 1295W        W 5039  10.278   1.942   2.045
 1296W        W 5040   6.876   7.600   1.228
 1297W        W 5041   6.491   3.539  10.739
 1298W        W 5042   8.744  10.428   9.463
 1299W        W 5043   3.198   6.044   2.376
 1300W        W 5044   4.467   4.614   0.826
 1301W        W 5045  10.473   5.424   2.350
 1302W        W 5046   3.065   0.681   3.283
 1303W        W 5047   6.711   5.561  10.836
 1304W        W 5048   8.904   7.643   0.373
 1305W        W 5049   8.400   8.591   3.296
 1306W        W 5050   2.406   0.283   9.418
 1307W        W 5051   8.387   1.796   0.436
 1308W        W 5052   0.788   2.406   8.574
 1309W        W 5053   0.677   4.164   2.242
 1310W        W 5054   6.934   2.264   8.833
 1311W        W 5055   4.653   7.083   1.659
 1312W        W 5056   0.373   6.417  11.911
 1313W        W 5057   3.119   7.635   3.156
 1314W        W 5058   4.143   7.878   9.779
 1315W        W 5059   2.543   9.550   8.819
 1316W        W 5060   7.661   6.528   1.556
 1317W        W 5061   6.846   2.314  11.741
 1318W        W 5062   1.167   7.577  11.264
 1319W        W 5063   4.625   9.938   2.678
 1320W        W 5064   7.876   6.045   4.146
 1321W        W 5065   4.845   1.320  11.248
 1322W        W 5066   6.564   5.847   2.741
 1323W        W 5067   9.914   7.483   1.819
 1324W        W 5068   6.485   0.970   9.287
 1325W        W 5069   2.375   1.453   9.031
 1326W        W 5070   4.767   6.511   1.824
 1327W        W 5071   4.628   6.162  10.362
 1328W        W 5072   6.981   9.441   1.450
 1329W        W 5073   4.154   4.696   9.968
 1330W        W 5074   2.707   3.222  10.864
 1331W        W 5075   4.203   0.353   1.186
 1332W        W 5076   7.698   8.314   0.527
 1333W        W 5077   9.358   0.229   9.561
 1334W        W 5078   2.810   1.448   9.817
 1335W        W 5079   3.200   4.097  11.319
 1336W        W 5080   7.424   9.754   0.457
 1337W        W 5081   1.214   6.520   1.727
 1338W        W 5082  10.420   0.171   1.145
 1339W        W 5083   8.837   3.163   9.535
 1340W        W 5084   6.075   7.372   3.061
 1341W        W 5085   5.066   7.426  10.056
 1342W        W 5086   7.691   7.336   9.932
 1343W        W 5087   3.821   2.248   1.771
 1344W        W 5088   2.581   3.178  11.945
 1345W        W 5089   3.940   2.628   8.581
 1346W        W 5090   7.850   7.024   9.535
 1347W        W 5091   3.872   3.642  11.045
 1348W        W 5092   6.081   0.370   0.821
 1349W        W 5093   2.180   4.379   8.420
 1350W        W 5094   6.218   0.035  10.840
 1351W        W 5095   7.546   2.914   2.287
 1352W        W 5096   5.552   4.362  11.418
 1353W        W 5097   8.210   5.783   3.853
 1354W        W 5098   8.994   7.689   9.344
 1355W        W 5099   4.721   7.242   9.483
 1356W        W 5100   7.916   1.167   1.930
 1357W        W 5101   7.869   8.360   9.840
 1358W        W 5102   3.698   1.404   1.493
 1359W        W 5103   7.428   7.433  11.265
 1360W        W 5104   6.567   6.855   2.726
 1361W        W 5105   8.450   4.605   3.114
 1362W        W 5106   7.935   5.104   8.071
 1363W        W 5107   4.570  10.350  10.043
 1364W        W 5108   5.721   4.662   2.929
 1365W        W 5109   9.707  10.479   1.263
 1366W        W 5110  10.078   0.513  11.816
 1367W        W 5111   5.105   6.134  11.046
 1368W        W 5112   2.271   6.254   3.774
 1369W        W 5113   1.921   1.107   8.842
 1370W        W 5114   1.807   3.202  10.992
 1371W        W 5115   4.086   2.372   0.456
 1372W        W 5116   9.314   0.523   8.672
 1373W        W 5117   2.908   4.029   2.364
 1374W        W 5118   8.955   2.715  10.740
 1375W        W 5119   4.476   6.774  11.818
 1376W        W 5120   0.139   9.320  11.286
 1377W        W 5121  10.283   6.342   2.510
 1378W        W 5122   5.818   7.686   1.955
 1379W        W 5123   2.689   9.924   3.276
 1380W        W 5124   8.385   4.158   9.568
 1381W        W 5125   5.729   8.316   1.151
 1382W        W 5126   4.714   3.254   9.708
 1383W        W 5127   2.628   1.211  10.270
 1384W        W 5128   7.798  10.363   1.262
 1385W        W 5129   8.289   0.256   0.227
 1386W        W 5130   7.083   8.797   3.315
 1387W        W 5131   7.845   9.365   2.659
 1388W        W 5132   2.256   9.851   1.427
 1389W        W 5133   5.997   2.959  10.339
 1390W        W 5134   7.225   7.864   1.682
 1391W        W 5135   1.707   2.650   9.536
 1392W        W 5136   5.424   0.850  10.877
 1393W        W 5137  10.002   0.656   3.161
 1394W        W 5138   1.266   0.532  11.394
 1395W        W 5139   8.549   1.771   1.390
 1396W        W 5140   2.434   2.198   9.542
 1397W        W 5141   1.947   3.300   1.524
 1398W        W 5142   5.719   8.216   2.740
 1399W        W 5143   1.007   2.334   9.577
 1400W        W 5144   0.699   2.882  11.420
 1401W        W 5145   7.687   1.980  10.264
 1402W        W 5146   5.443   0.811   3.087
 1403W        W 5147   3.948   5.624  10.200
 1404W        W 5148   2.912   4.537  10.972
 1405W        W 5149   8.960   6.210   2.823
 1406W        W 5150   5.565   2.044   0.981
 1407W        W 5151   1.619   8.070  10.074
 1408W        W 5152   2.705   6.969   3.375
 1409W        W 5153   7.587   1.387   3.634
 1410W        W 5154   2.820   3.745   1.949
 1411W        W 5155  10.362   3.058   8.923
 1412W        W 5156   9.116   6.679   2.671
 1413W        W 5157   1.206   3.322   0.240
 1414W        W 5158   4.915   0.668   8.244
 1415W        W 5159   3.576   3.221  10.671
 1416W        W 5160   1.428   2.265   9.316
 1417W        W 5161   0.466   6.863  10.964
 1418W        W 5162   2.153   7.687   1.205
 1419W        W 5163   1.336   4.320   9.002
 1420W        W 5164   2.573   2.673   0.840
 1421W        W 5165   9.065   5.524   9.279
 1422W        W 5166   0.291   4.132  11.937
 1423W        W 5167   2.393   0.875   1.951
 1424W        W 5168   2.363   6.083   9.784
 1425W        W 5169   5.018   3.779   9.035
 1426W        W 5170   8.901   5.299   0.437
 1427W        W 5171   6.212   5.491   0.071
 1428W        W 5172   1.483   5.079   1.924
 1429W        W 5173   0.252   0.562   0.987
 1430W        W 5174   6.138   8.383  10.100
 1431W        W 5175   0.320   0.388  11.364
 1432W        W 5176   9.491   4.147   0.070
 1433W        W 5177   7.981   8.747   1.695
 1434W        W 5178  10.264   8.486   3.140
 1435W        W 5179   4.821   4.563   1.353
 1436W        W 5180   0.940   0.333   0.308
 1437W        W 5181   8.903   9.828   3.174
 1438W        W 5182   1.074  10.363   0.175
 1439W        W 5183   7.987   4.622   2.393
 1440W        W 5184  10.321  10.036   9.056
 1441W        W 5185   8.826   5.503   9.757
 1442W        W 5186   8.843   9.049  11.977
 1443W        W 5187   4.773   1.223   0.723
 1444W        W 5188   7.955   6.500   2.654
 1445W        W 5189   5.434   2.149  10.730
 1446W        W 5190   4.198   5.855  10.631
 1447W        W 5191   2.205   2.189  11.135
 1448W        W 5192   5.238   4.259   3.616
 1449W        W 5193   3.688   5.895   2.235
 1450W        W 5194   1.730   9.619   9.012
 1451W        W 5195   5.277   0.053  10.967
 1452W        W 5196   6.121   9.902   2.955
 1453W        W 5197   2.158   6.533   1.895
 1454W        W 5198   8.160   5.695   8.497
 1455W        W 5199   1.641   4.599   0.267
 1456W        W 5200   7.636   3.274  11.932
 1457W        W 5201   2.841   5.754  10.388
 1458W        W 5202   6.622   6.622   3.169
 1459W        W 5203   6.811   2.070  10.203
 1460W        W 5204   5.716   3.750   2.485
 1461W        W 5205   5.180   1.760   0.823
 1462W        W 5206   3.798   3.547   9.377
 1463W        W 5207  10.217   6.040   0.924
 1464W        W 5208   4.215   1.415   9.576
 1465W        W 5209   3.007   0.871   2.401
 1466W        W 5210   3.561   0.144  11.284
 1467W        W 5211   4.680   0.323   9.891
 1468W        W 5212   1.729   3.137   2.497
 1469W        W 5213   1.010   8.336   0.443
 1470W        W 5214   3.515   6.676   8.661
 1471W        W 5215   2.264   5.472  11.998
 1472W        W 5216   6.441   5.282   2.590
 1473W        W 5217   2.281   0.299   3.470
 1474W        W 5218   7.535   1.497   0.725
 1475W        W 5219   9.730  10.121  10.325
 1476W        W 5220   9.594   2.244   1.244
 1477W        W 5221   1.787   7.290  10.351
 1478W        W 5222   0.749   4.217   3.273
 1479W        W 5223   1.680   7.612  11.309
 1480W        W 5224   8.538   5.293   1.273
 1481W        W 5225   5.711   7.126   4.104
 1482W        W 5226   4.545   8.134   8.966
 1483W        W 5227   9.809   7.662   9.388
 1484W        W 5228   4.991   7.908   8.800
 1485W        W 5229   8.746   5.831   0.967
 1486W        W 5230   3.255   6.330   1.469
 1487W        W 5231   6.826   8.114   8.887
 1488W        W 5232   8.982   3.368   1.587
 1489W        W 5233   9.494   4.719  10.959
 1490W        W 5234   2.742   4.632   0.701
 1491W        W 5235   9.843   2.207   0.183
 1492W        W 5236  10.374   6.106   0.279
 1493W        W 5237   3.138   5.659   1.954
 1494W        W 5238   7.859   7.176  10.395
 1495W        W 5239   6.155   0.523  10.751
 1496W        W 5240   7.853   9.747  11.453
 1497W        W 5241   3.907   8.388   3.197
 1498W        W 5242   0.255   8.556   9.138
 1499W        W 5243   5.313   4.493   1.195
 1500W        W 5244   8.473   6.366   1.267
 1501W        W 5245   7.559   9.529   3.550
 1502W        W 5246   3.721  10.077   9.117
 1503W        W 5247   8.600   0.951   2.886
 1504W        W 5248   4.267   1.490  11.093
 1505W        W 5249   3.569   4.320   0.430
 1506W        W 5250   4.530   6.957   0.636
 1507W        W 5251   8.436   9.000   2.510
 1508W        W 5252   2.059   7.706   2.163
 1509W        W 5253   8.479   8.276  11.949
 1510W        W 5254   1.744   2.129   2.843
 1511W        W 5255   5.663   1.293   0.251
 1512W        W 5256   6.996   7.512   3.481
 1513W        W 5257   0.195   5.938  11.894
 1514W        W 5258   9.436   5.043   1.257
 1515W        W 5259   4.266   1.120   9.999
 1516W        W 5260   0.006   8.407  10.978
 1517W        W 5261   9.350   0.546  10.470
 1518W        W 5262   3.175   7.003   2.151
 1519W        W 5263   7.658   4.162   8.295
 1520W        W 5264   1.462   5.491  11.464
 1521W        W 5265   5.156  10.456   3.372
 1522W        W 5266   9.540   5.449   0.950
 1523W        W 5267   9.051   5.839   3.172
 1524W        W 5268   8.775   7.050   2.774
 1525W        W 5269   3.677   8.616   2.694
 1526W        W 5270   2.743  10.422  11.584
 1527W        W 5271   3.501   2.771  10.964
 1528W        W 5272   7.282   2.319   9.758
 1529W        W 5273   3.324   9.386   3.578
 1530W        W 5274  10.312   6.194   2.999
 1531W        W 5275   1.834   3.717  10.896
 1532W        W 5276   7.502   6.094   9.379
 1533W        W 5277   6.029   7.431   2.557
 1534W        W 5278   5.615   8.303   3.638
 1535W        W 5279   2.229   5.793   1.455
 1536W        W 5280   5.537   6.852   0.403
 1537W        W 5281   3.272   1.136   3.340
 1538W        W 5282  10.355   6.437   9.096
 1539W        W 5283   6.775   8.470   0.299
 1540W        W 5284   9.819   5.244  10.455
 1541W        W 5285   4.471   7.527   1.451
 1542W        W 5286   3.669   6.666   9.161
 1543W        W 5287   1.464   5.548   2.980
 1544W        W 5288   5.589   3.100   9.391
 1545W        W 5289   7.546   8.888   1.952
 1546W        W 5290  10.175   5.979   9.868
 1547W        W 5291   9.840   6.093   8.592
 1548W        W 5292   6.141   9.906   9.974
 1549W        W 5293   9.860   3.260  11.131
 1550W        W 5294   6.093   6.477  11.812
 1551W        W 5295   4.523   7.493   1.968
 1552W        W 5296   2.379   7.562  10.137
 1553W        W 5297   4.473   7.247  11.084
 1554W        W 5298   5.620   1.294   9.256
 1555W        W 5299   7.242   4.460   9.017
 1556W        W 5300   7.673   6.953   0.335
 1557W        W 5301  10.303   4.953   2.483
 1558W        W 5302   8.984   6.241   3.493
 1559W        W 5303   8.092   1.270  11.464
 1560W        W 5304   6.757   5.687   9.849
 1561W        W 5305   1.518   1.904   1.975
 1562W        W 5306   4.873   5.634   9.405
 1563W        W 5307   5.104   1.202   3.017
 1564W        W 5308   3.595   3.738   8.932
 1565W        W 5309   7.480   6.756  11.880
 1566W        W 5310   5.679   2.808   1.589
 1567W        W 5311   3.707   5.880   3.170
 1568W        W 5312   6.114   5.935  11.817
 1569W        W 5313   2.838   0.735  11.492
 1570W        W 5314   7.363   2.361  11.763
 1571W        W 5315   5.299   9.315   2.947
 1572W        W 5316   9.660   5.451   9.356
 1573W        W 5317   2.185   8.039  10.141
 1574W        W 5318   8.058   4.370   3.910
 1575W        W 5319   9.570   0.473   0.598
 1576W        W 5320   4.589   0.738   0.825
 1577W        W 5321   2.201   4.068   0.871
 1578W        W 5322   1.353   9.385  11.625
 1579W        W 5323   1.046   8.385  10.707
 1580W        W 5324   1.602   0.761   0.783
 1581W        W 5325   7.824   1.149   2.463
 1582W        W 5326   9.187   5.592   3.617
 1583W        W 5327   1.854   9.240   0.341
 1584W        W 5328   9.979   0.297   2.804
 1585W        W 5329   1.365   8.425   9.251
 1586W        W 5330   8.848   0.793   9.028
 1587W        W 5331   6.546   5.033  11.055
 1588W        W 5332   8.969   7.930   3.365
 1589W        W 5333   5.431   7.107   8.754
 1590W        W 5334   1.849   8.069   9.145
 1591W        W 5335   6.360   2.425  11.934
 1592W        W 5336   1.231   1.142   0.026
 1593W        W 5337   3.355   8.742   0.440
 1594W        W 5338   5.708   0.190  11.454
 1595W        W 5339   7.107   6.605   1.501
 1596W        W 5340   7.993   7.689  10.635
 1597W        W 5341   9.269   2.385  10.469
 1598W        W 5342   9.838   6.148   2.308
 1599W        W 5343   7.254   2.925   0.905
 1600W        W 5344   0.955   5.161   0.580
 1601W        W 5345  10.351   4.523   1.261
 1602W        W 5346   3.566   3.653   9.817
 1603W        W 5347   8.960   3.583   0.289
 1604W        W 5348   6.019   5.200  10.127
 1605W        W 5349   9.763   8.164  10.747
 1606W        W 5350   8.869   4.376   2.563
 1607W        W 5351   7.406   6.593   1.971
 1608W        W 5352   1.299   5.741   9.925
 1609W        W 5353  10.491   8.743   2.222
 1610W        W 5354   7.608   8.116   1.449
 1611W        W 5355   6.946   4.539  11.809
 1612W        W 5356   5.480   6.229   2.801
 1613W        W 5357   8.207   0.679   9.694
 1614W        W 5358   6.011   9.178   1.740
 1615W        W 5359   5.316   9.884   0.891
 1616W        W 5360   7.659   9.554  11.025
 1617W        W 5361   7.097   3.588   2.059
 1618W        W 5362   4.719   3.629   0.928
 1619W        W 5363   8.506   1.493   9.954
 1620W        W 5364   8.445   3.809   2.451
 1621W        W 5365   2.516   1.653   0.890
 1622W        W 5366   4.122   6.584   9.382
 1623W        W 5367   3.362   2.293   9.620
 1624W        W 5368   9.630   3.468  11.559
 1625W        W 5369   6.131   0.320   1.371
 1626W        W 5370   5.209   3.924   9.509
 1627W        W 5371   4.899   9.037   2.878
 1628W        W 5372   3.310   7.410   3.756
 1629W        W 5373   9.412   9.765   1.731
 1630W        W 5374   1.619  10.443   2.960
 1631W        W 5375   8.495   2.781   9.470
 1632W        W 5376   4.114   4.126   1.952
 1633W        W 5377   1.302   9.437   9.242
 1634W        W 5378   2.825   7.353   0.497
 1635W        W 5379   8.943   3.156  11.028
 1636W        W 5380   5.060  10.490   0.283
 1637W        W 5381   1.228   2.773   1.464
 1638W        W 5382   8.532   5.533  10.559
 1639W        W 5383   2.681   6.041   2.898
 1640W        W 5384   0.215   2.720   9.125
 1641W        W 5385   6.984   6.052   3.575
 1642W        W 5386   4.458   5.676  10.235
 1643W        W 5387   4.280   1.402   3.557
 1644W        W 5388   4.068   6.145   2.901
 1645W        W 5389   7.173   3.205  11.697
 1646W        W 5390   5.935   5.630  10.413
 1647W        W 5391   1.393   6.879   2.842
 1648W        W 5392   0.924   2.696  10.186
 1649W        W 5393   7.223   3.702   2.900
 1650W        W 5394   4.983   5.181   0.332
 1651W        W 5395   7.045   0.376   1.680
 1652W        W 5396   6.029   2.452   2.210
 1653W        W 5397   5.590   2.446   1.944
 1654W        W 5398   7.838   5.669   8.882
 1655W        W 5399   2.167   7.779  11.469
 1656W        W 5400   8.527   0.686   1.532
 1657W        W 5401   5.502  10.233  11.455
 1658W        W 5402   4.780   8.080  11.700
 1659W        W 5403   4.599   5.943   1.185
 1660W        W 5404  10.347   3.128   2.932
 1661W        W 5405   1.918   1.374   9.269
 1662W        W 5406   4.749   3.657  10.495
 1663W        W 5407   0.515   5.236   0.891
 1664W        W 5408   0.547   9.348   0.709
 1665W        W 5409   9.824   2.355   9.783
 1666W        W 5410   2.785   7.869   2.829
 1667W        W 5411   1.236   6.563   2.236
 1668W        W 5412   0.981   9.346   8.396
 1669W        W 5413   6.138   1.045  11.437
 1670W        W 5414   2.233   6.815   2.415
 1671W        W 5415   2.122   4.308   0.137
 1672W        W 5416   0.372   6.547   8.949
 1673W        W 5417   3.951   3.265   3.558
 1674W        W 5418   5.467   3.389   3.671
 1675W        W 5419   4.711   1.267   2.652
 1676W        W 5420   5.167   1.211   1.485
 1677W        W 5421   3.935   8.930   3.009
 1678W        W 5422   1.593   9.174  10.462
 1679W        W 5423   1.112   8.479   1.407
 1680W        W 5424   6.200   1.405   2.315
 1681W        W 5425   3.808   2.828   0.542
 1682W        W 5426   7.565   3.088   9.175
 1683W        W 5427   1.353   2.461  11.582
 1684W        W 5428   5.108   2.238   0.624
 1685W        W 5429   6.355   7.310  10.433
 1686W        W 5430   9.817   1.795  11.457
 1687W        W 5431   1.020   1.407   1.422
 1688W        W 5432   6.388   1.988   1.553
 1689W        W 5433   5.685   8.505   3.169
 1690W        W 5434   4.206   6.727   2.396
 1691W        W 5435   2.292   0.819   2.905
 1692W        W 5436   5.648   3.279   1.780
 1693W        W 5437   7.350   6.900   0.709
 1694W        W 5438   4.472   2.192   0.061
 1695W        W 5439   2.708   5.672  11.254
 1696W        W 5440   7.591   4.111   3.043
 1697W        W 5441  10.242   5.732  11.794
 1698W        W 5442   8.054   1.666  11.793
 1699W        W 5443   5.651   3.185   3.249
 1700W        W 5444   7.901   1.946  10.742
 1701W        W 5445   2.094   4.208   1.859
 1702W        W 5446   5.528  10.267   0.391
 1703W        W 5447   2.226  10.407   9.755
 1704W        W 5448   5.244   2.034   2.686
 1705W        W 5449   2.313   5.144   0.380
 1706W        W 5450   4.784   7.155   8.996
 1707W        W 5451   2.851   9.052   8.979
 1708W        W 5452  10.070   9.404   1.678
 1709W        W 5453   6.958   6.563   0.030
 1710W        W 5454   5.655   2.200   0.494
 1711W        W 5455   9.674   1.795  10.962
 1712W        W 5456   5.579   7.304   1.218
 1713W        W 5457   0.276   4.723   0.943
 1714W        W 5458   9.878   8.061  11.229
 1715W        W 5459   7.347   9.681  11.503
 1716W        W 5460   4.161   9.126   0.716
 1717W        W 5461   9.266   5.474   0.091
 1718W        W 5462   4.611   8.230   2.701
 1719W        W 5463   0.250   2.866  10.890
 1720W        W 5464   6.404   2.474   0.852
 1721W        W 5465   3.325   0.739  10.015
 1722W        W 5466   2.797   1.419  11.862
 1723W        W 5467   0.644   5.083   2.775
 1724W        W 5468  10.256   3.178   0.336
 1725W        W 5469   2.709   7.222   9.793
 1726W        W 5470   2.914   9.024  10.486
 1727W        W 5471   2.850   6.967   0.147
 1728W        W 5472   7.672   7.972   0.958
 1729W        W 5473   0.764  10.040   2.037
 1730W        W 5474   3.940   5.204  11.453
 1731W        W 5475   6.175   2.402   1.353
 1732W        W 5476  10.255   6.498  10.621
 1733W        W 5477   6.263   8.551   0.337
 1734W        W 5478   4.154   6.868   0.252
 1735W        W 5479   2.154   6.098  10.768
 1736W        W 5480   2.631   5.526   2.215
 1737W        W 5481   0.007   6.990  10.746
 1738W        W 5482   5.093   3.117  10.889
 1739W        W 5483   3.059   1.862   1.723
 1740W        W 5484   7.434   7.153   2.723
 1741W        W 5485   6.087   3.387   2.412
 1742W        W 5486   0.263   6.201  11.449
 1743W        W 5487   7.540   8.622   1.459
 1744W        W 5488   9.121   7.095   2.384
 1745W        W 5489   8.695   4.812   0.380
 1746W        W 5490   1.154   7.557   9.358
 1747W        W 5491   4.341   9.988   0.932
 1748W        W 5492   2.483   9.902  11.938
 1749W        W 5493   4.143   2.247   1.390
 1750W        W 5494   7.714   4.818  11.775
 1751W        W 5495   9.170   3.495   2.957
 1752W        W 5496   2.755   6.116   9.011
 1753W        W 5497   0.494   7.354   0.353
 1754W        W 5498   1.502   1.954   9.736
 1755W        W 5499   9.125   7.521   0.805
 1756W        W 5500  10.394   0.774   2.861
 1757W        W 5501   4.970   3.338   1.336
 1758W        W 5502   2.306   3.496  11.600
 1759W        W 5503   9.828   1.358   2.603
 1760W        W 5504   4.984   1.254   9.024
 1761W        W 5505   4.306   3.722   2.200
 1762W        W 5506   9.844   8.365  11.835
 1763W        W 5507   7.431   4.058   1.643
 1764W        W 5508   2.634   3.597   2.398
 1765W        W 5509   4.603   7.244   3.430
 1766W        W 5510   3.261   1.390   9.584
 1767W        W 5511   0.389   8.070   9.027
 1768W        W 5512   8.360   7.041   3.120
 1769W        W 5513   5.852   8.920   8.827
 1770W        W 5514   3.538   6.421  11.924
 1771W        W 5515   2.439   5.222  11.160
 1772W        W 5516   2.908   9.901   1.285
 1773W        W 5517   3.533   4.526   1.381
 1774W        W 5518   6.999  10.464  11.353
 1775W        W 5519   2.877   7.661  10.048
 1776W        W 5520   9.453   2.627   2.013
 1777W        W 5521   5.139   8.311  10.566
 1778W        W 5522   2.701   8.629   8.664
 1779W        W 5523   0.586   3.542   1.627
 1780W        W 5524   5.485   4.699  10.132
 1781W        W 5525   2.276   7.305   2.728
 1782W        W 5526   4.094   6.700   8.864
 1783W        W 5527   5.347   7.994   1.255
 1784W        W 5528   0.067   5.721  11.411
 1785W        W 5529   7.522   0.675   9.020
 1786W        W 5530   5.505   2.656   9.136
 1787W        W 5531   5.706   9.551   0.935
 1788W        W 5532   3.029   2.226   1.361
 1789W        W 5533   8.885   8.559  11.847
 1790W        W 5534   3.293   1.476  11.095
 1791W        W 5535   2.852   6.248  10.489
 1792W        W 5536   8.245   2.158   3.688
 1793W        W 5537   1.151   6.974   0.415
 1794W        W 5538   5.964   6.964   1.365
 1795W        W 5539   2.103   4.278   2.869
 1796W        W 5540   7.137   8.175   1.260
 1797W        W 5541   5.721   5.589  10.917
 1798W        W 5542   4.192   2.830   0.184
 1799W        W 5543   5.941   1.201   1.913
 1800W        W 5544   6.144   6.159   0.266
 1801W        W 5545   5.207   2.871   0.253
 1802W        W 5546  10.496   2.121  11.068
 1803W        W 5547   3.114   2.738  11.306
 1804W        W 5548   6.574   1.882   2.540
 1805W        W 5549   9.860   9.863   1.423
 1806W        W 5550   4.858   9.860  11.692
 1807W        W 5551   7.418   7.290  11.783
 1808W        W 5552   6.041   1.635   9.294
 1809W        W 5553   9.458   8.495   2.263
 1810W        W 5554   3.884   3.640  10.534
 1811W        W 5555   4.913   7.503  11.101
 1812W        W 5556   3.692   9.538   1.501
 1813W        W 5557   3.608   2.652   3.016
 1814W        W 5558   5.153   3.411   9.407
 1815W        W 5559   4.584   6.907   1.194
 1816W        W 5560  10.496   9.123  11.899
 1817W        W 5561   1.911   0.382   9.439
 1818W        W 5562   3.580   9.026   1.391
 1819W        W 5563   6.145   0.637   9.507
 1820W        W 5564   2.058   3.773   1.285
 1821W        W 5565   3.540   2.241   1.343
 1822W        W 5566   5.559   6.058   9.726
 1823W        W 5567   4.201   9.138   9.829
 1824W        W 5568   5.764  10.064   0.813
 1825W        W 5569   8.583   8.571   2.295
 1826W        W 5570   7.053   0.986  11.406
 1827W        W 5571   9.552   2.660   2.516
 1828W        W 5572   0.136   4.093   2.348
 1829W        W 5573   1.693   2.373   9.982
 1830W        W 5574   6.197   7.476   9.982
 1831W        W 5575   6.576   4.535   0.137
 1832W        W 5576   7.665   7.514   2.244
 1833W        W 5577  10.208   2.337   2.384
 1834W        W 5578   6.505   2.811   9.484
 1835W        W 5579   7.539   3.943   0.738
 1836W        W 5580   4.712   0.249   2.906
 1837W        W 5581   8.673   1.725   2.838
 1838W        W 5582   4.074   6.473  11.942
 1839W        W 5583   8.869   7.068   3.264
 1840W        W 5584   6.879   6.793   0.545
 1841W        W 5585   2.764   9.419   1.409
 1842W        W 5586   4.415   4.559   2.800
 1843W        W 5587   7.912   2.794   0.367
 1844W        W 5588   6.134   8.954   2.452
 1845W        W 5589   5.037  10.419  11.423
 1846W        W 5590   1.706   3.783   0.763
 1847W        W 5591   2.182   2.618   9.755
 1848W        W 5592   5.636   7.041   3.274
 1849W        W 5593   0.684   4.875   9.540
 1850W        W 5594   1.300   9.562   2.120
 1851W        W 5595   3.851   7.087   3.247
 1852W        W 5596   6.954   3.283   0.689
 1853W        W 5597   4.339   4.709   1.313
 1854W        W 5598  10.199   8.298  10.492
 1855W        W 5599   8.849   5.059   9.021
 1856W        W 5600   1.011   7.935   8.627
 1857W        W 5601   3.692   4.931   2.330
 1858W        W 5602   1.393   4.099  11.491
 1859W        W 5603   7.921   9.063  11.871
 1860W        W 5604   7.164   9.790   1.760
 1861W        W 5605  10.431   9.887   3.196
 1862W        W 5606   8.463   4.747   2.630
 1863W        W 5607   0.270   2.733   1.692
 1864W        W 5608  10.394   1.125   1.883
 1865W        W 5609   9.713   8.761   1.020
 1866W        W 5610   6.988   1.674   3.423
 1867W        W 5611   2.084   2.719  10.958
 1868W        W 5612   0.365   0.423   3.406
 1869W        W 5613   4.547   6.768  11.278
 1870W        W 5614   5.179   3.510   2.720
 1871W        W 5615   3.660   6.239   9.436
 1872W        W 5616   1.725   2.715   2.222
 1873W        W 5617   9.510   5.613   3.183
 1874W        W 5618   5.848   3.792   8.606
 1875W        W 5619   3.047   0.951   1.132
 1876W        W 5620   5.164   9.267  10.760
 1877W        W 5621   8.540   8.138   2.558
 1878W        W 5622   5.912   2.977   9.778
 1879W        W 5623   0.186   5.571   2.836
 1880W        W 5624   2.324   4.199   1.379
 1881W        W 5625   6.592   2.003   0.815
 1882W        W 5626   1.812   9.880  10.961
 1883W        W 5627   0.703   8.040   1.024
 1884W        W 5628  10.374   2.689   9.846
 1885W        W 5629   1.714   1.784  11.588
 1886W        W 5630   0.951   7.804   1.925
 1887W        W 5631   1.246   3.755   0.527
 1888W        W 5632   6.292   2.626   9.911
 1889W        W 5633   0.807   1.873  10.271
 1890W        W 5634   8.310   6.102   0.859
 1891W        W 5635   1.838   8.114   1.250
 1892W        W 5636   4.857   4.027   9.889
 1893W        W 5637   9.307   0.729   1.836
 1894W        W 5638  10.413   7.047   3.158
 1895W        W 5639   3.184   5.660   0.006
 1896W        W 5640   5.742   7.721   2.875
 1897W        W 5641   1.745   3.998   8.916
 1898W        W 5642   9.383  10.001   3.239
 1899W        W 5643   7.493   8.684   9.993
 1900W        W 5644   3.802   7.347   0.796
 1901W        W 5645   8.532   0.452   9.284
 1902W        W 5646   3.603   6.037   0.689
 1903W        W 5647   2.832   7.188   8.951
 1904W        W 5648   6.104   4.427   9.464
 1905W        W 5649   3.434   2.764   8.499
 1906W        W 5650   3.204   1.829  11.455
 1907W        W 5651   9.470   5.255   1.737
 1908W        W 5652  10.262   7.666   9.160
 1909W        W 5653   3.842   6.117   0.227
 1910W        W 5654   6.446   2.350   2.460
 1911W        W 5655   4.989   6.263   9.055
 1912W        W 5656   5.697   4.065   0.708
 1913W        W 5657   1.201   7.897   0.289
 1914W        W 5658   4.445   0.015   9.564
 1915W        W 5659   0.521   8.325  10.813
 1916W        W 5660   4.199   4.869   1.785
 1917W        W 5661   1.751   6.604   2.459
 1918W        W 5662  10.217   5.647   1.365
 1919W        W 5663   6.296   3.624   0.200
 1920W        W 5664   7.649   9.447   2.182
 1921W        W 5665   8.122   6.538   9.271
 1922W        W 5666   7.036   5.784   0.469
 1923W        W 5667   6.509   4.908   2.932
 1924W        W 5668   6.450   6.368  10.298
 1925W        W 5669  10.378   2.628   0.412
 1926W        W 5670   6.041   1.135   9.507
 1927W        W 5671   1.355   8.952   9.595
 1928W        W 5672  10.426   4.580   3.172
 1929W        W 5673   9.531   5.864   0.336
 1930W        W 5674   3.718   9.979  11.047
 1931W        W 5675   5.199   0.363   3.018
 1932W        W 5676   6.383   1.892   9.599
 1933W        W 5677   3.131   2.087   3.709
 1934W        W 5678   4.545   3.638   9.994
 1935W        W 5679   8.329   8.062  10.500
 1936W        W 5680   2.889   3.655  11.049
 1937W        W 5681   9.904   6.193   0.525
 1938W        W 5682   0.821   2.660   1.926
 1939W        W 5683   0.195   1.931   0.501
 1940W        W 5684   8.000   4.219   0.278
 1941W        W 5685   8.048   4.368   8.603
 1942W        W 5686   9.874   3.557   8.927
 1943W        W 5687   9.430   4.606   0.991
 1944W        W 5688   0.045  10.492   3.504
 1945W        W 5689   3.130   7.839   9.048
 1946W        W 5690   3.386   0.895   0.352
 1947W        W 5691  10.288  10.492   8.821
 1948W        W 5692   9.782   1.268   8.661
 1949W        W 5693   6.094   7.460   9.091
 1950W        W 5694   7.456   3.112   0.408
 1951W        W 5695   6.180   1.249   0.970
 1952W        W 5696   5.068   1.601   1.786
 1953W        W 5697  10.484   2.171   2.783
 1954W        W 5698   5.675   3.700   1.477
 1955W        W 5699   6.609   2.542  10.358
 1956W        W 5700   1.542   9.109   3.371
 1957W        W 5701   8.045   0.252   1.471
 1958W        W 5702   0.762   0.213   2.787
 1959W        W 5703   1.357   3.694  11.076
 1960W        W 5704   6.881   2.886   9.050
 1961W        W 5705   4.792   9.427  10.459
 1962W        W 5706   0.216   6.956   0.491
 1963W        W 5707   0.959   5.628   1.700
 1964W        W 5708   2.334   5.552   1.011
 1965W        W 5709   4.750   6.612   8.598
 1966W        W 5710   8.565   3.732   1.566
 1967W        W 5711   2.633   0.800  11.052
 1968W        W 5712   5.563   7.427   0.170
 1969W        W 5713   0.752   5.089   9.025
 1970W        W 5714   1.302   1.469   9.831
 1971W        W 5715   1.753  10.220   9.025
 1972W        W 5716   5.767   5.420   0.626
 1973W        W 5717   4.948   7.000  10.321
 1974W        W 5718   9.833   6.046   2.841
 1975W        W 5719   7.169   4.117   9.741
 1976W        W 5720  10.482   5.527   3.311
 1977W        W 5721   5.418   8.061   3.210
 1978W        W 5722   7.956   7.376   0.398
 1979W        W 5723   4.790   4.960   9.394
 1980W        W 5724   5.386   6.201   8.732
 1981W        W 5725   6.647   4.958   0.387
 1982W        W 5726  10.292   4.530   2.153
 1983W        W 5727   8.352   1.336   0.793
 1984W        W 5728   0.059   6.677  11.573
 1985W        W 5729   8.232   4.154   0.738
 1986W        W 5730   2.621   4.490   9.239
 1987W        W 5731   4.594   2.618   9.324
 1988W        W 5732   1.794   5.655   1.679
 1989W        W 5733   4.285   7.961   1.939
 1990W        W 5734  10.462   4.569  11.935
 1991W        W 5735   3.650   5.416  11.815
 1992W        W 5736   1.714   3.797   9.823
 1993W        W 5737   2.945   0.736   0.653
 1994W        W 5738   6.007   1.597   9.788
 1995W        W 5739   0.457   4.278   8.721
 1996W        W 5740  10.405   2.335   9.070
 1997W        W 5741   4.532   3.612   8.103
 1998W        W 5742   9.489  10.360   0.770
 1999W        W 5743   9.273   8.788   1.874
 2000W        W 5744   8.807   5.305   3.317
 2001W        W 5745   9.014  10.263   2.883
 2002W        W 5746  10.188   7.880  10.838
 2003W        W 5747   9.724   9.138   8.416
 2004W        W 5748   0.521   6.979   2.423
 2005W        W 5749   3.069   7.647   1.891
 2006W        W 5750  10.265   5.831   2.644
 2007W        W 5751   2.348   9.929   2.448
 2008W        W 5752   4.621   7.635   9.776
 2009W        W 5753   7.820   4.629   9.881
 2010W        W 5754   5.082   5.176   1.908
 2011W        W 5755   0.527   6.363  11.046
 2012W        W 5756   6.809   3.124   3.127
 2013W        W 5757   2.117   2.552  11.486
 2014W        W 5758   5.460   6.894   0.944
 2015W        W 5759   2.422  10.391   3.157
 2016W        W 5760   8.501   3.588   0.997
 2017W        W 5761   5.998   6.988   9.966
 2018W        W 5762   3.739   3.078  11.983
 2019W        W 5763   0.201   0.110   9.136
 2020W        W 5764   6.550  10.127   1.903
 2021W        W 5765   0.826   9.877   9.043
 2022W        W 5766   5.998   4.195   8.893
 2023W        W 5767   2.123   9.857  11.509
 2024W        W 5768   6.590   9.514   1.098
 2025W        W 5769   8.750   6.451   0.316
 2026W        W 5770   1.272   3.415  10.412
 2027W        W 5771   8.076   0.022  10.991
 2028W        W 5772   0.849   8.640   0.081
 2029W        W 5773   1.453   5.376   8.913
 2030W        W 5774   6.633   8.605   0.775
 2031W        W 5775   3.138   8.040   8.562
 2032W        W 5776   3.423   3.111   2.276
 2033W        W 5777   0.719   5.185   1.755
 2034W        W 5778   0.992   9.467   1.345
 2035W        W 5779   8.815   5.558  11.298
 2036W        W 5780   2.264   0.773   1.417
 2037W        W 5781   3.297   1.712   8.759
 2038W        W 5782   2.336   4.656   2.153
 2039W        W 5783   1.686   6.675   9.322
 2040W        W 5784  10.338  10.340  11.393
 2041W        W 5785   0.291   1.795   1.373
 2042W        W 5786   0.278   2.371   3.826
 2043W        W 5787   5.318   8.560   8.435
 2044W        W 5788   8.602   0.784   1.032
 2045W        W 5789   1.976   0.398   3.046
 2046W        W 5790   9.852   5.177  11.381
 2047W        W 5791   6.674   4.441   2.777
 2048W        W 5792   5.202   0.996   0.175
 2049W        W 5793   2.014   2.324   3.227
 2050W        W 5794   0.265   6.114   1.775
 2051W        W 5795   2.306   6.098   9.284
 2052W        W 5796   3.664   9.754   3.590
 2053W        W 5797   3.187   4.569  10.055
 2054W        W 5798   1.786   2.282  10.837
 2055W        W 5799   9.247   5.425  11.564
 2056W        W 5800   0.003   1.259   3.131
 2057W        W 5801   8.650   3.559   2.904
 2058W        W 5802   4.539   6.688  10.349
 2059W        W 5803   6.982   3.242   0.175
 2060W        W 5804   4.244  10.286   9.155
 2061W        W 5805   3.092   1.186  11.491
 2062W        W 5806   2.155   6.992   0.502
 2063W        W 5807   7.499   2.602  11.335
 2064W        W 5808   6.120   3.986   9.726
 2065W        W 5809   7.001   8.704  11.884
 2066W        W 5810   4.626   3.662   3.444
 2067W        W 5811   2.703   5.256  10.299
 2068W        W 5812   8.486   7.190  10.955
 2069W        W 5813   3.823   3.591   0.074
 2070W        W 5814   5.169   3.546   3.232
 2071W        W 5815   0.152  10.040  10.012
 2072W        W 5816   1.648   5.167   2.721
 2073W        W 5817   1.805   1.929   8.666
 2074W        W 5818   4.308   7.054   9.181
 2075W        W 5819   9.872  10.026   1.904
 2076W        W 5820   6.997   2.221   2.198
 2077W        W 5821   5.701   6.821  10.880
 2078W        W 5822   2.047   4.840   0.039
 2079W        W 5823   7.911   1.644   2.478
 2080W        W 5824   5.964   5.540   1.481
 2081W        W 5825   1.125   4.535  11.468
 2082W        W 5826   2.732   5.611  11.752
 2083W        W 5827   2.768   8.472  11.197
 2084W        W 5828   7.081   1.743   1.965
 2085W        W 5829   1.368   1.162   1.169
 2086W        W 5830   4.238   2.259   3.500
 2087W        W 5831   0.539   7.805   9.515
 2088W        W 5832   2.971  10.006  11.838
 2089W        W 5833   1.336   0.911  11.054
 2090W        W 5834   5.620   4.645   9.633
 2091W        W 5835   7.947   3.656   2.426
 2092W        W 5836   8.955   5.367   0.973
 2093W        W 5837   7.938   2.167  11.920
 2094W        W 5838   0.771   5.976   3.361
 2095W        W 5839   3.864   7.110   2.705
 2096W        W 5840   3.614   4.169   8.586
 2097W        W 5841   8.934   2.706   9.209
 2098W        W 5842   7.748   2.811   0.858
 2099W        W 5843   4.704   4.021  11.905
 2100W        W 5844   0.886  10.136   9.518
 2101W        W 5845   8.787   7.909  10.638
 2102W        W 5846   5.236   2.313   3.146
 2103W        W 5847   1.903   3.112   3.525
 2104W        W 5848   3.314   9.674  10.889
 2105W        W 5849   8.629   0.919  11.836
 2106W        W 5850  10.424   4.648  10.828
 2107W        W 5851   7.108   7.972   2.649
 2108W        W 5852   4.287   9.235   3.287
 2109W        W 5853   2.382   3.161   3.387
 2110W        W 5854   7.679   1.296  11.000
 2111W        W 5855   9.404   3.095   1.792
 2112W        W 5856   7.443   7.025   3.230
 2113W        W 5857   5.471   9.383   2.009
 2114W        W 5858   4.765   0.782   0.295
 2115W        W 5859   6.080   6.064   1.555
 2116W        W 5860   5.589   4.084   8.237
 2117W        W 5861   7.627   1.519  10.022
 2118W        W 5862   3.297   7.221   1.690
 2119W        W 5863   0.318   2.845   0.287
 2120W        W 5864   4.688   1.448  10.784
 2121W        W 5865   2.217   6.488   2.830
 2122W        W 5866   1.194   7.975  10.958
 2123W        W 5867   7.442  10.063  10.283
 2124W        W 5868   8.145   0.503   1.011
 2125W        W 5869   8.439   4.051   8.693
 2126W        W 5870   7.045   3.855   3.340
 2127W        W 5871   1.632   9.712   0.355
 2128W        W 5872   8.370   8.421   9.057
 2129W        W 5873   1.375   9.296   1.671
 2130W        W 5874   1.635   4.142   1.641
 2131W        W 5875   7.510   8.085  10.580
 2132W        W 5876   9.025   6.644   1.152
 2133W        W 5877   1.449   1.472   3.633
 2134W        W 5878   2.790   2.180   0.887
 2135W        W 5879   8.931   6.169   1.330
 2136W        W 5880   1.272   3.810  10.087
 2137W        W 5881   0.345   0.488   2.912
 2138W        W 5882   0.447   8.782   9.567
 2139W        W 5883   7.968   0.677   3.356
 2140W        W 5884   9.107   0.783   9.906
 2141W        W 5885   8.082   2.849  10.225
 2142W        W 5886   1.058   6.299   3.644
 2143W        W 5887   8.493   1.888   9.615
 2144W        W 5888   9.495  10.462   2.991
 2145W        W 5889   7.045   2.394   0.205
 2146W        W 5890   8.783   0.217   2.311
 2147W        W 5891   1.824   8.738   0.421
 2148W        W 5892  10.331   8.959   2.700
 2149W        W 5893   1.006   5.312  11.242
 2150W        W 5894   3.173   2.813   9.873
 2151W        W 5895   0.771   1.763   3.009
 2152W        W 5896   7.463   7.409   0.283
 2153W        W 5897   9.995   4.697   2.902
 2154W        W 5898   4.698   3.730   0.408
 2155W        W 5899   9.931   1.231   0.790
 2156W        W 5900   9.279   0.290  11.408
 2157W        W 5901   1.372   9.897   9.490
 2158W        W 5902   2.916   4.826   8.560
 2159W        W 5903   9.075   6.698   0.640
 2160W        W 5904   8.970   8.425   3.104
 2161W        W 5905   8.085   3.535  11.798
 2162W        W 5906   6.815   8.993   0.248
 2163W        W 5907   6.114   9.528   1.372
 2164W        W 5908   7.922   6.049   2.389
 2165W        W 5909   7.758   7.634  11.978
 2166W        W 5910   4.413   2.681   3.265
 2167W        W 5911   4.126   5.013   0.920
 2168W        W 5912   3.384   9.951   1.461
 2169W        W 5913   7.700   9.266   8.995
 2170W        W 5914  10.315   8.411   2.569
 2171W        W 5915   5.261   1.463   0.001
 2172W        W 5916   7.054   0.408  10.462
 2173W        W 5917   2.586   2.060   1.594
 2174W        W 5918   4.460   2.760   0.604
 2175W        W 5919   1.353   6.855  11.953
 2176W        W 5920   2.672   1.153   2.724
 2177W        W 5921   4.223   4.802   2.350
 2178W        W 5922   0.001   4.702   1.721
 2179W        W 5923   7.192  10.266   2.856
 2180W        W 5924   4.621   8.951  10.619
 2181W        W 5925   9.294   5.741   1.728
 2182W        W 5926   8.459   2.341   0.342
 2183W        W 5927   3.476   9.095   2.878
 2184W        W 5928   3.099   2.751   2.103
 2185W        W 5929  10.352   2.571   3.063
 2186W        W 5930   5.095   9.793   2.022
 2187W        W 5931  10.272   9.697  10.003
 2188W        W 5932   5.581   9.295   0.261
 2189W        W 5933   1.786   8.650   2.623
 2190W        W 5934   7.002   2.829   0.465
 2191W        W 5935   9.881   8.586   9.542
 2192W        W 5936   5.604   9.991   2.723
 2193W        W 5937   7.059   4.937   9.127
 2194W        W 5938   1.806   6.682  11.737
 2195W        W 5939   8.052   5.044  10.059
 2196W        W 5940   2.587   8.074   9.843
 2197W        W 5941   0.332   6.877   1.363
 2198W        W 5942   5.054   4.933  11.019
 2199W        W 5943   8.585   1.463  11.859
 2200W        W 5944   5.868   9.882  11.458
 2201W        W 5945   8.215   7.791   1.820
 2202W        W 5946   9.647   1.361   2.129
 2203W        W 5947   8.328   0.768   0.217
 2204W        W 5948   7.081  10.162   0.750
 2205W        W 5949   9.215   5.076   3.144
 2206W        W 5950   7.025   9.870  10.528
 2207W        W 5951   2.784   0.667   2.867
 2208W        W 5952   9.967   9.379  11.307
 2209W        W 5953   4.149   0.505   0.689
 2210W        W 5954   5.108   7.080  11.514
 2211W        W 5955   8.026   2.294   9.015
 2212W        W 5956   9.782   1.818   0.500
 2213W        W 5957   4.415   7.065   8.655
 2214W        W 5958   8.586  10.487   2.741
 2215W        W 5959   8.138   7.318   2.194
 2216W        W 5960   4.644   2.579  10.259
 2217W        W 5961   2.824   1.751   1.282
 2218W        W 5962   0.336   1.761  11.551
 2219W        W 5963   1.578   2.782  10.795
 2220W        W 5964   4.125   5.265   2.583
 2221W        W 5965   4.124   4.384  10.372
 2222W        W 5966   4.162   8.360   9.563
 2223W        W 5967   1.994   1.485   8.492
 2224W        W 5968   6.014   2.445  11.516
 2225W        W 5969   9.058   3.836   1.756
 2226W        W 5970  10.339  10.452   0.694
 2227W        W 5971   8.386   5.197   0.269
 2228W        W 5972   8.442   7.434   2.737
 2229W        W 5973   7.615   2.747   2.776
 2230W        W 5974   5.613   8.480   1.917
 2231W        W 5975   3.741   9.364   1.019
 2232W        W 5976   0.700   2.570  11.001
 2233W        W 5977   6.182   9.867   1.007
 2234W        W 5978   6.053  10.343   1.188
 2235W        W 5979   8.336   8.553  10.611
 2236W        W 5980   2.415   1.234  10.936
 2237W        W 5981   8.291  10.296   1.322
 2238W        W 5982  10.116   7.493   0.930
 2239W        W 5983   7.114   5.116   1.630
 2240W        W 5984   8.551   3.733  10.505
 2241W        W 5985   6.928   7.441  11.200
 2242W        W 5986   1.025   5.693  11.654
 2243W        W 5987   7.472   4.303   1.154
 2244W        W 5988   3.091   3.242  10.514
 2245W        W 5989   8.402   8.797  11.841
 2246W        W 5990   2.499   2.788  10.609
 2247W        W 5991   9.912   6.051  11.495
 2248W        W 5992   1.005   7.122   9.110
 2249W        W 5993   5.680   1.796  11.503
 2250W        W 5994   6.494   7.107   3.204
 2251W        W 5995   8.460   7.898   3.563
 2252W        W 5996   1.864   5.603   0.761
 2253W        W 5997   2.688   6.533   3.640
 2254W        W 5998   9.655   0.354   3.345
 2255W        W 5999   3.692   4.768   1.838
 2256W        W 6000   8.449   0.962   1.969
 2257W        W 6001   3.205   6.054   3.249
 2258W        W 6002   1.175   2.255  10.063
 2259W        W 6003   4.329   9.901   1.471
 2260W        W 6004   3.279   5.656   0.908
 2261W        W 6005   5.448   0.849  10.076
 2262W        W 6006   6.375   4.988   9.394
 2263W        W 6007   3.610   5.373  11.111
 2264W        W 6008   0.261   5.081   3.350
 2265W        W 6009   2.348   6.056   1.901
 2266W        W 6010   3.082   8.135   9.934
 2267W        W 6011   7.951   3.324   9.421
 2268W        W 6012   7.389   4.041  11.336
 2269W        W 6013   2.345   6.489   0.845
 2270W        W 6014   4.439   4.615   9.554
 2271W        W 6015   8.460   7.699  11.002
 2272W        W 6016   5.728   1.205   2.364
 2273W        W 6017   9.196   0.283  10.058
 2274W        W 6018   9.970   6.958   0.277
 2275W        W 6019   6.283   6.195  11.394
 2276W        W 6020   5.480   5.860  11.289
 2277W        W 6021   5.039   6.965   9.806
 2278W        W 6022   2.846   7.484  11.986
 2279W        W 6023   8.063   4.531   1.892
 2280W        W 6024   8.947   6.120   9.469
 2281W        W 6025   7.172   1.691   1.475
 2282W        W 6026  10.313   9.891   2.190
 2283W        W 6027   5.555   7.069   9.677
 2284W        W 6028   1.399   7.529   9.794
 2285W        W 6029   6.594   6.208  11.809
 2286W        W 6030   7.161   9.246  11.318
 2287W        W 6031   5.257   7.895  11.851
 2288W        W 6032   2.906   1.069   0.277
 2289W        W 6033   3.398   0.379  11.740
 2290W        W 6034   4.926   4.401   9.528
 2291W        W 6035  10.166   1.465   2.204
 2292W        W 6036   9.381   8.119  11.113
 2293W        W 6037   8.021   0.291   2.495
 2294W        W 6038   1.577   3.351  10.014
 2295W        W 6039   1.522   8.267   0.524
 2296W        W 6040   7.076   3.079   2.183
 2297W        W 6041   0.072   4.005  10.122
 2298W        W 6042   9.298   1.338   2.560
 2299W        W 6043   6.476   2.435   1.907
 2300W        W 6044   0.275   6.460   0.404
 2301W        W 6045   1.261   6.901   3.364
 2302W        W 6046   1.959  10.445   0.742
 2303W        W 6047   2.773   6.401   8.572
 2304W        W 6048   0.448   2.280   8.966
 2305W        W 6049   7.985   4.173   2.663
 2306W        W 6050   7.014   8.897   9.095
 2307W        W 6051   1.162   5.096   1.533
 2308W        W 6052   9.611  10.337  10.879
 2309W        W 6053   8.344  10.453   2.285
 2310W        W 6054   1.587   5.186   0.874
 2311W        W 6055   9.532   0.916   3.040
 2312W        W 6056   0.806   3.294   2.828
 2313W        W 6057   2.802   8.530   1.349
 2314W        W 6058   0.084   2.196   3.386
 2315W        W 6059   1.269   3.192  10.863
 2316W        W 6060   0.302   2.359  10.756
 2317W        W 6061   3.586   4.137   0.894
 2318W        W 6062   5.075   8.405  11.052
 2319W        W 6063   0.452   1.829   9.830
 2320W        W 6064   0.871   0.914  11.279
 2321W        W 6065   1.987   7.085   9.311
 2322W        W 6066   5.214   6.650  10.782
 2323W        W 6067   0.899   6.338   1.384
 2324W        W 6068   2.242  10.206  10.760
 2325W        W 6069   7.379   5.700   3.522
 2326W        W 6070   6.254   2.882  11.705
 2327W        W 6071   3.370   7.079   9.543
 2328W        W 6072   8.100   8.140   0.778
 2329W        W 6073   3.744   6.882  11.913
 2330W        W 6074   1.386   9.302   0.132
 2331W        W 6075   5.459   6.069   1.110
 2332W        W 6076   3.674   7.164  10.566
 2333W        W 6077  10.105   6.558  11.345
 2334W        W 6078   7.468   3.278  10.198
 2335W        W 6079   6.675   3.708   0.626
 2336W        W 6080   7.088   4.545   1.577
 2337W        W 6081   0.530   1.886  10.721
 2338W        W 6082   3.819   8.836   3.491
 2339W        W 6083   9.570   2.787   9.033
 2340W        W 6084   5.580   7.960   0.230
 2341W        W 6085   9.288   9.867   9.955
 2342W        W 6086   7.178   2.728   8.625
 2343W        W 6087   5.251   7.600   3.094
 2344W        W 6088   3.736   3.783  11.537
 2345W        W 6089   5.583   1.725   9.535
 2346W        W 6090   8.760   1.289   2.493
 2347W        W 6091   7.993   3.670   0.786
 2348W        W 6092   9.116   2.633   2.836
 2349W        W 6093  10.028   7.162   3.486
 2350W        W 6094   8.894   5.720  11.816
 2351W        W 6095   4.206   3.795   9.609
 2352W        W 6096   7.502   5.005   8.885
 2353W        W 6097   0.468   4.595   0.088
 2354W        W 6098   3.204   5.420  10.216
 2355W        W 6099   3.270   1.235   0.751
 2356W        W 6100   1.719   9.775   9.854
 2357W        W 6101   6.149   1.262   8.968
 2358W        W 6102   1.664   9.667  10.351
 2359W        W 6103   0.478   2.121  11.202
 2360W        W 6104   1.505  10.424   1.789
 2361W        W 6105   7.173   5.048   1.143
 2362W        W 6106   7.359   3.188   2.812
 2363W        W 6107   6.473   4.517  11.605
 2364W        W 6108   0.730   1.247  10.940
 2365W        W 6109   4.330   2.734   1.413
 2366W        W 6110   5.562   8.948   1.678
 2367W        W 6111   6.534   0.038   9.630
 2368W        W 6112   3.155   3.718   3.554
 2369W        W 6113   2.306   9.448  11.780
 2370W        W 6114  10.296   9.123   8.935
 2371W        W 6115   4.633   3.725   1.420
 2372W        W 6116   2.147   9.518   8.488
 2373W        W 6117   9.089   4.584   0.612
 2374W        W 6118   8.085   6.598   9.763
 2375W        W 6119   2.825   3.941   1.485
 2376W        W 6120  10.127   5.643   9.453
 2377W        W 6121   2.952   8.592  10.161
 2378W        W 6122   3.651   7.967  11.824
 2379W        W 6123   6.822   5.511   1.771
 2380W        W 6124   3.806   8.370   2.157
 2381W        W 6125   0.274   1.314  10.735
 2382W        W 6126   3.278   1.301  10.083
 2383W        W 6127   9.070   8.272   8.507
 2384W        W 6128   5.281   3.015   2.562
 2385W        W 6129  10.341   9.170  10.098
 2386W        W 6130   2.075   2.844   8.836
 2387W        W 6131   2.664   5.022   2.370
 2388W        W 6132   8.957   9.828   1.273
 2389W        W 6133   3.167   6.138   1.009
 2390W        W 6134   8.742   0.451   0.117
 2391W        W 6135   1.245   8.168   2.727
 2392W        W 6136   4.589   1.613   9.912
 2393W        W 6137   6.593   2.237   0.358
 2394W        W 6138   3.030   4.101   9.415
 2395W        W 6139   8.981   9.319  10.781
 2396W        W 6140   8.602   4.595   9.404
 2397W        W 6141   4.500  10.448   0.290
 2398W        W 6142   0.164   9.795  10.490
 2399W        W 6143   7.907   4.740  10.771
 2400W        W 6144   1.435   9.080   2.167
 2401W        W 6145   5.935   7.634  10.396
 2402W        W 6146   5.100   8.151   3.644
 2403W        W 6147   0.814   3.550   2.328
 2404W        W 6148   9.764   6.152  10.454
 2405W        W 6149   5.994   8.685  11.883
 2406W        W 6150   3.343   6.832  10.398
 2407W        W 6151   4.656   2.637  11.762
 2408W        W 6152   4.254   1.765   8.739
 2409W        W 6153   3.681   7.746   3.895
 2410W        W 6154   8.925   7.528   2.586
 2411W        W 6155   7.763   0.428   8.432
 2412W        W 6156  10.065   9.467   1.183
 2413W        W 6157   1.595   4.487   3.627
 2414W        W 6158   8.551   9.374  10.068
 2415W        W 6159   5.319   4.788   2.150
 2416W        W 6160   8.854  10.441  11.365
 2417W        W 6161   3.076   0.256   3.626
 2418W        W 6162   7.593   2.693   9.538
 2419W        W 6163   5.543   8.303  11.754
 2420W        W 6164  10.428   7.894   3.370
 2421W        W 6165   6.520   0.467  11.954
 2422W        W 6166   2.394   6.829   9.618
 2423W        W 6167   2.854   8.102   9.389
 2424W        W 6168   8.417   4.199   1.245
 2425W        W 6169   5.572   5.142  10.369
 2426W        W 6170   9.952   1.876   9.918
 2427W        W 6171   4.758   3.670   2.459
 2428W        W 6172  10.116   8.388   0.288
 2429W        W 6173   5.069   9.241   0.225
 2430W        W 6174   4.683   1.216  10.320
 2431W        W 6175   0.675   2.286   9.960
 2432W        W 6176   2.231   4.781   9.077
 2433W        W 6177   8.883   9.562   1.742
 2434W        W 6178   7.247   6.491   9.901
 2435W        W 6179   0.397   4.320   0.529
 2436W        W 6180   9.218   5.756   1.215
 2437W        W 6181   2.755   9.458   2.928
 2438W        W 6182   2.709   7.826   0.684
 2439W        W 6183   2.556   0.313  11.305
 2440W        W 6184   6.148   4.734  11.268
 2441W        W 6185   2.908   0.275   9.269
 2442W        W 6186   0.952   0.516   8.398
 2443W        W 6187   9.886   3.736   1.270
 2444W        W 6188   4.959   4.008   4.102
 2445W        W 6189   7.166   7.716  10.831
 2446W        W 6190   8.991   5.958   8.995
 2447W        W 6191   1.654   4.209  10.763
 2448W        W 6192   7.082   4.595   9.524
 2449W        W 6193   0.764   1.441  10.000
 2450W        W 6194   8.889   0.280   0.909
 2451W        W 6195  10.343   7.180   8.986
 2452W        W 6196   2.132   1.845  10.773
 2453W        W 6197   3.720   0.985   9.113
 2454W        W 6198   2.278   8.557   9.438
 2455W        W 6199   4.155   1.335   1.834
 2456W        W 6200   7.575   8.044   3.548
 2457W        W 6201   6.913   0.807   9.563
 2458W        W 6202   1.859   1.355   2.017
 2459W        W 6203   7.457   8.427  11.660
 2460W        W 6204   2.725   2.100   2.924
 2461W        W 6205  10.459  10.042  10.946
 2462W        W 6206   3.184   7.878   3.595
 2463W        W 6207   7.950   0.788   2.820
 2464W        W 6208   2.353   7.694   3.050
 2465W        W 6209   2.623   2.273   2.451
 2466W        W 6210  10.397   3.720   0.017
 2467W        W 6211   6.490   6.981   1.838
 2468W        W 6212   6.111  10.468   1.736
 2469W        W 6213   3.898   0.089   8.936
 2470W        W 6214   3.769   0.539   9.341
 2471W        W 6215   7.187   7.845   0.872
 2472W        W 6216   5.067   3.570   9.879
 2473W        W 6217   8.101   9.306  10.347
 2474W        W 6218   1.773   0.869   1.261
 2475W        W 6219   1.880   2.101  10.372
 2476W        W 6220   6.676   2.889   0.860
 2477W        W 6221   4.608   8.559  11.899
 2478W        W 6222  10.004   9.558   8.559
 2479W        W 6223   6.263   8.840  11.450
 2480W        W 6224   0.407   4.199   1.022
 2481W        W 6225   6.069   6.303   3.399
 2482W        W 6226   8.268   7.994   8.783
 2483W        W 6227   4.176   7.694   0.813
 2484W        W 6228   5.228  10.160  11.909
 2485W        W 6229  10.144   8.525   1.170
 2486W        W 6230   5.125   2.527  10.010
 2487W        W 6231   3.196  10.446   1.293
 2488W        W 6232   5.015   6.011  11.895
 2489W        W 6233   7.560   8.805   8.750
 2490W        W 6234   8.941   3.199   9.047
 2491W        W 6235   0.877   7.475  10.290
 2492W        W 6236   0.376   1.596  10.310
 2493W        W 6237   0.920   8.963   1.424
 2494W        W 6238  10.094   8.131   9.437
 2495W        W 6239   7.160   2.887  11.078
 2496W        W 6240   2.898   0.224   1.598
 2497W        W 6241   2.480   7.241   9.308
 2498W        W 6242   3.895   8.079   1.625
 2499W        W 6243   5.468   4.253   3.147
 2500W        W 6244   9.934   2.446  11.670
 2501W        W 6245   3.383   0.281   1.747
 2502W        W 6246   7.561   3.800  10.429
 2503W        W 6247   4.250   3.875  11.286
 2504W        W 6248   0.035   5.925   2.207
 2505W        W 6249   0.660   6.567  10.268
 2506W        W 6250   7.885   2.321   2.780
 2507W        W 6251   9.392   3.157   1.283
 2508W        W 6252   3.729   1.284   0.993
 2509W        W 6253   4.608   7.997   3.627
 2510W        W 6254   1.203   5.320  10.295
 2511W        W 6255   5.720   9.898   1.298
 2512W        W 6256   0.729   7.447   2.254
 2513W        W 6257   7.934  10.027  11.050
 2514W        W 6258   9.410   7.671  10.170
 2515W        W 6259   5.673   4.490   9.153
 2516W        W 6260   7.998   1.713   1.963
 2517W        W 6261   7.823   7.054   0.870
 2518W        W 6262   7.942   0.299   2.990
 2519W        W 6263   9.354   2.818   0.490
 2520W        W 6264   2.143   7.441   1.732
 2521W        W 6265   4.146   8.632   0.861
 2522W        W 6266   8.903   5.967  10.966
 2523W        W 6267   9.585   9.991   3.812
 2524W        W 6268   9.997   4.477   1.700
 2525W        W 6269   2.391   5.328   1.469
 2526W        W 6270  10.054   4.878  11.812
 2527W        W 6271   8.118   2.459   1.441
 2528W        W 6272   9.177   3.670   9.173
 2529W        W 6273   6.269   2.881   1.170
 2530W        W 6274  10.285   1.276   9.985
 2531W        W 6275  10.428   2.426   1.926
 2532W        W 6276   6.496   2.789   2.778
 2533W        W 6277   8.461   7.204   8.811
 2534W        W 6278   9.926  10.295   2.756
 2535W        W 6279   0.829   6.806   1.166
 2536W        W 6280   3.251   0.221  10.040
 2537W        W 6281   2.305   2.612   3.566
 2538W        W 6282   4.065   5.281   0.474
 2539W        W 6283   6.214   6.935   9.075
 2540W        W 6284   2.870   4.170   9.893
 2541W        W 6285   3.195   9.691   9.926
 2542W        W 6286   5.952   6.633  11.308
 2543W        W 6287   8.159   4.036  11.829
 2544W        W 6288   7.231   5.579   1.192
 2545W        W 6289   0.914   9.148   9.431
 2546W        W 6290   5.224   0.276   1.940
 2547W        W 6291   6.232   1.227  10.037
 2548W        W 6292   7.857   5.445   1.767
 2549W        W 6293   7.422   8.084   3.061
 2550W        W 6294   5.468   7.821   3.750
 2551W        W 6295   7.045   6.072   0.039
 2552W        W 6296   1.895   4.261   9.852
 2553W        W 6297   5.006   2.925   8.551
 2554W        W 6298   3.191   3.476   3.071
 2555W        W 6299   9.292   9.263   3.314
 2556W        W 6300   6.243   4.987   2.163
 2557W        W 6301   4.506   7.708  11.456
 2558W        W 6302   9.002   4.509  11.045
 2559W        W 6303   8.568   9.289  11.123
 2560W        W 6304   5.969   3.506   9.868
 2561W        W 6305  10.412   0.329   3.130
 2562W        W 6306   3.568   2.244   8.732
 2563W        W 6307   8.140   9.330  11.504
 2564W        W 6308   4.729   8.369   0.411
 2565W        W 6309   8.951   1.485   1.533
 2566W        W 6310   6.931   0.817  10.937
 2567W        W 6311   4.597   6.657   9.080
 2568W        W 6312   9.148   3.443   2.066
 2569W        W 6313   8.467   7.405   0.345
 2570W        W 6314   4.684   9.057  10.109
 2571W        W 6315   1.808   6.499   3.530
 2572W        W 6316   5.209   1.327   2.511
 2573W        W 6317   3.623   8.399  10.878
 2574W        W 6318   5.618   1.704   0.546
 2575W        W 6319   3.827   7.481   9.785
 2576W        W 6320   5.661   5.143   1.306
 2577W        W 6321   9.412   7.910   2.071
 2578W        W 6322   7.209   1.367   9.756
 2579W        W 6323   8.509   6.757   9.991
 2580W        W 6324   9.795   9.822   2.908
 2581W        W 6325   4.062   1.528  11.558
 2582W        W 6326   0.744   6.117   9.891
 2583W        W 6327   1.387   8.479  11.073
 2584W        W 6328   3.310   1.459  10.589
 2585W        W 6329  10.478   0.035   9.700
 2586W        W 6330   2.618   4.907   3.616
 2587W        W 6331   5.762   0.769  10.499
 2588W        W 6332   0.770   4.318   1.748
 2589W        W 6333   5.995   7.314   9.558
 2590W        W 6334   0.852   4.670   8.689
 2591W        W 6335   4.590   8.466  11.366
 2592W        W 6336   2.222   3.202  10.699
 2593W        W 6337   6.678   8.404   1.844
 2594W        W 6338   0.378   5.716   9.986
 2595W        W 6339   9.637   5.371   0.446
 2596W        W 6340   9.801   3.064   0.071
 2597W        W 6341   4.315   9.520  11.841
 2598W        W 6342   1.721   3.662  10.402
 2599W        W 6343   0.452   0.485   0.347
 2600W        W 6344   1.770   5.809   8.812
 2601W        W 6345  10.208   2.808  11.951
 2602W        W 6346   5.800   2.495   9.962
 2603W        W 6347   6.585   2.947   1.911
 2604W        W 6348   6.483   3.921  10.337
 2605W        W 6349   7.451   2.282   8.779
 2606W        W 6350   6.488  10.392  10.121
 2607W        W 6351   2.285   9.540   9.303
 2608W        W 6352   4.703   6.424   1.322
 2609W        W 6353   3.602  10.410  10.302
 2610W        W 6354   2.925   5.651   3.114
 2611W        W 6355   6.330  10.264   3.267
 2612W        W 6356   9.382   3.067   2.799
 2613W        W 6357   8.053   1.798   8.813
 2614W        W 6358   8.954   9.519   9.804
 2615W        W 6359   9.446   2.188   1.733
 2616W        W 6360   8.422   0.218   8.838
 2617W        W 6361   5.382   9.565   9.824
 2618W        W 6362   6.969   2.190   3.260
 2619W        W 6363   7.887   3.881  11.356
 2620W        W 6364   1.134   1.409  11.205
 2621W        W 6365   7.091   5.027  11.805
 2622W        W 6366   8.306   7.103   1.239
 2623W        W 6367   4.235   6.549   1.095
 2624W        W 6368   2.730   9.896  10.019
 2625W        W 6369   5.457   7.610   1.584
 2626W        W 6370   7.129   5.738  10.208
 2627W        W 6371   8.421   0.729   8.753
 2628W        W 6372   7.279   9.278   9.287
 2629W        W 6373   6.056   1.985  11.218
 2630W        W 6374   7.358   5.199  10.242
 2631W        W 6375   2.034   9.928   0.667
 2632W        W 6376   9.954   9.317  11.866
 2633W        W 6377   4.594   0.675  10.654
 2634W        W 6378   9.850   9.480  10.790
 2635W        W 6379   9.496   1.785   2.417
 2636W        W 6380   9.511   0.432   9.125
 2637W        W 6381   5.205   1.941  10.268
 2638W        W 6382   2.777   9.285   2.457
 2639W        W 6383   1.145   0.985   0.737
 2640W        W 6384   5.933   3.017   9.016
 2641W        W 6385   6.514  10.170  11.589
 2642W        W 6386   6.981   8.524  10.696
 2643W        W 6387   0.351   2.675  10.057
 2644W        W 6388   2.440   9.545   0.619
 2645W        W 6389   0.515   7.394  10.973
 2646W        W 6390   3.770   0.429   2.518
 2647W        W 6391   5.228   5.047  11.866
 2648W        W 6392   3.707   6.695   9.689
 2649W        W 6393   9.780   6.616   9.528
 2650W        W 6394   0.027   3.396   0.819
 2651W        W 6395   9.467   9.855  10.737
 2652W        W 6396   2.218  10.432  10.274
 2653W        W 6397   0.203   3.346  11.021
 2654W        W 6398   6.139   1.112   2.739
 2655W        W 6399   2.817   6.059   1.430
 2656W        W 6400   5.664   0.062   0.888
 2657W        W 6401   8.914   4.737   2.917
 2658W        W 6402   8.489   4.169   2.839
 2659W        W 6403   3.642   7.080  10.045
 2660W        W 6404   5.248   6.491   9.836
 2661W        W 6405   6.160   7.719   0.074
 2662W        W 6406   7.533   3.927   2.562
 2663W        W 6407   6.082   1.480   0.519
 2664W        W 6408   4.603   8.368   2.148
 2665W        W 6409   7.053   4.825   2.034
 2666W        W 6410   8.015   7.621   3.626
 2667W        W 6411   8.502   3.395   0.504
 2668W        W 6412   5.562   6.468  10.482
 2669W        W 6413   6.349   8.191   8.687
 2670W        W 6414   9.299   4.277   1.871
 2671W        W 6415   4.490   3.229   1.417
 2672W        W 6416   4.217   8.049  10.777
 2673W        W 6417   9.476   6.745   3.047
 2674W        W 6418   1.481   1.937   0.737
 2675W        W 6419   9.727   9.033   1.815
 2676W        W 6420   6.844   8.257   8.390
 2677W        W 6421  10.303   2.748  11.449
 2678W        W 6422   1.835   0.384   0.493
 2679W        W 6423   8.874   5.491   1.900
 2680W        W 6424   0.257   1.312  11.767
 2681W        W 6425   1.605   4.250   2.670
 2682W        W 6426   8.490   4.576   1.631
 2683W        W 6427   6.672   4.462  10.558
 2684W        W 6428   6.680   3.140  11.541
 2685W        W 6429   7.652   0.459   1.220
 2686W        W 6430   9.882   9.119  10.417
 2687W        W 6431  10.347   2.588  10.972
 2688W        W 6432   4.489   5.593   0.379
 2689W        W 6433   1.418   6.024   1.653
 2690W        W 6434   2.221   1.310   0.683
 2691W        W 6435   3.747   1.884   9.545
 2692W        W 6436   9.704   1.859   2.895
 2693W        W 6437   8.393   5.707  11.575
 2694W        W 6438   9.839   1.737   8.863
 2695W        W 6439   0.290   5.138   8.811
 2696W        W 6440   0.301   4.906  10.572
 2697W        W 6441   5.888   7.550   3.865
 2698W        W 6442   8.487   7.575   1.356
 2699W        W 6443   9.235   8.112   9.728
 2700W        W 6444   1.077   7.668   2.654
 2701W        W 6445   4.215   8.914   1.697
 2702W        W 6446   8.837   0.549   1.921
 2703W        W 6447   0.829   9.486  10.006
 2704W        W 6448   4.988   4.025   3.216
 2705W        W 6449   7.445   5.541  11.480
 2706W        W 6450   1.158   4.318  10.355
 2707W        W 6451   2.322   2.704  11.954
 2708W        W 6452   4.525   6.555   0.296
 2709W        W 6453   0.380   9.803   1.257
 2710W        W 6454   2.250   7.219   3.263
 2711W        W 6455   9.738   6.463  11.719
 2712W        W 6456   7.907   8.433   9.295
 2713W        W 6457   7.506   4.755   2.271
 2714W        W 6458   4.364   4.192   9.918
 2715W        W 6459   5.812   9.307   9.627
 2716W        W 6460   8.620   9.369  11.624
 2717W        W 6461   3.104   1.521   0.343
 2718W        W 6462   9.469   6.227  11.277
 2719W        W 6463   9.183   0.703   9.412
 2720W        W 6464   8.364   3.299  10.273
 2721W        W 6465   1.838   0.665  10.331
 2722W        W 6466   3.505   6.923   0.719
 2723W        W 6467   1.390   5.609  11.986
 2724W        W 6468   8.829   7.140   0.633
 2725W        W 6469   0.377   0.221  10.407
 2726W        W 6470   8.614   4.785  11.868
 2727W        W 6471   2.658   9.804   1.751
 2728W        W 6472   7.833   5.256   8.564
 2729W        W 6473  10.334   5.249  11.603
 2730W        W 6474   7.453   6.949   9.183
 2731W        W 6475   2.114  10.308   2.173
 2732W        W 6476   8.581   7.817  10.146
 2733W        W 6477   1.924   6.200   1.591
 2734W        W 6478   6.378   0.676   2.716
 2735W        W 6479   3.185   9.587   2.603
 2736W        W 6480   5.830   4.531   0.869
 2737W        W 6481   0.406  10.378   0.248
 2738W        W 6482   6.202   1.637   1.859
 2739W        W 6483   1.851   8.594   9.144
 2740W        W 6484   6.582  10.302  11.114
 2741W        W 6485   9.249   2.359   0.864
 2742W        W 6486   3.204   0.965  10.465
 2743W        W 6487   1.499   0.995   2.073
 2744W        W 6488   8.723   8.194   9.834
 2745W        W 6489   6.116   4.282  10.993
 2746W        W 6490   3.792   7.671  11.441
 2747W        W 6491   0.482   1.860   0.042
 2748W        W 6492   8.015   3.157   8.883
 2749W        W 6493   7.023   9.176   1.025
 2750W        W 6494   7.505   0.515   2.880
 2751W        W 6495  10.460   4.650   9.986
 2752W        W 6496   9.416   9.379   9.958
 2753W        W 6497   7.476   0.141  11.316
 2754W        W 6498   7.833   6.975   1.396
 2755W        W 6499  10.316   1.216  10.955
 2756W        W 6500   5.166   1.329  10.514
 2757W        W 6501   3.045  10.246   9.157
 2758W        W 6502   0.970   7.046   8.588
 2759W        W 6503   7.097   8.841   0.638
 2760W        W 6504   2.288   8.847   1.537
 2761W        W 6505  10.322   6.012   3.462
 2762W        W 6506   0.363   0.921   0.088
 2763W        W 6507  10.351   4.124  10.579
 2764W        W 6508   8.589   2.640   1.189
 2765W        W 6509   8.402   0.221   9.722
 2766W        W 6510   0.651   7.355   9.352
 2767W        W 6511   8.367   5.535   1.735
 2768W        W 6512   8.719   4.206   9.084
 2769W        W 6513   0.830   3.694   9.341
 2770W        W 6514   6.176   4.437   2.136
 2771W        W 6515   8.382   6.538  11.477
 2772W        W 6516   2.577   4.760  11.268
 2773W        W 6517   9.940   6.938   1.881
 2774W        W 6518   8.291   9.624   0.403
 2775W        W 6519   3.423   3.228  10.104
 2776W        W 6520   0.077   5.991   1.299
 2777W        W 6521   2.012   8.262   0.375
 2778W        W 6522  10.423   6.436   1.520
 2779W        W 6523   6.869   5.304  10.155
 2780W        W 6524   2.658   5.982   0.951
 2781W        W 6525   7.472   5.890  10.793
 2782W        W 6526   6.151   9.998   1.552
 2783W        W 6527   9.185   1.773   2.863
 2784W        W 6528   8.600   5.068   1.739
 2785W        W 6529   0.198   8.605   2.835
 2786W        W 6530   8.340   9.728  11.281
 2787W        W 6531   5.715   7.089   9.166
 2788W        W 6532   7.232   1.852   9.991
 2789W        W 6533   6.167   8.663  10.535
 2790W        W 6534   1.799   6.004   3.511
 2791W        W 6535   5.958   4.090   3.124
 2792W        W 6536   7.016   0.701   0.718
 2793W        W 6537   2.504   8.274   0.542
 2794W        W 6538   9.768   5.924   1.830
 2795W        W 6539   8.378   9.064   3.483
 2796W        W 6540   8.537   2.853  10.485
 2797W        W 6541   3.302   3.281   8.585
 2798W        W 6542   3.113   2.252  11.114
 2799W        W 6543   9.062   1.243   8.738
 2800W        W 6544   8.900   7.015   1.900
 2801W        W 6545   0.205   3.090  10.403
 2802W        W 6546  10.392   8.224   2.088
 2803W        W 6547   2.207   6.401  11.597
 2804W        W 6548  10.450   6.034   9.430
 2805W        W 6549   3.087   2.380   0.123
 2806W        W 6550   3.882   3.336   0.525
 2807W        W 6551   5.571   3.316  11.619
 2808W        W 6552   8.570   8.572   2.816
 2809W        W 6553   8.787  10.343   8.931
 2810W        W 6554   1.941   8.049   1.786
 2811W        W 6555   5.308   9.567   3.391
 2812W        W 6556   3.877   2.330   9.797
 2813W        W 6557   4.540   7.933   0.573
 2814W        W 6558   8.155   1.716  10.336
 2815W        W 6559   9.865   0.516  10.318
 2816W        W 6560   9.868   0.962  10.063
 2817W        W 6561   6.029   2.764   8.407
 2818W        W 6562   7.967   8.886   1.215
 2819W        W 6563   1.168   4.220   3.582
 2820W        W 6564   6.046   0.015   0.225
 2821W        W 6565   9.981   7.416  10.026
 2822W        W 6566   1.125   9.012   0.973
 2823W        W 6567   8.343   0.035   0.833
 2824W        W 6568   3.140   5.243   1.464
 2825W        W 6569   1.892   3.721   1.799
 2826W        W 6570   8.458   6.075   1.692
 2827W        W 6571   0.019   0.204   0.280
 2828W        W 6572   0.247   1.177   8.543
 2829W        W 6573   7.629   1.075  10.354
 2830W        W 6574   7.821   6.196   1.017
 2831W        W 6575   4.079   9.018   1.218
 2832W        W 6576  10.086   2.648   0.840
 2833W        W 6577   9.492   8.909   0.508
 2834W        W 6578   1.044   5.205   9.419
 2835W        W 6579   5.963   8.806   9.839
 2836W        W 6580   9.391   2.327   0.374
 2837W        W 6581   8.049   6.141   8.903
 2838W        W 6582   7.187   5.479  10.637
 2839W        W 6583   8.359   5.445   3.495
 2840W        W 6584   0.309   9.960  11.925
 2841W        W 6585   9.316   5.355   9.707
 2842W        W 6586   3.278   1.294   9.080
 2843W        W 6587   1.030   4.803   1.974
 2844W        W 6588   8.588   6.201   3.184
 2845W        W 6589   9.407   6.323   9.318
 2846W        W 6590   6.944  10.445   0.297
 2847W        W 6591   0.010   0.762   2.314
 2848W        W 6592   6.687   7.830  11.924
 2849W        W 6593   5.298   1.432  11.506
 2850W        W 6594   6.242   8.897   2.970
 2851W        W 6595   1.400   0.959  10.023
 2852W        W 6596   7.963   2.114   2.314
 2853W        W 6597   1.011   5.853   0.318
 2854W        W 6598   8.676   0.036   0.458
 2855W        W 6599   4.645   8.927   9.613
 2856W        W 6600   5.549   3.222   0.164
 2857W        W 6601   1.848   6.756  11.219
 2858W        W 6602   4.149   6.377   0.602
 2859W        W 6603   3.457  10.045  11.996
 2860W        W 6604   2.603   4.108  10.400
 2861W        W 6605   5.247   8.654   3.782
 2862W        W 6606   0.477   8.917   2.070
 2863W        W 6607   1.323   2.027  11.850
 2864W        W 6608   0.407   7.212   2.857
 2865W        W 6609   3.207   1.840   9.861
 2866W        W 6610   7.249   0.381   9.998
 2867W        W 6611   4.738   3.134  10.253
 2868W        W 6612   4.552   9.424   9.575
 2869W        W 6613   8.441   4.353   3.539
 2870W        W 6614   8.597   3.865   0.050
 2871W        W 6615   9.367   1.788   3.359
 2872W        W 6616   3.040   2.663   1.081
 2873W        W 6617   1.268  10.358   9.255
 2874W        W 6618   6.636   5.662   0.926
 2875W        W 6619   4.422   5.831  11.404
 2876W        W 6620   7.960   8.163  10.831
 2877W        W 6621   1.401   4.747  11.843
 2878W        W 6622   1.842   9.931   1.135
 2879W        W 6623   3.007   9.162  11.871
 2880W        W 6624   8.810   9.512   0.282
 2881W        W 6625   4.177   7.410  10.137
 2882W        W 6626   8.505   1.317  10.449
 2883W        W 6627   3.033   0.062   2.085
 2884W        W 6628   0.434   7.111   1.936
 2885W        W 6629   9.278   9.298   1.941
 2886W        W 6630   7.385   0.080   1.461
 2887W        W 6631   1.132   8.284   1.915
 2888W        W 6632   5.051   8.737   9.303
 2889W        W 6633   4.589   9.093  11.981
 2890W        W 6634   1.491   9.329   1.151
 2891W        W 6635   2.810   9.478   9.256
 2892W        W 6636   5.928   7.994   8.927
 2893W        W 6637   7.860   9.765  10.430
 2894W        W 6638   6.187   4.226   0.705
 2895W        W 6639   3.331   0.458  10.479
 2896W        W 6640   8.297   2.356   1.974
 2897W        W 6641   4.628   2.643   1.895
 2898W        W 6642  10.161   5.221   0.503
 2899W        W 6643   6.751   1.664  10.559
 2900W        W 6644   2.111   2.181   1.453
 2901W        W 6645   8.347   6.948  11.793
 2902W        W 6646   6.918   6.597  10.306
 2903W        W 6647   8.061   5.222  10.961
 2904W        W 6648   8.776   5.714   1.469
 2905W        W 6649   4.035   4.666  11.645
 2906W        W 6650   6.011   5.294   9.624
 2907W        W 6651   9.868   4.181  11.399
 2908W        W 6652   4.308   3.091   9.976
 2909W        W 6653   1.595   4.565  11.145
 2910W        W 6654   2.385   4.311   3.339
 2911W        W 6655   7.142   6.934  11.223
 2912W        W 6656   5.697   4.215   2.677
 2913W        W 6657   2.823   9.324   0.877
 2914W        W 6658   3.040   4.734   1.166
 2915W        W 6659  10.322   3.480   1.294
 2916W        W 6660   4.881   8.657   2.521
 2917W        W 6661   5.204   0.490   0.258
 2918W        W 6662   8.181   3.715   7.980
 2919W        W 6663   7.897   6.901   3.516
 2920W        W 6664   2.708   9.448   9.749
 2921W        W 6665  10.153   5.988  10.731
 2922W        W 6666   9.794   5.588   2.641
 2923W        W 6667   5.115   7.557   9.548
 2924W        W 6668   3.576   4.004   9.392
 2925W        W 6669   1.111   0.108  11.712
 2926W        W 6670   1.662  10.234   0.373
 2927W        W 6671  10.477   7.394  10.084
 2928W        W 6672   7.687   6.524   9.043
 2929W        W 6673   8.314   5.814   1.273
 2930W        W 6674   4.593   6.285  11.864
 2931W        W 6675   3.396   4.537  11.093
 2932W        W 6676  10.032   1.349   9.144
 2933W        W 6677   0.193   5.263  10.229
 2934W        W 6678   0.979   1.620  10.697
 2935W        W 6679   1.690   7.415   1.972
 2936W        W 6680   0.216   0.389  10.872
 2937W        W 6681   7.019   4.871   0.705
 2938W        W 6682   6.823   8.932   1.857
 2939W        W 6683   4.560   8.541   9.270
 2940W        W 6684   7.526   4.766   1.391
 2941W        W 6685   4.187   8.291   0.496
 2942W        W 6686   5.126   3.209  11.870
 2943W        W 6687   4.690   5.956   1.745
 2944W        W 6688   8.650   8.080   9.334
 2945W        W 6689   0.176   4.453  10.404
 2946W        W 6690   6.379   2.037  10.528
 2947W        W 6691   0.233   7.988   0.748
 2948W        W 6692   9.813   0.374  11.296
 2949W        W 6693   8.464   7.515  10.536
 2950W        W 6694   1.187   5.197  11.754
 2951W        W 6695   6.552   3.750   2.327
 2952W        W 6696   5.188   7.420   2.634
 2953W        W 6697   3.861   1.272  11.956
 2954W        W 6698   2.528   6.660   0.400
 2955W        W 6699   5.541   8.074   2.223
 2956W        W 6700   5.098   8.361   0.024
 2957W        W 6701   0.483   1.404   3.233
 2958W        W 6702   6.278   2.125  10.030
 2959W        W 6703   8.128   5.515   2.208
 2960W        W 6704   4.260   4.813   0.369
 2961W        W 6705   1.298   2.823   1.962
 2962W        W 6706   0.233   4.189   3.337
 2963W        W 6707   5.277   3.506  11.211
 2964W        W 6708   1.961   8.272  10.626
 2965W        W 6709   5.706   2.107  10.281
 2966W        W 6710   9.038   1.216   9.269
 2967W        W 6711   9.292   7.923  10.653
 2968W        W 6712   7.778   6.023   3.642
 2969W        W 6713   4.224   2.097  10.223
 2970W        W 6714   0.589   8.515   1.298
 2971W        W 6715   8.544   5.100   0.780
 2972W        W 6716   8.829   1.984   8.287
 2973W        W 6717   4.071   3.230  10.788
 2974W        W 6718   4.169   6.098  10.150
 2975W        W 6719   2.248   7.921   8.799
 2976W        W 6720   0.393   4.628   3.559
 2977W        W 6721   1.696   9.450   2.465
 2978W        W 6722   3.760   1.408   9.858
 2979W        W 6723   9.760   8.470   3.321
 2980W        W 6724   0.935   3.209   9.480
 2981W        W 6725   7.036   4.069   1.313
 2982W        W 6726   0.716   2.812   9.204
 2983W        W 6727   5.197   4.042   2.747
 2984W        W 6728   2.998   6.898   0.668
 2985W        W 6729   4.016   6.868   0.739
 2986W        W 6730   9.091   4.625   9.316
 2987W        W 6731   3.792   5.738   9.464
 2988W        W 6732   5.522   4.306   8.695
 2989W        W 6733   7.871   2.654   3.218
 2990W        W 6734   1.711   1.665  10.545
 2991W        W 6735   3.681   7.148  11.456
 2992W        W 6736   8.681   2.383   3.439
 2993W        W 6737   6.978   0.466  11.368
 2994W        W 6738   2.386   8.417  10.403
 2995W        W 6739   1.655   3.552   0.306
 2996W        W 6740   3.144   6.457   8.949
 2997W        W 6741  10.357   4.203  11.220
 2998W        W 6742   5.211   2.344   3.692
 2999W        W 6743   4.277   3.371   3.163
 3000W        W 6744   3.604   5.913  11.828
 3001W        W 6745   9.486   4.130   0.809
 3002W        W 6746   6.204   5.722   0.545
 3003W        W 6747   0.941   3.311  11.807
 3004W        W 6748   2.715   4.952   1.495
 3005W        W 6749   0.907   7.102  11.112
 3006W        W 6750   3.260   5.939  10.140
 3007W        W 6751   8.476   1.870   1.880
 3008W        W 6752   6.629   9.817   1.504
 3009W        W 6753   7.046  10.400   9.938
 3010W        W 6754   5.009   9.351  11.735
 3011W        W 6755   4.244   7.049   1.974
 3012W        W 6756   7.830   9.646   0.780
 3013W        W 6757   7.097   8.545   8.725
 3014W        W 6758  10.040   5.718   0.401
 3015W        W 6759  10.055   3.510   8.429
 3016W        W 6760   1.324   3.371   3.125
 3017W        W 6761   4.247   6.168   1.477
 3018W        W 6762   4.733   7.483   0.476
 3019W        W 6763   0.998   5.558   9.038
 3020W        W 6764   5.696   0.393  10.975
 3021W        W 6765   5.535   0.991  11.806
 3022W        W 6766   8.019   8.861   9.017
 3023W        W 6767   6.019  10.331   8.980
 3024W        W 6768   1.443   0.227   0.198
 3025W        W 6769   9.752   1.383   1.263
 3026W        W 6770   8.561   5.230   2.252
 3027W        W 6771   2.700   6.051   3.426
 3028W        W 6772   4.653   3.120   9.229
 3029W        W 6773   9.912   5.249   1.253
 3030W        W 6774   5.201   0.276   0.739
 3031W        W 6775   2.847   1.796   9.020
 3032W        W 6776   5.194   5.557  10.981
 3033W        W 6777   2.616   3.110   2.551
 3034W        W 6778   9.680   2.188   3.278
 3035W        W 6779   8.958   6.592   9.282
 3036W        W 6780   1.007   9.557   0.334
 3037W        W 6781   6.469   9.970   0.110
 3038W        W 6782   4.508   4.486  11.686
 3039W        W 6783   1.778   5.894   1.217
 3040W        W 6784   5.992   8.868   9.333
 3041W        W 6785   7.587   9.607   9.509
 3042W        W 6786   3.737   6.990   1.185
 3043W        W 6787   7.025   4.054   0.788
 3044W        W 6788   8.043   5.033   2.078
 3045W        W 6789   8.459   0.283  10.468
 3046W        W 6790   6.542   4.046  10.839
 3047W        W 6791   4.561   0.850   8.602
 3048W        W 6792   8.925   1.789  11.666
 3049W        W 6793  10.187   7.520   3.112
 3050W        W 6794   3.190   4.953   3.175
 3051W        W 6795   5.960   3.589   3.301
 3052W        W 6796   1.496   7.576  10.805
 3053W        W 6797   0.441   2.250  11.700
 3054W        W 6798   4.706   9.588   1.340
 3055W        W 6799   8.056   3.408  11.316
 3056W        W 6800   5.176   7.490   9.023
 3057W        W 6801   2.184  10.331   1.200
 3058W        W 6802   1.947   5.155   1.733
 3059W        W 6803   9.077   5.019  10.953
 3060W        W 6804   4.623   2.525   1.028
 3061W        W 6805   1.915   3.173  11.515
 3062W        W 6806   3.790   6.250  11.481
 3063W        W 6807  10.357   1.752   9.618
 3064W        W 6808   1.278   3.891  10.609
 3065W        W 6809   9.455   5.522  10.165
 3066W        W 6810  10.017   5.679   3.153
 3067W        W 6811   6.628   6.155   2.292
 3068W        W 6812   3.759   7.095   8.851
 3069W        W 6813   3.115   6.381  11.316
 3070W        W 6814   1.846   5.035   8.868
 3071W        W 6815   2.594   3.707  10.089
 3072W        W 6816   7.929   9.820   8.796
 3073W        W 6817   4.284   8.426  10.427
 3074W        W 6818   0.706   7.870  10.973
 3075W        W 6819  10.489   6.967   9.803
 3076W        W 6820   4.209   9.410   1.571
 3077W        W 6821   2.039   0.279  11.395
 3078W        W 6822   8.156   2.909   1.192
 3079W        W 6823   2.040   8.531   1.834
 3080W        W 6824   1.178   1.314  10.317
 3081W        W 6825   7.461   6.627   2.473
 3082W        W 6826   7.473   0.863   8.531
 3083W        W 6827   6.743   1.793   1.253
 3084W        W 6828   0.201   7.052   9.336
 3085W        W 6829   2.793   1.249   9.317
 3086W        W 6830   7.491   4.087   0.256
 3087W        W 6831   2.578   2.787   8.948
 3088W        W 6832   4.342   0.919   3.255
 3089W        W 6833   7.485   5.526   0.364
 3090W        W 6834   3.328   7.489   9.868
 3091W        W 6835   4.809   0.363   8.642
 3092W        W 6836   0.498   9.481   9.186
 3093W        W 6837   3.538   8.660  11.304
 3094W        W 6838   6.502   0.020   0.969
 3095W        W 6839  10.261   5.165   9.281
 3096W        W 6840   2.577   1.446   0.351
 3097W        W 6841   7.206   7.472   9.911
 3098W        W 6842   3.821   6.590   2.699
 3099W        W 6843   3.327   1.778   1.259
 3100W        W 6844   7.504   0.153   0.317
 3101W        W 6845   6.449   5.529   9.480
 3102W        W 6846   9.163   5.859   2.247
 3103W        W 6847   4.545   9.902   3.175
 3104W        W 6848   5.931   7.587  11.304
 3105W        W 6849   6.699   3.421  10.278
 3106W        W 6850   9.738   1.191   3.465
 3107W        W 6851   6.746   2.775  11.945
 3108W        W 6852   3.137   6.094  10.894
 3109W        W 6853   7.458   0.128   9.303
 3110W        W 6854   1.946   4.469   2.387
 3111W        W 6855   5.710   5.603   9.959
 3112W        W 6856   6.486   6.360   2.735
 3113W        W 6857   3.450   0.056   9.253
 3114W        W 6858   8.506   9.037   3.005
 3115W        W 6859   0.761   0.574   3.712
 3116W        W 6860   9.464   4.659   8.965
 3117W        W 6861   4.005   2.946   3.143
 3118W        W 6862   2.223   9.064   0.767
 3119W        W 6863   2.217   1.967   9.116
 3120W        W 6864   2.883   9.510  10.641
 3121W        W 6865   1.318   9.910   8.982
 3122W        W 6866   9.039   7.496   2.087
 3123W        W 6867   7.440   1.468   3.173
 3124W        W 6868   9.013   2.223   9.047
 3125W        W 6869   0.763   6.361   9.395
 3126W        W 6870   0.047  10.448  10.690
 3127W        W 6871   9.757   7.236   2.243
 3128W        W 6872   2.566   7.648   1.971
 3129W        W 6873   5.937   2.537   8.855
 3130W        W 6874   2.726   9.522   0.175
 3131W        W 6875   4.194   8.171   2.399
 3132W        W 6876   9.830   3.302   2.912
 3133W        W 6877   3.792   9.463  10.800
 3134W        W 6878   0.245   4.448  11.497
 3135W        W 6879   6.566   4.601   9.668
 3136W        W 6880   7.496  10.442   1.919
 3137W        W 6881   0.146   0.442  11.843
 3138W        W 6882   6.472   3.101  11.056
 3139W        W 6883   0.054   9.472   0.870
 3140W        W 6884   8.329   8.414   9.573
 3141W        W 6885   3.776   6.478  10.157
 3142W        W 6886   7.334   5.609   1.695
 3143W        W 6887   1.458   8.920   8.470
 3144W        W 6888   8.439   1.657  11.420
 3145W        W 6889   1.755   3.657  11.434
 3146W        W 6890   6.246   1.509   0.017
 3147W        W 6891   2.739   6.983   2.467
 3148W        W 6892   0.033   1.848  10.616
 3149W        W 6893   7.222   6.219   8.505
 3150W        W 6894   8.874   6.941  10.277
 3151W        W 6895   0.791   6.827   1.661
 3152W        W 6896   7.586  10.221   0.609
 3153W        W 6897   5.345   3.829   8.627
 3154W        W 6898   9.483   0.061  10.435
 3155W        W 6899   2.308   8.151   2.604
 3156W        W 6900   1.630   8.598   2.131
 3157W        W 6901   8.202   2.606  11.986
 3158W        W 6902   4.686   5.223  10.327
 3159W        W 6903   0.044   0.843  10.686
 3160W        W 6904   9.895   4.473   0.794
 3161W        W 6905   0.959   6.611   0.723
 3162W        W 6906   7.404   9.500  10.575
 3163W        W 6907   5.165  10.275   2.033
 3164W        W 6908  10.430   6.411   2.036
 3165W        W 6909   3.026   1.883  11.953
 3166W        W 6910   4.827   3.347   8.823
 3167W        W 6911   7.678   0.924   1.489
 3168W        W 6912   5.743   2.683  10.914
 3169W        W 6913   3.123   6.303   2.833
 3170W        W 6914   6.329   9.070   0.358
 3171W        W 6915   6.169   4.301  10.499
 3172W        W 6916   2.357   8.119   2.090
 3173W        W 6917   7.634   9.924  11.862
 3174W        W 6918   5.162   5.632   1.156
 3175W        W 6919   4.149   1.586  10.178
 3176W        W 6920   3.607   5.223   2.749
 3177W        W 6921   6.128   0.161   9.350
 3178W        W 6922   4.118   1.350   9.049
 3179W        W 6923   4.978   2.740   0.693
 3180W        W 6924   1.000   8.438   9.936
 3181W        W 6925  10.362   8.220   9.013
 3182W        W 6926   2.276   5.634   9.510
 3183W        W 6927   0.929   0.988   9.236
 3184W        W 6928   2.501   4.241   0.472
 3185W        W 6929   5.580   8.051  10.377
 3186W        W 6930   6.918   3.017   2.653
 3187W        W 6931   3.308   4.526  10.601
 3188W        W 6932   6.919   5.393  11.487
 3189W        W 6933   0.476   3.776  11.004
 3190W        W 6934   9.885   1.396   9.665
 3191W        W 6935   6.255   5.635   9.983
 3192W        W 6936   5.977   5.075   1.710
 3193W        W 6937   8.919   8.080  11.692
 3194W        W 6938   8.534   8.556   1.761
 3195W        W 6939   6.652   1.281   8.852
 3196W        W 6940   2.140   9.668   0.233
 3197W        W 6941   5.215   7.562   0.990
 3198W        W 6942   4.128   6.191   8.819
 3199W        W 6943   8.048   0.489   9.087
 3200W        W 6944   2.774   4.443   1.481
 3201W        W 6945   2.643   4.529   8.237
 3202W        W 6946   2.221   1.489  11.703
 3203W        W 6947   6.018   6.118  10.527
 3204W        W 6948   3.141   4.129  10.316
 3205W        W 6949   3.198   0.384   0.241
 3206W        W 6950   9.916  10.262   0.482
 3207W        W 6951   8.867   8.837   1.279
 3208W        W 6952   7.242   3.577   3.744
 3209W        W 6953   9.342   6.922  10.462
 3210W        W 6954   0.636   8.423  11.648
 3211W        W 6955   4.585   7.143   9.990
 3212W        W 6956   8.130   9.532  10.841
 3213W        W 6957   9.431   7.574   0.374
 3214W        W 6958   3.179   8.345   9.022
 3215W        W 6959   1.915   8.532  11.948
 3216W        W 6960   6.058   9.514   0.338
 3217W        W 6961   4.039   4.900  10.463
 3218W        W 6962   4.680   9.106   1.839
 3219W        W 6963   8.400   5.108   3.010
 3220W        W 6964   0.237   5.517   1.437
 3221W        W 6965   4.048   9.704  11.440
 3222W        W 6966   1.585   3.498   3.547
 3223W        W 6967   0.729   7.482   8.718
 3224W        W 6968   1.354   5.620  10.981
 3225W        W 6969   9.450   6.174   1.455
 3226W        W 6970   4.761  10.372  11.847
 3227W        W 6971   0.925   6.104   1.864
 3228W        W 6972   0.453   9.992  10.884
 3229W        W 6973   7.843   0.126   0.851
 3230W        W 6974   5.623   8.005   9.557
 3231W        W 6975   6.315   5.440   1.841
 3232W        W 6976   9.904   3.760   2.699
 3233W        W 6977   2.834   5.172  11.485
 3234W        W 6978   8.448   9.724   9.689
 3235W        W 6979   9.963   0.410   1.419
 3236W        W 6980   6.368   9.466  10.823
 3237W        W 6981   9.299   4.946   0.268
 3238W        W 6982   0.783   3.632   0.273
 3239W        W 6983   4.996   4.830  10.283
 3240W        W 6984  10.402   8.005  11.336
 3241W        W 6985   6.771   1.213  10.012
 3242W        W 6986   0.625   1.646   0.487
 3243W        W 6987   1.971   6.344   9.585
 3244W        W 6988   6.057   9.357  11.431
 3245W        W 6989  10.185   7.326   9.550
 3246W        W 6990   6.135   3.503   8.923
 3247W        W 6991   3.774   6.295   8.418
 3248W        W 6992   2.856   6.108   1.939
 3249W        W 6993   5.219   7.005   2.331
 3250W        W 6994   7.787   4.388   0.727
 3251W        W 6995   8.083   9.784   2.920
 3252W        W 6996   6.786   6.501   8.573
 3253W        W 6997  10.203   9.062   0.915
 3254W        W 6998   9.068   8.046  10.211
 3255W        W 6999   5.197   0.395   8.998
 3256W        W 7000   0.434   1.938   2.646
 3257W        W 7001   5.995   5.097   2.779
 3258W        W 7002   3.601   7.901   3.051
 3259W        W 7003   2.746   0.286   3.228
 3260W        W 7004   9.373   1.220   1.627
 3261W        W 7005   7.939   3.297   9.983
 3262W        W 7006   8.158   0.945   1.297
 3263W        W 7007   3.168   5.037   2.343
 3264W        W 7008   6.665   0.997   2.961
 3265W        W 7009   6.092   8.122  10.552
 3266W        W 7010   1.920   5.576   3.225
 3267W        W 7011   7.226   5.470   9.772
 3268W        W 7012  10.497   5.300   1.026
 3269W        W 7013   0.700   5.284  11.663
 3270W        W 7014   9.112  10.316   0.412
 3271W        W 7015   8.659   4.645  10.296
 3272W        W 7016  10.134   0.340   3.568
 3273W        W 7017   5.307   8.394   9.576
 3274W        W 7018   9.620   6.715  11.299
 3275W        W 7019   7.859   4.228  10.467
 3276W        W 7020   8.375   6.979   9.518
 3277W        W 7021   7.361   6.283   3.807
 3278W        W 7022   5.578   3.770   2.968
 3279W        W 7023   5.788   5.789   0.259
 3280W        W 7024   3.122   2.717   1.575
 3281W        W 7025   5.113   6.750   8.949
 3282W        W 7026   7.873   4.229   9.586
 3283W        W 7027   2.687   6.677   8.999
 3284W        W 7028   3.592   9.488  11.293
 3285W        W 7029   7.917   0.387  11.492
 3286W        W 7030   7.784   5.589   8.150
 3287W        W 7031   8.555   5.399   9.346
 3288W        W 7032   8.271   0.449   3.700
 3289W        W 7033   2.699   6.503   2.637
 3290W        W 7034   5.302   5.577   3.149
 3291W        W 7035   7.504   0.485   3.386
 3292W        W 7036   3.780   9.178   1.847
 3293W        W 7037   6.604   6.030   9.285
 3294W        W 7038   6.449   8.635   2.222
 3295W        W 7039   0.122   8.446  11.556
 3296W        W 7040   5.935   7.124   8.167
 3297W        W 7041   1.421   2.407  10.477
 3298W        W 7042   7.443   3.421   0.821
 3299W        W 7043   1.011   1.808   2.065
 3300W        W 7044   7.358  10.327  11.698
 3301W        W 7045   6.175   3.244   1.933
 3302W        W 7046   7.951   4.736   8.951
 3303W        W 7047   4.232   9.624   0.318
 3304W        W 7048  10.045   5.487  10.824
 3305W        W 7049   6.452   8.082   2.194
 3306W        W 7050   0.003   7.457  10.978
 3307W        W 7051   1.178   0.456   9.943
 3308W        W 7052   1.706   1.840   9.224
 3309W        W 7053   5.734   1.770   2.028
 3310W        W 7054   3.011   2.800  10.796
 3311W        W 7055   9.913   5.224   2.313
 3312W        W 7056   8.569   9.796   2.108
 3313W        W 7057  10.375   9.879   1.168
 3314W        W 7058   4.319   7.142   2.983
 3315W        W 7059   4.029   6.345   3.373
 3316W        W 7060   4.326   1.388   2.324
 3317W        W 7061   9.990   9.793   0.230
 3318W        W 7062   5.239   4.754   9.279
 3319W        W 7063   2.255  10.271   8.559
 3320W        W 7064   4.734   7.500   8.604
 3321W        W 7065   3.682   7.851   0.737
 3322W        W 7066   7.415   7.648   1.272
 3323W        W 7067   8.541   9.806   3.530
 3324W        W 7068   2.709   4.977   9.025
 3325W        W 7069   6.485   9.257  11.689
 3326W        W 7070   1.899   2.622  10.426
 3327W        W 7071   8.438   0.862   3.387
 3328W        W 7072   8.192   1.232   0.047
 3329W        W 7073   5.556   3.629   0.464
 3330W        W 7074   7.016   4.503   1.050
 3331W        W 7075   2.334   0.420  10.470
 3332W        W 7076   2.871   9.473   3.413
 3333W        W 7077   0.672   0.418  10.028
 3334W        W 7078   9.331   7.460   1.253
 3335W        W 7079  10.263   7.064   0.688
 3336W        W 7080   4.731   7.680   9.202
 3337W        W 7081   0.164   8.036   9.929
 3338W        W 7082   8.129   7.556  10.134
 3339W        W 7083   9.111   0.336   0.441
 3340W        W 7084   8.973   9.424   8.766
 3341W        W 7085   1.773   1.229   0.882
 3342W        W 7086   5.689   3.630   0.955
 3343W        W 7087   7.335   1.773   9.437
 3344W        W 7088   4.027  10.241   3.235
 3345W        W 7089   1.828   2.308   8.998
 3346W        W 7090   3.635   0.516  10.948
 3347W        W 7091   3.408   4.531   0.010
 3348W        W 7092   2.414   1.927  10.355
 3349W        W 7093   1.270   5.113   2.389
 3350W        W 7094   1.063   5.195   8.623
 3351W        W 7095   4.343   3.670  10.824
 3352W        W 7096   0.250   3.364   2.394
 3353W        W 7097   8.956   7.955   2.314
 3354W        W 7098   4.585   8.332   0.908
 3355W        W 7099   3.926   4.607   8.660
 3356W        W 7100   2.986  10.312   0.847
 3357W        W 7101   8.364   4.963   9.159
 3358W        W 7102   2.352   8.632   3.372
 3359W        W 7103   5.340   0.754   1.667
 3360W        W 7104   8.416   6.079   0.362
 3361W        W 7105   5.136   3.332   0.857
 3362W        W 7106   6.955   9.961   2.172
 3363W        W 7107   2.114   8.939  10.023
 3364W        W 7108   0.791   5.201   2.255
 3365W        W 7109   5.686   9.903  11.945
 3366W        W 7110   8.124   3.653   1.346
 3367W        W 7111   5.699   7.573   3.362
 3368W        W 7112   6.766   2.842   9.943
 3369W        W 7113   5.819   4.470   0.274
 3370W        W 7114   0.008   9.438   8.523
 3371W        W 7115   5.421   2.144   9.834
 3372W        W 7116   9.122   2.724   3.352
 3373W        W 7117   4.207   8.435   1.809
 3374W        W 7118  10.026  10.495   3.207
 3375W        W 7119   4.959   7.685   1.416
 3376W        W 7120   1.822   2.817   0.741
 3377W        W 7121   5.727   7.837  10.837
 3378W        W 7122   3.820   0.539  11.496
 3379W        W 7123   6.615   8.576   8.945
 3380W        W 7124   9.597   2.784   0.937
 3381W        W 7125   9.458   8.916  10.174
 3382W        W 7126   6.219   2.545   3.643
 3383W        W 7127   3.585   8.918  10.799
 3384W        W 7128   3.135   7.762   0.398
 3385W        W 7129   4.078   4.021   0.967
 3386W        W 7130   1.358   5.502   0.489
 3387W        W 7131   7.733   8.138   2.667
 3388W        W 7132   5.104   9.917   1.352
 3389W        W 7133   3.259   6.927   9.062
 3390W        W 7134   8.101   5.513   3.054
 3391W        W 7135   9.380   0.451   1.063
 3392W        W 7136   8.822   3.232  10.042
 3393W        W 7137   9.034   9.343  11.334
 3394W        W 7138   5.732   2.721   3.746
 3395W        W 7139   1.778   5.521  10.717
 3396W        W 7140   6.932   4.269  11.394
 3397W        W 7141   4.267   3.883   0.174
 3398W        W 7142   2.194   8.085  11.062
 3399W        W 7143   6.188   7.664   8.612
 3400W        W 7144   1.766   1.231   9.748
 3401W        W 7145   5.417   6.488   0.018
 3402W        W 7146   1.308   7.148  10.130
 3403W        W 7147   8.925   3.571  11.784
 3404W        W 7148   6.045   5.183  11.623
 3405W        W 7149   0.520   7.856  10.479
 3406W        W 7150   7.433   6.522  11.373
 3407W        W 7151   8.165   7.864   2.755
 3408W        W 7152   2.528   0.169   1.958
 3409W        W 7153  10.187   0.540  10.939
 3410W        W 7154   6.373  10.487   2.241
 3411W        W 7155   2.744   5.106   4.068
 3412W        W 7156   8.351  10.316  10.314
 3413W        W 7157   9.005   3.543   8.673
 3414W        W 7158   7.177   3.689   0.464
 3415W        W 7159   8.218   7.979   9.828
 3416W        W 7160   0.690   1.199  10.442
 3417W        W 7161   6.784   9.265   9.437
 3418W        W 7162   1.146   0.468   1.885
 3419W        W 7163   4.207   9.348  11.126
 3420W        W 7164   4.973   7.424  10.598
 3421W        W 7165   8.171   6.929   0.281
 3422W        W 7166   4.727   5.454   9.855
 3423W        W 7167   4.018   6.589  11.084
 3424W        W 7168   7.053   8.304   3.465
 3425W        W 7169   3.856   1.926   3.466
 3426W        W 7170   7.395   6.299   0.767
 3427W        W 7171   4.251   3.202   8.907
 3428W        W 7172   0.945   0.415   2.355
 3429W        W 7173   4.298   0.920   0.394
 3430W        W 7174   5.226   1.260   0.980
 3431W        W 7175   7.496   4.762   0.895
 3432W        W 7176   6.939   3.742  10.924
 3433W        W 7177   7.128   1.697   0.941
 3434W        W 7178   5.481   4.894   0.899
 3435W        W 7179   7.256   0.356   8.687
 3436W        W 7180   1.851   6.252   9.065
 3437W        W 7181   6.094   6.782   3.234
 3438W        W 7182   6.458   4.827  10.249
 3439W        W 7183   2.142   9.884   8.890
 3440W        W 7184   3.599   0.840  11.859
 3441W        W 7185   6.545   6.289   3.534
 3442W        W 7186   3.628   9.949  10.541
 3443W        W 7187   7.551   9.067   2.992
 3444W        W 7188   6.456   8.284   9.357
 3445W        W 7189   0.314   1.566   9.395
 3446W        W 7190   9.372   4.855   9.661
 3447W        W 7191   6.091   2.859   0.685
 3448W        W 7192   1.131   4.296   2.469
 3449W        W 7193   8.922   4.873   2.421
 3450W        W 7194   9.491   3.575   1.602
 3451W        W 7195   4.348   2.785   2.310
 3452W        W 7196   0.700   9.209  10.427
 3453W        W 7197   3.848   8.528   1.280
 3454W        W 7198   1.045   2.854   8.799
 3455W        W 7199   4.767   3.076   4.061
 3456W        W 7200   7.047   1.904   0.009
 3457W        W 7201   0.619   6.654   8.505
 3458W        W 7202   1.738   6.078   2.532
 3459W        W 7203   6.952   7.929   3.148
 3460W        W 7204   5.160   8.336   2.841
 3461W        W 7205   5.364   8.833   0.408
 3462W        W 7206   8.699   5.557   8.891
 3463W        W 7207   7.001   9.253  11.829
 3464W        W 7208  10.386  10.212   0.235
 3465W        W 7209   1.474   3.263   0.692
 3466W        W 7210   7.065   6.599   1.001
 3467W        W 7211  10.361   0.676   0.214
 3468W        W 7212   9.930   4.193   9.604
 3469W        W 7213   3.313   5.011  11.305
 3470W        W 7214   7.878   6.910   2.951
 3471W        W 7215   4.714   3.041   1.003
 3472W        W 7216   4.115   4.134  11.732
 3473W        W 7217   9.440   8.325   1.785
 3474W        W 7218   0.869   2.854   0.962
 3475W        W 7219   2.905   5.201   1.919
 3476W        W 7220   0.949   2.348   9.074
 3477W        W 7221   9.892   7.119  11.406
 3478W        W 7222   5.688   7.121  11.344
 3479W        W 7223  10.118   4.564   0.358
 3480W        W 7224   5.518  10.047   3.302
 3481W        W 7225   5.169   1.251   9.519
 3482W        W 7226   1.189   4.229   2.978
 3483W        W 7227   9.687   3.950   9.218
 3484W        W 7228   3.736   8.203  11.373
 3485W        W 7229   0.427   8.637  11.201
 3486W        W 7230  10.218   2.161   0.582
 3487W        W 7231   5.105   0.687  11.775
 3488W        W 7232   7.220   1.883  10.526
 3489W        W 7233   3.820   8.811   9.945
 3490W        W 7234   8.071   3.236   0.203
 3491W        W 7235   1.856   7.886   0.761
 3492W        W 7236   5.527   8.815   1.175
 3493W        W 7237   1.286   8.117  11.440
 3494W        W 7238   9.935   4.681   3.432
 3495W        W 7239   2.671   2.976   1.263
 3496W        W 7240   6.533   8.985   1.121
 3497W        W 7241   1.920   3.556   2.705
 3498W        W 7242   8.688   0.534  10.099
 3499W        W 7243   6.618   6.737   1.382
 3500W        W 7244   5.625   9.964  10.080
 3501W        W 7245   8.787   3.629  10.964
 3502W        W 7246  10.010   0.280   0.307
 3503W        W 7247   9.872   8.329   2.841
 3504W        W 7248   3.164   1.340   1.470
 3505W        W 7249   5.659   6.303   3.719
 3506W        W 7250   4.526   7.656   8.081
 3507W        W 7251   2.776   8.097  10.345
 3508W        W 7252   6.710   5.935  11.279
 3509W        W 7253   2.748  10.344   3.596
 3510W        W 7254   1.379  10.083  11.131
 3511W        W 7255   1.894   6.949   1.995
 3512W        W 7256   3.199   4.771   1.672
 3513W        W 7257   7.109   0.287   3.136
 3514W        W 7258   7.937   0.807  10.697
 3515W        W 7259   2.314   2.882   0.444
 3516W        W 7260   3.061   1.873  10.778
 3517W        W 7261   1.380   3.047   3.528
 3518W        W 7262   8.054   3.531   3.339
 3519W        W 7263  10.254   9.429   2.951
 3520W        W 7264   2.933   1.182  10.837
 3521W        W 7265   0.259   4.285   1.904
 3522W        W 7266   9.662  10.314   9.589
 3523W        W 7267   1.330   1.803  10.230
 3524W        W 7268   7.266   7.900   9.636
 3525W        W 7269   4.493   0.775   2.752
 3526W        W 7270   5.761   8.074   1.613
 3527W        W 7271   1.197   4.293  11.929
 3528W        W 7272   3.115   9.914  10.444
 3529W        W 7273   6.591   0.176   1.830
 3530W        W 7274   5.377   0.467   3.490
 3531W        W 7275   5.113   9.983   2.494
 3532W        W 7276   0.613   0.231  11.931
 3533W        W 7277   6.578   4.495  11.094
 3534W        W 7278   0.740   0.414  11.055
 3535W        W 7279   2.914   1.646  10.285
 3536W        W 7280   3.176   7.862   0.934
 3537W        W 7281   2.641   4.254  11.954
 3538W        W 7282   2.275   1.654  11.227
 3539W        W 7283   4.669   9.626   9.083
 3540W        W 7284   3.719   0.323   0.984
 3541W        W 7285   5.006   6.068   0.869
 3542W        W 7286   3.348   2.687  11.767
 3543W        W 7287   0.440   4.021   1.511
 3544W        W 7288   7.588   7.425  10.766
 3545W        W 7289   7.110   6.226  11.066
 3546W        W 7290   8.428   8.948   0.984
 3547W        W 7291   0.562   2.520   3.427
 3548W        W 7292   0.388   7.444  11.859
 3549W        W 7293   3.563   4.972  10.726
 3550W        W 7294   7.137   8.838   9.617
 3551W        W 7295   9.737   4.311   3.157
 3552W        W 7296   3.640   8.504  11.799
 3553W        W 7297   3.985   0.061   2.192
 3554W        W 7298   6.941   7.897   2.090
 3555W        W 7299   1.379   4.973  11.359
 3556W        W 7300   0.328   5.294  11.320
 3557W        W 7301   7.532   3.190   9.693
 3558W        W 7302  10.016   9.104   9.409
 3559W        W 7303   7.121   0.400   1.165
 3560W        W 7304   0.570   1.316   9.038
 3561W        W 7305   5.710   6.425   1.440
 3562W        W 7306   8.871   0.539  10.627
 3563W        W 7307   0.816   7.014  10.093
 3564W        W 7308   4.548   7.649  10.769
 3565W        W 7309   2.365   6.881   8.114
 3566W        W 7310   4.731   6.835   3.146
 3567W        W 7311   2.854   3.178  11.407
 3568W        W 7312  10.363   2.972   1.305
 3569W        W 7313   0.527   7.047   8.916
 3570W        W 7314   9.965   9.500   9.063
 3571W        W 7315   4.245   3.646   2.708
 3572W        W 7316   8.566   6.665   3.445
 3573W        W 7317   0.817   7.808   9.092
 3574W        W 7318   1.918   2.203   9.511
 3575W        W 7319   7.237   9.421   2.787
 3576W        W 7320   1.507   7.957   9.540
 3577W        W 7321   6.697   7.001  10.928
 3578W        W 7322   4.594   0.760  11.794
 3579W        W 7323   1.293   1.027  11.547
 3580W        W 7324   5.195   4.270   9.122
 3581W        W 7325   6.697   7.392  10.005
 3582W        W 7326   4.002   3.125   1.408
 3583W        W 7327   4.719   6.954   2.146
 3584W        W 7328   5.566   2.558  10.463
 3585W        W 7329   6.259   8.707   8.594
 3586W        W 7330   4.040   8.009   8.695
 3587W        W 7331   2.214   6.599   9.205
 3588W        W 7332  10.302   8.019   2.894
 3589W        W 7333   3.111   1.891   3.242
 3590W        W 7334  10.436   0.902  11.763
 3591W        W 7335   7.500  10.086   1.543
 3592W        W 7336   1.271   3.349   2.626
 3593W        W 7337   3.362   6.111   1.897
 3594W        W 7338   0.861   4.726   2.460
 3595W        W 7339   6.064   2.001  11.750
 3596W        W 7340   8.615   9.400   1.292
 3597W        W 7341   6.539   2.310   2.968
 3598W        W 7342   6.928   6.465  11.488
 3599W        W 7343   4.544   1.105   9.250
 3600W        W 7344   0.785   8.453   2.759
 3601W        W 7345  10.054   0.832   3.617
 3602W        W 7346   4.292   9.425  10.612
 3603W        W 7347   0.517   2.835   8.723
 3604W        W 7348   4.183   4.214   3.607
 3605W        W 7349   4.568   9.972   0.467
 3606W        W 7350   2.217   3.769   9.758
 3607W        W 7351   5.594   5.109   9.846
 3608W        W 7352   5.488   9.868  11.065
 3609W        W 7353   9.293   9.009   8.722
 3610W        W 7354   1.423   9.263   0.632
 3611W        W 7355   9.369   8.097  11.960
 3612W        W 7356   1.401   9.962   2.819
 3613W        W 7357   2.472   1.808   0.018
 3614W        W 7358   5.943   7.921   9.968
 3615W        W 7359   0.738  10.210   2.851
 3616W        W 7360   1.287   2.875   2.977
 3617W        W 7361   5.683   3.590   4.280
 3618W        W 7362   0.386   8.963  11.583
 3619W        W 7363   2.643   7.537  11.502
 3620W        W 7364   7.467  10.109  11.253
 3621W        W 7365   1.760   2.808   1.725
 3622W        W 7366   1.723   9.288   9.979
 3623W        W 7367  10.353   6.101   8.575
 3624W        W 7368   2.065   7.132   8.466
 3625W        W 7369  10.029   7.871  10.254
 3626W        W 7370   1.236   3.636  11.563
 3627W        W 7371   7.254   0.198   3.706
 3628W        W 7372   3.991   0.893  10.930
 3629W        W 7373   7.781   6.128  10.470
 3630W        W 7374   7.675   1.991   9.748
 3631W        W 7375   7.871   7.844   3.166
 3632W        W 7376   1.707   5.204  11.873
 3633W        W 7377   5.069   4.073   8.168
 3634W        W 7378   8.069   2.001  11.397
 3635W        W 7379   5.347   4.432   0.686
 3636W        W 7380   8.733   2.613   0.693
 3637W        W 7381   6.863   1.743   9.630
 3638W        W 7382   6.949   4.026  10.490
 3639W        W 7383   1.359   4.334   9.884
 3640W        W 7384   5.297   6.653   8.478
 3641W        W 7385  10.036   2.219  11.208
 3642W        W 7386   2.428   1.246   3.635
 3643W        W 7387   5.740   5.103   2.161
 3644W        W 7388   6.950   0.174   0.743
 3645W        W 7389  10.328   9.003   3.248
 3646W        W 7390   9.989   2.821   2.747
 3647W        W 7391   4.709   3.113  11.574
 3648W        W 7392   2.282   9.939   2.967
 3649W        W 7393  10.275   3.080  10.860
 3650W        W 7394   9.504   1.104  11.945
 3651W        W 7395   4.420   8.887  11.127
 3652W        W 7396   0.894   6.674   2.596
 3653W        W 7397   7.954   4.111   2.162
 3654W        W 7398   6.482   9.074   9.052
 3655W        W 7399   5.208   8.378   8.895
 3656W        W 7400   4.984  10.435   9.734
 3657W        W 7401   4.516   9.595   2.329
 3658W        W 7402   1.149   0.478   0.737
 3659W        W 7403   4.867   0.266  10.528
 3660W        W 7404   3.888   9.874   1.176
 3661W        W 7405   4.176   7.900  10.296
 3662W        W 7406   3.738   1.933  11.504
 3663W        W 7407  10.280   8.476   1.654
 3664W        W 7408   7.618   1.811   1.653
 3665W        W 7409   7.514   9.968  10.763
 3666W        W 7410   8.829   9.028   1.768
 3667W        W 7411   1.787   8.101  11.477
 3668W        W 7412   1.016   5.533   3.223
 3669W        W 7413   9.471   7.893   3.472
 3670W        W 7414   9.394   8.604  11.864
 3671W        W 7415   8.602   4.293  11.778
 3672W        W 7416   3.502  10.309   3.295
 3673W        W 7417   4.182   4.378  11.252
 3674W        W 7418   9.778   0.987   1.822
 3675W        W 7419   7.511   8.900   4.031
 3676W        W 7420   2.596   2.379   0.417
 3677W        W 7421   9.852   9.798  11.706
 3678W        W 7422   4.446   3.612   9.132
 3679W        W 7423   9.387   2.216   2.691
 3680W        W 7424   4.225   6.555   9.921
 3681W        W 7425   1.003   2.388   0.769
 3682W        W 7426   6.247   0.768   1.147
 3683W        W 7427   5.988   5.687  11.376
 3684W        W 7428   4.228   8.936  10.298
 3685W        W 7429   8.504   8.005   1.034
 3686W        W 7430   0.493   5.109   0.125
 3687W        W 7431   7.815   9.356   0.340
 3688W        W 7432   2.669   9.015   3.529
 3689W        W 7433   2.185   1.215   1.175
 3690W        W 7434   9.901   2.315   2.782
 3691W        W 7435   1.796   1.422   1.430
 3692W        W 7436   0.292   4.923  11.681
 3693W        W 7437   8.939   7.990   2.837
 3694W        W 7438   8.940   1.748   9.327
 3695W        W 7439   4.593   9.081   2.412
 3696W        W 7440   8.361   2.330   2.523
 3697W        W 7441   3.615   1.385   0.404
 3698W        W 7442   8.299   6.305   3.760
 3699W        W 7443   1.828   4.799  11.572
 3700W        W 7444   6.731   6.733   9.032
 3701W        W 7445   7.637   0.909   0.711
 3702W        W 7446   8.572   1.457  10.969
 3703W        W 7447   2.079   9.301  10.357
 3704W        W 7448   9.837   4.630   9.904
 3705W        W 7449   3.784   9.143  10.377
 3706W        W 7450   0.667   9.388   2.241
 3707W        W 7451   2.642   2.275  11.908
 3708W        W 7452   2.782   3.119   3.024
 3709W        W 7453   9.960   6.403   1.850
 3710W        W 7454   1.458   3.621   8.685
 3711W        W 7455   9.436   3.950  11.555
 3712W        W 7456   8.310   9.995  10.730
 3713W        W 7457   1.987   4.899   3.691
 3714W        W 7458   0.746   6.525   2.097
 3715W        W 7459   0.634   0.353   1.940
 3716W        W 7460   9.661   4.245   8.775
 3717W        W 7461   0.883   2.763  11.876
 3718W        W 7462   8.099   7.948  11.790
 3719W        W 7463   6.495   8.492  10.882
 3720W        W 7464   3.589   7.553   9.358
 3721W        W 7465   3.292   3.805   2.648
 3722W        W 7466   6.005   6.099  10.015
 3723W        W 7467  10.410   8.175  11.934
 3724W        W 7468   9.779   4.997   0.785
 3725W        W 7469   7.466   4.583  11.011
 3726W        W 7470   5.182   8.372  10.074
 3727W        W 7471  10.320   5.116  10.564
 3728W        W 7472  10.288   7.054   1.204
 3729W        W 7473   7.145   7.208  10.794
 3730W        W 7474   7.619   9.127   9.729
 3731W        W 7475   8.598   9.258   9.565
 3732W        W 7476   9.593   3.464   9.410
 3733W        W 7477   0.032   0.830   9.712
 3734W        W 7478   9.915   9.316   9.886
 3735W        W 7479   9.897   6.123   9.473
 3736W        W 7480   6.914  10.163  11.879
 3737W        W 7481   5.448   9.980   1.714
 3738W        W 7482   5.502   3.321   9.839
 3739W        W 7483   9.557   6.649   1.682
 3740W        W 7484   5.061   8.507  11.546
 3741W        W 7485   3.735  10.484  10.819
 3742W        W 7486   9.335   9.491   0.512
 3743W        W 7487   4.797   8.703   8.845
 3744W        W 7488   9.344  10.321  11.862
 3745W        W 7489   3.736   8.671   1.761
 3746W        W 7490  10.346   5.524   9.984
 3747W        W 7491   1.476   3.780   2.796
 3748W        W 7492   6.621   8.486   1.320
 3749W        W 7493   2.893   7.448   2.334
 3750W        W 7494   3.093   5.115  10.858
 3751W        W 7495   5.257   9.667   0.050
 3752W        W 7496   0.035   3.188   9.931
 3753W        W 7497   9.387   3.278   0.283
 3754W        W 7498   8.907   8.352   1.066
 3755W        W 7499   4.273   6.825   3.397
 3756W        W 7500   9.983   8.823   0.541
 3757W        W 7501   2.420   3.403   0.373
 3758W        W 7502   7.405   2.435   0.939
 3759W        W 7503   6.668   0.280   8.738
 3760W        W 7504   2.674   6.938   8.531
 3761W        W 7505   0.256   3.346   0.334
 3762W        W 7506   9.403   6.245   3.078
 3763W        W 7507   7.554   0.027   9.807
 3764W        W 7508   2.967   6.849   2.928
 3765W        W 7509   1.467   8.186   3.204
 3766W        W 7510   2.800   2.797   0.227
 3767W        W 7511   1.176   9.817   8.477
 3768W        W 7512   5.797   4.233   3.614
 3769W        W 7513   0.200   4.150   2.846
 3770W        W 7514   9.769   5.880  11.035
 3771W        W 7515   5.990  10.398   9.918
 3772W        W 7516   4.227   7.331   0.459
 3773W        W 7517   7.336   9.022   0.218
 3774W        W 7518  10.305   9.464   2.455
 3775W        W 7519   3.273   7.084  11.755
 3776W        W 7520   2.472   7.829  11.874
 3777W        W 7521   5.701   0.709  11.424
 3778W        W 7522   9.149   2.221   3.165
 3779W        W 7523   3.753   3.169  11.174
 3780W        W 7524   4.721   3.153   3.210
 3781W        W 7525   7.392   6.985   1.652
 3782W        W 7526   2.390   9.921   9.622
 3783W        W 7527   8.320   3.776  11.056
 3784W        W 7528   5.653   9.087   0.758
 3785W        W 7529   3.856   9.450   2.857
 3786W        W 7530   1.728   9.466  11.291
 3787W        W 7531   1.748   6.507   3.010
 3788W        W 7532   3.343   7.398   8.952
 3789W        W 7533   0.269   1.653   8.372
 3790W        W 7534   6.540   0.182  11.495
 3791W        W 7535   4.710   4.583  11.196
 3792W        W 7536   8.228   2.648   0.751
 3793W        W 7537   6.200   8.207   1.379
 3794W        W 7538   0.812   9.303  11.546
 3795W        W 7539   5.137   6.052   2.437
 3796W        W 7540   2.685   8.098  10.857
 3797W        W 7541   6.138   4.250   1.234
 3798W        W 7542   4.754   8.560  10.277
 3799W        W 7543   5.608   9.028  10.533
 3800W        W 7544   7.559   0.073  10.313
 3801W        W 7545   4.503   4.739  10.357
 3802W        W 7546   7.149   4.925   3.357
 3803W        W 7547   4.945   7.356   8.121
 3804W        W 7548   8.013   3.204   1.595
 3805W        W 7549   5.466  10.438   9.932
 3806W        W 7550   9.172   6.700   0.134
 3807W        W 7551   9.588   8.970   9.697
 3808W        W 7552   2.238   0.747   9.640
 3809W        W 7553   8.053   6.671  10.259
 3810W        W 7554   5.219   7.076   4.228
 3811W        W 7555   7.347   7.133  10.315
 3812W        W 7556   3.064   6.635  11.765
 3813W        W 7557   0.299   2.907   9.587
 3814W        W 7558   6.211   7.077   3.998
 3815W        W 7559   1.837   6.726   1.527
 3816W        W 7560   1.130   5.257   1.049
 3817W        W 7561   8.726   7.445   3.562
 3818W        W 7562   1.316   7.075  10.658
 3819W        W 7563   8.814  10.281   0.907
 3820W        W 7564   7.064   7.100   8.891
 3821W        W 7565   1.818   4.955   2.301
 3822W        W 7566   4.243   5.206  10.087
 3823W        W 7567   6.189   8.380   2.905
 3824W        W 7568   5.068   3.349   0.361
 3825W        W 7569   3.165   0.997   2.866
 3826W        W 7570  10.441   0.641   1.373
 3827W        W 7571   1.530   7.820   2.422
 3828W        W 7572   6.886   6.237   8.119
 3829W        W 7573   5.946   9.643  11.023
 3830W        W 7574   4.454   1.705   2.827
 3831W        W 7575   8.139   2.778   2.797
 3832W        W 7576   8.589   6.774   0.943
 3833W        W 7577   4.827   1.342   2.146
 3834W        W 7578   9.403  10.131   2.137
 3835W        W 7579   9.964  10.149   0.982
 3836W        W 7580   7.650   8.145   0.037
 3837W        W 7581   3.232   6.017   9.176
 3838W        W 7582   2.279   5.980  11.879
 3839W        W 7583   8.381   7.041  10.415
 3840W        W 7584   0.223   7.157   0.957
 3841W        W 7585   8.540   2.823   9.979
 3842W        W 7586   5.147   6.513   2.164
 3843W        W 7587   1.370   6.881   8.884
 3844W        W 7588   5.645   3.314   2.765
 3845W        W 7589   8.142   6.505   3.176
 3846W        W 7590   4.679   9.849  10.818
 3847W        W 7591   8.994   4.734   1.541
 3848W        W 7592   1.767   2.881   9.986
 3849W        W 7593   7.026   8.960   2.846
 3850W        W 7594   6.124   6.505  10.841
 3851W        W 7595   1.306   3.310   2.134
 3852W        W 7596   7.050   2.736  11.544
 3853W        W 7597   9.865  10.243  11.974
 3854W        W 7598   3.741   8.078   9.495
 3855W        W 7599   3.154   1.426   1.983
 3856W        W 7600   6.476   0.219   0.456
 3857W        W 7601   5.081   1.782  10.757
 3858W        W 7602   2.280   5.566  11.503
 3859W        W 7603   5.374   5.695   8.582
 3860W        W 7604   2.204   7.310   9.726
 3861W        W 7605   6.141   8.092  11.077
 3862W        W 7606   2.086   7.688   9.422
 3863W        W 7607   6.960   3.494   2.538
 3864W        W 7608   1.891   4.519   1.410
 3865W        W 7609   0.336   0.956   2.683
 3866W        W 7610   0.915   5.080   9.950
 3867W        W 7611   0.457   4.831  10.089
 3868W        W 7612   4.628   5.362  11.205
 3869W        W 7613   5.113   3.791   0.136
 3870W        W 7614   4.310   4.609  10.821
 3871W        W 7615   5.569   3.315   2.268
 3872W        W 7616   2.116   9.756  10.564
 3873W        W 7617   7.642   9.605   1.656
 3874W        W 7618   4.096   6.058   1.002
 3875W        W 7619  10.324   1.790  11.459
 3876W        W 7620   8.963   2.872   1.461
 3877W        W 7621   0.587   5.911   1.455
 3878W        W 7622   7.406   0.578   9.534
 3879W        W 7623   8.492   3.895   3.284
 3880W        W 7624   9.069   2.242  11.465
 3881W        W 7625   9.346   4.605  10.104
 3882W        W 7626   1.942   9.079   2.845
 3883W        W 7627   1.802   0.889   9.347
 3884W        W 7628   9.436   1.270  10.926
 3885W        W 7629   8.573   4.594  11.319
 3886W        W 7630   8.475   2.731   8.945
 3887W        W 7631   8.885   1.651   3.303
 3888W        W 7632   7.208   7.901   8.597
 3889W        W 7633   1.978   7.733   2.670
 3890W        W 7634   9.897   0.668   0.985
 3891W        W 7635   1.171   4.049   1.459
 3892W        W 7636   5.743   1.281  10.766
 3893W        W 7637   8.050   7.840  11.263
 3894W        W 7638   2.273   5.262   3.453
 3895W        W 7639   8.023   9.805   9.313
 3896W        W 7640   2.686   8.962  10.985
 3897W        W 7641  10.490   1.843  11.956
 3898W        W 7642   9.447   8.598   2.756
 3899W        W 7643   3.191   4.715   3.623
 3900W        W 7644   9.751   0.851  11.012
 3901W        W 7645   7.150   6.688  10.759
 3902W        W 7646   9.054   0.732   0.767
 3903W        W 7647   9.971   9.977  10.814
 3904W        W 7648   5.248   9.705  10.369
 3905W        W 7649   7.512   8.574   3.161
 3906W        W 7650   5.714   6.459   0.938
 3907W        W 7651   1.395   9.541  10.889
 3908W        W 7652   9.796   3.726   9.815
 3909W        W 7653   7.000   0.067   9.060
 3910W        W 7654   6.471   6.640  11.218
 3911W        W 7655   1.749   6.181  11.854
 3912W        W 7656   5.262   4.467  11.020
 3913W        W 7657   5.679   4.221   2.155
 3914W        W 7658   5.572   5.112   3.133
 3915W        W 7659   1.948   3.232   9.659
 3916W        W 7660   6.151   3.330  11.427
 3917W        W 7661   6.369   7.740   1.287
 3918W        W 7662   5.639   0.269   0.410
 3919W        W 7663   3.256   4.989   4.053
 3920W        W 7664   8.197   6.681   2.226
 3921W        W 7665   1.076   3.550   1.482
 3922W        W 7666   4.828   9.463   3.182
 3923W        W 7667  10.464  10.483  10.196
 3924W        W 7668   9.283   4.045   2.483
 3925W        W 7669   8.428   1.829   2.386
 3926W        W 7670   3.677   4.029   1.370
 3927W        W 7671   1.059   7.101   9.651
 3928W        W 7672   9.660   4.741  10.476
 3929W        W 7673   2.762   1.223   0.772
 3930W        W 7674   2.243   8.309  11.559
 3931W        W 7675   8.031   8.455  11.772
 3932W        W 7676   1.787  10.023   1.647
 3933W        W 7677   6.543   9.348  10.350
 3934W        W 7678   9.622   3.784  10.606
 3935W        W 7679  10.492   0.817  11.245
 3936W        W 7680   1.236   1.389   2.294
 3937W        W 7681   9.445   2.677   1.493
 3938W        W 7682   4.887  10.249   2.977
 3939W        W 7683   4.134   2.692   9.067
 3940W        W 7684   9.399  10.034   2.645
 3941W        W 7685   5.624   6.638   8.910
 3942W        W 7686   8.072   2.873  10.720
 3943W        W 7687   1.793   2.777  11.805
 3944W        W 7688   3.596   0.908   2.608
 3945W        W 7689   8.483   8.918  10.291
 3946W        W 7690   0.269   4.206   9.243
 3947W        W 7691   1.569   1.484   8.885
 3948W        W 7692   4.948   2.239  11.876
 3949W        W 7693   8.592  10.471  10.880
 3950W        W 7694   2.141   1.069  10.058
 3951W        W 7695   0.961   6.995   2.113
 3952W        W 7696   8.061   0.685   1.753
 3953W        W 7697   7.301   6.219  10.349
 3954W        W 7698   9.416   0.796   3.511
 3955W        W 7699  10.479   5.086   9.733
 3956W        W 7700   8.817   5.086  10.508
 3957W        W 7701   8.979   4.586   8.825
 3958W        W 7702   4.901   3.677   8.450
 3959W        W 7703   4.976   5.684   0.286
 3960W        W 7704   2.420   0.316   2.821
 3961W        W 7705   9.746   9.033   3.472
 3962W        W 7706  10.456   8.601  10.095
 3963W        W 7707   6.339  10.329   2.753
 3964W        W 7708   4.262   5.348  10.579
 3965W        W 7709   7.070   3.360  11.234
 3966W        W 7710   1.448   1.667   0.209
 3967W        W 7711   7.430   5.223   9.352
 3968W        W 7712   3.257   0.485   1.283
 3969W        W 7713   1.231   3.684   1.015
 3970W        W 7714   7.076   6.108   9.084
 3971W        W 7715   5.976   2.122   9.136
 3972W        W 7716   9.866   1.846   9.391
 3973W        W 7717   0.875   1.707   2.532
 3974W        W 7718   3.323   9.571  11.803
 3975W        W 7719   6.576   0.504   0.868
 3976W        W 7720   3.304   3.972   3.118
 3977W        W 7721   3.389   5.421   3.238
 3978W        W 7722   7.228   4.115  11.815
 3979W        W 7723   1.217   6.118  11.879
 3980W        W 7724   0.873   9.640   9.512
 3981W        W 7725   7.163   7.499   2.389
 3982W        W 7726   9.419   3.679   1.095
 3983W        W 7727   3.925   9.717   0.696
 3984W        W 7728   5.630   1.744   3.042
 3985W        W 7729   3.284   4.901   0.526
 3986W        W 7730   5.075   4.076  10.747
 3987W        W 7731   8.041   5.395   1.268
 3988W        W 7732   4.507   4.140   9.400
 3989W        W 7733   5.344   9.759  11.551
 3990W        W 7734   7.511   9.590  10.062
 3991W        W 7735   6.879   9.391  10.731
 3992W        W 7736   0.199   6.190   0.831
 3993W        W 7737   2.627   5.656   9.936
 3994W        W 7738   3.177   4.210   1.241
 3995W        W 7739  10.213   6.856   9.369
 3996W        W 7740   9.622   7.433   0.837
 3997W        W 7741   7.066   5.237   0.286
 3998W        W 7742   5.945   0.798   9.964
 3999W        W 7743   8.130   8.451   2.602
 4000W        W 7744   6.592   6.682   2.258
 4001W        W 7745   6.904   4.848   9.945
 4002W        W 7746   3.862   3.073   9.243
 4003W        W 7747   1.738   2.233  11.345
 4004W        W 7748   6.828  10.330   2.506
 4005W        W 7749   1.391  10.372  10.268
 4006W        W 7750   5.945   4.738  10.342
 4007W        W 7751   4.965   7.887   8.270
 4008W        W 7752   8.413   3.612   8.444
 4009W        W 7753  10.245   1.066   8.734
 4010W        W 7754   8.977   2.494   1.832
 4011W        W 7755   2.886   4.609   4.111
 4012W        W 7756   4.646   6.478   2.327
 4013W        W 7757   5.064   7.174   1.341
 4014W        W 7758   0.707   6.178   0.924
 4015W        W 7759   9.545   0.068   0.272
 4016W        W 7760   2.902   3.710  10.527
 4017W        W 7761   3.226   8.326  11.511
 4018W        W 7762   7.868   2.411  10.506
 4019W        W 7763   0.858   1.377   0.922
 4020W        W 7764   9.479   1.843   0.924
 4021W        W 7765   7.199   2.606   2.526
 4022W        W 7766   1.460   8.442   1.037
 4023W        W 7767   3.059   2.522   0.601
 4024W        W 7768   7.546   6.125   2.731
 4025W        W 7769   5.627   1.145   1.269
 4026W        W 7770   7.021   9.652   0.818
 4027W        W 7771   9.550   7.199  10.099
 4028W        W 7772   5.970   6.715   4.277
 4029W        W 7773   4.603   3.231  10.812
 4030W        W 7774  10.064   0.991   1.397
 4031W        W 7775   0.423   8.925   1.548
 4032W        W 7776   2.704   7.895   1.203
 4033W        W 7777  10.364   8.529   0.733
 4034W        W 7778   9.949   5.446   1.768
 4035W        W 7779   6.669   5.274  11.977
 4036W        W 7780   5.070   7.886  10.297
 4037W        W 7781   9.933   4.970  10.875
 4038W        W 7782   9.843   1.445  10.183
 4039W        W 7783   4.243   4.442   9.078
 4040W        W 7784   5.605   9.493  10.706
 4041W        W 7785   4.505   6.008   0.698
 4042W        W 7786   7.671   5.590   3.960
 4043W        W 7787   2.148   0.365   9.979
 4044W        W 7788   6.464  10.008   2.392
 4045W        W 7789   5.217   9.448   0.648
 4046W        W 7790   9.667   9.817  11.217
 4047W        W 7791   7.962   0.293  10.557
 4048W        W 7792   0.809   7.905  11.498
 4049W        W 7793  10.322  10.312   1.927
 4050W        W 7794   5.697   3.581  10.929
 4051W        W 7795   2.305   5.055  11.633
 4052W        W 7796  10.066   5.704   2.191
 4053W        W 7797   4.701   2.764   9.791
 4054W        W 7798   6.059   7.200   3.530
 4055W        W 7799   7.576   6.660  10.457
 4056W        W 7800   1.628   8.573  11.530
 4057W        W 7801   5.995   7.121   1.884
 4058W        W 7802   8.701   1.921   3.671
 4059W        W 7803   4.503   7.932   8.507
 4060W        W 7804   8.522   6.201   9.147
 4061W        W 7805   3.397   4.631   8.634
 4062W        W 7806   8.377   9.257   0.056
 4063W        W 7807   1.347   6.379   2.697
 4064W        W 7808  10.184   4.148   2.916
 4065W        W 7809   7.461   5.805   0.801
 4066W        W 7810  10.489   1.728   2.500
 4067W        W 7811   2.924   2.068   9.470
 4068W        W 7812   0.083   1.592   1.802
 4069W        W 7813   4.068   6.913  10.303
 4070W        W 7814   6.748   4.596   3.268
 4071W        W 7815   7.179   2.661   1.365
 4072W        W 7816   4.865   2.816   2.320
 4073W        W 7817   4.898   9.502   2.667
 4074W        W 7818   5.140   4.685  11.482
 4075W        W 7819   8.970   0.424   1.428
 4076W        W 7820   4.011   7.541   3.064
 4077W        W 7821   1.798   3.235   1.999
 4078W        W 7822   1.648   9.511   2.976
 4079W        W 7823   7.116   7.872  11.467
 4080W        W 7824   1.271   4.263   0.436
 4081W        W 7825   9.369   8.566   8.979
 4082W        W 7826   0.813   3.840  11.782
 4083W        W 7827   0.736   7.103   0.751
 4084W        W 7828   3.135   9.011   3.264
 4085W        W 7829   9.623  10.371   3.479
 4086W        W 7830   1.195   2.870   0.516
 4087W        W 7831   6.941   9.966  11.374
 4088W        W 7832   2.332   3.837   2.723
 4089W        W 7833   4.940   4.230   0.917
 4090W        W 7834   4.654   4.960   9.894
 4091W        W 7835   2.775   1.145   3.226
 4092W        W 7836   9.005   8.417   2.565
 4093W        W 7837   3.295   2.380  10.118
 4094W        W 7838   1.801   6.258  11.319
 4095W        W 7839   4.624   7.630  10.271
 4096W        W 7840   6.490   3.035  10.503
 4097W        W 7841   7.345   1.049   9.379
 4098W        W 7842   7.037   7.466   9.411
 4099W        W 7843   4.079  10.102   0.349
 4100W        W 7844   8.382   1.979  10.974
 4101W        W 7845   5.657   1.132   0.739
 4102W        W 7846   8.179   6.627   1.615
 4103W        W 7847   9.398   3.116  11.259
 4104W        W 7848   0.284   7.811   0.256
 4105W        W 7849   0.322   1.754   8.905
 4106W        W 7850   4.464   1.034  10.986
 4107W        W 7851   7.490   2.694   1.803
 4108W        W 7852   8.332   0.926   9.227
 4109W        W 7853   4.687   3.020   0.110
 4110W        W 7854   5.866   2.388   0.045
 4111W        W 7855   7.375   5.029  11.364
 4112W        W 7856   7.462   3.221   1.866
 4113W        W 7857   1.232   7.453   2.185
 4114W        W 7858   4.175   0.784  10.398
 4115W        W 7859   6.749   1.466  11.948
 4116W        W 7860   2.604   3.870  11.424
 4117W        W 7861   6.952   0.975   0.278
 4118W        W 7862   1.436   8.660  10.521
 4119W        W 7863   8.329   9.815  10.212
 4120W        W 7864   8.041   6.025   0.009
 4121W        W 7865   1.906   8.521  11.104
 4122W        W 7866   9.771   9.850   9.817
 4123W        W 7867   3.785   1.807   9.008
 4124W        W 7868   4.447   8.092   0.087
 4125W        W 7869   5.199   9.434   1.154
 4126W        W 7870   1.317  10.329   9.767
 4127W        W 7871   6.533   3.646   3.217
 4128W        W 7872   2.806   8.550  10.648
 4129W        W 7873   5.534   6.400  11.109
 4130W        W 7874   7.045   8.656   1.106
 4131W        W 7875   5.133   8.962   0.868
 4132W        W 7876  10.164  10.295   1.428
 4133W        W 7877   1.440   9.082   2.734
 4134W        W 7878   4.635   5.445   1.840
 4135W        W 7879   1.270   8.463   8.730
 4136W        W 7880   4.484  10.451  11.419
 4137W        W 7881  10.402   3.659   2.153
 4138W        W 7882   8.066   7.492   9.605
 4139W        W 7883   4.064   6.824  11.529
 4140W        W 7884   7.419   7.583   3.207
 4141W        W 7885  10.073   6.848   2.404
 4142W        W 7886   2.820   4.553  10.474
 4143W        W 7887   6.105   0.206  11.765
 4144W        W 7888   0.443   0.435   2.426
 4145W        W 7889   2.770   5.518   0.753
 4146W        W 7890   4.591  10.339  10.541
 4147W        W 7891   6.140   0.337   8.858
 4148W        W 7892   5.614  10.383   1.439
 4149W        W 7893   6.920   3.804  10.038
 4150W        W 7894   2.770   8.846   2.722
 4151W        W 7895   7.572   5.261   1.393
 4152W        W 7896   2.306   5.649   0.505
 4153W        W 7897   9.403   7.610  11.055
 4154W        W 7898   7.416   9.065   2.454
 4155W        W 7899   8.658   2.409  11.875
 4156W        W 7900   8.916   5.963   9.945
 4157W        W 7901   8.970  10.047   1.812
 4158W        W 7902   3.725   8.097  10.457
 4159W        W 7903   3.290   2.166   0.900
 4160W        W 7904   0.014   2.904   0.803
 4161W        W 7905   0.722   2.889   1.471
 4162W        W 7906   4.174   8.855   9.401
 4163W        W 7907   3.609   8.047   9.007
 4164W        W 7908   1.683   2.234   2.354
 4165W        W 7909   0.268   5.994   3.188
 4166W        W 7910   4.780  10.359  10.997
 4167W        W 7911   0.231   6.070   2.668
 4168W        W 7912   0.861   5.552   9.753
 4169W        W 7913   5.040   6.507   2.661
 4170W        W 7914   1.906   9.897   9.400
 4171W        W 7915   8.016   8.835   9.575
 4172W        W 7916   5.145   1.274  10.021
 4173W        W 7917   4.791   2.037   0.994
 4174W        W 7918   6.625   4.254   2.311
 4175W        W 7919   2.765   0.687   1.471
 4176W        W 7920   3.193   8.643   2.867
 4177W        W 7921   6.125   0.459  11.293
 4178W        W 7922   7.759   0.427  10.997
 4179W        W 7923   2.515   6.980   0.866
 4180W        W 7924   9.986   5.493   8.980
 4181W        W 7925   8.107   3.034  11.707
 4182W        W 7926   5.489   0.782   2.485
 4183W        W 7927   5.564   7.308   0.679
 4184W        W 7928   2.267   8.628   2.826
 4185W        W 7929   3.295   3.708   1.194
 4186W        W 7930   7.230   3.879   8.962
 4187W        W 7931   2.823   8.525   9.680
 4188W        W 7932   6.077   3.838  10.701
 4189W        W 7933   7.674   4.231   3.541
 4190W        W 7934   2.421   4.783   3.151
 4191W        W 7935   0.319   1.239  11.260
 4192W        W 7936   8.013   7.387  11.044
 4193W        W 7937   6.490   5.864  10.384
 4194W        W 7938   0.288   9.526  10.065
 4195W        W 7939   5.050   6.646  11.247
 4196W        W 7940   2.183   5.994   2.802
 4197W        W 7941   9.232   9.050   0.936
 4198W        W 7942   0.066   3.748   9.432
 4199W        W 7943   2.194   3.326   2.337
 4200W        W 7944   7.092   1.174   3.403
 4201W        W 7945   3.254   7.719   2.667
 4202W        W 7946   9.435   5.049   2.344
 4203W        W 7947   8.702   1.768  10.607
 4204W        W 7948   3.156   5.597  11.032
 4205W        W 7949   1.754   0.278   2.608
 4206W        W 7950   9.972   2.747   2.221
 4207W        W 7951   6.729   4.828   1.300
 4208W        W 7952   3.037   8.807  11.457
 4209W        W 7953   8.801   8.902  11.476
 4210W        W 7954   2.144   8.972  10.933
 4211W        W 7955   5.890   7.661   0.516
 4212W        W 7956   8.505   8.114   3.092
 4213W        W 7957   3.630   5.642   0.310
 4214W        W 7958   4.973   6.888   0.877
 4215W        W 7959   2.288   9.368   1.653
 4216W        W 7960   2.593   2.376  11.414
 4217W        W 7961   2.882   5.090   9.862
 4218W        W 7962   8.015   2.357   9.537
 4219W        W 7963   6.718   2.330   9.763
 4220W        W 7964   0.991   8.388   3.241
 4221W        W 7965   8.907   4.610   9.827
 4222W        W 7966   1.918   6.525   0.568
 4223W        W 7967   3.447   8.216   1.809
 4224W        W 7968   4.289  10.288   1.859
 4225W        W 7969   3.342   5.741  10.587
 4226W        W 7970   6.027   1.724  10.267
 4227W        W 7971   1.391   3.733   1.856
 4228W        W 7972   3.423   9.585   0.672
 4229W        W 7973   7.110   6.564   3.305
 4230W        W 7974   5.408   2.019   1.718
 4231W        W 7975   2.122   4.669   0.535
 4232W        W 7976   4.973   1.478   3.448
 4233W        W 7977   9.258   8.497  10.411
 4234W        W 7978   8.560   8.067   1.529
 4235W        W 7979   3.771   3.214   1.875
 4236W        W 7980   0.249   6.459   9.425
 4237W        W 7981   5.998   1.743  10.770
 4238W        W 7982   3.702   4.891   3.140
 4239W        W 7983   2.104   1.327   0.194
 4240W        W 7984   2.747   2.364  10.780
 4241W        W 7985   7.938   1.336   0.475
 4242W        W 7986   6.977   4.192   0.263
 4243W        W 7987   5.628   0.478  11.908
 4244W        W 7988   2.296   6.718   1.293
 4245W        W 7989   9.788   9.288   0.348
 4246W        W 7990   4.081   8.995  10.772
 4247W        W 7991   7.187   1.849   2.966
 4248W        W 7992   7.008   8.408   9.260
 4249W        W 7993   8.864   4.075  11.393
 4250W        W 7994   2.244   4.453  10.329
 4251W        W 7995  10.044   5.555   0.879
 4252W        W 7996   6.927   7.137   1.486
 4253W        W 7997   3.101   5.015   9.366
 4254W        W 7998   8.044   8.903   2.838
 4255W        W 7999   9.205   0.517   2.320
 4256W        W 8000   5.688   0.396   9.202
 4257W        W 8001   2.703   3.614   9.123
 4258W        W 8002   8.938   1.470  10.226
 4259W        W 8003   0.712   9.352   2.747
 4260W        W 8004   7.899   5.069   3.231
 4261W        W 8005   0.792   1.842   1.248
 4262W        W 8006   6.635   8.564   3.222
 4263W        W 8007   7.462   3.421   2.384
 4264W        W 8008  10.494   5.572   0.219
 4265W        W 8009   4.713   5.484   1.338
 4266W        W 8010   3.171   5.136  11.951
 4267W        W 8011   3.284   0.449   9.578
 4268W        W 8012   7.625   4.748  10.337
 4269W        W 8013   4.337   4.909  11.299
 4270W        W 8014   1.587   8.819  10.057
 4271W        W 8015   6.006   6.598  10.306
 4272W        W 8016   4.301   1.767  10.639
 4273W        W 8017   8.463   6.681  10.984
 4274W        W 8018   0.320   8.654  11.987
 4275W        W 8019   7.383  10.487   0.977
 4276W        W 8020   6.599   9.897   9.248
 4277W        W 8021   7.200   0.893   9.985
 4278W        W 8022   6.255   2.880   2.342
 4279W        W 8023   3.722   8.224   0.267
 4280W        W 8024   8.423   3.218   9.214
 4281W        W 8025  10.446   0.334   2.598
 4282W        W 8026   4.014   4.280   9.533
 4283W        W 8027   4.181   3.545   1.724
 4284W        W 8028   6.749   3.718   9.029
 4285W        W 8029   9.594   7.609  11.892
 4286W        W 8030   3.839   2.805   2.281
 4287W        W 8031   0.511   9.311   1.227
 4288W        W 8032   6.296   3.188   3.248
 4289W        W 8033   9.861   4.258  10.508
 4290W        W 8034   7.718   2.747  11.888
 4291W        W 8035   3.666   6.881   2.275
 4292W        W 8036   1.270   8.765   1.809
 4293W        W 8037   4.169   3.974   1.472
 4294W        W 8038   4.117   9.901   2.842
 4295W        W 8039   2.628   5.954  10.837
 4296W        W 8040   8.462   0.486   2.687
 4297W        W 8041   5.688   0.332   1.698
 4298W        W 8042   0.996   7.493  10.780
 4299W        W 8043   6.641   0.511   3.149
 4300W        W 8044   6.115   8.139   3.671
 4301W        W 8045   2.843   8.788   0.797
 4302W        W 8046   2.207   7.633   3.572
 4303W        W 8047   5.961   7.188   0.348
 4304W        W 8048   6.772   9.603   3.476
 4305W        W 8049   4.276   9.932  10.492
 4306W        W 8050   9.391   7.789   9.005
 4307W        W 8051   4.217   3.089  11.748
 4308W        W 8052   6.464   4.056   1.852
 4309W        W 8053   6.244   7.920  11.587
 4310W        W 8054   3.283   0.245   3.148
 4311W        W 8055   4.228   8.121  11.289
 4312W        W 8056   1.345   5.793  10.472
 4313W        W 8057   5.834   1.860   1.435
 4314W        W 8058   2.127   5.143  10.767
 4315W        W 8059   7.948   2.290   0.457
 4316W        W 8060   5.684   9.328   3.621
 4317W        W 8061   8.502   2.747   1.684
 4318W        W 8062   4.129  10.417  11.930
 4319W        W 8063   8.762   6.603  11.803
 4320W        W 8064   6.925   0.445   0.281
 4321W        W 8065   0.358   1.454   2.723
 4322W        W 8066   0.224   6.042   8.995
 4323W        W 8067   2.784   0.332   1.066
 4324W        W 8068   3.872   3.897   0.496
 4325W        W 8069   2.960   7.916  11.706
 4326W        W 8070   3.972   8.303  10.033
 4327W        W 8071   2.733   6.901  10.737
 4328W        W 8072   4.083   0.074   9.947
 4329W        W 8073   3.776   9.547   8.979
 4330W        W 8074   2.786   8.048   0.190
 4331W        W 8075   4.665   2.041   9.507
 4332W        W 8076   6.001   5.007   0.936
 4333W        W 8077   2.661   6.624  11.416
 4334W        W 8078   6.613   0.253   2.641
 4335W        W 8079   2.653   2.279   9.066
 4336W        W 8080   0.427   1.717   2.190
 4337W        W 8081   9.811   7.967   0.201
 4338W        W 8082   2.611   8.023  11.363
 4339W        W 8083   9.918   7.999   3.236
 4340W        W 8084   4.453   2.395  11.035
 4341W        W 8085  10.446   8.970   1.748
 4342W        W 8086   2.741   5.915   3.921
 4343W        W 8087   8.859   8.759   0.758
 4344W        W 8088   4.072   8.005   2.863
 4345W        W 8089   5.689   6.232   1.905
 4346W        W 8090  10.472   6.573  10.140
 4347W        W 8091   9.900   3.634   2.220
 4348W        W 8092   3.869   5.082   9.779
 4349W        W 8093   0.816   4.168   9.072
 4350W        W 8094   3.315   8.938   1.922
 4351W        W 8095   8.523   6.748   9.076
 4352W        W 8096   9.426   9.380  11.026
 4353W        W 8097   6.012  10.021   0.339
 4354W        W 8098   3.174  10.457  11.892
 4355W        W 8099   9.787   7.437   8.920
 4356W        W 8100   6.048   9.337   9.154
 4357W        W 8101   1.951   1.781   0.035
 4358W        W 8102   2.544   8.530   1.858
 4359W        W 8103   7.608   5.665  10.347
 4360W        W 8104   5.162   5.243  10.073
 4361W        W 8105  10.337   0.927   0.952
 4362W        W 8106   8.085   3.162   0.704
 4363W        W 8107   9.119   8.602   0.307
 4364W        W 8108   3.601   4.232   2.736
 4365W        W 8109   0.534   1.342   1.354
 4366W        W 8110   0.990   6.179  10.356
 4367W        W 8111   9.344   4.937  11.403
 4368W        W 8112   0.891   9.599   1.824
 4369W        W 8113   0.454   9.839   3.153
 4370W        W 8114   2.751   4.731  11.740
 4371W        W 8115   5.250   7.672   0.500
 4372W        W 8116   9.347   9.554   1.030
 4373W        W 8117   2.791   3.656   9.615
 4374W        W 8118   1.740   2.939   1.237
 4375W        W 8119   1.361   2.712   0.987
 4376W        W 8120   4.651   0.082   9.044
 4377W        W 8121   9.842   3.547   0.233
 4378W        W 8122   2.801   7.197   1.855
 4379W        W 8123   1.155   2.830  11.220
 4380W        W 8124   1.835   9.543   1.477
 4381W        W 8125   7.605   2.321   1.398
 4382W        W 8126   4.942   2.237  10.964
 4383W        W 8127  10.253   8.057   0.931
 4384W        W 8128   8.361   7.117   3.622
 4385W        W 8129   5.928   3.953   0.274
 4386W        W 8130   7.500   8.451   0.974
 4387W        W 8131   3.693   4.542   3.573
 4388W        W 8132   9.025   5.505  10.773
 4389W        W 8133   0.545   5.763  11.534
 4390W        W 8134   6.082   2.866   0.172
 4391W        W 8135   1.630   4.134  10.267
 4392W        W 8136   4.347   2.193   1.897
 4393W        W 8137   3.395  10.060   9.538
 4394W        W 8138   3.827   2.645   1.414
 4395W        W 8139   9.697   0.185  11.765
 4396W        W 8140   9.884   8.853   2.996
 4397W        W 8141   5.499   7.248   1.944
 4398W        W 8142   2.115   3.958  10.228
 4399W        W 8143   7.989   5.621   0.336
 4400W        W 8144   2.339   7.871  10.580
 4401W        W 8145   2.294   5.531  10.455
 4402W        W 8146   8.608   5.770   2.220
 4403W        W 8147   4.844   0.756   3.131
 4404W        W 8148   0.465   2.192   3.068
 4405W        W 8149   8.167   4.733   0.681
 4406W        W 8150   3.673   1.440   2.004
 4407W        W 8151   0.860   0.010   3.490
 4408W        W 8152   8.123   8.504   2.110
 4409W        W 8153   2.817   4.527   2.405
 4410W        W 8154   0.752   3.116   0.298
 4411W        W 8155   2.825   3.782   2.848
 4412W        W 8156   9.508   9.016   2.310
 4413W        W 8157   8.688   6.725   2.372
 4414W        W 8158   6.433   4.134   9.183
 4415W        W 8159   7.228   9.223   8.747
 4416W        W 8160   9.872   5.053   9.602
 4417W        W 8161   3.142  10.494   2.690
 4418W        W 8162   6.895   5.528   2.523
 4419W        W 8163   3.605   1.295   2.953
 4420W        W 8164   3.831   9.025   9.039
 4421W        W 8165   6.983   3.160   1.697
 4422W        W 8166   0.808   8.933   9.890
 4423W        W 8167   3.418   3.139  11.541
 4424W        W 8168   4.039   7.536   1.775
 4425W        W 8169   0.333   6.621   1.807
 4426W        W 8170   9.390   4.402  11.358
 4427W        W 8171   3.195   5.413   0.452
 4428W        W 8172   6.246   3.945   3.551
 4429W        W 8173   4.712   7.084   0.147
 4430W        W 8174   4.707   3.504  11.957
 4431W        W 8175   5.626   1.761   9.010
 4432W        W 8176   8.841   4.759   3.421
 4433W        W 8177   1.389   5.222   9.818
 4434W        W 8178   8.382   3.252   9.735
 4435W        W 8179   7.941   9.122  11.071
 4436W        W 8180   0.796   1.223   2.829
 4437W        W 8181   3.269   8.804   9.258
 4438W        W 8182   7.552   2.009   0.675
 4439W        W 8183   7.520   8.300   8.536
 4440W        W 8184   7.457   7.883   0.444
 4441W        W 8185   8.506   6.550  10.468
 4442W        W 8186   0.664   6.847   9.405
 4443W        W 8187   5.638   5.071   9.332
 4444W        W 8188   5.973   1.308   3.221
 4445W        W 8189   5.060   0.821   8.734
 4446W        W 8190   5.663   0.030   3.453
 4447W        W 8191   5.980   7.358   0.946
 4448W        W 8192   1.248   9.986   1.836
 4449W        W 8193   6.936   5.209   2.943
 4450W        W 8194   7.954   9.763   9.841
 4451W        W 8195   6.392   6.934   0.519
 4452W        W 8196   9.442   9.990   8.931
 4453W        W 8197   9.797   4.683  11.421
 4454W        W 8198   5.962   2.786   3.270
 4455W        W 8199   4.646  10.087   8.868
 4456W        W 8200   4.410   3.646   8.624
 4457W        W 8201   8.992   6.599   3.152
 4458W        W 8202   4.674   6.903   2.647
 4459W        W 8203   2.692   7.480   3.404
 4460W        W 8204   5.643   0.787   0.335
 4461W        W 8205   3.334   5.962   4.067
 4462W        W 8206   9.696   5.693   1.384
 4463W        W 8207   1.779   4.616  10.213
 4464W        W 8208   9.172   9.804  11.165
 4465W        W 8209   7.925   8.953   2.319
 4466W        W 8210   7.019   2.182   9.336
 4467W        W 8211   4.787   1.767   0.496
 4468W        W 8212   4.792   7.334   2.956
 4469W        W 8213   1.391   1.273   9.361
 4470W        W 8214   9.863   0.026   1.763
 4471W        W 8215  10.283   5.139   8.751
 4472W        W 8216   7.627   6.564   9.546
 4473W        W 8217   2.199   2.232   0.130
 4474W        W 8218   8.468   2.899   0.342
 4475W        W 8219   8.307   6.538   0.583
 4476W        W 8220   5.619   5.662   2.748
 4477W        W 8221   5.162   4.362  10.337
 4478W        W 8222   6.407   2.209   8.851
 4479W        W 8223   3.273   9.111   0.784
 4480W        W 8224   4.330   3.396  10.391
 4481W        W 8225   4.875   1.546   1.194
 4482W        W 8226   7.541   1.849  11.808
 4483W        W 8227   8.098   3.963   3.602
 4484W        W 8228   3.646   2.717   9.525
 4485W        W 8229   2.768   4.330  11.442
 4486W        W 8230   9.402   1.896   9.113
 4487W        W 8231   3.396   4.444   4.009
 4488W        W 8232   9.265   3.270  10.336
 4489W        W 8233   7.760   3.218  10.978
 4490W        W 8234   1.377   5.598   1.966
 4491W        W 8235   1.876   8.176   2.295
 4492W        W 8236   7.910   3.692  10.800
 4493W        W 8237   5.260   4.682   2.667
 4494W        W 8238   1.864   7.096   0.045
 4495W        W 8239   6.938   1.292   1.265
 4496W        W 8240   5.440   7.426  11.682
 4497W        W 8241   1.749   4.612   9.189
 4498W        W 8242   8.633   4.182  10.024
 4499W        W 8243   5.158   8.010  11.356
 4500W        W 8244  10.218   6.683   2.887
 4501W        W 8245   4.708  10.228   1.200
 4502W        W 8246  10.256   7.283   2.149
 4503W        W 8247   4.608   3.252   0.565
 4504W        W 8248   1.859   4.728   2.822
 4505W        W 8249   0.187   7.449   3.279
 4506W        W 8250   3.941   9.914  11.891
 4507W        W 8251   8.103   8.254   1.670
 4508W        W 8252   9.361   7.211   8.689
 4509W        W 8253   3.169   0.909   9.411
 4510W        W 8254   1.974   3.261   0.553
 4511W        W 8255   5.919   2.108   9.647
 4512W        W 8256   5.243   7.533   8.519
 4513W        W 8257   6.784   8.902  11.461
 4514W        W 8258   9.055   3.234   3.388
 4515W        W 8259  10.094   2.212   1.125
 4516W        W 8260   1.322   7.115   0.890
 4517W        W 8261   8.587   2.188   8.739
 4518W        W 8262   7.323   2.198   1.797
 4519W        W 8263   8.521   0.254   1.254
 4520W        W 8264  10.365   0.886   9.204
 4521W        W 8265   0.633   2.931   3.697
 4522W        W 8266   9.906   6.685   3.329
 4523W        W 8267   3.835   5.684   2.698
 4524W        W 8268   8.483  10.232   1.854
 4525W        W 8269   8.626   4.167  10.939
 4526W        W 8270   4.165   9.865   8.868
 4527W        W 8271   1.185   2.301   2.213
 4528W        W 8272   6.911   7.601   8.917
 4529W        W 8273   1.447   3.122   9.578
 4530W        W 8274   2.805  10.413  11.072
 4531W        W 8275   8.250   5.970  10.453
 4532W        W 8276   6.687   1.546   1.693
 4533W        W 8277   3.809   8.618  10.439
 4534W        W 8278   4.365   0.019   0.812
 4535W        W 8279   2.469   7.647  11.020
 4536W        W 8280   3.244   2.986   2.887
 4537W        W 8281   1.771   0.201   2.112
 4538W        W 8282   8.526   6.040   8.665
 4539W        W 8283   7.505   2.167   0.203
 4540W        W 8284   6.939   7.435  11.704
 4541W        W 8285   3.291   6.497   9.984
 4542W        W 8286   6.049   3.797  11.753
 4543W        W 8287   2.094   4.798  11.153
 4544W        W 8288   2.415   5.086   1.918
 4545W        W 8289   3.255   7.884  10.346
 4546W        W 8290   0.736   7.893   0.528
 4547W        W 8291  10.241   6.990  10.320
 4548W        W 8292   2.025   5.029   9.487
 4549W        W 8293   4.644   5.051   1.101
 4550W        W 8294   2.317   0.702  11.517
 4551W        W 8295   4.077   9.108   2.544
 4552W        W 8296   7.159   9.344   9.776
 4553W        W 8297   9.863   6.176   3.340
 4554W        W 8298   9.689  10.441   9.078
 4555W        W 8299   7.443   7.470   8.944
 4556W        W 8300   5.711   4.169  11.856
 4557W        W 8301   6.579   7.598   3.166
 4558W        W 8302  10.098   5.610  11.308
 4559W        W 8303   8.984   8.870   2.819
 4560W        W 8304   2.381   3.665  10.561
 4561W        W 8305   5.661   0.317   2.237
 4562W        W 8306   0.243  10.431  11.707
 4563W        W 8307  10.368   1.676   3.474
 4564W        W 8308   0.307   0.141   0.703
 4565W        W 8309   3.299   3.807   1.693
 4566W        W 8310   7.116   9.015  10.471
 4567W        W 8311   7.367   7.152   1.157
 4568W        W 8312   4.580   6.215   2.758
 4569W        W 8313   8.672   6.970  11.394
 4570W        W 8314   5.968   8.609  11.023
 4571W        W 8315   1.252   3.191   1.151
 4572W        W 8316   8.196   9.409   2.257
 4573W        W 8317   6.483   4.075   0.336
 4574W        W 8318   3.159   9.819   1.898
 4575W        W 8319   2.636   7.669   9.058
 4576W        W 8320   0.716   4.339  11.721
 4577W        W 8321   4.232   9.082  11.590
 4578W        W 8322   7.962   7.531   9.091
 4579W        W 8323   3.310   1.257  11.964
 4580W        W 8324   8.134   6.618   8.735
 4581W        W 8325   3.553   1.434  11.539
 4582W        W 8326   3.924   9.617  10.289
 4583W        W 8327   1.670   2.760  11.298
 4584W        W 8328   5.383   9.558   2.494
 4585W        W 8329   9.209  10.323   9.260
 4586W        W 8330   7.281   8.486   0.281
 4587W        W 8331   8.032  10.116   0.863
 4588W        W 8332   9.518   2.804  10.382
 4589W        W 8333   5.148   0.339  10.096
 4590W        W 8334   7.333   8.534   2.271
 4591W        W 8335   7.131   5.039   2.502
 4592W        W 8336   3.122  10.441  10.458
 4593W        W 8337   2.444   3.307   9.775
 4594W        W 8338   2.457   5.544   2.720
 4595W        W 8339   7.869   5.538   3.497
 4596W        W 8340  10.422   6.552   3.372
 4597W        W 8341   7.805   8.783  11.442
 4598W        W 8342   7.855   3.175   2.621
 4599W        W 8343   2.312   0.232   0.353
 4600W        W 8344   0.818   3.969   0.691
 4601W        W 8345   3.868   4.078  10.009
 4602W        W 8346   1.351   6.508  11.546
 4603W        W 8347   6.675   2.301   1.227
 4604W        W 8348   1.230   1.541  11.695
 4605W        W 8349   2.213   9.979   3.479
 4606W        W 8350   9.506   7.063   0.481
 4607W        W 8351   1.318   2.336   1.721
 4608W        W 8352  10.298   9.232   0.403
 4609W        W 8353   0.156   1.778   3.064
 4610W        W 8354   4.655   3.610  11.470
 4611W        W 8355   5.082   1.740   9.772
 4612W        W 8356   7.692   3.592   1.608
 4613W        W 8357   1.165   0.580  11.904
 4614W        W 8358   5.424   7.960   9.095
 4615W        W 8359   9.586   2.314   8.830
 4616W        W 8360   2.243   6.704   3.343
 4617W        W 8361   2.743   7.064  11.659
 4618W        W 8362   6.114   6.567   2.399
 4619W        W 8363   4.453   4.367   0.198
 4620W        W 8364   6.896   0.682   2.612
 4621W        W 8365   5.236   3.021   1.618
 4622W        W 8366   1.315   2.399   2.727
 4623W        W 8367   0.161   5.193   0.542
 4624W        W 8368   7.020   2.695   9.524
 4625W        W 8369   3.581   6.387   3.126
 4626W        W 8370   0.078   7.966   9.414
 4627W        W 8371   1.447   8.869   1.351
 4628W        W 8372   1.669   4.052   0.187
 4629W        W 8373   6.690   7.499  10.761
 4630W        W 8374  10.040   2.659   8.873
 4631W        W 8375   9.920  10.075   8.736
 4632W        W 8376   8.967   9.626  10.312
 4633W        W 8377   3.695   3.126   0.963
 4634W        W 8378   0.861   4.082   9.952
 4635W        W 8379   2.298   4.307  11.234
 4636W        W 8380   1.890   6.398   1.114
 4637W        W 8381   9.077   5.015   1.959
 4638W        W 8382   0.735   1.369  11.545
 4639W        W 8383   3.346   9.254   9.050
 4640W        W 8384   5.416   7.584  11.197
 4641W        W 8385   6.970   2.356  11.191
 4642W        W 8386   5.407   8.547   2.426
 4643W        W 8387   9.345  10.278  11.320
 4644W        W 8388   3.813   1.367   2.484
 4645W        W 8389   5.348   3.625   8.155
 4646W        W 8390   6.478   9.524   2.376
 4647W        W 8391   2.844   3.229   2.109
 4648W        W 8392   5.708   8.814   3.565
 4649W        W 8393   8.539   6.096  11.310
 4650W        W 8394   1.020   1.353   0.413
 4651W        W 8395  10.479   9.615   0.118
 4652W        W 8396   0.211   1.109  10.276
 4653W        W 8397   3.972   6.610   1.964
 4654W        W 8398   3.416   5.208   1.919
 4655W        W 8399   2.761   7.217  10.320
 4656W        W 8400   6.258   1.727   1.136
 4657W        W 8401   6.652   9.088   3.263
 4658W        W 8402   4.102   9.164   0.175
 4659W        W 8403   2.333   1.251   9.578
 4660W        W 8404   4.292   0.339  11.698
 4661W        W 8405   7.467   4.978   4.092
 4662W        W 8406   7.852  10.261   9.075
 4663W        W 8407   0.675   6.806   0.321
 4664W        W 8408   8.055   6.127  11.514
 4665W        W 8409   6.236   7.013  11.971
 4666W        W 8410   7.170   1.406  10.280
 4667W        W 8411   0.801   2.608   0.342
 4668W        W 8412   0.937   4.797  10.447
 4669W        W 8413   9.416   8.980  10.665
 4670W        W 8414   6.071   2.861  11.241
 4671W        W 8415   3.177   1.886   2.672
 4672W        W 8416   6.446   5.475  11.290
 4673W        W 8417   3.898   3.159  10.276
 4674W        W 8418   2.861   8.280   0.901
 4675W        W 8419   4.548   3.181   8.431
 4676W        W 8420   4.576   4.080   8.384
 4677W        W 8421   8.005   6.069  11.005
 4678W        W 8422   8.214   7.447  11.916
 4679W        W 8423   8.148   1.175   9.641
 4680W        W 8424   9.367   6.286   2.482
 4681W        W 8425   7.440   3.601   9.383
 4682W        W 8426   1.187   8.885   9.079
 4683W        W 8427   0.707   4.353  11.217
 4684W        W 8428   8.359   8.958   2.014
 4685W        W 8429   7.839   0.905   0.234
 4686W        W 8430  10.463   7.087   2.647
 4687W        W 8431   4.009   1.662   0.811
 4688W        W 8432   4.422   4.041   4.058
 4689W        W 8433   8.690   9.946   0.532
 4690W        W 8434   9.439   3.283   8.941
 4691W        W 8435   0.205   1.435   0.283
 4692W        W 8436   8.406   4.788   1.177
 4693W        W 8437   3.220   9.356   1.638
 4694W        W 8438   2.469   9.092   8.609
 4695W        W 8439   5.148   6.971   2.850
 4696W        W 8440   9.546   1.049   9.478
 4697W        W 8441   4.098   8.713  11.944
 4698W        W 8442   7.635   3.070  11.461
 4699W        W 8443   6.338   6.937   1.016
 4700W        W 8444   5.279   8.032   1.780
 4701W        W 8445   0.058   6.878   2.193
 4702W        W 8446   9.699   5.952   0.935
 4703W        W 8447   3.661   4.325  11.507
 4704W        W 8448   9.875   3.877  11.833
 4705W        W 8449   4.623   2.672   8.309
 4706W        W 8450   7.714   5.421   9.923
 4707W        W 8451   7.611   7.894  11.575
 4708W        W 8452   8.378  10.221  11.310
 4709W        W 8453   0.928   2.103  10.977
 4710W        W 8454   7.561   6.058   1.746
 4711W        W 8455   4.879   8.187   1.377
 4712W        W 8456   4.030   1.574   3.139
 4713W        W 8457   1.617   0.317  11.716
 4714W        W 8458   4.205   5.749   1.838
 4715W        W 8459   7.476   1.767  10.981
 4716W        W 8460   7.726   6.336  10.012
 4717W        W 8461   7.073   3.256   8.428
 4718W        W 8462   3.708   6.020   9.912
 4719W        W 8463   1.373   2.898  10.315
 4720W        W 8464   2.396   8.356   0.049
 4721W        W 8465   8.121   7.636   0.812
 4722W        W 8466   3.600   6.388   2.255
 4723W        W 8467   2.662   6.481   3.141
 4724W        W 8468   5.273   0.423  11.363
 4725W        W 8469   0.370   8.438   2.365
 4726W        W 8470   3.737   2.339  10.857
 4727W        W 8471   5.094   8.456   1.974
 4728W        W 8472   5.222   0.352   2.503
 4729W        W 8473   4.219   5.618   9.764
 4730W        W 8474   3.774   5.454  10.641
 4731W        W 8475   0.470   2.959   2.613
 4732W        W 8476   9.271   4.364   2.913
 4733W        W 8477   2.212   6.193   3.267
 4734W        W 8478   8.995   4.573  11.595
 4735W        W 8479   7.033   5.203  11.039
 4736W        W 8480   8.000   5.505  11.824
 4737W        W 8481   2.630   9.963  11.413
 4738W        W 8482  10.087  10.348   3.685
 4739W        W 8483   8.951   9.863   9.040
 4740W        W 8484   4.686  10.063   2.190
 4741W        W 8485   5.563   9.376  11.239
 4742W        W 8486   3.171   8.674  10.960
 4743W        W 8487   9.572   6.576   0.646
 4744W        W 8488   2.636  10.436  10.562
 4745W        W 8489   2.117   2.579   1.121
 4746W        W 8490   7.004   1.376   2.928
 4747W        W 8491   8.412   9.404   1.772
 4748W        W 8492   4.764   4.494   9.995
 4749W        W 8493   9.391   7.930   1.487
 4750W        W 8494   3.591   7.944   9.952
 4751W        W 8495   5.956   4.184   1.712
 4752W        W 8496   9.864   2.986  11.571
 4753W        W 8497   6.880   3.223  10.785
 4754W        W 8498   8.899   9.943   8.531
 4755W        W 8499  10.402   6.096  10.304
 4756W        W 8500   2.272   0.329   0.923
 4757W        W 8501   0.701   6.009  11.953
 4758W        W 8502   6.016   5.208  11.130
 4759W        W 8503  10.309   3.645   9.873
 4760W        W 8504   5.770   8.939  11.458
 4761W        W 8505   9.904   6.401  10.012
 4762W        W 8506   4.900   1.175  11.738
 4763W        W 8507   9.921   4.392  11.916
 4764W        W 8508   8.864   7.170   9.425
 4765W        W 8509   4.721   0.330   0.543
 4766W        W 8510   7.434   5.293   3.113
 4767W        W 8511   3.919  10.083   9.583
 4768W        W 8512   8.755   0.920  10.971
 4769W        W 8513   1.396   5.524   1.414
 4770W        W 8514   6.655   1.498   0.837
 4771W        W 8515   0.969   7.684   1.366
 4772W        W 8516  10.273   7.513  11.430
 4773W        W 8517   3.634   9.867   2.591
 4774W        W 8518   5.912   2.417   0.921
 4775W        W 8519   2.174   4.044  11.654
 4776W        W 8520   3.135   8.090   1.413
 4777W        W 8521   1.300   2.852   2.469
 4778W        W 8522   7.055   8.428   2.924
 4779W        W 8523   2.220   3.052   0.981
 4780W        W 8524   7.895   9.932   0.303
 4781W        W 8525   7.008   8.585  10.188
 4782W        W 8526   6.144   8.845   0.782
 4783W        W 8527   9.454   3.783   8.744
 4784W        W 8528   3.252   3.596   2.161
 4785W        W 8529   8.521   9.756  11.942
 4786W        W 8530   5.687   8.532  10.446
 4787W        W 8531   9.085   9.310   2.516
 4788W        W 8532   2.560   0.948  11.918
 4789W        W 8533   1.195  10.251   3.186
 4790W        W 8534   5.645   5.979   2.346
 4791W        W 8535   1.470   8.137  10.549
 4792W        W 8536   9.499   4.581   1.497
 4793W        W 8537   5.943   8.449   2.330
 4794W        W 8538   5.870   8.891   0.340
 4795W        W 8539   4.289   1.890   0.452
 4796W        W 8540   6.064   9.839   9.126
 4797W        W 8541   8.867   1.212   0.809
 4798W        W 8542   4.660   4.985   2.131
 4799W        W 8543   6.719   1.152  10.569
 4800W        W 8544   3.382   3.171   9.082
 4801W        W 8545   8.158   9.327   8.753
 4802W        W 8546   3.747   2.318  10.329
 4803W        W 8547   7.403   7.072   2.170
 4804W        W 8548   8.969   3.747   3.361
 4805W        W 8549   5.070   9.442  11.236
 4806W        W 8550   7.498  10.481   8.352
 4807W        W 8551   0.770   3.832   1.179
 4808W        W 8552   5.452   6.850  10.133
 4809W        W 8553   2.944   7.712  11.110
 4810W        W 8554   9.856   0.326   9.495
 4811W        W 8555   6.791   3.711   0.132
 4812W        W 8556   5.014   7.408   1.837
 4813W        W 8557   9.428   6.013   3.534
 4814W        W 8558   7.432   9.785   2.505
 4815W        W 8559  10.130   8.453  11.400
 4816W        W 8560   5.502   2.188   9.329
 4817W        W 8561   3.343   5.517   2.394
 4818W        W 8562   1.432   4.639   3.179
 4819W        W 8563   7.762   5.634   9.449
 4820W        W 8564   0.709   8.312  10.349
 4821W        W 8565  10.292   1.147   0.421
 4822W        W 8566   4.742   9.617   0.128
 4823W        W 8567   8.887   6.413  10.172
 4824W        W 8568   0.241  10.171   0.900
 4825W        W 8569   6.383   2.727   8.996
 4826W        W 8570   4.974   6.623  11.766
 4827W        W 8571   2.581   7.663   9.572
 4828W        W 8572   5.587   0.788   9.535
 4829W        W 8573   9.990   7.397  10.988
 4830W        W 8574   6.792   4.216   8.810
 4831W        W 8575  10.343   9.540  11.628
 4832W        W 8576   3.161   8.158   3.129
 4833W        W 8577   8.479   9.757   8.774
 4834W        W 8578   3.235   5.489  11.526
 4835W        W 8579   0.562   7.658   2.684
 4836W        W 8580   9.348   5.350   2.749
 4837W        W 8581   3.362   9.434  10.430
 4838W        W 8582   7.707   1.974   8.468
 4839W        W 8583   5.476   6.699  11.537
 4840W        W 8584   6.903   6.968   9.451
 4841W        W 8585   0.390   1.588   0.920
 4842W        W 8586  10.204   0.678   1.821
 4843W        W 8587   1.887   8.627   1.307
 4844W        W 8588   3.060   5.206   3.617
 4845W        W 8589   3.810   1.872  10.581
 4846W        W 8590   0.870   9.447  10.869
 4847W        W 8591   0.156   0.445  10.020
 4848W        W 8592   4.290   1.697  11.982
 4849W        W 8593   5.439   7.778   9.965
 4850W        W 8594   0.420   8.746  10.476
 4851W        W 8595   7.138   5.967  11.556
 4852W        W 8596   0.353   9.482  10.834
 4853W        W 8597   3.551   0.760   3.110
 4854W        W 8598   0.106   8.306   1.258
 4855W        W 8599   4.157   5.553  11.047
 4856W        W 8600   9.864   1.678   3.360
 4857W        W 8601   7.613   2.738  10.868
 4858W        W 8602   5.574   3.136   0.704
 4859W        W 8603   3.247   2.988   0.720
 4860W        W 8604   3.592   4.909  11.719
 4861W        W 8605   2.362   9.501   3.304
 4862W        W 8606   5.711   3.409  10.300
 4863W        W 8607   0.800   9.739  11.801
 4864W        W 8608   8.526   2.857  10.992
 4865W        W 8609   4.824   2.549   0.243
 4866W        W 8610   9.908   3.834   3.193
 4867W        W 8611   5.472   1.363   3.380
 4868W        W 8612   4.198   4.993   3.002
 4869W        W 8613   3.630   8.120   2.576
 4870W        W 8614   0.766  10.432   9.096
 4871W        W 8615   7.478   0.906   1.986
 4872W        W 8616   9.359   8.768   3.224
 4873W        W 8617  10.153   9.880  11.306
 4874W        W 8618   0.473   3.920   9.664
 4875W        W 8619   1.248   1.453   2.801
 4876W        W 8620   0.990   7.528   0.900
 4877W        W 8621   5.620   3.833  11.453
 4878W        W 8622   7.073   8.318   0.721
 4879W        W 8623   3.846   0.367  11.994
 4880W        W 8624   6.055   0.190  10.373
 4881W        W 8625   6.305   5.144   1.332
 4882W        W 8626   7.910   2.367  11.043
 4883W        W 8627   8.911   0.960  10.332
 4884W        W 8628   3.608   5.260   0.717
 4885W        W 8629   3.745   7.909  10.954
 4886W        W 8630   4.955   9.357   2.185
 4887W        W 8631   1.100   4.105   9.504
 4888W        W 8632   4.232   9.259   2.074
 4889W        W 8633   6.521   6.495   0.275
 4890W        W 8634   7.018   3.030  10.337
 4891W        W 8635   3.117  10.279   0.362
 4892W        W 8636   4.929   4.226   0.373
 4893W        W 8637   5.166  10.440   9.233
 4894W        W 8638   0.855   2.426   1.268
 4895W        W 8639   0.507   3.472  11.435
 4896W        W 8640   2.446   9.060   3.048
 4897W        W 8641   0.676   2.175   2.235
 4898W        W 8642   5.389   0.302   1.250
 4899W        W 8643   0.166   2.248   9.831
 4900W        W 8644   0.023   3.210   3.402
 4901W        W 8645   6.275   4.740  10.745
 4902W        W 8646   4.371   5.370  11.648
 4903W        W 8647   2.411   0.255   1.433
 4904W        W 8648   3.798   2.169   0.872
 4905W        W 8649   2.882   8.539   0.326
 4906W        W 8650   6.595   3.244   2.302
 4907W        W 8651   2.378   7.915   1.599
 4908W        W 8652   9.699   7.501   3.223
 4909W        W 8653   8.108   5.493  10.272
 4910W        W 8654   2.479   2.130   3.410
 4911W        W 8655   1.920   1.161   2.972
 4912W        W 8656   4.392   0.309  10.315
 4913W        W 8657   9.402   6.236   1.968
 4914W        W 8658   4.805   1.755  11.974
 4915W        W 8659   9.152   9.927   0.748
 4916W        W 8660   6.423   7.241   1.409
 4917W        W 8661   3.795   5.654   0.947
 4918W        W 8662   8.390   5.688  11.025
 4919W        W 8663   6.651   8.760   9.434
 4920W        W 8664   0.495   3.097  11.859
 4921W        W 8665   3.741   6.470   0.935
 4922W        W 8666   0.901   5.810  11.166
 4923W        W 8667   9.539   3.094   3.295
 4924W        W 8668   7.571   4.518   1.808
 4925W        W 8669   9.583   0.626   9.810
 4926W        W 8670   0.314   8.985  10.028
 4927W        W 8671   7.511   8.419  10.969
 4928W        W 8672   1.867   5.445   9.184
 4929W        W 8673   1.695   3.630   2.276
 4930W        W 8674   5.209   0.182  11.820
 4931W        W 8675   1.901   5.595   2.706
 4932W        W 8676   7.641   6.981  11.432
 4933W        W 8677   8.392   1.885   3.275
 4934W        W 8678  10.344   5.149  11.108
 4935W        W 8679   2.336   7.341  10.616
 4936W        W 8680   8.969   1.969   1.721
 4937W        W 8681   5.993   3.306  11.913
 4938W        W 8682   7.152   2.132   1.241
 4939W        W 8683   4.570   2.222   9.010
 4940W        W 8684   6.117  10.386  11.341
 4941W        W 8685   2.656  10.205   2.135
 4942W        W 8686   3.352   7.869  11.350
 4943W        W 8687   4.339   6.253   1.973
 4944W        W 8688   1.535   7.890   3.608
 4945W        W 8689   9.861   0.861   9.084
 4946W        W 8690   4.588   8.859   0.840
 4947W        W 8691   2.773   8.394  11.720
 4948W        W 8692   7.976   0.221   1.984
 4949W        W 8693   3.178   5.725   3.620
 4950W        W 8694   0.254   6.702   2.878
 4951W        W 8695   7.313   2.634   9.116
 4952W        W 8696   5.463   3.928   3.960
 4953W        W 8697   1.918   0.375   1.324
 4954W        W 8698   4.281   6.371  11.474
 4955W        W 8699   9.072   2.679  11.759
 4956W        W 8700   0.493   4.651   9.093
 4957W        W 8701   0.040   7.508   0.617
 4958W        W 8702   7.713   1.615  11.406
 4959W        W 8703   3.525   4.866   9.061
 4960W        W 8704   8.978   1.297   2.961
 4961W        W 8705   1.884   3.385   8.891
 4962W        W 8706   2.694   0.730   9.415
 4963W        W 8707   7.131   9.817   3.147
 4964W        W 8708   4.187  10.352   1.298
 4965W        W 8709   8.368   0.501   2.175
 4966W        W 8710   2.376   7.242   2.185
 4967W        W 8711   9.236   6.527  11.622
 4968W        W 8712  10.398   8.885  11.373
 4969W        W 8713   4.099   0.803  11.848
 4970W        W 8714   2.200   3.815   2.192
 4971W        W 8715   3.135   5.717   8.762
 4972W        W 8716   0.466   5.954   9.478
 4973W        W 8717   0.815   6.630   3.360
 4974W        W 8718   5.634   2.352   1.381
 4975W        W 8719   2.110   0.166   8.968
 4976W        W 8720   9.007   9.948   0.062
 4977W        W 8721   0.928   6.606   9.812
 4978W        W 8722  10.479   6.613   1.042
 4979W        W 8723   9.464   4.631  11.845
 4980W        W 8724   5.943   6.061  11.039
 4981W        W 8725   6.596   5.028   1.735
 4982W        W 8726   8.503   7.913  11.476
 4983W        W 8727   5.668   0.244   2.761
 4984W        W 8728   6.173   1.788   3.214
 4985W        W 8729   0.919   3.067   3.286
 4986W        W 8730   6.608  10.248  10.603
 4987W        W 8731   5.548   3.832   9.946
 4988W        W 8732   9.890   8.209   2.350
 4989W        W 8733   5.983   6.404   2.878
 4990W        W 8734   5.213  10.354   1.059
 4991W        W 8735   5.558   1.758  11.029
 4992W        W 8736   5.288   8.887   8.848
 4993W        W 8737   8.303   0.500  10.916
 4994W        W 8738   5.076   8.839   9.863
 4995W        W 8739   8.847   1.865  11.154
 4996W        W 8740   3.194  10.086   2.352
 4997W        W 8741   9.565   0.996  10.491
 4998W        W 8742   1.658   7.188   1.378
 4999W        W 8743   5.731   7.568   8.352
 5000W        W 8744   4.700   4.112  11.396
 5001W        W 8745   1.223  10.249   1.399
 5002W        W 8746   3.484  10.448   0.724
 5003W        W 8747   6.586   9.109   2.619
 5004W        W 8748   5.877  10.348   3.017
 5005W        W 8749   4.845   8.314   8.532
 5006W        W 8750   2.654   1.575   1.776
 5007W        W 8751   1.885   2.608   0.265
 5008W        W 8752   1.702   8.912   0.891
 5009W        W 8753   2.379   8.522   9.922
 5010W        W 8754   7.575   6.026  11.295
 5011W        W 8755   8.889   3.725  10.073
 5012W        W 8756   0.898   6.542  10.711
 5013W        W 8757   5.182   8.528   3.308
 5014W        W 8758   4.558   3.252   2.268
 5015W        W 8759   7.650   6.514   8.539
 5016W        W 8760   0.272   4.261  10.940
 5017W        W 8761   0.425   3.407   9.585
 5018W        W 8762   5.512   8.528  11.316
 5019W        W 8763   5.315   1.161   2.017
 5020W        W 8764   6.431   6.800   3.622
 5021W        W 8765   4.155   3.839   3.247
 5022W        W 8766   5.241   1.881  11.728
 5023W        W 8767   1.797   8.186   2.816
 5024W        W 8768   6.446   7.823   9.061
 5025W        W 8769   8.835   5.237   2.793
 5026W        W 8770  10.308   8.817  10.523
 5027W        W 8771   0.630   9.843   0.773
 5028W        W 8772   1.181  10.435   2.693
 5029W        W 8773   7.962   2.486  11.533
 5030W        W 8774   5.129   7.723   2.209
 5031W        W 8775   2.686   6.399   9.432
 5032W        W 8776   2.838   0.344   2.466
 5033W        W 8777   7.436   2.102   2.597
 5034W        W 8778   5.120   9.380   9.006
 5035W        W 8779   1.358   4.844   8.890
 5036W        W 8780   9.465   3.830   2.066
 5037W        W 8781   1.387   7.627  10.304
 5038W        W 8782   9.465   8.544  10.883
 5039W        W 8783   5.109   3.026   9.908
 5040W        W 8784   9.817   5.020   9.058
 5041W        W 8785   0.678   4.375   9.519
 5042W        W 8786   7.832   0.868   9.379
 5043W        W 8787   8.919   7.994   0.727
 5044W        W 8788   9.876   1.343  11.693
 5045W        W 8789   0.015   7.830  10.378
 5046W        W 8790   3.088   1.476   2.968
 5047W        W 8791   8.635   8.696  11.020
 5048W        W 8792  10.434   7.664  11.906
 5049W        W 8793   4.252   7.241  11.950
 5050W        W 8794   5.346   2.392   0.148
 5051W        W 8795   0.271   2.559  11.295
 5052W        W 8796   6.200   8.356   0.901
 5053W        W 8797   6.973   6.866   1.946
 5054W        W 8798   4.794   1.311   0.228
 5055W        W 8799   3.248   8.198   0.035
 5056W        W 8800   0.422   4.612   3.025
 5057W        W 8801   4.774   0.251   1.060
 5058W        W 8802   2.154   0.669  11.034
 5059W        W 8803   9.785   3.118   0.564
 5060W        W 8804   0.566   8.873   2.579
 5061W        W 8805   6.123   2.413   0.455
 5062W        W 8806   2.630   9.117  11.517
 5063W        W 8807   5.700   6.357   0.435
 5064W        W 8808   0.194   7.917  10.867
 5065W        W 8809   0.949   9.939  10.891
 5066W        W 8810   6.164   9.383   2.765
 5067W        W 8811   6.981   6.993   3.003
 5068W        W 8812  10.312   6.262  11.749
 5069W        W 8813   3.262   7.369  11.296
 5070W        W 8814   1.691   1.249   2.495
 5071W        W 8815   0.390   2.639   2.192
 5072W        W 8816   7.441   0.433   0.754
 5073W        W 8817  10.069   7.404   2.619
 5074W        W 8818   8.947   3.796   1.256
 5075W        W 8819   6.914   9.537   9.020
 5076W        W 8820   1.218   0.425  10.893
 5077W        W 8821   6.736   4.176   3.589
 5078W        W 8822   9.809   6.681  10.434
 5079W        W 8823   9.744   3.152   2.437
 5080W        W 8824   1.893   9.451   0.827
 5081W        W 8825   9.982   2.730  10.604
 5082W        W 8826   0.926  10.475  10.062
 5083W        W 8827   6.173   0.166   3.501
 5084W        W 8828   9.357   8.061   0.478
 5085W        W 8829   1.803  10.248   9.995
 5086W        W 8830   3.140   4.953  10.370
 5087W        W 8831   2.569   9.421  10.246
 5088W        W 8832   3.640   4.121  10.487
 5089W        W 8833   2.397   8.589   0.944
 5090W        W 8834   6.095   3.915   2.187
 5091W        W 8835   3.180   8.155  10.967
 5092W        W 8836  10.142   9.479   3.444
 5093W        W 8837   3.686   1.352   8.749
 5094W        W 8838   5.987   5.493   2.410
 5095W        W 8839   5.989   3.245   1.427
 5096W        W 8840   4.109   6.087  11.085
 5097W        W 8841   4.742   8.950  11.515
 5098W        W 8842   2.160   4.448   9.457
 5099W        W 8843   7.439   3.720   8.508
 5100W        W 8844   4.758   7.392   2.410
 5101W        W 8845   8.401   5.525   2.637
 5102W        W 8846   5.038   8.850  11.921
 5103W        W 8847   7.106   3.190   9.407
 5104W        W 8848   0.383   7.882   3.184
 5105W        W 8849   4.357   2.778  11.373
 5106W        W 8850   9.889   3.208   1.453
 5107W        W 8851   3.649   3.662   3.392
 5108W        W 8852   2.970   9.800   0.779
 5109W        W 8853   2.520   4.891   9.523
 5110W        W 8854   2.727   1.284   2.237
 5111W        W 8855   6.188   1.360  11.041
 5112W        W 8856   2.608   3.245  10.335
 5113W        W 8857   4.337   7.513   8.935
 5114W        W 8858   6.535   7.354   3.673
 5115W        W 8859   1.349   6.073   2.178
 5116W        W 8860   9.261   5.955  10.317
 5117W        W 8861   5.095   9.450   1.660
 5118W        W 8862   3.861   1.111   3.393
 5119W        W 8863   3.650   9.624   9.479
 5120W        W 8864   9.707   0.408   2.389
 5121W        W 8865   5.171   2.319  11.400
 5122W        W 8866   1.959   1.702   1.010
 5123W        W 8867   7.004   9.409   2.343
 5124W        W 8868   9.284  10.471   8.741
 5125W        W 8869   5.099   5.613   1.656
 5126W        W 8870   1.469   7.134   9.350
 5127W        W 8871   8.834   0.896   0.344
 5128W        W 8872   9.396   7.570   9.655
 5129W        W 8873   9.082   0.912   1.247
 5130W        W 8874   6.574   6.211   1.330
 5131W        W 8875   0.849   4.825  11.824
 5132W        W 8876   6.581   3.561  11.232
 5133W        W 8877   8.835   7.195   1.145
 5134W        W 8878   6.476   8.369  11.370
 5135W        W 8879   4.299   0.407   8.763
 5136W        W 8880   9.391   3.656  11.962
 5137W        W 8881   2.453   0.916   0.473
 5138W        W 8882   1.261   0.052   2.206
 5139W        W 8883   8.267  10.490   9.280
 5140W        W 8884   8.311   1.390   2.717
 5141W        W 8885   4.092   7.480   8.485
 5142W        W 8886   2.408   6.509  10.580
 5143W        W 8887   5.741   6.527   9.873
 5144W        W 8888   3.325   6.453   0.608
 5145W        W 8889   4.717   1.145   9.760
 5146W        W 8890   6.698   6.467  10.770
 5147W        W 8891   2.289   6.949  10.969
 5148W        W 8892   3.608   7.682   0.259
 5149W        W 8893   5.196   4.172  11.769
 5150W        W 8894   0.411   6.994   3.307
 5151W        W 8895   6.545   0.713  11.489
 5152W        W 8896   2.737   5.557   0.259
 5153W        W 8897   3.792   0.576   8.805
 5154W        W 8898   4.596   7.840   1.071
 5155W        W 8899   8.592   2.902  11.825
 5156W        W 8900   8.872   7.210   8.463
 5157W        W 8901   4.583   6.292   9.442
 5158W        W 8902  10.082  10.253   9.928
 5159W        W 8903   1.911   5.253  11.353
 5160W        W 8904  10.081   4.003   0.872
 5161W        W 8905   8.028   5.902   1.906
 5162W        W 8906   1.997   0.002   1.688
 5163W        W 8907   6.128   0.806   1.649
 5164W        W 8908   4.302   7.208   2.466
 5165W        W 8909   2.171   1.102   2.372
 5166W        W 8910   7.775   6.030   8.417
 5167W        W 8911   7.661   4.608   0.260
 5168W        W 8912   2.724   8.141   8.875
 5169W        W 8913   6.943   5.889   1.453
 5170W        W 8914   9.080   9.440   9.312
 5171W        W 8915   7.455   2.594   0.465
 5172W        W 8916   5.612   1.242   2.859
 5173W        W 8917   0.155   6.090  10.772
 5174W        W 8918   4.176   2.405  10.619
 5175W        W 8919   3.187   9.919   3.438
 5176W        W 8920   6.094   7.864   9.436
 5177W        W 8921   1.447   7.567   0.626
 5178W        W 8922   8.146   6.981  11.327
 5179W        W 8923   5.167   2.694  11.762
 5180W        W 8924   0.379   3.608  11.903
 5181W        W 8925   4.594   7.537   3.864
 5182W        W 8926   8.991   2.613   2.339
 5183W        W 8927   2.710   5.459  10.783
 5184W        W 8928   6.954   2.632   2.986
 5185W        W 8929   0.356   7.974  11.764
 5186W        W 8930  10.255   1.668   0.408
 5187W        W 8931   1.387   6.241   1.180
 5188W        W 8932   2.447   3.778   0.016
 5189W        W 8933   2.682   3.211   0.807
 5190W        W 8934   8.530   8.130   2.038
 5191W        W 8935   6.553   0.430   9.245
 5192W        W 8936   3.095   3.127  11.918
 5193W        W 8937   2.383   2.987  11.516
 5194W        W 8938   0.302   2.342   0.197
 5195W        W 8939   4.869   8.838   0.419
 5196W        W 8940   6.682   7.720   2.486
 5197W        W 8941   4.782   0.811  11.316
 5198W        W 8942   1.931   1.378  10.897
 5199W        W 8943   9.570   4.207  10.934
 5200W        W 8944   3.752   1.889  10.051
 5201W        W 8945   0.955  10.293  10.532
 5202W        W 8946   7.442   1.342   1.198
 5203W        W 8947   5.133   8.810  10.534
 5204W        W 8948   5.789   8.436   8.629
 5205W        W 8949   8.159   0.892   0.684
 5206W        W 8950   4.503   4.212   3.190
 5207W        W 8951   8.447  10.005   2.573
 5208W        W 8952  10.444   8.774   0.296
 5209W        W 8953   1.912   9.018   2.286
 5210W        W 8954   5.748   6.904  11.911
 5211W        W 8955   4.643   2.326   1.495
 5212W        W 8956   5.133   4.793   9.783
 5213W        W 8957   3.368   8.869  10.307
 5214W        W 8958   2.892   0.950   9.846
 5215W        W 8959   6.968   3.763  11.534
 5216W        W 8960   1.383   2.480   8.842
 5217W        W 8961   3.766   7.050   1.770
 5218W        W 8962  10.313   9.953   0.665
 5219W        W 8963   2.685  10.360   1.249
 5220W        W 8964   3.635   9.639   2.012
 5221W        W 8965   5.466   4.603  11.883
 5222W        W 8966   1.673   4.115   2.153
 5223W        W 8967  10.440   5.548   1.851
 5224W        W 8968   0.469   7.161   9.779
 5225W        W 8969   2.472   7.416   8.631
 5226W        W 8970   2.624   4.969  10.725
 5227W        W 8971   5.333   0.322   9.596
 5228W        W 8972   0.780   8.780  10.852
 5229W        W 8973   9.538   0.906   2.349
 5230W        W 8974   4.266   0.402   9.275
 5231W        W 8975   9.766   1.834   1.959
 5232W        W 8976   8.091   6.646   1.082
 5233W        W 8977   6.547   6.698  11.738
 5234W        W 8978   0.511   5.612   8.839
 5235W        W 8979   3.274   1.985   0.407
 5236W        W 8980   5.449   8.894  10.986
 5237W        W 8981   0.950   8.879   8.626
 5238W        W 8982   9.332   8.946  11.507
 5239W        W 8983   6.086   0.857   0.657
 5240W        W 8984   6.110   6.606   1.744
 5241W        W 8985   1.198   1.788   9.338
 5242W        W 8986   5.473   8.007   8.580
 5243W        W 8987   4.798   3.143   1.823
 5244W        W 8988   0.055   1.334   9.022
 5245W        W 8989   2.911   5.698   2.594
 5246W        W 8990   9.403   7.038   1.957
 5247W        W 8991   0.072   7.597   2.791
 5248W        W 8992   0.321   0.002   2.631
 5249W        W 8993   2.424   8.921  10.481
 5250W        W 8994   9.621   9.438   9.468
 5251W        W 8995   7.678   7.986   9.347
 5252W        W 8996   6.384   3.903   8.698
 5253W        W 8997   8.881   2.345  10.069
 5254W        W 8998   2.927   3.753   0.195
 5255W        W 8999   3.504   3.029   1.419
 5256W        W 9000   7.546   0.004   3.177
 5257W        W 9001   1.351   3.857   3.274
 5258W        W 9002   8.710   0.863   9.561
 5259W        W 9003   4.632   5.963   2.295
 5260W        W 9004   2.712   5.364   9.481
 5261W        W 9005   6.468   1.792  10.987
 5262W        W 9006   5.674   9.978  10.598
 5263W        W 9007   1.691   9.904   2.148
 5264W        W 9008   4.246   5.268   2.090
 5265W        W 9009   5.520   8.831  10.083
 5266W        W 9010   5.416   7.131   8.240
 5267W        W 9011   5.538   8.899  11.919
 5268W        W 9012   3.087   4.250   1.848
 5269W        W 9013   1.682   6.004   3.023
 5270W        W 9014   3.018   7.440   9.385
 5271W        W 9015   3.576   6.125   3.606
 5272W        W 9016   9.407   8.897   1.402
 5273W        W 9017   0.394  10.294   9.497
 5274W        W 9018   1.492   7.357   2.641
 5275W        W 9019   8.852   2.200   2.690
 5276W        W 9020   6.585   1.024   2.405
 5277W        W 9021   6.189  10.172   9.489
 5278W        W 9022   8.344   9.041  10.759
 5279W        W 9023   0.587   8.217   0.152
 5280W        W 9024   2.315   1.688   1.371
 5281W        W 9025  10.483   6.742   0.083
 5282W        W 9026   4.339   6.076   0.233
 5283W        W 9027   2.914   9.900   9.544
 5284W        W 9028   7.026   5.825   2.126
 5285W        W 9029   9.060   5.059  10.048
 5286W        W 9030  10.275   4.858   0.851
 5287W        W 9031   2.492   9.932   0.970
 5288W        W 9032   4.288   2.096   0.936
 5289W        W 9033   0.819   1.884   8.877
 5290W        W 9034   6.486   3.231   1.492
 5291W        W 9035   5.303   3.328   8.577
 5292W        W 9036   5.407   9.849   3.811
 5293W        W 9037   5.106   8.997   1.452
 5294W        W 9038   5.228   2.885   3.865
 5295W        W 9039   7.903   1.806   0.280
 5296W        W 9040   7.874   6.382   1.995
 5297W        W 9041   1.659   6.036  10.860
 5298W        W 9042   0.315   0.881   8.954
 5299W        W 9043   5.760   2.869   1.098
 5300W        W 9044   8.652   5.616   8.391
 5301W        W 9045   0.551   5.506   0.456
 5302W        W 9046   7.484   4.679   3.659
 5303W        W 9047   7.967   5.712   0.864
 5304W        W 9048   7.889   2.289   0.984
 5305W        W 9049   0.280  10.389  11.180
 5306W        W 9050   8.198   5.933   3.367
 5307W        W 9051   7.007   8.066  10.463
 5308W        W 9052   7.962  10.260   1.746
 5309W        W 9053   6.116  10.382   0.689
 5310W        W 9054   7.318   4.528   9.987
 5311W        W 9055   3.548   2.623   0.965
 5312W        W 9056   4.762   2.279   3.438
 5313W        W 9057   3.900   3.959   2.416
 5314W        W 9058   2.351   7.018  10.108
 5315W        W 9059   7.483  10.021   9.791
 5316W        W 9060   1.356   1.867   2.475
 5317W        W 9061   5.781   4.654   1.899
 5318W        W 9062   9.490   2.654  11.464
 5319W        W 9063   3.180   3.491   0.737
 5320W        W 9064   9.474   3.899   2.942
 5321W        W 9065   5.732   4.664   2.419
 5322W        W 9066   0.465   3.789   2.598
 5323W        W 9067   4.151   7.321  11.469
 5324W        W 9068   8.400   4.306   2.350
 5325W        W 9069   0.019   5.700   0.699
 5326W        W 9070   0.898   0.138   9.568
 5327W        W 9071   8.495   5.735  10.078
 5328W        W 9072  10.481   2.629  10.439
 5329W        W 9073   5.572   1.455   1.683
 5330W        W 9074   8.896   6.427   8.812
 5331W        W 9075   7.919   4.941   1.089
 5332W        W 9076   7.576   4.389   4.062
 5333W        W 9077   3.790   5.410   2.213
 5334W        W 9078  10.295   1.374  11.968
 5335W        W 9079   8.993   8.388   2.054
 5336W        W 9080   5.558   3.938   9.066
 5337W        W 9081   8.076   9.377   1.357
 5338W        W 9082   8.912   4.177   9.551
 5339W        W 9083   9.037   8.597   9.950
 5340W        W 9084   3.773   3.102   8.728
 5341W        W 9085   7.019   6.942   2.480
 5342W        W 9086   5.441  10.058   8.609
 5343W        W 9087   7.646   9.272  11.449
 5344W        W 9088   9.217   7.000   1.473
 5345W        W 9089   0.131   5.019   2.862
 5346W        W 9090   6.753   6.546   9.772
 5347W        W 9091   9.776   9.353   3.087
 5348W        W 9092   9.559   6.956   2.595
 5349W        W 9093   4.208   6.374  10.620
 5350W        W 9094   3.789   0.511   2.003
 5351W        W 9095   5.846   3.263   8.554
 5352W        W 9096   8.546   4.322   0.296
 5353W        W 9097   8.591   5.192  10.946
 5354W        W 9098   0.274   5.101   9.313
 5355W        W 9099   5.521   6.169   9.228
 5356W        W 9100   9.300   0.030   2.511
 5357W        W 9101   7.152   8.960   1.486
 5358W        W 9102   9.372   4.641   3.361
 5359W        W 9103   5.078   6.050  10.561
 5360W        W 9104   1.403   4.615   1.666
 5361W        W 9105   9.199  10.488   1.198
 5362W        W 9106   0.289   3.192   1.442
 5363W        W 9107   7.000   0.703  11.835
 5364W        W 9108   0.292   3.646   1.202
 5365W        W 9109   0.885   6.527  11.917
 5366W        W 9110   0.509   3.584   0.749
 5367W        W 9111   0.560   9.624  11.265
 5368W        W 9112   3.323   1.805   9.274
 5369W        W 9113   1.423  10.476  10.761
 5370W        W 9114   4.979   1.966   1.458
 5371W        W 9115   4.893   8.073   3.194
 5372W        W 9116   3.204   2.291   9.106
 5373W        W 9117   5.418   5.607  10.493
 5374W        W 9118  10.383   4.007   1.306
 5375W        W 9119   7.577   5.309   0.887
 5376W        W 9120   1.987   6.383  10.278
 5377W        W 9121   6.983   4.714  10.883
 5378W        W 9122   0.798   9.985   1.515
 5379W        W 9123   5.628   3.621   9.469
 5380W        W 9124  10.319   0.348  11.404
 5381W        W 9125   6.477   1.143   1.412
 5382W        W 9126   3.732   8.599   9.420
 5383W        W 9127   6.433   0.925  10.981
 5384W        W 9128   0.988   1.858   0.775
 5385W        W 9129   1.294   2.696   9.826
 5386W        W 9130   6.151   6.424   0.699
 5387W        W 9131   2.790   6.525   1.198
 5388W        W 9132   3.079   3.217   3.539
 5389W        W 9133  10.338   1.289  11.453
 5390W        W 9134   9.169   6.212   0.479
 5391W        W 9135  10.009   1.157   3.045
 5392W        W 9136   8.545   5.223  10.099
 5393W        W 9137   3.729   7.393  11.014
 5394W        W 9138   8.006   0.862  11.741
 5395W        W 9139   8.856   4.041   2.178
 5396W        W 9140   7.977  10.214   3.247
 5397W        W 9141   3.594  10.433   9.801
 5398W        W 9142   0.886   7.190   0.000
 5399W        W 9143   7.449   8.405   9.553
 5400W        W 9144   3.680   4.584   9.775
 5401W        W 9145   9.019   1.359  11.204
 5402W        W 9146   7.638   8.645   2.669
 5403W        W 9147   1.888   6.878   0.969
 5404W        W 9148   3.844   0.377  10.323
 5405W        W 9149   9.132   3.995  10.968
 5406W        W 9150   9.815   9.629  10.278
 5407W        W 9151   5.031   6.022   2.943
 5408W        W 9152   3.713   9.199   0.519
 5409W        W 9153   8.472   7.931   0.477
 5410W        W 9154   9.731   4.620   9.383
 5411W        W 9155   7.539   2.403   2.214
 5412W        W 9156   7.816   4.383  11.329
 5413W        W 9157   8.459   4.753   2.124
 5414W        W 9158   8.957   1.764   2.390
 5415W        W 9159   1.592   4.183   9.440
 5416W        W 9160   5.547   5.371   1.761
 5417W        W 9161   5.431   4.142   0.274
 5418W        W 9162   8.974   1.293  10.701
 5419W        W 9163   3.095   6.890  11.285
 5420W        W 9164   9.811   7.816   2.770
 5421W        W 9165   4.176   3.558   1.179
 5422W        W 9166   1.331   4.814  10.125
 5423W        W 9167   2.346   9.193   0.229
 5424W        W 9168   5.669   2.716   0.412
 5425W        W 9169   3.113   5.179   0.933
 5426W        W 9170   8.778   6.313   0.818
 5427W        W 9171   7.661  10.075   2.857
 5428W        W 9172   1.818   5.465   9.687
 5429W        W 9173   8.749   8.343   3.567
 5430W        W 9174   9.221   0.303  11.935
 5431W        W 9175   4.204   1.222   2.810
 5432W        W 9176   0.744   9.997   0.279
 5433W        W 9177   7.910   0.481   0.510
 5434W        W 9178   1.845  10.392  11.019
 5435W        W 9179   0.407   2.459   2.663
 5436W        W 9180   4.307   5.522   0.938
 5437W        W 9181   5.514   8.858   9.580
 5438W        W 9182   5.631   5.440   8.965
 5439W        W 9183   3.418   4.085   2.254
 5440W        W 9184   6.644   7.884  11.267
 5441W        W 9185   7.792   5.200  10.520
 5442W        W 9186   3.248   9.514   1.153
 5443W        W 9187   1.653   0.229   9.991
 5444W        W 9188   4.939   5.767  11.394
 5445W        W 9189   6.455   8.091   3.279
 5446W        W 9190   2.335   4.634   1.654
 5447W        W 9191   9.989   0.962   0.005
 5448W        W 9192   4.970   7.586  11.587
 5449W        W 9193   5.362   1.674   1.292
 5450W        W 9194   2.836   3.395   1.575
 5451W        W 9195   1.392   0.374  10.411
 5452W        W 9196   4.668   8.086  10.529
 5453W        W 9197   1.611   3.025   0.234
 5454W        W 9198   5.552   8.303  10.870
 5455W        W 9199   7.621   7.421   1.694
 5456W        W 9200   2.689   8.447   2.399
 5457W        W 9201   1.816   2.197   0.981
 5458W        W 9202   3.392   3.827   0.380
 5459W        W 9203   8.507   2.297   9.253
 5460W        W 9204   1.624   1.343  11.323
 5461W        W 9205   3.577   1.864   3.014
 5462W        W 9206   1.154   9.540  10.433
 5463W        W 9207   1.778   0.009   8.577
 5464W        W 9208   0.177   9.205  10.465
 5465W        W 9209   3.892  10.371   2.681
 5466W        W 9210   4.407   7.620   2.751
 5467W        W 9211   0.718   3.314   1.167
 5468W        W 9212   3.629   5.690   1.752
 5469W        W 9213   4.089   9.360   9.355
 5470W        W 9214   4.068   7.513  10.627
 5471W        W 9215   1.948   1.411   3.426
 5472W        W 9216   4.990   9.973   3.462
 5473W        W 9217   0.219   7.409   2.326
 5474W        W 9218   1.801   5.463   2.192
 5475W        W 9219   4.670   0.634   9.052
 5476W        W 9220   0.484   3.803   3.103
 5477W        W 9221   4.323   5.140   9.552
 5478W        W 9222   1.877   2.893   8.348
 5479W        W 9223   8.182   5.036  11.798
 5480W        W 9224   8.060   8.642   0.769
 5481W        W 9225   3.242   7.367  10.360
 5482W        W 9226   7.116   0.796   3.057
 5483W        W 9227   0.706   3.087  10.918
 5484W        W 9228  10.474   9.434   1.975
 5485W        W 9229   6.140   9.106   3.430
 5486W        W 9230   1.118   0.433   9.151
 5487W        W 9231   6.177   6.184   2.050
 5488W        W 9232   4.102   9.709   3.321
 5489W        W 9233   6.986   4.603   3.742
 5490W        W 9234   9.230   3.401   9.788
 5491W        W 9235   4.571   4.156  10.897
 5492W        W 9236   5.045   2.386   9.500
 5493W        W 9237   1.217   4.225  11.029
 5494W        W 9238   8.610   6.762   8.575
 5495W        W 9239   9.362   0.915   8.986
 5496W        W 9240   8.907   1.758   8.809
 5497W        W 9241   5.072   6.103   9.536
 5498W        W 9242   6.118   1.956   0.247
 5499W        W 9243   0.815   6.317   2.958
 5500W        W 9244   4.213   3.608  11.730
 5501W        W 9245   3.252   6.180   8.535
 5502W        W 9246   0.660   8.873   9.085
 5503W        W 9247   6.309   1.439   8.410
 5504W        W 9248   4.574   9.261   0.455
 5505W        W 9249   0.965   1.759   0.106
 5506W        W 9250  10.408   4.502   2.649
 5507W        W 9251   8.619   7.557   0.835
 5508W        W 9252   9.363   1.534   9.556
 5509W        W 9253   9.882   1.346  11.189
 5510W        W 9254   4.289   3.104   2.725
 5511W        W 9255   2.879   2.158  10.333
 5512W        W 9256   4.279   5.229   1.408
 5513W        W 9257   7.611   8.807   0.580
 5514W        W 9258   4.754   1.722  10.368
 5515W        W 9259   6.173   7.583   8.078
 5516W        W 9260   9.281   6.236   0.964
 5517W        W 9261   8.481   6.064   2.668
 5518W        W 9262   3.213   7.134   1.168
 5519W        W 9263   2.802   9.744   2.265
 5520W        W 9264   9.448   3.551   2.522
 5521W        W 9265   6.431   2.303  10.977
 5522W        W 9266   6.165   9.671  11.832
 5523W        W 9267   6.462   2.162  11.460
 5524W        W 9268   5.954   4.661  11.742
 5525W        W 9269   7.204   6.750   8.391
 5526W        W 9270   7.133   1.962  11.500
 5527W        W 9271   1.480   7.910   1.926
 5528W        W 9272   9.071   7.006  11.735
 5529W        W 9273   9.179   2.245  10.942
 5530W        W 9274   0.439   6.933  11.884
 5531W        W 9275   7.434   8.010   2.259
 5532W        W 9276   1.202   9.999   0.509
 5533W        W 9277   0.441   7.644   1.886
 5534W        W 9278   3.383   3.652  10.884
 5535W        W 9279   5.750  10.323  10.986
 5536W        W 9280   2.636   8.823  11.959
 5537W        W 9281   1.304   0.952   2.670
 5538W        W 9282   4.630  10.358   3.393
 5539W        W 9283   9.112   8.890  11.058
 5540W        W 9284   2.209   2.531   9.231
 5541W        W 9285   9.419   8.188   3.065
 5542W        W 9286   6.413   5.360  10.405
 5543W        W 9287   6.554   1.736   0.384
 5544W        W 9288   3.268   2.360  10.638
 5545W        W 9289   5.663   8.353   9.945
 5546W        W 9290   7.457   1.522   2.667
 5547W        W 9291   7.900   7.996  10.243
 5548W        W 9292  10.246   2.744   9.349
 5549W        W 9293   1.665   5.048  10.958
 5550W        W 9294   7.161   9.711   3.803
 5551W        W 9295   1.261   4.190   0.938
 5552W        W 9296   9.766   2.802   9.545
 5553W        W 9297   0.854   0.435   1.443
 5554W        W 9298   6.462   0.762   8.817
 5555W        W 9299   4.762  10.094   1.694
 5556W        W 9300   7.494   9.016   3.505
 5557W        W 9301   9.238   1.280   3.408
 5558W        W 9302   8.046   8.015   2.265
 5559W        W 9303   5.598   2.635   2.444
 5560W        W 9304   2.043   9.074   3.349
 5561W        W 9305   7.158   9.736  11.962
 5562W        W 9306   0.687   0.054  11.430
 5563W        W 9307   8.517   3.216   1.406
 5564W        W 9308   9.021   6.058  11.467
 5565W        W 9309   8.321   2.440  10.760
 5566W        W 9310   3.265   7.300   0.221
 5567W        W 9311   8.303   7.135   0.733
 5568W        W 9312   4.211   0.357   1.735
 5569W        W 9313   0.805   4.755   1.509
 5570W        W 9314   0.853  10.221   8.581
 5571W        W 9315   3.414  10.004   0.964
 5572W        W 9316   5.646   4.122   1.212
 5573W        W 9317   7.371   3.155  10.685
 5574W        W 9318   3.661   3.521   2.452
 5575W        W 9319   8.034   9.741   3.471
 5576W        W 9320   9.850   4.711   2.399
 5577W        W 9321   6.531   6.083   0.665
 5578W        W 9322   9.982   4.483  10.983
 5579W        W 9323  10.316   6.112  11.194
 5580W        W 9324   4.197   0.845   8.992
 5581W        W 9325   1.833   7.378   0.916
 5582W        W 9326   4.265   9.495   1.064
 5583W        W 9327   0.878   2.260  11.971
 5584W        W 9328   5.620   7.239   2.811
 5585W        W 9329   4.731   6.462  10.805
 5586W        W 9330   5.556   2.694  11.396
 5587W        W 9331   7.480   8.952   1.052
 5588W        W 9332   2.826   9.063   0.380
 5589W        W 9333   8.086   4.202   3.159
 5590W        W 9334   8.083   5.113   2.600
 5591W        W 9335   6.562   2.659  11.357
 5592W        W 9336   8.092   4.980   1.577
 5593W        W 9337   1.384   1.674   1.179
 5594W        W 9338   9.725   2.253   2.251
 5595W        W 9339   8.375   2.423  10.263
 5596W        W 9340   3.711   0.432   9.838
 5597W        W 9341   8.806   3.127   2.443
 5598W        W 9342   4.012   9.443   8.469
 5599W        W 9343   7.535   1.881   2.156
 5600W        W 9344   8.941   2.632   0.242
 5601W        W 9345   7.049   6.936  11.716
 5602W        W 9346   5.061   2.369  10.485
 5603W        W 9347   6.001   7.920   2.395
 5604W        W 9348   0.040   2.404   0.930
 5605W        W 9349   6.250   4.654   1.578
 5606W        W 9350   2.314   3.325   2.909
 5607W        W 9351   1.967   4.599   3.292
 5608W        W 9352   7.672   6.461   3.411
 5609W        W 9353   7.080  10.180  10.927
 5610W        W 9354   2.211  10.271   9.258
 5611W        W 9355   7.911   0.275   9.534
 5612W        W 9356   2.907   8.543   3.382
 5613W        W 9357   3.122   0.685  10.922
 5614W        W 9358   2.424  10.255   1.678
 5615W        W 9359   8.571   9.357   9.075
 5616W        W 9360   0.726  10.077  11.334
 5617W        W 9361   7.595   2.817  10.368
 5618W        W 9362   8.550   6.462   9.577
 5619W        W 9363   6.950  10.418   1.213
 5620W        W 9364   4.545   0.316  11.040
 5621W        W 9365   0.367   4.515   1.424
 5622W        W 9366   0.717  10.246  11.830
 5623W        W 9367   2.750   8.572   9.181
 5624W        W 9368   3.039   4.231   0.340
 5625W        W 9369   4.589   0.104   1.521
 5626W        W 9370   0.438   9.370   1.773
 5627W        W 9371   0.991   4.648   9.190
 5628W        W 9372  10.195   2.244  10.652
 5629W        W 9373   7.035   9.884   9.993
 5630W        W 9374   4.628   7.209  11.598
 5631W        W 9375   5.546   3.076  10.643
 5632W        W 9376  10.300   1.564   1.324
 5633W        W 9377   4.090   2.599   0.954
 5634W        W 9378   0.944   2.237   3.222
 5635W        W 9379   1.753   0.737  11.402
 5636W        W 9380   3.185   8.696  11.937
 5637W        W 9381   5.820   8.073   4.075
 5638W        W 9382   8.446   8.498   1.248
 5639W        W 9383   8.632   5.291  11.805
 5640W        W 9384   2.279   4.544  11.688
 5641W        W 9385   9.362   4.208  10.472
 5642W        W 9386   2.410   2.931   8.464
 5643W        W 9387   5.585   7.535   9.362
 5644W        W 9388   6.524   3.428   1.021
 5645W        W 9389   8.060   1.649   9.782
 5646W        W 9390   3.248   3.204   1.806
 5647W        W 9391   4.835  10.339   0.713
 5648W        W 9392   1.781   4.701   0.936
 5649W        W 9393   2.611   4.288   2.873
 5650W        W 9394   1.331   1.969   8.872
 5651W        W 9395   4.732   0.431   2.425
 5652W        W 9396   5.759   5.979   3.146
 5653W        W 9397   1.749   4.343  11.773
 5654W        W 9398   4.706   8.024  11.083
 5655W        W 9399   0.857   5.711  10.227
 5656W        W 9400   0.446  10.213  10.401
 5657W        W 9401   2.358   6.975   1.728
 5658W        W 9402   9.774   8.599  10.441
 5659W        W 9403   3.849  10.033   1.656
 5660W        W 9404   5.127   2.556   2.708
 5661W        W 9405   5.196   1.642   8.730
 5662W        W 9406   8.676   0.469   3.170
 5663W        W 9407   6.998   1.197   1.946
 5664W        W 9408   9.092   2.190  11.985
 5665W        W 9409   2.292   9.448   2.236
 5666W        W 9410   3.387   0.914   8.746
 5667W        W 9411   5.307   8.479   1.495
 5668W        W 9412   2.484   6.144   0.466
 5669W        W 9413   3.102   0.792  11.911
 5670W        W 9414   7.454   0.646  11.377
 5671W        W 9415   0.530   6.045   2.209
 5672W        W 9416   7.341   6.126   3.208
 5673W        W 9417   5.633   4.094  10.975
 5674W        W 9418   4.362   8.572   1.315
 5675W        W 9419  10.369   7.026  11.242
 5676W        W 9420   5.905   7.073  10.468
 5677W        W 9421   5.003   8.004   0.818
 5678W        W 9422   6.450   3.647   9.912
 5679W        W 9423   1.708   3.562   9.343
 5680W        W 9424   2.770   1.912   0.426
 5681W        W 9425   2.879   6.937   9.398
 5682W        W 9426   0.882   6.641   8.952
 5683W        W 9427   7.980   2.639   2.339
 5684W        W 9428   4.041   2.642   2.730
 5685W        W 9429   0.937   6.170   2.472
 5686W        W 9430  10.288   7.911   0.411
 5687W        W 9431   8.348   0.099   3.183
 5688W        W 9432  10.498   0.782   3.371
 5689W        W 9433   3.501   0.515   3.546
 5690W        W 9434   4.628   4.104   7.871
 5691W        W 9435   7.356   6.551   0.336
 5692W        W 9436   3.251  10.015   2.893
 5693W        W 9437   6.942   9.846   2.657
 5694W        W 9438   7.701   1.860   2.949
 5695W        W 9439  10.412   8.898   9.683
 5696W        W 9440   3.824   2.763  10.554
 5697W        W 9441   9.373   9.101   0.026
 5698W        W 9442   0.023   2.622   8.642
 5699W        W 9443   8.864   5.819   0.324
 5700W        W 9444   5.006   0.831   2.650
 5701W        W 9445   6.617   6.457   1.809
 5702W        W 9446   8.954   7.436   1.573
 5703W        W 9447   5.368   2.752   3.391
 5704W        W 9448  10.024   0.857   9.587
 5705W        W 9449   2.402   5.708   3.183
 5706W        W 9450   6.448   1.140   1.929
 5707W        W 9451   2.706   8.371   2.932
 5708W        W 9452   7.874   7.437  11.527
 5709W        W 9453   6.141   2.065   2.765
 5710W        W 9454   4.161   7.122   1.469
 5711W        W 9455   8.864   8.867   3.349
 5712W        W 9456   3.420   2.673   2.537
 5713W        W 9457   2.983   0.703   8.478
 5714W        W 9458   9.313   3.032   9.404
 5715W        W 9459   8.820   7.537   3.069
 5716W        W 9460   5.153   5.246   9.061
 5717W        W 9461   9.736   5.597  11.682
 5718W        W 9462  10.154   2.061   3.158
 5719W        W 9463  10.481   2.732   2.593
 5720W        W 9464   6.430   6.058  10.867
 5721W        W 9465   7.332   9.981   8.565
 5722W        W 9466   8.609   4.500   0.793
 5723W        W 9467   4.211   3.118   0.903
 5724W        W 9468   4.393   9.464   2.820
 5725W        W 9469   6.149   8.573   3.403
 5726W        W 9470   7.421  10.387   8.850
 5727W        W 9471   9.391   7.939   0.976
 5728W        W 9472   4.751   4.532   9.067
 5729W        W 9473   2.858   6.705  10.299
 5730W        W 9474   3.550   2.391   0.485
 5731W        W 9475   1.404   8.630   0.135
 5732W        W 9476  10.041   6.481   0.131
 5733W        W 9477   6.213  10.027  10.871
 5734W        W 9478   1.847   8.277   3.526
 5735W        W 9479   4.581   9.071   1.335
 5736W        W 9480   9.034   9.095   0.439
 5737W        W 9481   7.378   3.253   1.339
 5738W        W 9482   5.951   2.606   9.405
 5739W        W 9483   3.617   6.221   8.910
 5740W        W 9484   8.047   2.854   9.730
 5741W        W 9485   0.231   3.041  11.424
 5742W        W 9486   2.106   3.438  10.146
 5743W        W 9487   0.877   2.375  11.440
 5744W        W 9488   1.822   3.384   1.038
 5745W        W 9489   1.731   4.135   1.131
 5746W        W 9490   9.742   4.275   2.139
 5747W        W 9491   0.851   0.451   3.218
 5748W        W 9492   2.652   5.854   8.588
 5749W        W 9493   6.138   1.758   8.794
 5750W        W 9494   9.452   5.468   8.880
 5751W        W 9495   4.072   0.923   2.385
 5752W        W 9496   2.401   4.226   2.410
 5753W        W 9497   8.901   9.947   9.534
 5754W        W 9498   8.710   2.369  11.068
 5755W        W 9499   6.010   3.856   9.256
 5756W        W 9500   1.568   0.723   3.125
 5757W        W 9501   1.456   4.608   2.199
 5758W        W 9502   2.261   2.329  10.646
 5759W        W 9503   6.161   9.394  10.014
 5760W        W 9504   8.991   8.869   2.286
 5761W        W 9505   9.398   7.298  11.490
 5762W        W 9506   1.156   7.942   9.968
 5763W        W 9507   9.279   5.055   0.749
 5764W        W 9508   3.725   3.638   0.923
 5765W        W 9509   9.906   9.531   2.125
 5766W        W 9510   9.579   4.796   3.817
 5767W        W 9511   6.907   6.556   3.774
 5768W        W 9512   9.491   4.804   2.800
 5769W        W 9513   3.343   3.215   9.590
 5770W        W 9514   7.431   2.336   3.057
 5771W        W 9515   4.085   8.237  11.773
 5772W        W 9516   8.965   7.511   8.859
 5773W        W 9517   2.511   0.715  10.089
 5774W        W 9518   9.435   9.102   2.822
 5775W        W 9519   0.224   9.534   2.791
 5776W        W 9520   8.392   6.247  10.031
 5777W        W 9521  10.030   4.532   8.987
 5778W        W 9522   8.399   6.985   1.892
 5779W        W 9523  10.272   4.083   1.879
 5780W        W 9524   1.807   0.774   2.673
 5781W        W 9525   1.043   9.993   1.014
 5782W        W 9526   5.810   0.333   9.709
 5783W        W 9527   3.669   2.241   2.676
 5784W        W 9528   2.357   6.232   1.290
 5785W        W 9529   2.312   3.007   9.355
 5786W        W 9530   9.748   7.677  10.625
 5787W        W 9531   4.606   1.348   1.571
 5788W        W 9532   2.410   9.367  10.752
 5789W        W 9533   9.363   5.856   2.742
 5790W        W 9534   9.446   0.304   1.549
 5791W        W 9535   5.921   6.884   0.749
 5792W        W 9536   7.585   4.574   8.627
 5793W        W 9537   3.132   7.030   9.987
 5794W        W 9538   1.827   9.429   1.970
 5795W        W 9539   5.577   9.932   2.206
 5796W        W 9540   9.107   7.210   0.199
 5797W        W 9541   5.105   5.580   2.663
 5798W        W 9542   6.546   0.291  10.480
 5799W        W 9543   2.267   4.966  10.318
 5800W        W 9544   8.522   8.398   0.708
 5801W        W 9545   9.855   2.657   0.387
 5802W        W 9546   9.580   0.791   1.393
 5803W        W 9547   8.339   0.489  11.787
 5804W        W 9548   7.545   0.573  10.443
 5805W        W 9549   8.169   7.963   9.311
 5806W        W 9550   2.251   0.189  10.908
 5807W        W 9551   2.310   1.565   2.180
 5808W        W 9552   1.865   9.571   3.444
 5809W        W 9553   1.157   9.076  10.682
 5810W        W 9554   6.466   7.806  10.308
 5811W        W 9555   3.618   5.122   0.220
 5812W        W 9556   8.059   6.946  10.804
 5813W        W 9557   6.515   3.234   9.129
 5814W        W 9558   9.016   4.085   8.644
 5815W        W 9559   4.177   5.732   2.330
 5816W        W 9560   0.731   7.489   3.166
 5817W        W 9561   0.693   2.131   0.443
 5818W        W 9562   7.593   1.839   1.149
 5819W        W 9563   3.260   4.216   3.563
 5820W        W 9564   5.960   8.044   8.339
 5821W        W 9565   9.594   5.055  10.054
 5822W        W 9566   8.685   5.822   3.554
 5823W        W 9567   4.892   9.503   9.955
 5824W        W 9568   9.749   3.347  10.185
 5825W        W 9569   4.477   1.842   1.377
 5826W        W 9570   4.281   0.677  11.317
 5827W        W 9571   4.136   7.738  11.814
 5828W        W 9572   2.563   1.704   9.446
 5829W        W 9573   8.096   4.644   9.437
 5830W        W 9574   0.472   5.568   2.418
 5831W        W 9575   6.432   7.426  11.736
 5832W        W 9576   3.287   9.524   3.095
 5833W        W 9577   0.864   8.335   9.052
 5834W        W 9578   8.488   9.906   1.027
 5835W        W 9579   9.070   5.025  11.841
 5836W        W 9580   8.166   4.249   9.100
 5837W        W 9581   3.477   8.437  10.040
 5838W        W 9582   9.391   5.850   9.546
 5839W        W 9583   9.616   9.374   1.432
 5840W        W 9584   6.061   3.055   2.818
 5841W        W 9585   5.758   7.834  11.760
 5842W        W 9586   1.450   3.240  11.340
 5843W        W 9587   9.138   6.630   2.150
 5844W        W 9588   5.219   1.900   0.266
 5845W        W 9589   0.701   4.250   2.757
 5846W        W 9590  10.156   9.081  10.929
 5847W        W 9591   0.387   0.337   9.575
 5848W        W 9592   3.213   7.189   2.633
 5849W        W 9593   7.850   6.926   1.910
 5850W        W 9594   9.168   0.326   3.234
 5851W        W 9595   8.938   3.627   2.485
 5852W        W 9596   4.101   0.920   9.501
 5853W        W 9597   4.478   7.192  10.514
 5854W        W 9598   3.344   3.609  11.896
 5855W        W 9599   2.773   9.933   2.752
 5856W        W 9600   3.676   9.864   3.103
 5857W        W 9601   6.421   9.586   8.852
 5858W        W 9602   3.148   9.773   0.284
 5859W        W 9603   0.212   8.045   1.680
 5860W        W 9604   4.377   5.725   2.795
 5861W        W 9605   6.236   1.455   3.641
 5862W        W 9606   1.850   7.793  10.434
 5863W        W 9607   9.363   2.505   9.417
 5864W        W 9608   8.024   7.600   8.575
 5865W        W 9609   2.628   6.393   4.133
 5866W        W 9610   5.463   5.514   2.260
 5867W        W 9611   6.007  10.169   3.639
 5868W        W 9612   3.185   9.377   2.145
 5869W        W 9613   0.249   5.438  11.815
 5870W        W 9614   0.049   2.717   3.527
 5871W        W 9615   5.431  10.392   2.433
 5872W        W 9616   1.022   0.902   2.240
 5873W        W 9617   0.828   3.577   9.864
 5874W        W 9618   8.288   1.377   2.214
 5875W        W 9619   3.760   4.150   3.248
 5876W        W 9620   8.779  10.321   1.425
 5877W        W 9621   4.070   6.229   2.401
 5878W        W 9622   7.520   3.137   8.657
 5879W        W 9623   4.130   4.125   8.664
 5880W        W 9624   6.924   8.947  10.968
 5881W        W 9625   5.463   2.672   9.646
 5882W        W 9626   3.221   9.341   9.549
 5883W        W 9627   8.910   7.937  11.157
 5884W        W 9628   6.467   5.171   9.869
 5885W        W 9629   1.188  10.034   2.352
 5886W        W 9630   1.174   6.690   9.366
 5887W        W 9631   6.488   7.547   9.547
 5888W        W 9632   8.545   3.054   0.892
 5889W        W 9633   7.384   4.999  10.732
 5890W        W 9634  10.115   2.437   3.507
 5891W        W 9635   3.197   7.143   3.307
 5892W        W 9636   7.120   4.710   2.899
 5893W        W 9637  10.299   6.561   0.561
 5894W        W 9638   0.359   8.466   0.851
 5895W        W 9639   1.926   8.723   3.722
 5896W        W 9640   7.008   7.492   2.878
 5897W        W 9641   6.068  10.073   2.058
 5898W        W 9642   1.651   8.986  11.847
 5899W        W 9643   4.819   6.972  10.833
 5900W        W 9644   0.569   3.133  10.007
 5901W        W 9645   0.256   8.527   1.826
 5902W        W 9646   5.132   3.676  11.654
 5903W        W 9647   5.661   2.826  11.873
 5904W        W 9648   2.272   6.010  11.272
 5905W        W 9649   4.718   5.548  10.726
 5906W        W 9650   4.273   3.356   0.194
 5907W        W 9651   5.445   9.612   9.324
 5908W        W 9652   3.889   5.269   1.728
 5909W        W 9653   4.149   7.458   3.572
 5910W        W 9654   4.135   7.902   9.217
 5911W        W 9655   0.833   1.885  11.621
 5912W        W 9656   5.541   2.917  10.127
 5913W        W 9657   3.477   2.189  11.868
 5914W        W 9658   9.100   7.194   9.883
 5915W        W 9659   3.841   7.108   9.363
 5916W        W 9660   6.730   8.007   1.537
 5917W        W 9661   6.176   9.356   0.828
 5918W        W 9662   0.987   7.455   0.412
 5919W        W 9663   8.608   8.682   0.291
 5920W        W 9664   2.677  10.417   0.097
 5921W        W 9665   8.804   3.283  10.559
 5922W        W 9666   1.261   7.742  11.796
 5923W        W 9667   7.375   5.571   2.647
 5924W        W 9668   8.362  10.216   9.796
 5925W        W 9669   6.737  10.465   3.032
 5926W        W 9670   5.564   9.149   9.180
 5927W        W 9671   3.989   0.590   3.392
 5928W        W 9672   2.079   1.121  11.307
 5929W        W 9673   3.926  10.245   0.818
 5930W        W 9674   6.810   7.934   9.420
 5931W        W 9675   8.823   5.037  11.396
 5932W        W 9676   6.116   0.845   2.291
 5933W        W 9677  10.438   3.709   2.679
 5934W        W 9678  10.048   0.971   2.245
 5935W        W 9679   9.385   1.633   8.640
 5936W        W 9680   2.747   4.094   8.958
 5937W        W 9681   2.803   5.088   0.492
 5938W        W 9682   0.851   3.154  10.435
 5939W        W 9683   8.945   6.419  10.698
 5940W        W 9684   4.756   8.982   3.385
 5941W        W 9685   0.834   2.309  10.519
 5942W        W 9686   0.946   9.766   2.983
 5943W        W 9687   7.510  10.480  10.829
 5944W        W 9688   2.570   0.808   1.005
 5945W        W 9689   0.945   8.906   2.940
 5946W        W 9690   1.836   7.388   3.014
 5947W        W 9691  10.365   0.420   9.392
 5948W        W 9692   2.831   0.351  10.303
 5949W        W 9693   8.922   9.794   2.661
 5950W        W 9694   6.103   8.475   9.035
 5951W        W 9695   5.577   5.368  11.375
 5952W        W 9696   2.265   2.377   8.720
 5953W        W 9697   0.427  10.477   9.959
 5954W        W 9698   2.826   3.163   9.424
 5955W        W 9699   5.050   1.815  11.263
 5956W        W 9700   5.759   5.545  11.820
 5957W        W 9701   2.222   0.293   2.350
 5958W        W 9702   7.487   6.585   2.963
 5959W        W 9703   5.210   9.212  10.222
 5960W        W 9704   5.559   5.586   9.455
 5961W        W 9705   6.971   8.407  11.463
 5962W        W 9706   7.047   1.673   9.006
 5963W        W 9707   5.621   1.237   9.774
 5964W        W 9708   2.347   6.917  11.995
 5965W        W 9709   7.526   9.407  11.926
 5966W        W 9710   0.913   3.610   3.285
 5967W        W 9711   4.026   3.573  10.020
 5968W        W 9712   3.656   5.154  10.241
 5969W        W 9713   8.866   9.459   0.820
 5970W        W 9714   4.977   8.148   9.278
 5971W        W 9715   0.914   5.568  10.714
 5972W        W 9716   1.867   6.521  10.758
 5973W        W 9717   9.790   7.654   1.308
 5974W        W 9718   6.603   7.259   9.140
 5975W        W 9719   2.661   5.146  11.991
 5976W        W 9720   7.537   7.530   8.425
 5977W        W 9721   3.563   0.001   0.220
 5978W        W 9722  10.263   8.669  11.843
 5979W        W 9723   4.253   7.234   0.994
 5980W        W 9724   0.961   3.326  11.277
 5981W        W 9725   2.142   4.939   1.297
 5982W        W 9726   4.297   8.825   8.892
 5983W        W 9727   9.546   2.195  11.280
 5984W        W 9728   1.840   5.988   2.046
 5985W        W 9729   5.605  10.047   9.099
 5986W        W 9730   0.204   8.289  10.418
 5987W        W 9731   0.777   7.394  11.533
 5988W        W 9732   9.226   2.165   2.191
 5989W        W 9733   8.578   1.955  10.146
 5990W        W 9734   7.895   1.422   1.467
 5991W        W 9735   3.376   4.743   2.709
 5992W        W 9736   7.868   7.085  11.894
 5993W        W 9737   8.613   3.885   0.565
 5994W        W 9738   5.555   5.862   1.565
 5995W        W 9739   0.454   6.662   0.848
 5996W        W 9740   6.089   4.788   9.835
 5997W        W 9741   6.417   7.019   9.587
 5998W        W 9742   8.820   3.671   9.566
 5999W        W 9743   7.122   3.637   1.564
 6000W        W 9744   2.506   0.726   2.430
 6001W        W 9745   9.896   8.721   2.501
 6002W        W 9746   8.743   8.391  10.360
 6003W        W 9747   4.086   5.580   0.057
 6004W        W 9748   1.396   0.876   9.007
 6005W        W 9749   8.326   3.294   2.439
 6006W        W 9750   2.917   2.694   2.614
 6007W        W 9751   4.715   8.494   3.563
 6008W        W 9752   4.788   2.116  10.034
 6009W        W 9753   9.954   7.468   0.399
 6010W        W 9754   7.534  10.015   3.384
 6011W        W 9755   0.693  10.425   1.291
 6012W        W 9756   3.945   4.770   9.367
 6013W        W 9757   0.730   5.428   1.301
 6014W        W 9758   0.316   3.848   0.357
 6015W        W 9759   6.607   1.005   0.828
 6016W        W 9760   9.522   9.410  11.550
 6017W        W 9761   7.443   9.077  10.883
 6018W        W 9762   3.339   6.083   0.243
 6019W        W 9763   8.951   1.267   9.770
 6020W        W 9764   3.237   0.180  10.886
 6021W        W 9765   4.697   4.979   1.616
 6022W        W 9766   0.434   5.738   0.990
 6023W        W 9767   4.934   8.893  11.041
 6024W        W 9768   9.994   6.893   9.899
 6025W        W 9769   8.585   7.788  11.985
 6026W        W 9770   5.819   4.336   9.995
 6027W        W 9771   8.106   4.264  10.919
 6028W        W 9772   0.377   8.983   3.494
 6029W        W 9773  10.249   2.260  10.128
 6030W        W 9774   0.925   9.056   0.468
 6031W        W 9775   8.394   8.973   1.492
 6032W        W 9776   3.935   4.520   1.035
 6033W        W 9777   1.134   1.840   3.464
 6034W        W 9778  10.251   3.686   0.496
 6035W        W 9779   6.812   0.795   1.230
 6036W        W 9780   3.018   1.700   0.819
 6037W        W 9781   4.304   8.715   3.309
 6038W        W 9782   3.076   9.217  10.044
 6039W        W 9783   0.088   5.548   8.531
 6040W        W 9784   1.562   3.371  11.844
 6041W        W 9785   7.582   1.293   8.996
 6042W        W 9786   5.221   3.586  10.721
 6043W        W 9787   4.821   3.710  11.011
 6044W        W 9788   1.039   5.864   1.244
 6045W        W 9789   1.840   1.864   3.759
 6046W        W 9790   7.872   5.611   2.627
 6047W        W 9791   1.348   6.008  11.351
 6048W        W 9792   0.570   3.802   3.610
 6049W        W 9793   0.965   3.338   0.713
 6050W        W 9794   5.255   8.427   0.974
 6051W        W 9795   4.408   1.149  11.477
 6052W        W 9796   3.104   3.979   0.785
 6053W        W 9797   2.788   8.946   1.650
 6054W        W 9798   0.334   1.079   0.982
 6055W        W 9799   7.651   6.838   9.989
 6056W        W 9800   6.922   3.765   8.550
 6057W        W 9801   8.327   7.566   3.210
 6058W        W 9802   5.704   9.196   2.627
 6059W        W 9803   1.118   0.035   0.996
 6060W        W 9804   0.061   1.146   1.407
 6061W        W 9805   0.684   5.232  10.381
 6062W        W 9806   6.213   5.602  10.842
 6063W        W 9807   3.168   9.183  10.903
 6064W        W 9808   9.154   6.918  11.240
 6065W        W 9809   9.830  10.422   2.265
 6066W        W 9810   3.185   7.087   8.570
 6067W        W 9811   4.977   6.622   9.429
 6068W        W 9812  10.141   4.087   2.394
 6069W        W 9813   0.083   3.708   1.677
 6070W        W 9814   7.878   7.329   3.224
 6071W        W 9815   1.284   6.404   3.201
 6072W        W 9816   0.874   4.460   0.710
 6073W        W 9817   7.924   2.166   3.288
 6074W        W 9818   7.709   7.926   8.840
 6075W        W 9819   3.604   8.072   1.201
 6076W        W 9820   7.656   5.238   2.336
 6077W        W 9821   6.096   2.307   3.202
 6078W        W 9822   2.442   2.445  10.181
 6079W        W 9823   8.589   7.295   9.984
 6080W        W 9824   4.543   8.050   9.499
 6081W        W 9825   3.640   4.062  11.976
 6082W        W 9826   2.611   2.776  11.114
 6083W        W 9827   3.383   4.151   9.838
 6084W        W 9828   0.401   8.135  11.278
 6085W        W 9829   6.620   4.330   1.428
 6086W        W 9830   3.036   6.769   1.640
 6087W        W 9831   1.222   9.899  10.055
 6088W        W 9832   0.713   1.462   8.585
 6089W        W 9833   1.502  10.235   0.864
 6090W        W 9834   8.923   4.839   1.048
 6091W        W 9835   5.304   4.294   9.860
 6092W        W 9836   4.598   2.264   0.577
 6093W        W 9837   3.139   6.578   3.322
 6094W        W 9838   8.933   2.235   9.557
 6095W        W 9839  10.174   1.725  10.962
 6096W        W 9840   1.250   7.403   3.597
 6097W        W 9841   8.367   4.204  10.480
 6098W        W 9842   0.329   9.980   9.107
 6099W        W 9843   6.200   7.644  10.817
 6100W        W 9844   0.268   7.551   9.093
 6101W        W 9845   6.240   7.824   2.849
 6102W        W 9846   8.842   1.776   0.178
 6103W        W 9847   2.595   5.072   1.000
 6104W        W 9848   8.845   6.244   2.331
 6105W        W 9849   2.721   7.208  11.135
 6106W        W 9850   4.515   0.667   1.435
 6107W        W 9851   1.927   4.655  10.698
 6108W        W 9852   0.777   5.078   3.288
 6109W        W 9853   9.322   4.116   3.400
 6110W        W 9854   0.909   5.653   0.791
 6111W        W 9855   8.632   2.701   2.719
 6112W        W 9856   1.659   6.466   1.963
 6113W        W 9857   3.751   6.595   0.376
 6114W        W 9858   8.847   4.293   3.208
 6115W        W 9859   2.398   3.396   1.323
 6116W        W 9860   7.610   9.612   3.056
 6117W        W 9861   9.627   9.612   3.486
 6118W        W 9862   6.598  10.021   9.763
 6119W        W 9863   3.127   4.096  11.830
 6120W        W 9864   8.880   1.016   1.701
 6121W        W 9865   7.844  10.325   2.287
 6122W        W 9866   6.208   0.263   2.991
 6123W        W 9867   5.965   3.177   3.655
 6124W        W 9868   9.930   0.801   0.488
 6125W        W 9869   3.290   8.840   9.775
 6126W        W 9870   7.588   9.947   2.039
 6127W        W 9871   8.771   2.213   0.998
 6128W        W 9872   0.439   8.488   9.971
 6129W        W 9873   3.257   3.596  11.392
 6130W        W 9874   1.418   4.661  10.635
 6131W        W 9875   3.842   1.836   1.252
 6132W        W 9876   5.885   3.674   3.806
 6133W        W 9877   1.327   5.069   0.229
 6134W        W 9878   1.320   3.288   9.093
 6135W        W 9879   7.616   7.507   0.781
 6136W        W 9880   3.824   4.444   2.248
 6137W        W 9881   6.192   7.686   3.473
 6138W        W 9882   6.578   9.466   0.160
 6139W        W 9883   8.089   0.715  10.211
 6140W        W 9884   4.164   7.656  11.096
 6141W        W 9885   6.641   0.707   1.721
 6142W        W 9886   7.710   8.662   0.097
 6143W        W 9887   7.473   8.374   9.038
 6144W        W 9888   8.480   2.840   3.215
 6145W        W 9889   9.308   5.726  11.158
 6146W        W 9890   3.742   4.361   9.061
 6147W        W 9891   3.325   8.509   2.265
 6148W        W 9892   1.788   8.964   1.742
 6149W        W 9893   9.804   8.985   8.921
 6150W        W 9894   5.606   0.601   0.821
 6151W        W 9895   3.714   8.362   0.773
 6152W        W 9896   8.478   2.371   9.764
 6153W        W 9897   2.326   9.795  11.034
 6154W        W 9898   8.602   1.187  11.410
 6155W        W 9899   4.002   0.751   2.891
 6156W        W 9900   6.925   7.466   0.215
 6157W        W 9901   6.528   8.310  11.874
 6158W        W 9902   4.104   4.151   2.851
 6159W        W 9903   3.313   4.584   2.170
 6160W        W 9904   7.324  10.275   2.364
 6161W        W 9905   6.030   6.680   0.276
 6162W        W 9906   3.379   4.491   9.388
 6163W        W 9907   6.541   1.688   9.156
 6164W        W 9908   5.779   5.958   0.732
 6165W        W 9909   0.297   3.366   2.923
 6166W        W 9910   9.995   1.735   0.945
 6167W        W 9911   8.458   1.370   3.214
 6168W        W 9912   6.739   0.753  10.258
 6169W        W 9913   8.817   9.363   3.484
 6170W        W 9914   4.907   2.685   3.147
 6171W        W 9915   0.522   9.562   0.196
 6172W        W 9916   4.824   2.802   1.434
 6173W        W 9917   7.581   3.751   3.392
 6174W        W 9918   6.083   0.707  11.789
 6175W        W 9919   5.964   9.371   2.215
 6176W        W 9920   8.768   2.271  10.567
 6177W        W 9921   7.612   4.101  10.890
 6178W        W 9922   9.050   8.454  11.346
 6179W        W 9923   7.432   6.158   2.235
 6180W        W 9924   2.577   7.472   1.471
 6181W        W 9925   5.262   6.469   0.675
 6182W        W 9926   1.609   9.878  11.538
 6183W        W 9927   0.874   7.548   9.791
 6184W        W 9928  10.017   5.349   0.033
 6185W        W 9929  10.310   2.309   0.035
 6186W        W 9930   6.852   6.140  10.095
 6187W        W 9931   2.467  10.379   0.742
 6188W        W 9932   3.354   2.818  10.419
 6189W        W 9933   0.350   0.290   1.454
 6190W        W 9934   5.252   6.249  11.525
 6191W        W 9935   1.732   1.622   2.832
 6192W        W 9936   3.266   7.871   9.546
 6193W        W 9937   5.328   6.048   0.345
 6194W        W 9938   1.095   3.156   9.970
 6195W        W 9939   7.343  10.175   0.179
 6196W        W 9940   7.388   0.747   2.451
 6197W        W 9941   3.666  10.426  11.721
 6198W        W 9942   0.421   6.126  10.308
 6199W        W 9943   2.733   0.790  10.551
 6200W        W 9944   4.047   5.069  11.955
 6201W        W 9945   1.175   9.796   3.837
 6202W        W 9946  10.054   8.984   1.396
 6203W        W 9947   5.777   1.565   1.007
 6204W        W 9948   1.499   5.995   0.297
 6205W        W 9949   9.591   8.126  10.281
 6206W        W 9950   4.716   4.140   3.651
 6207W        W 9951   7.295   2.808   9.957
 6208W        W 9952   5.738   7.337  10.870
 6209W        W 9953   1.169   6.129   0.716
 6210W        W 9954   2.706   5.548   3.547
 6211W        W 9955  10.232   4.162   3.427
 6212W        W 9956   2.344   5.230   9.869
 6213W        W 9957   6.753   0.327   9.995
 6214W        W 9958   5.148   3.866  10.275
 6215W        W 9959   3.757   3.753   2.899
 6216W        W 9960   0.322   6.489   2.387
 6217W        W 9961   8.758   1.455   2.006
 6218W        W 9962  10.174   1.624   2.910
 6219W        W 9963   6.999   6.526   2.785
 6220W        W 9964   9.508   1.392   9.084
 6221W        W 9965   3.816   2.622   3.506
 6222W        W 9966   6.483   8.810  11.923
 6223W        W 9967   2.073   1.728   9.587
 6224W        W 9968   3.279   8.582   0.939
 6225W        W 9969  10.391   7.717   1.909
 6226W        W 9970   1.205   2.129   0.353
 6227W        W 9971   6.240   4.144   2.643
 6228W        W 9972   9.599   8.502  11.384
 6229W        W 9973   8.449   2.627  11.438
 6230W        W 9974   9.336   7.395  10.601
 6231W        W 9975   3.754   9.315   3.324
 6232W        W 9976   5.930   8.053   3.212
 6233W        W 9977   3.516   4.852   0.997
 6234W        W 9978   4.304   9.830   9.369
 6235W        W 9979   2.241   3.508   9.321
 6236W        W 9980   7.451   1.936   3.414
 6237W        W 9981   2.374   8.901   9.080
 6238W        W 9982   9.456   1.740  10.019
 6239W        W 9983   5.926   7.364  11.790
 6240W        W 9984   7.886  10.361  11.451
 6241W        W 9985   0.604   8.184   1.993
 6242W        W 9986  10.308   7.833   2.418
 6243W        W 9987   9.022   4.526   0.101
 6244W        W 9988   3.855   6.146   1.802
 6245W        W 9989   0.853   2.603   2.460
 6246W        W 9990  10.340   9.556  10.964
 6247W        W 9991   2.824   1.085   1.774
 6248W        W 9992   9.661   5.957   9.970
 6249W        W 9993   9.454   1.194  11.433
 6250W        W 9994   1.490   5.450   3.467
 6251W        W 9995   1.443   3.222   1.632
 6252W        W 9996   6.003   9.792   2.478
 6253W        W 9997   5.807   8.716   2.736
 6254W        W 9998   7.160   0.869   1.591
 6255W        W 9999   6.946   5.640   9.362
 6256W        W10000   7.608   1.553  10.537
 6257W        W10001   2.149   2.818   3.086
 6258W        W10002   8.890  10.204   2.320
 6259W        W10003   1.015   7.927  10.478
 6260W        W10004   0.411   6.659   9.848
 6261W        W10005   4.085   7.027  10.832
 6262W        W10006  10.007   0.882  11.458
 6263W        W10007   5.173   1.682   9.253
 6264W        W10008   5.058   6.087  10.055
 6265W        W10009   2.828   7.639  10.605
 6266W        W10010   3.479   7.633   8.517
 6267W        W10011   6.468   4.163   3.143
 6268W        W10012   5.922  10.335   2.471
 6269W        W10013  10.239   4.092   9.194
 6270W        W10014   9.776   5.188   2.987
 6271W        W10015   9.899   3.197   1.961
 6272W        W10016   1.792   9.400   9.486
 6273W        W10017   0.401   0.847  11.561
 6274W        W10018  10.238   3.252   2.439
 6275W        W10019   9.375   6.578   3.538
 6276W        W10020  10.489   4.742   9.078
 6277W        W10021   0.817   1.459   9.476
 6278W        W10022   8.076   7.897   1.302
 6279W        W10023   6.253   7.872   1.759
 6280W        W10024   9.248   0.745  10.954
 6281W        W10025   6.497   6.915  10.078
 6282W        W10026   7.113  10.322   3.341
 6283W        W10027   4.302   4.275   2.400
 6284W        W10028   0.902   0.808  10.750
 6285W        W10029   0.909   4.648   3.518
 6286W        W10030   8.476   7.703   2.308
 6287W        W10031   0.464   2.560   0.704
 6288W        W10032   8.571   7.459   1.872
 6289W        W10033   2.235   1.466   2.718
 6290W        W10034   9.557   1.944  10.491
 6291W        W10035   9.086   7.635  11.907
 6292W        W10036   9.380   8.403   1.260
 6293W        W10037   1.340   8.015   1.423
 6294W        W10038   4.421   8.949   2.876
 6295W        W10039   6.739   1.357  11.039
 6296W        W10040   0.409   3.754   2.067
 6297W        W10041   9.366   6.713   8.963
 6298W        W10042  10.444   2.267  11.555
 6299W        W10043   1.609   0.825  11.900
 6300W        W10044   5.215   3.335  10.297
 6301W        W10045   3.773   7.391  11.883
 6302W        W10046  10.480   3.588  10.441
 6303W        W10047   1.919   0.045   0.047
 6304W        W10048   7.423   1.670   0.266
 6305W        W10049   7.420   9.290   0.680
 6306W        W10050  10.499   9.566   9.070
 6307W        W10051   7.824   6.973   2.427
 6308W        W10052   2.628   1.650   3.171
 6309W        W10053   7.016   0.693   2.096
 6310W        W10054  10.216   4.661   9.523
 6311W        W10055   7.948   5.651  11.295
 6312W        W10056   5.701   0.766   2.008
 6313W        W10057  10.096   5.647   8.520
 6314W        W10058   1.730   1.192  10.353
 6315W        W10059   9.437   1.596  11.812
 6316W        W10060   8.162   4.541  11.685
 6317W        W10061   1.611   8.946  10.931
 6318W        W10062   7.362   4.317  10.476
 6319W        W10063  10.483   1.907   0.979
 6320W        W10064   2.341   9.084   9.564
 6321W        W10065   6.788   5.087  10.603
 6322W        W10066   7.427   3.618  10.947
 6323W        W10067   8.912   7.481  11.417
 6324W        W10068   7.874   5.076   9.587
 6325W        W10069   7.428   4.240   2.186
 6326W        W10070   1.926   8.432   0.836
 6327W        W10071   4.564   0.705   9.567
 6328W        W10072   9.961   1.776  11.958
 6329W        W10073   3.681   9.095   9.523
 6330W        W10074   2.203   9.942  10.101
 6331W        W10075   4.833   1.768   2.472
 6332W        W10076   9.037   3.709   0.769
 6333W        W10077   0.435   3.152   1.958
 6334W        W10078  10.462   5.071   0.078
 6335W        W10079   8.878   6.485  11.220
 6336W        W10080   8.849   8.511   8.920
 6337W        W10081   1.466   7.003   2.291
 6338W        W10082   2.637   7.333   8.164
 6339W        W10083   0.294   7.636  11.377
 6340W        W10084   2.223  10.218   0.294
 6341W        W10085   4.074   1.806   1.697
 6342W        W10086   5.656   2.144   2.376
 6343W        W10087   7.561   7.489   9.446
 6344W        W10088   5.084   2.115   9.026
 6345W        W10089   9.041   6.198  11.983
 6346W        W10090   5.327   6.771   3.599
 6347W        W10091   9.328   3.863   9.626
 6348W        W10092   5.355   4.752  10.622
 6349W        W10093   2.178   9.847   1.940
 6350W        W10094   3.481   6.631   1.828
 6351W        W10095   6.646   3.269   9.620
 6352W        W10096   5.993   0.791   9.065
 6353W        W10097   1.650   1.816   3.290
 6354W        W10098   4.341  10.422   8.637
 6355W        W10099   4.601   7.610  11.971
 6356W        W10100   2.257   6.475  11.098
 6357W        W10101   1.010  10.440  11.056
 6358W        W10102   2.193   2.041  11.632
 6359W        W10103   2.380   3.309   1.843
 6360W        W10104   6.501   2.113   3.453
 6361W        W10105   5.116   6.911   1.825
 6362W        W10106   5.442   2.549   0.835
 6363W        W10107   1.867   6.720   8.833
 6364W        W10108   5.579   9.760   0.449
 6365W        W10109   1.840   2.306   1.866
 6366W        W10110   6.490   4.041  11.362
 6367W        W10111   5.059  10.361  10.276
 6368W        W10112   8.000   4.608   3.438
 6369W        W10113   8.542   3.215   8.725
 6370W        W10114   1.314  10.379   8.741
 6371W        W10115  10.405  10.040   9.562
 6372W        W10116   0.793   0.726   2.723
 6373W        W10117   5.973   9.064   1.224
 6374W        W10118   4.313   0.448   0.203
 6375W        W10119   1.071   4.720  11.000
 6376W        W10120   7.566   6.381  10.882
 6377W        W10121   0.434   5.655  10.507
 6378W        W10122   7.654   5.753   3.081
 6379W        W10123   4.018   9.602   2.403
 6380W        W10124   1.796   5.080   0.420
 6381W        W10125   1.644   7.585   9.203
 6382W        W10126   6.170   2.794   1.679
 6383W        W10127   3.188  10.187  10.021
 6384W        W10128   6.637   8.870  10.532
 6385W        W10129   8.838  10.428   3.338
 6386W        W10130   6.274   7.062   2.316
 6387W        W10131   1.456   2.286   3.276
 6388W        W10132   8.780   9.999  10.017
 6389W        W10133   1.578   1.193   0.382
 6390W        W10134   3.638   8.966   0.066
 6391W        W10135   5.942   7.181   8.682
 6392W        W10136   8.319   4.167  11.369
 6393W        W10137   7.573   6.920  10.927
 6394W        W10138   0.024   8.419   9.611
 6395W        W10139   8.293   0.932   2.464
 6396W        W10140   9.777   7.607  11.404
 6397W        W10141  10.251   2.243   9.549
 6398W        W10142   4.004   0.976   8.526
 6399W        W10143   6.565   0.438  11.045
 6400W        W10144   7.554   1.811   8.963
 6401W        W10145   8.468   1.790   9.111
 6402W        W10146   2.688   6.117  11.540
 6403W        W10147   0.852   6.991   3.020
 6404W        W10148  10.223   5.348   2.795
 6405W        W10149   3.608   0.974   9.613
 6406W        W10150   9.881   4.961   1.672
 6407W        W10151   8.124   7.080   9.958
 6408W        W10152   7.299   8.759  11.276
 6409W        W10153   1.890  10.008  11.955
 6410W        W10154   8.120   7.442   8.090
 6411W        W10155   4.617   8.488  10.837
 6412W        W10156   3.043   8.526   1.833
 6413W        W10157   9.782   6.517   2.694
 6414W        W10158   0.820   3.766  10.354
 6415W        W10159   1.378   6.747   1.279
 6416W        W10160   5.219   1.383   0.498
 6417W        W10161  10.412   4.161   0.293
 6418W        W10162   0.705   1.686  11.162
 6419W        W10163   3.667   4.623  10.268
 6420W        W10164   4.409   2.367   9.821
 6421W        W10165   3.935   2.275   3.102
 6422W        W10166   1.157   6.673  10.280
 6423W        W10167   8.789   7.989   8.836
 6424W        W10168   0.671   8.027   9.942
 6425W        W10169   8.487  10.018   9.245
 6426W        W10170   1.315   8.730   0.612
 6427W        W10171   5.542   2.862   8.674
 6428W        W10172   4.384   8.071   1.462
 6429W        W10173   8.257   3.244   2.959
 6430W        W10174  10.354   5.145   1.494
 6431W        W10175   3.557   1.838   1.709
 6432W        W10176   0.967   6.906  11.588
 6433W        W10177   8.327   2.150   0.797
 6434W        W10178   4.605   5.988  10.944
 6435W        W10179   8.308   8.891  11.354
 6436W        W10180   1.880   9.888   2.652
 6437W        W10181   7.190   1.357  10.797
 6438W        W10182   4.632   9.618   1.840
 6439W        W10183   7.614   0.048   2.685
 6440W        W10184   6.954   6.292   0.498
 6441W        W10185   2.978   6.443   0.236
 6442W        W10186   5.122   7.157   3.316
 6443W        W10187   4.257  10.319  10.938
 6444W        W10188   0.745  10.445   2.336
 6445W        W10189   5.345   8.803   2.912
 6446W        W10190   6.072   4.218   8.387
 6447W        W10191   3.334   0.531   9.075
 6448W        W10192   0.843   4.349   1.214
 6449W        W10193   1.685   1.348  11.865
 6450W        W10194   0.553   6.638  11.474
 6451W        W10195   0.498   2.432   9.476
 6452W        W10196   8.135  10.039  11.759
 6453W        W10197   5.128   2.856  10.430
 6454W        W10198  10.467   3.779  10.949
 6455W        W10199   8.051   1.942   1.391
 6456W        W10200   6.726   2.709  10.857
 6457W        W10201   2.299   8.081   0.946
 6458W        W10202   3.179   6.636  10.838
 6459W        W10203   1.875   8.989  11.375
 6460W        W10204   6.694   9.839  10.926
 6461W        W10205   4.243   2.012  11.578
 6462W        W10206   1.648   7.020   0.513
 6463W        W10207   8.964   3.134  11.538
 6464W        W10208   1.328   0.237   1.436
 6465W        W10209   4.675   3.586   3.947
 6466W        W10210   2.340   8.750  11.346
 6467W        W10211   2.804   2.356   1.937
 6468W        W10212   1.401   5.705   0.940
 6469W        W10213   9.132   4.159  10.020
 6470W        W10214   9.853   2.364   9.257
 6471W        W10215   0.558   2.739  10.522
 6472W        W10216   0.867   2.179   2.723
 6473W        W10217   0.943   5.709   2.230
 6474W        W10218   4.864   8.651   1.198
 6475W        W10219   7.576   0.462   1.749
 6476W        W10220   2.156   6.014   0.864
 6477W        W10221   9.336   6.870   9.461
 6478W        W10222   7.063   9.751   9.479
 6479W        W10223   3.244   5.774   1.427
 6480W        W10224   8.426   4.118   1.875
 6481W        W10225   2.296   0.936   9.157
 6482W        W10226   2.414   4.532  10.803
 6483W        W10227   1.796   9.504  11.866
 6484W        W10228   4.329   8.427   8.507
 6485W        W10229   6.039   2.559   2.728
 6486W        W10230   7.258   0.415  10.934
 6487W        W10231   0.169  10.264   1.408
 6488W        W10232   0.280  10.189   2.213
 6489W        W10233   1.319   4.767   0.670
 6490W        W10234   8.074   9.775   1.895
 6491W        W10235   8.890   2.995   1.953
 6492W        W10236   7.430   9.488   1.169
 6493W        W10237   6.268   9.626   9.549
 6494W        W10238   3.599   9.365   9.949
 6495W        W10239   1.668   2.463   1.376
 6496W        W10240   7.358   7.062   9.650
 6497W        W10241   4.238   7.464   9.470
 6498W        W10242   1.912   7.258   2.398
 6499W        W10243   6.449   7.412   0.925
 6500W        W10244   1.385   9.381   8.721
 6501W        W10245   4.610   4.142   1.702
 6502W        W10246   6.659   9.517   9.870
 6503W        W10247   0.505   5.528   3.247
 6504W        W10248   2.274  10.309  11.766
 6505W        W10249   6.035   1.383   1.447
 6506W        W10250   6.204   5.201   0.500
 6507W        W10251   5.292   6.100   8.233
 6508W        W10252   0.902   3.875  11.265
 6509W        W10253   3.072   7.579   1.393
 6510W        W10254   7.522   5.270  11.906
 6511W        W10255   5.724   1.291  11.280
 6512W        W10256   7.838   2.233   1.833
 6513W        W10257   4.497   7.702   3.236
 6514W        W10258   3.806   4.526  10.766
 6515W        W10259   9.543   5.653  10.642
 6516W        W10260   5.993   2.172   1.799
 6517W        W10261   2.133   7.469   8.989
 6518W        W10262   0.198   7.335   1.544
 6519W        W10263   2.001   6.037   0.350
 6520W        W10264   5.653   4.348  10.502
 6521W        W10265   2.237   8.202   3.101
 6522W        W10266   7.459   1.382   2.189
 6523W        W10267   2.387   3.263   8.890
 6524W        W10268   6.439   5.699   1.396
 6525W        W10269   5.085   9.970   0.425
 6526W        W10270   4.648   2.333   2.361
 6527W        W10271  10.056   9.544   0.694
 6528W        W10272   4.184   7.670   2.318
 6529W        W10273   8.972   6.712   9.777
 6530W        W10274   7.885   8.457  10.390
 6531W        W10275   8.142   3.659   1.915
 6532W        W10276   8.348   5.254  11.376
 6533W        W10277   3.296   2.295   1.808
 6534W        W10278   0.349   9.473  11.728
 6535W        W10279   5.967   3.310   0.428
 6536W        W10280   3.834   6.538   1.450
 6537W        W10281   5.586   7.545   2.370
 6538W        W10282   7.468   6.052   0.322
 6539W        W10283   6.563   9.857  10.272
 6540W        W10284   7.387   0.657   0.308
 6541W        W10285   0.836   7.341   1.741
 6542W        W10286   5.074   3.767   3.671
 6543W        W10287   1.015   9.497   0.841
 6544W        W10288   5.049   5.139   2.414
 6545W        W10289   5.155   6.548   3.149
 6546W        W10290   4.754   6.253  11.384
 6547W        W10291   9.156   7.414   3.880
 6548W        W10292  10.316   4.130  11.717
 6549W        W10293   3.587   2.701   8.997
 6550W        W10294   2.098   5.124   0.835
 6551W        W10295   7.018   0.638   3.519
 6552W        W10296   1.790   9.993   3.160
 6553W        W10297   6.702   1.713  11.452
 6554W        W10298   1.198   5.148  10.771
 6555W        W10299   9.899   0.799   2.690
 6556W        W10300   0.674   9.360   3.247
 6557W        W10301   6.093   9.167  10.491
 6558W        W10302   7.414   1.171   0.339
 6559W        W10303   9.919   2.676   1.313
 6560W        W10304   9.726   4.277   2.655
 6561W        W10305   9.074   6.534   1.653
 6562W        W10306   8.859   3.085   2.953
 6563W        W10307   3.706   2.279   9.239
 6564W        W10308   1.283   6.261   9.960
 6565W        W10309   0.269  10.019   2.704
 6566W        W10310   8.901   0.767   8.483
 6567W        W10311   8.497   3.187  11.379
 6568W        W10312  10.372   0.397  10.479
 6569W        W10313   5.085   5.107   2.925
 6570W        W10314   6.473   0.832   9.826
 6571W        W10315   9.408   9.026   9.234
 6572W        W10316   8.953   5.530  10.259
 6573W        W10317  10.485   7.158  11.728
 6574W        W10318   3.869   1.893   2.165
 6575W        W10319   4.403   8.216   3.189
 6576W        W10320   7.952   8.386   1.202
 6577W        W10321   5.584   2.768   2.927
 6578W        W10322   5.181   4.018  11.256
 6579W        W10323   7.980   7.890   0.350
 6580W        W10324   7.172   9.678  11.020
 6581W        W10325   7.595   4.961   2.756
 6582W        W10326   5.687  10.419   9.437
 6583W        W10327   0.055   7.667   1.112
 6584W        W10328   6.205   1.576  11.499
 6585W        W10329   0.486   9.287   9.658
 6586W        W10330   0.475  10.390   1.785
 6587W        W10331   5.657   2.297   3.442
 6588W        W10332   8.368   4.950   3.487
 6589W        W10333   0.810   4.853   1.014
 6590W        W10334   4.602   1.331   3.145
 6591W        W10335   5.494   0.858   9.011
 6592W        W10336   5.124   7.560   4.033
 6593W        W10337   6.132   1.939   2.281
 6594W        W10338   2.210   2.387   2.773
 6595W        W10339   5.281   1.881   3.387
 6596W        W10340   8.673   6.931   0.197
 6597W        W10341   9.473   0.457   2.832
 6598W        W10342   9.395   3.083  11.785
 6599W        W10343   0.901   4.211   8.409
 6600W        W10344   4.792   5.606   0.795
 6601W        W10345   2.366   8.078   9.289
 6602W        W10346   4.990   5.628   2.155
 6603W        W10347  10.025   7.903  11.722
 6604W        W10348  10.238   8.656   8.721
 6605W        W10349   6.690   8.072   0.998
 6606W        W10350   1.296   9.459   9.752
 6607W        W10351   0.659   4.337  10.357
 6608W        W10352   5.636   3.122   4.072
 6609W        W10353   1.489   6.302  10.453
 6610W        W10354   8.186   4.182   8.159
 6611W        W10355   6.916   4.797  11.370
 6612W        W10356   0.058   8.831   1.214
 6613W        W10357   7.675   4.107   8.850
 6614W        W10358   9.023   5.257   1.471
 6615W        W10359   0.911   9.323   8.925
 6616W        W10360   6.937   8.862   2.345
 6617W        W10361   3.077   3.714   8.783
 6618W        W10362   4.131   2.631  10.143
 6619W        W10363   4.356   1.903   2.341
 6620W        W10364   0.310   9.074   2.977
 6621W        W10365   1.834   4.119  11.237
 6622W        W10366   9.297   7.041   0.953
 6623W        W10367   6.116   0.413   1.978
 6624W        W10368   7.475   3.772   1.202
 6625W        W10369   0.782   8.113   1.536
 6626W        W10370   5.591   3.854  10.509
 6627W        W10371  10.281   8.696   9.238
 6628W        W10372   8.093  10.336   2.758
 6629W        W10373   2.331   5.273   9.146
 6630W        W10374   8.555   6.118  11.829
 6631W        W10375   4.783   7.955   1.838
 6632W        W10376   2.343   5.061   8.651
 6633W        W10377   0.323   2.132  10.299
 6634W        W10378   6.421   6.526   9.376
 6635W        W10379   6.102  10.192  10.402
 6636W        W10380   8.884   0.375   9.657
 6637W        W10381   1.892   7.855   3.232
 6638W        W10382   2.621   6.060   2.384
 6639W        W10383   5.215   2.894   1.121
 6640W        W10384   2.802   1.510  11.199
 6641W        W10385   3.490   1.034  10.959
 6642W        W10386   5.529   3.843   3.455
 6643W        W10387  10.066   3.406  11.790
 6644W        W10388   3.085   8.994   1.241
 6645W        W10389   1.688   8.039  10.994
 6646W        W10390   8.766   5.989  10.454
 6647W        W10391   7.984   5.896  10.000
 6648W        W10392   3.524   1.920  11.030
 6649W        W10393   5.274   9.045   3.408
 6650W        W10394   9.338   9.875  11.642
 6651W        W10395   4.971   9.712   9.496
 6652W        W10396   3.389   5.947  11.344
 6653W        W10397   8.497   0.995  10.014
 6654W        W10398   5.252   2.631  10.923
 6655W        W10399   7.973   9.882   1.347
 6656W        W10400   4.872   7.802   2.769
 6657W        W10401   1.420   1.334  10.785
 6658W        W10402   4.214   8.701   2.264
 6659W        W10403   6.513   2.741   0.396
 6660W        W10404   2.235   5.623  10.950
 6661W        W10405   5.997   5.161  10.640
 6662W        W10406   1.469   9.732   0.848
 6663W        W10407   7.356   2.845   3.225
 6664W        W10408   1.904   5.399   1.247
 6665W        W10409   4.600   9.456  11.438
 6666W        W10410  10.099   0.008  10.977
 6667W        W10411   7.419   0.329  11.801
 6668W        W10412   3.687   5.858  10.941
 6669W        W10413   0.783   0.820   1.773
 6670W        W10414   3.969   1.817   2.678
 6671W        W10415  10.072   3.639   9.396
 6672W        W10416   9.446   6.007  11.756
 6673W        W10417   4.011   0.093   0.432
 6674W        W10418   7.953   9.227   1.852
 6675W        W10419   7.490   3.558  11.477
 6676W        W10420   6.202   4.654   2.610
 6677W        W10421  10.235   7.478   1.452
 6678W        W10422   8.032   1.305  10.629
 6679W        W10423   6.707   3.883   2.790
 6680W        W10424   2.584   9.916  10.496
 6681W        W10425   9.425   2.045   9.616
 6682W        W10426   0.213   0.648   1.839
 6683W        W10427   8.927   6.072   1.849
 6684W        W10428   4.609   5.968   9.842
 6685W        W10429   7.046   6.035   2.606
 6686W        W10430   1.452   6.245   9.481
 6687W        W10431   2.830   1.861   2.182
 6688W        W10432   7.320   2.333  10.273
 6689W        W10433   3.354   6.324  10.474
 6690W        W10434   0.805   4.089  10.773
 6691W        W10435   9.654   5.900   9.083
 6692W        W10436   8.557   6.582   2.851
 6693W        W10437   2.136   0.465   1.810
 6694W        W10438   9.403  10.286   1.641
 6695W        W10439   9.811   8.146   1.213
 6696W        W10440   6.334   9.117   9.623
 6697W        W10441   3.205   8.786   8.732
 6698W        W10442   1.749   2.663   2.754
 6699W        W10443   9.329   8.492   0.765
 6700W        W10444   4.286   0.208   3.226
 6701W        W10445   2.213   5.249   2.393
 6702W        W10446   1.768   0.697   9.821
 6703W        W10447   3.053   2.292  11.611
 6704W        W10448   2.553   4.025   8.487
 6705W        W10449   8.014   9.582  11.930
 6706W        W10450   5.050   0.796  10.395
 6707W        W10451   9.282   3.027   2.297
 6708W        W10452   1.501   8.438   9.737
 6709W        W10453   2.697   4.189   1.008
 6710W        W10454  10.391   1.275   9.500
 6711W        W10455   7.143   0.237   2.623
 6712W        W10456   1.384   6.975  11.231
 6713W        W10457   5.894   5.736   1.958
 6714W        W10458   2.722   7.016   1.335
 6715W        W10459   2.189   1.439  10.459
 6716W        W10460   4.942   4.584  11.961
 6717W        W10461   4.250   3.295   9.496
 6718W        W10462   8.045   0.180  10.071
 6719W        W10463   8.972   8.396   1.557
 6720W        W10464   6.669   2.743   1.460
 6721W        W10465   4.377   8.765   0.372
 6722W        W10466   2.350   9.027   2.525
 6723W        W10467   1.262   0.934   1.622
 6724W        W10468   7.131   5.702  11.110
 6725W        W10469   8.347   2.361   3.039
 6726W        W10470  10.139  10.432   9.331
 6727W        W10471   1.195   9.527   2.614
 6728W        W10472   2.632   2.856   9.897
 6729W        W10473   3.340   7.649  10.793
 6730W        W10474   0.982   1.067   9.756
 6731W        W10475   3.877   8.712   0.429
 6732W        W10476   6.081  10.191  11.829
 6733W        W10477   5.234   9.052   2.479
 6734W        W10478   5.177   2.375   2.240
 6735W        W10479   7.076   6.219   1.819
 6736W        W10480   1.339   0.249   3.292
 6737W        W10481   4.987   7.630   3.530
 6738W        W10482   5.210   5.679   9.818
 6739W        W10483   7.676   3.295   3.624
 6740W        W10484  10.167   0.293   2.157
 6741W        W10485   6.510   9.264   1.558
 6742W        W10486   5.093   9.976   9.950
 6743W        W10487   3.770   0.513   1.469
 6744W        W10488   5.727   5.051  11.997
 6745W        W10489   4.206   1.905   9.750
 6746W        W10490   8.053   5.239   0.686
 6747W        W10491   2.177   4.287   8.961
 6748W        W10492   7.052   3.306   9.909
 6749W        W10493   7.022   0.582   9.108
 6750W        W10494   5.646   7.335  10.097
 6751W        W10495   5.922   0.882  11.005
 6752W        W10496   4.979   7.062   8.537
 6753W        W10497   1.776   0.450   3.503
 6754W        W10498   5.529   5.998  11.882
 6755W        W10499   7.476   5.914   9.869
 6756W        W10500   9.245   4.186   9.107
 6757W        W10501   4.773   2.772   3.633
 6758W        W10502   5.146   5.103   3.436
 6759W        W10503   3.419   3.314   0.314
 6760W        W10504   0.883   4.577   9.964
 6761W        W10505   2.824   6.167   9.981
 6762W        W10506   8.295   5.066  10.527
 6763W        W10507   2.335   9.460   1.115
 6764W        W10508   6.214   0.847   3.177
 6765W        W10509   7.950   4.064   1.645
 6766W        W10510   1.755   7.412   3.517
 6767W        W10511   8.917   8.977   9.124
 6768W        W10512   5.129   4.018   1.882
 6769W        W10513  10.259   0.048  11.858
 6770W        W10514   7.927   6.106   0.520
 6771W        W10515   1.868   4.664   1.894
 6772W        W10516   9.923   8.588   2.011
 6773W        W10517   0.593   5.485   9.331
 6774W        W10518   4.040   2.765  10.995
 6775W        W10519   4.716   1.540   9.428
 6776W        W10520   8.741   0.013  10.030
 6777W        W10521   1.362   5.913   9.079
 6778W        W10522   0.422   3.979  11.464
 6779W        W10523   1.310   7.507   1.672
 6780W        W10524   8.032   2.791   9.235
 6781W        W10525   4.943   1.007  10.848
 6782W        W10526   4.091  10.415  10.446
 6783W        W10527   2.688   2.888   1.763
 6784W        W10528   3.215   3.625   9.292
 6785W        W10529   3.736   3.079   2.717
 6786W        W10530   6.585   8.004  10.771
 6787W        W10531   0.313   5.038   2.360
 6788W        W10532   7.028   6.453   2.277
 6789W        W10533   8.313   8.424  10.096
 6790W        W10534   0.420   3.746   9.043
 6791W        W10535   9.706   2.320  10.809
 6792W        W10536   2.226   2.941  10.197
 6793W        W10537   0.726   4.877  11.339
 6794W        W10538   2.254   1.942   2.545
 6795W        W10539   0.998   5.456   2.698
 6796W        W10540   3.600   5.356   1.296
 6797W        W10541   5.657   0.492   8.669
 6798W        W10542   5.645   0.385  10.170
 6799W        W10543   5.552   7.990   0.774
 6800W        W10544   5.239   0.780   1.164
 6801W        W10545   1.263   4.664   1.176
 6802W        W10546   1.464   6.597   0.789
 6803W        W10547   5.603   8.566   9.157
 6804W        W10548   4.310   2.206   2.761
 6805W        W10549   9.583   5.129  11.836
 6806W        W10550   0.703   0.320   0.966
 6807W        W10551   9.469   1.400   0.620
 6808W        W10552   6.440   3.679   9.415
 6809W        W10553   5.028   8.183   2.382
 6810W        W10554   9.532   1.414   3.024
 6811W        W10555   3.290   7.397   0.727
 6812W        W10556   7.968   3.837   8.517
 6813W        W10557   5.776   1.784   3.551
 6814W        W10558   8.451   0.823  10.545
 6815W        W10559   0.193   2.046   9.358
 6816W        W10560   3.829   7.595   8.918
 6817W        W10561   0.977   6.591  11.197
 6818W        W10562   6.361   8.784   1.669
 6819W        W10563   7.035   8.154  11.029
 6820W        W10564   0.356   9.779   9.597
 6821W        W10565   8.364   4.588   9.872
 6822W        W10566   2.096  10.382   2.724
 6823W        W10567   5.551   1.665  10.030
 6824W        W10568   0.423  10.493   3.140
 6825W        W10569   5.068   7.462   0.067
 6826W        W10570   2.654  10.345   9.487
 6827W        W10571   3.743   7.157   0.337
 6828W        W10572   4.037   5.685   1.378
 6829W        W10573   4.059   5.798   0.551
 6830W        W10574   1.398   0.418   8.654
 6831W        W10575   4.743   8.578   3.046
 6832W        W10576   9.048   5.374   2.346
 6833W        W10577   4.741   6.471   9.915
 6834W        W10578   8.487   9.847   1.535
 6835W        W10579   1.360   4.707   2.687
 6836W        W10580   1.673   5.506  10.184
 6837W        W10581   6.362   4.641   1.004
 6838W        W10582   3.014   7.692   8.156
 6839W        W10583   7.358   6.187   1.282
 6840W        W10584   6.895   1.297   9.329
 6841W        W10585   0.867   8.815  11.391
 6842W        W10586   3.067   0.303  11.336
 6843W        W10587   5.109   5.217  10.602
 6844W        W10588   3.496   0.025   2.318
 6845W        W10589   3.682  10.355   1.251
 6846W        W10590   8.989   2.723   9.726
 6847W        W10591   7.054   9.421   0.349
 6848W        W10592   7.668   8.379   1.916
 6849W        W10593   2.837   6.410   0.720
 6850W        W10594   5.738   0.921   3.524
 6851W        W10595   3.167   5.523   9.260
 6852W        W10596   6.199   3.464  10.345
 6853W        W10597   2.166   6.301   2.349
 6854W        W10598   6.481   9.725   0.603
 6855W        W10599   1.844   3.688   3.178
 6856W        W10600   2.668   9.997   0.422
 6857W        W10601   1.778   0.905  10.806
 6858W        W10602   4.172   1.433   1.286
 6859W        W10603   3.472   9.048  11.612
 6860W        W10604   1.067   2.742  10.698
 6861W        W10605   0.789   6.035   9.007
 6862W        W10606   0.530   8.708   0.454
 6863W        W10607   7.727   7.876   1.872
 6864W        W10608   8.901   9.348   2.982
 6865W        W10609   6.304   7.549   2.144
 6866W        W10610   0.398   6.382   1.302
 6867W        W10611   9.804   4.932   0.255
 6868W        W10612  10.246  10.054  10.390
 6869W        W10613   6.486   3.190   0.042
 6870W        W10614   0.688   1.298   2.334
 6871W        W10615   6.943   2.202   2.704
 6872W        W10616   6.717   5.226   2.170
 6873W        W10617   7.942   8.409   8.781
 6874W        W10618   3.222   4.470   0.776
 6875W        W10619   0.760   6.296   0.380
 6876W        W10620   1.507   2.448   0.601
 6877W        W10621   7.078   4.729   8.624
 6878W        W10622   6.821   7.084  10.434
 6879W        W10623   1.361   6.398   8.986
 6880W        W10624   2.339   8.985   2.010
 6881W        W10625   9.835   4.250   1.247
 6882W        W10626   9.564   8.478   9.932
 6883W        W10627   8.819   0.421  11.116
 6884W        W10628   2.087   6.899  10.510
 6885W        W10629   3.861   5.722  11.424
 6886W        W10630   1.988   7.637  10.890
 6887W        W10631   9.858   8.366   0.744
 6888W        W10632   4.486   4.522   1.996
 6889W        W10633   4.920  10.444   2.503
 6890W        W10634   9.729   7.930   9.823
 6891W        W10635   7.697   1.334  11.937
 6892W        W10636   7.574   9.123  10.256
 6893W        W10637  10.399   2.497   1.417
 6894W        W10638   0.486   0.710  10.455
 6895W        W10639   2.123   6.467   0.103
 6896W        W10640   4.164   9.777   1.954
 6897W        W10641   7.999   8.852  10.087
 6898W        W10642   2.249   6.903  11.499
 6899W        W10643   7.072   4.498   2.434
 6900W        W10644   4.679   4.109   2.720
 6901W        W10645   8.969   0.348   2.764
 6902W        W10646   9.037   1.844   1.185
 6903W        W10647   9.429   2.740  10.902
 6904W        W10648   0.366   7.116  11.395
 6905W        W10649   7.004   3.625   1.057
 6906W        W10650   2.998   0.261   8.768
 6907W        W10651   9.849   9.938   2.409
 6908W        W10652   9.598   8.152   9.365
 6909W        W10653   5.026   4.111   1.407
 6910W        W10654   9.704   9.236   0.862
 6911W        W10655   6.518   1.238   0.387
 6912W        W10656   1.424   7.365   0.152
 6913W        W10657  10.114   9.069   2.160
 6914W        W10658  10.417   6.930   1.698
 6915W        W10659   2.543   0.496   8.960
 6916W        W10660   0.417   1.190   1.822
 6917W        W10661   3.322   7.584  11.786
 6918W        W10662   8.770   0.791   2.361
 6919W        W10663   4.088   4.537   3.212
 6920W        W10664   8.774   1.173   3.586
 6921W        W10665   2.805   5.557   1.246
 6922W        W10666   8.479   6.196  10.832
 6923W        W10667   9.425   7.499   1.754
 6924W        W10668   1.663   5.073  10.459
 6925W        W10669   5.561   2.264  11.693
 6926W        W10670   2.709  10.418  10.021
 6927W        W10671   9.058   9.018   9.640
 6928W        W10672   7.234   4.106   3.783
 6929W        W10673   3.882   1.046  11.422
 6930W        W10674   2.621   1.628  10.713
 6931W        W10675   0.661   5.829   2.838
 6932W        W10676   7.621   9.132   1.498
 6933W        W10677   5.960   9.934   8.618
 6934W        W10678   6.828   6.150   3.089
 6935W        W10679   6.396   2.331   9.354
 6936W        W10680   6.330   4.346  10.032
 6937W        W10681   7.163   0.922  10.491
 6938W        W10682   7.898   0.847  11.233
 6939W        W10683   3.109   3.211   1.166
 6940W        W10684   8.351   1.390   1.695
 6941W        W10685   9.115   0.789  11.929
 6942W        W10686   7.895   1.250   0.988
 6943W        W10687   5.324   5.675   0.679
 6944W        W10688   4.557   5.152   0.623
 6945W        W10689   9.675   3.174  10.675
 6946W        W10690   3.868   4.915   1.366
 6947W        W10691   8.815   0.405  11.622
 6948W        W10692   2.582   2.481   1.320
 6949W        W10693   9.443  10.032   1.180
 6950W        W10694   5.260   7.004  11.990
 6951W        W10695   5.841   6.785   3.706
 6952W        W10696   9.434   2.960   9.910
 6953W        W10697   9.041   4.060  11.876
 6954W        W10698   6.918   2.423   0.767
 6955W        W10699   4.863   2.109   1.937
 6956W        W10700   2.511   8.327   8.254
 6957W        W10701  10.001   6.868  10.914
 6958W        W10702   1.752   7.678   1.514
 6959W        W10703   2.836   9.931  10.932
 6960W        W10704   1.119   7.183   1.344
 6961W        W10705   1.928   7.447   0.418
 6962W        W10706  10.195   3.146  10.345
 6963W        W10707   4.587   1.648  11.524
 6964W        W10708   3.564   6.354  11.030
 6965W        W10709   7.214   6.582   8.875
 6966W        W10710   2.359   8.727   0.407
 6967W        W10711   0.271   9.691   2.297
 6968W        W10712   2.330   7.467   0.759
 6969W        W10713   0.184   2.682  11.807
 6970W        W10714   6.037   8.199  11.991
 6971W        W10715   9.320   1.741  11.333
 6972W        W10716   5.008   0.517  10.950
 6973W        W10717   9.765   6.860   8.642
 6974W        W10718   1.697   7.855   0.266
 6975W        W10719   7.953   9.841   2.423
 6976W        W10720   4.772   1.638   8.377
 6977W        W10721  10.004   1.435   1.722
 6978W        W10722   6.432   8.015   9.813
 6979W        W10723  10.434   5.622  10.502
 6980W        W10724   7.087   9.920   1.269
 6981W        W10725   3.056   4.613   9.011
 6982W        W10726   5.313   2.867   2.078
 6983W        W10727   1.210   8.004   0.858
 6984W        W10728   8.961   3.955   2.868
 6985W        W10729   1.268   1.945  11.334
 6986W        W10730   7.079   1.169   2.466
 6987W        W10731   6.034   1.586   2.766
 6988W        W10732   5.736   9.070   3.124
 6989W        W10733   0.479   3.083   0.738
 6990W        W10734   8.593   2.261   1.539
 6991W        W10735   4.382   1.204  11.971
 6992W        W10736   8.945   6.999   8.940
 6993W        W10737   5.197   3.087   3.045
 6994W        W10738   5.811   1.404  11.782
 6995W        W10739   3.275   6.645   1.080
 6996W        W10740   0.431   7.593  10.050
 6997W        W10741   8.944   7.828   1.232
 6998W        W10742   0.539   0.884   3.190
 6999W        W10743   7.062   1.749   2.471
 7000W        W10744   0.174   9.922  11.417
 7001W        W10745   0.779   4.163   0.212
 7002W        W10746  10.474   2.915   2.123
 7003W        W10747   8.056   3.741  10.305
 7004W        W10748   7.087  10.389  10.446
 7005W        W10749   7.947   5.656  10.731
 7006W        W10750   7.675   3.590   0.352
 7007W        W10751   9.827   7.870   0.705
 7008W        W10752   3.277   9.276   0.277
 7009W        W10753   0.017   3.219  11.866
 7010W        W10754   9.499  10.033   0.274
 7011W        W10755   3.160   4.604   8.163
 7012W        W10756   3.393   4.484   3.151
 7013W        W10757   0.957   3.793   2.795
 7014W        W10758   9.158  10.326   9.792
 7015W        W10759   2.606   6.486   1.661
 7016W        W10760   1.394   9.780   1.375
 7017W        W10761   4.263   0.481   2.239
 7018W        W10762   9.997   6.700   1.419
 7019W        W10763   4.948   7.130   3.793
 7020W        W10764   3.843   9.042  11.239
 7021W        W10765   4.603   0.905   2.269
 7022W        W10766   0.678   9.993   9.973
 7023W        W10767   3.173   7.161  10.825
 7024W        W10768   5.779   4.664  10.899
 7025W        W10769   7.328   0.854   1.110
 7026W        W10770   4.682   6.476   0.796
 7027W        W10771   5.425   5.418   0.217
 7028W        W10772  10.329   0.804  10.188
 7029W        W10773   6.937  10.261   9.468
 7030W        W10774   3.791   1.453  10.890
 7031W        W10775   9.888   4.072   0.391
 7032W        W10776   2.844   6.665   9.810
 7033W        W10777   2.365   8.526  10.886
 7034W        W10778   9.809   3.587   0.764
 7035W        W10779   5.174   9.823   2.972
 7036W        W10780   9.211   7.454   3.384
 7037W        W10781   4.718   3.628   2.957
 7038W        W10782   9.840   6.376  10.928
 7039W        W10783   2.704   1.664   2.635
 7040W        W10784   0.364   3.594  10.091
 7041W        W10785   7.543   4.450   2.670
 7042W        W10786   2.162   2.901   2.043
 7043W        W10787   1.572   3.675   1.385
 7044W        W10788   8.980   8.352  10.833
 7045W        W10789   1.782   3.148  10.458
 7046W        W10790   7.273   3.357   3.279
 7047W        W10791   1.861   8.875   9.584
 7048W        W10792   7.359   4.537  11.516
 7049W        W10793   2.221   5.550   1.910
 7050W        W10794   8.083   1.583  11.056
 7051W        W10795   2.651   4.668  10.023
 7052W        W10796   2.936  10.229   1.689
 7053W        W10797   8.968   1.799   9.834
 7054W        W10798   6.073   3.319   9.409
 7055W        W10799  10.001   0.365   9.009
 7056W        W10800   6.200   0.642   3.633
 7057W        W10801  10.329   1.387  10.474
 7058W        W10802   3.582   9.944  11.526
 7059W        W10803   5.008   9.954  11.207
 7060W        W10804   7.569   5.034   1.854
 7061W        W10805   8.680   3.678   9.044
 7062W        W10806   6.261   0.871  10.399
 7063W        W10807   2.516   4.032   9.420
 7064W        W10808   8.516   3.365  11.995
 7065W        W10809   3.790   0.267   3.033
 7066W        W10810   9.729   0.356  10.788
 7067W        W10811   6.939   5.984  10.640
 7068W        W10812   0.895   3.833   1.897
 7069W        W10813   8.135   4.625  10.325
 7070W        W10814   1.234   3.825   2.336
 7071W        W10815   6.996   8.316   9.756
 7072W        W10816  10.045   1.823  10.440
 7073W        W10817  10.265   6.001   1.756
 7074W        W10818   5.873   0.699   2.800
 7075W        W10819   0.979   8.968   3.469
 7076W        W10820   4.074   4.093  10.799
 7077W        W10821   4.702   8.612   1.688
 7078W        W10822  10.456   3.728   3.205
 7079W        W10823   1.661   1.959   1.475
 7080W        W10824   6.627   6.207   4.036
 7081W        W10825   8.617   1.736   0.895
 7082W        W10826   0.170   0.841   0.569
 7083W        W10827   1.001   4.669   0.267
 7084W        W10828   0.170   2.179   2.299
 7085W        W10829   1.800   7.149  10.888
 7086W        W10830   8.930   7.478  10.330
 7087W        W10831   8.554   2.132  11.479
 7088W        W10832   6.548   0.978  11.943
 7089W        W10833   9.684   8.953  11.104
 7090W        W10834   2.792   9.569  11.671
 7091W        W10835   7.801   6.588   0.658
 7092W        W10836   8.496   3.707  11.540
 7093W        W10837   0.376   5.027   1.359
 7094W        W10838   3.625   4.090  11.028
 7095W        W10839   6.165   7.048  10.955
 7096W        W10840   0.798   2.185   1.727
 7097W        W10841   2.383   3.790   1.688
 7098W        W10842   0.606   1.901   3.453
 7099W        W10843   8.390   7.414  11.434
 7100W        W10844   7.586   3.775   2.056
 7101W        W10845   6.606   1.224  11.506
 7102W        W10846   2.770   7.346   2.881
 7103W        W10847   0.621   4.603  10.794
 7104W        W10848   0.792   0.947   8.728
 7105W        W10849   6.257   4.947   0.041
 7106W        W10850   3.961   2.092  11.993
 7107W        W10851   2.961  10.335   3.141
 7108W        W10852   5.830   0.481   3.258
 7109W        W10853   2.187   8.687   8.448
 7110W        W10854   1.479   1.224   3.197
 7111W        W10855   0.153   8.944  10.904
 7112W        W10856   1.077   0.894   3.128
 7113W        W10857   3.279   4.154   8.977
 7114W        W10858   8.615   1.347   0.359
 7115W        W10859   6.595   6.523   0.895
 7116W        W10860   7.401   2.260  10.864
 7117W        W10861   3.411  10.281   1.853
 7118W        W10862   9.347   1.827   0.257
 7119W        W10863   6.263   7.857   0.795
 7120W        W10864   2.699   0.562   0.213
 7121W        W10865   5.765   4.927   0.484
 7122W        W10866   6.407   8.987  10.981
 7123W        W10867   6.257   0.365   9.941
 7124W        W10868   3.119   9.305  11.386
 7125W        W10869   6.522  10.400   9.125
 7126W        W10870   6.845   4.345  10.085
 7127W        W10871  10.067   2.164   8.758
 7128W        W10872   7.565   2.225   9.295
 7129W        W10873   1.316   7.962   9.048
 7130W        W10874   8.595   1.282   8.952
 7131W        W10875   7.879   3.848   9.263
 7132W        W10876   4.278   1.803   9.244
 7133W        W10877  10.407   4.841   3.624
 7134W        W10878   9.996   1.870   2.479
 7135W        W10879   2.569   9.007   1.170
 7136W        W10880   3.700   7.588  10.285
 7137W        W10881   8.403   3.725   9.935
 7138W        W10882   2.858   2.400   9.854
 7139W        W10883  10.330   1.591   8.641
 7140W        W10884   6.579   1.948   2.038
 7141W        W10885   4.087   7.815   0.324
 7142W        W10886   0.811   3.283   8.985
 7143W        W10887   3.580   5.508   9.869
 7144W        W10888   1.757  10.391   9.502
 7145W        W10889   9.907   0.171   0.836
 7146W        W10890   6.005   0.908   8.571
 7147W        W10891   7.262   7.758  11.964
 7148W        W10892   6.751   2.697   2.307
 7149W        W10893   3.683   0.824  10.536
 7150W        W10894   2.330   8.146   3.587
 7151W        W10895   8.326   3.675   9.428
 7152W        W10896   7.910   3.235   2.110
 7153W        W10897   0.939   3.192   1.805
 7154W        W10898   7.438   8.634  10.508
 7155W        W10899   0.816   0.631   9.582
 7156W        W10900   9.084   1.940  10.319
 7157W        W10901   9.101   9.294   1.386
 7158W        W10902   4.332   2.896  10.519
 7159W        W10903   8.586   1.251   1.255
 7160W        W10904   6.965   2.641   3.506
 7161W        W10905   4.134   6.122   9.634
 7162W        W10906   2.307  10.324  11.260
 7163W        W10907   2.936   3.264   9.938
 7164W        W10908   9.034   1.267  11.720
 7165W        W10909   1.859   0.182  10.541
 7166W        W10910   1.108   2.620   3.503
 7167W        W10911   9.539   2.614  11.978
 7168W        W10912   7.117   4.196   2.860
 7169W        W10913   0.688   6.029  10.724
 7170W        W10914   6.540   1.935  11.915
 7171W        W10915   2.639   4.080  10.927
 7172W        W10916   8.287   6.966   2.624
 7173W        W10917   0.947   8.500   0.918
 7174W        W10918   1.414   0.275   9.537
 7175W        W10919   1.536   5.065   9.337
 7176W        W10920   4.079   4.358   0.571
 7177W        W10921   4.204   8.350   3.640
 7178W        W10922   6.451   6.089   9.766
 7179W        W10923   8.107   2.103   9.988
 7180W        W10924   3.215   8.971   2.461
 7181W        W10925   7.914   0.167   3.472
 7182W        W10926   3.102   3.732   9.999
 7183W        W10927   4.025  10.213  11.414
 7184W        W10928   1.165   5.941   2.890
 7185W        W10929   0.936   1.286   1.897
 7186W        W10930   8.823   8.555   9.449
 7187W        W10931   4.295   6.628   2.903
 7188W        W10932   7.538   6.081   8.864
 7189W        W10933   0.695   1.959   9.364
 7190W        W10934   3.791   0.965   1.761
 7191W        W10935   7.021   0.142   2.134
 7192W        W10936   5.825   2.902   2.073
 7193W        W10937   9.829   8.848   0.063
 7194W        W10938   1.812  10.170  10.502
 7195W        W10939   3.118   2.289   2.352
 7196W        W10940   0.667   1.351   0.057
 7197W        W10941   2.142   2.400   0.638
 7198W        W10942   7.459   4.138   9.332
 7199W        W10943   3.363   0.752  11.384
 7200W        W10944   2.612  10.392   2.617
 7201W        W10945   0.016   5.553   9.047
 7202W        W10946   4.964   1.700   2.981
 7203W        W10947   3.932   4.488   0.102
 7204W        W10948   9.327   4.537   2.383
 7205W        W10949   9.219  10.129  10.373
 7206W        W10950   9.371   0.917   0.403
 7207W        W10951   1.233   2.755   9.287
 7208W        W10952   2.591   4.217   1.929
 7209W        W10953   3.093   5.587   9.755
 7210W        W10954   2.846   8.999   9.500
 7211W        W10955   5.535   6.031  10.757
 7212W        W10956   7.726   7.823   9.819
 7213W        W10957   3.082   2.725   8.862
 7214W        W10958   5.042  10.397   8.723
 7215W        W10959   6.507  10.464   0.008
 7216W        W10960   3.827   3.166   9.759
 7217W        W10961   7.824   6.473   0.168
 7218W        W10962   6.055   2.187   8.463
 7219W        W10963   3.217   3.199  11.048
 7220W        W10964   4.743  10.150   9.366
 7221W        W10965   4.113   7.037   9.783
 7222W        W10966  10.271   9.904   2.711
 7223W        W10967   4.094   2.639   1.870
 7224W        W10968   0.510   0.859   2.199
 7225W        W10969   1.355   1.460   0.742
 7226W        W10970   2.020   1.780   1.791
 7227W        W10971   3.765  10.103   2.162
 7228W        W10972   5.636   4.865  11.373
 7229W        W10973   9.850   7.725   2.253
 7230ION    NA+10974   7.966   6.999   9.048
 7231ION    NA+10975   8.837  10.447  11.960
 7232ION    NA+10976   0.381   6.609   3.616
 7233ION    NA+10977   6.665   1.815   3.032
 7234ION    NA+10978  10.494   3.694  11.500
 7235ION    NA+10979   1.382   8.621   2.968
 7236ION    NA+10980   9.973   6.482   0.957
 7237ION    NA+10981   4.878   0.338   9.415
 7238ION    NA+10982   2.961   4.706   0.192
 7239ION    NA+10983  10.426   0.570   8.819
 7240ION    NA+10984   7.330   4.567   8.183
 7241ION    NA+10985   0.189   9.073   9.267
 7242ION    NA+10986   5.270   7.108  11.041
 7243ION    NA+10987   5.219   3.074   9.039
 7244ION    NA+10988   6.370   8.923  10.109
 7245ION    NA+10989   1.441   6.737   9.808
 7246ION    NA+10990   4.063   1.981  11.062
 7247ION    NA+10991   1.584   0.266   0.943
 7248ION    NA+10992   2.745   0.355  10.823
 7249ION    NA+10993   2.328   2.510   1.773
 7250ION    NA+10994   9.419   0.142   2.031
 7251ION    NA+10995   0.480   7.714   1.366
 7252ION    NA+10996   7.723   0.942   3.834
 7253ION    NA+10997   7.909   3.753   9.769
 7254ION    NA+10998   0.221   5.325  10.822
 7255ION    NA+10999   3.813   4.783  11.206
 7256ION    NA+11000   7.045   1.981   0.520
 7257ION    NA+11001   3.614   9.292   2.407
 7258ION    NA+11002   6.625   3.529   1.874
 7259ION    NA+11003   3.234   6.561   9.454
 7260ION    NA+11004   1.627   4.984   1.363
 7261ION    NA+11005  10.441  10.350   2.947
 7262ION    NA+11006   2.675   1.980  11.110
 7263ION    NA+11007   7.065  10.043   9.038
 7264ION    NA+11008   9.359   3.277   0.787
 7265ION    NA+11009   1.693   1.797  11.065
 7266ION    NA+11010   1.732   2.982   9.174
 7267ION    NA+11011   4.530   6.800   9.590
 7268ION    NA+11012   1.781   7.153  11.537
 7269ION    NA+11013   3.846   0.948   0.619
 7270ION    NA+11014   0.294   9.153   0.331
 7271ION    NA+11015   9.396   1.465  10.444
 7272ION    NA+11016   7.584   2.112  11.348
 7273ION    NA+11017   9.588   5.183   3.464
 7274ION    NA+11018   4.531   5.167   0.091
 7275ION    NA+11019   0.923   5.401   0.121
 7276ION    NA+11020  10.111   9.628   9.528
 7277ION    NA+11021   3.315   6.688   2.581
 7278ION    NA+11022   2.718   9.344   1.945
 7279ION    NA+11023   5.915   9.127  10.976
 7280ION    NA+11024   4.947   3.285   8.100
 7281ION    NA+11025   5.382   4.868   1.641
 7282ION    NA+11026   9.643   3.715  11.127
 7283ION    NA+11027   0.238   5.148   1.855
 7284ION    NA+11028   1.151  10.070  11.628
 7285ION    NA+11029   1.714   0.400  10.994
 7286ION    NA+11030   4.110   8.146   1.028
 7287ION    NA+11031   5.113   2.391   1.202
 7288ION    NA+11032   1.075   9.015  11.844
 7289ION    NA+11033   0.369   8.128   2.773
 7290ION    NA+11034   6.298   9.624   1.884
 7291ION    NA+11035   4.978   4.748   0.888
 7292ION    NA+11036   0.674   0.772   0.745
 7293ION    NA+11037   1.360   9.752   3.367
 7294ION    NA+11038   3.812   0.903  10.058
 7295ION    NA+11039   1.896   7.705   9.883
 7296ION    NA+11040   5.258   5.581  11.747
 7297ION    NA+11041   3.916   0.068   9.449
 7298ION    NA+11042   2.808   0.184   0.530
 7299ION    NA+11043   7.880   0.699   2.231
 7300ION    NA+11044   2.014   0.537  11.989
 7301ION    NA+11045   4.738   3.652   1.928
 7302ION    NA+11046   1.021   8.177  11.884
 7303ION    NA+11047   6.782   7.645   0.677
 7304ION    NA+11048   2.787   7.952   2.321
 7305ION    NA+11049   4.371   8.631   9.929
 7306ION    CL-11050   5.131   4.952   1.271
 7307ION    CL-11051   4.866   5.390  11.874
 7308ION    CL-11052   9.017   2.801  10.236
 7309ION    CL-11053   8.565   1.389   9.449
 7310ION    CL-11054  10.392   3.248   1.762
 7311ION    CL-11055   5.467   6.878   1.459
 7312ION    CL-11056   1.647   9.977   8.606
 7313ION    CL-11057   8.552   8.814   9.808
 7314ION    CL-11058   9.239   0.215  10.890
 7315ION    CL-11059   3.252   2.769   3.362
 7316ION    CL-11060   1.976   8.108   9.691
 7317ION    CL-11061   2.799   3.628   1.091
 7318ION    CL-11062   7.419  10.116   9.311
 7319ION    CL-11063   0.627   7.305   1.259
 7320ION    CL-11064   2.682   1.873  11.545
 7321ION    CL-11065   1.165   8.569  11.705
 7322ION    CL-11066   1.322   2.947  11.730
 7323ION    CL-11067   3.708   8.881   2.258
 7324ION    CL-11068   4.673   0.508   1.916
 7325ION    CL-11069   9.163   2.612   8.719
 7326ION    CL-11070   2.840   0.576   1.999
 7327ION    CL-11071   3.934   0.808   1.037
 7328ION    CL-11072   6.788   9.021   9.987
 7329ION    CL-11073   8.531   9.144   0.528
 7330ION    CL-11074   9.398   4.353   9.630
 7331ION    CL-11075   6.743   9.538   1.925
 7332ION    CL-11076   9.325   3.489  10.893
 7333ION    CL-11077   7.874   8.912  10.610
 7334ION    CL-11078   2.889   4.534   3.240
 7335ION    CL-11079   2.667   1.268   1.298
 7336ION    CL-11080   0.635   9.091   0.012
 7337ION    CL-11081   0.159   8.955   0.721
 7338ION    CL-11082   2.091   3.817   0.411
 7339ION    CL-11083   1.574   2.947   8.748
 7340ION    CL-11084   4.435  10.003  11.964
 7341ION    CL-11085   1.283   8.638   2.524
 7342ION    CL-11086   2.464   7.687   2.475
 7343ION    CL-11087   5.107   9.217   9.508
 7344ION    CL-11088   4.748   9.910  10.303
 7345ION    CL-11089   8.300   5.268   8.782
 7346ION    CL-11090   6.558   1.414   3.220
 7347ION    CL-11091  10.064   3.717  11.347
 7348ION    CL-11092   9.897   8.064   1.834
 7349ION    CL-11093   6.847   7.147   0.954
 7350ION    CL-11094   2.256   1.889   0.511
 7351ION    CL-11095   5.068   2.897   9.419
 7352ION    CL-11096  10.482   9.374   9.536
 7353ION    CL-11097   4.193   3.694   3.736
 7354ION    CL-11098   5.854   7.817   1.156
 7355ION    CL-11099   2.516   4.698   0.204
 7356ION    CL-11100   3.139   5.189   8.858
 7357ION    CL-11101   4.851   4.565  10.702
 7358ION    CL-11102   7.180   8.380   1.756
 7359ION    CL-11103   4.016   2.358  11.297
 7360ION    CL-11104   1.202   9.136  10.135
 7361ION    CL-11105   6.834   9.913   8.664
 7362ION    CL-11106   7.988   4.507   1.371
 7363ION    CL-11107   0.253   9.910   0.440
 7364ION    CL-11108   2.598   6.480  11.909
 7365ION    CL-11109   8.003   6.116   9.534
 7366ION    CL-11110   1.383   8.621   3.462
 7367ION    CL-11111   9.265   5.030   8.673
 7368ION    CL-11112   0.631   5.162  10.899
 7369ION    CL-11113   5.179   3.467   4.085
 7370ION    CL-11114   6.946   7.954   0.383
 7371ION    CL-11115   5.851   9.679   1.816
 7372ION    CL-11116   4.022   5.071  10.938
 7373ION    CL-11117   3.473   6.863   2.960
 7374ION    CL-11118   0.567   1.151   0.536
 7375ION    CL-11119   8.470   8.206  10.993
 7376ION    CL-11120   8.911   6.934  10.791
 7377ION    CL-11121   8.451  10.102   3.098
 7378ION    CL-11122   4.193   2.284   9.378
 7379ION    CL-11123   2.940   0.843   8.973
 7380ION    CL-11124   2.234   2.869   1.522
 7381ION    CL-11125   1.312   9.790  11.941
  10.50000  10.50000  12.00000
