Protein in INSANE! Membrane UpperLeaflet>POPC=1.0 LowerLeaflet>POPC=1.0
12914
    1AU     AUC    1   5.746   5.831   6.006
    1AU     AUC    2   6.026   5.843   5.831
    1AU     AUC    3   6.027   5.821   6.181
    1AU     AUC    4   5.459   5.821   5.837
    1AU     AUC    5   5.477   5.860   6.193
    1AU     AUC    6   5.568   6.107   6.004
    1AU     AUC    7   5.936   6.106   5.998
    1AU     AUC    8   5.557   5.563   6.011
    1AU     AUC    9   5.909   5.544   6.005
    1AU     AUC   10   5.749   5.660   6.286
    1AU     AUC   11   5.742   6.005   6.275
    1AU     AUC   12   5.743   5.667   5.726
    1AU     AUC   13   5.762   5.988   5.727
    1AU     AUC   14   6.341   5.850   5.658
    1AU     AUC   15   6.359   5.793   6.020
    1AU     AUC   16   6.307   5.793   6.353
    1AU     AUC   17   5.153   5.811   5.667
    1AU     AUC   18   5.134   5.847   6.031
    1AU     AUC   19   5.181   5.882   6.386
    1AU     AUC   20   5.396   6.412   5.975
    1AU     AUC   21   5.752   6.427   5.957
    1AU     AUC   22   6.123   6.387   5.987
    1AU     AUC   23   5.357   5.283   6.011
    1AU     AUC   24   5.711   5.235   5.997
    1AU     AUC   25   6.069   5.241   5.988
    1AU     AUC   26   5.730   5.488   6.577
    1AU     AUC   27   5.772   5.863   6.618
    1AU     AUC   28   5.763   6.197   6.557
    1AU     AUC   29   5.771   5.496   5.446
    1AU     AUC   30   5.763   5.826   5.390
    1AU     AUC   31   5.744   6.142   5.433
    1AU     AUC   32   6.026   5.638   6.499
    1AU     AUC   33   6.064   6.005   6.489
    1AU     AUC   34   6.082   5.692   5.497
    1AU     AUC   35   6.077   6.019   5.539
    1AU     AUC   36   5.441   5.695   6.519
    1AU     AUC   37   5.466   6.061   6.492
    1AU     AUC   38   5.447   5.643   5.540
    1AU     AUC   39   5.419   5.956   5.499
    1AU     AUC   40   6.278   6.112   5.855
    1AU     AUC   41   6.246   6.106   6.195
    1AU     AUC   42   5.244   6.119   5.832
    1AU     AUC   43   5.265   6.171   6.187
    1AU     AUC   44   6.215   5.528   5.823
    1AU     AUC   45   6.192   5.477   6.186
    1AU     AUC   46   5.224   5.520   5.852
    1AU     AUC   47   5.281   5.573   6.215
    1AU     AUC   48   5.575   6.365   6.265
    1AU     AUC   49   5.937   6.313   6.253
    1AU     AUC   50   5.542   5.360   6.308
    1AU     AUC   51   5.877   5.318   6.284
    1AU     AUC   52   5.558   6.261   5.689
    1AU     AUC   53   5.948   6.307   5.697
    1AU     AUC   54   5.550   5.360   5.708
    1AU     AUC   55   5.942   5.378   5.703
    1AU    AUSL   56   6.299   5.765   6.697
    1AU    AUSL   57   6.012   5.339   6.665
    1AU     AUL   58   6.335   5.359   6.842
    1AU       S   59   6.359   4.947   6.649
    1AU     LIG   60   6.252   4.808   6.999
    1AU     LIG   61   6.395   4.437   7.172
    1AU     LIG   62   6.622   4.118   7.393
    1AU     LIG   63   6.834   3.967   7.782
    1AU     LIG   64   6.914   3.663   8.125
    1AU       S   65   6.571   5.740   6.771
    1AU     LIG   66   6.525   5.649   7.236
    1AU     LIG   67   6.627   5.472   7.682
    1AU     LIG   68   6.875   5.393   8.096
    1AU     LIG   69   7.236   5.492   8.415
    1AU     LIG   70   7.505   5.614   8.792
    1AU    AUSL   71   5.912   5.683   6.895
    1AU    AUSL   72   5.624   6.028   6.906
    1AU     AUL   73   5.833   5.988   7.238
    1AU       S   74   6.049   5.628   7.062
    1AU     LIG   75   5.929   5.481   7.433
    1AU     LIG   76   6.154   5.275   7.798
    1AU     LIG   77   6.416   5.097   8.164
    1AU     LIG   78   6.439   4.874   8.597
    1AU     LIG   79   6.472   4.873   9.073
    1AU       S   80   5.451   5.758   7.155
    1AU     LIG   81   5.475   5.664   7.627
    1AU     LIG   82   5.190   5.635   7.996
    1AU     LIG   83   5.025   5.692   8.430
    1AU     LIG   84   5.084   5.970   8.825
    1AU     LIG   85   5.047   6.070   9.287
    1AU    AUSL   86   6.031   6.102   6.839
    1AU    AUSL   87   6.386   6.168   6.577
    1AU     AUL   88   6.311   6.044   6.983
    1AU       S   89   5.910   6.402   6.976
    1AU     LIG   90   6.153   6.369   7.356
    1AU     LIG   91   6.379   6.466   7.771
    1AU     LIG   92   6.357   6.505   8.266
    1AU     LIG   93   6.384   6.670   8.717
    1AU     LIG   94   6.642   6.758   9.096
    1AU       S   95   6.463   6.426   6.770
    1AU     LIG   96   6.837   6.213   6.828
    1AU     LIG   97   7.159   6.369   7.154
    1AU     LIG   98   7.436   6.596   7.475
    1AU     LIG   99   7.731   6.738   7.825
    1AU     LIG  100   8.178   6.811   7.998
    1AU    AUSL  101   6.301   5.977   5.269
    1AU    AUSL  102   6.086   6.311   5.471
    1AU     AUL  103   6.192   6.352   5.132
    1AU       S  104   6.277   6.030   4.820
    1AU     LIG  105   6.639   5.874   4.624
    1AU     LIG  106   6.743   5.595   4.279
    1AU     LIG  107   6.845   5.503   3.831
    1AU     LIG  108   7.199   5.417   3.516
    1AU     LIG  109   7.635   5.464   3.310
    1AU       S  110   6.525   6.557   5.366
    1AU     LIG  111   6.665   6.686   4.932
    1AU     LIG  112   6.902   6.784   4.513
    1AU     LIG  113   7.181   6.939   4.167
    1AU     LIG  114   7.471   7.056   3.805
    1AU     LIG  115   7.759   7.325   3.531
    1AU    AUSL  116   6.069   5.649   5.106
    1AU    AUSL  117   6.420   5.595   5.419
    1AU     AUL  118   6.483   5.720   5.111
    1AU       S  119   6.588   5.268   5.195
    1AU     LIG  120   6.700   4.850   4.955
    1AU     LIG  121   6.929   4.454   4.851
    1AU     LIG  122   7.219   4.219   4.572
    1AU     LIG  123   7.552   4.299   4.230
    1AU     LIG  124   8.006   4.401   4.091
    1AU       S  125   6.155   5.893   4.817
    1AU     LIG  126   6.267   5.509   4.625
    1AU     LIG  127   6.330   5.297   4.193
    1AU     LIG  128   6.401   5.256   3.712
    1AU     LIG  129   6.536   5.133   3.254
    1AU     LIG  130   6.758   4.965   2.847
    1AU    AUSL  131   5.876   6.018   5.234
    1AU    AUSL  132   5.652   5.629   5.216
    1AU     AUL  133   5.799   5.642   4.942
    1AU       S  134   5.346   5.663   4.807
    1AU     LIG  135   5.413   5.343   4.552
    1AU     LIG  136   5.159   5.165   4.206
    1AU     LIG  137   4.962   5.140   3.775
    1AU     LIG  138   4.975   5.038   3.309
    1AU     LIG  139   4.926   4.954   2.838
    1AU       S  140   5.934   6.082   4.850
    1AU     LIG  141   6.029   5.916   4.356
    1AU     LIG  142   6.337   5.777   4.007
    1AU     LIG  143   6.463   5.739   3.548
    1AU     LIG  144   6.507   5.816   3.089
    1AU     LIG  145   6.463   6.107   2.729
    1AU    AUSL  146   5.228   5.957   6.757
    1AU    AUSL  147   5.510   6.310   6.613
    1AU     AUL  148   5.382   6.262   6.959
    1AU       S  149   5.281   5.888   7.229
    1AU     LIG  150   5.034   5.525   7.369
    1AU     LIG  151   4.778   5.421   7.770
    1AU     LIG  152   4.592   5.448   8.216
    1AU     LIG  153   4.223   5.390   8.524
    1AU     LIG  154   3.875   5.545   8.816
    1AU       S  155   5.082   6.554   6.713
    1AU     LIG  156   5.110   6.683   7.143
    1AU     LIG  157   4.937   6.919   7.522
    1AU     LIG  158   4.821   7.291   7.793
    1AU     LIG  159   4.663   7.428   8.228
    1AU     LIG  160   4.546   7.591   8.671
    1AU    AUSL  161   5.540   5.667   6.686
    1AU    AUSL  162   5.095   5.564   6.623
    1AU     AUL  163   5.084   5.713   6.854
    1AU       S  164   4.932   5.271   6.854
    1AU     LIG  165   4.506   5.109   6.693
    1AU     LIG  166   4.213   4.783   6.880
    1AU     LIG  167   3.964   4.574   7.224
    1AU     LIG  168   3.777   4.355   7.596
    1AU     LIG  169   3.424   4.330   7.923
    1AU       S  170   5.487   5.600   7.079
    1AU     LIG  171   5.474   5.245   7.340
    1AU     LIG  172   5.242   5.184   7.740
    1AU     LIG  173   5.023   5.164   8.166
    1AU     LIG  174   4.878   4.977   8.577
    1AU     LIG  175   4.916   4.910   9.044
    1AU    AUSL  176   5.242   5.733   5.277
    1AU    AUSL  177   5.430   5.355   5.447
    1AU     AUL  178   5.462   5.345   5.120
    1AU       S  179   5.141   5.642   4.955
    1AU     LIG  180   4.909   5.394   4.655
    1AU     LIG  181   4.724   5.444   4.221
    1AU     LIG  182   4.611   5.543   3.772
    1AU     LIG  183   4.325   5.640   3.397
    1AU     LIG  184   3.957   5.659   3.070
    1AU       S  185   5.038   5.219   5.249
    1AU     LIG  186   4.774   4.842   5.097
    1AU     LIG  187   4.531   4.491   4.915
    1AU     LIG  188   4.288   4.231   4.603
    1AU     LIG  189   4.230   4.074   4.156
    1AU     LIG  190   4.278   3.874   3.724
    1AU    AUSL  191   5.495   6.029   5.069
    1AU    AUSL  192   5.026   6.073   5.425
    1AU     AUL  193   5.142   6.081   5.094
    1AU       S  194   4.729   6.243   5.258
    1AU     LIG  195   4.644   6.406   4.817
    1AU     LIG  196   4.607   6.752   4.508
    1AU     LIG  197   4.372   6.881   4.119
    1AU     LIG  198   3.958   6.909   3.875
    1AU     LIG  199   3.600   7.169   3.723
    1AU       S  200   5.424   5.890   4.771
    1AU     LIG  201   5.143   5.769   4.374
    1AU     LIG  202   5.121   5.612   3.938
    1AU     LIG  203   5.041   5.587   3.484
    1AU     LIG  204   5.093   5.818   3.080
    1AU     LIG  205   4.887   5.957   2.683
    1AU    AUSL  206   6.483   6.255   6.040
    1AU    AUSL  207   6.459   6.147   5.619
    1AU     AUL  208   6.747   6.394   5.851
    1AU       S  209   6.583   6.322   5.429
    1AU     LIG  210   6.721   6.187   5.043
    1AU     LIG  211   7.056   6.361   4.761
    1AU     LIG  212   7.396   6.627   4.535
    1AU     LIG  213   7.688   6.859   4.244
    1AU     LIG  214   7.963   7.137   3.978
    1AU       S  215   7.002   6.149   6.175
    1AU     LIG  216   7.415   6.350   6.133
    1AU     LIG  217   7.872   6.437   6.035
    1AU     LIG  218   8.294   6.615   6.047
    1AU     LIG  219   8.611   6.906   6.208
    1AU     LIG  220   8.781   7.286   6.438
    1AU    AUSL  221   6.703   5.909   5.870
    1AU    AUSL  222   6.670   5.540   6.165
    1AU     AUL  223   6.965   5.600   5.923
    1AU       S  224   6.923   6.022   6.076
    1AU     LIG  225   7.360   5.913   5.887
    1AU     LIG  226   7.837   5.971   5.826
    1AU     LIG  227   8.277   6.162   5.753
    1AU     LIG  228   8.713   6.271   5.540
    1AU     LIG  229   9.104   6.351   5.301
    1AU       S  230   6.877   5.173   6.122
    1AU     LIG  231   7.260   5.008   6.297
    1AU     LIG  232   7.717   4.862   6.278
    1AU     LIG  233   8.186   4.725   6.272
    1AU     LIG  234   8.669   4.833   6.272
    1AU     LIG  235   9.118   4.760   6.462
    1AU    AUSL  236   6.500   5.905   6.275
    1AU    AUSL  237   6.323   6.526   6.320
    1AU     AUL  238   6.618   6.321   6.347
    1AU       S  239   6.517   6.698   6.617
    1AU     LIG  240   6.882   6.734   6.906
    1AU     LIG  241   7.203   6.966   7.176
    1AU     LIG  242   7.374   7.395   7.351
    1AU     LIG  243   7.545   7.865   7.383
    1AU     LIG  244   7.904   8.142   7.553
    1AU       S  245   6.848   5.917   6.374
    1AU     LIG  246   7.327   5.928   6.463
    1AU     LIG  247   7.778   6.023   6.336
    1AU     LIG  248   8.248   6.158   6.296
    1AU     LIG  249   8.587   6.456   6.501
    1AU     LIG  250   9.008   6.614   6.666
    1AU    AUSL  251   5.069   6.387   6.022
    1AU    AUSL  252   5.146   6.184   6.413
    1AU     AUL  253   4.828   6.487   6.258
    1AU       S  254   5.004   6.343   6.657
    1AU     LIG  255   4.887   6.205   7.066
    1AU     LIG  256   4.717   6.451   7.437
    1AU     LIG  257   4.461   6.708   7.761
    1AU     LIG  258   4.106   6.777   8.094
    1AU     LIG  259   3.741   6.931   8.368
    1AU       S  260   5.064   6.771   5.942
    1AU     LIG  261   4.613   6.758   5.857
    1AU     LIG  262   4.191   7.018   5.895
    1AU     LIG  263   3.781   7.304   5.921
    1AU     LIG  264   3.350   7.557   5.895
    1AU     LIG  265   2.902   7.746   5.945
    1AU    AUSL  266   5.032   5.999   5.832
    1AU    AUSL  267   5.153   6.444   5.613
    1AU     AUL  268   4.850   6.323   5.710
    1AU       S  269   4.665   5.793   5.472
    1AU     LIG  270   4.271   6.047   5.520
    1AU     LIG  271   3.849   6.196   5.308
    1AU     LIG  272   3.369   6.217   5.427
    1AU     LIG  273   2.966   6.494   5.410
    1AU     LIG  274   2.603   6.665   5.150
    1AU       S  275   4.978   6.705   5.441
    1AU     LIG  276   4.927   7.003   5.052
    1AU     LIG  277   4.911   7.428   4.793
    1AU     LIG  278   4.774   7.899   4.686
    1AU     LIG  279   4.479   8.260   4.535
    1AU     LIG  280   4.133   8.593   4.511
    1AU    AUSL  281   4.813   6.035   6.211
    1AU    AUSL  282   4.786   5.667   5.898
    1AU     AUL  283   4.626   5.986   5.919
    1AU       S  284   4.558   5.576   6.140
    1AU     LIG  285   4.291   5.553   5.739
    1AU     LIG  286   3.904   5.314   5.617
    1AU     LIG  287   3.448   5.168   5.592
    1AU     LIG  288   2.967   5.127   5.707
    1AU     LIG  289   2.521   5.054   5.560
    1AU       S  290   4.693   6.026   6.441
    1AU     LIG  291   4.245   6.120   6.417
    1AU     LIG  292   3.813   6.188   6.653
    1AU     LIG  293   3.399   6.429   6.745
    1AU     LIG  294   2.906   6.396   6.764
    1AU     LIG  295   2.460   6.538   6.614
    1AU    AUSL  296   6.399   5.236   6.027
    1AU    AUSL  297   6.300   5.493   6.380
    1AU     AUL  298   6.598   5.386   6.423
    1AU       S  299   6.570   5.060   6.016
    1AU     LIG  300   6.867   4.670   6.117
    1AU     LIG  301   7.339   4.547   6.067
    1AU     LIG  302   7.793   4.385   6.093
    1AU     LIG  303   8.208   4.187   6.200
    1AU     LIG  304   8.458   3.812   6.377
    1AU       S  305   6.503   4.950   6.491
    1AU     LIG  306   6.732   4.643   6.764
    1AU     LIG  307   6.926   4.410   7.103
    1AU     LIG  308   7.153   4.160   7.421
    1AU     LIG  309   7.464   4.144   7.777
    1AU     LIG  310   7.872   4.150   8.026
    1AU    AUSL  311   6.405   5.619   5.834
    1AU    AUSL  312   6.347   5.208   5.609
    1AU     AUL  313   6.623   5.428   5.660
    1AU       S  314   6.835   5.120   5.906
    1AU     LIG  315   7.269   4.980   5.785
    1AU     LIG  316   7.721   4.781   5.767
    1AU     LIG  317   8.178   4.575   5.786
    1AU     LIG  318   8.659   4.649   5.748
    1AU     LIG  319   9.017   4.705   5.433
    1AU       S  320   6.543   5.051   5.382
    1AU     LIG  321   6.457   4.565   5.362
    1AU     LIG  322   6.688   4.154   5.191
    1AU     LIG  323   6.923   3.859   4.890
    1AU     LIG  324   7.279   3.531   4.798
    1AU     LIG  325   7.643   3.202   4.694
    1AU    AUSL  326   4.992   5.309   6.046
    1AU    AUSL  327   5.092   5.555   5.631
    1AU     AUL  328   4.754   5.364   5.763
    1AU       S  329   4.936   5.385   5.341
    1AU     LIG  330   4.488   5.186   5.354
    1AU     LIG  331   4.217   4.873   5.078
    1AU     LIG  332   3.960   4.591   4.761
    1AU     LIG  333   3.789   4.295   4.409
    1AU     LIG  334   3.447   4.137   4.096
    1AU       S  335   4.521   5.322   6.170
    1AU     LIG  336   4.309   5.046   5.851
    1AU     LIG  337   3.866   4.837   5.826
    1AU     LIG  338   3.393   4.802   5.982
    1AU     LIG  339   3.050   4.600   6.265
    1AU     LIG  340   2.623   4.389   6.382
    1AU    AUSL  341   5.059   5.699   6.231
    1AU    AUSL  342   5.298   5.323   6.337
    1AU     AUL  343   4.933   5.350   6.380
    1AU       S  344   4.995   5.097   6.752
    1AU     LIG  345   4.860   4.790   6.476
    1AU     LIG  346   4.527   4.467   6.606
    1AU     LIG  347   4.187   4.249   6.891
    1AU     LIG  348   3.864   4.027   7.184
    1AU     LIG  349   3.539   3.655   7.252
    1AU       S  350   4.546   5.599   6.302
    1AU     LIG  351   4.065   5.729   6.150
    1AU     LIG  352   3.652   5.591   5.973
    1AU     LIG  353   3.326   5.308   6.059
    1AU     LIG  354   2.958   5.104   6.218
    1AU     LIG  355   2.644   4.903   6.461
    1AU    AUSL  356   5.737   6.641   6.470
    1AU    AUSL  357   5.331   6.560   6.311
    1AU     AUL  358   5.537   6.650   6.713
    1AU       S  359   5.199   6.749   6.412
    1AU     LIG  360   5.203   7.052   6.775
    1AU     LIG  361   4.973   7.284   7.147
    1AU     LIG  362   4.751   7.649   7.380
    1AU     LIG  363   4.446   8.035   7.426
    1AU     LIG  364   4.078   8.352   7.504
    1AU       S  365   5.771   6.979   6.434
    1AU     LIG  366   5.867   7.061   6.830
    1AU     LIG  367   5.968   7.506   6.975
    1AU     LIG  368   5.940   7.833   7.338
    1AU     LIG  369   6.011   8.094   7.755
    1AU     LIG  370   5.978   8.496   8.025
    1AU    AUSL  371   5.587   6.774   6.054
    1AU    AUSL  372   5.902   6.687   5.710
    1AU     AUL  373   5.823   7.032   5.827
    1AU       S  374   5.603   7.035   6.243
    1AU     LIG  375   5.692   7.458   6.512
    1AU     LIG  376   5.585   7.856   6.759
    1AU     LIG  377   5.447   8.309   6.844
    1AU     LIG  378   5.408   8.783   6.914
    1AU     LIG  379   5.381   9.230   6.776
    1AU       S  380   5.615   6.919   5.437
    1AU     LIG  381   5.964   7.257   5.400
    1AU     LIG  382   6.179   7.683   5.321
    1AU     LIG  383   6.501   8.049   5.277
    1AU     LIG  384   6.723   8.478   5.257
    1AU     LIG  385   6.669   8.931   5.162
    1AU    AUSL  386   5.964   6.566   6.113
    1AU    AUSL  387   5.986   6.306   6.487
    1AU     AUL  388   6.057   6.632   6.550
    1AU       S  389   6.355   6.537   6.883
    1AU     LIG  390   6.640   6.444   7.251
    1AU     LIG  391   6.926   6.685   7.519
    1AU     LIG  392   7.221   7.019   7.699
    1AU     LIG  393   7.272   7.384   8.003
    1AU     LIG  394   7.216   7.590   8.437
    1AU       S  395   6.034   6.938   6.216
    1AU     LIG  396   6.199   7.277   6.503
    1AU     LIG  397   6.381   7.711   6.642
    1AU     LIG  398   6.720   8.085   6.665
    1AU     LIG  399   6.875   8.543   6.739
    1AU     LIG  400   6.880   8.952   6.940
    1AU    AUSL  401   5.693   5.148   6.444
    1AU    AUSL  402   6.106   5.118   6.304
    1AU     AUL  403   5.900   5.033   6.694
    1AU       S  404   5.725   4.654   6.495
    1AU     LIG  405   5.510   4.589   6.847
    1AU     LIG  406   5.431   4.137   6.929
    1AU     LIG  407   5.485   3.663   6.947
    1AU     LIG  408   5.511   3.349   7.317
    1AU     LIG  409   5.504   3.251   7.803
    1AU       S  410   6.245   4.923   6.374
    1AU     LIG  411   6.262   4.468   6.572
    1AU     LIG  412   6.579   4.148   6.798
    1AU     LIG  413   6.920   3.884   7.029
    1AU     LIG  414   7.049   3.433   7.151
    1AU     LIG  415   7.363   3.097   7.339
    1AU    AUSL  416   5.379   4.957   6.163
    1AU    AUSL  417   5.436   5.274   6.751
    1AU     AUL  418   5.375   4.985   6.519
    1AU       S  419   5.507   4.580   6.323
    1AU     LIG  420   5.178   4.362   6.522
    1AU     LIG  421   5.160   3.892   6.568
    1AU     LIG  422   5.140   3.424   6.597
    1AU     LIG  423   4.930   2.990   6.621
    1AU     LIG  424   4.892   2.670   6.952
    1AU       S  425   5.211   5.181   6.928
    1AU     LIG  426   5.008   4.685   6.987
    1AU     LIG  427   4.584   4.492   7.126
    1AU     LIG  428   4.294   4.233   7.415
    1AU     LIG  429   4.144   4.071   7.840
    1AU     LIG  430   4.207   3.888   8.281
    1AU    AUSL  431   5.806   4.900   6.109
    1AU    AUSL  432   5.570   5.132   5.822
    1AU     AUL  433   5.461   4.783   5.903
    1AU       S  434   5.857   4.681   5.694
    1AU     LIG  435   5.555   4.306   5.701
    1AU     LIG  436   5.345   3.891   5.500
    1AU     LIG  437   5.135   3.442   5.431
    1AU     LIG  438   4.912   2.991   5.381
    1AU     LIG  439   4.774   2.607   5.103
    1AU       S  440   5.821   4.696   6.231
    1AU     LIG  441   5.859   4.226   6.228
    1AU     LIG  442   5.788   3.851   6.537
    1AU     LIG  443   6.031   3.461   6.733
    1AU     LIG  444   6.162   2.987   6.793
    1AU     LIG  445   6.124   2.484   6.743
    1AU    AUSL  446   5.721   6.476   5.352
    1AU    AUSL  447   6.287   6.530   5.783
    1AU     AUL  448   6.064   6.685   5.441
    1AU       S  449   5.654   6.812   5.242
    1AU     LIG  450   5.954   6.990   4.976
    1AU     LIG  451   6.002   7.453   4.878
    1AU     LIG  452   6.048   7.759   4.508
    1AU     LIG  453   6.116   8.052   4.149
    1AU     LIG  454   6.010   8.488   4.084
    1AU       S  455   6.509   6.683   5.582
    1AU     LIG  456   6.972   6.736   5.363
    1AU     LIG  457   7.171   6.862   4.945
    1AU     LIG  458   7.315   7.196   4.620
    1AU     LIG  459   7.502   7.671   4.617
    1AU     LIG  460   7.684   8.138   4.677
    1AU    AUSL  461   5.535   6.485   5.757
    1AU    AUSL  462   5.451   6.164   5.459
    1AU     AUL  463   5.373   6.458   5.326
    1AU       S  464   5.443   6.841   5.595
    1AU     LIG  465   5.477   7.376   5.534
    1AU     LIG  466   5.657   7.808   5.369
    1AU     LIG  467   5.439   8.248   5.273
    1AU     LIG  468   5.360   8.744   5.351
    1AU     LIG  469   5.377   9.253   5.311
    1AU       S  470   4.927   6.489   5.211
    1AU     LIG  471   5.148   6.588   4.845
    1AU     LIG  472   5.084   6.948   4.519
    1AU     LIG  473   4.970   7.094   4.059
    1AU     LIG  474   4.889   7.345   3.643
    1AU     LIG  475   4.605   7.691   3.471
    1AU    AUSL  476   5.758   5.085   5.433
    1AU    AUSL  477   5.169   5.125   5.708
    1AU     AUL  478   5.432   4.974   5.470
    1AU       S  479   4.988   5.101   5.462
    1AU     LIG  480   4.728   4.819   5.632
    1AU     LIG  481   4.383   4.564   5.446
    1AU     LIG  482   4.123   4.289   5.143
    1AU     LIG  483   3.825   4.035   4.862
    1AU     LIG  484   3.443   3.719   4.810
    1AU       S  485   5.819   4.701   5.536
    1AU     LIG  486   5.927   4.345   5.282
    1AU     LIG  487   5.709   3.965   5.119
    1AU     LIG  488   5.489   3.559   5.052
    1AU     LIG  489   5.477   3.219   4.719
    1AU     LIG  490   5.643   2.994   4.333
    1AU    AUSL  491   5.997   5.115   5.808
    1AU    AUSL  492   6.009   5.421   5.448
    1AU     AUL  493   6.081   5.056   5.414
    1AU       S  494   6.120   4.767   5.783
    1AU     LIG  495   6.115   4.266   5.754
    1AU     LIG  496   5.850   3.907   5.604
    1AU     LIG  497   5.942   3.530   5.318
    1AU     LIG  498   6.214   3.178   5.128
    1AU     LIG  499   6.538   2.819   5.199
    1AU       S  500   6.334   5.249   5.092
    1AU     LIG  501   6.193   4.804   4.997
    1AU     LIG  502   6.402   4.400   4.842
    1AU     LIG  503   6.683   4.146   4.520
    1AU     LIG  504   6.978   4.146   4.128
    1AU     LIG  505   7.140   3.956   3.726
    2POPC   NC3  506   1.980   8.015   8.259
    2POPC   PO4  507   2.461   8.393   8.265
    2POPC   GL1  508   2.340   8.305   7.810
    2POPC   GL2  509   2.200   7.955   7.777
    2POPC   C1A  510   2.262   8.217   7.344
    2POPC   D2A  511   2.203   8.370   6.910
    2POPC   C3A  512   2.219   8.261   6.457
    2POPC   C4A  513   2.379   8.447   6.056
    2POPC   C1B  514   1.836   7.901   7.449
    2POPC   C2B  515   1.734   7.806   7.025
    2POPC   C3B  516   1.786   7.831   6.571
    2POPC   C4B  517   1.722   8.149   6.272
    3POPC   NC3  518   1.931   2.704   8.261
    3POPC   PO4  519   1.597   3.260   8.014
    3POPC   GL1  520   1.801   2.989   7.684
    3POPC   GL2  521   2.123   2.962   7.827
    3POPC   C1A  522   1.737   2.758   7.249
    3POPC   D2A  523   1.804   2.565   6.808
    3POPC   C3A  524   1.651   2.865   6.493
    3POPC   C4A  525   1.748   3.006   6.085
    3POPC   C1B  526   2.250   2.807   7.393
    3POPC   C2B  527   2.406   2.791   6.995
    3POPC   C3B  528   2.322   2.638   6.632
    3POPC   C4B  529   2.140   2.817   6.343
    4POPC   NC3  530   8.138   9.768   8.015
    4POPC   PO4  531   8.104   9.160   8.190
    4POPC   GL1  532   8.373   9.345   7.820
    4POPC   GL2  533   8.107   9.537   7.571
    4POPC   C1A  534   8.498   9.283   7.385
    4POPC   D2A  535   8.255   9.516   7.052
    4POPC   C3A  536   8.366   9.605   6.631
    4POPC   C4A  537   8.388   9.400   6.196
    4POPC   C1B  538   7.817   9.813   7.317
    4POPC   C2B  539   7.681   9.971   6.896
    4POPC   C3B  540   7.650   9.795   6.494
    4POPC   C4B  541   8.010   9.723   6.287
    5POPC   NC3  542   1.934   0.537   7.947
    5POPC   PO4  543   1.529   0.023   8.066
    5POPC   GL1  544   1.644   0.127   7.632
    5POPC   GL2  545   1.971   0.298   7.517
    5POPC   C1A  546   1.712   0.067   7.181
    5POPC   D2A  547   1.860   0.343   6.870
    5POPC   C3A  548   1.868   0.160   6.487
    5POPC   C4A  549   1.718   0.193   6.088
    5POPC   C1B  550   1.915   0.688   7.262
    5POPC   C2B  551   1.814   0.848   6.820
    5POPC   C3B  552   1.999   0.680   6.398
    5POPC   C4B  553   1.929   0.598   5.915
    6POPC   NC3  554   7.341   9.319   8.117
    6POPC   PO4  555   7.573   9.957   8.064
    6POPC   GL1  556   7.493   9.667   7.722
    6POPC   GL2  557   7.171   9.857   7.677
    6POPC   C1A  558   7.607   9.357   7.364
    6POPC   D2A  559   7.753   9.454   6.906
    6POPC   C3A  560   7.617   9.298   6.462
    6POPC   C4A  561   7.750   9.389   5.996
    6POPC   C1B  562   7.284   9.729   7.257
    6POPC   C2B  563   7.184   9.689   6.871
    6POPC   C3B  564   7.167   9.524   6.484
    6POPC   C4B  565   7.281   9.663   6.096
    7POPC   NC3  566  10.907   0.390   8.016
    7POPC   PO4  567   0.073   0.711   8.093
    7POPC   GL1  568   0.124   0.526   7.712
    7POPC   GL2  569  11.292   0.458   7.637
    7POPC   C1A  570   0.137   0.650   7.298
    7POPC   D2A  571  11.289   0.634   7.025
    7POPC   C3A  572  11.438   0.507   6.634
    7POPC   C4A  573  11.258   0.532   6.241
    7POPC   C1B  574  10.923   0.402   7.354
    7POPC   C2B  575  10.806   0.486   6.925
    7POPC   C3B  576  10.909   0.295   6.538
    7POPC   C4B  577  10.653   0.103   6.199
    8POPC   NC3  578  10.565   7.251   8.100
    8POPC   PO4  579  10.599   7.909   8.115
    8POPC   GL1  580  10.656   7.624   7.733
    8POPC   GL2  581  10.362   7.414   7.670
    8POPC   C1A  582  10.703   7.497   7.269
    8POPC   D2A  583  10.668   7.687   6.857
    8POPC   C3A  584  10.477   7.466   6.500
    8POPC   C4A  585  10.646   7.472   6.094
    8POPC   C1B  586  10.191   7.573   7.292
    8POPC   C2B  587  10.290   7.293   6.953
    8POPC   C3B  588  10.118   7.105   6.590
    8POPC   C4B  589   9.950   7.391   6.289
    9POPC   NC3  590   1.921   8.931   7.961
    9POPC   PO4  591   1.834   8.306   7.935
    9POPC   GL1  592   1.947   8.561   7.586
    9POPC   GL2  593   2.275   8.778   7.610
    9POPC   C1A  594   1.785   8.377   7.204
    9POPC   D2A  595   1.723   8.294   6.774
    9POPC   C3A  596   1.822   8.607   6.451
    9POPC   C4A  597   1.871   8.591   5.999
    9POPC   C1B  598   2.140   8.822   7.166
    9POPC   C2B  599   2.218   8.839   6.698
    9POPC   C3B  600   2.142   8.963   6.258
    9POPC   C4B  601   1.936   9.295   6.003
   10POPC   NC3  602   9.404   1.789   8.059
   10POPC   PO4  603   8.728   1.957   8.025
   10POPC   GL1  604   8.850   1.869   7.601
   10POPC   GL2  605   9.168   2.059   7.613
   10POPC   C1A  606   8.945   1.717   7.175
   10POPC   D2A  607   9.163   1.979   6.839
   10POPC   C3A  608   9.337   1.896   6.452
   10POPC   C4A  609   9.039   1.981   6.125
   10POPC   C1B  610   8.956   2.236   7.249
   10POPC   C2B  611   8.692   2.091   6.908
   10POPC   C3B  612   8.657   1.959   6.484
   10POPC   C4B  613   8.579   2.202   6.080
   11POPC   NC3  614  11.271   5.948   8.068
   11POPC   PO4  615  10.678   6.307   8.061
   11POPC   GL1  616  10.947   6.154   7.698
   11POPC   GL2  617  11.020   5.772   7.672
   11POPC   C1A  618  11.060   6.031   7.246
   11POPC   D2A  619  11.343   5.817   6.926
   11POPC   C3A  620  11.171   5.831   6.503
   11POPC   C4A  621  11.057   6.245   6.325
   11POPC   C1B  622  11.254   5.541   7.367
   11POPC   C2B  623  11.451   5.317   7.029
   11POPC   C3B  624  11.463   5.404   6.588
   11POPC   C4B  625  11.240   5.414   6.170
   12POPC   NC3  626   0.398   0.264   8.064
   12POPC   PO4  627   0.840   0.780   7.950
   12POPC   GL1  628   0.632   0.572   7.671
   12POPC   GL2  629   0.765   0.272   7.607
   12POPC   C1A  630   0.664   0.680   7.257
   12POPC   D2A  631   0.465   0.562   6.874
   12POPC   C3A  632   0.623   0.750   6.507
   12POPC   C4A  633   0.779   0.684   6.075
   12POPC   C1B  634   0.442   0.214   7.291
   12POPC   C2B  635   0.259   0.085   6.880
   12POPC   C3B  636   0.398   0.224   6.468
   12POPC   C4B  637   0.265   0.566   6.208
   13POPC   NC3  638   2.966   2.865   8.122
   13POPC   PO4  639   2.391   2.724   8.228
   13POPC   GL1  640   2.594   2.785   7.775
   13POPC   GL2  641   2.827   2.562   7.677
   13POPC   C1A  642   2.746   2.942   7.338
   13POPC   D2A  643   2.729   3.202   6.956
   13POPC   C3A  644   2.717   2.983   6.592
   13POPC   C4A  645   2.888   2.656   6.377
   13POPC   C1B  646   2.639   2.427   7.296
   13POPC   C2B  647   2.748   2.434   6.855
   13POPC   C3B  648   2.596   2.245   6.479
   13POPC   C4B  649   2.478   2.462   6.128
   14POPC   NC3  650  11.292   8.770   8.020
   14POPC   PO4  651  10.646   8.875   7.861
   14POPC   GL1  652  10.880   8.627   7.587
   14POPC   GL2  653  11.201   8.759   7.529
   14POPC   C1A  654  10.891   8.685   7.138
   14POPC   D2A  655  11.221   8.719   6.841
   14POPC   C3A  656  10.991   8.842   6.491
   14POPC   C4A  657  10.888   8.759   6.074
   14POPC   C1B  658  11.365   9.086   7.251
   14POPC   C2B  659  11.270   9.265   6.839
   14POPC   C3B  660  11.471   9.080   6.518
   14POPC   C4B  661  11.367   8.844   6.141
   15POPC   NC3  662   8.592  11.395   8.040
   15POPC   PO4  663   9.089  10.967   8.266
   15POPC   GL1  664   8.931  11.029   7.777
   15POPC   GL2  665   9.025  11.255   7.512
   15POPC   C1A  666   8.743  10.866   7.343
   15POPC   D2A  667   8.854  11.079   6.911
   15POPC   C3A  668   8.933  10.888   6.461
   15POPC   C4A  669   8.933  10.932   5.993
   15POPC   C1B  670   8.590  11.359   7.319
   15POPC   C2B  671   8.488  11.443   6.891
   15POPC   C3B  672   8.735  11.429   6.510
   15POPC   C4B  673   9.158  11.360   6.382
   16POPC   NC3  674   6.893  11.365   7.852
   16POPC   PO4  675   6.883  10.682   8.065
   16POPC   GL1  676   6.664  10.880   7.676
   16POPC   GL2  677   6.610  11.221   7.454
   16POPC   C1A  678   6.791  10.815   7.254
   16POPC   D2A  679   6.754  11.053   6.877
   16POPC   C3A  680   6.715  10.831   6.454
   16POPC   C4A  681   6.506  11.036   6.067
   16POPC   C1B  682   6.287  11.367   7.135
   16POPC   C2B  683   6.229  11.182   6.723
   16POPC   C3B  684   6.579  11.329   6.489
   16POPC   C4B  685   6.546   0.141   6.254
   17POPC   NC3  686   0.508   8.083   8.143
   17POPC   PO4  687   0.023   7.670   7.872
   17POPC   GL1  688   0.219   8.021   7.674
   17POPC   GL2  689   0.578   8.109   7.648
   17POPC   C1A  690   0.216   8.121   7.244
   17POPC   D2A  691   0.457   8.069   6.892
   17POPC   C3A  692   0.211   8.056   6.515
   17POPC   C4A  693   0.178   8.195   6.093
   17POPC   C1B  694   0.641   8.414   7.337
   17POPC   C2B  695   0.741   8.515   6.912
   17POPC   C3B  696   0.891   8.193   6.641
   17POPC   C4B  697   0.705   7.985   6.298
   18POPC   NC3  698   4.011  11.051   7.920
   18POPC   PO4  699   4.656  11.412   8.047
   18POPC   GL1  700   4.412  11.439   7.677
   18POPC   GL2  701   4.402  11.103   7.607
   18POPC   C1A  702   4.408  11.416   7.187
   18POPC   D2A  703   4.279   0.065   6.768
   18POPC   C3A  704   4.215  11.307   6.399
   18POPC   C4A  705   4.219  11.380   5.945
   18POPC   C1B  706   4.314  10.906   7.237
   18POPC   C2B  707   4.345  11.022   6.815
   18POPC   C3B  708   4.593  10.887   6.472
   18POPC   C4B  709   4.440  10.928   6.078
   19POPC   NC3  710   5.819  11.152   8.022
   19POPC   PO4  711   6.514  11.234   8.085
   19POPC   GL1  712   6.222  11.092   7.740
   19POPC   GL2  713   6.078  11.397   7.630
   19POPC   C1A  714   6.177  10.901   7.289
   19POPC   D2A  715   5.855  10.760   6.962
   19POPC   C3A  716   5.797  10.877   6.520
   19POPC   C4A  717   6.010  11.099   6.195
   19POPC   C1B  718   5.787  11.280   7.313
   19POPC   C2B  719   5.716  11.235   6.890
   19POPC   C3B  720   5.682  11.370   6.499
   19POPC   C4B  721   5.477   0.123   6.260
   20POPC   NC3  722   6.429   0.993   8.118
   20POPC   PO4  723   6.230   1.617   7.984
   20POPC   GL1  724   6.445   1.341   7.685
   20POPC   GL2  725   6.533   1.005   7.638
   20POPC   C1A  726   6.540   1.378   7.250
   20POPC   D2A  727   6.529   1.616   6.868
   20POPC   C3A  728   6.415   1.406   6.495
   20POPC   C4A  729   6.316   1.389   6.051
   20POPC   C1B  730   6.760   0.904   7.305
   20POPC   C2B  731   6.665   1.022   6.894
   20POPC   C3B  732   6.868   0.977   6.530
   20POPC   C4B  733   6.765   1.159   6.176
   21POPC   NC3  734   0.390   6.301   8.147
   21POPC   PO4  735   0.592   7.006   8.047
   21POPC   GL1  736   0.295   6.815   7.728
   21POPC   GL2  737   0.444   6.488   7.669
   21POPC   C1A  738   0.122   6.745   7.284
   21POPC   D2A  739   0.236   6.547   6.897
   21POPC   C3A  740   0.054   6.751   6.563
   21POPC   C4A  741   0.216   6.884   6.160
   21POPC   C1B  742   0.608   6.618   7.265
   21POPC   C2B  743   0.736   6.423   6.853
   21POPC   C3B  744   0.555   6.563   6.445
   21POPC   C4B  745   0.524   6.456   5.997
   22POPC   NC3  746   2.384   6.232   8.159
   22POPC   PO4  747   2.223   6.843   8.088
   22POPC   GL1  748   1.891   6.817   7.804
   22POPC   GL2  749   1.871   6.475   7.731
   22POPC   C1A  750   1.881   6.943   7.386
   22POPC   D2A  751   1.912   6.772   6.971
   22POPC   C3A  752   2.105   6.945   6.601
   22POPC   C4A  753   2.213   6.729   6.190
   22POPC   C1B  754   2.051   6.281   7.334
   22POPC   C2B  755   1.893   6.258   6.895
   22POPC   C3B  756   1.901   6.452   6.485
   22POPC   C4B  757   1.789   6.343   6.053
   23POPC   NC3  758  11.084   7.716   8.034
   23POPC   PO4  759  10.951   8.445   8.134
   23POPC   GL1  760  10.918   8.142   7.761
   23POPC   GL2  761  11.252   8.249   7.691
   23POPC   C1A  762  11.066   7.865   7.375
   23POPC   D2A  763  11.166   7.603   6.985
   23POPC   C3A  764  11.080   7.799   6.552
   23POPC   C4A  765  11.059   7.957   6.128
   23POPC   C1B  766  11.245   8.331   7.246
   23POPC   C2B  767  11.294   8.193   6.821
   23POPC   C3B  768  11.263   8.367   6.393
   23POPC   C4B  769  11.239   8.377   5.931
   24POPC   NC3  770   0.122   4.261   8.282
   24POPC   PO4  771   0.747   4.439   8.249
   24POPC   GL1  772   0.438   4.284   7.865
   24POPC   GL2  773   0.300   4.544   7.662
   24POPC   C1A  774   0.353   4.105   7.399
   24POPC   D2A  775   0.474   4.182   6.939
   24POPC   C3A  776   0.303   4.010   6.543
   24POPC   C4A  777   0.378   4.079   6.080
   24POPC   C1B  778   0.555   4.560   7.281
   24POPC   C2B  779   0.610   4.655   6.821
   24POPC   C3B  780   0.416   4.516   6.427
   24POPC   C4B  781   0.082   4.510   6.115
   25POPC   NC3  782   1.140   1.132   8.070
   25POPC   PO4  783   1.525   1.622   8.075
   25POPC   GL1  784   1.236   1.519   7.714
   25POPC   GL2  785   1.219   1.158   7.587
   25POPC   C1A  786   1.254   1.550   7.251
   25POPC   D2A  787   1.024   1.448   6.854
   25POPC   C3A  788   1.232   1.574   6.502
   25POPC   C4A  789   1.358   1.449   6.117
   25POPC   C1B  790   1.140   1.015   7.182
   25POPC   C2B  791   1.181   0.954   6.770
   25POPC   C3B  792   1.069   1.068   6.385
   25POPC   C4B  793   1.188   0.993   5.974
   26POPC   NC3  794   1.234   9.637   8.132
   26POPC   PO4  795   1.665   9.281   7.788
   26POPC   GL1  796   1.465   9.677   7.597
   26POPC   GL2  797   1.167   9.857   7.697
   26POPC   C1A  798   1.414   9.765   7.170
   26POPC   D2A  799   1.247   9.418   6.954
   26POPC   C3A  800   1.348   9.384   6.540
   26POPC   C4A  801   1.258   9.519   6.167
   26POPC   C1B  802   0.954   9.690   7.370
   26POPC   C2B  803   0.937   9.839   6.970
   26POPC   C3B  804   1.135   9.840   6.599
   26POPC   C4B  805   0.871   9.819   6.249
   27POPC   NC3  806   5.287   2.547   8.211
   27POPC   PO4  807   5.459   1.957   8.070
   27POPC   GL1  808   5.387   1.736   7.674
   27POPC   GL2  809   5.756   1.711   7.548
   27POPC   C1A  810   5.308   1.897   7.239
   27POPC   D2A  811   5.612   2.042   6.923
   27POPC   C3A  812   5.487   2.095   6.487
   27POPC   C4A  813   5.721   2.157   6.099
   27POPC   C1B  814   5.632   1.526   7.161
   27POPC   C2B  815   5.522   1.580   6.716
   27POPC   C3B  816   5.857   1.741   6.443
   27POPC   C4B  817   6.135   1.842   6.107
   28POPC   NC3  818   7.685   0.301   7.927
   28POPC   PO4  819   7.150  11.456   8.238
   28POPC   GL1  820   7.153   0.285   7.786
   28POPC   GL2  821   7.275   0.635   7.803
   28POPC   C1A  822   7.242   0.176   7.296
   28POPC   D2A  823   6.979   0.056   6.923
   28POPC   C3A  824   7.121  11.498   6.501
   28POPC   C4A  825   7.018   0.152   6.068
   28POPC   C1B  826   7.239   0.676   7.343
   28POPC   C2B  827   7.426   0.509   6.947
   28POPC   C3B  828   7.456   0.384   6.505
   28POPC   C4B  829   7.283   0.588   6.124
   29POPC   NC3  830   7.964   8.734   8.114
   29POPC   PO4  831   8.584   8.623   8.108
   29POPC   GL1  832   8.339   8.822   7.728
   29POPC   GL2  833   7.994   9.029   7.702
   29POPC   C1A  834   8.048   8.628   7.385
   29POPC   D2A  835   7.890   8.764   6.956
   29POPC   C3A  836   8.138   8.641   6.603
   29POPC   C4A  837   7.999   8.542   6.202
   29POPC   C1B  838   8.038   9.116   7.282
   29POPC   C2B  839   8.358   8.989   6.994
   29POPC   C3B  840   8.372   9.089   6.595
   29POPC   C4B  841   8.020   9.059   6.305
   30POPC   NC3  842   6.392   9.623   8.205
   30POPC   PO4  843   6.900   9.199   8.102
   30POPC   GL1  844   6.780   9.521   7.742
   30POPC   GL2  845   6.494   9.789   7.712
   30POPC   C1A  846   6.773   9.611   7.269
   30POPC   D2A  847   6.728   9.476   6.832
   30POPC   C3A  848   6.716   9.763   6.469
   30POPC   C4A  849   6.787   9.450   6.134
   30POPC   C1B  850   6.263   9.714   7.350
   30POPC   C2B  851   6.323   9.758   6.949
   30POPC   C3B  852   6.202   9.644   6.556
   30POPC   C4B  853   6.173   9.829   6.185
   31POPC   NC3  854   2.323   5.384   8.238
   31POPC   PO4  855   3.036   5.322   8.173
   31POPC   GL1  856   2.703   5.501   7.847
   31POPC   GL2  857   2.575   5.846   7.838
   31POPC   C1A  858   2.660   5.529   7.353
   31POPC   D2A  859   2.826   5.395   6.910
   31POPC   C3A  860   2.674   5.477   6.472
   31POPC   C4A  861   2.909   5.594   6.081
   31POPC   C1B  862   2.613   6.027   7.400
   31POPC   C2B  863   2.730   5.908   6.950
   31POPC   C3B  864   2.680   5.995   6.482
   31POPC   C4B  865   2.291   6.166   6.275
   32POPC   NC3  866   8.076   2.057   8.196
   32POPC   PO4  867   7.821   1.601   7.801
   32POPC   GL1  868   8.081   1.808   7.541
   32POPC   GL2  869   8.319   1.985   7.747
   32POPC   C1A  870   8.446   1.657   7.308
   32POPC   D2A  871   8.507   1.579   6.854
   32POPC   C3A  872   8.070   1.619   6.658
   32POPC   C4A  873   7.803   1.602   6.270
   32POPC   C1B  874   8.415   2.163   7.364
   32POPC   C2B  875   8.215   1.989   6.991
   32POPC   C3B  876   8.148   2.136   6.589
   32POPC   C4B  877   8.221   1.879   6.231
   33POPC   NC3  878   4.586  10.938   8.054
   33POPC   PO4  879   4.200  10.359   8.259
   33POPC   GL1  880   4.537  10.282   7.763
   33POPC   GL2  881   4.276  10.340   7.487
   33POPC   C1A  882   4.719  10.303   7.306
   33POPC   D2A  883   4.638  10.606   6.955
   33POPC   C3A  884   4.740  10.392   6.556
   33POPC   C4A  885   4.752  10.520   6.133
   33POPC   C1B  886   4.001  10.125   7.224
   33POPC   C2B  887   3.906   9.973   6.817
   33POPC   C3B  888   3.935  10.161   6.394
   33POPC   C4B  889   4.279  10.451   6.310
   34POPC   NC3  890   7.326   8.125   8.003
   34POPC   PO4  891   6.762   8.305   7.958
   34POPC   GL1  892   7.113   8.483   7.664
   34POPC   GL2  893   7.447   8.371   7.570
   34POPC   C1A  894   7.115   8.467   7.202
   34POPC   D2A  895   7.254   8.199   6.831
   34POPC   C3A  896   7.130   8.283   6.390
   34POPC   C4A  897   6.792   8.115   6.131
   34POPC   C1B  898   7.634   8.361   7.164
   34POPC   C2B  899   7.740   8.325   6.724
   34POPC   C3B  900   7.629   8.207   6.313
   34POPC   C4B  901   7.682   8.306   5.871
   35POPC   NC3  902   0.962   6.782   7.883
   35POPC   PO4  903   0.935   6.143   8.111
   35POPC   GL1  904   0.990   6.321   7.677
   35POPC   GL2  905   1.344   6.454   7.707
   35POPC   C1A  906   1.091   6.539   7.255
   35POPC   D2A  907   0.990   6.861   6.921
   35POPC   C3A  908   1.077   6.650   6.498
   35POPC   C4A  909   1.034   6.502   6.063
   35POPC   C1B  910   1.583   6.480   7.297
   35POPC   C2B  911   1.452   6.587   6.874
   35POPC   C3B  912   1.574   6.842   6.560
   35POPC   C4B  913   1.491   6.748   6.150
   36POPC   NC3  914   3.249   5.730   8.127
   36POPC   PO4  915   3.037   6.299   8.291
   36POPC   GL1  916   3.017   6.158   7.772
   36POPC   GL2  917   3.051   5.817   7.634
   36POPC   C1A  918   3.098   6.166   7.240
   36POPC   D2A  919   3.206   5.968   6.776
   36POPC   C3A  920   3.148   6.215   6.336
   36POPC   C4A  921   3.288   6.424   5.923
   36POPC   C1B  922   3.158   5.660   7.212
   36POPC   C2B  923   3.534   5.591   6.940
   36POPC   C3B  924   3.669   5.694   6.525
   36POPC   C4B  925   3.308   5.740   6.329
   37POPC   NC3  926   8.351   0.635   8.011
   37POPC   PO4  927   8.122   0.044   8.020
   37POPC   GL1  928   8.349   0.223   7.660
   37POPC   GL2  929   8.076   0.473   7.584
   37POPC   C1A  930   8.415   0.368   7.198
   37POPC   D2A  931   8.102   0.320   6.837
   37POPC   C3A  932   8.198   0.381   6.395
   37POPC   C4A  933   8.302   0.076   6.022
   37POPC   C1B  934   7.857   0.668   7.205
   37POPC   C2B  935   7.824   0.737   6.732
   37POPC   C3B  936   7.798   0.679   6.261
   37POPC   C4B  937   7.687   0.687   5.809
   38POPC   NC3  938   1.539   2.590   7.905
   38POPC   PO4  939   0.989   2.920   8.071
   38POPC   GL1  940   1.023   2.707   7.712
   38POPC   GL2  941   1.289   2.947   7.644
   38POPC   C1A  942   1.181   2.537   7.308
   38POPC   D2A  943   1.301   2.670   6.900
   38POPC   C3A  944   1.364   2.462   6.503
   38POPC   C4A  945   1.371   2.640   6.088
   38POPC   C1B  946   1.012   3.099   7.350
   38POPC   C2B  947   0.882   2.977   6.965
   38POPC   C3B  948   1.067   3.028   6.594
   38POPC   C4B  949   0.886   2.904   6.215
   39POPC   NC3  950   0.569   2.710   8.115
   39POPC   PO4  951   0.731   2.105   7.976
   39POPC   GL1  952   0.545   2.431   7.692
   39POPC   GL2  953   0.263   2.683   7.694
   39POPC   C1A  954   0.662   2.670   7.339
   39POPC   D2A  955   0.783   2.432   6.991
   39POPC   C3A  956   0.886   2.561   6.598
   39POPC   C4A  957   0.894   2.400   6.152
   39POPC   C1B  958   0.151   2.756   7.246
   39POPC   C2B  959   0.391   2.752   6.868
   39POPC   C3B  960   0.438   2.744   6.431
   39POPC   C4B  961   0.109   2.754   6.129
   40POPC   NC3  962   5.002   1.804   8.094
   40POPC   PO4  963   4.762   2.475   8.157
   40POPC   GL1  964   4.922   2.240   7.781
   40POPC   GL2  965   4.714   1.984   7.705
   40POPC   C1A  966   4.887   2.211   7.282
   40POPC   D2A  967   5.123   2.223   6.854
   40POPC   C3A  968   5.013   2.311   6.397
   40POPC   C4A  969   5.271   2.428   6.025
   40POPC   C1B  970   4.870   1.672   7.390
   40POPC   C2B  971   4.845   1.813   6.941
   40POPC   C3B  972   5.037   1.819   6.535
   40POPC   C4B  973   4.848   1.690   6.144
   41POPC   NC3  974   8.869  10.611   8.048
   41POPC   PO4  975   8.357  10.126   8.226
   41POPC   GL1  976   8.450  10.424   7.832
   41POPC   GL2  977   8.759  10.350   7.632
   41POPC   C1A  978   8.367  10.473   7.337
   41POPC   D2A  979   8.523  10.260   6.913
   41POPC   C3A  980   8.571  10.510   6.501
   41POPC   C4A  981   8.488  10.650   6.029
   41POPC   C1B  982   8.905  10.174   7.251
   41POPC   C2B  983   9.033  10.297   6.824
   41POPC   C3B  984   8.917  10.160   6.414
   41POPC   C4B  985   8.950  10.436   6.107
   42POPC   NC3  986   7.498   2.232   8.017
   42POPC   PO4  987   7.792   1.717   8.320
   42POPC   GL1  988   7.375   1.752   7.864
   42POPC   GL2  989   7.562   1.987   7.591
   42POPC   C1A  990   7.402   1.623   7.316
   42POPC   D2A  991   7.721   1.863   6.984
   42POPC   C3A  992   7.655   2.008   6.504
   42POPC   C4A  993   7.358   1.857   6.161
   42POPC   C1B  994   7.323   2.111   7.219
   42POPC   C2B  995   7.252   1.955   6.803
   42POPC   C3B  996   7.173   2.232   6.452
   42POPC   C4B  997   6.946   2.147   6.055
   43POPC   NC3  998   7.566   1.237   7.937
   43POPC   PO4  999   6.882   1.254   8.044
   43POPC   GL1 1000   6.964   1.387   7.629
   43POPC   GL2 1001   7.194   1.122   7.612
   43POPC   C1A 1002   7.030   1.316   7.179
   43POPC   D2A 1003   6.989   1.434   6.771
   43POPC   C3A 1004   7.255   1.416   6.425
   43POPC   C4A 1005   7.155   1.434   5.975
   43POPC   C1B 1006   7.491   1.105   7.269
   43POPC   C2B 1007   7.283   0.991   6.891
   43POPC   C3B 1008   7.379   0.903   6.506
   43POPC   C4B 1009   7.474   1.065   6.109
   44POPC   NC3 1010   1.922   9.681   7.810
   44POPC   PO4 1011   2.335   9.169   8.001
   44POPC   GL1 1012   2.325   9.415   7.638
   44POPC   GL2 1013   2.076   9.236   7.481
   44POPC   C1A 1014   2.357   9.606   7.206
   44POPC   D2A 1015   2.303   9.333   6.845
   44POPC   C3A 1016   2.112   9.446   6.465
   44POPC   C4A 1017   2.133   9.752   6.153
   44POPC   C1B 1018   1.847   9.277   7.091
   44POPC   C2B 1019   1.743   9.610   6.794
   44POPC   C3B 1020   1.662   9.756   6.385
   44POPC   C4B 1021   1.691   9.911   5.984
   45POPC   NC3 1022  11.057   3.479   8.018
   45POPC   PO4 1023   0.093   3.218   7.742
   45POPC   GL1 1024  11.180   3.443   7.536
   45POPC   GL2 1025  11.076   3.830   7.666
   45POPC   C1A 1026  10.867   3.675   7.239
   45POPC   D2A 1027  10.761   3.531   6.845
   45POPC   C3A 1028  11.063   3.237   6.673
   45POPC   C4A 1029  11.055   3.184   6.231
   45POPC   C1B 1030  11.379   3.865   7.338
   45POPC   C2B 1031  11.286   3.697   6.930
   45POPC   C3B 1032  11.134   3.726   6.511
   45POPC   C4B 1033  11.472   3.525   6.283
   46POPC   NC3 1034   8.822   8.230   8.012
   46POPC   PO4 1035   8.473   7.762   7.799
   46POPC   GL1 1036   8.836   7.909   7.571
   46POPC   GL2 1037   8.816   8.254   7.498
   46POPC   C1A 1038   8.989   7.848   7.143
   46POPC   D2A 1039   9.103   7.950   6.699
   46POPC   C3A 1040   8.931   7.773   6.303
   46POPC   C4A 1041   8.662   7.752   5.895
   46POPC   C1B 1042   8.834   8.343   7.049
   46POPC   C2B 1043   9.164   8.462   6.774
   46POPC   C3B 1044   9.126   8.334   6.344
   46POPC   C4B 1045   8.931   8.167   5.977
   47POPC   NC3 1046   1.389   8.288   8.045
   47POPC   PO4 1047   0.932   7.890   8.051
   47POPC   GL1 1048   1.092   8.029   7.667
   47POPC   GL2 1049   0.961   7.732   7.538
   47POPC   C1A 1050   1.287   8.228   7.289
   47POPC   D2A 1051   1.267   8.520   6.940
   47POPC   C3A 1052   1.327   8.437   6.487
   47POPC   C4A 1053   1.081   8.333   6.112
   47POPC   C1B 1054   1.228   7.712   7.174
   47POPC   C2B 1055   1.316   7.991   6.816
   47POPC   C3B 1056   1.263   7.943   6.381
   47POPC   C4B 1057   1.478   7.723   6.117
   48POPC   NC3 1058   0.616  10.422   8.088
   48POPC   PO4 1059   0.078  10.058   8.238
   48POPC   GL1 1060   0.292  10.130   7.783
   48POPC   GL2 1061   0.364  10.490   7.661
   48POPC   C1A 1062   0.617  10.115   7.407
   48POPC   D2A 1063   0.471  10.036   6.970
   48POPC   C3A 1064   0.732  10.182   6.632
   48POPC   C4A 1065   0.731  10.373   6.240
   48POPC   C1B 1066   0.220  10.408   7.259
   48POPC   C2B 1067   0.360  10.527   6.870
   48POPC   C3B 1068   0.284  10.446   6.464
   48POPC   C4B 1069   0.225  10.765   6.186
   49POPC   NC3 1070   1.152   3.342   8.108
   49POPC   PO4 1071   0.758   3.880   7.916
   49POPC   GL1 1072   1.149   3.804   7.668
   49POPC   GL2 1073   1.312   3.483   7.651
   49POPC   C1A 1074   1.272   3.732   7.216
   49POPC   D2A 1075   1.101   3.473   6.876
   49POPC   C3A 1076   1.111   3.701   6.461
   49POPC   C4A 1077   1.128   3.619   6.012
   49POPC   C1B 1078   1.515   3.270   7.325
   49POPC   C2B 1079   1.489   3.133   6.927
   49POPC   C3B 1080   1.473   3.340   6.543
   49POPC   C4B 1081   1.300   3.188   6.180
   50POPC   NC3 1082   1.876   7.108   8.221
   50POPC   PO4 1083   1.265   7.042   8.096
   50POPC   GL1 1084   1.399   6.993   7.679
   50POPC   GL2 1085   1.280   7.349   7.677
   50POPC   C1A 1086   1.403   6.962   7.224
   50POPC   D2A 1087   1.334   7.270   6.913
   50POPC   C3A 1088   1.172   7.153   6.521
   50POPC   C4A 1089   1.392   7.238   6.160
   50POPC   C1B 1090   1.004   7.240   7.364
   50POPC   C2B 1091   0.821   7.385   6.997
   50POPC   C3B 1092   1.003   7.613   6.665
   50POPC   C4B 1093   0.977   7.531   6.226
   51POPC   NC3 1094   3.435   9.491   8.247
   51POPC   PO4 1095   3.449  10.132   8.159
   51POPC   GL1 1096   3.503   9.930   7.774
   51POPC   GL2 1097   3.662   9.622   7.758
   51POPC   C1A 1098   3.536   9.938   7.337
   51POPC   D2A 1099   3.240   9.826   7.029
   51POPC   C3A 1100   3.449   9.801   6.661
   51POPC   C4A 1101   3.478   9.967   6.281
   51POPC   C1B 1102   3.461   9.431   7.371
   51POPC   C2B 1103   3.319   9.335   6.916
   51POPC   C3B 1104   3.500   9.333   6.460
   51POPC   C4B 1105   3.794   9.285   6.090
   52POPC   NC3 1106   8.959   3.309   8.219
   52POPC   PO4 1107   9.135   3.878   8.110
   52POPC   GL1 1108   9.240   3.612   7.735
   52POPC   GL2 1109   8.990   3.335   7.713
   52POPC   C1A 1110   9.111   3.608   7.284
   52POPC   D2A 1111   8.851   3.543   6.903
   52POPC   C3A 1112   8.973   3.644   6.468
   52POPC   C4A 1113   8.860   3.836   6.067
   52POPC   C1B 1114   8.863   3.150   7.316
   52POPC   C2B 1115   9.039   3.072   6.918
   52POPC   C3B 1116   8.775   3.139   6.578
   52POPC   C4B 1117   8.651   3.353   6.179
   53POPC   NC3 1118   1.711   5.294   7.981
   53POPC   PO4 1119   2.168   5.818   8.173
   53POPC   GL1 1120   2.120   5.589   7.762
   53POPC   GL2 1121   1.764   5.683   7.650
   53POPC   C1A 1122   2.129   5.717   7.293
   53POPC   D2A 1123   1.903   5.736   6.881
   53POPC   C3A 1124   2.156   5.700   6.491
   53POPC   C4A 1125   2.010   5.482   6.099
   53POPC   C1B 1126   1.635   5.956   7.290
   53POPC   C2B 1127   1.403   6.087   6.915
   53POPC   C3B 1128   1.460   6.194   6.492
   53POPC   C4B 1129   1.732   5.892   6.277
   54POPC   NC3 1130  11.086   9.778   8.154
   54POPC   PO4 1131   0.043   9.250   8.096
   54POPC   GL1 1132  11.435   9.457   7.669
   54POPC   GL2 1133  11.081   9.593   7.686
   54POPC   C1A 1134  11.272   9.605   7.224
   54POPC   D2A 1135  11.290   9.851   6.822
   54POPC   C3A 1136  11.449   9.620   6.477
   54POPC   C4A 1137  11.473   9.637   6.045
   54POPC   C1B 1138  10.864   9.877   7.379
   54POPC   C2B 1139  10.804   9.714   6.931
   54POPC   C3B 1140  10.922   9.590   6.497
   54POPC   C4B 1141  11.117   9.288   6.233
   55POPC   NC3 1142  10.774   5.080   8.066
   55POPC   PO4 1143  10.174   5.443   8.127
   55POPC   GL1 1144  10.244   5.274   7.710
   55POPC   GL2 1145  10.442   4.972   7.676
   55POPC   C1A 1146  10.377   5.391   7.292
   55POPC   D2A 1147  10.488   5.252   6.870
   55POPC   C3A 1148  10.184   5.265   6.546
   55POPC   C4A 1149  10.196   4.935   6.246
   55POPC   C1B 1150  10.624   4.841   7.281
   55POPC   C2B 1151  10.635   4.761   6.847
   55POPC   C3B 1152  10.675   4.880   6.420
   55POPC   C4B 1153  10.573   4.684   6.012
   56POPC   NC3 1154   5.937   0.463   8.079
   56POPC   PO4 1155   5.279   0.317   8.286
   56POPC   GL1 1156   5.446   0.487   7.800
   56POPC   GL2 1157   5.688   0.745   7.742
   56POPC   C1A 1158   5.765   0.386   7.393
   56POPC   D2A 1159   5.730   0.242   6.935
   56POPC   C3A 1160   6.055   0.216   6.597
   56POPC   C4A 1161   5.992   0.116   6.156
   56POPC   C1B 1162   6.081   0.807   7.476
   56POPC   C2B 1163   6.128   0.894   7.023
   56POPC   C3B 1164   5.860   0.724   6.691
   56POPC   C4B 1165   5.782   0.562   6.288
   57POPC   NC3 1166   9.543  10.911   8.197
   57POPC   PO4 1167   9.225  10.574   7.721
   57POPC   GL1 1168   9.468  10.974   7.654
   57POPC   GL2 1169   9.512  11.360   7.690
   57POPC   C1A 1170   9.468  11.136   7.218
   57POPC   D2A 1171   9.715  11.009   6.850
   57POPC   C3A 1172   9.518  10.968   6.439
   57POPC   C4A 1173   9.765  11.021   6.051
   57POPC   C1B 1174   9.793   0.004   7.347
   57POPC   C2B 1175   9.656   0.036   6.880
   57POPC   C3B 1176   9.675  11.449   6.422
   57POPC   C4B 1177   9.770   0.014   5.981
   58POPC   NC3 1178  10.548   8.314   8.330
   58POPC   PO4 1179   9.975   8.470   7.918
   58POPC   GL1 1180  10.061   8.263   7.580
   58POPC   GL2 1181  10.224   7.946   7.678
   58POPC   C1A 1182  10.154   8.192   7.173
   58POPC   D2A 1183  10.338   8.066   6.807
   58POPC   C3A 1184  10.274   8.310   6.469
   58POPC   C4A 1185  10.275   8.184   6.043
   58POPC   C1B 1186  10.567   7.982   7.371
   58POPC   C2B 1187  10.796   8.186   7.034
   58POPC   C3B 1188  10.791   8.247   6.591
   58POPC   C4B 1189  10.596   7.928   6.332
   59POPC   NC3 1190   4.632   1.209   8.053
   59POPC   PO4 1191   4.125   0.759   8.092
   59POPC   GL1 1192   4.011   1.035   7.752
   59POPC   GL2 1193   4.351   1.032   7.654
   59POPC   C1A 1194   3.891   0.932   7.321
   59POPC   D2A 1195   4.130   0.943   6.937
   59POPC   C3A 1196   3.995   0.949   6.544
   59POPC   C4A 1197   4.311   1.149   6.401
   59POPC   C1B 1198   4.274   1.284   7.289
   59POPC   C2B 1199   4.522   1.425   6.953
   59POPC   C3B 1200   4.576   1.540   6.551
   59POPC   C4B 1201   4.171   1.657   6.361
   60POPC   NC3 1202   1.351   4.844   8.198
   60POPC   PO4 1203   2.044   5.023   8.157
   60POPC   GL1 1204   2.032   4.937   7.715
   60POPC   GL2 1205   1.879   5.191   7.524
   60POPC   C1A 1206   1.999   4.747   7.306
   60POPC   D2A 1207   1.899   5.041   6.968
   60POPC   C3A 1208   1.858   4.820   6.580
   60POPC   C4A 1209   1.820   5.017   6.191
   60POPC   C1B 1210   2.251   5.221   7.313
   60POPC   C2B 1211   2.307   5.376   6.885
   60POPC   C3B 1212   2.230   5.194   6.463
   60POPC   C4B 1213   2.465   5.206   6.055
   61POPC   NC3 1214   9.803   5.152   8.220
   61POPC   PO4 1215   9.757   4.488   8.027
   61POPC   GL1 1216   9.936   4.838   7.747
   61POPC   GL2 1217   9.739   5.158   7.715
   61POPC   C1A 1218  10.050   4.989   7.305
   61POPC   D2A 1219  10.124   4.859   6.861
   61POPC   C3A 1220   9.790   4.934   6.524
   61POPC   C4A 1221   9.623   4.785   6.137
   61POPC   C1B 1222   9.546   5.090   7.312
   61POPC   C2B 1223   9.546   5.215   6.864
   61POPC   C3B 1224   9.365   5.215   6.435
   61POPC   C4B 1225   9.395   5.213   5.986
   62POPC   NC3 1226  11.339  11.084   7.924
   62POPC   PO4 1227  10.805  11.448   8.107
   62POPC   GL1 1228  11.092  11.495   7.753
   62POPC   GL2 1229  10.817  11.430   7.556
   62POPC   C1A 1230  11.300   0.042   7.347
   62POPC   D2A 1231  11.050   0.040   6.979
   62POPC   C3A 1232  11.304  11.482   6.621
   62POPC   C4A 1233  11.216   0.022   6.193
   62POPC   C1B 1234  11.009  11.118   7.307
   62POPC   C2B 1235  11.139  11.042   6.887
   62POPC   C3B 1236  11.227  10.982   6.455
   62POPC   C4B 1237  10.976  10.754   6.117
   63POPC   NC3 1238  10.204   3.394   8.233
   63POPC   PO4 1239  10.678   3.315   7.772
   63POPC   GL1 1240  10.300   3.296   7.576
   63POPC   GL2 1241  10.194   3.601   7.753
   63POPC   C1A 1242  10.326   3.307   7.112
   63POPC   D2A 1243  10.270   3.382   6.659
   63POPC   C3A 1244  10.630   3.497   6.353
   63POPC   C4A 1245  10.635   3.337   5.926
   63POPC   C1B 1246  10.156   3.771   7.349
   63POPC   C2B 1247  10.330   3.795   6.939
   63POPC   C3B 1248  10.179   3.895   6.546
   63POPC   C4B 1249  10.237   3.717   6.130
   64POPC   NC3 1250   6.726   0.066   8.347
   64POPC   PO4 1251   6.397   0.533   8.086
   64POPC   GL1 1252   6.265   0.388   7.682
   64POPC   GL2 1253   6.529   0.178   7.648
   64POPC   C1A 1254   6.262   0.382   7.214
   64POPC   D2A 1255   6.511   0.285   6.836
   64POPC   C3A 1256   6.423   0.608   6.526
   64POPC   C4A 1257   6.266   0.532   6.118
   64POPC   C1B 1258   6.777   0.385   7.318
   64POPC   C2B 1259   6.928   0.578   6.924
   64POPC   C3B 1260   6.924   0.466   6.494
   64POPC   C4B 1261   6.770   0.649   6.109
   65POPC   NC3 1262   4.664  10.366   8.242
   65POPC   PO4 1263   4.997  10.963   8.286
   65POPC   GL1 1264   4.954  10.622   7.868
   65POPC   GL2 1265   4.768  10.740   7.552
   65POPC   C1A 1266   5.181  10.421   7.470
   65POPC   D2A 1267   5.108  10.444   6.970
   65POPC   C3A 1268   5.178  10.122   6.638
   65POPC   C4A 1269   5.049  10.109   6.181
   65POPC   C1B 1270   5.159  10.875   7.262
   65POPC   C2B 1271   5.321  10.892   6.807
   65POPC   C3B 1272   5.174  10.671   6.411
   65POPC   C4B 1273   5.229  10.575   5.937
   66POPC   NC3 1274  11.499   5.435   8.114
   66POPC   PO4 1275   0.018   4.698   8.107
   66POPC   GL1 1276  11.192   4.837   7.853
   66POPC   GL2 1277  11.176   5.205   7.769
   66POPC   C1A 1278  11.123   4.819   7.417
   66POPC   D2A 1279  11.101   4.613   7.020
   66POPC   C3A 1280  11.147   4.863   6.661
   66POPC   C4A 1281  11.149   4.748   6.253
   66POPC   C1B 1282  10.848   5.268   7.451
   66POPC   C2B 1283  10.961   5.154   7.033
   66POPC   C3B 1284  10.939   5.346   6.615
   66POPC   C4B 1285  10.615   5.382   6.305
   67POPC   NC3 1286   7.924  10.292   8.126
   67POPC   PO4 1287   8.449   9.943   7.731
   67POPC   GL1 1288   8.051  10.155   7.638
   67POPC   GL2 1289   7.982  10.548   7.696
   67POPC   C1A 1290   7.858  10.310   7.246
   67POPC   D2A 1291   8.046  10.444   6.863
   67POPC   C3A 1292   8.169  10.154   6.546
   67POPC   C4A 1293   7.828  10.235   6.322
   67POPC   C1B 1294   7.786  10.780   7.390
   67POPC   C2B 1295   7.669  10.794   6.948
   67POPC   C3B 1296   7.938  10.899   6.639
   67POPC   C4B 1297   8.116  10.660   6.357
   68POPC   NC3 1298   4.558   2.835   8.462
   68POPC   PO4 1299   4.003   2.587   8.103
   68POPC   GL1 1300   4.201   2.648   7.696
   68POPC   GL2 1301   4.009   2.945   7.641
   68POPC   C1A 1302   4.497   2.590   7.309
   68POPC   D2A 1303   4.534   2.318   6.924
   68POPC   C3A 1304   4.585   2.555   6.536
   68POPC   C4A 1305   4.476   2.440   6.113
   68POPC   C1B 1306   3.992   2.742   7.227
   68POPC   C2B 1307   4.176   2.768   6.792
   68POPC   C3B 1308   4.157   2.791   6.322
   68POPC   C4B 1309   4.425   2.947   5.978
   69POPC   NC3 1310   1.385   6.215   8.192
   69POPC   PO4 1311   1.228   5.573   7.979
   69POPC   GL1 1312   1.251   5.880   7.668
   69POPC   GL2 1313   1.294   5.609   7.452
   69POPC   C1A 1314   1.042   6.015   7.253
   69POPC   D2A 1315   0.898   5.879   6.807
   69POPC   C3A 1316   0.943   6.131   6.416
   69POPC   C4A 1317   0.821   6.051   5.961
   69POPC   C1B 1318   1.588   5.438   7.186
   69POPC   C2B 1319   1.386   5.575   6.819
   69POPC   C3B 1320   1.259   5.708   6.419
   69POPC   C4B 1321   1.508   5.422   6.210
   70POPC   NC3 1322   3.519   0.099   8.136
   70POPC   PO4 1323   3.335  10.836   8.117
   70POPC   GL1 1324   3.515  10.960   7.708
   70POPC   GL2 1325   3.582  11.319   7.705
   70POPC   C1A 1326   3.782  10.993   7.323
   70POPC   D2A 1327   3.918  11.273   6.994
   70POPC   C3A 1328   3.763  11.137   6.580
   70POPC   C4A 1329   3.756  11.222   6.129
   70POPC   C1B 1330   3.334  11.304   7.316
   70POPC   C2B 1331   3.153  11.371   6.889
   70POPC   C3B 1332   3.302  11.340   6.436
   70POPC   C4B 1333   3.356  10.902   6.272
   71POPC   NC3 1334  11.130   4.451   8.244
   71POPC   PO4 1335  11.433   3.902   8.028
   71POPC   GL1 1336  11.377   4.283   7.790
   71POPC   GL2 1337  11.036   4.359   7.733
   71POPC   C1A 1338  11.444   4.416   7.352
   71POPC   D2A 1339  11.474   4.206   6.965
   71POPC   C3A 1340  11.385   4.325   6.549
   71POPC   C4A 1341  11.386   4.035   6.187
   71POPC   C1B 1342  10.998   4.202   7.327
   71POPC   C2B 1343  10.982   4.113   6.901
   71POPC   C3B 1344  10.894   4.419   6.565
   71POPC   C4B 1345  10.951   4.286   6.158
   72POPC   NC3 1346   9.364   4.267   8.071
   72POPC   PO4 1347   9.998   3.874   8.165
   72POPC   GL1 1348   9.815   3.954   7.749
   72POPC   GL2 1349   9.976   4.203   7.558
   72POPC   C1A 1350   9.600   3.823   7.357
   72POPC   D2A 1351   9.344   3.908   6.951
   72POPC   C3A 1352   9.439   3.893   6.505
   72POPC   C4A 1353   9.784   4.046   6.272
   72POPC   C1B 1354   9.740   4.555   7.358
   72POPC   C2B 1355   9.648   4.687   6.949
   72POPC   C3B 1356   9.613   4.455   6.553
   72POPC   C4B 1357   9.328   4.345   6.237
   73POPC   NC3 1358   2.707   8.051   8.038
   73POPC   PO4 1359   2.128   7.526   8.241
   73POPC   GL1 1360   2.077   7.457   7.811
   73POPC   GL2 1361   1.791   7.322   7.752
   73POPC   C1A 1362   2.133   7.513   7.346
   73POPC   D2A 1363   2.214   7.705   6.902
   73POPC   C3A 1364   2.199   7.506   6.487
   73POPC   C4A 1365   1.990   7.617   6.115
   73POPC   C1B 1366   1.643   7.400   7.333
   73POPC   C2B 1367   1.853   7.299   6.949
   73POPC   C3B 1368   1.721   7.328   6.535
   73POPC   C4B 1369   1.876   7.111   6.177
   74POPC   NC3 1370  10.635   1.290   8.356
   74POPC   PO4 1371  10.195   0.877   8.033
   74POPC   GL1 1372  10.377   1.161   7.742
   74POPC   GL2 1373  10.235   1.471   7.748
   74POPC   C1A 1374  10.383   1.114   7.326
   74POPC   D2A 1375  10.023   0.965   7.090
   74POPC   C3A 1376  10.046   1.052   6.654
   74POPC   C4A 1377  10.439   1.036   6.372
   74POPC   C1B 1378  10.144   1.553   7.309
   74POPC   C2B 1379  10.304   1.410   6.909
   74POPC   C3B 1380  10.245   1.503   6.473
   74POPC   C4B 1381  10.382   1.447   6.018
   75POPC   NC3 1382   0.546   4.777   8.018
   75POPC   PO4 1383   0.454   5.485   7.924
   75POPC   GL1 1384   0.514   5.136   7.656
   75POPC   GL2 1385   0.168   5.034   7.714
   75POPC   C1A 1386   0.624   5.064   7.227
   75POPC   D2A 1387   0.389   5.127   6.841
   75POPC   C3A 1388   0.590   5.058   6.473
   75POPC   C4A 1389   0.867   4.768   6.355
   75POPC   C1B 1390   0.137   4.883   7.273
   75POPC   C2B 1391   0.100   4.704   6.844
   75POPC   C3B 1392   0.103   4.935   6.424
   75POPC   C4B 1393   0.265   5.330   6.180
   76POPC   NC3 1394   0.928   7.402   8.100
   76POPC   PO4 1395   0.404   7.695   8.370
   76POPC   GL1 1396   0.533   7.638   7.862
   76POPC   GL2 1397   0.419   7.340   7.700
   76POPC   C1A 1398   0.497   7.689   7.366
   76POPC   D2A 1399   0.310   7.515   7.020
   76POPC   C3A 1400   0.507   7.630   6.644
   76POPC   C4A 1401   0.463   7.522   6.245
   76POPC   C1B 1402   0.515   7.118   7.354
   76POPC   C2B 1403   0.455   7.003   6.955
   76POPC   C3B 1404   0.396   7.133   6.576
   76POPC   C4B 1405   0.697   7.062   6.272
   77POPC   NC3 1406   2.060   4.450   7.994
   77POPC   PO4 1407   1.515   4.012   8.067
   77POPC   GL1 1408   1.660   4.216   7.679
   77POPC   GL2 1409   1.996   4.237   7.529
   77POPC   C1A 1410   1.593   4.366   7.239
   77POPC   D2A 1411   1.760   4.097   6.898
   77POPC   C3A 1412   1.603   4.154   6.462
   77POPC   C4A 1413   1.696   4.511   6.192
   77POPC   C1B 1414   2.206   3.981   7.180
   77POPC   C2B 1415   2.317   4.067   6.749
   77POPC   C3B 1416   2.109   4.325   6.431
   77POPC   C4B 1417   2.222   4.719   6.196
   78POPC   NC3 1418   7.138  10.266   8.031
   78POPC   PO4 1419   7.608  10.697   8.154
   78POPC   GL1 1420   7.452  10.566   7.727
   78POPC   GL2 1421   7.550  10.250   7.668
   78POPC   C1A 1422   7.287  10.710   7.282
   78POPC   D2A 1423   7.074  10.648   6.857
   78POPC   C3A 1424   7.394  10.522   6.547
   78POPC   C4A 1425   7.620  10.787   6.274
   78POPC   C1B 1426   7.321  10.218   7.332
   78POPC   C2B 1427   7.233  10.188   6.925
   78POPC   C3B 1428   7.218  10.039   6.507
   78POPC   C4B 1429   7.068  10.158   6.143
   79POPC   NC3 1430   1.988   1.113   8.078
   79POPC   PO4 1431   2.269   1.590   7.831
   79POPC   GL1 1432   2.052   1.326   7.572
   79POPC   GL2 1433   1.720   1.330   7.693
   79POPC   C1A 1434   2.138   1.144   7.154
   79POPC   D2A 1435   2.309   0.945   6.764
   79POPC   C3A 1436   2.115   1.179   6.399
   79POPC   C4A 1437   2.238   1.476   6.083
   79POPC   C1B 1438   1.635   1.128   7.299
   79POPC   C2B 1439   1.527   1.288   6.905
   79POPC   C3B 1440   1.575   1.166   6.493
   79POPC   C4B 1441   1.679   0.998   6.123
   80POPC   NC3 1442  10.411   9.091   8.195
   80POPC   PO4 1443  10.645   9.701   8.282
   80POPC   GL1 1444  10.574   9.695   7.802
   80POPC   GL2 1445  10.215   9.768   7.701
   80POPC   C1A 1446  10.508   9.531   7.339
   80POPC   D2A 1447  10.293   9.618   6.922
   80POPC   C3A 1448  10.371   9.589   6.467
   80POPC   C4A 1449  10.592   9.893   6.216
   80POPC   C1B 1450  10.171   9.967   7.286
   80POPC   C2B 1451   9.968  10.021   6.852
   80POPC   C3B 1452  10.140  10.101   6.399
   80POPC   C4B 1453  10.166   9.907   5.939
   81POPC   NC3 1454   1.816   3.664   8.007
   81POPC   PO4 1455   2.398   4.002   8.001
   81POPC   GL1 1456   2.172   3.776   7.653
   81POPC   GL2 1457   2.101   3.433   7.657
   81POPC   C1A 1458   1.799   3.725   7.344
   81POPC   D2A 1459   1.764   3.563   6.913
   81POPC   C3A 1460   1.960   3.780   6.547
   81POPC   C4A 1461   2.301   3.867   6.260
   81POPC   C1B 1462   2.016   3.235   7.259
   81POPC   C2B 1463   1.990   3.052   6.857
   81POPC   C3B 1464   1.976   3.275   6.492
   81POPC   C4B 1465   1.760   3.523   6.164
   82POPC   NC3 1466  10.338   2.145   8.017
   82POPC   PO4 1467   9.853   1.700   8.029
   82POPC   GL1 1468   9.734   1.736   7.621
   82POPC   GL2 1469   9.372   1.593   7.594
   82POPC   C1A 1470   9.926   2.014   7.286
   82POPC   D2A 1471  10.106   1.890   6.889
   82POPC   C3A 1472   9.854   1.849   6.479
   82POPC   C4A 1473   9.936   1.685   6.093
   82POPC   C1B 1474   9.461   1.825   7.209
   82POPC   C2B 1475   9.648   2.079   6.864
   82POPC   C3B 1476   9.610   2.349   6.479
   82POPC   C4B 1477   9.398   2.366   6.067
   83POPC   NC3 1478   0.814   5.687   8.181
   83POPC   PO4 1479   0.185   5.856   8.243
   83POPC   GL1 1480   0.220   5.947   7.780
   83POPC   GL2 1481   0.583   5.984   7.749
   83POPC   C1A 1482   0.214   5.750   7.345
   83POPC   D2A 1483   0.538   5.570   7.065
   83POPC   C3A 1484   0.465   5.581   6.614
   83POPC   C4A 1485   0.739   5.662   6.277
   83POPC   C1B 1486   0.545   6.122   7.307
   83POPC   C2B 1487   0.388   6.044   6.881
   83POPC   C3B 1488   0.436   6.057   6.416
   83POPC   C4B 1489   0.107   5.821   6.236
   84POPC   NC3 1490  10.367  10.085   8.103
   84POPC   PO4 1491  10.040  10.727   8.073
   84POPC   GL1 1492  10.187  10.415   7.710
   84POPC   GL2 1493  10.506  10.189   7.632
   84POPC   C1A 1494  10.323  10.504   7.276
   84POPC   D2A 1495  10.265  10.804   6.946
   84POPC   C3A 1496  10.248  10.639   6.550
   84POPC   C4A 1497  10.198  10.765   6.120
   84POPC   C1B 1498  10.833  10.411   7.412
   84POPC   C2B 1499  10.795  10.700   7.066
   84POPC   C3B 1500  10.813  10.672   6.613
   84POPC   C4B 1501  10.599  10.437   6.252
   85POPC   NC3 1502   4.419   0.459   7.891
   85POPC   PO4 1503   4.014  11.482   8.104
   85POPC   GL1 1504   3.945   0.193   7.676
   85POPC   GL2 1505   4.001   0.543   7.626
   85POPC   C1A 1506   4.029   0.255   7.198
   85POPC   D2A 1507   3.920   0.498   6.804
   85POPC   C3A 1508   4.032   0.317   6.385
   85POPC   C4A 1509   4.144   0.380   5.957
   85POPC   C1B 1510   4.331   0.665   7.305
   85POPC   C2B 1511   4.423   0.512   6.937
   85POPC   C3B 1512   4.399   0.646   6.531
   85POPC   C4B 1513   4.610   0.553   6.182
   86POPC   NC3 1514   1.944   1.814   8.078
   86POPC   PO4 1515   1.988   2.480   7.856
   86POPC   GL1 1516   2.075   2.224   7.571
   86POPC   GL2 1517   1.952   1.872   7.557
   86POPC   C1A 1518   2.128   2.323   7.147
   86POPC   D2A 1519   2.001   2.051   6.821
   86POPC   C3A 1520   2.065   2.221   6.409
   86POPC   C4A 1521   1.850   2.469   6.122
   86POPC   C1B 1522   1.824   1.621   7.200
   86POPC   C2B 1523   1.956   1.513   6.767
   86POPC   C3B 1524   1.812   1.608   6.343
   86POPC   C4B 1525   1.916   1.891   6.006
   87POPC   NC3 1526   9.566   3.721   8.134
   87POPC   PO4 1527   9.811   3.153   8.243
   87POPC   GL1 1528   9.754   3.334   7.801
   87POPC   GL2 1529   9.457   3.149   7.821
   87POPC   C1A 1530   9.845   3.374   7.304
   87POPC   D2A 1531   9.835   3.711   6.908
   87POPC   C3A 1532   9.806   3.547   6.471
   87POPC   C4A 1533   9.822   3.135   6.482
   87POPC   C1B 1534   9.375   3.188   7.385
   87POPC   C2B 1535   9.449   3.371   6.957
   87POPC   C3B 1536   9.327   3.282   6.538
   87POPC   C4B 1537   9.356   3.447   6.145
   88POPC   NC3 1538   8.829   9.045   8.153
   88POPC   PO4 1539   9.229   8.475   8.057
   88POPC   GL1 1540   8.920   8.697   7.739
   88POPC   GL2 1541   8.879   9.069   7.658
   88POPC   C1A 1542   8.698   8.755   7.324
   88POPC   D2A 1543   8.848   8.837   6.896
   88POPC   C3A 1544   8.691   8.664   6.518
   88POPC   C4A 1545   8.439   8.819   6.168
   88POPC   C1B 1546   8.980   9.214   7.229
   88POPC   C2B 1547   8.784   9.317   6.798
   88POPC   C3B 1548   8.828   9.159   6.334
   88POPC   C4B 1549   9.156   9.109   5.966
   89POPC   NC3 1550   2.653   1.359   8.035
   89POPC   PO4 1551   2.288   0.765   8.132
   89POPC   GL1 1552   2.431   0.986   7.690
   89POPC   GL2 1553   2.597   1.325   7.547
   89POPC   C1A 1554   2.642   0.939   7.243
   89POPC   D2A 1555   2.869   0.854   6.853
   89POPC   C3A 1556   2.711   0.917   6.442
   89POPC   C4A 1557   2.422   0.857   6.159
   89POPC   C1B 1558   3.033   1.376   7.381
   89POPC   C2B 1559   3.140   1.302   6.940
   89POPC   C3B 1560   3.074   1.256   6.505
   89POPC   C4B 1561   2.710   1.418   6.257
   90POPC   NC3 1562   9.619   8.232   8.110
   90POPC   PO4 1563   9.436   7.673   8.054
   90POPC   GL1 1564   9.308   8.060   7.724
   90POPC   GL2 1565   9.545   8.341   7.646
   90POPC   C1A 1566   9.272   8.242   7.270
   90POPC   D2A 1567   9.519   8.135   6.954
   90POPC   C3A 1568   9.542   8.172   6.571
   90POPC   C4A 1569   9.456   7.960   6.203
   90POPC   C1B 1570   9.729   7.961   7.369
   90POPC   C2B 1571   9.906   7.804   6.907
   90POPC   C3B 1572   9.954   7.918   6.423
   90POPC   C4B 1573   9.826   8.345   6.204
   91POPC   NC3 1574   6.684   1.671   8.003
   91POPC   PO4 1575   7.030   2.232   7.930
   91POPC   GL1 1576   6.965   1.909   7.598
   91POPC   GL2 1577   6.594   1.813   7.538
   91POPC   C1A 1578   6.911   1.811   7.161
   91POPC   D2A 1579   6.761   2.070   6.832
   91POPC   C3A 1580   6.857   1.836   6.484
   91POPC   C4A 1581   6.736   1.667   6.154
   91POPC   C1B 1582   6.215   1.780   7.283
   91POPC   C2B 1583   6.116   1.928   6.875
   91POPC   C3B 1584   6.349   2.010   6.523
   91POPC   C4B 1585   6.202   2.335   6.238
   92POPC   NC3 1586   6.297   3.422   8.323
   92POPC   PO4 1587   6.611   3.011   8.161
   92POPC   GL1 1588   6.462   3.236   7.767
   92POPC   GL2 1589   6.487   3.582   7.850
   92POPC   C1A 1590   6.424   3.199   7.264
   92POPC   D2A 1591   6.648   3.211   6.840
   92POPC   C3A 1592   6.427   3.248   6.420
   92POPC   C4A 1593   6.486   3.200   5.952
   92POPC   C1B 1594   6.655   3.617   7.434
   92POPC   C2B 1595   6.467   3.666   7.017
   92POPC   C3B 1596   6.644   3.678   6.600
   92POPC   C4B 1597   6.531   3.699   6.159
   93POPC   NC3 1598   8.074   1.393   8.131
   93POPC   PO4 1599   7.764   0.794   7.936
   93POPC   GL1 1600   7.928   1.100   7.599
   93POPC   GL2 1601   8.243   1.280   7.635
   93POPC   C1A 1602   7.935   1.361   7.190
   93POPC   D2A 1603   7.635   1.371   6.815
   93POPC   C3A 1604   7.833   1.156   6.459
   93POPC   C4A 1605   7.964   1.100   5.995
   93POPC   C1B 1606   8.310   0.889   7.329
   93POPC   C2B 1607   8.326   0.782   6.859
   93POPC   C3B 1608   8.271   0.897   6.402
   93POPC   C4B 1609   8.294   1.354   6.290
   94POPC   NC3 1610   6.420  10.744   8.116
   94POPC   PO4 1611   6.580  10.054   8.127
   94POPC   GL1 1612   6.593  10.357   7.780
   94POPC   GL2 1613   6.938  10.456   7.604
   94POPC   C1A 1614   6.450  10.482   7.379
   94POPC   D2A 1615   6.536  10.565   6.907
   94POPC   C3A 1616   6.251  10.653   6.557
   94POPC   C4A 1617   6.240  10.627   6.075
   94POPC   C1B 1618   6.805  10.104   7.370
   94POPC   C2B 1619   6.757  10.030   6.932
   94POPC   C3B 1620   6.792  10.293   6.572
   94POPC   C4B 1621   6.491  10.223   6.307
   95POPC   NC3 1622   6.869   2.653   8.039
   95POPC   PO4 1623   7.555   2.684   8.180
   95POPC   GL1 1624   7.324   2.729   7.760
   95POPC   GL2 1625   7.346   2.446   7.591
   95POPC   C1A 1626   7.015   2.716   7.349
   95POPC   D2A 1627   7.060   2.484   6.921
   95POPC   C3A 1628   7.077   2.736   6.515
   95POPC   C4A 1629   6.910   3.098   6.246
   95POPC   C1B 1630   7.493   2.600   7.201
   95POPC   C2B 1631   7.552   2.375   6.831
   95POPC   C3B 1632   7.594   2.544   6.441
   95POPC   C4B 1633   7.439   2.871   6.158
   96POPC   NC3 1634  11.125   2.122   8.097
   96POPC   PO4 1635  11.398   1.467   8.048
   96POPC   GL1 1636  11.267   1.779   7.744
   96POPC   GL2 1637  11.371   1.549   7.512
   96POPC   C1A 1638  11.066   1.952   7.359
   96POPC   D2A 1639  11.068   1.766   6.945
   96POPC   C3A 1640  11.147   2.017   6.563
   96POPC   C4A 1641  11.166   1.842   6.151
   96POPC   C1B 1642   0.039   1.810   7.194
   96POPC   C2B 1643   0.039   1.769   6.771
   96POPC   C3B 1644   0.141   1.905   6.402
   96POPC   C4B 1645   0.264   1.521   6.284
   97POPC   NC3 1646   5.253   0.766   8.183
   97POPC   PO4 1647   5.082   1.353   8.091
   97POPC   GL1 1648   4.989   1.130   7.705
   97POPC   GL2 1649   5.217   0.887   7.567
   97POPC   C1A 1650   4.749   1.104   7.298
   97POPC   D2A 1651   4.650   0.958   6.860
   97POPC   C3A 1652   4.916   0.836   6.525
   97POPC   C4A 1653   4.768   1.046   6.153
   97POPC   C1B 1654   5.221   1.277   7.293
   97POPC   C2B 1655   5.045   1.345   6.894
   97POPC   C3B 1656   5.047   1.327   6.464
   97POPC   C4B 1657   5.291   1.401   6.105
   98POPC   NC3 1658   0.310   3.642   7.862
   98POPC   PO4 1659   0.306   3.053   8.250
   98POPC   GL1 1660   0.582   3.085   7.766
   98POPC   GL2 1661   0.792   3.387   7.710
   98POPC   C1A 1662   0.489   3.148   7.257
   98POPC   D2A 1663   0.071   3.200   6.981
   98POPC   C3A 1664   0.058   3.079   6.527
   98POPC   C4A 1665   0.390   3.193   6.177
   98POPC   C1B 1666   0.765   3.584   7.266
   98POPC   C2B 1667   0.580   3.567   6.804
   98POPC   C3B 1668   0.612   3.647   6.319
   98POPC   C4B 1669   0.625   3.662   5.831
   99POPC   NC3 1670  10.272   6.560   7.987
   99POPC   PO4 1671  10.747   7.023   7.748
   99POPC   GL1 1672  10.402   6.861   7.591
   99POPC   GL2 1673  10.591   6.546   7.595
   99POPC   C1A 1674  10.333   6.808   7.156
   99POPC   D2A 1675  10.394   6.683   6.729
   99POPC   C3A 1676  10.571   6.952   6.425
   99POPC   C4A 1677  10.328   7.087   6.110
   99POPC   C1B 1678  10.516   6.318   7.240
   99POPC   C2B 1679  10.343   6.192   6.857
   99POPC   C3B 1680  10.411   6.267   6.419
   99POPC   C4B 1681  10.247   6.156   6.031
  100POPC   NC3 1682  10.547   5.809   8.098
  100POPC   PO4 1683   9.954   6.182   7.991
  100POPC   GL1 1684  10.317   6.107   7.711
  100POPC   GL2 1685  10.209   5.780   7.696
  100POPC   C1A 1686  10.611   5.845   7.413
  100POPC   D2A 1687  10.792   5.636   7.057
  100POPC   C3A 1688  10.702   5.856   6.687
  100POPC   C4A 1689  10.708   5.882   6.254
  100POPC   C1B 1690  10.139   5.907   7.262
  100POPC   C2B 1691  10.255   5.697   6.882
  100POPC   C3B 1692  10.243   5.768   6.438
  100POPC   C4B 1693  10.303   5.655   5.984
  101POPC   NC3 1694  11.436   2.868   8.045
  101POPC   PO4 1695  10.811   3.152   8.251
  101POPC   GL1 1696  11.002   2.955   7.776
  101POPC   GL2 1697  11.278   2.838   7.575
  101POPC   C1A 1698  10.941   3.030   7.274
  101POPC   D2A 1699  11.195   2.820   6.989
  101POPC   C3A 1700  10.976   2.664   6.684
  101POPC   C4A 1701  11.138   2.701   6.336
  101POPC   C1B 1702  11.228   2.451   7.349
  101POPC   C2B 1703  11.390   2.273   6.967
  101POPC   C3B 1704   0.032   2.415   6.569
  101POPC   C4B 1705  11.383   2.292   6.165
  102POPC   NC3 1706   3.644   2.943   8.051
  102POPC   PO4 1707   3.154   2.450   8.047
  102POPC   GL1 1708   3.329   2.699   7.719
  102POPC   GL2 1709   3.672   2.554   7.664
  102POPC   C1A 1710   3.269   2.887   7.308
  102POPC   D2A 1711   3.108   2.794   6.878
  102POPC   C3A 1712   3.298   2.944   6.477
  102POPC   C4A 1713   3.288   2.869   6.008
  102POPC   C1B 1714   3.571   2.436   7.221
  102POPC   C2B 1715   3.621   2.594   6.775
  102POPC   C3B 1716   3.676   2.596   6.317
  102POPC   C4B 1717   3.606   2.460   5.896
  103POPC   NC3 1718   9.546   7.235   8.114
  103POPC   PO4 1719  10.174   7.000   8.105
  103POPC   GL1 1720   9.934   7.091   7.731
  103POPC   GL2 1721   9.845   7.454   7.719
  103POPC   C1A 1722   9.847   6.982   7.279
  103POPC   D2A 1723   9.733   7.235   6.885
  103POPC   C3A 1724   9.622   7.039   6.439
  103POPC   C4A 1725   9.792   6.952   6.001
  103POPC   C1B 1726   9.535   7.485   7.386
  103POPC   C2B 1727   9.427   7.639   6.984
  103POPC   C3B 1728   9.541   7.610   6.562
  103POPC   C4B 1729   9.298   7.409   6.255
  104POPC   NC3 1730   5.456  10.360   8.445
  104POPC   PO4 1731   5.938   9.777   8.212
  104POPC   GL1 1732   5.693   9.969   7.870
  104POPC   GL2 1733   5.899   9.740   7.688
  104POPC   C1A 1734   5.572   9.998   7.413
  104POPC   D2A 1735   5.846   9.910   7.027
  104POPC   C3A 1736   5.688   9.916   6.580
  104POPC   C4A 1737   5.523   9.801   6.139
  104POPC   C1B 1738   5.722   9.511   7.313
  104POPC   C2B 1739   5.829   9.442   6.867
  104POPC   C3B 1740   5.740   9.425   6.424
  104POPC   C4B 1741   6.047   9.318   6.114
  105POPC   NC3 1742   1.984  11.391   8.160
  105POPC   PO4 1743   1.744  10.808   8.073
  105POPC   GL1 1744   1.772  11.113   7.723
  105POPC   GL2 1745   2.083  11.302   7.673
  105POPC   C1A 1746   1.874  11.084   7.284
  105POPC   D2A 1747   1.699  11.111   6.906
  105POPC   C3A 1748   1.963  11.079   6.550
  105POPC   C4A 1749   1.948  10.896   6.151
  105POPC   C1B 1750   2.288  11.446   7.299
  105POPC   C2B 1751   2.125  11.400   6.896
  105POPC   C3B 1752   2.344  11.440   6.491
  105POPC   C4B 1753   2.111  11.376   6.136
  106POPC   NC3 1754   4.123  10.062   7.915
  106POPC   PO4 1755   4.693   9.532   7.989
  106POPC   GL1 1756   4.471   9.760   7.718
  106POPC   GL2 1757   4.179   9.564   7.676
  106POPC   C1A 1758   4.440   9.845   7.290
  106POPC   D2A 1759   4.299   9.646   6.895
  106POPC   C3A 1760   4.360   9.910   6.523
  106POPC   C4A 1761   4.623   9.873   6.182
  106POPC   C1B 1762   3.938   9.621   7.289
  106POPC   C2B 1763   3.816   9.459   6.866
  106POPC   C3B 1764   3.919   9.632   6.438
  106POPC   C4B 1765   4.215   9.593   6.089
  107POPC   NC3 1766   2.667   9.525   8.040
  107POPC   PO4 1767   2.296  10.011   7.854
  107POPC   GL1 1768   2.658   9.804   7.614
  107POPC   GL2 1769   3.027   9.691   7.700
  107POPC   C1A 1770   2.795   9.930   7.240
  107POPC   D2A 1771   2.753   9.959   6.816
  107POPC   C3A 1772   2.420   9.816   6.661
  107POPC   C4A 1773   2.577   9.642   6.329
  107POPC   C1B 1774   2.951   9.442   7.321
  107POPC   C2B 1775   2.812   9.468   6.906
  107POPC   C3B 1776   3.023   9.554   6.530
  107POPC   C4B 1777   2.928   9.342   6.114
  108POPC   NC3 1778   6.868   8.742   8.031
  108POPC   PO4 1779   7.553   8.521   8.053
  108POPC   GL1 1780   7.514   8.850   7.743
  108POPC   GL2 1781   7.196   9.008   7.711
  108POPC   C1A 1782   7.494   8.853   7.282
  108POPC   D2A 1783   7.383   8.704   6.852
  108POPC   C3A 1784   7.628   8.773   6.498
  108POPC   C4A 1785   7.413   8.649   6.160
  108POPC   C1B 1786   7.121   9.227   7.317
  108POPC   C2B 1787   7.310   9.202   6.893
  108POPC   C3B 1788   7.174   9.014   6.475
  108POPC   C4B 1789   7.311   9.144   6.047
  109POPC   NC3 1790  10.514   2.904   7.932
  109POPC   PO4 1791  10.761   2.256   7.860
  109POPC   GL1 1792  10.501   2.492   7.599
  109POPC   GL2 1793  10.139   2.424   7.502
  109POPC   C1A 1794  10.731   2.555   7.231
  109POPC   D2A 1795  10.879   2.244   6.949
  109POPC   C3A 1796  10.690   2.252   6.528
  109POPC   C4A 1797  10.461   2.581   6.373
  109POPC   C1B 1798  10.253   2.788   7.237
  109POPC   C2B 1799  10.565   2.896   6.904
  109POPC   C3B 1800  10.625   3.027   6.507
  109POPC   C4B 1801  10.276   3.122   6.227
  110POPC   NC3 1802   9.652   8.786   8.061
  110POPC   PO4 1803   9.291   9.289   7.871
  110POPC   GL1 1804   9.378   8.889   7.641
  110POPC   GL2 1805   9.715   8.807   7.550
  110POPC   C1A 1806   9.279   8.765   7.213
  110POPC   D2A 1807   9.327   9.017   6.831
  110POPC   C3A 1808   9.203   8.849   6.447
  110POPC   C4A 1809   9.419   8.685   6.101
  110POPC   C1B 1810   9.746   8.502   7.224
  110POPC   C2B 1811   9.898   8.457   6.817
  110POPC   C3B 1812   9.693   8.697   6.539
  110POPC   C4B 1813   9.910   8.837   6.177
  111POPC   NC3 1814   3.109  10.421   8.078
  111POPC   PO4 1815   2.552  10.748   8.055
  111POPC   GL1 1816   2.829  10.663   7.727
  111POPC   GL2 1817   2.752  10.300   7.729
  111POPC   C1A 1818   3.023  10.740   7.344
  111POPC   D2A 1819   2.764  10.793   6.970
  111POPC   C3A 1820   2.966  10.720   6.586
  111POPC   C4A 1821   2.789  10.605   6.215
  111POPC   C1B 1822   2.599  10.424   7.331
  111POPC   C2B 1823   2.380  10.415   6.964
  111POPC   C3B 1824   2.547  10.372   6.599
  111POPC   C4B 1825   2.568  10.129   6.247
  112POPC   NC3 1826   7.831  11.152   8.009
  112POPC   PO4 1827   8.466  10.910   7.986
  112POPC   GL1 1828   8.253  11.165   7.660
  112POPC   GL2 1829   7.938  11.376   7.587
  112POPC   C1A 1830   8.213  11.009   7.244
  112POPC   D2A 1831   8.416  10.785   6.931
  112POPC   C3A 1832   8.444  11.003   6.595
  112POPC   C4A 1833   8.486  11.116   6.202
  112POPC   C1B 1834   8.067   0.009   7.248
  112POPC   C2B 1835   8.014  11.319   6.883
  112POPC   C3B 1836   8.134  11.385   6.483
  112POPC   C4B 1837   7.980  11.139   6.152
  113POPC   NC3 1838   2.415   2.328   7.982
  113POPC   PO4 1839   2.498   1.731   8.279
  113POPC   GL1 1840   2.642   1.891   7.813
  113POPC   GL2 1841   2.887   2.074   7.834
  113POPC   C1A 1842   2.437   1.952   7.355
  113POPC   D2A 1843   2.509   1.994   6.918
  113POPC   C3A 1844   2.345   1.783   6.520
  113POPC   C4A 1845   2.419   1.941   6.101
  113POPC   C1B 1846   2.932   1.964   7.382
  113POPC   C2B 1847   3.054   2.009   6.942
  113POPC   C3B 1848   3.101   2.196   6.542
  113POPC   C4B 1849   2.920   1.957   6.201
  114POPC   NC3 1850   4.368   9.205   8.027
  114POPC   PO4 1851   3.751   9.207   8.063
  114POPC   GL1 1852   3.849   9.157   7.624
  114POPC   GL2 1853   4.085   8.911   7.680
  114POPC   C1A 1854   4.092   9.149   7.211
  114POPC   D2A 1855   4.077   8.972   6.783
  114POPC   C3A 1856   4.198   9.173   6.381
  114POPC   C4A 1857   4.267   9.122   5.911
  114POPC   C1B 1858   4.386   8.749   7.374
  114POPC   C2B 1859   4.557   8.759   6.955
  114POPC   C3B 1860   4.565   8.837   6.501
  114POPC   C4B 1861   4.291   8.685   6.159
  115POPC   NC3 1862  10.979   1.370   7.849
  115POPC   PO4 1863  10.621   1.761   8.226
  115POPC   GL1 1864  10.657   1.770   7.730
  115POPC   GL2 1865  10.357   1.930   7.576
  115POPC   C1A 1866  10.654   1.634   7.259
  115POPC   D2A 1867  10.587   1.835   6.819
  115POPC   C3A 1868  10.738   1.714   6.428
  115POPC   C4A 1869  10.676   1.854   5.984
  115POPC   C1B 1870  10.463   2.116   7.232
  115POPC   C2B 1871  10.353   2.377   6.913
  115POPC   C3B 1872  10.117   2.274   6.562
  115POPC   C4B 1873  10.309   1.978   6.298
  116POPC   NC3 1874  10.938   6.727   8.031
  116POPC   PO4 1875  11.464   6.353   7.998
  116POPC   GL1 1876  11.436   6.394   7.629
  116POPC   GL2 1877  11.280   6.723   7.651
  116POPC   C1A 1878   0.019   6.238   7.246
  116POPC   D2A 1879  11.258   6.345   6.890
  116POPC   C3A 1880  11.491   6.220   6.583
  116POPC   C4A 1881   0.067   6.380   6.212
  116POPC   C1B 1882  11.040   6.540   7.339
  116POPC   C2B 1883  10.839   6.665   6.981
  116POPC   C3B 1884  11.016   6.747   6.577
  116POPC   C4B 1885  11.208   6.740   6.182
  117POPC   NC3 1886   2.161  10.448   7.955
  117POPC   PO4 1887   1.575   9.960   8.040
  117POPC   GL1 1888   1.538  10.211   7.652
  117POPC   GL2 1889   1.705  10.531   7.651
  117POPC   C1A 1890   1.686  10.193   7.216
  117POPC   D2A 1891   2.022  10.039   6.925
  117POPC   C3A 1892   2.037  10.108   6.478
  117POPC   C4A 1893   1.807  10.360   6.169
  117POPC   C1B 1894   2.001  10.584   7.313
  117POPC   C2B 1895   1.840  10.587   6.902
  117POPC   C3B 1896   2.046  10.588   6.562
  117POPC   C4B 1897   2.278  10.528   6.195
  118POPC   NC3 1898   2.776   0.518   8.079
  118POPC   PO4 1899   2.241   0.193   7.953
  118POPC   GL1 1900   2.427   0.464   7.700
  118POPC   GL2 1901   2.723   0.280   7.625
  118POPC   C1A 1902   2.394   0.502   7.271
  118POPC   D2A 1903   2.398   0.306   6.896
  118POPC   C3A 1904   2.466   0.479   6.524
  118POPC   C4A 1905   2.314   0.354   6.145
  118POPC   C1B 1906   2.800   0.180   7.198
  118POPC   C2B 1907   2.897   0.300   6.776
  118POPC   C3B 1908   2.857   0.175   6.356
  118POPC   C4B 1909   3.100   0.140   5.986
  119POPC   NC3 1910   2.914  11.030   8.084
  119POPC   PO4 1911   3.049   0.119   8.072
  119POPC   GL1 1912   2.971  11.337   7.690
  119POPC   GL2 1913   2.597  11.240   7.726
  119POPC   C1A 1914   2.820  11.194   7.281
  119POPC   D2A 1915   2.616  11.295   6.906
  119POPC   C3A 1916   2.817  11.208   6.538
  119POPC   C4A 1917   2.935  11.142   6.135
  119POPC   C1B 1918   2.391  10.936   7.411
  119POPC   C2B 1919   2.253  10.910   6.973
  119POPC   C3B 1920   2.445  10.882   6.575
  119POPC   C4B 1921   2.461  11.007   6.168
  120POPC   NC3 1922   1.535  10.409   8.146
  120POPC   PO4 1923   0.947  10.731   8.143
  120POPC   GL1 1924   1.205  10.630   7.798
  120POPC   GL2 1925   1.006  10.348   7.724
  120POPC   C1A 1926   1.118  10.708   7.354
  120POPC   D2A 1927   0.871  10.554   6.981
  120POPC   C3A 1928   1.103  10.600   6.569
  120POPC   C4A 1929   1.539  10.698   6.422
  120POPC   C1B 1930   1.128  10.191   7.320
  120POPC   C2B 1931   1.271  10.240   6.924
  120POPC   C3B 1932   1.551  10.207   6.621
  120POPC   C4B 1933   1.325  10.167   6.249
  121POPC   NC3 1934   9.911   1.238   8.059
  121POPC   PO4 1935   9.250   1.341   8.068
  121POPC   GL1 1936   9.518   1.115   7.724
  121POPC   GL2 1937   9.885   1.122   7.577
  121POPC   C1A 1938   9.546   0.844   7.336
  121POPC   D2A 1939   9.546   0.998   6.897
  121POPC   C3A 1940   9.277   1.094   6.551
  121POPC   C4A 1941   9.513   0.943   6.208
  121POPC   C1B 1942   9.690   1.352   7.261
  121POPC   C2B 1943   9.787   1.492   6.861
  121POPC   C3B 1944   9.695   1.372   6.446
  121POPC   C4B 1945   9.981   1.174   6.153
  122POPC   NC3 1946   9.919   0.238   8.028
  122POPC   PO4 1947   9.607   0.764   8.281
  122POPC   GL1 1948   9.755   0.692   7.849
  122POPC   GL2 1949   9.539   0.468   7.766
  122POPC   C1A 1950   9.954   0.543   7.441
  122POPC   D2A 1951  10.036   0.329   7.041
  122POPC   C3A 1952   9.818   0.532   6.696
  122POPC   C4A 1953   9.985   0.687   6.314
  122POPC   C1B 1954   9.411   0.335   7.377
  122POPC   C2B 1955   9.365   0.490   6.981
  122POPC   C3B 1956   9.317   0.333   6.565
  122POPC   C4B 1957   9.576   0.423   6.220
  123POPC   NC3 1958   5.077  11.404   8.400
  123POPC   PO4 1959   5.574   0.029   7.918
  123POPC   GL1 1960   5.343  11.265   7.607
  123POPC   GL2 1961   5.028  11.119   7.781
  123POPC   C1A 1962   5.282  11.365   7.150
  123POPC   D2A 1963   5.232   0.034   6.740
  123POPC   C3A 1964   5.171  11.236   6.423
  123POPC   C4A 1965   5.445  11.035   6.153
  123POPC   C1B 1966   4.843  11.256   7.401
  123POPC   C2B 1967   4.824  11.138   6.975
  123POPC   C3B 1968   4.719  11.348   6.630
  123POPC   C4B 1969   4.676  11.359   6.201
  124POPC   NC3 1970   0.412   9.121   8.339
  124POPC   PO4 1971   0.529   8.558   8.054
  124POPC   GL1 1972   0.495   8.806   7.680
  124POPC   GL2 1973   0.163   8.951   7.676
  124POPC   C1A 1974   0.560   8.903   7.243
  124POPC   D2A 1975   0.344   9.041   6.886
  124POPC   C3A 1976   0.632   8.907   6.573
  124POPC   C4A 1977   0.683   8.536   6.350
  124POPC   C1B 1978   0.148   8.635   7.324
  124POPC   C2B 1979   0.206   8.523   6.881
  124POPC   C3B 1980   0.206   8.630   6.438
  124POPC   C4B 1981   0.338   9.030   6.171
  125POPC   NC3 1982   4.189   0.360   8.339
  125POPC   PO4 1983   3.584   0.554   8.234
  125POPC   GL1 1984   3.504   0.518   7.766
  125POPC   GL2 1985   3.271   0.261   7.628
  125POPC   C1A 1986   3.600   0.497   7.298
  125POPC   D2A 1987   3.561   0.168   6.958
  125POPC   C3A 1988   3.528   0.305   6.503
  125POPC   C4A 1989   3.622   0.223   6.057
  125POPC   C1B 1990   3.099   0.564   7.305
  125POPC   C2B 1991   3.302   0.610   6.868
  125POPC   C3B 1992   3.129   0.618   6.413
  125POPC   C4B 1993   3.302   0.629   5.980
  126POPC   NC3 1994   0.867   8.888   8.042
  126POPC   PO4 1995   1.465   8.616   8.382
  126POPC   GL1 1996   1.460   8.751   7.854
  126POPC   GL2 1997   1.236   9.011   7.715
  126POPC   C1A 1998   1.558   8.810   7.357
  126POPC   D2A 1999   1.699   8.795   6.914
  126POPC   C3A 2000   1.756   9.096   6.598
  126POPC   C4A 2001   1.552   9.039   6.194
  126POPC   C1B 2002   1.043   8.770   7.370
  126POPC   C2B 2003   0.983   8.968   6.972
  126POPC   C3B 2004   1.190   8.923   6.622
  126POPC   C4B 2005   1.093   8.821   6.253
  127POPC   NC3 2006   9.678  10.495   7.878
  127POPC   PO4 2007   9.177  10.234   8.180
  127POPC   GL1 2008   9.391  10.104   7.692
  127POPC   GL2 2009   9.767  10.166   7.518
  127POPC   C1A 2010   9.410  10.161   7.187
  127POPC   D2A 2011   9.440   9.971   6.789
  127POPC   C3A 2012   9.413  10.257   6.431
  127POPC   C4A 2013   9.384  10.197   5.984
  127POPC   C1B 2014   9.811  10.504   7.205
  127POPC   C2B 2015   9.763  10.501   6.758
  127POPC   C3B 2016   9.794  10.557   6.325
  127POPC   C4B 2017   9.881  10.321   5.997
  128POPC   NC3 2018   3.406   8.953   7.903
  128POPC   PO4 2019   2.944   8.451   7.861
  128POPC   GL1 2020   3.250   8.647   7.521
  128POPC   GL2 2021   3.634   8.671   7.544
  128POPC   C1A 2022   3.125   8.771   7.094
  128POPC   D2A 2023   3.194   8.472   6.751
  128POPC   C3A 2024   3.213   8.678   6.401
  128POPC   C4A 2025   3.072   9.055   6.514
  128POPC   C1B 2026   3.603   8.965   7.196
  128POPC   C2B 2027   3.534   8.906   6.759
  128POPC   C3B 2028   3.747   8.864   6.382
  128POPC   C4B 2029   3.815   8.786   5.962
  129POPC   NC3 2030  10.498   0.678   8.303
  129POPC   PO4 2031  10.363   0.171   8.003
  129POPC   GL1 2032  10.491   0.313   7.634
  129POPC   GL2 2033  10.546   0.656   7.683
  129POPC   C1A 2034  10.494   0.117   7.207
  129POPC   D2A 2035  10.475   0.124   6.755
  129POPC   C3A 2036  10.129   0.165   6.486
  129POPC   C4A 2037  10.191   0.291   6.044
  129POPC   C1B 2038  10.422   0.623   7.235
  129POPC   C2B 2039  10.329   0.651   6.794
  129POPC   C3B 2040  10.464   0.534   6.425
  129POPC   C4B 2041  10.768   0.630   6.186
  130POPC   NC3 2042   2.468   7.226   8.091
  130POPC   PO4 2043   2.850   7.608   7.945
  130POPC   GL1 2044   2.564   7.404   7.611
  130POPC   GL2 2045   2.337   7.075   7.610
  130POPC   C1A 2046   2.611   7.563   7.188
  130POPC   D2A 2047   2.611   8.011   7.022
  130POPC   C3A 2048   2.635   7.972   6.585
  130POPC   C4A 2049   2.706   7.559   6.394
  130POPC   C1B 2050   2.313   7.092   7.139
  130POPC   C2B 2051   2.517   7.221   6.763
  130POPC   C3B 2052   2.577   7.043   6.342
  130POPC   C4B 2053   2.604   6.897   5.871
  131POPC   NC3 2054   1.113   1.862   8.090
  131POPC   PO4 2055   1.679   2.288   8.236
  131POPC   GL1 2056   1.567   2.090   7.820
  131POPC   GL2 2057   1.227   2.211   7.723
  131POPC   C1A 2058   1.591   2.172   7.345
  131POPC   D2A 2059   1.372   2.163   6.943
  131POPC   C3A 2060   1.560   1.993   6.568
  131POPC   C4A 2061   1.481   2.113   6.152
  131POPC   C1B 2062   1.037   2.019   7.351
  131POPC   C2B 2063   0.906   1.944   6.921
  131POPC   C3B 2064   1.043   2.055   6.494
  131POPC   C4B 2065   1.053   1.866   6.059
  132POPC   NC3 2066   5.154   9.613   8.007
  132POPC   PO4 2067   5.093  10.220   8.170
  132POPC   GL1 2068   4.976  10.020   7.704
  132POPC   GL2 2069   4.939   9.668   7.551
  132POPC   C1A 2070   5.109   9.986   7.218
  132POPC   D2A 2071   5.367   9.747   6.962
  132POPC   C3A 2072   5.066   9.614   6.676
  132POPC   C4A 2073   5.079   9.600   6.273
  132POPC   C1B 2074   5.009   9.421   7.163
  132POPC   C2B 2075   4.885   9.132   6.807
  132POPC   C3B 2076   5.031   9.086   6.371
  132POPC   C4B 2077   5.158   9.228   5.916
  133POPC   NC3 2078   5.766   1.614   8.050
  133POPC   PO4 2079   5.942   0.930   8.148
  133POPC   GL1 2080   5.948   1.201   7.789
  133POPC   GL2 2081   5.592   1.246   7.689
  133POPC   C1A 2082   6.047   1.301   7.359
  133POPC   D2A 2083   6.058   1.425   6.911
  133POPC   C3A 2084   5.909   1.233   6.547
  133POPC   C4A 2085   6.105   0.977   6.263
  133POPC   C1B 2086   5.646   0.995   7.298
  133POPC   C2B 2087   5.538   1.095   6.893
  133POPC   C3B 2088   5.446   1.017   6.483
  133POPC   C4B 2089   5.625   1.011   6.079
  134POPC   NC3 2090   9.450   9.610   8.161
  134POPC   PO4 2091   9.899  10.074   7.992
  134POPC   GL1 2092   9.703   9.704   7.721
  134POPC   GL2 2093   9.762   9.340   7.705
  134POPC   C1A 2094   9.711   9.711   7.275
  134POPC   D2A 2095   9.813   9.483   6.931
  134POPC   C3A 2096   9.731   9.632   6.543
  134POPC   C4A 2097   9.728   9.887   6.199
  134POPC   C1B 2098   9.577   9.200   7.287
  134POPC   C2B 2099   9.816   8.960   6.979
  134POPC   C3B 2100   9.930   9.148   6.576
  134POPC   C4B 2101   9.560   9.194   6.307
  135POPC   NC3 2102   8.838   1.506   7.958
  135POPC   PO4 2103   8.419   1.070   8.133
  135POPC   GL1 2104   8.662   0.985   7.741
  135POPC   GL2 2105   9.003   1.094   7.713
  135POPC   C1A 2106   8.696   1.211   7.328
  135POPC   D2A 2107   8.873   1.187   6.941
  135POPC   C3A 2108   8.663   1.121   6.624
  135POPC   C4A 2109   8.749   1.132   6.229
  135POPC   C1B 2110   9.207   1.222   7.308
  135POPC   C2B 2111   9.286   1.460   6.910
  135POPC   C3B 2112   8.977   1.554   6.601
  135POPC   C4B 2113   9.134   1.477   6.230
  136POPC   NC3 2114   9.160   0.862   8.200
  136POPC   PO4 2115   8.721   0.369   8.039
  136POPC   GL1 2116   9.028   0.540   7.808
  136POPC   GL2 2117   9.120   0.181   7.777
  136POPC   C1A 2118   9.058   0.721   7.405
  136POPC   D2A 2119   8.780   0.714   7.091
  136POPC   C3A 2120   8.991   0.720   6.711
  136POPC   C4A 2121   9.071   0.702   6.267
  136POPC   C1B 2122   8.895   0.248   7.394
  136POPC   C2B 2123   8.907   0.230   6.959
  136POPC   C3B 2124   8.618   0.395   6.669
  136POPC   C4B 2125   8.677   0.372   6.214
  137POPC   NC3 2126   3.599   1.041   8.093
  137POPC   PO4 2127   2.886   0.957   7.959
  137POPC   GL1 2128   3.254   0.971   7.667
  137POPC   GL2 2129   3.512   1.253   7.625
  137POPC   C1A 2130   3.382   0.976   7.235
  137POPC   D2A 2131   3.627   1.086   6.902
  137POPC   C3A 2132   3.493   0.946   6.527
  137POPC   C4A 2133   3.467   1.153   6.175
  137POPC   C1B 2134   3.777   1.421   7.290
  137POPC   C2B 2135   4.005   1.437   6.863
  137POPC   C3B 2136   3.767   1.402   6.494
  137POPC   C4B 2137   3.688   1.661   6.144
  138POPC   NC3 2138   3.726  10.480   8.277
  138POPC   PO4 2139   4.251  10.664   7.862
  138POPC   GL1 2140   3.839  10.507   7.705
  138POPC   GL2 2141   3.483  10.446   7.751
  138POPC   C1A 2142   3.627  10.483   7.282
  138POPC   D2A 2143   3.500  10.257   6.913
  138POPC   C3A 2144   3.546  10.480   6.528
  138POPC   C4A 2145   3.843  10.713   6.247
  138POPC   C1B 2146   3.165  10.262   7.420
  138POPC   C2B 2147   3.009  10.346   6.979
  138POPC   C3B 2148   3.074  10.223   6.510
  138POPC   C4B 2149   3.273  10.400   6.113
  139POPC   NC3 2150  11.243  10.274   8.502
  139POPC   PO4 2151  10.853  10.153   8.033
  139POPC   GL1 2152  11.221  10.093   7.733
  139POPC   GL2 2153  11.351  10.423   7.691
  139POPC   C1A 2154  11.278  10.140   7.259
  139POPC   D2A 2155  10.935  10.219   6.938
  139POPC   C3A 2156  10.952  10.109   6.493
  139POPC   C4A 2157  10.981  10.206   6.015
  139POPC   C1B 2158  11.276  10.668   7.297
  139POPC   C2B 2159  11.317  10.567   6.862
  139POPC   C3B 2160  11.283  10.481   6.431
  139POPC   C4B 2161  11.412  10.104   6.250
  140POPC   NC3 2162   3.369   2.052   8.109
  140POPC   PO4 2163   3.448   1.494   8.073
  140POPC   GL1 2164   3.303   1.758   7.688
  140POPC   GL2 2165   3.330   2.167   7.614
  140POPC   C1A 2166   3.379   1.755   7.248
  140POPC   D2A 2167   3.516   1.615   6.871
  140POPC   C3A 2168   3.300   1.708   6.489
  140POPC   C4A 2169   3.172   1.540   6.068
  140POPC   C1B 2170   3.726   2.015   7.510
  140POPC   C2B 2171   3.884   1.875   7.103
  140POPC   C3B 2172   3.802   1.939   6.611
  140POPC   C4B 2173   3.515   2.112   6.259
  141POPC   NC3 2174   2.808   3.786   7.997
  141POPC   PO4 2175   3.237   3.229   8.061
  141POPC   GL1 2176   2.980   3.170   7.711
  141POPC   GL2 2177   2.624   3.308   7.703
  141POPC   C1A 2178   3.037   3.374   7.327
  141POPC   D2A 2179   3.256   3.286   6.941
  141POPC   C3A 2180   3.033   3.396   6.567
  141POPC   C4A 2181   2.969   3.241   6.162
  141POPC   C1B 2182   2.464   3.493   7.299
  141POPC   C2B 2183   2.292   3.480   6.858
  141POPC   C3B 2184   2.506   3.435   6.439
  141POPC   C4B 2185   2.806   3.780   6.282
  142POPC   NC3 2186   8.786  10.037   8.038
  142POPC   PO4 2187   9.061   9.423   8.327
  142POPC   GL1 2188   9.072   9.710   7.837
  142POPC   GL2 2189   8.808   9.588   7.643
  142POPC   C1A 2190   9.205   9.736   7.373
  142POPC   D2A 2191   9.310   9.511   6.990
  142POPC   C3A 2192   9.222   9.458   6.572
  142POPC   C4A 2193   9.263   9.787   6.330
  142POPC   C1B 2194   8.738   9.687   7.180
  142POPC   C2B 2195   8.915   9.805   6.790
  142POPC   C3B 2196   8.784   9.674   6.372
  142POPC   C4B 2197   8.484   9.903   6.125
  143POPC   NC3 2198   7.212  10.975   8.232
  143POPC   PO4 2199   7.465  11.402   7.826
  143POPC   GL1 2200   7.473  11.089   7.614
  143POPC   GL2 2201   7.155  10.968   7.693
  143POPC   C1A 2202   7.624  11.229   7.213
  143POPC   D2A 2203   7.559   0.031   6.893
  143POPC   C3A 2204   7.625  11.319   6.523
  143POPC   C4A 2205   7.469  11.285   6.136
  143POPC   C1B 2206   7.112  11.189   7.268
  143POPC   C2B 2207   7.268  11.118   6.870
  143POPC   C3B 2208   7.204  10.999   6.489
  143POPC   C4B 2209   6.982  11.155   6.143
  144POPC   NC3 2210   8.627   2.416   8.020
  144POPC   PO4 2211   9.096   2.879   8.144
  144POPC   GL1 2212   9.078   2.815   7.719
  144POPC   GL2 2213   8.733   2.860   7.723
  144POPC   C1A 2214   9.139   2.725   7.288
  144POPC   D2A 2215   8.869   2.606   6.895
  144POPC   C3A 2216   9.027   2.678   6.473
  144POPC   C4A 2217   9.030   3.030   6.175
  144POPC   C1B 2218   8.623   2.638   7.339
  144POPC   C2B 2219   8.382   2.476   6.959
  144POPC   C3B 2220   8.542   2.465   6.533
  144POPC   C4B 2221   8.578   2.770   6.210
  145POPC   NC3 2222  11.321   1.030   8.348
  145POPC   PO4 2223  10.756   0.996   8.017
  145POPC   GL1 2224  11.017   0.880   7.694
  145POPC   GL2 2225  11.365   1.018   7.741
  145POPC   C1A 2226  10.855   0.898   7.280
  145POPC   D2A 2227  10.693   1.004   6.886
  145POPC   C3A 2228  10.999   0.842   6.600
  145POPC   C4A 2229  11.097   1.009   6.218
  145POPC   C1B 2230  11.322   1.082   7.293
  145POPC   C2B 2231  11.203   1.250   6.874
  145POPC   C3B 2232  11.265   1.444   6.452
  145POPC   C4B 2233  11.393   1.391   5.989
  146POPC   NC3 2234   5.097   0.094   7.924
  146POPC   PO4 2235   4.794   0.700   8.026
  146POPC   GL1 2236   4.749   0.695   7.597
  146POPC   GL2 2237   4.898   0.395   7.597
  146POPC   C1A 2238   4.870   0.621   7.167
  146POPC   D2A 2239   4.835   0.201   7.029
  146POPC   C3A 2240   4.808   0.337   6.624
  146POPC   C4A 2241   4.993   0.231   6.265
  146POPC   C1B 2242   5.263   0.353   7.336
  146POPC   C2B 2243   5.394   0.616   7.019
  146POPC   C3B 2244   5.361   0.513   6.602
  146POPC   C4B 2245   5.287   0.630   6.201
  147POPC   NC3 2246   5.218   7.676   8.532
  147POPC   PO4 2247   5.287   7.771   8.077
  147POPC   GL1 2248   5.180   7.832   7.611
  147POPC   GL2 2249   4.954   8.120   7.512
  147POPC   C1A 2250   5.220   7.893   7.142
  147POPC   D2A 2251   5.005   8.062   6.777
  147POPC   C3A 2252   5.228   8.113   6.388
  147POPC   C4A 2253   5.003   8.057   5.992
  147POPC   C1B 2254   5.030   8.424   7.151
  147POPC   C2B 2255   4.983   8.588   6.720
  147POPC   C3B 2256   4.916   8.511   6.296
  147POPC   C4B 2257   5.146   8.572   5.910
  148POPC   NC3 2258   0.791  11.155   8.223
  148POPC   PO4 2259   0.167  11.354   8.079
  148POPC   GL1 2260   0.219  11.465   7.672
  148POPC   GL2 2261   0.543  11.314   7.716
  148POPC   C1A 2262   0.228  11.238   7.263
  148POPC   D2A 2263   0.134  10.997   6.874
  148POPC   C3A 2264   0.216  11.208   6.495
  148POPC   C4A 2265   0.204  11.431   6.092
  148POPC   C1B 2266   0.601  10.924   7.426
  148POPC   C2B 2267   0.630  11.001   6.968
  148POPC   C3B 2268   0.627  10.842   6.537
  148POPC   C4B 2269   0.589  11.115   6.178
  149POPC   NC3 2270   0.848   5.542   7.687
  149POPC   PO4 2271   0.972   4.963   7.985
  149POPC   GL1 2272   1.065   5.100   7.605
  149POPC   GL2 2273   1.374   5.147   7.655
  149POPC   C1A 2274   1.135   5.194   7.179
  149POPC   D2A 2275   0.969   5.010   6.850
  149POPC   C3A 2276   0.943   5.361   6.649
  149POPC   C4A 2277   1.029   5.256   6.253
  149POPC   C1B 2278   1.516   4.896   7.339
  149POPC   C2B 2279   1.444   4.817   6.949
  149POPC   C3B 2280   1.405   5.070   6.588
  149POPC   C4B 2281   1.351   4.889   6.198
  150POPC   NC3 2282   1.087   4.223   8.022
  150POPC   PO4 2283   1.662   4.674   7.921
  150POPC   GL1 2284   1.263   4.623   7.701
  150POPC   GL2 2285   1.180   4.304   7.539
  150POPC   C1A 2286   1.043   4.704   7.286
  150POPC   D2A 2287   1.058   4.442   6.939
  150POPC   C3A 2288   1.271   4.534   6.567
  150POPC   C4A 2289   1.176   4.423   6.161
  150POPC   C1B 2290   0.877   4.100   7.292
  150POPC   C2B 2291   0.914   3.954   6.877
  150POPC   C3B 2292   0.820   4.183   6.500
  150POPC   C4B 2293   0.877   4.028   6.095
  151POPC   NC3 2294   0.401   0.986   7.909
  151POPC   PO4 2295   0.799   1.502   8.106
  151POPC   GL1 2296   0.725   1.351   7.725
  151POPC   GL2 2297   0.366   1.440   7.651
  151POPC   C1A 2298   0.783   1.344   7.301
  151POPC   D2A 2299   0.689   1.063   6.926
  151POPC   C3A 2300   0.614   1.252   6.546
  151POPC   C4A 2301   0.800   1.424   6.145
  151POPC   C1B 2302   0.318   1.157   7.275
  151POPC   C2B 2303   0.157   0.982   6.878
  151POPC   C3B 2304   0.084   1.008   6.437
  151POPC   C4B 2305   0.403   1.064   6.124
  152POPC   NC3 2306   0.396   1.800   8.070
  152POPC   PO4 2307   0.003   2.396   8.097
  152POPC   GL1 2308   0.040   2.224   7.671
  152POPC   GL2 2309   0.245   1.956   7.632
  152POPC   C1A 2310   0.303   2.284   7.268
  152POPC   D2A 2311   0.401   2.085   6.898
  152POPC   C3A 2312   0.522   2.237   6.532
  152POPC   C4A 2313   0.380   2.328   6.149
  152POPC   C1B 2314   0.547   1.809   7.329
  152POPC   C2B 2315   0.512   1.585   6.931
  152POPC   C3B 2316   0.645   1.748   6.524
  152POPC   C4B 2317   0.562   1.876   6.083
  153POPC   NC3 2318   9.485   6.285   8.047
  153POPC   PO4 2319   9.265   6.882   8.178
  153POPC   GL1 2320   9.486   6.740   7.764
  153POPC   GL2 2321   9.814   6.594   7.733
  153POPC   C1A 2322   9.515   6.559   7.303
  153POPC   D2A 2323   9.530   6.755   6.859
  153POPC   C3A 2324   9.473   6.547   6.441
  153POPC   C4A 2325   9.142   6.320   6.257
  153POPC   C1B 2326  10.024   6.425   7.385
  153POPC   C2B 2327   9.950   6.495   6.993
  153POPC   C3B 2328   9.932   6.382   6.589
  153POPC   C4B 2329  10.070   6.666   6.309
  154POPC   NC3 2330   2.616   8.752   8.028
  154POPC   PO4 2331   3.069   9.274   8.056
  154POPC   GL1 2332   2.764   9.155   7.697
  154POPC   GL2 2333   2.790   8.838   7.559
  154POPC   C1A 2334   2.546   9.132   7.258
  154POPC   D2A 2335   2.692   8.971   6.852
  154POPC   C3A 2336   2.568   9.166   6.443
  154POPC   C4A 2337   2.428   9.335   5.967
  154POPC   C1B 2338   2.610   8.591   7.215
  154POPC   C2B 2339   2.678   8.467   6.777
  154POPC   C3B 2340   2.696   8.670   6.398
  154POPC   C4B 2341   2.641   8.895   6.019
  155POPC   NC3 2342   0.214   7.346   8.147
  155POPC   PO4 2343  11.033   7.229   8.215
  155POPC   GL1 2344  11.297   7.209   7.817
  155POPC   GL2 2345  11.098   7.391   7.597
  155POPC   C1A 2346   0.017   7.236   7.366
  155POPC   D2A 2347  11.457   7.153   6.888
  155POPC   C3A 2348   0.015   7.525   6.598
  155POPC   C4A 2349  11.500   7.717   6.173
  155POPC   C1B 2350  11.048   7.113   7.202
  155POPC   C2B 2351  10.808   7.179   6.833
  155POPC   C3B 2352  10.978   7.293   6.442
  155POPC   C4B 2353  11.354   7.225   6.233
  156POPC   NC3 2354  10.170   4.285   8.020
  156POPC   PO4 2355  10.735   4.617   8.067
  156POPC   GL1 2356  10.517   4.449   7.665
  156POPC   GL2 2357  10.504   4.058   7.698
  156POPC   C1A 2358  10.241   4.519   7.275
  156POPC   D2A 2359  10.002   4.271   6.969
  156POPC   C3A 2360  10.130   4.427   6.562
  156POPC   C4A 2361  10.027   4.471   6.159
  156POPC   C1B 2362  10.520   4.112   7.270
  156POPC   C2B 2363  10.509   4.252   6.860
  156POPC   C3B 2364  10.663   3.985   6.508
  156POPC   C4B 2365  10.451   4.200   6.195
  157POPC   NC3 2366  10.393  11.210   8.075
  157POPC   PO4 2367   9.780  11.304   8.120
  157POPC   GL1 2368   9.973  11.131   7.754
  157POPC   GL2 2369  10.217  11.367   7.608
  157POPC   C1A 2370   9.965  11.014   7.317
  157POPC   D2A 2371  10.125  11.303   6.975
  157POPC   C3A 2372  10.112  11.142   6.536
  157POPC   C4A 2373  10.207  11.286   6.122
  157POPC   C1B 2374  10.474  11.096   7.340
  157POPC   C2B 2375  10.647  11.182   6.945
  157POPC   C3B 2376  10.813  11.271   6.558
  157POPC   C4B 2377  10.599  11.027   6.294
  158POPC   NC3 2378   1.366  11.082   8.045
  158POPC   PO4 2379   0.846   0.077   8.074
  158POPC   GL1 2380   1.135  11.425   7.741
  158POPC   GL2 2381   1.001  11.095   7.694
  158POPC   C1A 2382   1.357  11.226   7.356
  158POPC   D2A 2383   1.139  11.061   6.978
  158POPC   C3A 2384   1.318  11.111   6.593
  158POPC   C4A 2385   1.586  11.235   6.263
  158POPC   C1B 2386   0.849  11.353   7.317
  158POPC   C2B 2387   0.783   0.023   6.921
  158POPC   C3B 2388   0.858  11.306   6.550
  158POPC   C4B 2389   1.081  11.080   6.157
  159POPC   NC3 2390   0.238   9.665   8.043
  159POPC   PO4 2391   0.804   9.341   8.191
  159POPC   GL1 2392   0.514   9.314   7.814
  159POPC   GL2 2393   0.550   9.673   7.662
  159POPC   C1A 2394   0.341   9.322   7.370
  159POPC   D2A 2395   0.680   9.400   7.053
  159POPC   C3A 2396   0.844   9.375   6.635
  159POPC   C4A 2397   0.829   9.243   6.221
  159POPC   C1B 2398   0.213   9.808   7.359
  159POPC   C2B 2399   0.209   9.581   6.939
  159POPC   C3B 2400   0.455   9.695   6.570
  159POPC   C4B 2401   0.394   9.991   6.233
  160POPC   NC3 2402   9.813   5.728   8.013
  160POPC   PO4 2403   9.162   5.966   7.977
  160POPC   GL1 2404   9.518   5.937   7.648
  160POPC   GL2 2405   9.740   5.642   7.539
  160POPC   C1A 2406   9.656   6.047   7.232
  160POPC   D2A 2407   9.510   6.237   6.865
  160POPC   C3A 2408   9.520   6.024   6.475
  160POPC   C4A 2409   9.324   5.707   6.212
  160POPC   C1B 2410   9.876   5.475   7.187
  160POPC   C2B 2411   9.755   5.694   6.842
  160POPC   C3B 2412   9.753   5.546   6.452
  160POPC   C4B 2413   9.843   5.814   6.132
  161POPC   NC3 2414   6.146  10.142   8.038
  161POPC   PO4 2415   5.956  10.724   8.134
  161POPC   GL1 2416   6.057  10.568   7.733
  161POPC   GL2 2417   5.798  10.839   7.615
  161POPC   C1A 2418   6.052  10.185   7.423
  161POPC   D2A 2419   6.107  10.336   7.033
  161POPC   C3A 2420   6.151  10.149   6.678
  161POPC   C4A 2421   5.984  10.279   6.332
  161POPC   C1B 2422   5.673  10.513   7.380
  161POPC   C2B 2423   5.580  10.322   7.021
  161POPC   C3B 2424   5.593  10.433   6.638
  161POPC   C4B 2425   5.489  10.289   6.266
  162POPC   NC3 2426   4.341   2.275   8.033
  162POPC   PO4 2427   4.543   1.667   8.072
  162POPC   GL1 2428   4.404   1.589   7.664
  162POPC   GL2 2429   4.195   1.893   7.685
  162POPC   C1A 2430   4.412   1.825   7.238
  162POPC   D2A 2431   4.297   1.887   6.806
  162POPC   C3A 2432   4.557   2.037   6.456
  162POPC   C4A 2433   4.420   1.926   6.039
  162POPC   C1B 2434   4.149   2.240   7.369
  162POPC   C2B 2435   4.023   2.318   6.948
  162POPC   C3B 2436   4.129   2.320   6.529
  162POPC   C4B 2437   4.008   2.200   6.142
  163POPC   NC3 2438   8.919   5.588   8.050
  163POPC   PO4 2439   9.476   5.433   8.090
  163POPC   GL1 2440   9.288   5.455   7.667
  163POPC   GL2 2441   9.050   5.714   7.554
  163POPC   C1A 2442   9.366   5.571   7.192
  163POPC   D2A 2443   9.262   5.647   6.730
  163POPC   C3A 2444   8.923   5.486   6.425
  163POPC   C4A 2445   8.932   5.448   5.952
  163POPC   C1B 2446   9.141   6.032   7.207
  163POPC   C2B 2447   9.030   6.101   6.748
  163POPC   C3B 2448   8.790   5.991   6.380
  163POPC   C4B 2449   8.682   6.294   6.038
  164POPC   NC3 2450   7.806   2.977   7.912
  164POPC   PO4 2451   8.173   2.493   8.083
  164POPC   GL1 2452   7.940   2.325   7.697
  164POPC   GL2 2453   7.824   2.612   7.583
  164POPC   C1A 2454   7.926   2.335   7.192
  164POPC   D2A 2455   7.940   2.693   6.837
  164POPC   C3A 2456   8.089   2.635   6.399
  164POPC   C4A 2457   8.024   2.318   6.100
  164POPC   C1B 2458   8.146   2.806   7.296
  164POPC   C2B 2459   8.397   2.974   6.899
  164POPC   C3B 2460   8.276   3.112   6.447
  164POPC   C4B 2461   8.266   3.093   5.954
  165POPC   NC3 2462   1.150   0.408   7.966
  165POPC   PO4 2463   1.585   0.896   7.986
  165POPC   GL1 2464   1.503   0.666   7.580
  165POPC   GL2 2465   1.134   0.636   7.517
  165POPC   C1A 2466   1.433   0.607   7.101
  165POPC   D2A 2467   1.007   0.498   6.904
  165POPC   C3A 2468   1.086   0.556   6.473
  165POPC   C4A 2469   1.511   0.593   6.412
  165POPC   C1B 2470   1.205   0.218   7.312
  165POPC   C2B 2471   1.310   0.052   6.882
  165POPC   C3B 2472   1.279   0.100   6.431
  165POPC   C4B 2473   0.879   0.168   6.197
  166POPC   NC3 2474   9.550   2.773   8.162
  166POPC   PO4 2475  10.149   2.608   7.982
  166POPC   GL1 2476   9.856   2.830   7.702
  166POPC   GL2 2477   9.559   2.603   7.680
  166POPC   C1A 2478   9.710   2.823   7.256
  166POPC   D2A 2479   9.863   2.534   6.975
  166POPC   C3A 2480  10.096   2.768   6.691
  166POPC   C4A 2481   9.976   2.693   6.270
  166POPC   C1B 2482   9.492   2.336   7.310
  166POPC   C2B 2483   9.347   2.466   6.915
  166POPC   C3B 2484   9.475   2.815   6.710
  166POPC   C4B 2485   9.480   2.829   6.265
  167POPC   NC3 2486  10.451   8.463   7.829
  167POPC   PO4 2487  10.049   8.844   8.301
  167POPC   GL1 2488  10.131   8.931   7.798
  167POPC   GL2 2489  10.273   9.253   7.728
  167POPC   C1A 2490  10.181   8.755   7.323
  167POPC   D2A 2491  10.400   8.587   6.932
  167POPC   C3A 2492  10.315   8.807   6.535
  167POPC   C4A 2493  10.392   8.670   6.115
  167POPC   C1B 2494  10.083   9.261   7.320
  167POPC   C2B 2495  10.303   9.114   6.960
  167POPC   C3B 2496  10.642   9.192   6.680
  167POPC   C4B 2497  10.612   9.162   6.231
  168POPC   NC3 2498   1.613   1.186   3.923
  168POPC   PO4 2499   0.970   0.955   3.936
  168POPC   GL1 2500   1.223   1.119   4.226
  168POPC   GL2 2501   1.042   1.369   4.395
  168POPC   C1A 2502   1.473   1.100   4.585
  168POPC   D2A 2503   1.348   1.093   5.020
  168POPC   C3A 2504   1.553   1.344   5.354
  168POPC   C4A 2505   1.653   0.961   5.612
  168POPC   C1B 2506   0.936   0.987   4.640
  168POPC   C2B 2507   0.875   0.872   5.083
  168POPC   C3B 2508   1.126   0.954   5.462
  168POPC   C4B 2509   1.139   1.403   5.653
  169POPC   NC3 2510  10.865   3.378   3.869
  169POPC   PO4 2511  10.196   3.506   3.889
  169POPC   GL1 2512  10.253   3.703   4.265
  169POPC   GL2 2513  10.624   3.707   4.230
  169POPC   C1A 2514  10.116   3.475   4.644
  169POPC   D2A 2515  10.198   3.192   5.002
  169POPC   C3A 2516   9.966   3.216   5.392
  169POPC   C4A 2517  10.148   3.334   5.773
  169POPC   C1B 2518  10.583   3.604   4.700
  169POPC   C2B 2519  10.366   3.686   5.127
  169POPC   C3B 2520  10.418   3.735   5.605
  169POPC   C4B 2521  10.711   3.838   5.964
  170POPC   NC3 2522   9.746   5.688   3.733
  170POPC   PO4 2523   9.319   5.350   3.927
  170POPC   GL1 2524   9.633   5.446   4.201
  170POPC   GL2 2525   9.656   5.797   4.250
  170POPC   C1A 2526   9.672   5.448   4.631
  170POPC   D2A 2527   9.441   5.452   4.991
  170POPC   C3A 2528   9.650   5.626   5.336
  170POPC   C4A 2529   9.556   5.635   5.760
  170POPC   C1B 2530   9.836   5.936   4.698
  170POPC   C2B 2531   9.862   6.051   5.155
  170POPC   C3B 2532   9.578   6.203   5.504
  170POPC   C4B 2533   9.484   6.112   5.937
  171POPC   NC3 2534   3.707  10.256   3.967
  171POPC   PO4 2535   3.956  10.822   4.002
  171POPC   GL1 2536   3.733  10.644   4.330
  171POPC   GL2 2537   3.359  10.637   4.281
  171POPC   C1A 2538   3.892  10.641   4.748
  171POPC   D2A 2539   3.911  10.812   5.144
  171POPC   C3A 2540   3.855  10.508   5.494
  171POPC   C4A 2541   3.769  10.316   5.913
  171POPC   C1B 2542   3.450  10.380   4.679
  171POPC   C2B 2543   3.462  10.526   5.120
  171POPC   C3B 2544   3.352  10.373   5.540
  171POPC   C4B 2545   3.357  10.023   5.780
  172POPC   NC3 2546  10.522   2.196   4.007
  172POPC   PO4 2547   9.879   2.019   4.039
  172POPC   GL1 2548  10.115   2.221   4.362
  172POPC   GL2 2549  10.347   1.937   4.416
  172POPC   C1A 2550  10.340   2.281   4.773
  172POPC   D2A 2551  10.399   2.049   5.158
  172POPC   C3A 2552  10.318   2.343   5.507
  172POPC   C4A 2553  10.442   2.321   5.943
  172POPC   C1B 2554  10.567   1.619   4.683
  172POPC   C2B 2555  10.546   1.469   5.103
  172POPC   C3B 2556  10.532   1.604   5.532
  172POPC   C4B 2557  10.230   1.889   5.733
  173POPC   NC3 2558  10.123  11.198   3.901
  173POPC   PO4 2559  10.694  10.676   3.825
  173POPC   GL1 2560  10.460  10.906   4.206
  173POPC   GL2 2561  10.373  11.268   4.338
  173POPC   C1A 2562  10.340  10.905   4.678
  173POPC   D2A 2563  10.117  10.852   5.080
  173POPC   C3A 2564  10.387  10.770   5.419
  173POPC   C4A 2565  10.556  10.911   5.794
  173POPC   C1B 2566  10.157  11.446   4.704
  173POPC   C2B 2567  10.023  11.365   5.130
  173POPC   C3B 2568  10.154   0.129   5.480
  173POPC   C4B 2569  10.480  11.456   5.729
  174POPC   NC3 2570   6.410  11.407   3.887
  174POPC   PO4 2571   7.092  11.446   4.017
  174POPC   GL1 2572   6.760  11.295   4.248
  174POPC   GL2 2573   6.761  10.944   4.318
  174POPC   C1A 2574   6.505  11.336   4.599
  174POPC   D2A 2575   6.622  11.311   5.046
  174POPC   C3A 2576   6.371  11.491   5.375
  174POPC   C4A 2577   6.227  11.382   5.785
  174POPC   C1B 2578   6.610  10.864   4.755
  174POPC   C2B 2579   6.302  10.881   5.114
  174POPC   C3B 2580   6.472  10.949   5.525
  174POPC   C4B 2581   6.875  10.882   5.722
  175POPC   NC3 2582   2.989   9.828   3.989
  175POPC   PO4 2583   3.604   9.880   3.722
  175POPC   GL1 2584   3.683   9.784   4.183
  175POPC   GL2 2585   3.392   9.577   4.232
  175POPC   C1A 2586   3.763   9.967   4.633
  175POPC   D2A 2587   3.551   9.983   5.074
  175POPC   C3A 2588   3.791   9.964   5.488
  175POPC   C4A 2589   3.793   9.805   5.930
  175POPC   C1B 2590   3.434   9.570   4.687
  175POPC   C2B 2591   3.317   9.498   5.121
  175POPC   C3B 2592   3.457   9.573   5.535
  175POPC   C4B 2593   3.371   9.537   5.984
  176POPC   NC3 2594  10.541   7.901   3.836
  176POPC   PO4 2595  10.696   8.544   3.946
  176POPC   GL1 2596  10.473   8.410   4.314
  176POPC   GL2 2597  10.469   8.037   4.345
  176POPC   C1A 2598  10.437   8.300   4.767
  176POPC   D2A 2599  10.671   8.089   5.098
  176POPC   C3A 2600  10.494   8.361   5.376
  176POPC   C4A 2601  10.209   8.484   5.654
  176POPC   C1B 2602  10.373   7.792   4.753
  176POPC   C2B 2603  10.195   7.907   5.148
  176POPC   C3B 2604  10.245   7.958   5.580
  176POPC   C4B 2605  10.201   7.700   5.978
  177POPC   NC3 2606   9.561   2.257   4.277
  177POPC   PO4 2607   9.620   2.886   3.912
  177POPC   GL1 2608   9.470   2.765   4.264
  177POPC   GL2 2609   9.847   2.685   4.323
  177POPC   C1A 2610   9.444   2.767   4.704
  177POPC   D2A 2611   9.350   2.998   5.054
  177POPC   C3A 2612   9.484   2.915   5.425
  177POPC   C4A 2613   9.295   2.935   5.784
  177POPC   C1B 2614   9.914   2.564   4.734
  177POPC   C2B 2615   9.845   2.806   5.069
  177POPC   C3B 2616   9.946   2.698   5.462
  177POPC   C4B 2617   9.735   2.664   5.831
  178POPC   NC3 2618  10.805   0.413   3.748
  178POPC   PO4 2619  11.280   0.185   4.158
  178POPC   GL1 2620  11.289   0.562   4.393
  178POPC   GL2 2621   0.132   0.619   4.314
  178POPC   C1A 2622  11.045   0.546   4.815
  178POPC   D2A 2623  10.943   0.178   5.106
  178POPC   C3A 2624  11.067   0.262   5.546
  178POPC   C4A 2625  11.057   0.670   5.747
  178POPC   C1B 2626   0.137   0.394   4.715
  178POPC   C2B 2627  11.452   0.450   5.095
  178POPC   C3B 2628   0.051   0.471   5.482
  178POPC   C4B 2629  11.488   0.323   5.853
  179POPC   NC3 2630   6.649   9.550   3.851
  179POPC   PO4 2631   6.178   9.932   3.792
  179POPC   GL1 2632   6.384   9.890   4.206
  179POPC   GL2 2633   6.613   9.639   4.360
  179POPC   C1A 2634   6.372  10.010   4.658
  179POPC   D2A 2635   6.418   9.802   5.046
  179POPC   C3A 2636   6.254   9.850   5.462
  179POPC   C4A 2637   6.381   9.545   5.790
  179POPC   C1B 2638   6.852   9.843   4.718
  179POPC   C2B 2639   6.873  10.022   5.131
  179POPC   C3B 2640   6.758   9.814   5.513
  179POPC   C4B 2641   6.695   9.909   5.943
  180POPC   NC3 2642   9.338   8.999   3.793
  180POPC   PO4 2643  10.050   9.076   3.752
  180POPC   GL1 2644   9.720   9.211   4.114
  180POPC   GL2 2645   9.528   8.909   4.265
  180POPC   C1A 2646   9.589   9.303   4.581
  180POPC   D2A 2647   9.772   9.170   4.994
  180POPC   C3A 2648   9.603   9.214   5.412
  180POPC   C4A 2649   9.679   9.112   5.827
  180POPC   C1B 2650   9.462   8.827   4.716
  180POPC   C2B 2651   9.306   8.859   5.138
  180POPC   C3B 2652   9.365   8.784   5.586
  180POPC   C4B 2653   9.744   8.602   5.734
  181POPC   NC3 2654  11.205   8.371   4.044
  181POPC   PO4 2655  10.965   7.818   3.716
  181POPC   GL1 2656  10.958   7.922   4.168
  181POPC   GL2 2657  11.288   7.869   4.194
  181POPC   C1A 2658  10.926   8.098   4.631
  181POPC   D2A 2659  11.183   8.184   5.045
  181POPC   C3A 2660  10.985   8.323   5.464
  181POPC   C4A 2661  10.720   8.353   5.846
  181POPC   C1B 2662  11.332   7.760   4.630
  181POPC   C2B 2663  11.114   7.633   5.011
  181POPC   C3B 2664  11.045   7.816   5.424
  181POPC   C4B 2665  11.407   7.932   5.702
  182POPC   NC3 2666   5.716  10.926   3.944
  182POPC   PO4 2667   6.318  11.031   3.623
  182POPC   GL1 2668   6.224  10.961   4.115
  182POPC   GL2 2669   6.037  11.289   4.229
  182POPC   C1A 2670   6.143  10.972   4.595
  182POPC   D2A 2671   6.098  11.328   4.936
  182POPC   C3A 2672   5.946  11.211   5.362
  182POPC   C4A 2673   5.998  10.928   5.707
  182POPC   C1B 2674   5.720  11.251   4.593
  182POPC   C2B 2675   5.561  11.308   5.023
  182POPC   C3B 2676   5.477  11.428   5.457
  182POPC   C4B 2677   5.689  11.341   5.845
  183POPC   NC3 2678   1.115   8.176   3.798
  183POPC   PO4 2679   1.737   8.381   4.003
  183POPC   GL1 2680   1.407   8.294   4.273
  183POPC   GL2 2681   1.101   8.143   4.312
  183POPC   C1A 2682   1.453   8.091   4.685
  183POPC   D2A 2683   1.287   8.182   5.092
  183POPC   C3A 2684   1.350   7.937   5.450
  183POPC   C4A 2685   1.491   8.152   5.818
  183POPC   C1B 2686   0.950   8.025   4.728
  183POPC   C2B 2687   0.775   8.174   5.134
  183POPC   C3B 2688   0.906   8.157   5.542
  183POPC   C4B 2689   1.010   7.903   5.886
  184POPC   NC3 2690  10.998  10.979   4.047
  184POPC   PO4 2691  10.616   0.043   3.986
  184POPC   GL1 2692  10.878  11.365   4.354
  184POPC   GL2 2693  11.232  11.239   4.411
  184POPC   C1A 2694  10.781  11.230   4.758
  184POPC   D2A 2695  10.548  11.285   5.153
  184POPC   C3A 2696  10.879  11.288   5.464
  184POPC   C4A 2697  10.908  11.245   5.923
  184POPC   C1B 2698  11.305  11.469   4.806
  184POPC   C2B 2699  11.401  11.467   5.252
  184POPC   C3B 2700  11.371  11.350   5.673
  184POPC   C4B 2701  11.375  11.048   5.977
  185POPC   NC3 2702   2.034  11.049   3.828
  185POPC   PO4 2703   2.580  10.551   3.825
  185POPC   GL1 2704   2.314  10.652   4.227
  185POPC   GL2 2705   2.074  10.923   4.315
  185POPC   C1A 2706   2.388  10.789   4.681
  185POPC   D2A 2707   2.305  11.079   5.016
  185POPC   C3A 2708   2.094  10.982   5.368
  185POPC   C4A 2709   2.210  11.074   5.743
  185POPC   C1B 2710   1.914  11.140   4.693
  185POPC   C2B 2711   1.663  11.103   5.050
  185POPC   C3B 2712   1.601  11.047   5.453
  185POPC   C4B 2713   1.751  11.298   5.771
  186POPC   NC3 2714   3.622   2.893   3.799
  186POPC   PO4 2715   2.994   3.148   4.018
  186POPC   GL1 2716   3.354   2.942   4.259
  186POPC   GL2 2717   3.337   2.580   4.221
  186POPC   C1A 2718   3.376   2.770   4.723
  186POPC   D2A 2719   3.240   2.812   5.186
  186POPC   C3A 2720   3.573   2.823   5.541
  186POPC   C4A 2721   3.784   2.973   5.960
  186POPC   C1B 2722   3.099   2.362   4.601
  186POPC   C2B 2723   3.229   2.294   5.056
  186POPC   C3B 2724   3.225   2.416   5.544
  186POPC   C4B 2725   3.133   2.387   6.036
  187POPC   NC3 2726   9.743   1.584   4.146
  187POPC   PO4 2727   9.276   2.173   3.933
  187POPC   GL1 2728   9.143   2.001   4.375
  187POPC   GL2 2729   9.479   1.829   4.525
  187POPC   C1A 2730   9.071   1.818   4.821
  187POPC   D2A 2731   9.471   1.836   5.085
  187POPC   C3A 2732   9.564   1.743   5.530
  187POPC   C4A 2733   9.506   1.890   5.952
  187POPC   C1B 2734   9.876   1.989   4.783
  187POPC   C2B 2735   9.926   2.254   5.166
  187POPC   C3B 2736   9.819   2.198   5.621
  187POPC   C4B 2737   9.916   2.215   6.069
  188POPC   NC3 2738   2.702   7.343   3.896
  188POPC   PO4 2739   3.000   6.889   3.978
  188POPC   GL1 2740   2.897   7.209   4.359
  188POPC   GL2 2741   2.593   7.444   4.394
  188POPC   C1A 2742   2.882   7.354   4.825
  188POPC   D2A 2743   2.832   7.123   5.232
  188POPC   C3A 2744   2.911   7.312   5.656
  188POPC   C4A 2745   2.984   7.241   6.096
  188POPC   C1B 2746   2.495   7.073   4.669
  188POPC   C2B 2747   2.295   7.106   5.084
  188POPC   C3B 2748   2.423   7.243   5.513
  188POPC   C4B 2749   2.461   7.382   5.973
  189POPC   NC3 2750   8.512  11.339   4.120
  189POPC   PO4 2751   8.403  10.720   3.762
  189POPC   GL1 2752   8.365  10.793   4.207
  189POPC   GL2 2753   8.110  11.015   4.238
  189POPC   C1A 2754   8.386  10.953   4.653
  189POPC   D2A 2755   8.178  11.256   4.931
  189POPC   C3A 2756   8.099  11.137   5.351
  189POPC   C4A 2757   8.300  11.053   5.737
  189POPC   C1B 2758   7.862  11.270   4.520
  189POPC   C2B 2759   7.654  11.298   4.901
  189POPC   C3B 2760   7.582  11.284   5.322
  189POPC   C4B 2761   7.764  11.277   5.720
  190POPC   NC3 2762   5.772   0.165   3.620
  190POPC   PO4 2763   5.315   0.472   3.969
  190POPC   GL1 2764   5.009   0.452   4.333
  190POPC   GL2 2765   4.943   0.105   4.498
  190POPC   C1A 2766   5.111   0.510   4.777
  190POPC   D2A 2767   5.287   0.244   5.057
  190POPC   C3A 2768   5.309   0.431   5.431
  190POPC   C4A 2769   5.080   0.437   5.793
  190POPC   C1B 2770   4.649   0.300   4.714
  190POPC   C2B 2771   4.660   0.530   5.043
  190POPC   C3B 2772   4.733   0.503   5.422
  190POPC   C4B 2773   4.709   0.779   5.736
  191POPC   NC3 2774   4.786   1.758   3.908
  191POPC   PO4 2775   4.800   2.432   3.938
  191POPC   GL1 2776   4.896   2.198   4.310
  191POPC   GL2 2777   5.048   1.864   4.332
  191POPC   C1A 2778   4.727   2.177   4.742
  191POPC   D2A 2779   4.517   2.148   5.153
  191POPC   C3A 2780   4.820   2.250   5.485
  191POPC   C4A 2781   4.848   2.156   5.919
  191POPC   C1B 2782   4.865   1.687   4.725
  191POPC   C2B 2783   4.922   1.837   5.161
  191POPC   C3B 2784   5.086   1.810   5.618
  191POPC   C4B 2785   5.279   1.914   6.045
  192POPC   NC3 2786   4.174   0.225   3.830
  192POPC   PO4 2787   4.698  11.482   4.054
  192POPC   GL1 2788   4.355   0.203   4.324
  192POPC   GL2 2789   4.182   0.529   4.299
  192POPC   C1A 2790   4.150   0.163   4.748
  192POPC   D2A 2791   4.414   0.063   5.113
  192POPC   C3A 2792   4.339   0.170   5.516
  192POPC   C4A 2793   4.637   0.200   5.833
  192POPC   C1B 2794   4.274   0.665   4.737
  192POPC   C2B 2795   4.160   0.530   5.158
  192POPC   C3B 2796   4.240   0.685   5.560
  192POPC   C4B 2797   4.275   0.879   5.976
  193POPC   NC3 2798   1.200   2.095   4.004
  193POPC   PO4 2799   1.688   1.650   3.938
  193POPC   GL1 2800   1.507   1.597   4.355
  193POPC   GL2 2801   1.261   1.861   4.437
  193POPC   C1A 2802   1.348   1.543   4.798
  193POPC   D2A 2803   1.056   1.569   5.139
  193POPC   C3A 2804   1.215   1.879   5.401
  193POPC   C4A 2805   1.455   1.799   5.751
  193POPC   C1B 2806   0.896   1.874   4.723
  193POPC   C2B 2807   0.770   2.070   5.118
  193POPC   C3B 2808   0.963   2.376   5.354
  193POPC   C4B 2809   1.183   2.262   5.748
  194POPC   NC3 2810   5.797   0.523   4.078
  194POPC   PO4 2811   5.607  11.405   3.964
  194POPC   GL1 2812   5.520   0.179   4.381
  194POPC   GL2 2813   5.494   0.556   4.464
  194POPC   C1A 2814   5.744   0.255   4.798
  194POPC   D2A 2815   6.007   0.299   5.171
  194POPC   C3A 2816   5.895   0.227   5.577
  194POPC   C4A 2817   5.586   0.365   5.848
  194POPC   C1B 2818   5.878   0.751   4.657
  194POPC   C2B 2819   6.163   0.736   4.958
  194POPC   C3B 2820   6.087   0.882   5.391
  194POPC   C4B 2821   5.939   0.723   5.795
  195POPC   NC3 2822   4.013   9.687   3.786
  195POPC   PO4 2823   4.676   9.481   4.099
  195POPC   GL1 2824   4.243   9.518   4.194
  195POPC   GL2 2825   4.204   9.850   4.299
  195POPC   C1A 2826   3.943   9.489   4.549
  195POPC   D2A 2827   3.974   9.625   4.992
  195POPC   C3A 2828   4.208   9.363   5.313
  195POPC   C4A 2829   3.960   9.433   5.642
  195POPC   C1B 2830   4.429   9.727   4.711
  195POPC   C2B 2831   4.452   9.771   5.185
  195POPC   C3B 2832   4.494   9.765   5.648
  195POPC   C4B 2833   4.706  10.168   5.783
  196POPC   NC3 2834   2.991   1.808   4.002
  196POPC   PO4 2835   2.452   1.476   3.715
  196POPC   GL1 2836   2.380   1.691   4.226
  196POPC   GL2 2837   2.497   2.018   4.171
  196POPC   C1A 2838   2.270   1.768   4.661
  196POPC   D2A 2839   2.577   1.628   4.967
  196POPC   C3A 2840   2.538   1.776   5.401
  196POPC   C4A 2841   2.736   1.670   5.801
  196POPC   C1B 2842   2.720   1.985   4.573
  196POPC   C2B 2843   2.600   2.133   4.967
  196POPC   C3B 2844   2.823   2.179   5.335
  196POPC   C4B 2845   2.739   2.194   5.763
  197POPC   NC3 2846   7.590  11.440   3.874
  197POPC   PO4 2847   7.254   0.542   3.712
  197POPC   GL1 2848   7.420   0.493   4.187
  197POPC   GL2 2849   7.658   0.226   4.262
  197POPC   C1A 2850   7.233   0.598   4.634
  197POPC   D2A 2851   7.388   0.848   4.997
  197POPC   C3A 2852   7.294   0.731   5.419
  197POPC   C4A 2853   7.026   0.492   5.679
  197POPC   C1B 2854   7.407   0.119   4.592
  197POPC   C2B 2855   7.478   0.279   4.998
  197POPC   C3B 2856   7.373   0.226   5.406
  197POPC   C4B 2857   7.458   0.224   5.823
  198POPC   NC3 2858   1.168   7.655   3.713
  198POPC   PO4 2859   1.532   7.077   3.868
  198POPC   GL1 2860   1.360   7.351   4.207
  198POPC   GL2 2861   1.141   7.162   4.432
  198POPC   C1A 2862   1.433   7.575   4.602
  198POPC   D2A 2863   1.248   7.646   5.018
  198POPC   C3A 2864   1.481   7.396   5.339
  198POPC   C4A 2865   1.486   7.051   5.686
  198POPC   C1B 2866   0.897   7.515   4.632
  198POPC   C2B 2867   0.712   7.664   5.031
  198POPC   C3B 2868   0.903   7.666   5.434
  198POPC   C4B 2869   1.207   7.472   5.745
  199POPC   NC3 2870   0.896   3.640   3.880
  199POPC   PO4 2871   0.543   3.014   3.910
  199POPC   GL1 2872   0.595   3.307   4.235
  199POPC   GL2 2873   0.686   3.655   4.389
  199POPC   C1A 2874   0.476   3.270   4.655
  199POPC   D2A 2875   0.664   3.528   4.949
  199POPC   C3A 2876   0.654   3.354   5.352
  199POPC   C4A 2877   0.395   3.199   5.662
  199POPC   C1B 2878   0.272   3.731   4.627
  199POPC   C2B 2879   0.155   3.524   5.038
  199POPC   C3B 2880   0.262   3.650   5.456
  199POPC   C4B 2881   0.100   3.718   5.831
  200POPC   NC3 2882  10.468   5.766   3.972
  200POPC   PO4 2883   9.995   5.266   3.882
  200POPC   GL1 2884  10.144   5.521   4.275
  200POPC   GL2 2885  10.539   5.534   4.404
  200POPC   C1A 2886  10.169   5.404   4.709
  200POPC   D2A 2887  10.150   5.635   5.074
  200POPC   C3A 2888  10.142   5.522   5.500
  200POPC   C4A 2889   9.972   5.924   5.661
  200POPC   C1B 2890  10.463   5.863   4.706
  200POPC   C2B 2891  10.417   6.051   5.134
  200POPC   C3B 2892  10.470   5.916   5.550
  200POPC   C4B 2893  10.718   6.139   5.831
  201POPC   NC3 2894   8.946   5.615   3.795
  201POPC   PO4 2895   8.473   5.849   4.114
  201POPC   GL1 2896   8.799   5.563   4.313
  201POPC   GL2 2897   9.154   5.598   4.327
  201POPC   C1A 2898   8.927   5.608   4.786
  201POPC   D2A 2899   8.824   5.919   5.138
  201POPC   C3A 2900   8.662   5.761   5.561
  201POPC   C4A 2901   8.521   5.781   6.005
  201POPC   C1B 2902   9.318   5.899   4.622
  201POPC   C2B 2903   9.361   5.971   5.064
  201POPC   C3B 2904   9.190   5.863   5.485
  201POPC   C4B 2905   9.011   5.953   5.886
  202POPC   NC3 2906   6.022   1.501   3.951
  202POPC   PO4 2907   5.714   0.955   3.983
  202POPC   GL1 2908   5.529   1.064   4.372
  202POPC   GL2 2909   5.564   1.400   4.303
  202POPC   C1A 2910   5.439   0.944   4.812
  202POPC   D2A 2911   5.651   0.705   5.143
  202POPC   C3A 2912   5.580   0.953   5.518
  202POPC   C4A 2913   5.391   1.381   5.587
  202POPC   C1B 2914   5.964   1.256   4.544
  202POPC   C2B 2915   5.938   1.186   4.971
  202POPC   C3B 2916   5.851   1.377   5.343
  202POPC   C4B 2917   5.937   1.241   5.760
  203POPC   NC3 2918   7.018   1.420   3.979
  203POPC   PO4 2919   6.938   2.122   3.912
  203POPC   GL1 2920   7.294   1.959   4.205
  203POPC   GL2 2921   7.557   2.190   4.318
  203POPC   C1A 2922   7.484   1.800   4.620
  203POPC   D2A 2923   7.329   1.691   5.039
  203POPC   C3A 2924   7.346   1.717   5.471
  203POPC   C4A 2925   6.999   1.807   5.688
  203POPC   C1B 2926   7.637   2.285   4.775
  203POPC   C2B 2927   7.514   2.155   5.206
  203POPC   C3B 2928   7.303   2.227   5.610
  203POPC   C4B 2929   7.447   2.355   6.006
  204POPC   NC3 2930   8.000   1.474   3.801
  204POPC   PO4 2931   7.946   0.811   3.886
  204POPC   GL1 2932   8.274   0.953   4.169
  204POPC   GL2 2933   8.045   1.208   4.242
  204POPC   C1A 2934   8.455   1.122   4.574
  204POPC   D2A 2935   8.467   0.954   5.005
  204POPC   C3A 2936   8.505   1.203   5.371
  204POPC   C4A 2937   8.452   1.177   5.815
  204POPC   C1B 2938   7.963   1.190   4.670
  204POPC   C2B 2939   8.122   1.368   5.060
  204POPC   C3B 2940   8.036   1.330   5.511
  204POPC   C4B 2941   8.129   1.572   5.852
  205POPC   NC3 2942   8.694   9.219   3.910
  205POPC   PO4 2943   8.999   8.649   3.846
  205POPC   GL1 2944   9.008   8.917   4.229
  205POPC   GL2 2945   8.693   8.995   4.397
  205POPC   C1A 2946   9.086   9.165   4.639
  205POPC   D2A 2947   8.834   9.043   5.001
  205POPC   C3A 2948   8.956   9.074   5.449
  205POPC   C4A 2949   8.664   8.977   5.747
  205POPC   C1B 2950   8.949   8.668   4.676
  205POPC   C2B 2951   8.906   8.532   5.130
  205POPC   C3B 2952   8.918   8.536   5.601
  205POPC   C4B 2953   8.910   8.669   6.045
  206POPC   NC3 2954   4.908  11.169   3.780
  206POPC   PO4 2955   4.258  11.279   3.738
  206POPC   GL1 2956   4.294  11.215   4.217
  206POPC   GL2 2957   4.049  11.059   4.430
  206POPC   C1A 2958   4.472  11.277   4.630
  206POPC   D2A 2959   4.311  11.091   4.974
  206POPC   C3A 2960   4.624  11.094   5.287
  206POPC   C4A 2961   4.647  11.203   5.700
  206POPC   C1B 2962   3.827  11.228   4.759
  206POPC   C2B 2963   3.904  11.401   5.155
  206POPC   C3B 2964   4.137  11.199   5.467
  206POPC   C4B 2965   4.022  10.925   5.797
  207POPC   NC3 2966   0.500  10.824   3.941
  207POPC   PO4 2967   0.736  11.485   4.010
  207POPC   GL1 2968   0.567  11.201   4.274
  207POPC   GL2 2969   0.207  11.150   4.196
  207POPC   C1A 2970   0.683  11.050   4.694
  207POPC   D2A 2971   0.913  11.298   4.991
  207POPC   C3A 2972   0.733  11.184   5.395
  207POPC   C4A 2973   0.800  11.349   5.787
  207POPC   C1B 2974   0.204  11.200   4.632
  207POPC   C2B 2975   0.283  10.971   5.002
  207POPC   C3B 2976   0.225  11.088   5.384
  207POPC   C4B 2977   0.331  11.072   5.754
  208POPC   NC3 2978   8.755  10.477   3.961
  208POPC   PO4 2979   9.381  10.511   3.774
  208POPC   GL1 2980   9.157  10.631   4.283
  208POPC   GL2 2981   8.905  10.406   4.434
  208POPC   C1A 2982   8.868  10.779   4.736
  208POPC   D2A 2983   8.536  10.720   5.085
  208POPC   C3A 2984   8.696  10.766   5.527
  208POPC   C4A 2985   9.088  10.537   5.628
  208POPC   C1B 2986   9.196  10.401   4.767
  208POPC   C2B 2987   9.003  10.437   5.134
  208POPC   C3B 2988   8.655  10.296   5.344
  208POPC   C4B 2989   8.609  10.254   5.765
  209POPC   NC3 2990   5.148   0.036   4.056
  209POPC   PO4 2991   5.322  10.998   3.704
  209POPC   GL1 2992   5.220  11.040   4.189
  209POPC   GL2 2993   4.839  11.059   4.323
  209POPC   C1A 2994   5.205  11.203   4.656
  209POPC   D2A 2995   4.893  11.402   4.972
  209POPC   C3A 2996   4.961   0.019   5.434
  209POPC   C4A 2997   5.145  11.432   5.876
  209POPC   C1B 2998   4.805  10.904   4.796
  209POPC   C2B 2999   5.046  10.810   5.189
  209POPC   C3B 3000   5.194  10.988   5.610
  209POPC   C4B 3001   4.956  10.979   6.037
  210POPC   NC3 3002   0.517  10.149   3.686
  210POPC   PO4 3003  11.420   9.903   3.911
  210POPC   GL1 3004   0.226  10.148   4.200
  210POPC   GL2 3005   0.386  10.424   4.203
  210POPC   C1A 3006   0.249  10.122   4.673
  210POPC   D2A 3007   0.076  10.077   5.112
  210POPC   C3A 3008   0.365  10.196   5.456
  210POPC   C4A 3009   0.341  10.370   5.884
  210POPC   C1B 3010   0.335  10.636   4.601
  210POPC   C2B 3011   0.470  10.493   5.031
  210POPC   C3B 3012   0.557  10.685   5.435
  210POPC   C4B 3013   0.690  10.740   5.857
  211POPC   NC3 3014   2.134   1.785   3.826
  211POPC   PO4 3015   2.325   2.419   3.874
  211POPC   GL1 3016   2.045   2.280   4.200
  211POPC   GL2 3017   1.932   1.942   4.283
  211POPC   C1A 3018   2.130   2.272   4.640
  211POPC   D2A 3019   1.980   2.238   5.051
  211POPC   C3A 3020   2.288   2.246   5.363
  211POPC   C4A 3021   2.199   2.249   5.770
  211POPC   C1B 3022   1.719   1.949   4.681
  211POPC   C2B 3023   1.649   1.818   5.104
  211POPC   C3B 3024   1.864   1.926   5.470
  211POPC   C4B 3025   1.693   2.241   5.694
  212POPC   NC3 3026  10.906   8.890   3.726
  212POPC   PO4 3027  11.460   8.665   3.800
  212POPC   GL1 3028  11.391   8.798   4.235
  212POPC   GL2 3029  11.160   9.015   4.165
  212POPC   C1A 3030  11.271   8.648   4.680
  212POPC   D2A 3031  11.307   8.708   5.117
  212POPC   C3A 3032  11.470   8.433   5.438
  212POPC   C4A 3033  11.213   8.775   5.653
  212POPC   C1B 3034  11.219   9.139   4.613
  212POPC   C2B 3035  11.017   9.122   4.977
  212POPC   C3B 3036  11.089   9.188   5.390
  212POPC   C4B 3037  10.911   9.190   5.790
  213POPC   NC3 3038   7.122  10.946   3.913
  213POPC   PO4 3039   7.851  11.030   3.814
  213POPC   GL1 3040   7.600  10.884   4.158
  213POPC   GL2 3041   7.424  11.172   4.274
  213POPC   C1A 3042   7.559  10.856   4.630
  213POPC   D2A 3043   7.488  10.843   5.076
  213POPC   C3A 3044   7.680  10.801   5.446
  213POPC   C4A 3045   7.454  10.871   5.812
  213POPC   C1B 3046   7.132  11.176   4.613
  213POPC   C2B 3047   7.138  11.361   4.987
  213POPC   C3B 3048   7.081  11.135   5.334
  213POPC   C4B 3049   7.220  11.303   5.700
  214POPC   NC3 3050   4.027   1.417   4.082
  214POPC   PO4 3051   3.386   1.541   3.830
  214POPC   GL1 3052   3.303   1.418   4.248
  214POPC   GL2 3053   3.557   1.170   4.214
  214POPC   C1A 3054   3.571   1.453   4.648
  214POPC   D2A 3055   3.946   1.527   4.928
  214POPC   C3A 3056   3.750   1.506   5.321
  214POPC   C4A 3057   3.519   1.529   5.685
  214POPC   C1B 3058   3.288   0.983   4.538
  214POPC   C2B 3059   3.350   0.869   4.958
  214POPC   C3B 3060   3.327   0.842   5.384
  214POPC   C4B 3061   3.500   1.017   5.708
  215POPC   NC3 3062   9.715   6.630   4.027
  215POPC   PO4 3063  10.068   6.044   3.875
  215POPC   GL1 3064   9.889   6.242   4.290
  215POPC   GL2 3065   9.496   6.319   4.367
  215POPC   C1A 3066   9.832   6.490   4.694
  215POPC   D2A 3067   9.618   6.503   5.097
  215POPC   C3A 3068   9.855   6.687   5.488
  215POPC   C4A 3069   9.856   6.441   5.879
  215POPC   C1B 3070   9.393   6.752   4.642
  215POPC   C2B 3071   9.396   6.949   5.089
  215POPC   C3B 3072   9.359   6.736   5.503
  215POPC   C4B 3073   9.391   6.614   5.924
  216POPC   NC3 3074   4.507   9.043   4.055
  216POPC   PO4 3075   3.930   9.187   3.886
  216POPC   GL1 3076   4.023   9.042   4.304
  216POPC   GL2 3077   4.333   9.144   4.512
  216POPC   C1A 3078   3.911   9.018   4.768
  216POPC   D2A 3079   3.764   9.166   5.181
  216POPC   C3A 3080   4.008   8.938   5.521
  216POPC   C4A 3081   4.136   8.518   5.671
  216POPC   C1B 3082   4.507   8.860   4.782
  216POPC   C2B 3083   4.404   8.854   5.211
  216POPC   C3B 3084   4.552   8.809   5.617
  216POPC   C4B 3085   4.743   8.890   5.998
  217POPC   NC3 3086   1.159   4.410   3.967
  217POPC   PO4 3087   1.698   4.803   4.127
  217POPC   GL1 3088   1.445   4.391   4.363
  217POPC   GL2 3089   1.175   4.032   4.297
  217POPC   C1A 3090   1.136   4.316   4.701
  217POPC   D2A 3091   1.272   4.492   5.040
  217POPC   C3A 3092   1.282   4.362   5.437
  217POPC   C4A 3093   1.442   4.600   5.768
  217POPC   C1B 3094   1.087   3.790   4.697
  217POPC   C2B 3095   0.972   3.903   5.138
  217POPC   C3B 3096   0.986   3.980   5.591
  217POPC   C4B 3097   1.350   4.064   5.874
  218POPC   NC3 3098   1.688   3.664   3.781
  218POPC   PO4 3099   2.192   3.744   4.055
  218POPC   GL1 3100   2.046   3.587   4.380
  218POPC   GL2 3101   2.216   3.293   4.337
  218POPC   C1A 3102   1.973   3.756   4.756
  218POPC   D2A 3103   1.893   3.933   5.138
  218POPC   C3A 3104   1.950   3.681   5.447
  218POPC   C4A 3105   2.123   3.687   5.821
  218POPC   C1B 3106   1.980   3.227   4.742
  218POPC   C2B 3107   2.071   3.242   5.188
  218POPC   C3B 3108   1.965   3.203   5.640
  218POPC   C4B 3109   2.176   3.248   6.035
  219POPC   NC3 3110  10.585   1.141   3.816
  219POPC   PO4 3111   9.959   1.273   3.870
  219POPC   GL1 3112  10.220   1.093   4.244
  219POPC   GL2 3113  10.621   1.104   4.316
  219POPC   C1A 3114  10.309   1.134   4.709
  219POPC   D2A 3115  10.072   1.250   5.071
  219POPC   C3A 3116  10.045   1.632   5.290
  219POPC   C4A 3117   9.985   1.413   5.669
  219POPC   C1B 3118  10.820   1.028   4.719
  219POPC   C2B 3119  10.639   0.960   5.112
  219POPC   C3B 3120  10.433   1.091   5.492
  219POPC   C4B 3121  10.645   1.012   5.888
  220POPC   NC3 3122   8.666   3.581   3.896
  220POPC   PO4 3123   9.229   3.316   3.721
  220POPC   GL1 3124   9.193   3.309   4.194
  220POPC   GL2 3125   8.875   3.405   4.323
  220POPC   C1A 3126   9.289   3.519   4.622
  220POPC   D2A 3127   9.255   3.813   5.018
  220POPC   C3A 3128   9.131   3.590   5.399
  220POPC   C4A 3129   8.994   3.413   5.792
  220POPC   C1B 3130   8.581   3.333   4.674
  220POPC   C2B 3131   8.499   3.218   5.124
  220POPC   C3B 3132   8.525   3.377   5.550
  220POPC   C4B 3133   8.378   3.661   5.885
  221POPC   NC3 3134   0.861   0.515   3.853
  221POPC   PO4 3135   1.422   0.172   3.787
  221POPC   GL1 3136   1.160   0.279   4.177
  221POPC   GL2 3137   1.137   0.612   4.318
  221POPC   C1A 3138   1.042   0.194   4.606
  221POPC   D2A 3139   0.978   0.366   5.006
  221POPC   C3A 3140   0.832   0.177   5.356
  221POPC   C4A 3141   0.990   0.348   5.726
  221POPC   C1B 3142   1.347   0.619   4.737
  221POPC   C2B 3143   1.601   0.561   5.129
  221POPC   C3B 3144   1.598   0.340   5.552
  221POPC   C4B 3145   1.411   0.549   5.915
  222POPC   NC3 3146   1.530   8.781   4.109
  222POPC   PO4 3147   0.871   8.807   3.906
  222POPC   GL1 3148   1.053   8.671   4.278
  222POPC   GL2 3149   1.115   9.007   4.376
  222POPC   C1A 3150   1.217   8.538   4.688
  222POPC   D2A 3151   1.015   8.637   5.088
  222POPC   C3A 3152   1.219   8.544   5.476
  222POPC   C4A 3153   1.382   8.654   5.877
  222POPC   C1B 3154   1.298   9.024   4.785
  222POPC   C2B 3155   1.290   9.055   5.205
  222POPC   C3B 3156   0.987   9.006   5.490
  222POPC   C4B 3157   1.168   9.124   5.852
  223POPC   NC3 3158   9.977   0.653   3.868
  223POPC   PO4 3159   9.719  11.467   3.839
  223POPC   GL1 3160   9.753   0.264   4.187
  223POPC   GL2 3161   9.432   0.357   4.232
  223POPC   C1A 3162   9.685   0.296   4.656
  223POPC   D2A 3163   9.912   0.333   5.001
  223POPC   C3A 3164   9.716   0.388   5.356
  223POPC   C4A 3165   9.804   0.457   5.761
  223POPC   C1B 3166   9.285   0.608   4.563
  223POPC   C2B 3167   9.296   0.474   4.996
  223POPC   C3B 3168   9.308   0.669   5.401
  223POPC   C4B 3169   9.334   0.659   5.812
  224POPC   NC3 3170   8.079   2.944   4.014
  224POPC   PO4 3171   7.876   2.345   3.646
  224POPC   GL1 3172   8.122   2.447   4.057
  224POPC   GL2 3173   7.952   2.493   4.350
  224POPC   C1A 3174   8.446   2.529   4.431
  224POPC   D2A 3175   8.500   2.796   4.828
  224POPC   C3A 3176   8.517   2.730   5.324
  224POPC   C4A 3177   8.386   2.569   5.764
  224POPC   C1B 3178   7.952   2.733   4.711
  224POPC   C2B 3179   8.037   2.962   5.075
  224POPC   C3B 3180   8.058   2.879   5.512
  224POPC   C4B 3181   7.870   2.746   5.902
  225POPC   NC3 3182   7.476   0.906   3.885
  225POPC   PO4 3183   7.571   1.611   3.910
  225POPC   GL1 3184   7.540   1.357   4.314
  225POPC   GL2 3185   7.431   0.996   4.385
  225POPC   C1A 3186   7.480   1.301   4.774
  225POPC   D2A 3187   7.621   1.306   5.200
  225POPC   C3A 3188   7.552   1.145   5.598
  225POPC   C4A 3189   7.627   1.473   5.830
  225POPC   C1B 3190   7.026   1.095   4.674
  225POPC   C2B 3191   6.913   1.363   5.038
  225POPC   C3B 3192   7.087   1.255   5.437
  225POPC   C4B 3193   7.074   0.972   5.814
  226POPC   NC3 3194  10.295   4.858   3.831
  226POPC   PO4 3195  10.816   5.386   3.961
  226POPC   GL1 3196  10.583   5.063   4.223
  226POPC   GL2 3197  10.185   5.020   4.300
  226POPC   C1A 3198  10.622   5.109   4.686
  226POPC   D2A 3199  10.445   5.223   5.090
  226POPC   C3A 3200  10.634   5.276   5.487
  226POPC   C4A 3201  10.409   5.176   5.861
  226POPC   C1B 3202  10.324   4.705   4.570
  226POPC   C2B 3203  10.328   4.733   5.022
  226POPC   C3B 3204  10.229   4.919   5.438
  226POPC   C4B 3205  10.002   4.778   5.772
  227POPC   NC3 3206   2.137   4.204   3.993
  227POPC   PO4 3207   1.466   4.076   3.864
  227POPC   GL1 3208   1.669   3.938   4.292
  227POPC   GL2 3209   1.910   4.114   4.412
  227POPC   C1A 3210   1.582   4.103   4.783
  227POPC   D2A 3211   1.745   4.398   5.178
  227POPC   C3A 3212   1.747   4.162   5.581
  227POPC   C4A 3213   1.861   4.060   6.021
  227POPC   C1B 3214   2.094   4.259   4.768
  227POPC   C2B 3215   2.276   4.246   5.167
  227POPC   C3B 3216   2.250   4.101   5.559
  227POPC   C4B 3217   2.341   4.272   5.960
  228POPC   NC3 3218  10.994   4.208   3.838
  228POPC   PO4 3219  11.456   4.680   3.876
  228POPC   GL1 3220  11.494   4.534   4.277
  228POPC   GL2 3221  11.124   4.507   4.300
  228POPC   C1A 3222   0.213   4.391   4.668
  228POPC   D2A 3223   0.220   4.408   5.131
  228POPC   C3A 3224  11.338   4.361   5.380
  228POPC   C4A 3225  11.165   4.555   5.775
  228POPC   C1B 3226  11.277   4.117   4.529
  228POPC   C2B 3227  11.450   3.988   4.944
  228POPC   C3B 3228  11.302   3.839   5.348
  228POPC   C4B 3229  11.145   4.029   5.732
  229POPC   NC3 3230   3.447   5.735   4.014
  229POPC   PO4 3231   3.852   5.498   4.289
  229POPC   GL1 3232   3.606   5.794   4.552
  229POPC   GL2 3233   3.346   6.015   4.432
  229POPC   C1A 3234   3.513   5.916   5.004
  229POPC   D2A 3235   3.610   5.748   5.445
  229POPC   C3A 3236   3.763   6.036   5.773
  229POPC   C4A 3237   3.645   6.102   6.186
  229POPC   C1B 3238   3.122   5.706   4.721
  229POPC   C2B 3239   3.130   5.609   5.182
  229POPC   C3B 3240   3.161   5.596   5.628
  229POPC   C4B 3241   3.260   5.927   5.865
  230POPC   NC3 3242   9.092   2.914   3.870
  230POPC   PO4 3243   8.497   3.144   3.993
  230POPC   GL1 3244   8.788   2.888   4.275
  230POPC   GL2 3245   8.919   2.519   4.160
  230POPC   C1A 3246   9.011   3.034   4.642
  230POPC   D2A 3247   8.988   3.325   4.984
  230POPC   C3A 3248   8.949   3.103   5.378
  230POPC   C4A 3249   8.734   2.962   5.754
  230POPC   C1B 3250   8.963   2.518   4.613
  230POPC   C2B 3251   8.956   2.681   5.042
  230POPC   C3B 3252   9.032   2.609   5.487
  230POPC   C4B 3253   8.941   2.532   5.934
  231POPC   NC3 3254  10.059   3.094   4.048
  231POPC   PO4 3255  10.555   2.631   3.869
  231POPC   GL1 3256  10.376   2.651   4.249
  231POPC   GL2 3257  10.674   2.497   4.393
  231POPC   C1A 3258  10.340   2.829   4.661
  231POPC   D2A 3259  10.340   2.690   5.099
  231POPC   C3A 3260  10.397   2.954   5.461
  231POPC   C4A 3261  10.257   2.793   5.852
  231POPC   C1B 3262  10.760   2.573   4.814
  231POPC   C2B 3263  10.768   2.437   5.204
  231POPC   C3B 3264  10.732   2.612   5.631
  231POPC   C4B 3265  10.735   2.826   6.034
  232POPC   NC3 3266   1.721   7.539   3.914
  232POPC   PO4 3267   2.396   7.685   3.952
  232POPC   GL1 3268   2.107   7.542   4.251
  232POPC   GL2 3269   1.983   7.197   4.172
  232POPC   C1A 3270   2.078   7.346   4.643
  232POPC   D2A 3271   1.804   7.364   4.950
  232POPC   C3A 3272   2.034   7.537   5.284
  232POPC   C4A 3273   2.231   7.698   5.659
  232POPC   C1B 3274   1.654   7.077   4.522
  232POPC   C2B 3275   1.629   6.866   4.936
  232POPC   C3B 3276   1.831   7.012   5.321
  232POPC   C4B 3277   1.964   7.251   5.704
  233POPC   NC3 3278   0.370   8.820   3.970
  233POPC   PO4 3279   0.103   8.287   4.279
  233POPC   GL1 3280   0.296   8.678   4.505
  233POPC   GL2 3281   0.599   8.889   4.409
  233POPC   C1A 3282   0.221   9.059   4.747
  233POPC   D2A 3283   0.028   9.191   5.124
  233POPC   C3A 3284   0.180   8.893   5.431
  233POPC   C4A 3285   0.220   8.659   5.832
  233POPC   C1B 3286   0.765   9.036   4.809
  233POPC   C2B 3287   0.564   9.170   5.209
  233POPC   C3B 3288   0.530   9.165   5.678
  233POPC   C4B 3289   0.726   8.834   5.915
  234POPC   NC3 3290   3.520   8.985   3.903
  234POPC   PO4 3291   3.300   8.437   4.094
  234POPC   GL1 3292   3.436   8.746   4.398
  234POPC   GL2 3293   3.509   9.103   4.408
  234POPC   C1A 3294   3.521   8.689   4.840
  234POPC   D2A 3295   3.724   8.643   5.236
  234POPC   C3A 3296   3.475   8.578   5.615
  234POPC   C4A 3297   3.462   8.402   6.046
  234POPC   C1B 3298   3.237   9.099   4.792
  234POPC   C2B 3299   3.296   8.972   5.247
  234POPC   C3B 3300   3.532   9.084   5.649
  234POPC   C4B 3301   3.357   9.032   6.065
  235POPC   NC3 3302   2.779   2.767   3.812
  235POPC   PO4 3303   3.224   2.192   3.880
  235POPC   GL1 3304   2.842   2.410   4.164
  235POPC   GL2 3305   2.889   2.782   4.354
  235POPC   C1A 3306   2.590   2.474   4.575
  235POPC   D2A 3307   2.815   2.592   4.981
  235POPC   C3A 3308   2.642   2.637   5.403
  235POPC   C4A 3309   2.846   2.714   5.785
  235POPC   C1B 3310   2.910   3.037   4.771
  235POPC   C2B 3311   2.586   3.096   5.154
  235POPC   C3B 3312   2.493   3.068   5.634
  235POPC   C4B 3313   2.564   2.966   6.107
  236POPC   NC3 3314   1.845   0.341   3.861
  236POPC   PO4 3315   1.701  11.232   4.087
  236POPC   GL1 3316   1.624   0.146   4.314
  236POPC   GL2 3317   1.676   0.537   4.311
  236POPC   C1A 3318   1.741   0.239   4.739
  236POPC   D2A 3319   2.111   0.073   4.941
  236POPC   C3A 3320   1.999  11.486   5.343
  236POPC   C4A 3321   2.165   0.140   5.709
  236POPC   C1B 3322   2.107   0.514   4.520
  236POPC   C2B 3323   2.161   0.594   4.973
  236POPC   C3B 3324   2.060   0.533   5.394
  236POPC   C4B 3325   2.386   0.623   5.694
  237POPC   NC3 3326   1.977   2.711   3.869
  237POPC   PO4 3327   2.425   3.076   3.784
  237POPC   GL1 3328   2.415   2.848   4.194
  237POPC   GL2 3329   2.092   2.768   4.360
  237POPC   C1A 3330   2.425   2.951   4.671
  237POPC   D2A 3331   2.314   2.642   4.997
  237POPC   C3A 3332   2.126   2.756   5.385
  237POPC   C4A 3333   2.171   2.754   5.840
  237POPC   C1B 3334   1.868   2.708   4.753
  237POPC   C2B 3335   1.534   2.518   4.991
  237POPC   C3B 3336   1.416   2.593   5.401
  237POPC   C4B 3337   1.699   2.731   5.678
  238POPC   NC3 3338   0.256   0.131   4.071
  238POPC   PO4 3339   0.423   0.757   3.834
  238POPC   GL1 3340   0.631   0.702   4.265
  238POPC   GL2 3341   0.645   0.368   4.309
  238POPC   C1A 3342   0.618   0.595   4.735
  238POPC   D2A 3343   0.468   0.458   5.122
  238POPC   C3A 3344   0.638   0.633   5.469
  238POPC   C4A 3345   0.392   0.742   5.741
  238POPC   C1B 3346   0.555   0.079   4.678
  238POPC   C2B 3347   0.400  11.462   5.075
  238POPC   C3B 3348   0.353   0.058   5.524
  238POPC   C4B 3349   0.507   0.271   5.867
  239POPC   NC3 3350   1.950   9.556   3.857
  239POPC   PO4 3351   2.577   9.462   4.121
  239POPC   GL1 3352   2.180   9.648   4.321
  239POPC   GL2 3353   1.798   9.614   4.313
  239POPC   C1A 3354   2.025   9.674   4.746
  239POPC   D2A 3355   2.194   9.560   5.104
  239POPC   C3A 3356   2.249   9.920   5.349
  239POPC   C4A 3357   2.058   9.676   5.674
  239POPC   C1B 3358   1.652   9.342   4.616
  239POPC   C2B 3359   1.529   9.458   5.002
  239POPC   C3B 3360   1.678   9.488   5.383
  239POPC   C4B 3361   1.533   9.492   5.763
  240POPC   NC3 3362   0.341   1.908   4.199
  240POPC   PO4 3363  11.445   2.330   3.867
  240POPC   GL1 3364   0.173   2.378   4.331
  240POPC   GL2 3365   0.533   2.232   4.528
  240POPC   C1A 3366   0.180   2.409   4.814
  240POPC   D2A 3367   0.334   2.361   5.238
  240POPC   C3A 3368   0.268   1.968   5.457
  240POPC   C4A 3369   0.091   1.876   5.879
  240POPC   C1B 3370   0.348   1.915   4.874
  240POPC   C2B 3371   0.520   1.613   5.203
  240POPC   C3B 3372   0.743   1.796   5.584
  240POPC   C4B 3373   0.643   2.240   5.719
  241POPC   NC3 3374   9.151   7.449   3.929
  241POPC   PO4 3375   8.671   7.816   4.043
  241POPC   GL1 3376   8.870   7.539   4.353
  241POPC   GL2 3377   9.033   7.194   4.393
  241POPC   C1A 3378   8.952   7.607   4.757
  241POPC   D2A 3379   8.817   7.543   5.178
  241POPC   C3A 3380   9.069   7.387   5.506
  241POPC   C4A 3381   8.892   7.296   5.941
  241POPC   C1B 3382   8.964   7.105   4.871
  241POPC   C2B 3383   8.921   6.926   5.327
  241POPC   C3B 3384   8.927   6.794   5.802
  241POPC   C4B 3385   9.119   6.902   6.247
  242POPC   NC3 3386   2.922  10.875   3.945
  242POPC   PO4 3387   2.385  11.380   3.828
  242POPC   GL1 3388   2.541  11.144   4.189
  242POPC   GL2 3389   2.892  11.223   4.315
  242POPC   C1A 3390   2.498  11.311   4.616
  242POPC   D2A 3391   2.745  11.403   5.005
  242POPC   C3A 3392   2.525  11.321   5.400
  242POPC   C4A 3393   2.722  11.080   5.678
  242POPC   C1B 3394   2.888  10.941   4.631
  242POPC   C2B 3395   2.959  10.932   5.064
  242POPC   C3B 3396   3.156  10.851   5.444
  242POPC   C4B 3397   3.050  10.735   5.819
  243POPC   NC3 3398   6.444   2.065   3.926
  243POPC   PO4 3399   6.460   1.363   3.844
  243POPC   GL1 3400   6.463   1.609   4.205
  243POPC   GL2 3401   6.777   1.793   4.286
  243POPC   C1A 3402   6.328   1.670   4.621
  243POPC   D2A 3403   6.277   1.577   5.054
  243POPC   C3A 3404   6.588   1.745   5.349
  243POPC   C4A 3405   6.509   1.886   5.774
  243POPC   C1B 3406   6.979   1.900   4.706
  243POPC   C2B 3407   6.994   2.037   5.175
  243POPC   C3B 3408   6.779   2.234   5.517
  243POPC   C4B 3409   6.552   2.415   5.869
  244POPC   NC3 3410   9.506   1.396   3.737
  244POPC   PO4 3411   9.522   0.743   3.871
  244POPC   GL1 3412   9.673   1.007   4.205
  244POPC   GL2 3413   9.370   1.130   4.376
  244POPC   C1A 3414   9.796   1.076   4.644
  244POPC   D2A 3415   9.663   0.809   4.960
  244POPC   C3A 3416   9.777   0.911   5.354
  244POPC   C4A 3417   9.757   0.950   5.768
  244POPC   C1B 3418   9.402   1.385   4.768
  244POPC   C2B 3419   9.573   1.340   5.155
  244POPC   C3B 3420   9.435   1.251   5.534
  244POPC   C4B 3421   9.544   1.385   5.946
  245POPC   NC3 3422   8.069   8.695   3.794
  245POPC   PO4 3423   8.202   9.245   3.748
  245POPC   GL1 3424   8.162   8.984   4.208
  245POPC   GL2 3425   7.928   9.166   4.393
  245POPC   C1A 3426   8.283   9.022   4.707
  245POPC   D2A 3427   7.990   9.008   5.036
  245POPC   C3A 3428   8.264   8.988   5.400
  245POPC   C4A 3429   8.187   9.129   5.826
  245POPC   C1B 3430   7.895   8.708   4.604
  245POPC   C2B 3431   7.761   8.537   5.017
  245POPC   C3B 3432   7.910   8.445   5.430
  245POPC   C4B 3433   8.203   8.615   5.740
  246POPC   NC3 3434   7.575   8.095   4.032
  246POPC   PO4 3435   7.120   7.675   3.888
  246POPC   GL1 3436   7.170   7.928   4.326
  246POPC   GL2 3437   7.243   8.308   4.346
  246POPC   C1A 3438   7.198   8.066   4.803
  246POPC   D2A 3439   7.506   8.116   5.173
  246POPC   C3A 3440   7.388   7.973   5.600
  246POPC   C4A 3441   7.288   7.905   6.060
  246POPC   C1B 3442   7.362   8.561   4.691
  246POPC   C2B 3443   7.214   8.530   5.096
  246POPC   C3B 3444   7.393   8.516   5.503
  246POPC   C4B 3445   7.155   8.354   5.851
  247POPC   NC3 3446   4.335   2.339   3.929
  247POPC   PO4 3447   4.142   1.712   3.719
  247POPC   GL1 3448   4.112   1.919   4.124
  247POPC   GL2 3449   4.429   1.959   4.339
  247POPC   C1A 3450   3.948   1.901   4.547
  247POPC   D2A 3451   4.033   2.154   4.928
  247POPC   C3A 3452   4.059   1.920   5.319
  247POPC   C4A 3453   4.097   1.626   5.690
  247POPC   C1B 3454   4.378   1.791   4.796
  247POPC   C2B 3455   4.447   1.594   5.208
  247POPC   C3B 3456   4.569   1.796   5.570
  247POPC   C4B 3457   4.340   2.203   5.643
  248POPC   NC3 3458  10.856   0.356   4.241
  248POPC   PO4 3459  10.435   0.687   3.789
  248POPC   GL1 3460  10.432   0.628   4.232
  248POPC   GL2 3461  10.268   0.314   4.305
  248POPC   C1A 3462  10.524   0.599   4.710
  248POPC   D2A 3463  10.435   0.314   5.049
  248POPC   C3A 3464  10.660   0.512   5.367
  248POPC   C4A 3465  10.591   0.445   5.767
  248POPC   C1B 3466  10.047   0.641   4.582
  248POPC   C2B 3467  10.166   0.760   5.033
  248POPC   C3B 3468  10.183   0.635   5.460
  248POPC   C4B 3469  10.215   0.779   5.883
  249POPC   NC3 3470   9.166   0.460   3.829
  249POPC   PO4 3471   8.724   0.014   3.752
  249POPC   GL1 3472   9.046   0.025   4.121
  249POPC   GL2 3473   8.893   0.289   4.287
  249POPC   C1A 3474   9.193   0.092   4.639
  249POPC   D2A 3475   9.002   0.084   5.142
  249POPC   C3A 3476   9.251   0.173   5.550
  249POPC   C4A 3477   9.156   0.248   6.020
  249POPC   C1B 3478   8.797   0.384   4.748
  249POPC   C2B 3479   8.834   0.588   5.174
  249POPC   C3B 3480   8.840   0.466   5.601
  249POPC   C4B 3481   8.733   0.755   5.885
  250POPC   NC3 3482   7.832   2.000   3.948
  250POPC   PO4 3483   8.436   1.661   3.840
  250POPC   GL1 3484   8.207   1.704   4.245
  250POPC   GL2 3485   8.163   2.029   4.344
  250POPC   C1A 3486   7.997   1.720   4.693
  250POPC   D2A 3487   8.117   1.901   5.119
  250POPC   C3A 3488   7.848   1.809   5.455
  250POPC   C4A 3489   7.751   1.962   5.861
  250POPC   C1B 3490   8.154   2.242   4.741
  250POPC   C2B 3491   8.085   2.451   5.135
  250POPC   C3B 3492   7.963   2.336   5.548
  250POPC   C4B 3493   8.252   2.043   5.720
  251POPC   NC3 3494   2.944   8.321   3.844
  251POPC   PO4 3495   2.310   8.509   3.979
  251POPC   GL1 3496   2.385   8.351   4.427
  251POPC   GL2 3497   2.350   7.960   4.461
  251POPC   C1A 3498   2.519   8.341   4.906
  251POPC   D2A 3499   2.859   8.197   5.246
  251POPC   C3A 3500   3.053   8.198   5.699
  251POPC   C4A 3501   2.863   8.243   6.139
  251POPC   C1B 3502   2.367   7.764   4.880
  251POPC   C2B 3503   2.370   8.003   5.279
  251POPC   C3B 3504   2.556   8.078   5.712
  251POPC   C4B 3505   2.432   7.903   6.121
  252POPC   NC3 3506   6.534   3.621   4.036
  252POPC   PO4 3507   6.918   3.455   4.236
  252POPC   GL1 3508   6.615   3.616   4.544
  252POPC   GL2 3509   6.332   3.399   4.491
  252POPC   C1A 3510   6.417   3.659   4.976
  252POPC   D2A 3511   6.259   3.935   5.320
  252POPC   C3A 3512   6.552   3.916   5.669
  252POPC   C4A 3513   6.846   3.541   5.784
  252POPC   C1B 3514   6.621   3.179   4.798
  252POPC   C2B 3515   6.732   3.300   5.219
  252POPC   C3B 3516   6.430   3.457   5.495
  252POPC   C4B 3517   6.164   3.591   5.823
  253POPC   NC3 3518   8.169   9.674   3.947
  253POPC   PO4 3519   7.661  10.066   3.999
  253POPC   GL1 3520   7.901   9.883   4.336
  253POPC   GL2 3521   8.260   9.837   4.425
  253POPC   C1A 3522   7.957  10.052   4.767
  253POPC   D2A 3523   7.922   9.806   5.130
  253POPC   C3A 3524   7.699   9.832   5.503
  253POPC   C4A 3525   7.689   9.909   5.941
  253POPC   C1B 3526   8.154   9.555   4.754
  253POPC   C2B 3527   8.260   9.421   5.115
  253POPC   C3B 3528   7.996   9.420   5.466
  253POPC   C4B 3529   8.136   9.675   5.803
  254POPC   NC3 3530   9.288   9.991   3.683
  254POPC   PO4 3531   9.141   9.356   4.011
  254POPC   GL1 3532   9.291   9.673   4.287
  254POPC   GL2 3533   9.683   9.741   4.348
  254POPC   C1A 3534   9.214   9.664   4.717
  254POPC   D2A 3535   9.244   9.380   5.079
  254POPC   C3A 3536   9.210   9.532   5.518
  254POPC   C4A 3537   9.427   9.548   5.922
  254POPC   C1B 3538   9.889   9.659   4.799
  254POPC   C2B 3539   9.877   9.630   5.268
  254POPC   C3B 3540  10.002   9.487   5.666
  254POPC   C4B 3541   9.983   9.446   6.130
  255POPC   NC3 3542   5.247   0.941   3.970
  255POPC   PO4 3543   5.127   1.563   3.635
  255POPC   GL1 3544   5.059   1.387   4.123
  255POPC   GL2 3545   4.795   1.113   4.230
  255POPC   C1A 3546   5.113   1.275   4.583
  255POPC   D2A 3547   5.224   1.390   5.013
  255POPC   C3A 3548   4.900   1.365   5.331
  255POPC   C4A 3549   4.898   1.363   5.766
  255POPC   C1B 3550   4.763   0.854   4.602
  255POPC   C2B 3551   4.942   0.952   5.005
  255POPC   C3B 3552   5.085   0.896   5.412
  255POPC   C4B 3553   5.180   0.957   5.843
  256POPC   NC3 3554   0.228   7.988   3.953
  256POPC   PO4 3555   0.868   7.812   4.003
  256POPC   GL1 3556   0.593   8.009   4.323
  256POPC   GL2 3557   0.625   8.367   4.254
  256POPC   C1A 3558   0.439   8.054   4.767
  256POPC   D2A 3559   0.177   7.913   5.111
  256POPC   C3A 3560   0.374   8.076   5.491
  256POPC   C4A 3561   0.485   7.844   5.854
  256POPC   C1B 3562   0.719   8.480   4.682
  256POPC   C2B 3563   0.495   8.642   5.047
  256POPC   C3B 3564   0.613   8.583   5.481
  256POPC   C4B 3565   0.614   8.338   5.892
  257POPC   NC3 3566  10.201   7.320   4.229
  257POPC   PO4 3567   9.613   7.507   3.913
  257POPC   GL1 3568   9.725   7.521   4.351
  257POPC   GL2 3569   9.395   7.552   4.372
  257POPC   C1A 3570   9.924   7.457   4.804
  257POPC   D2A 3571  10.093   7.409   5.229
  257POPC   C3A 3572   9.838   7.656   5.495
  257POPC   C4A 3573   9.656   7.546   5.907
  257POPC   C1B 3574   9.406   7.366   4.752
  257POPC   C2B 3575   9.497   7.452   5.168
  257POPC   C3B 3576   9.607   7.192   5.511
  257POPC   C4B 3577   9.349   7.119   5.844
  258POPC   NC3 3578   8.305  11.165   3.682
  258POPC   PO4 3579   8.820  10.980   4.081
  258POPC   GL1 3580   8.862  11.180   4.444
  258POPC   GL2 3581   9.180  11.133   4.433
  258POPC   C1A 3582   8.683  11.365   4.798
  258POPC   D2A 3583   8.624  11.202   5.214
  258POPC   C3A 3584   8.587  11.471   5.566
  258POPC   C4A 3585   8.793  11.426   5.963
  258POPC   C1B 3586   9.150  11.164   4.891
  258POPC   C2B 3587   9.083  10.939   5.225
  258POPC   C3B 3588   9.038  11.190   5.567
  258POPC   C4B 3589   9.324  11.273   5.913
  259POPC   NC3 3590   1.701   6.641   3.754
  259POPC   PO4 3591   2.214   6.271   3.761
  259POPC   GL1 3592   1.914   6.377   4.142
  259POPC   GL2 3593   1.883   6.706   4.233
  259POPC   C1A 3594   1.816   6.336   4.634
  259POPC   D2A 3595   1.712   6.198   5.086
  259POPC   C3A 3596   1.923   6.307   5.506
  259POPC   C4A 3597   2.289   6.389   5.818
  259POPC   C1B 3598   2.060   6.795   4.659
  259POPC   C2B 3599   2.092   6.611   5.080
  259POPC   C3B 3600   2.225   6.762   5.494
  259POPC   C4B 3601   1.893   6.757   5.794
  260POPC   NC3 3602  11.181   5.678   3.929
  260POPC   PO4 3603  10.754   6.192   3.987
  260POPC   GL1 3604  10.902   5.909   4.299
  260POPC   GL2 3605  11.278   5.921   4.358
  260POPC   C1A 3606  10.959   5.715   4.711
  260POPC   D2A 3607  10.730   5.641   5.100
  260POPC   C3A 3608  10.927   5.739   5.482
  260POPC   C4A 3609  10.795   5.577   5.868
  260POPC   C1B 3610  11.459   5.924   4.770
  260POPC   C2B 3611  11.366   5.931   5.205
  260POPC   C3B 3612  11.424   5.735   5.600
  260POPC   C4B 3613  11.181   5.889   5.963
  261POPC   NC3 3614   5.118   9.285   4.009
  261POPC   PO4 3615   5.182  10.016   3.828
  261POPC   GL1 3616   5.139   9.811   4.215
  261POPC   GL2 3617   5.258   9.529   4.431
  261POPC   C1A 3618   4.973   9.910   4.623
  261POPC   D2A 3619   4.953   9.741   5.021
  261POPC   C3A 3620   4.919   9.927   5.397
  261POPC   C4A 3621   4.990   9.726   5.796
  261POPC   C1B 3622   4.885   9.358   4.694
  261POPC   C2B 3623   4.683   9.298   5.119
  261POPC   C3B 3624   4.695   9.300   5.598
  261POPC   C4B 3625   4.678   9.384   6.059
  262POPC   NC3 3626  10.886   6.642   3.961
  262POPC   PO4 3627  11.363   6.985   3.977
  262POPC   GL1 3628  11.226   6.789   4.328
  262POPC   GL2 3629  11.222   6.431   4.275
  262POPC   C1A 3630  11.326   6.719   4.729
  262POPC   D2A 3631  11.161   6.560   5.074
  262POPC   C3A 3632  11.200   6.765   5.448
  262POPC   C4A 3633  11.318   7.023   5.774
  262POPC   C1B 3634  11.042   6.267   4.649
  262POPC   C2B 3635  10.915   6.115   5.040
  262POPC   C3B 3636  11.043   6.236   5.455
  262POPC   C4B 3637  11.181   6.383   5.834
  263POPC   NC3 3638  11.123   7.394   3.849
  263POPC   PO4 3639  10.539   6.921   3.777
  263POPC   GL1 3640  10.856   7.107   4.169
  263POPC   GL2 3641  11.082   7.399   4.336
  263POPC   C1A 3642  10.949   7.062   4.683
  263POPC   D2A 3643  10.839   6.993   5.135
  263POPC   C3A 3644  10.889   7.184   5.529
  263POPC   C4A 3645  10.847   7.039   5.972
  263POPC   C1B 3646  11.420   7.238   4.624
  263POPC   C2B 3647  11.340   7.136   5.075
  263POPC   C3B 3648  11.350   7.412   5.450
  263POPC   C4B 3649  11.118   7.511   5.860
  264POPC   NC3 3650   5.260  10.530   3.761
  264POPC   PO4 3651   5.857  10.436   3.957
  264POPC   GL1 3652   5.903  10.538   4.364
  264POPC   GL2 3653   6.025  10.207   4.370
  264POPC   C1A 3654   5.742  10.692   4.793
  264POPC   D2A 3655   5.572  10.819   5.225
  264POPC   C3A 3656   5.640  10.579   5.609
  264POPC   C4A 3657   5.744  10.652   6.050
  264POPC   C1B 3658   5.845  10.178   4.761
  264POPC   C2B 3659   5.673  10.291   5.136
  264POPC   C3B 3660   5.796  10.102   5.497
  264POPC   C4B 3661   5.795  10.166   5.893
  265POPC   NC3 3662   0.161   3.429   3.983
  265POPC   PO4 3663  11.112   3.768   3.855
  265POPC   GL1 3664  11.227   3.525   4.230
  265POPC   GL2 3665  10.967   3.357   4.377
  265POPC   C1A 3666  11.433   3.337   4.605
  265POPC   D2A 3667  11.237   3.216   5.017
  265POPC   C3A 3668  11.383   3.316   5.457
  265POPC   C4A 3669  11.448   3.172   5.897
  265POPC   C1B 3670  11.078   3.666   4.716
  265POPC   C2B 3671  10.897   3.602   5.113
  265POPC   C3B 3672  10.901   3.569   5.537
  265POPC   C4B 3673  11.123   3.558   5.907
  266POPC   NC3 3674   1.243  11.309   3.999
  266POPC   PO4 3675   1.282  10.682   3.771
  266POPC   GL1 3676   1.306  10.859   4.265
  266POPC   GL2 3677   1.080  11.140   4.425
  266POPC   C1A 3678   1.291  10.821   4.769
  266POPC   D2A 3679   1.009  10.813   5.169
  266POPC   C3A 3680   1.131  10.920   5.625
  266POPC   C4A 3681   1.502  10.869   5.915
  266POPC   C1B 3682   1.394  11.344   4.689
  266POPC   C2B 3683   1.394   0.058   5.094
  266POPC   C3B 3684   1.249  11.421   5.494
  266POPC   C4B 3685   1.287  11.481   5.924
  267POPC   NC3 3686   1.554   5.027   3.769
  267POPC   PO4 3687   0.956   5.383   3.746
  267POPC   GL1 3688   1.098   5.354   4.177
  267POPC   GL2 3689   1.239   5.030   4.182
  267POPC   C1A 3690   1.302   5.381   4.604
  267POPC   D2A 3691   1.143   5.387   5.047
  267POPC   C3A 3692   1.351   5.427   5.438
  267POPC   C4A 3693   1.477   5.153   5.781
  267POPC   C1B 3694   1.197   4.836   4.607
  267POPC   C2B 3695   0.993   4.901   5.005
  267POPC   C3B 3696   1.173   4.890   5.418
  267POPC   C4B 3697   0.993   4.892   5.847
  268POPC   NC3 3698   1.152   6.776   4.044
  268POPC   PO4 3699   1.493   6.223   3.829
  268POPC   GL1 3700   1.421   6.266   4.289
  268POPC   GL2 3701   1.426   6.604   4.435
  268POPC   C1A 3702   1.172   6.242   4.713
  268POPC   D2A 3703   1.235   6.421   5.143
  268POPC   C3A 3704   1.013   6.325   5.540
  268POPC   C4A 3705   1.413   6.513   5.716
  268POPC   C1B 3706   1.137   6.768   4.755
  268POPC   C2B 3707   1.160   6.978   5.151
  268POPC   C3B 3708   1.035   6.830   5.539
  268POPC   C4B 3709   1.039   6.986   5.927
  269POPC   NC3 3710   0.595   5.292   4.054
  269POPC   PO4 3711   0.741   4.603   3.929
  269POPC   GL1 3712   0.465   4.789   4.247
  269POPC   GL2 3713   0.771   4.923   4.352
  269POPC   C1A 3714   0.406   4.969   4.705
  269POPC   D2A 3715   0.513   4.815   5.153
  269POPC   C3A 3716   0.439   4.999   5.562
  269POPC   C4A 3717   0.445   4.881   6.016
  269POPC   C1B 3718   0.818   5.252   4.661
  269POPC   C2B 3719   0.646   5.294   5.075
  269POPC   C3B 3720   0.854   5.285   5.475
  269POPC   C4B 3721   0.701   5.304   5.887
  270POPC   NC3 3722   6.437   0.899   3.763
  270POPC   PO4 3723   7.028   0.943   4.053
  270POPC   GL1 3724   6.659   0.796   4.295
  270POPC   GL2 3725   6.353   1.026   4.260
  270POPC   C1A 3726   6.669   0.697   4.747
  270POPC   D2A 3727   6.889   0.851   5.122
  270POPC   C3A 3728   6.682   0.867   5.510
  270POPC   C4A 3729   6.412   0.935   5.843
  270POPC   C1B 3730   6.477   1.173   4.677
  270POPC   C2B 3731   6.453   1.113   5.114
  270POPC   C3B 3732   6.364   1.309   5.492
  270POPC   C4B 3733   6.702   1.386   5.728
  271POPC   NC3 3734  10.240   7.317   3.683
  271POPC   PO4 3735  10.578   7.576   4.165
  271POPC   GL1 3736  10.593   7.366   4.528
  271POPC   GL2 3737  10.486   7.000   4.484
  271POPC   C1A 3738  10.484   7.299   4.912
  271POPC   D2A 3739  10.631   7.556   5.199
  271POPC   C3A 3740  10.519   7.538   5.590
  271POPC   C4A 3741  10.688   7.866   5.802
  271POPC   C1B 3742  10.223   6.863   4.795
  271POPC   C2B 3743  10.333   6.909   5.221
  271POPC   C3B 3744  10.398   7.048   5.590
  271POPC   C4B 3745  10.068   7.280   5.736
  272POPC   NC3 3746   9.553   7.988   3.964
  272POPC   PO4 3747  10.106   7.790   3.656
  272POPC   GL1 3748  10.042   7.856   4.122
  272POPC   GL2 3749   9.978   8.229   4.195
  272POPC   C1A 3750   9.897   7.931   4.594
  272POPC   D2A 3751   9.693   7.914   5.017
  272POPC   C3A 3752   9.806   8.167   5.403
  272POPC   C4A 3753   9.818   8.029   5.836
  272POPC   C1B 3754   9.611   8.367   4.507
  272POPC   C2B 3755   9.349   8.368   4.908
  272POPC   C3B 3756   9.324   8.328   5.351
  272POPC   C4B 3757   9.373   8.267   5.791
  273POPC   NC3 3758   0.975   9.338   3.828
  273POPC   PO4 3759   1.607   9.221   3.979
  273POPC   GL1 3760   1.302   9.470   4.240
  273POPC   GL2 3761   1.334   9.853   4.288
  273POPC   C1A 3762   1.148   9.498   4.649
  273POPC   D2A 3763   0.937   9.493   5.036
  273POPC   C3A 3764   1.140   9.513   5.428
  273POPC   C4A 3765   0.877   9.538   5.793
  273POPC   C1B 3766   1.536   9.863   4.675
  273POPC   C2B 3767   1.266   9.893   5.015
  273POPC   C3B 3768   1.312  10.021   5.415
  273POPC   C4B 3769   1.209   9.913   5.824
  274POPC   NC3 3770   0.577   6.097   3.785
  274POPC   PO4 3771   0.686   6.765   3.982
  274POPC   GL1 3772   0.427   6.437   4.159
  274POPC   GL2 3773   0.664   6.208   4.303
  274POPC   C1A 3774   0.174   6.365   4.545
  274POPC   D2A 3775   0.245   6.540   4.973
  274POPC   C3A 3776   0.062   6.395   5.367
  274POPC   C4A 3777   0.116   6.623   5.741
  274POPC   C1B 3778   0.694   6.486   4.654
  274POPC   C2B 3779   0.732   6.404   5.094
  274POPC   C3B 3780   0.561   6.598   5.460
  274POPC   C4B 3781   0.544   6.916   5.777
  275POPC   NC3 3782   4.729  10.015   3.981
  275POPC   PO4 3783   4.879  10.719   3.935
  275POPC   GL1 3784   5.039  10.389   4.214
  275POPC   GL2 3785   5.413  10.309   4.188
  275POPC   C1A 3786   4.832  10.398   4.620
  275POPC   D2A 3787   4.648  10.169   4.951
  275POPC   C3A 3788   4.713  10.393   5.321
  275POPC   C4A 3789   4.788  10.687   5.646
  275POPC   C1B 3790   5.362  10.307   4.626
  275POPC   C2B 3791   5.152  10.263   5.016
  275POPC   C3B 3792   5.210  10.370   5.432
  275POPC   C4B 3793   5.318  10.117   5.751
  276POPC   NC3 3794   4.610   2.867   3.954
  276POPC   PO4 3795   4.021   3.059   3.977
  276POPC   GL1 3796   4.221   2.717   4.276
  276POPC   GL2 3797   4.099   2.379   4.381
  276POPC   C1A 3798   4.403   2.584   4.718
  276POPC   D2A 3799   4.237   2.576   5.157
  276POPC   C3A 3800   4.499   2.675   5.530
  276POPC   C4A 3801   4.848   2.668   5.825
  276POPC   C1B 3802   3.885   2.616   4.703
  276POPC   C2B 3803   3.689   2.504   5.101
  276POPC   C3B 3804   3.884   2.396   5.476
  276POPC   C4B 3805   4.085   2.597   5.826
  277POPC   NC3 3806   8.692   4.650   3.849
  277POPC   PO4 3807   8.712   4.033   3.857
  277POPC   GL1 3808   8.937   3.918   4.251
  277POPC   GL2 3809   9.072   4.211   4.434
  277POPC   C1A 3810   8.862   3.810   4.704
  277POPC   D2A 3811   8.696   3.704   5.138
  277POPC   C3A 3812   8.743   3.852   5.573
  277POPC   C4A 3813   8.532   4.157   5.810
  277POPC   C1B 3814   9.022   4.328   4.871
  277POPC   C2B 3815   8.976   4.202   5.306
  277POPC   C3B 3816   9.050   4.282   5.758
  277POPC   C4B 3817   8.830   4.360   6.166
  278POPC   NC3 3818   1.021   2.922   4.043
  278POPC   PO4 3819   1.287   3.467   3.730
  278POPC   GL1 3820   1.338   3.565   4.160
  278POPC   GL2 3821   1.103   3.372   4.294
  278POPC   C1A 3822   1.524   3.533   4.592
  278POPC   D2A 3823   1.629   3.526   5.039
  278POPC   C3A 3824   1.444   3.806   5.341
  278POPC   C4A 3825   1.549   3.627   5.731
  278POPC   C1B 3826   1.008   3.230   4.703
  278POPC   C2B 3827   1.143   3.398   5.097
  278POPC   C3B 3828   1.096   3.481   5.523
  278POPC   C4B 3829   0.881   3.217   5.823
  279POPC   NC3 3830   3.128   1.148   3.736
  279POPC   PO4 3831   2.775   1.421   4.159
  279POPC   GL1 3832   2.800   1.118   4.439
  279POPC   GL2 3833   2.499   0.888   4.387
  279POPC   C1A 3834   2.909   1.208   4.893
  279POPC   D2A 3835   3.237   1.329   5.207
  279POPC   C3A 3836   3.066   1.270   5.634
  279POPC   C4A 3837   2.998   1.035   6.030
  279POPC   C1B 3838   2.340   1.251   4.603
  279POPC   C2B 3839   2.352   1.179   4.994
  279POPC   C3B 3840   2.619   1.273   5.358
  279POPC   C4B 3841   2.579   1.182   5.789
  280POPC   NC3 3842   3.843  11.263   3.963
  280POPC   PO4 3843   3.118  11.337   3.865
  280POPC   GL1 3844   3.360  11.409   4.225
  280POPC   GL2 3845   3.524  11.121   4.338
  280POPC   C1A 3846   3.235  11.384   4.690
  280POPC   D2A 3847   3.316   0.050   5.118
  280POPC   C3A 3848   3.117  11.363   5.477
  280POPC   C4A 3849   3.330  11.217   5.849
  280POPC   C1B 3850   3.417  10.896   4.717
  280POPC   C2B 3851   3.466  11.070   5.101
  280POPC   C3B 3852   3.632  11.045   5.490
  280POPC   C4B 3853   3.549  10.760   5.825
  281POPC   NC3 3854   5.145   8.295   3.874
  281POPC   PO4 3855   4.830   8.752   3.922
  281POPC   GL1 3856   4.878   8.503   4.310
  281POPC   GL2 3857   5.123   8.221   4.379
  281POPC   C1A 3858   4.895   8.430   4.782
  281POPC   D2A 3859   4.959   8.132   5.123
  281POPC   C3A 3860   4.929   8.310   5.535
  281POPC   C4A 3861   4.624   8.385   5.888
  281POPC   C1B 3862   5.281   7.953   4.741
  281POPC   C2B 3863   5.223   7.692   5.120
  281POPC   C3B 3864   5.183   7.852   5.542
  281POPC   C4B 3865   5.450   8.155   5.779
  282POPC   NC3 3866   6.951   0.424   4.027
  282POPC   PO4 3867   6.276   0.380   3.847
  282POPC   GL1 3868   6.505   0.275   4.268
  282POPC   GL2 3869   6.244   0.461   4.435
  282POPC   C1A 3870   6.857   0.205   4.631
  282POPC   D2A 3871   6.986   0.359   5.045
  282POPC   C3A 3872   6.871   0.106   5.396
  282POPC   C4A 3873   6.728  11.355   5.736
  282POPC   C1B 3874   6.382   0.274   4.826
  282POPC   C2B 3875   6.513   0.467   5.198
  282POPC   C3B 3876   6.339   0.484   5.562
  282POPC   C4B 3877   6.569   0.312   5.789
  283POPC   NC3 3878   7.991  10.573   3.888
  283POPC   PO4 3879   8.507  10.045   3.910
  283POPC   GL1 3880   8.426  10.288   4.283
  283POPC   GL2 3881   8.109  10.335   4.310
  283POPC   C1A 3882   8.426  10.295   4.739
  283POPC   D2A 3883   8.419   9.934   5.056
  283POPC   C3A 3884   8.204  10.062   5.467
  283POPC   C4A 3885   8.120  10.205   5.904
  283POPC   C1B 3886   8.006  10.612   4.609
  283POPC   C2B 3887   8.014  10.740   5.032
  283POPC   C3B 3888   8.158  10.601   5.469
  283POPC   C4B 3889   7.950  10.692   5.878
  284POPC   NC3 3890   2.514   5.921   3.792
  284POPC   PO4 3891   3.194   5.952   3.688
  284POPC   GL1 3892   2.940   5.925   4.124
  284POPC   GL2 3893   2.606   5.815   4.291
  284POPC   C1A 3894   2.871   6.127   4.585
  284POPC   D2A 3895   2.731   6.142   5.057
  284POPC   C3A 3896   2.878   5.999   5.489
  284POPC   C4A 3897   2.768   6.095   5.937
  284POPC   C1B 3898   2.556   5.736   4.761
  284POPC   C2B 3899   2.623   5.649   5.218
  284POPC   C3B 3900   2.639   5.556   5.663
  284POPC   C4B 3901   2.441   5.722   6.055
  285POPC   NC3 3902   1.875   5.952   3.836
  285POPC   PO4 3903   2.330   5.538   3.974
  285POPC   GL1 3904   2.069   5.624   4.300
  285POPC   GL2 3905   1.983   5.927   4.348
  285POPC   C1A 3906   1.804   5.455   4.611
  285POPC   D2A 3907   1.645   5.477   5.016
  285POPC   C3A 3908   1.783   5.753   5.351
  285POPC   C4A 3909   1.643   5.662   5.787
  285POPC   C1B 3910   2.043   5.877   4.784
  285POPC   C2B 3911   2.230   6.031   5.148
  285POPC   C3B 3912   2.345   5.959   5.554
  285POPC   C4B 3913   2.040   5.945   5.866
  286POPC   NC3 3914   7.268   9.983   4.251
  286POPC   PO4 3915   7.112  10.482   3.885
  286POPC   GL1 3916   7.139  10.574   4.373
  286POPC   GL2 3917   7.171  10.266   4.637
  286POPC   C1A 3918   7.085  10.702   4.834
  286POPC   D2A 3919   7.223  10.401   5.197
  286POPC   C3A 3920   7.157  10.483   5.648
  286POPC   C4A 3921   7.109  10.662   6.126
  286POPC   C1B 3922   7.564  10.382   4.805
  286POPC   C2B 3923   7.772  10.307   5.193
  286POPC   C3B 3924   7.696  10.323   5.617
  286POPC   C4B 3925   7.501  10.379   5.992
  287POPC   NC3 3926   2.033   5.171   4.077
  287POPC   PO4 3927   2.300   4.626   3.903
  287POPC   GL1 3928   2.099   4.590   4.350
  287POPC   GL2 3929   2.169   4.888   4.504
  287POPC   C1A 3930   1.739   4.631   4.722
  287POPC   D2A 3931   1.526   4.944   5.016
  287POPC   C3A 3932   1.715   4.862   5.429
  287POPC   C4A 3933   1.977   4.586   5.745
  287POPC   C1B 3934   2.271   5.296   4.720
  287POPC   C2B 3935   2.158   5.505   5.116
  287POPC   C3B 3936   2.142   5.479   5.582
  287POPC   C4B 3937   2.045   5.095   5.761
  288POPC   NC3 3938   0.326   4.410   3.876
  288POPC   PO4 3939   0.485   3.819   3.957
  288POPC   GL1 3940   0.485   4.126   4.300
  288POPC   GL2 3941   0.762   4.339   4.337
  288POPC   C1A 3942   0.643   4.061   4.739
  288POPC   D2A 3943   0.449   3.955   5.111
  288POPC   C3A 3944   0.477   4.132   5.530
  288POPC   C4A 3945   0.274   4.517   5.652
  288POPC   C1B 3946   0.703   4.564   4.718
  288POPC   C2B 3947   0.777   4.386   5.126
  288POPC   C3B 3948   0.791   4.547   5.527
  288POPC   C4B 3949   0.699   4.465   5.956
  289POPC   NC3 3950   1.972   8.574   3.668
  289POPC   PO4 3951   2.212   9.153   3.760
  289POPC   GL1 3952   2.023   9.143   4.231
  289POPC   GL2 3953   2.010   8.767   4.317
  289POPC   C1A 3954   2.126   9.166   4.686
  289POPC   D2A 3955   1.893   9.107   5.094
  289POPC   C3A 3956   2.117   9.202   5.482
  289POPC   C4A 3957   2.209   8.887   5.758
  289POPC   C1B 3958   1.758   8.783   4.707
  289POPC   C2B 3959   1.570   8.622   5.077
  289POPC   C3B 3960   1.723   8.606   5.490
  289POPC   C4B 3961   1.679   9.008   5.671
  290POPC   NC3 3962   0.641   1.138   3.694
  290POPC   PO4 3963   0.150   1.511   3.972
  290POPC   GL1 3964   0.288   1.407   4.341
  290POPC   GL2 3965   0.563   1.199   4.223
  290POPC   C1A 3966   0.118   1.440   4.773
  290POPC   D2A 3967  11.442   1.662   5.135
  290POPC   C3A 3968   0.049   1.489   5.512
  290POPC   C4A 3969   0.397   1.471   5.791
  290POPC   C1B 3970   0.351   0.992   4.601
  290POPC   C2B 3971   0.271   0.932   5.046
  290POPC   C3B 3972   0.472   1.129   5.401
  290POPC   C4B 3973   0.744   1.100   5.753
  291POPC   NC3 3974   8.347   0.581   3.802
  291POPC   PO4 3975   8.089  11.497   3.961
  291POPC   GL1 3976   8.132   0.422   4.231
  291POPC   GL2 3977   7.877   0.669   4.395
  291POPC   C1A 3978   8.343   0.607   4.614
  291POPC   D2A 3979   8.361   0.432   5.061
  291POPC   C3A 3980   8.377   0.691   5.479
  291POPC   C4A 3981   8.225   0.641   5.937
  291POPC   C1B 3982   7.922   0.279   4.721
  291POPC   C2B 3983   7.939   0.142   5.205
  291POPC   C3B 3984   7.954   0.251   5.681
  291POPC   C4B 3985   7.818   0.161   6.155
  292POPC   NC3 3986   8.885   1.940   3.775
  292POPC   PO4 3987   9.274   1.562   4.114
  292POPC   GL1 3988   8.759   1.692   4.288
  292POPC   GL2 3989   8.641   2.044   4.195
  292POPC   C1A 3990   8.505   1.633   4.713
  292POPC   D2A 3991   8.628   1.815   5.142
  292POPC   C3A 3992   8.594   1.664   5.587
  292POPC   C4A 3993   8.654   1.636   6.050
  292POPC   C1B 3994   8.656   2.106   4.638
  292POPC   C2B 3995   8.576   2.311   5.038
  292POPC   C3B 3996   8.689   2.225   5.489
  292POPC   C4B 3997   9.126   2.111   5.641
  293POPC   NC3 3998   9.738  10.298   3.984
  293POPC   PO4 3999   9.101  10.154   4.066
  293POPC   GL1 4000   9.401  10.173   4.367
  293POPC   GL2 4001   9.632  10.431   4.444
  293POPC   C1A 4002   9.554  10.048   4.764
  293POPC   D2A 4003   9.448   9.856   5.130
  293POPC   C3A 4004   9.305  10.041   5.494
  293POPC   C4A 4005   9.692   9.915   5.690
  293POPC   C1B 4006   9.804  10.510   4.838
  293POPC   C2B 4007   9.521  10.420   5.174
  293POPC   C3B 4008   9.609  10.432   5.579
  293POPC   C4B 4009   9.939  10.692   5.674
  294POPC   NC3 4010   2.587   1.071   3.914
  294POPC   PO4 4011   1.950   0.787   3.912
  294POPC   GL1 4012   1.959   1.021   4.288
  294POPC   GL2 4013   1.967   1.386   4.284
  294POPC   C1A 4014   1.940   0.955   4.707
  294POPC   D2A 4015   1.862   1.024   5.117
  294POPC   C3A 4016   2.167   1.023   5.434
  294POPC   C4A 4017   2.103   1.054   5.846
  294POPC   C1B 4018   1.869   1.456   4.748
  294POPC   C2B 4019   2.097   1.586   5.141
  294POPC   C3B 4020   2.139   1.509   5.582
  294POPC   C4B 4021   1.777   1.425   5.840
  295POPC   NC3 4022   3.598   1.950   3.718
  295POPC   PO4 4023   3.904   2.496   3.906
  295POPC   GL1 4024   3.670   2.206   4.187
  295POPC   GL2 4025   3.518   1.885   4.224
  295POPC   C1A 4026   3.577   2.221   4.643
  295POPC   D2A 4027   3.582   1.896   4.969
  295POPC   C3A 4028   3.543   2.019   5.379
  295POPC   C4A 4029   3.759   1.991   5.762
  295POPC   C1B 4030   3.229   1.845   4.595
  295POPC   C2B 4031   3.052   1.809   5.008
  295POPC   C3B 4032   3.095   1.761   5.448
  295POPC   C4B 4033   3.250   1.964   5.806
  296POPC   NC3 4034   1.183   5.793   3.862
  296POPC   PO4 4035   1.744   5.455   3.844
  296POPC   GL1 4036   1.529   5.714   4.239
  296POPC   GL2 4037   1.163   5.832   4.361
  296POPC   C1A 4038   1.532   5.879   4.701
  296POPC   D2A 4039   1.294   5.878   5.119
  296POPC   C3A 4040   1.419   6.037   5.533
  296POPC   C4A 4041   1.334   6.070   5.996
  296POPC   C1B 4042   0.949   5.757   4.742
  296POPC   C2B 4043   0.779   5.782   5.147
  296POPC   C3B 4044   0.942   5.789   5.543
  296POPC   C4B 4045   1.133   5.602   5.897
  297POPC   NC3 4046   0.239   9.667   4.154
  297POPC   PO4 4047   0.818   9.796   3.764
  297POPC   GL1 4048   0.833   9.718   4.221
  297POPC   GL2 4049   0.729   9.395   4.358
  297POPC   C1A 4050   0.855   9.913   4.654
  297POPC   D2A 4051   0.612   9.977   5.020
  297POPC   C3A 4052   0.806   9.912   5.410
  297POPC   C4A 4053   0.721  10.048   5.825
  297POPC   C1B 4054   0.491   9.513   4.771
  297POPC   C2B 4055   0.299   9.619   5.199
  297POPC   C3B 4056   0.376   9.693   5.651
  297POPC   C4B 4057   0.451   9.521   6.066
  298POPC   NC3 4058   0.123   2.765   3.932
  298POPC   PO4 4059   0.638   2.238   3.998
  298POPC   GL1 4060   0.622   2.644   4.245
  298POPC   GL2 4061   0.331   2.872   4.364
  298POPC   C1A 4062   0.685   2.734   4.682
  298POPC   D2A 4063   0.616   2.967   5.041
  298POPC   C3A 4064   0.600   2.753   5.438
  298POPC   C4A 4065   0.544   2.737   5.883
  298POPC   C1B 4066   0.105   2.896   4.746
  298POPC   C2B 4067   0.133   2.944   5.193
  298POPC   C3B 4068   0.119   2.787   5.586
  298POPC   C4B 4069   0.119   2.378   5.721
  299POPC   NC3 4070   7.326   2.363   3.856
  299POPC   PO4 4071   7.655   2.793   4.099
  299POPC   GL1 4072   7.429   2.671   4.446
  299POPC   GL2 4073   7.133   2.468   4.328
  299POPC   C1A 4074   7.463   2.763   4.893
  299POPC   D2A 4075   7.642   2.645   5.281
  299POPC   C3A 4076   7.413   2.740   5.648
  299POPC   C4A 4077   7.155   3.109   5.786
  299POPC   C1B 4078   7.125   2.390   4.786
  299POPC   C2B 4079   7.123   2.539   5.222
  299POPC   C3B 4080   6.904   2.718   5.572
  299POPC   C4B 4081   7.006   2.647   6.000
  300POPC   NC3 4082   1.366  10.279   3.969
  300POPC   PO4 4083   0.763  10.534   3.702
  300POPC   GL1 4084   0.892  10.568   4.162
  300POPC   GL2 4085   0.939  10.230   4.261
  300POPC   C1A 4086   0.845  10.550   4.668
  300POPC   D2A 4087   0.992  10.314   5.085
  300POPC   C3A 4088   0.999  10.417   5.570
  300POPC   C4A 4089   1.121  10.580   6.034
  300POPC   C1B 4090   1.272  10.290   4.610
  300POPC   C2B 4091   1.520  10.364   4.981
  300POPC   C3B 4092   1.508  10.533   5.389
  300POPC   C4B 4093   1.479  10.358   5.788
  301POPC   NC3 4094   8.874   1.414   3.891
  301POPC   PO4 4095   8.777   0.718   3.883
  301POPC   GL1 4096   8.756   0.780   4.320
  301POPC   GL2 4097   8.868   1.095   4.276
  301POPC   C1A 4098   8.898   0.875   4.748
  301POPC   D2A 4099   9.184   1.005   5.054
  301POPC   C3A 4100   8.972   1.043   5.470
  301POPC   C4A 4101   9.114   1.099   5.895
  301POPC   C1B 4102   8.921   1.353   4.617
  301POPC   C2B 4103   8.839   1.367   5.020
  301POPC   C3B 4104   9.078   1.563   5.321
  301POPC   C4B 4105   9.099   1.605   5.751
  302POPC   NC3 4106   0.062   1.019   3.994
  302POPC   PO4 4107  10.919   0.829   3.964
  302POPC   GL1 4108  11.157   1.054   4.316
  302POPC   GL2 4109  11.266   1.418   4.355
  302POPC   C1A 4110  11.340   0.982   4.732
  302POPC   D2A 4111  11.189   0.894   5.165
  302POPC   C3A 4112  11.481   0.973   5.492
  302POPC   C4A 4113  11.469   0.890   5.926
  302POPC   C1B 4114  11.080   1.477   4.794
  302POPC   C2B 4115  11.028   1.370   5.245
  302POPC   C3B 4116  11.051   1.194   5.659
  302POPC   C4B 4117  10.892   1.415   6.049
  303POPC   NC3 4118   2.107   8.081   4.030
  303POPC   PO4 4119   1.500   7.930   3.879
  303POPC   GL1 4120   1.727   7.900   4.294
  303POPC   GL2 4121   1.883   8.242   4.454
  303POPC   C1A 4122   1.895   7.810   4.691
  303POPC   D2A 4123   1.705   7.869   5.064
  303POPC   C3A 4124   1.861   8.028   5.412
  303POPC   C4A 4125   1.726   7.700   5.689
  303POPC   C1B 4126   1.935   8.309   4.877
  303POPC   C2B 4127   2.129   8.592   5.172
  303POPC   C3B 4128   2.197   8.412   5.575
  303POPC   C4B 4129   2.030   8.108   5.883
  304POPC   NC3 4130   0.604   5.533   3.489
  304POPC   PO4 4131   0.757   5.770   4.054
  304POPC   GL1 4132   0.599   5.671   4.387
  304POPC   GL2 4133   0.290   5.853   4.329
  304POPC   C1A 4134   0.352   5.494   4.700
  304POPC   D2A 4135   0.193   5.561   5.095
  304POPC   C3A 4136   0.415   5.552   5.471
  304POPC   C4A 4137   0.439   5.721   5.871
  304POPC   C1B 4138   0.484   6.005   4.736
  304POPC   C2B 4139   0.357   6.054   5.120
  304POPC   C3B 4140   0.492   6.090   5.520
  304POPC   C4B 4141   0.157   6.125   5.806
  305POPC   NC3 4142  10.380   6.418   3.837
  305POPC   PO4 4143  10.061   6.902   4.113
  305POPC   GL1 4144  10.289   6.557   4.323
  305POPC   GL2 4145  10.654   6.518   4.381
  305POPC   C1A 4146  10.305   6.339   4.717
  305POPC   D2A 4147  10.133   6.466   5.113
  305POPC   C3A 4148  10.260   6.374   5.531
  305POPC   C4A 4149  10.304   6.644   5.869
  305POPC   C1B 4150  10.706   6.628   4.809
  305POPC   C2B 4151  10.660   6.516   5.239
  305POPC   C3B 4152  10.756   6.639   5.658
  305POPC   C4B 4153  10.725   6.564   6.129
  306POPC   NC3 4154   9.260  10.966   3.904
  306POPC   PO4 4155   9.951  10.729   3.991
  306POPC   GL1 4156   9.627  10.901   4.262
  306POPC   GL2 4157   9.648  11.253   4.283
  306POPC   C1A 4158   9.457  10.828   4.704
  306POPC   D2A 4159   9.614  10.973   5.141
  306POPC   C3A 4160   9.470  10.910   5.585
  306POPC   C4A 4161   9.395  10.697   6.003
  306POPC   C1B 4162   9.640  11.300   4.723
  306POPC   C2B 4163   9.506  11.492   5.099
  306POPC   C3B 4164   9.670  11.380   5.503
  306POPC   C4B 4165  10.060  11.166   5.641
  307POPC   NC3 4166   7.381   9.063   3.875
  307POPC   PO4 4167   7.671   8.525   3.941
  307POPC   GL1 4168   7.528   8.834   4.294
  307POPC   GL2 4169   7.187   8.944   4.354
  307POPC   C1A 4170   7.556   9.064   4.726
  307POPC   D2A 4171   7.483   8.934   5.161
  307POPC   C3A 4172   7.759   8.933   5.486
  307POPC   C4A 4173   7.758   8.875   5.896
  307POPC   C1B 4174   7.063   8.978   4.812
  307POPC   C2B 4175   7.083   9.219   5.224
  307POPC   C3B 4176   7.130   8.942   5.590
  307POPC   C4B 4177   6.942   8.797   6.002
  308POPC   NC3 4178   9.633   4.973   3.952
  308POPC   PO4 4179   9.102   4.571   4.051
  308POPC   GL1 4180   9.386   4.643   4.403
  308POPC   GL2 4181   9.568   4.974   4.445
  308POPC   C1A 4182   9.456   4.696   4.857
  308POPC   D2A 4183   9.459   4.960   5.229
  308POPC   C3A 4184   9.480   4.753   5.638
  308POPC   C4A 4185   9.136   4.756   5.954
  308POPC   C1B 4186   9.894   4.969   4.758
  308POPC   C2B 4187   9.909   5.190   5.145
  308POPC   C3B 4188   9.766   5.187   5.591
  308POPC   C4B 4189   9.909   5.295   6.020
  309POPC   NC3 4190  11.165   9.513   3.817
  309POPC   PO4 4191   0.136   9.228   4.069
  309POPC   GL1 4192  11.304   9.511   4.314
  309POPC   GL2 4193  10.930   9.449   4.276
  309POPC   C1A 4194  11.439   9.612   4.759
  309POPC   D2A 4195  11.237   9.653   5.146
  309POPC   C3A 4196  11.391   9.562   5.542
  309POPC   C4A 4197  11.493   9.197   5.795
  309POPC   C1B 4198  10.914   9.576   4.706
  309POPC   C2B 4199  10.734   9.534   5.104
  309POPC   C3B 4200  10.861   9.617   5.510
  309POPC   C4B 4201  10.988   9.696   5.938
  310POPC   NC3 4202   9.684   3.308   3.708
  310POPC   PO4 4203   9.690   3.880   3.999
  310POPC   GL1 4204   9.720   3.624   4.351
  310POPC   GL2 4205   9.678   3.248   4.337
  310POPC   C1A 4206   9.723   3.756   4.786
  310POPC   D2A 4207   9.875   3.996   5.127
  310POPC   C3A 4208   9.902   3.749   5.502
  310POPC   C4A 4209   9.785   3.678   5.933
  310POPC   C1B 4210   9.702   3.230   4.788
  310POPC   C2B 4211   9.573   3.447   5.178
  310POPC   C3B 4212   9.525   3.379   5.633
  310POPC   C4B 4213   9.737   3.153   5.979
  311POPC   NC3 4214   3.183   0.294   3.711
  311POPC   PO4 4215   3.736   0.222   3.957
  311POPC   GL1 4216   3.467   0.411   4.310
  311POPC   GL2 4217   3.684   0.694   4.394
  311POPC   C1A 4218   3.282   0.413   4.752
  311POPC   D2A 4219   3.025   0.465   5.165
  311POPC   C3A 4220   3.254   0.355   5.545
  311POPC   C4A 4221   3.623   0.059   5.571
  311POPC   C1B 4222   3.773   0.541   4.804
  311POPC   C2B 4223   3.642   0.461   5.222
  311POPC   C3B 4224   3.740   0.570   5.666
  311POPC   C4B 4225   3.789   0.736   6.114
  312POPC   NC3 4226   4.410  10.844   3.902
  312POPC   PO4 4227   4.190  10.131   3.867
  312POPC   GL1 4228   4.172  10.371   4.222
  312POPC   GL2 4229   4.515  10.448   4.215
  312POPC   C1A 4230   4.219  10.229   4.658
  312POPC   D2A 4231   4.018  10.213   5.072
  312POPC   C3A 4232   4.261  10.174   5.462
  312POPC   C4A 4233   4.217  10.074   5.945
  312POPC   C1B 4234   4.395  10.707   4.568
  312POPC   C2B 4235   4.369  10.597   5.001
  312POPC   C3B 4236   4.322  10.711   5.423
  312POPC   C4B 4237   4.326  10.530   5.809
  313POPC   NC3 4238  11.467   1.876   3.736
  313POPC   PO4 4239  10.839   1.996   3.760
  313POPC   GL1 4240  10.996   2.121   4.208
  313POPC   GL2 4241  11.326   1.977   4.242
  313POPC   C1A 4242  10.847   2.074   4.683
  313POPC   D2A 4243  10.900   1.872   5.123
  313POPC   C3A 4244  10.756   2.069   5.533
  313POPC   C4A 4245  10.964   2.246   5.893
  313POPC   C1B 4246  11.356   1.939   4.694
  313POPC   C2B 4247  11.345   2.157   5.097
  313POPC   C3B 4248  11.267   2.041   5.505
  313POPC   C4B 4249  11.082   1.696   5.666
  314POPC   NC3 4250  11.140   5.027   3.918
  314POPC   PO4 4251   0.117   5.488   3.930
  314POPC   GL1 4252   0.002   5.106   4.266
  314POPC   GL2 4253  11.118   5.149   4.399
  314POPC   C1A 4254  11.424   4.855   4.678
  314POPC   D2A 4255   0.068   5.052   5.086
  314POPC   C3A 4256  11.446   4.880   5.477
  314POPC   C4A 4257  11.454   4.987   5.921
  314POPC   C1B 4258  11.342   5.375   4.734
  314POPC   C2B 4259  11.209   5.432   5.183
  314POPC   C3B 4260  11.156   5.294   5.629
  314POPC   C4B 4261  10.908   5.079   5.958
  315POPC   NC3 4262  11.089  10.411   3.950
  315POPC   PO4 4263   0.075  10.860   3.745
  315POPC   GL1 4264  11.429  10.732   4.225
  315POPC   GL2 4265  11.360  10.416   4.407
  315POPC   C1A 4266  11.362  10.835   4.710
  315POPC   D2A 4267  11.292  10.945   5.168
  315POPC   C3A 4268   0.019  10.642   5.499
  315POPC   C4A 4269  11.366  10.519   5.909
  315POPC   C1B 4270  11.145  10.053   4.640
  315POPC   C2B 4271  10.898  10.020   5.045
  315POPC   C3B 4272  11.088  10.063   5.478
  315POPC   C4B 4273  11.460  10.041   5.735
  316POPC   NC3 4274   6.323  10.344   3.937
  316POPC   PO4 4275   6.875   9.923   4.021
  316POPC   GL1 4276   6.735  10.237   4.347
  316POPC   GL2 4277   6.469  10.519   4.378
  316POPC   C1A 4278   6.711  10.355   4.795
  316POPC   D2A 4279   6.708  10.567   5.182
  316POPC   C3A 4280   6.680  10.317   5.525
  316POPC   C4A 4281   6.701  10.455   5.927
  316POPC   C1B 4282   6.233  10.500   4.756
  316POPC   C2B 4283   6.219  10.296   5.133
  316POPC   C3B 4284   6.179  10.460   5.539
  316POPC   C4B 4285   6.283  10.178   5.843
  317POPC   NC3 4286   5.725   9.928   3.898
  317POPC   PO4 4287   5.575   9.275   4.082
  317POPC   GL1 4288   5.778   9.616   4.300
  317POPC   GL2 4289   5.613   9.900   4.399
  317POPC   C1A 4290   5.983   9.689   4.686
  317POPC   D2A 4291   5.892   9.790   5.108
  317POPC   C3A 4292   5.889   9.419   5.378
  317POPC   C4A 4293   5.673   9.203   5.750
  317POPC   C1B 4294   5.453   9.834   4.818
  317POPC   C2B 4295   5.398   9.868   5.258
  317POPC   C3B 4296   5.496   9.668   5.622
  317POPC   C4B 4297   5.889   9.683   5.802
  318POPC   NC3 4298   2.637   3.457   3.948
  318POPC   PO4 4299   2.583   4.054   3.917
  318POPC   GL1 4300   2.565   3.730   4.375
  318POPC   GL2 4301   2.739   3.367   4.416
  318POPC   C1A 4302   2.415   3.502   4.764
  318POPC   D2A 4303   2.326   3.693   5.119
  318POPC   C3A 4304   2.473   3.535   5.472
  318POPC   C4A 4305   2.593   3.502   5.915
  318POPC   C1B 4306   2.918   3.568   4.772
  318POPC   C2B 4307   3.016   3.371   5.166
  318POPC   C3B 4308   2.958   3.298   5.607
  318POPC   C4B 4309   3.093   3.648   5.878
  319POPC   NC3 4310  10.981   2.455   3.785
  319POPC   PO4 4311  11.287   3.105   3.902
  319POPC   GL1 4312  11.310   2.946   4.289
  319POPC   GL2 4313  11.194   2.618   4.216
  319POPC   C1A 4314  11.058   2.935   4.624
  319POPC   D2A 4315  10.734   3.102   4.889
  319POPC   C3A 4316  10.873   2.953   5.273
  319POPC   C4A 4317  10.988   3.085   5.674
  319POPC   C1B 4318  11.217   2.441   4.605
  319POPC   C2B 4319  11.232   2.647   5.015
  319POPC   C3B 4320  11.205   2.547   5.435
  319POPC   C4B 4321  11.205   2.678   5.847
  320POPC   NC3 4322   9.326   4.167   3.996
  320POPC   PO4 4323   9.927   4.557   3.893
  320POPC   GL1 4324   9.886   4.571   4.329
  320POPC   GL2 4325   9.741   4.245   4.350
  320POPC   C1A 4326   9.935   4.450   4.790
  320POPC   D2A 4327   9.858   4.639   5.195
  320POPC   C3A 4328   9.799   4.359   5.503
  320POPC   C4A 4329   9.646   4.314   5.862
  320POPC   C1B 4330   9.495   4.201   4.718
  320POPC   C2B 4331   9.450   4.280   5.157
  320POPC   C3B 4332   9.429   3.988   5.513
  320POPC   C4B 4333   9.342   3.913   5.958
  321POPC   NC3 4334   7.255  10.048   3.751
  321POPC   PO4 4335   7.085   9.403   3.866
  321POPC   GL1 4336   7.119   9.476   4.314
  321POPC   GL2 4337   7.470   9.392   4.323
  321POPC   C1A 4338   7.212   9.466   4.794
  321POPC   D2A 4339   7.592   9.416   5.124
  321POPC   C3A 4340   7.469   9.349   5.560
  321POPC   C4A 4341   7.047   9.437   5.703
  321POPC   C1B 4342   7.659   9.631   4.672
  321POPC   C2B 4343   7.439   9.903   4.970
  321POPC   C3B 4344   7.238   9.741   5.320
  321POPC   C4B 4345   7.220   9.977   5.694
  322POPC   NC3 4346  10.305  10.425   3.904
  322POPC   PO4 4347  10.892  10.621   4.311
  322POPC   GL1 4348  10.495  10.447   4.456
  322POPC   GL2 4349  10.148  10.502   4.398
  322POPC   C1A 4350  10.362  10.410   4.902
  322POPC   D2A 4351  10.520  10.266   5.306
  322POPC   C3A 4352  10.810  10.486   5.600
  322POPC   C4A 4353  11.066  10.847   5.624
  322POPC   C1B 4354  10.050  10.117   4.630
  322POPC   C2B 4355   9.937  10.104   5.103
  322POPC   C3B 4356  10.067  10.203   5.516
  322POPC   C4B 4357  10.349  10.405   5.804
  323POPC   NC3 4358   2.361  10.176   4.004
  323POPC   PO4 4359   1.753  10.012   3.986
  323POPC   GL1 4360   1.879  10.356   4.186
  323POPC   GL2 4361   2.069  10.157   4.418
  323POPC   C1A 4362   1.778  10.576   4.572
  323POPC   D2A 4363   1.962  10.687   4.966
  323POPC   C3A 4364   2.058  10.464   5.338
  323POPC   C4A 4365   1.928  10.623   5.728
  323POPC   C1B 4366   2.007  10.174   4.851
  323POPC   C2B 4367   1.775   9.936   5.140
  323POPC   C3B 4368   1.801  10.082   5.532
  323POPC   C4B 4369   2.155  10.177   5.827
  324POPC   NC3 4370   2.666   9.272   3.705
  324POPC   PO4 4371   2.605   9.915   3.725
  324POPC   GL1 4372   2.630   9.915   4.315
  324POPC   GL2 4373   2.923   9.694   4.471
  324POPC   C1A 4374   2.538   9.803   4.778
  324POPC   D2A 4375   2.738   9.507   5.093
  324POPC   C3A 4376   2.544   9.542   5.500
  324POPC   C4A 4377   2.525   9.834   5.837
  324POPC   C1B 4378   3.068   9.936   4.843
  324POPC   C2B 4379   3.082   9.930   5.308
  324POPC   C3B 4380   2.983   9.711   5.690
  324POPC   C4B 4381   2.997   9.859   6.130
  325POPC   NC3 4382  10.269   8.681   3.880
  325POPC   PO4 4383  10.677   9.286   3.792
  325POPC   GL1 4384  10.643   9.018   4.162
  325POPC   GL2 4385  10.334   8.936   4.302
  325POPC   C1A 4386  10.782   8.849   4.570
  325POPC   D2A 4387  10.830   8.573   4.941
  325POPC   C3A 4388  10.805   8.780   5.312
  325POPC   C4A 4389  10.591   8.814   5.662
  325POPC   C1B 4390  10.267   8.978   4.728
  325POPC   C2B 4391  10.305   8.829   5.156
  325POPC   C3B 4392  10.068   8.966   5.501
  325POPC   C4B 4393  10.226   9.084   5.885
  326POPC   NC3 4394  10.087   4.083   3.906
  326POPC   PO4 4395  10.617   4.485   3.826
  326POPC   GL1 4396  10.564   4.207   4.163
  326POPC   GL2 4397  10.268   4.230   4.348
  326POPC   C1A 4398  10.721   4.084   4.583
  326POPC   D2A 4399  10.953   4.104   4.978
  326POPC   C3A 4400  10.755   4.041   5.368
  326POPC   C4A 4401  10.690   4.282   5.728
  326POPC   C1B 4402  10.202   3.997   4.706
  326POPC   C2B 4403  10.353   4.209   5.062
  326POPC   C3B 4404  10.288   4.393   5.455
  326POPC   C4B 4405  10.136   4.118   5.805
  327POPC   NC3 4406   2.468   8.984   4.120
  327POPC   PO4 4407   3.069   9.038   3.794
  327POPC   GL1 4408   2.974   8.990   4.270
  327POPC   GL2 4409   2.835   8.644   4.263
  327POPC   C1A 4410   2.723   9.092   4.714
  327POPC   D2A 4411   2.428   9.057   5.097
  327POPC   C3A 4412   2.636   9.057   5.506
  327POPC   C4A 4413   3.040   9.196   5.647
  327POPC   C1B 4414   2.979   8.640   4.711
  327POPC   C2B 4415   2.819   8.713   5.151
  327POPC   C3B 4416   2.718   8.572   5.597
  327POPC   C4B 4417   3.053   8.667   5.900
  328POPC   NC3 4418   0.655   2.602   3.714
  328POPC   PO4 4419   1.298   2.552   3.969
  328POPC   GL1 4420   1.087   2.420   4.363
  328POPC   GL2 4421   1.445   2.343   4.471
  328POPC   C1A 4422   1.053   2.400   4.814
  328POPC   D2A 4423   1.097   2.808   5.007
  328POPC   C3A 4424   1.048   2.973   5.379
  328POPC   C4A 4425   1.030   2.741   5.740
  328POPC   C1B 4426   1.379   2.789   4.577
  328POPC   C2B 4427   1.501   3.074   4.866
  328POPC   C3B 4428   1.576   3.079   5.297
  328POPC   C4B 4429   1.409   3.130   5.703
  329POPC   NC3 4430   5.338   2.231   3.976
  329POPC   PO4 4431   5.983   1.965   3.962
  329POPC   GL1 4432   5.901   1.783   4.355
  329POPC   GL2 4433   5.567   1.916   4.364
  329POPC   C1A 4434   5.819   1.670   4.792
  329POPC   D2A 4435   5.912   1.922   5.136
  329POPC   C3A 4436   6.075   1.794   5.527
  329POPC   C4A 4437   6.092   2.191   5.745
  329POPC   C1B 4438   5.344   1.863   4.775
  329POPC   C2B 4439   5.432   1.800   5.226
  329POPC   C3B 4440   5.591   1.935   5.620
  329POPC   C4B 4441   5.706   1.652   5.936
  330POPC   NC3 4442  10.270   9.366   4.034
  330POPC   PO4 4443  10.023   9.936   3.787
  330POPC   GL1 4444  10.212   9.826   4.241
  330POPC   GL2 4445  10.568   9.795   4.161
  330POPC   C1A 4446  10.373   9.513   4.640
  330POPC   D2A 4447  10.253   9.353   5.080
  330POPC   C3A 4448  10.483   9.275   5.469
  330POPC   C4A 4449  10.497   9.513   5.874
  330POPC   C1B 4450  10.585   9.974   4.600
  330POPC   C2B 4451  10.368   9.877   4.990
  330POPC   C3B 4452  10.364   9.782   5.422
  330POPC   C4B 4453  10.621   9.997   5.723
  331POPC   NC3 4454   2.808  10.265   3.529
  331POPC   PO4 4455   3.208  10.233   4.034
  331POPC   GL1 4456   3.017  10.240   4.406
  331POPC   GL2 4457   2.792  10.484   4.299
  331POPC   C1A 4458   2.963  10.462   4.802
  331POPC   D2A 4459   2.950  10.432   5.224
  331POPC   C3A 4460   2.664  10.212   5.474
  331POPC   C4A 4461   2.864  10.244   5.842
  331POPC   C1B 4462   2.518  10.300   4.620
  331POPC   C2B 4463   2.457  10.399   5.029
  331POPC   C3B 4464   2.535  10.721   5.334
  331POPC   C4B 4465   2.504  10.629   5.764
  332POPC   NC3 4466   8.806   8.226   3.902
  332POPC   PO4 4467   9.246   7.824   3.673
  332POPC   GL1 4468   9.130   7.951   4.192
  332POPC   GL2 4469   9.108   8.314   4.314
  332POPC   C1A 4470   9.324   7.947   4.638
  332POPC   D2A 4471   9.193   7.894   5.094
  332POPC   C3A 4472   9.026   7.935   5.516
  332POPC   C4A 4473   9.184   7.728   5.859
  332POPC   C1B 4474   8.874   8.153   4.717
  332POPC   C2B 4475   8.693   8.062   5.152
  332POPC   C3B 4476   8.547   8.184   5.605
  332POPC   C4B 4477   8.462   8.315   6.067
  333POPC   NC3 4478   2.738   4.474   3.940
  333POPC   PO4 4479   3.174   4.763   4.288
  333POPC   GL1 4480   2.669   4.658   4.400
  333POPC   GL2 4481   2.505   4.279   4.379
  333POPC   C1A 4482   2.506   4.560   4.806
  333POPC   D2A 4483   2.757   4.384   5.158
  333POPC   C3A 4484   2.600   4.488   5.572
  333POPC   C4A 4485   2.670   4.733   5.953
  333POPC   C1B 4486   2.567   4.023   4.789
  333POPC   C2B 4487   2.783   3.868   5.193
  333POPC   C3B 4488   2.726   3.944   5.647
  333POPC   C4B 4489   2.862   4.218   5.964
  334POPC   NC3 4490   8.897   9.759   3.941
  334POPC   PO4 4491   8.414   9.400   4.216
  334POPC   GL1 4492   8.773   9.527   4.386
  334POPC   GL2 4493   8.768   9.895   4.392
  334POPC   C1A 4494   8.710   9.536   4.813
  334POPC   D2A 4495   8.756   9.479   5.222
  334POPC   C3A 4496   8.521   9.431   5.562
  334POPC   C4A 4497   8.792   9.454   5.901
  334POPC   C1B 4498   8.857  10.029   4.767
  334POPC   C2B 4499   8.952   9.924   5.140
  334POPC   C3B 4500   8.812   9.853   5.551
  334POPC   C4B 4501   8.973   9.923   5.941
  335POPC   NC3 4502   0.316   7.042   3.982
  335POPC   PO4 4503   0.031   7.607   3.806
  335POPC   GL1 4504   0.182   7.528   4.229
  335POPC   GL2 4505   0.537   7.471   4.258
  335POPC   C1A 4506   0.313   7.574   4.684
  335POPC   D2A 4507   0.315   7.338   5.055
  335POPC   C3A 4508   0.351   7.544   5.456
  335POPC   C4A 4509   0.196   7.357   5.850
  335POPC   C1B 4510   0.569   7.113   4.589
  335POPC   C2B 4511   0.655   6.927   5.007
  335POPC   C3B 4512   0.720   7.191   5.381
  335POPC   C4B 4513   0.713   7.384   5.815
  336POPC   NC3 4514   4.432   1.451   3.480
  336POPC   PO4 4515   4.480   1.495   4.106
  336POPC   GL1 4516   4.384   1.401   4.477
  336POPC   GL2 4517   4.270   1.069   4.424
  336POPC   C1A 4518   4.554   1.257   4.844
  336POPC   D2A 4519   4.429   0.992   5.185
  336POPC   C3A 4520   4.460   1.205   5.583
  336POPC   C4A 4521   4.443   1.412   5.991
  336POPC   C1B 4522   3.912   1.042   4.735
  336POPC   C2B 4523   3.828   0.965   5.192
  336POPC   C3B 4524   3.971   1.121   5.599
  336POPC   C4B 4525   3.946   1.249   6.032
  337POPC   NC3 4526   2.763   0.090   3.993
  337POPC   PO4 4527   2.939   0.711   3.788
  337POPC   GL1 4528   2.963   0.619   4.279
  337POPC   GL2 4529   2.917   0.265   4.442
  337POPC   C1A 4530   2.868   0.720   4.743
  337POPC   D2A 4531   2.638   0.797   5.164
  337POPC   C3A 4532   2.863   0.762   5.589
  337POPC   C4A 4533   2.794   0.555   6.014
  337POPC   C1B 4534   2.560   0.318   4.766
  337POPC   C2B 4535   2.503   0.309   5.234
  337POPC   C3B 4536   2.731   0.235   5.613
  337POPC   C4B 4537   2.592  11.477   5.962
  338W        W 4538   4.578   7.134   1.906
  339W        W 4539   5.148   6.012   0.003
  340W        W 4540   7.841   4.662  10.371
  341W        W 4541  10.027   0.224  10.587
  342W        W 4542   0.227   4.686   3.440
  343W        W 4543   7.481   3.855  10.484
  344W        W 4544  10.864   8.800  11.756
  345W        W 4545   8.569   3.208   8.919
  346W        W 4546   1.424   0.912   0.900
  347W        W 4547   1.257   6.503  10.838
  348W        W 4548   4.322   9.037   2.220
  349W        W 4549   7.652   6.540   2.725
  350W        W 4550  11.363   0.999   2.127
  351W        W 4551  10.055   2.651   3.777
  352W        W 4552   0.474  11.392   3.247
  353W        W 4553   2.244  10.428  10.441
  354W        W 4554  10.713   5.802  11.465
  355W        W 4555   3.828   7.636   0.895
  356W        W 4556  11.496   8.164  11.804
  357W        W 4557  11.103   7.992   2.208
  358W        W 4558   5.982   3.627   7.956
  359W        W 4559   5.978   4.090   3.951
  360W        W 4560   2.539   3.022   0.097
  361W        W 4561   9.181   5.277   2.901
  362W        W 4562   2.423  10.325   0.446
  363W        W 4563   2.653  10.999   3.546
  364W        W 4564   4.639   0.368   0.458
  365W        W 4565   6.229   0.376   2.806
  366W        W 4566   2.349   5.763   0.952
  367W        W 4567   9.318  11.131  10.313
  368W        W 4568   7.264   6.152  10.502
  369W        W 4569   5.809   6.838  11.524
  370W        W 4570  11.280  10.564  11.307
  371W        W 4571   2.225  10.862   3.326
  372W        W 4572   7.957   8.411   1.843
  373W        W 4573   7.008   4.732   1.427
  374W        W 4574   0.896   1.406  10.454
  375W        W 4575   5.656   0.501   0.015
  376W        W 4576  10.361   2.815   3.138
  377W        W 4577   2.670   8.751   3.718
  378W        W 4578   3.276   8.568   0.824
  379W        W 4579   5.248   2.426  10.769
  380W        W 4580   2.708   2.566   9.895
  381W        W 4581   2.652   4.723   3.392
  382W        W 4582   3.807   8.992   3.039
  383W        W 4583   6.082   0.491   9.318
  384W        W 4584   6.758   6.477   1.997
  385W        W 4585   5.833   4.138   8.152
  386W        W 4586   0.610   2.473  11.829
  387W        W 4587   1.759   5.374  10.381
  388W        W 4588   0.574   2.810   0.692
  389W        W 4589   3.238   1.513   0.035
  390W        W 4590   6.609   1.007   0.883
  391W        W 4591   6.069   7.404  10.281
  392W        W 4592   4.412   8.915   0.746
  393W        W 4593   2.654   4.133   9.786
  394W        W 4594   3.699   4.744  11.657
  395W        W 4595  10.781   6.739  11.087
  396W        W 4596   0.981  10.482   2.801
  397W        W 4597   9.568   0.301   1.941
  398W        W 4598   8.920   2.464  10.962
  399W        W 4599   9.197   8.932   3.025
  400W        W 4600   9.149  10.823   9.950
  401W        W 4601   8.990  11.299   1.680
  402W        W 4602   9.046   9.542   9.910
  403W        W 4603   5.244   9.254   1.333
  404W        W 4604   9.356  10.405  11.441
  405W        W 4605   7.673   5.232   0.734
  406W        W 4606   1.492   2.802   1.474
  407W        W 4607   3.862   4.650   2.730
  408W        W 4608   5.684  10.344  11.324
  409W        W 4609  10.478   3.269   9.044
  410W        W 4610   9.829  10.569  11.444
  411W        W 4611   4.254   1.769  10.590
  412W        W 4612   3.202   8.196   9.581
  413W        W 4613  10.510   4.635   1.468
  414W        W 4614   1.109   8.354   8.848
  415W        W 4615  11.361   4.364   0.559
  416W        W 4616  10.451   7.402   1.668
  417W        W 4617   6.568   7.586  11.461
  418W        W 4618   5.525   6.163   0.313
  419W        W 4619   4.203   2.818   0.450
  420W        W 4620   4.714   6.227   0.157
  421W        W 4621   8.048   9.983  10.876
  422W        W 4622   9.461  11.291   1.898
  423W        W 4623   4.312   0.164   9.746
  424W        W 4624   7.094   4.292   0.084
  425W        W 4625   9.110   7.262   3.454
  426W        W 4626   9.463   4.235  11.524
  427W        W 4627   5.420   3.563   9.129
  428W        W 4628  10.605   8.853   0.352
  429W        W 4629   5.637  11.223   2.186
  430W        W 4630   5.696   4.501   2.958
  431W        W 4631   5.114  11.475  10.603
  432W        W 4632   5.761   3.267  10.300
  433W        W 4633  10.935   8.056  11.113
  434W        W 4634   1.809   3.246   3.124
  435W        W 4635  11.222   0.389  10.807
  436W        W 4636   5.995  10.068  11.706
  437W        W 4637   3.611   5.169   8.105
  438W        W 4638   4.748   8.886   8.149
  439W        W 4639   2.254  10.248   9.897
  440W        W 4640   1.750   9.828   0.036
  441W        W 4641   6.972   2.675   1.614
  442W        W 4642  10.038   2.376  10.857
  443W        W 4643   0.350   0.402   9.014
  444W        W 4644   6.465   0.174  11.028
  445W        W 4645   6.484   3.825   9.848
  446W        W 4646   1.007   6.296   3.938
  447W        W 4647   9.294   9.395   8.927
  448W        W 4648   5.251   7.360   1.696
  449W        W 4649  10.230   7.668   0.847
  450W        W 4650   9.127   5.045  11.943
  451W        W 4651   4.982  10.539  10.646
  452W        W 4652   1.347   3.411  10.642
  453W        W 4653   2.694   4.033  11.962
  454W        W 4654   4.473   0.347   8.821
  455W        W 4655   4.743   3.138   2.763
  456W        W 4656   4.046   4.280  11.424
  457W        W 4657   2.608  10.318   0.932
  458W        W 4658  10.796   1.770  10.938
  459W        W 4659   6.959   9.725   3.485
  460W        W 4660  10.899   0.922   0.248
  461W        W 4661   9.846   1.242   9.802
  462W        W 4662   8.454   9.145   8.982
  463W        W 4663   2.469   5.361   1.671
  464W        W 4664   7.673   3.866   4.006
  465W        W 4665   1.083   6.611   8.371
  466W        W 4666   7.398   7.511  10.729
  467W        W 4667   2.163   6.522   3.265
  468W        W 4668   8.774   9.462   1.802
  469W        W 4669   9.511   0.585   9.807
  470W        W 4670   8.133   4.639  10.782
  471W        W 4671   2.112   2.305   0.233
  472W        W 4672  11.166   4.956  11.132
  473W        W 4673   8.381   5.585   0.337
  474W        W 4674   1.354   3.388  11.636
  475W        W 4675   2.347   3.742  10.010
  476W        W 4676   6.224   1.037   9.900
  477W        W 4677   6.568   6.906   2.210
  478W        W 4678  11.044  11.281   2.212
  479W        W 4679   3.509   6.186   1.734
  480W        W 4680   4.672   2.214  11.292
  481W        W 4681   9.554   0.292  11.360
  482W        W 4682   9.445   9.125  10.279
  483W        W 4683  10.436   8.683  11.445
  484W        W 4684   6.014   6.919   0.838
  485W        W 4685   2.506   8.191   9.109
  486W        W 4686   2.934  10.649   3.224
  487W        W 4687   5.753   3.655  11.375
  488W        W 4688   9.644   7.204   9.503
  489W        W 4689  10.568   7.022  11.900
  490W        W 4690   3.311   6.947  11.448
  491W        W 4691  11.303  11.135   0.068
  492W        W 4692   2.741   4.543   0.065
  493W        W 4693   6.563   4.073   9.386
  494W        W 4694   4.042   8.333   3.500
  495W        W 4695   1.242   9.940  10.749
  496W        W 4696   7.627  11.062   1.687
  497W        W 4697  10.007   3.753  11.622
  498W        W 4698  11.120   5.467  10.869
  499W        W 4699   7.217   3.988   2.465
  500W        W 4700   1.859   6.120  11.343
  501W        W 4701   9.752   9.032   0.891
  502W        W 4702   8.446   1.627  10.846
  503W        W 4703   9.628  11.227   2.778
  504W        W 4704   1.365   1.749   0.690
  505W        W 4705   4.348   9.172   1.197
  506W        W 4706   0.336   4.739  11.703
  507W        W 4707   0.588   4.220   0.721
  508W        W 4708  10.498  10.226   0.681
  509W        W 4709   0.804   0.336  11.821
  510W        W 4710   8.469   5.466   3.763
  511W        W 4711   0.852  10.777   9.870
  512W        W 4712   4.696   0.908   2.134
  513W        W 4713   3.597   8.560  11.737
  514W        W 4714   3.419   8.067   3.137
  515W        W 4715   4.277   3.350   2.817
  516W        W 4716   1.173   7.827   1.072
  517W        W 4717   8.754   1.511   2.990
  518W        W 4718   5.274   8.680   8.633
  519W        W 4719   8.097   1.181   9.318
  520W        W 4720   0.923  11.268   0.942
  521W        W 4721   6.666   5.561   2.487
  522W        W 4722   4.362   1.355   9.481
  523W        W 4723   2.168   6.584   1.304
  524W        W 4724   0.898   7.953   9.105
  525W        W 4725   3.535   0.439   2.333
  526W        W 4726   1.983   3.728   8.491
  527W        W 4727   7.156   1.401  11.435
  528W        W 4728   3.683   6.580   3.105
  529W        W 4729   0.828   6.594  10.023
  530W        W 4730   1.593   5.322   0.832
  531W        W 4731   1.606   2.705  11.674
  532W        W 4732   6.414   8.869  10.264
  533W        W 4733   3.149  11.074   3.429
  534W        W 4734  10.616   0.318   1.748
  535W        W 4735  10.017   8.615   9.702
  536W        W 4736   5.252   3.562  11.336
  537W        W 4737  10.574   3.094  11.572
  538W        W 4738   1.750   0.513   2.610
  539W        W 4739   5.519   3.506   4.270
  540W        W 4740   2.466   8.542  10.761
  541W        W 4741   1.739   7.942   3.012
  542W        W 4742   7.990   3.455   2.112
  543W        W 4743   9.670   9.629   0.083
  544W        W 4744   7.902  11.314   2.983
  545W        W 4745  10.010   7.427   0.465
  546W        W 4746   5.560   8.564  10.691
  547W        W 4747   2.123   0.964   9.386
  548W        W 4748   7.251   1.280   2.277
  549W        W 4749   7.149  10.391  10.874
  550W        W 4750   0.714   6.486   2.780
  551W        W 4751   2.308   1.714   2.460
  552W        W 4752   5.699   4.212   0.117
  553W        W 4753   2.034   5.231  11.733
  554W        W 4754   0.543   5.102   2.778
  555W        W 4755   4.147   8.523  10.506
  556W        W 4756   3.346   9.387   1.929
  557W        W 4757   5.248   8.281   2.981
  558W        W 4758  10.036   3.522   0.063
  559W        W 4759   0.673   3.599   2.793
  560W        W 4760   9.607   1.439  10.593
  561W        W 4761   4.332   6.561   1.721
  562W        W 4762  11.143   9.509   9.532
  563W        W 4763   9.262   9.422   3.104
  564W        W 4764   3.958  10.999   3.175
  565W        W 4765   7.037  11.064   1.539
  566W        W 4766   2.184   9.789  10.787
  567W        W 4767   4.091   2.637   2.323
  568W        W 4768   6.210   4.119   8.648
  569W        W 4769   3.244   0.010   2.201
  570W        W 4770   6.077   7.178   3.954
  571W        W 4771  10.479   6.482   2.841
  572W        W 4772   3.423   8.937   3.396
  573W        W 4773   6.730  11.066   0.544
  574W        W 4774   6.140   3.012   8.617
  575W        W 4775   5.570   5.558  10.008
  576W        W 4776   1.349   4.203   2.924
  577W        W 4777   7.624   0.502  11.577
  578W        W 4778   6.915   6.524   0.696
  579W        W 4779   2.319   4.817  10.959
  580W        W 4780   0.496   1.300   9.884
  581W        W 4781   5.934   0.593   9.832
  582W        W 4782   7.597   2.471   1.210
  583W        W 4783   3.805   2.322  11.767
  584W        W 4784   8.235   1.309   1.751
  585W        W 4785   0.728   9.063   3.030
  586W        W 4786   9.959  11.397   9.862
  587W        W 4787   4.898   1.832   3.282
  588W        W 4788   3.637   1.634   9.043
  589W        W 4789   7.376   7.134  11.488
  590W        W 4790   3.147   4.230   2.767
  591W        W 4791   5.621   7.547  10.464
  592W        W 4792  10.463   4.706   1.958
  593W        W 4793   5.146   5.595   0.310
  594W        W 4794   9.441   7.693   9.426
  595W        W 4795   4.960   1.414  11.552
  596W        W 4796   4.950   3.085   8.674
  597W        W 4797   0.317   9.049   9.273
  598W        W 4798   3.760   5.169   2.657
  599W        W 4799  10.339   4.749   2.430
  600W        W 4800   4.351   1.707  11.508
  601W        W 4801   2.229   3.609   1.742
  602W        W 4802  10.895   8.457  11.404
  603W        W 4803   3.736  11.328  10.876
  604W        W 4804   5.722   0.120   1.842
  605W        W 4805   1.657   1.879   1.775
  606W        W 4806   6.213   3.405   0.024
  607W        W 4807   5.057   8.108  11.279
  608W        W 4808   2.862   7.390   0.675
  609W        W 4809   3.529   2.867  11.263
  610W        W 4810   4.241   9.564   8.927
  611W        W 4811   5.643   6.602   1.120
  612W        W 4812  10.713   9.451  11.114
  613W        W 4813   3.723   7.513   3.080
  614W        W 4814   1.312   8.670  11.917
  615W        W 4815   0.201   3.014   9.291
  616W        W 4816   2.709   3.603   1.524
  617W        W 4817   3.152   2.977   2.339
  618W        W 4818   1.919   8.543   9.915
  619W        W 4819   4.655   2.906  11.832
  620W        W 4820   1.960   9.447   2.563
  621W        W 4821   4.081  10.271  11.836
  622W        W 4822   3.636   6.268  11.891
  623W        W 4823   1.265   9.041   0.724
  624W        W 4824   5.170   1.033   9.956
  625W        W 4825   9.052   8.061   2.939
  626W        W 4826   2.750   8.352   1.509
  627W        W 4827   0.867   3.031  11.034
  628W        W 4828   9.148   0.978   8.709
  629W        W 4829   4.295   8.044  11.984
  630W        W 4830   6.122   8.693   3.636
  631W        W 4831   7.785   2.061  11.869
  632W        W 4832   1.278   9.889   3.007
  633W        W 4833   3.267   0.393   1.867
  634W        W 4834   4.189   5.954   8.292
  635W        W 4835   3.160   6.172   0.722
  636W        W 4836   7.600   6.875   9.965
  637W        W 4837  11.212   5.682   2.756
  638W        W 4838   1.421   9.507  10.490
  639W        W 4839   7.426  11.169  11.866
  640W        W 4840   2.039   2.299  10.481
  641W        W 4841   9.295   9.903  11.378
  642W        W 4842   2.350  11.039   9.127
  643W        W 4843   8.354   6.137   3.130
  644W        W 4844   3.374   3.463   4.189
  645W        W 4845   6.523   1.827   0.457
  646W        W 4846   5.304   7.637   0.812
  647W        W 4847  10.836   6.392   3.521
  648W        W 4848   9.425   0.837   9.122
  649W        W 4849   3.601   4.984  10.781
  650W        W 4850   6.041   9.940  11.202
  651W        W 4851   1.694   4.109   9.426
  652W        W 4852   1.646   7.111   0.995
  653W        W 4853   8.148   3.388   2.611
  654W        W 4854   7.354   0.930  11.401
  655W        W 4855   7.042   1.879   1.641
  656W        W 4856   5.225   2.665  11.797
  657W        W 4857   7.928   8.980   0.848
  658W        W 4858  10.069   4.331   9.374
  659W        W 4859   9.875   3.870   3.066
  660W        W 4860   7.430   5.986   9.869
  661W        W 4861   8.516   1.400  11.455
  662W        W 4862   1.444   8.181   1.318
  663W        W 4863   8.014  10.788   0.565
  664W        W 4864   5.231   0.640   0.930
  665W        W 4865   8.233   6.099   0.371
  666W        W 4866   9.081   8.070  10.739
  667W        W 4867   5.472   6.535   9.167
  668W        W 4868   6.238   9.912   8.606
  669W        W 4869   9.941   5.632   9.024
  670W        W 4870  11.187   3.820   2.683
  671W        W 4871   7.525   4.708   1.643
  672W        W 4872   8.526   8.968  11.980
  673W        W 4873   2.708   6.153   1.998
  674W        W 4874   1.243   6.564  10.323
  675W        W 4875   4.800   9.458   1.165
  676W        W 4876   5.190   9.403   9.977
  677W        W 4877   5.184   8.538   2.068
  678W        W 4878  11.401   2.951   8.879
  679W        W 4879   0.804   9.086   0.504
  680W        W 4880   6.058   2.051   2.767
  681W        W 4881   4.080   2.887  11.093
  682W        W 4882   7.055   0.092   9.241
  683W        W 4883   1.752   7.942   0.385
  684W        W 4884  10.873   6.373   9.299
  685W        W 4885   1.291   6.486   9.786
  686W        W 4886   9.016  10.852   2.033
  687W        W 4887   8.048   7.155   0.677
  688W        W 4888   1.209  10.884   9.512
  689W        W 4889   1.397   6.960  10.994
  690W        W 4890   8.598   9.807   9.808
  691W        W 4891   8.842   4.068  11.754
  692W        W 4892   6.271   2.216   3.219
  693W        W 4893   6.036   9.473   0.809
  694W        W 4894   1.121   0.289  10.877
  695W        W 4895   4.738   5.652   0.634
  696W        W 4896   4.209   7.545  10.513
  697W        W 4897   8.964   8.669   8.484
  698W        W 4898   2.961   5.293   1.590
  699W        W 4899   6.320   3.310   1.339
  700W        W 4900   6.526   8.370  11.020
  701W        W 4901   4.061   7.258   2.775
  702W        W 4902  10.763   4.165  10.063
  703W        W 4903   2.675   1.207  10.831
  704W        W 4904   9.199   5.898  10.783
  705W        W 4905   6.994   0.613  11.206
  706W        W 4906   7.152   6.246   2.249
  707W        W 4907   3.082   3.107   9.527
  708W        W 4908   4.947   5.221  11.483
  709W        W 4909   4.112   0.262   1.519
  710W        W 4910   0.870   1.272   1.523
  711W        W 4911   4.673   2.814   3.450
  712W        W 4912  10.412   6.468   9.025
  713W        W 4913   2.624   6.153   2.852
  714W        W 4914   9.977   8.878  11.578
  715W        W 4915   8.262   0.305  10.490
  716W        W 4916   8.826   0.254   1.813
  717W        W 4917   6.580   8.160   1.971
  718W        W 4918   4.148   6.060   0.842
  719W        W 4919   6.307   1.447  11.627
  720W        W 4920   8.013   6.466   0.011
  721W        W 4921   2.657   3.289   0.539
  722W        W 4922   1.251   0.780   9.955
  723W        W 4923   4.691   5.681  11.512
  724W        W 4924   2.995   3.737   2.830
  725W        W 4925  11.061   1.606   2.841
  726W        W 4926   6.919   7.509  11.855
  727W        W 4927   3.778  10.877   8.991
  728W        W 4928   4.922  10.774   3.440
  729W        W 4929   4.400   0.715  11.656
  730W        W 4930  10.470   6.905  10.700
  731W        W 4931   6.648   1.565   0.875
  732W        W 4932   0.218   3.498   9.908
  733W        W 4933   5.006  10.366  11.969
  734W        W 4934   0.824   7.163   0.507
  735W        W 4935   6.104   2.690   1.213
  736W        W 4936   8.905   1.455   1.726
  737W        W 4937   1.186  10.091   3.509
  738W        W 4938  10.931   1.302  10.667
  739W        W 4939   1.643  11.443  10.122
  740W        W 4940   1.139   7.312   1.036
  741W        W 4941   2.106   6.210   0.914
  742W        W 4942   4.505   3.196   2.262
  743W        W 4943  10.026  10.833  10.899
  744W        W 4944  10.347   8.838  10.933
  745W        W 4945   8.100  10.167  10.414
  746W        W 4946  10.003   7.202   1.883
  747W        W 4947   5.468   8.423   9.046
  748W        W 4948   3.816  10.437   1.428
  749W        W 4949   4.804   0.998  11.793
  750W        W 4950   1.277  10.671   1.923
  751W        W 4951   1.785   2.422   2.830
  752W        W 4952   6.680   5.222   1.387
  753W        W 4953  10.016   8.461   9.225
  754W        W 4954   3.363   4.668   2.605
  755W        W 4955   4.586   3.723   1.991
  756W        W 4956   4.301   2.440  10.975
  757W        W 4957   8.573   1.941   9.362
  758W        W 4958  11.299   4.250   9.395
  759W        W 4959   9.450   5.540  10.014
  760W        W 4960   8.384   8.080  10.009
  761W        W 4961   6.938   4.183   0.580
  762W        W 4962   1.259   5.339   1.264
  763W        W 4963   3.452   3.222  10.388
  764W        W 4964   4.710   0.378   9.395
  765W        W 4965   9.755   6.707   8.231
  766W        W 4966   8.187   0.436   9.969
  767W        W 4967   6.318   6.122  11.477
  768W        W 4968   5.181   4.834  11.738
  769W        W 4969   2.244   3.839   8.937
  770W        W 4970  11.496  11.222   0.988
  771W        W 4971   9.946   6.169   8.907
  772W        W 4972   1.128   9.532   9.007
  773W        W 4973   6.284   5.293   1.752
  774W        W 4974   7.929   9.797  11.797
  775W        W 4975   4.555   2.298  10.020
  776W        W 4976   0.420   0.327   1.935
  777W        W 4977   7.474   1.002   3.004
  778W        W 4978   7.467   1.473  10.487
  779W        W 4979   0.068   7.298   0.341
  780W        W 4980  10.697   2.952   9.422
  781W        W 4981   8.485   2.385  11.238
  782W        W 4982   5.752   3.679   2.289
  783W        W 4983   7.231   8.450  11.947
  784W        W 4984   7.799   4.234   1.583
  785W        W 4985   0.146   6.143   9.872
  786W        W 4986   4.773   4.123   9.605
  787W        W 4987   7.673   9.548   9.776
  788W        W 4988   5.573   0.287  11.546
  789W        W 4989   5.564   9.879   8.552
  790W        W 4990  11.248   2.222  10.615
  791W        W 4991   7.795   7.916   0.603
  792W        W 4992  11.058   7.009  11.943
  793W        W 4993   7.961   4.287   2.817
  794W        W 4994   6.759   8.066   0.258
  795W        W 4995  11.264   0.310   9.912
  796W        W 4996   7.550  10.590   2.613
  797W        W 4997   4.541   0.841  10.335
  798W        W 4998   7.453   5.214  11.765
  799W        W 4999   7.217   0.879   9.794
  800W        W 5000   6.649  11.340   9.081
  801W        W 5001   7.952   6.159   8.736
  802W        W 5002   4.610   3.083   0.304
  803W        W 5003   3.048   9.054  11.493
  804W        W 5004   7.547   1.705  11.078
  805W        W 5005   8.835   7.989   2.023
  806W        W 5006  11.309  10.790   0.756
  807W        W 5007   0.791   7.511  11.760
  808W        W 5008   4.719   7.488  11.327
  809W        W 5009   1.032   7.965   9.604
  810W        W 5010   9.845   6.547  11.775
  811W        W 5011   0.093  11.454  11.767
  812W        W 5012  10.533   0.334   9.268
  813W        W 5013   5.354   6.628   2.096
  814W        W 5014   2.902  10.124   1.776
  815W        W 5015   5.325   6.751  11.622
  816W        W 5016  10.221   5.685   9.449
  817W        W 5017  11.072   4.478  10.368
  818W        W 5018   6.451   3.767   8.957
  819W        W 5019   4.196   6.532   2.215
  820W        W 5020   4.037   6.715  10.026
  821W        W 5021   8.865   9.920  11.142
  822W        W 5022   8.949   1.095  11.430
  823W        W 5023   9.712   8.149   1.759
  824W        W 5024   3.737   9.498   2.307
  825W        W 5025   0.264   7.514   1.924
  826W        W 5026   4.701   9.815   8.824
  827W        W 5027   7.088   9.360  11.696
  828W        W 5028   5.430  10.345  10.324
  829W        W 5029   5.473   3.780   8.654
  830W        W 5030  10.459  11.349   9.847
  831W        W 5031  11.481   8.474  10.818
  832W        W 5032   1.327  10.885   3.045
  833W        W 5033   8.889   1.443  10.682
  834W        W 5034   7.253   0.088   9.710
  835W        W 5035  10.329   5.657   0.402
  836W        W 5036   8.628   3.718   8.172
  837W        W 5037  10.313   7.298  10.355
  838W        W 5038  10.327   2.922   9.766
  839W        W 5039   0.450   2.207  10.782
  840W        W 5040  10.937   0.069   0.797
  841W        W 5041   7.878   5.726   0.326
  842W        W 5042  10.877   0.711   9.892
  843W        W 5043   4.067   5.536  11.790
  844W        W 5044   3.737   8.939  10.088
  845W        W 5045   9.542  10.556  11.890
  846W        W 5046   4.681   0.486   0.959
  847W        W 5047   0.999   2.701   2.134
  848W        W 5048   1.970   0.442  11.050
  849W        W 5049  10.907   6.172  11.799
  850W        W 5050   9.356   5.667   0.668
  851W        W 5051   5.919   3.644   8.955
  852W        W 5052   1.624   9.373   2.158
  853W        W 5053   0.022   7.159   3.515
  854W        W 5054   8.004   7.210   2.546
  855W        W 5055   0.865   3.283  11.471
  856W        W 5056   6.570   0.280   1.991
  857W        W 5057   8.070   0.509   3.337
  858W        W 5058  10.698   9.781  11.514
  859W        W 5059   7.716   2.234   2.170
  860W        W 5060   5.114   7.006  10.455
  861W        W 5061   9.644   2.062   1.809
  862W        W 5062   6.633  11.268  10.766
  863W        W 5063   4.424   9.756   0.929
  864W        W 5064   5.934   6.621  10.404
  865W        W 5065   1.231   7.577   9.232
  866W        W 5066   1.892  10.611   9.856
  867W        W 5067  10.750   8.355   0.362
  868W        W 5068   8.871   9.968   1.052
  869W        W 5069   0.666   5.986   2.836
  870W        W 5070  10.798   9.584  10.045
  871W        W 5071   9.988  10.078   1.680
  872W        W 5072   2.770   2.266   3.634
  873W        W 5073   5.622  11.471   3.161
  874W        W 5074  11.013  11.163   9.006
  875W        W 5075   7.985   1.855   1.937
  876W        W 5076   2.971   0.664   9.545
  877W        W 5077  10.875   9.140   9.767
  878W        W 5078   4.625   1.938   2.502
  879W        W 5079   5.448   7.160  11.923
  880W        W 5080   8.573   3.225  11.293
  881W        W 5081   9.971   9.999   9.233
  882W        W 5082   0.341   6.093   9.407
  883W        W 5083   4.120   1.608  11.947
  884W        W 5084   8.505   1.737   8.885
  885W        W 5085  10.499   9.800   0.408
  886W        W 5086   4.203   7.227  10.905
  887W        W 5087   5.472   9.897   2.430
  888W        W 5088   4.982   6.909  11.953
  889W        W 5089   5.041   4.529   1.229
  890W        W 5090   4.355  11.275   2.994
  891W        W 5091   7.105   7.480   2.647
  892W        W 5092  11.147  10.286   2.339
  893W        W 5093   0.503   9.994   1.877
  894W        W 5094   0.814   0.676   9.108
  895W        W 5095   5.656   0.890  11.676
  896W        W 5096   7.850  10.397   0.281
  897W        W 5097   6.634   7.170   1.756
  898W        W 5098   9.420   7.331   1.868
  899W        W 5099   6.442   3.200   9.554
  900W        W 5100   6.174   6.988   3.056
  901W        W 5101   6.185   3.555  10.291
  902W        W 5102   3.392   9.339   0.283
  903W        W 5103   3.871   1.659  10.923
  904W        W 5104   2.009   0.463   9.529
  905W        W 5105   1.916   1.553   2.740
  906W        W 5106   5.165   6.947   9.255
  907W        W 5107  10.625   5.034  10.366
  908W        W 5108   8.954   9.314   9.325
  909W        W 5109   1.357   3.156   9.788
  910W        W 5110   3.809   3.732   2.176
  911W        W 5111   5.889   7.467   9.316
  912W        W 5112   6.726   7.807   3.231
  913W        W 5113   6.380   9.998   2.896
  914W        W 5114   0.904   3.634   9.316
  915W        W 5115   5.691  10.372  10.792
  916W        W 5116   3.531   0.801  10.470
  917W        W 5117   7.112   6.924   9.797
  918W        W 5118   9.728  11.423  10.323
  919W        W 5119   4.955   8.368   0.261
  920W        W 5120   7.063   0.493   2.698
  921W        W 5121   0.307   7.344  10.341
  922W        W 5122   3.577  10.387   2.478
  923W        W 5123   6.975   7.420   9.820
  924W        W 5124   9.065   6.446   8.397
  925W        W 5125   3.953   9.831  11.569
  926W        W 5126  10.423   7.657  11.529
  927W        W 5127   9.894   6.670  10.764
  928W        W 5128   2.831   1.423   3.358
  929W        W 5129   2.967   9.869   9.469
  930W        W 5130   7.637   6.682   0.315
  931W        W 5131   9.363  10.588   0.364
  932W        W 5132   0.242   4.607   0.820
  933W        W 5133  11.069   2.665  10.794
  934W        W 5134   1.835  10.424   2.645
  935W        W 5135   2.442   0.700   1.625
  936W        W 5136   9.818   4.156  11.907
  937W        W 5137  10.024   3.702  11.128
  938W        W 5138   1.397   7.556   3.290
  939W        W 5139   5.038   3.634  10.069
  940W        W 5140   8.662  10.525   0.899
  941W        W 5141   1.882   8.371   1.523
  942W        W 5142   9.336   2.898   1.575
  943W        W 5143   9.268   5.746   8.439
  944W        W 5144   6.783   7.580   0.780
  945W        W 5145   3.131   7.449   0.208
  946W        W 5146   4.754   9.511   3.226
  947W        W 5147   4.487   1.203  11.454
  948W        W 5148   7.616   3.339   2.452
  949W        W 5149   3.148  10.375  11.773
  950W        W 5150   6.683   8.978   9.837
  951W        W 5151   0.317   2.611   9.993
  952W        W 5152   2.327   7.199   9.055
  953W        W 5153   6.253   3.766  11.444
  954W        W 5154   0.706   7.306   2.659
  955W        W 5155   3.639   9.408   0.750
  956W        W 5156   0.509   1.690   9.079
  957W        W 5157  11.463   0.013   8.883
  958W        W 5158   6.751   9.796   0.377
  959W        W 5159   5.882   7.300  11.701
  960W        W 5160   4.950   7.985  10.664
  961W        W 5161   3.280   2.142   9.209
  962W        W 5162   3.709   1.977  11.314
  963W        W 5163   7.242   3.111  10.149
  964W        W 5164   7.725   9.553   0.243
  965W        W 5165   9.933   5.040   9.249
  966W        W 5166   4.454  11.004   0.887
  967W        W 5167   9.774   2.399  11.298
  968W        W 5168  10.769   9.367   9.084
  969W        W 5169   5.297   5.110   0.342
  970W        W 5170   9.145   5.935  10.248
  971W        W 5171   6.089   9.503   2.996
  972W        W 5172  11.287   6.523  11.887
  973W        W 5173   1.009   0.276   9.584
  974W        W 5174   1.014   0.511  10.419
  975W        W 5175   7.342   7.949  10.447
  976W        W 5176   0.222   0.787   2.849
  977W        W 5177   6.076   7.567  11.279
  978W        W 5178   4.547   4.540   1.337
  979W        W 5179  10.368  10.821   1.966
  980W        W 5180   3.068   0.835   1.228
  981W        W 5181   8.619   4.712   1.743
  982W        W 5182   4.706   7.587  10.321
  983W        W 5183   8.608   4.809  11.990
  984W        W 5184   3.215   7.383  11.708
  985W        W 5185   7.270   2.321   1.841
  986W        W 5186   8.422   2.730   3.575
  987W        W 5187   5.702  10.821   9.464
  988W        W 5188  11.379   8.653  11.633
  989W        W 5189   9.002   4.545   8.349
  990W        W 5190   9.325   0.359   1.069
  991W        W 5191   7.058   5.512  12.000
  992W        W 5192   3.931   2.120   2.910
  993W        W 5193   8.122   6.540   1.368
  994W        W 5194   3.906   6.652   8.981
  995W        W 5195   5.267  11.473   9.701
  996W        W 5196   6.915   8.609   1.311
  997W        W 5197  10.925  10.091  11.882
  998W        W 5198   1.892   5.024  10.738
  999W        W 5199   4.290   8.160   1.387
 1000W        W 5200   1.002   4.987   2.596
 1001W        W 5201  10.389   8.954  11.879
 1002W        W 5202   2.685   1.190  10.322
 1003W        W 5203   8.884   2.800   1.819
 1004W        W 5204   7.960   9.042   2.637
 1005W        W 5205   7.138   3.088  10.673
 1006W        W 5206  11.022   5.669  11.844
 1007W        W 5207   2.706   3.105   9.880
 1008W        W 5208   3.927   0.737   1.583
 1009W        W 5209   7.223   9.016  11.265
 1010W        W 5210   7.600   3.625  10.949
 1011W        W 5211   2.678   4.119   1.510
 1012W        W 5212   1.371   3.881   3.385
 1013W        W 5213  10.901  10.631   1.698
 1014W        W 5214   0.798   6.065   2.349
 1015W        W 5215  10.142   8.118   8.852
 1016W        W 5216   3.762  10.441   1.960
 1017W        W 5217  10.767   2.322   9.278
 1018W        W 5218   0.546   0.475   9.501
 1019W        W 5219   6.154  11.440   3.329
 1020W        W 5220   5.247   7.260   2.785
 1021W        W 5221   9.496  10.677   3.278
 1022W        W 5222   0.075   5.875   3.608
 1023W        W 5223   5.974   9.966   3.230
 1024W        W 5224   5.181   6.549   9.603
 1025W        W 5225   6.741  10.958  10.322
 1026W        W 5226   7.871   2.212  10.225
 1027W        W 5227   0.186  10.913   1.764
 1028W        W 5228   9.097   5.076   8.143
 1029W        W 5229   5.640   3.725   0.262
 1030W        W 5230   0.896   2.826   3.146
 1031W        W 5231   1.278   2.555  10.413
 1032W        W 5232   9.075   2.089   9.474
 1033W        W 5233   6.880   8.107  10.701
 1034W        W 5234   2.918   8.059   0.007
 1035W        W 5235   4.047   0.237   2.321
 1036W        W 5236   9.441   3.731   8.962
 1037W        W 5237  10.797   6.586   0.096
 1038W        W 5238   8.236   4.892   0.545
 1039W        W 5239   0.904  11.152   8.992
 1040W        W 5240  10.966   9.684   8.702
 1041W        W 5241   8.878   7.624   3.173
 1042W        W 5242   0.994   2.040   8.618
 1043W        W 5243   5.929   1.281   1.205
 1044W        W 5244   5.746   5.795   2.488
 1045W        W 5245   7.457   8.570   9.642
 1046W        W 5246  11.214   0.727   2.535
 1047W        W 5247   9.013   9.006  10.725
 1048W        W 5248   5.577   4.540  11.200
 1049W        W 5249   2.872   0.437   0.748
 1050W        W 5250   4.201  10.090   8.753
 1051W        W 5251   3.182   6.736  10.780
 1052W        W 5252   0.481  11.471   8.731
 1053W        W 5253   7.103   0.719   1.834
 1054W        W 5254   5.261   0.011   3.542
 1055W        W 5255   1.581   7.215  10.218
 1056W        W 5256   4.760   8.618   8.595
 1057W        W 5257   3.491   0.275   3.242
 1058W        W 5258   3.192   5.746   1.539
 1059W        W 5259   7.289   6.075   1.425
 1060W        W 5260   6.129   2.158   1.273
 1061W        W 5261   3.678   8.524   3.171
 1062W        W 5262   7.588   9.725   2.309
 1063W        W 5263   4.833   9.623  10.271
 1064W        W 5264   5.492   7.574   1.256
 1065W        W 5265   7.422   4.956   9.452
 1066W        W 5266  11.349   0.813   9.993
 1067W        W 5267   3.281   9.390   3.225
 1068W        W 5268   5.745   7.469   1.662
 1069W        W 5269   2.783   4.575  11.185
 1070W        W 5270   9.808   1.879  11.384
 1071W        W 5271   0.184   1.303   8.909
 1072W        W 5272   9.528   3.144  11.061
 1073W        W 5273   1.436   3.926  10.442
 1074W        W 5274   4.310   4.164   0.640
 1075W        W 5275   5.751  10.316   2.284
 1076W        W 5276   9.145   3.181   2.595
 1077W        W 5277   5.819  11.095   1.729
 1078W        W 5278   1.238   2.794   3.519
 1079W        W 5279  10.932  11.440  10.887
 1080W        W 5280   7.657  11.323   2.144
 1081W        W 5281   7.047   1.018   2.670
 1082W        W 5282   2.532   4.370  11.594
 1083W        W 5283   1.000   4.598  10.923
 1084W        W 5284   2.021   1.487   8.482
 1085W        W 5285   7.303   2.211  11.883
 1086W        W 5286   0.773   3.764   1.318
 1087W        W 5287   9.747   9.506   2.001
 1088W        W 5288   7.771   3.890  11.379
 1089W        W 5289   6.391   7.427   3.156
 1090W        W 5290   8.654   5.116   0.407
 1091W        W 5291   4.794   9.116   3.570
 1092W        W 5292   4.260   6.524   9.532
 1093W        W 5293   4.170   4.160   1.214
 1094W        W 5294   8.083   5.163   3.930
 1095W        W 5295   7.078   3.956   9.514
 1096W        W 5296   2.857   1.274   9.288
 1097W        W 5297   5.522   3.236   3.057
 1098W        W 5298   6.935   0.976   9.351
 1099W        W 5299   7.967   9.433   2.977
 1100W        W 5300   4.530   6.522   9.960
 1101W        W 5301   5.129   2.380   1.348
 1102W        W 5302   4.537   6.555  11.460
 1103W        W 5303   7.675   7.477   0.877
 1104W        W 5304   5.453  10.369   0.276
 1105W        W 5305  10.918   2.278  11.984
 1106W        W 5306   5.111   2.036  10.443
 1107W        W 5307   4.662   5.590  11.005
 1108W        W 5308   2.889   0.853   2.652
 1109W        W 5309   1.186   0.436   0.211
 1110W        W 5310  10.480   0.793   1.896
 1111W        W 5311   6.048   7.878  10.502
 1112W        W 5312   5.133   4.462   3.410
 1113W        W 5313   0.534   6.169   8.908
 1114W        W 5314   3.813   4.080   0.852
 1115W        W 5315   4.854   2.744   9.027
 1116W        W 5316   3.284   9.139  10.564
 1117W        W 5317   6.670   9.027  11.693
 1118W        W 5318   5.826   3.254  11.681
 1119W        W 5319   5.082   4.670   2.160
 1120W        W 5320   5.343   6.104   9.996
 1121W        W 5321   4.610   5.112  10.698
 1122W        W 5322   5.246   0.322   1.808
 1123W        W 5323   2.586  11.062   1.539
 1124W        W 5324   1.795   7.784  10.921
 1125W        W 5325   3.639   0.730   0.199
 1126W        W 5326   9.359   0.369  11.854
 1127W        W 5327   4.972   0.214   8.834
 1128W        W 5328   8.165   8.923  11.236
 1129W        W 5329   7.462   0.160  11.939
 1130W        W 5330  10.329  10.347   3.227
 1131W        W 5331   0.593   8.785   1.294
 1132W        W 5332   7.480   9.405   3.305
 1133W        W 5333   0.483   8.187   2.132
 1134W        W 5334  10.447   6.926   1.863
 1135W        W 5335   6.431   0.048  11.907
 1136W        W 5336   5.736   7.551   2.167
 1137W        W 5337   7.000   6.509  11.809
 1138W        W 5338   9.888   8.101   1.291
 1139W        W 5339   6.064   9.613   9.150
 1140W        W 5340   7.191  10.876   3.317
 1141W        W 5341   5.249  11.281   0.463
 1142W        W 5342   4.604  11.400  10.606
 1143W        W 5343  10.467   0.992   8.786
 1144W        W 5344   6.184   2.964   1.717
 1145W        W 5345  11.231   2.710   1.414
 1146W        W 5346   0.903   7.060  11.994
 1147W        W 5347   9.476  10.741   2.772
 1148W        W 5348  10.886   1.124  10.185
 1149W        W 5349   3.429   0.826   1.651
 1150W        W 5350   8.848   2.480   0.933
 1151W        W 5351   8.480  10.251   1.309
 1152W        W 5352   0.975   7.103   9.265
 1153W        W 5353   7.384   1.130   0.732
 1154W        W 5354   6.641   7.573   0.284
 1155W        W 5355   5.076   9.854  11.823
 1156W        W 5356  11.052   3.208   1.344
 1157W        W 5357   1.416   1.462  10.643
 1158W        W 5358   5.016   1.705   2.275
 1159W        W 5359   0.112   6.475   0.520
 1160W        W 5360   0.392   6.617  11.524
 1161W        W 5361   4.821   3.305  11.461
 1162W        W 5362   4.801  11.322  11.577
 1163W        W 5363   7.955   4.421   2.054
 1164W        W 5364   5.112   0.893   2.500
 1165W        W 5365   9.837   0.878   1.069
 1166W        W 5366   8.768   3.580   8.636
 1167W        W 5367   4.102   2.384   9.808
 1168W        W 5368   2.465   1.882   0.969
 1169W        W 5369   0.471  10.850   3.408
 1170W        W 5370   0.113   8.203  10.414
 1171W        W 5371   2.282   9.668   8.938
 1172W        W 5372   5.026   5.675   1.366
 1173W        W 5373   9.313   4.225   9.068
 1174W        W 5374  11.281   5.222   0.541
 1175W        W 5375   1.745   1.041   8.818
 1176W        W 5376   3.569   7.234   1.029
 1177W        W 5377   3.622   4.937   9.450
 1178W        W 5378   7.379  10.883   1.219
 1179W        W 5379   3.134   1.179  11.073
 1180W        W 5380   9.883   9.004  11.084
 1181W        W 5381   3.442   7.459   9.841
 1182W        W 5382  11.225   1.875  11.887
 1183W        W 5383  11.474   1.287   9.807
 1184W        W 5384   7.867   4.612   1.255
 1185W        W 5385   7.877  10.678  10.492
 1186W        W 5386  10.012   5.211   2.938
 1187W        W 5387   7.490   4.116  10.929
 1188W        W 5388   0.080   0.854  11.729
 1189W        W 5389   5.843   1.332  11.852
 1190W        W 5390   2.776   4.069  10.987
 1191W        W 5391   6.773   8.202  11.586
 1192W        W 5392   9.209   1.154  10.433
 1193W        W 5393   4.809   0.166   9.866
 1194W        W 5394   7.987   5.228   1.438
 1195W        W 5395   5.056  10.871   1.725
 1196W        W 5396   8.314  10.988   0.934
 1197W        W 5397  10.279   8.955   0.992
 1198W        W 5398  11.447   5.115   3.532
 1199W        W 5399   1.746   5.213   9.005
 1200W        W 5400   2.567   7.986   0.937
 1201W        W 5401   6.158   6.695   3.817
 1202W        W 5402   7.030   5.645   1.443
 1203W        W 5403   8.726   4.074   2.282
 1204W        W 5404   0.014   1.856   9.084
 1205W        W 5405   9.057   2.373   2.970
 1206W        W 5406   1.438   1.747   0.185
 1207W        W 5407   1.766   2.379   1.800
 1208W        W 5408   0.818   9.805   9.877
 1209W        W 5409   6.890   9.935  10.923
 1210W        W 5410   4.522   4.789   8.256
 1211W        W 5411   7.926   8.930  10.393
 1212W        W 5412   4.648   3.811   0.860
 1213W        W 5413   8.963   9.871  10.614
 1214W        W 5414   1.977   7.569  11.356
 1215W        W 5415   6.018   3.589   4.111
 1216W        W 5416   0.002   0.420  10.387
 1217W        W 5417   7.993  10.787  11.545
 1218W        W 5418   5.831   3.096   1.383
 1219W        W 5419   2.290   4.108  10.585
 1220W        W 5420   0.679   8.726   9.030
 1221W        W 5421   6.217   4.549   9.393
 1222W        W 5422  11.387   9.798   1.627
 1223W        W 5423   1.831  10.093  11.587
 1224W        W 5424   0.909   1.922   9.379
 1225W        W 5425   8.443   9.504   2.774
 1226W        W 5426   5.483   0.831   9.586
 1227W        W 5427   5.424   3.348   1.096
 1228W        W 5428   9.229   2.040   0.396
 1229W        W 5429   5.675   8.993   2.007
 1230W        W 5430   9.996   9.928   2.707
 1231W        W 5431   6.650   4.178   3.150
 1232W        W 5432   9.914   9.874   1.209
 1233W        W 5433   9.230   0.630  10.412
 1234W        W 5434   3.795   8.036  10.013
 1235W        W 5435   8.717   2.182   0.255
 1236W        W 5436   9.089   9.480   1.375
 1237W        W 5437   1.824   2.630  10.125
 1238W        W 5438   8.913   7.183   9.985
 1239W        W 5439   5.618   9.541   8.918
 1240W        W 5440   3.124   2.364  10.124
 1241W        W 5441   1.257   4.725   0.149
 1242W        W 5442  11.419   1.882   2.000
 1243W        W 5443   9.431   5.155   9.064
 1244W        W 5444  11.247  11.261   0.545
 1245W        W 5445   2.595  10.757   9.568
 1246W        W 5446   8.553   9.542   0.790
 1247W        W 5447   3.870   0.426   9.689
 1248W        W 5448   5.936   4.753  11.866
 1249W        W 5449   0.777   0.089   0.265
 1250W        W 5450   7.211   2.296   9.360
 1251W        W 5451   2.584   2.331   0.414
 1252W        W 5452   3.199   1.745   2.505
 1253W        W 5453  10.851   7.985  11.605
 1254W        W 5454   8.495   1.751   1.858
 1255W        W 5455   9.368   7.602   3.094
 1256W        W 5456   8.504   5.742  11.835
 1257W        W 5457   5.638   2.123  10.888
 1258W        W 5458   2.152   6.568   8.515
 1259W        W 5459  10.876   4.121   9.112
 1260W        W 5460   4.825  10.227   9.156
 1261W        W 5461   3.350   6.104  10.203
 1262W        W 5462  11.249   2.333   2.920
 1263W        W 5463   1.177   1.801  10.313
 1264W        W 5464   8.905   9.933   2.045
 1265W        W 5465   3.218   1.588   9.601
 1266W        W 5466   0.745  10.692   8.797
 1267W        W 5467  10.528   1.337  11.041
 1268W        W 5468  11.362   8.827  11.154
 1269W        W 5469   8.756   3.200   3.540
 1270W        W 5470   2.181  11.382   1.395
 1271W        W 5471   3.438  11.130   2.522
 1272W        W 5472   5.896   4.160  11.444
 1273W        W 5473   2.235   9.040   1.006
 1274W        W 5474   0.898   0.418   2.645
 1275W        W 5475   7.649  11.090   2.590
 1276W        W 5476   3.799   8.152   8.719
 1277W        W 5477   6.095   6.503   0.303
 1278W        W 5478  11.354   7.420  11.910
 1279W        W 5479   1.535   4.379   9.005
 1280W        W 5480   5.524  11.410   2.644
 1281W        W 5481  11.431   7.582   1.097
 1282W        W 5482   6.119   4.845   0.846
 1283W        W 5483   4.670   3.582  10.983
 1284W        W 5484   8.518   2.482   1.361
 1285W        W 5485   1.958  10.883  10.953
 1286W        W 5486   7.712   4.377   3.265
 1287W        W 5487   6.686   8.358   8.999
 1288W        W 5488   7.722   2.241   2.685
 1289W        W 5489   1.584   7.040  11.534
 1290W        W 5490   7.095   1.886  11.288
 1291W        W 5491   5.561   6.607   2.605
 1292W        W 5492   9.021   3.325   1.137
 1293W        W 5493   9.384   7.450   0.415
 1294W        W 5494   8.005   2.937  11.864
 1295W        W 5495   0.496   7.103  11.716
 1296W        W 5496  10.925  10.923   2.633
 1297W        W 5497   5.458   2.365   3.510
 1298W        W 5498   1.111   2.452  11.691
 1299W        W 5499   9.922   9.475   2.475
 1300W        W 5500   0.947   8.366   8.321
 1301W        W 5501   9.170   4.222   2.111
 1302W        W 5502   6.202  10.409   1.995
 1303W        W 5503   5.691   4.121   3.532
 1304W        W 5504   3.781   9.819   8.915
 1305W        W 5505  11.022  11.026  10.474
 1306W        W 5506   3.831   9.805  10.609
 1307W        W 5507   2.534   7.512   1.145
 1308W        W 5508  10.893  10.012   0.889
 1309W        W 5509   0.945   3.661   1.813
 1310W        W 5510   2.139   0.857   9.883
 1311W        W 5511   7.018   1.271   1.041
 1312W        W 5512   6.689   4.326  11.763
 1313W        W 5513  10.927   8.528   1.876
 1314W        W 5514   1.042   0.825  10.871
 1315W        W 5515   3.602  11.238  10.385
 1316W        W 5516   9.343   1.057   2.574
 1317W        W 5517   9.506   2.420   0.111
 1318W        W 5518   1.758  10.818   0.145
 1319W        W 5519  10.030   6.105  11.980
 1320W        W 5520   6.560   4.778   1.118
 1321W        W 5521   2.774   7.391   8.891
 1322W        W 5522   8.922   0.007   3.206
 1323W        W 5523  10.968   9.970   3.671
 1324W        W 5524   1.102   5.614   3.326
 1325W        W 5525   2.393   7.917   1.449
 1326W        W 5526   0.403   3.141   2.804
 1327W        W 5527   6.426   6.692   0.640
 1328W        W 5528   3.215  10.176   3.229
 1329W        W 5529   3.590   0.352   1.433
 1330W        W 5530   2.556   1.103   9.681
 1331W        W 5531   3.330   7.154   0.567
 1332W        W 5532  11.022   1.649   9.331
 1333W        W 5533   2.621   3.503  11.797
 1334W        W 5534   5.729   5.262   1.199
 1335W        W 5535   6.160   2.890  11.806
 1336W        W 5536   6.011   1.313  10.294
 1337W        W 5537   4.626   7.954  11.549
 1338W        W 5538  11.307   9.301   9.100
 1339W        W 5539  11.312   9.773   0.715
 1340W        W 5540   7.474   6.832   9.435
 1341W        W 5541   3.325  10.615   9.123
 1342W        W 5542   2.255   6.925   2.290
 1343W        W 5543   8.714   4.690  10.618
 1344W        W 5544   8.969   3.278   3.073
 1345W        W 5545   7.498   7.030   2.649
 1346W        W 5546   9.092   6.483   0.948
 1347W        W 5547   5.324   0.016   9.174
 1348W        W 5548   0.900   9.789  11.819
 1349W        W 5549  10.728  11.133   1.798
 1350W        W 5550   5.775  10.474   2.825
 1351W        W 5551   3.911   1.597   2.063
 1352W        W 5552   3.223   4.659  11.863
 1353W        W 5553   7.037   9.509   3.020
 1354W        W 5554   4.054   1.295  10.614
 1355W        W 5555   3.595  10.724  10.345
 1356W        W 5556   5.392   4.040  11.421
 1357W        W 5557   6.959   9.031   1.058
 1358W        W 5558   8.906   1.439  10.148
 1359W        W 5559   1.934   3.873  10.284
 1360W        W 5560   0.236   5.004   9.465
 1361W        W 5561   3.344   7.647  11.293
 1362W        W 5562   6.496   2.583   1.823
 1363W        W 5563   4.150  11.277   9.416
 1364W        W 5564   1.269   4.393   3.464
 1365W        W 5565   4.100   8.190   2.273
 1366W        W 5566   5.627   1.201  10.909
 1367W        W 5567   1.827   7.101   9.784
 1368W        W 5568   1.809   3.608  11.718
 1369W        W 5569   3.112   8.680   1.314
 1370W        W 5570   8.164   7.641   0.821
 1371W        W 5571   4.574   1.858   9.412
 1372W        W 5572   7.731   1.468   2.190
 1373W        W 5573   7.661   1.415   9.255
 1374W        W 5574   9.267   0.353   8.242
 1375W        W 5575   3.276   2.570   3.557
 1376W        W 5576   2.976   9.629   1.667
 1377W        W 5577   1.293   0.290  10.046
 1378W        W 5578   3.985   4.050  10.560
 1379W        W 5579   2.174   5.314   1.135
 1380W        W 5580   5.096   3.615   3.932
 1381W        W 5581   3.744   8.802  11.105
 1382W        W 5582   7.110   8.926   9.543
 1383W        W 5583   9.051  10.335   9.287
 1384W        W 5584   6.579   1.388   3.352
 1385W        W 5585   2.183   9.966   3.114
 1386W        W 5586   4.158   6.214  10.769
 1387W        W 5587   4.147   9.359   0.758
 1388W        W 5588   4.545   0.120   2.350
 1389W        W 5589   1.434   1.135  11.043
 1390W        W 5590   2.684  11.124  11.746
 1391W        W 5591   8.463   1.000   1.103
 1392W        W 5592   5.083   3.271  10.967
 1393W        W 5593   9.339   0.801   3.007
 1394W        W 5594   3.293   2.630   2.934
 1395W        W 5595  11.232   2.215   3.428
 1396W        W 5596   8.543   9.603   3.614
 1397W        W 5597   5.990   7.287   8.615
 1398W        W 5598   3.084   2.365   0.465
 1399W        W 5599   3.620  10.614  11.749
 1400W        W 5600   2.344   4.144   0.870
 1401W        W 5601   8.436   0.744  10.719
 1402W        W 5602  10.302  10.473   9.744
 1403W        W 5603   2.748   7.847   0.456
 1404W        W 5604   8.448   8.827   8.560
 1405W        W 5605   8.180   5.987   8.288
 1406W        W 5606   5.758  10.311   1.746
 1407W        W 5607   6.612   8.094   0.724
 1408W        W 5608   5.648   2.355   8.668
 1409W        W 5609   3.496   1.916   2.132
 1410W        W 5610   3.318   5.722  10.553
 1411W        W 5611  11.329   2.739   3.499
 1412W        W 5612   6.030   2.816   3.655
 1413W        W 5613   6.182  10.553   1.512
 1414W        W 5614   9.677   1.458  11.108
 1415W        W 5615  10.446   0.706   0.464
 1416W        W 5616   2.579   5.641   2.590
 1417W        W 5617   6.087   8.862   2.796
 1418W        W 5618   5.592   8.640   9.925
 1419W        W 5619  10.990   9.911   0.360
 1420W        W 5620   6.534   4.365   8.968
 1421W        W 5621   8.681   8.100   0.065
 1422W        W 5622   7.437   4.327  10.317
 1423W        W 5623   4.641   5.637  10.493
 1424W        W 5624   8.827   4.812   0.813
 1425W        W 5625   4.910   9.611   3.686
 1426W        W 5626   2.392   7.060   1.431
 1427W        W 5627   9.947   2.840  11.101
 1428W        W 5628   1.361   1.659   9.328
 1429W        W 5629   9.697   9.181   0.409
 1430W        W 5630  10.421   1.660   0.225
 1431W        W 5631   4.171   4.690   9.360
 1432W        W 5632   2.224   6.394   9.394
 1433W        W 5633   9.558   6.517   9.072
 1434W        W 5634   7.717   9.406  10.278
 1435W        W 5635   2.419   8.151   1.895
 1436W        W 5636   8.098   8.620   8.919
 1437W        W 5637   9.730   2.089   0.732
 1438W        W 5638   8.976   7.510  11.501
 1439W        W 5639   8.474   4.751   2.678
 1440W        W 5640   8.604   6.467   9.677
 1441W        W 5641   1.681  10.983   1.869
 1442W        W 5642   8.151   6.410   9.461
 1443W        W 5643  11.333   6.019   3.165
 1444W        W 5644   8.032   0.273  11.328
 1445W        W 5645   7.571   7.171   0.483
 1446W        W 5646   0.323   5.850   2.266
 1447W        W 5647   5.211  10.813  10.259
 1448W        W 5648   7.338   7.840   2.311
 1449W        W 5649   6.028   2.027   8.862
 1450W        W 5650   6.325   6.066  10.132
 1451W        W 5651   8.688   4.077   3.338
 1452W        W 5652   5.595   9.303  11.305
 1453W        W 5653   7.262   9.748   0.045
 1454W        W 5654   8.667   3.718   0.420
 1455W        W 5655   8.878  11.185  11.899
 1456W        W 5656   4.963  11.166   0.892
 1457W        W 5657   4.886   3.259   9.182
 1458W        W 5658   1.918   4.745   8.910
 1459W        W 5659   5.438   6.609  10.361
 1460W        W 5660   1.253   1.238   0.049
 1461W        W 5661   6.225   8.011   0.244
 1462W        W 5662   9.773   8.624   0.579
 1463W        W 5663  10.763   2.762   1.209
 1464W        W 5664   0.298  10.357  11.312
 1465W        W 5665   6.020   0.876   0.045
 1466W        W 5666   1.363   9.089  11.651
 1467W        W 5667   2.296   1.446  10.607
 1468W        W 5668   2.081   9.362   9.342
 1469W        W 5669   5.220   9.290   3.290
 1470W        W 5670   6.510   9.499   2.274
 1471W        W 5671   5.986   5.516  10.354
 1472W        W 5672   8.458   3.067   3.103
 1473W        W 5673   3.914   0.433  10.937
 1474W        W 5674   7.257   5.077   9.948
 1475W        W 5675   7.586   5.888  11.209
 1476W        W 5676   2.951   1.257   0.419
 1477W        W 5677   8.429   9.759   1.263
 1478W        W 5678  10.691   5.271  11.767
 1479W        W 5679   3.196   4.567   3.423
 1480W        W 5680   0.576   0.802  11.746
 1481W        W 5681   8.583   6.928  10.267
 1482W        W 5682   0.694   8.150  10.040
 1483W        W 5683   0.362   0.753  11.279
 1484W        W 5684   5.941   9.012   1.000
 1485W        W 5685   4.742   0.488   1.819
 1486W        W 5686   2.841   0.446   8.958
 1487W        W 5687   7.800   3.079   2.864
 1488W        W 5688   9.091   3.343   9.438
 1489W        W 5689   2.819   4.232   3.501
 1490W        W 5690   1.734   2.697  10.630
 1491W        W 5691  10.873   9.853   9.193
 1492W        W 5692   0.283   7.632  10.829
 1493W        W 5693   9.161   6.214   2.276
 1494W        W 5694   7.490   5.749  11.726
 1495W        W 5695   5.945   5.183  11.386
 1496W        W 5696   1.464   6.191   1.657
 1497W        W 5697   1.908   6.143   1.407
 1498W        W 5698  10.938   4.068   0.595
 1499W        W 5699   9.474   5.948   9.727
 1500W        W 5700   2.571   5.260  11.815
 1501W        W 5701   7.901   1.343   3.143
 1502W        W 5702   2.386   0.975  11.993
 1503W        W 5703   6.123   1.260  10.796
 1504W        W 5704   5.254   1.551  10.598
 1505W        W 5705   0.055   0.345   9.487
 1506W        W 5706   0.387   8.426   0.968
 1507W        W 5707   2.068   4.034  11.399
 1508W        W 5708   2.873   0.326   9.924
 1509W        W 5709   0.277   5.579   2.712
 1510W        W 5710   6.463   2.070  11.862
 1511W        W 5711   4.256   2.554  11.876
 1512W        W 5712   3.564   2.080  10.002
 1513W        W 5713   1.024   2.063   0.088
 1514W        W 5714   6.573   8.136   9.497
 1515W        W 5715   0.123  10.431   2.423
 1516W        W 5716   1.306   3.998   1.962
 1517W        W 5717   4.343  10.981   9.013
 1518W        W 5718  10.954   6.717   9.719
 1519W        W 5719   1.619  10.368   3.531
 1520W        W 5720   2.503   5.789  10.004
 1521W        W 5721   4.907   2.333   3.433
 1522W        W 5722   3.290   5.021  10.066
 1523W        W 5723   2.111   4.575  11.411
 1524W        W 5724  11.335   3.312  10.580
 1525W        W 5725   1.673   7.471   1.730
 1526W        W 5726   6.585   0.771   8.921
 1527W        W 5727   7.826   9.865  11.303
 1528W        W 5728  10.666   4.293  11.769
 1529W        W 5729   6.817   1.000  11.517
 1530W        W 5730   3.164   9.758   0.471
 1531W        W 5731   3.748   2.786   1.179
 1532W        W 5732   7.355   5.601  10.814
 1533W        W 5733   7.155   4.867  11.172
 1534W        W 5734   8.532   8.657   4.056
 1535W        W 5735   7.994   5.735  10.040
 1536W        W 5736  10.548   5.980   2.750
 1537W        W 5737   6.456   4.726  10.186
 1538W        W 5738   2.498   0.532   8.571
 1539W        W 5739   3.313   2.730  10.440
 1540W        W 5740   5.682   1.819   8.532
 1541W        W 5741   5.825   6.125   1.361
 1542W        W 5742   1.858   7.443   9.063
 1543W        W 5743   9.975   9.848  11.721
 1544W        W 5744   1.487   3.299   2.716
 1545W        W 5745   7.738   0.074   0.369
 1546W        W 5746   8.491  11.432   2.131
 1547W        W 5747   5.195   3.968   3.575
 1548W        W 5748   3.787   8.510   0.720
 1549W        W 5749   7.950   1.448   2.657
 1550W        W 5750   3.746   0.729   0.764
 1551W        W 5751   8.028   8.450   2.354
 1552W        W 5752  10.476   2.312   2.967
 1553W        W 5753   2.215   8.106   9.924
 1554W        W 5754  10.982   7.188  10.987
 1555W        W 5755   4.562   3.516   8.629
 1556W        W 5756   5.037   3.565   8.798
 1557W        W 5757   3.836   1.234   1.686
 1558W        W 5758  11.037   0.394   2.907
 1559W        W 5759  10.565   5.208   2.250
 1560W        W 5760   7.197   5.267  10.435
 1561W        W 5761   4.793   3.566   2.455
 1562W        W 5762   8.933   2.008   8.979
 1563W        W 5763   8.622   3.330   0.784
 1564W        W 5764   5.696   2.716   0.014
 1565W        W 5765   4.582  10.777   9.437
 1566W        W 5766   0.833   4.708  10.453
 1567W        W 5767   2.838   1.353   2.834
 1568W        W 5768   5.280   5.092   1.957
 1569W        W 5769   3.284   7.481   8.987
 1570W        W 5770   5.542   2.682   1.434
 1571W        W 5771   4.251   0.753   9.074
 1572W        W 5772   5.543   4.963  10.877
 1573W        W 5773  10.350   4.761  10.721
 1574W        W 5774  10.882   9.844   2.186
 1575W        W 5775   7.953   6.556   2.294
 1576W        W 5776   0.356   5.659   1.051
 1577W        W 5777   8.606   0.729   9.886
 1578W        W 5778  10.509   2.394  11.048
 1579W        W 5779   8.004   7.896   1.783
 1580W        W 5780   5.542   3.838   1.100
 1581W        W 5781   9.108   8.396   0.036
 1582W        W 5782   9.700   5.097  10.013
 1583W        W 5783   9.937   9.107   9.567
 1584W        W 5784  11.291   7.215   0.772
 1585W        W 5785   4.670  10.699  11.030
 1586W        W 5786   9.517  10.092   0.350
 1587W        W 5787   0.721   0.639   0.222
 1588W        W 5788   2.783   6.640   1.796
 1589W        W 5789   3.179   0.429  10.520
 1590W        W 5790   4.820   5.134   0.524
 1591W        W 5791   0.824   4.525   9.896
 1592W        W 5792   1.525   1.862   1.152
 1593W        W 5793   3.980   2.638   9.085
 1594W        W 5794   4.421   6.619   9.061
 1595W        W 5795   9.485   0.085   9.906
 1596W        W 5796  10.572   8.552   0.816
 1597W        W 5797  10.796   2.699   0.709
 1598W        W 5798   0.897  11.075   3.257
 1599W        W 5799   9.013  11.345   2.212
 1600W        W 5800  10.414   3.822  10.845
 1601W        W 5801   1.722   7.260  10.710
 1602W        W 5802   0.870  11.369   2.458
 1603W        W 5803   4.015   1.081   1.204
 1604W        W 5804   0.095   4.608   9.189
 1605W        W 5805  11.383  10.838   1.321
 1606W        W 5806   1.266   8.641  11.398
 1607W        W 5807   1.845   3.386   8.877
 1608W        W 5808   4.347   2.277  10.498
 1609W        W 5809   0.683   3.279   3.179
 1610W        W 5810   2.997   9.575   2.847
 1611W        W 5811   7.606   7.200  11.968
 1612W        W 5812   1.645   0.172  10.744
 1613W        W 5813   7.406   9.835  11.562
 1614W        W 5814  11.402   4.545  11.478
 1615W        W 5815  11.041   2.022   8.962
 1616W        W 5816   8.629   6.426  10.226
 1617W        W 5817   0.261  11.003  11.948
 1618W        W 5818   2.691   6.382   3.968
 1619W        W 5819   4.629   7.049  11.600
 1620W        W 5820   9.850   1.219   1.680
 1621W        W 5821   5.181   1.336   2.781
 1622W        W 5822   1.707   4.897   1.860
 1623W        W 5823   3.819   9.898   2.673
 1624W        W 5824   8.842   2.827   2.331
 1625W        W 5825   4.474   8.211   9.059
 1626W        W 5826   6.729   3.591   9.436
 1627W        W 5827   9.814   6.970   9.092
 1628W        W 5828   4.427   2.768   9.279
 1629W        W 5829   8.625   8.881   2.448
 1630W        W 5830   2.210   0.979  10.361
 1631W        W 5831   2.527   4.505   0.547
 1632W        W 5832   6.063   7.938   9.531
 1633W        W 5833   1.547   1.317   2.239
 1634W        W 5834   4.314   1.443   1.737
 1635W        W 5835   1.454   8.657   1.518
 1636W        W 5836   2.894   2.350  11.603
 1637W        W 5837   8.359   1.394   3.392
 1638W        W 5838   5.005   7.233   9.641
 1639W        W 5839   2.531   3.532   2.592
 1640W        W 5840  10.322   7.948   0.425
 1641W        W 5841   3.838   5.970   0.461
 1642W        W 5842   3.806   0.929  10.889
 1643W        W 5843   5.429   3.306   1.606
 1644W        W 5844   7.277   3.817  11.349
 1645W        W 5845   3.618   0.914   3.383
 1646W        W 5846   2.196   1.765  11.020
 1647W        W 5847   2.238   5.221   0.199
 1648W        W 5848   0.026   4.226  10.253
 1649W        W 5849   2.805   5.056   2.559
 1650W        W 5850   7.932   5.052   9.525
 1651W        W 5851   2.890   9.897   0.893
 1652W        W 5852   4.024   9.839   0.074
 1653W        W 5853   9.086   3.950  11.259
 1654W        W 5854  10.761  10.764   9.160
 1655W        W 5855  11.489   0.057   3.565
 1656W        W 5856   0.538   7.475   0.215
 1657W        W 5857   4.711   2.100  10.794
 1658W        W 5858   8.098   3.179   1.170
 1659W        W 5859   9.159   6.225   2.796
 1660W        W 5860   1.645   8.270   8.777
 1661W        W 5861  10.899   5.751   9.993
 1662W        W 5862   5.530   0.261   0.464
 1663W        W 5863   2.199   8.140   2.791
 1664W        W 5864   0.387  11.267   3.720
 1665W        W 5865   1.055   2.250   2.333
 1666W        W 5866   8.028   7.545   2.144
 1667W        W 5867   9.066   2.008   2.612
 1668W        W 5868   2.322   5.575  11.436
 1669W        W 5869   6.316   8.310  10.347
 1670W        W 5870   8.092   8.000  11.579
 1671W        W 5871   0.401   4.191   3.400
 1672W        W 5872  11.469   5.199   2.787
 1673W        W 5873   2.916  10.197   0.437
 1674W        W 5874   6.090   3.014   2.370
 1675W        W 5875   2.022   4.800   2.744
 1676W        W 5876   9.026  11.148  11.292
 1677W        W 5877   4.770   9.994   3.032
 1678W        W 5878   8.360   7.617  10.736
 1679W        W 5879   4.734   9.396   9.746
 1680W        W 5880   8.099   0.661  11.662
 1681W        W 5881   1.670   9.563   9.627
 1682W        W 5882   7.562   2.002   3.453
 1683W        W 5883   8.938   1.452   8.810
 1684W        W 5884   1.981   7.633   9.926
 1685W        W 5885   0.026  10.934  10.649
 1686W        W 5886   0.217   0.272  11.016
 1687W        W 5887   4.343  10.452   9.094
 1688W        W 5888   6.606   4.390   8.451
 1689W        W 5889   8.607  11.395  11.440
 1690W        W 5890   4.700   2.062   8.471
 1691W        W 5891   9.436   4.119   3.128
 1692W        W 5892   9.015   8.778   9.381
 1693W        W 5893   2.093   7.202   1.872
 1694W        W 5894   9.563   2.625  10.858
 1695W        W 5895   3.270   2.912   1.353
 1696W        W 5896   7.067   1.812   9.461
 1697W        W 5897   3.554   3.846  11.813
 1698W        W 5898  11.114   4.981  10.487
 1699W        W 5899   8.944   9.115   3.448
 1700W        W 5900  11.213   9.337   2.453
 1701W        W 5901   4.204   2.506   3.138
 1702W        W 5902   0.303   7.523   0.739
 1703W        W 5903   3.060   6.161   9.348
 1704W        W 5904   1.322   0.316  11.730
 1705W        W 5905  10.469   9.376   1.268
 1706W        W 5906   9.001   3.765  10.791
 1707W        W 5907   6.009   2.308  10.099
 1708W        W 5908  11.274   3.305  10.074
 1709W        W 5909   8.813   7.098   2.560
 1710W        W 5910   8.360   9.873  11.309
 1711W        W 5911   2.762  11.392   0.696
 1712W        W 5912   7.518   2.708   2.667
 1713W        W 5913  10.448   9.541   8.726
 1714W        W 5914   4.563   8.678   3.382
 1715W        W 5915   0.404   1.944   3.323
 1716W        W 5916   2.355   2.834   1.320
 1717W        W 5917   6.063   9.349  11.060
 1718W        W 5918   7.319   7.820   1.453
 1719W        W 5919   6.156   0.491   8.800
 1720W        W 5920   6.513  10.908   8.806
 1721W        W 5921   7.957   0.479   8.867
 1722W        W 5922   7.117   7.243   9.362
 1723W        W 5923   5.951   7.565   0.245
 1724W        W 5924   1.740   7.403   2.981
 1725W        W 5925  10.461   3.136   2.354
 1726W        W 5926   1.378   9.720   3.808
 1727W        W 5927  10.676   6.971   1.387
 1728W        W 5928   8.361   6.868   9.339
 1729W        W 5929   7.085  10.026   9.090
 1730W        W 5930   4.469   8.180   3.228
 1731W        W 5931   4.582   7.091  10.525
 1732W        W 5932   2.883   9.434  10.899
 1733W        W 5933   3.084   9.974  11.041
 1734W        W 5934   8.147   6.649  10.406
 1735W        W 5935  11.294   1.410   1.813
 1736W        W 5936   4.224   7.657   3.129
 1737W        W 5937   2.152   7.141   0.980
 1738W        W 5938   0.337   1.300   9.408
 1739W        W 5939  11.045  11.250   1.281
 1740W        W 5940   4.482   5.283   0.962
 1741W        W 5941   5.236   7.844   1.629
 1742W        W 5942   9.707   5.505   9.472
 1743W        W 5943   9.123   4.887   8.711
 1744W        W 5944  11.320   5.461  10.390
 1745W        W 5945  10.723   0.570   2.512
 1746W        W 5946   8.258   1.493   2.229
 1747W        W 5947   9.632   7.137  11.811
 1748W        W 5948   1.775   0.567  11.511
 1749W        W 5949   8.568   0.449   2.241
 1750W        W 5950  10.945   7.197   3.124
 1751W        W 5951  10.857   9.152   2.746
 1752W        W 5952   1.726   2.683  11.151
 1753W        W 5953   2.602   7.224   2.792
 1754W        W 5954   6.485   0.164   0.972
 1755W        W 5955   8.629   1.018   1.581
 1756W        W 5956   7.088   8.907  10.769
 1757W        W 5957   9.006   7.443   9.078
 1758W        W 5958   4.890   3.234   3.654
 1759W        W 5959   0.372   8.600  11.846
 1760W        W 5960   5.623   2.751   2.361
 1761W        W 5961  11.420   5.960   0.557
 1762W        W 5962   1.446   2.739   2.507
 1763W        W 5963   1.472   7.155   8.544
 1764W        W 5964   7.195   3.347  11.120
 1765W        W 5965  10.835   7.466  11.804
 1766W        W 5966   6.669   0.543   0.680
 1767W        W 5967   4.359   2.060  11.926
 1768W        W 5968  10.085   6.846  10.321
 1769W        W 5969   1.752  11.285  11.935
 1770W        W 5970   2.215   5.659   0.477
 1771W        W 5971   3.099  11.432  10.130
 1772W        W 5972   3.195   6.471   1.161
 1773W        W 5973  10.826   3.809   3.130
 1774W        W 5974   3.667   9.810   0.419
 1775W        W 5975   3.319   3.746   2.043
 1776W        W 5976   3.400  11.162  11.537
 1777W        W 5977   3.364   4.244   1.786
 1778W        W 5978   3.608   4.811   0.164
 1779W        W 5979   2.968   4.246   0.436
 1780W        W 5980   2.449  11.442   1.856
 1781W        W 5981   8.392   3.127   2.191
 1782W        W 5982   6.276  10.931   1.850
 1783W        W 5983   3.253  11.044   2.010
 1784W        W 5984   0.877   3.208   9.978
 1785W        W 5985   7.992  10.483  10.033
 1786W        W 5986   7.413   8.989  10.380
 1787W        W 5987   8.163   5.170   2.707
 1788W        W 5988   5.699  10.329   9.369
 1789W        W 5989   6.633   7.301   9.179
 1790W        W 5990   2.084   5.627   2.437
 1791W        W 5991   5.430   5.126  11.349
 1792W        W 5992   6.252   0.861   1.426
 1793W        W 5993   7.872   4.548   0.706
 1794W        W 5994   4.133   5.143  10.038
 1795W        W 5995   6.180   3.302  11.240
 1796W        W 5996  10.398   0.267   2.245
 1797W        W 5997   4.263  10.575   0.546
 1798W        W 5998   2.824   5.050   9.878
 1799W        W 5999   7.655   7.570   2.764
 1800W        W 6000   0.508   1.494  10.821
 1801W        W 6001   2.465   9.841   9.371
 1802W        W 6002   9.070   0.382   9.960
 1803W        W 6003   8.955  10.505  10.313
 1804W        W 6004   9.407   1.510   9.585
 1805W        W 6005  11.268   0.974   8.870
 1806W        W 6006   8.567   3.313   9.431
 1807W        W 6007   0.291   5.753  11.345
 1808W        W 6008   4.339   8.327  10.063
 1809W        W 6009   1.531   7.801  11.473
 1810W        W 6010   6.881   3.313   0.484
 1811W        W 6011   8.055   0.661   1.027
 1812W        W 6012   9.942  10.987   9.459
 1813W        W 6013   2.829   3.932   1.974
 1814W        W 6014   5.465   5.287   0.774
 1815W        W 6015   9.525   7.075   4.213
 1816W        W 6016   8.119  10.577   9.179
 1817W        W 6017   5.601   5.722  11.974
 1818W        W 6018  10.009   9.997   0.213
 1819W        W 6019   3.733  11.365   2.186
 1820W        W 6020   3.776   1.225  11.962
 1821W        W 6021   6.303   4.328   1.756
 1822W        W 6022   1.914   2.653   2.273
 1823W        W 6023   3.720   0.197   0.806
 1824W        W 6024  11.463   2.135   0.309
 1825W        W 6025   0.814   9.579   0.312
 1826W        W 6026   9.331   5.506  10.495
 1827W        W 6027   4.248   9.590   1.496
 1828W        W 6028   7.900   4.941  11.873
 1829W        W 6029   7.762   8.650   1.288
 1830W        W 6030   0.392   5.222   2.315
 1831W        W 6031   5.030   0.986   9.432
 1832W        W 6032   2.089   7.464   1.395
 1833W        W 6033   5.016   8.485   3.420
 1834W        W 6034   0.580   8.372  10.503
 1835W        W 6035   6.109   4.051  10.136
 1836W        W 6036   9.999   4.622  11.074
 1837W        W 6037   5.986   3.293   0.939
 1838W        W 6038   7.608  10.480   0.725
 1839W        W 6039   5.301   6.954   0.378
 1840W        W 6040   6.019   2.379  11.752
 1841W        W 6041   4.673   4.790  11.573
 1842W        W 6042   1.565   0.827  11.912
 1843W        W 6043   3.613   5.092  11.285
 1844W        W 6044   5.419   5.733   9.169
 1845W        W 6045  10.243   0.375  11.018
 1846W        W 6046   6.273   6.574   3.338
 1847W        W 6047   6.487   5.561  11.028
 1848W        W 6048   8.031   0.556   2.442
 1849W        W 6049   8.696   2.431   9.369
 1850W        W 6050  11.298   7.025  10.265
 1851W        W 6051   9.535   3.290   1.322
 1852W        W 6052   9.093   6.031   4.059
 1853W        W 6053  11.399  10.362   1.524
 1854W        W 6054   7.162   6.865   0.415
 1855W        W 6055   1.946   5.538  10.818
 1856W        W 6056   8.675   3.238  10.773
 1857W        W 6057   9.070   3.692   2.476
 1858W        W 6058   4.113   0.350  11.467
 1859W        W 6059   3.342   2.375   1.308
 1860W        W 6060   0.380   4.178   2.027
 1861W        W 6061   5.203   6.723   1.629
 1862W        W 6062   6.755   6.712   1.540
 1863W        W 6063  10.086   8.174   0.804
 1864W        W 6064   3.102   1.235   8.830
 1865W        W 6065   4.539   9.457   8.473
 1866W        W 6066   6.156   2.188   0.262
 1867W        W 6067  10.745   0.432  10.956
 1868W        W 6068   8.593   9.980   8.847
 1869W        W 6069   1.179   5.267   9.035
 1870W        W 6070   3.727   9.310   8.969
 1871W        W 6071   5.022  11.280   0.022
 1872W        W 6072  10.323   3.098   0.032
 1873W        W 6073   6.881   2.239  11.624
 1874W        W 6074   2.285   1.265  11.175
 1875W        W 6075   7.130   2.700  11.744
 1876W        W 6076   4.160   3.330   0.377
 1877W        W 6077   4.480   3.519   1.251
 1878W        W 6078   5.320   2.093   3.108
 1879W        W 6079   3.511   2.851   9.469
 1880W        W 6080   9.642   6.234   1.893
 1881W        W 6081   3.115   8.769   8.691
 1882W        W 6082   2.702   9.501  11.446
 1883W        W 6083  10.289  10.049  10.478
 1884W        W 6084   0.299   6.721  11.013
 1885W        W 6085   2.348   9.885   0.891
 1886W        W 6086  10.081   9.522   0.396
 1887W        W 6087   0.353   2.324   0.617
 1888W        W 6088   1.939   0.158   0.415
 1889W        W 6089   9.466   9.388   2.648
 1890W        W 6090  11.408   6.616   9.964
 1891W        W 6091   3.101   8.394   2.375
 1892W        W 6092   3.088   8.514  11.836
 1893W        W 6093   5.631   1.670   0.226
 1894W        W 6094   3.007   4.924   3.820
 1895W        W 6095   4.729   6.123  10.264
 1896W        W 6096   1.632   6.780  10.579
 1897W        W 6097   2.291   6.226   1.732
 1898W        W 6098   1.172   3.677   2.950
 1899W        W 6099   4.317   3.160  11.490
 1900W        W 6100   7.448   6.123   8.649
 1901W        W 6101   9.919  10.922  10.378
 1902W        W 6102   5.862   7.111   3.435
 1903W        W 6103   2.301   8.594   1.684
 1904W        W 6104   1.849   6.114   2.470
 1905W        W 6105   1.313   0.951   1.517
 1906W        W 6106   6.972   4.252  11.331
 1907W        W 6107   6.111   1.286   2.599
 1908W        W 6108   8.639   5.340   1.464
 1909W        W 6109   5.808   3.822  10.529
 1910W        W 6110   3.187   0.718  11.460
 1911W        W 6111   4.715   3.708   3.491
 1912W        W 6112   5.909   4.575   3.428
 1913W        W 6113   0.465   1.449   1.234
 1914W        W 6114   9.525  10.054  11.812
 1915W        W 6115   2.779   8.105  10.800
 1916W        W 6116   2.247   3.508  11.435
 1917W        W 6117   3.631   5.245  11.829
 1918W        W 6118   2.486   4.735  10.104
 1919W        W 6119   7.972   9.589   3.469
 1920W        W 6120   1.113   2.219  10.029
 1921W        W 6121   1.616   9.419   9.133
 1922W        W 6122   7.196   4.204   3.267
 1923W        W 6123   2.259   1.470   9.461
 1924W        W 6124   7.343  11.343   3.047
 1925W        W 6125   3.248   5.254   9.621
 1926W        W 6126   2.505   7.689   9.880
 1927W        W 6127   1.401   8.311   2.800
 1928W        W 6128   2.020   5.623   9.974
 1929W        W 6129   2.376   2.325   1.205
 1930W        W 6130   2.179   6.666   9.924
 1931W        W 6131   0.752   9.955  10.525
 1932W        W 6132   4.679   7.966   2.382
 1933W        W 6133   2.099   6.167  10.028
 1934W        W 6134  10.732   5.879   9.430
 1935W        W 6135   0.228   8.441   3.456
 1936W        W 6136   1.451   2.310   1.383
 1937W        W 6137   3.087   5.065   3.336
 1938W        W 6138   0.675   8.590   2.741
 1939W        W 6139   1.392   4.874   1.437
 1940W        W 6140   9.080   8.473   8.967
 1941W        W 6141   3.178   4.030   3.231
 1942W        W 6142   5.616   8.090   3.949
 1943W        W 6143  10.035   4.594   8.946
 1944W        W 6144   8.159   9.759   9.558
 1945W        W 6145  10.758  11.395   9.423
 1946W        W 6146   0.324   6.584   1.622
 1947W        W 6147   7.398   2.186   9.890
 1948W        W 6148   9.510   9.137   8.452
 1949W        W 6149   8.113   5.238   9.975
 1950W        W 6150   3.953   9.456   2.904
 1951W        W 6151   0.373   6.563   0.963
 1952W        W 6152  10.901   9.032   3.233
 1953W        W 6153   0.432   2.816   8.871
 1954W        W 6154   3.292  11.435   0.398
 1955W        W 6155   0.777   5.898  11.277
 1956W        W 6156   6.456   8.459   0.414
 1957W        W 6157   6.442   1.707   2.562
 1958W        W 6158   6.596   2.737  11.100
 1959W        W 6159   2.828   8.416  10.403
 1960W        W 6160   6.048   5.513   2.174
 1961W        W 6161   0.936   2.200  10.535
 1962W        W 6162   4.685  10.446   2.786
 1963W        W 6163   4.667   9.353   0.687
 1964W        W 6164   8.906  10.399   9.778
 1965W        W 6165   2.021   2.167   2.449
 1966W        W 6166   8.651  10.745  10.784
 1967W        W 6167   1.255   0.473   1.355
 1968W        W 6168   5.625   0.936   3.264
 1969W        W 6169   8.389  10.312   2.116
 1970W        W 6170   4.388   1.342   0.361
 1971W        W 6171   0.405   1.271   2.973
 1972W        W 6172   1.189   5.840   8.494
 1973W        W 6173   4.167   3.688   0.733
 1974W        W 6174   7.454   5.070   8.922
 1975W        W 6175   4.762   4.415  11.913
 1976W        W 6176   2.682   3.512  10.872
 1977W        W 6177   3.177   9.547  11.307
 1978W        W 6178   5.614   8.490   1.266
 1979W        W 6179  10.584   0.037  11.769
 1980W        W 6180   9.016   4.414   3.121
 1981W        W 6181  11.112   4.570   9.038
 1982W        W 6182  11.122   0.545   0.894
 1983W        W 6183   1.510   0.634  10.940
 1984W        W 6184   2.771   5.386  10.270
 1985W        W 6185   3.112   5.110   1.141
 1986W        W 6186   8.244   5.242   1.868
 1987W        W 6187   9.814   0.959   3.464
 1988W        W 6188   1.879   7.974   9.131
 1989W        W 6189   2.213   4.339  11.993
 1990W        W 6190   2.817   2.261   0.896
 1991W        W 6191   4.369   9.522  10.091
 1992W        W 6192   8.531   9.874   2.379
 1993W        W 6193   0.069  10.428   1.022
 1994W        W 6194   5.143   7.658  11.087
 1995W        W 6195   1.873   1.375  10.880
 1996W        W 6196   4.123   3.148   1.406
 1997W        W 6197   7.270   9.262   0.172
 1998W        W 6198   6.743   1.392   9.585
 1999W        W 6199  10.196   1.802  11.735
 2000W        W 6200  10.501  10.928   9.562
 2001W        W 6201   1.874   1.371  10.351
 2002W        W 6202   4.748   6.708   0.399
 2003W        W 6203   0.245   6.973   0.696
 2004W        W 6204  11.279   4.573   2.386
 2005W        W 6205  10.073   8.124   2.154
 2006W        W 6206   3.353   5.116   2.348
 2007W        W 6207  10.092   8.722   1.523
 2008W        W 6208   5.646  10.976   2.942
 2009W        W 6209  11.013  11.396   2.785
 2010W        W 6210  10.893  10.298   1.324
 2011W        W 6211   5.018  10.959  11.296
 2012W        W 6212   8.170   8.952   1.305
 2013W        W 6213   8.708   8.145   9.137
 2014W        W 6214   6.047   8.231   1.220
 2015W        W 6215   8.855   3.777   0.916
 2016W        W 6216   2.295   3.804  11.004
 2017W        W 6217   9.790   2.560   1.813
 2018W        W 6218   1.180   4.713   3.070
 2019W        W 6219   4.254   4.591   0.911
 2020W        W 6220   7.113  10.952   0.200
 2021W        W 6221   8.997  11.358   9.997
 2022W        W 6222  11.319   2.362   9.940
 2023W        W 6223   7.250   4.112   1.542
 2024W        W 6224   1.220   6.943   9.994
 2025W        W 6225   3.256   8.991   2.880
 2026W        W 6226   2.440   0.186   0.963
 2027W        W 6227   3.737   5.756   1.956
 2028W        W 6228  10.003   3.619   9.074
 2029W        W 6229   6.077   0.886   1.933
 2030W        W 6230  10.016   3.678  10.023
 2031W        W 6231   8.453  10.044   0.787
 2032W        W 6232   4.818   2.082   0.158
 2033W        W 6233   6.682   8.647   9.427
 2034W        W 6234   1.691   8.843   0.299
 2035W        W 6235   4.394   5.896   2.497
 2036W        W 6236  10.849   1.200   9.095
 2037W        W 6237  11.037   7.386   0.311
 2038W        W 6238  11.104   5.551   9.542
 2039W        W 6239   9.088   7.938  11.234
 2040W        W 6240   5.805   4.869   9.578
 2041W        W 6241   5.744   3.838   9.393
 2042W        W 6242   0.250   5.549   0.556
 2043W        W 6243   9.599   8.862   9.878
 2044W        W 6244   1.803   6.259   0.515
 2045W        W 6245   3.866   7.524  10.118
 2046W        W 6246   7.184   1.709   9.947
 2047W        W 6247   0.143   5.123   0.065
 2048W        W 6248   3.487   0.778   9.543
 2049W        W 6249   3.632   3.288   1.348
 2050W        W 6250  10.460  10.568   8.736
 2051W        W 6251   6.912   4.926  10.725
 2052W        W 6252   9.114   8.583   1.351
 2053W        W 6253   9.618   3.248   8.953
 2054W        W 6254   1.445   5.240  10.942
 2055W        W 6255   4.663   3.686   2.946
 2056W        W 6256   0.586   5.992  11.749
 2057W        W 6257   2.340   4.312  11.051
 2058W        W 6258   1.834   4.639   2.305
 2059W        W 6259   6.516   8.854   8.934
 2060W        W 6260   8.184   3.312  10.937
 2061W        W 6261   9.217   5.548  11.745
 2062W        W 6262   8.297   4.410   1.471
 2063W        W 6263   3.270   4.674  11.341
 2064W        W 6264   9.547   5.032  10.502
 2065W        W 6265   8.508   0.577   0.795
 2066W        W 6266   8.320   8.018   0.469
 2067W        W 6267   5.447   3.284   2.107
 2068W        W 6268   8.167  10.460   0.940
 2069W        W 6269   6.848   0.751  10.739
 2070W        W 6270   8.293   3.773   3.494
 2071W        W 6271   7.568  10.248   2.175
 2072W        W 6272   9.125   5.205   0.975
 2073W        W 6273   8.800  10.028   3.481
 2074W        W 6274   0.106   8.005   8.658
 2075W        W 6275   3.737   7.654   8.836
 2076W        W 6276   9.882   5.153   8.752
 2077W        W 6277   3.544  11.392   3.569
 2078W        W 6278   8.016   3.106  11.374
 2079W        W 6279  10.101   0.421   1.832
 2080W        W 6280   1.044   4.115   1.027
 2081W        W 6281   7.762  11.162  10.521
 2082W        W 6282   9.980   3.714  10.566
 2083W        W 6283   6.630   3.173   8.671
 2084W        W 6284   7.601   8.103   2.754
 2085W        W 6285   4.477   1.372  10.331
 2086W        W 6286   8.360   2.392   0.879
 2087W        W 6287   3.251  10.504   2.848
 2088W        W 6288   4.047   8.641  11.495
 2089W        W 6289  11.199   6.964   1.320
 2090W        W 6290  10.851   2.078   2.705
 2091W        W 6291   5.836   6.591   3.058
 2092W        W 6292   6.189   9.436   4.059
 2093W        W 6293   6.292  10.500   2.982
 2094W        W 6294   2.409   9.599   2.854
 2095W        W 6295   8.891   4.067   8.511
 2096W        W 6296   3.294   8.958  11.954
 2097W        W 6297   4.773   4.790  10.314
 2098W        W 6298   0.301   6.253   3.329
 2099W        W 6299   1.657   3.080   3.596
 2100W        W 6300   9.586   8.023  11.778
 2101W        W 6301   2.304   9.422   2.174
 2102W        W 6302   8.618   8.035  10.977
 2103W        W 6303   2.722   8.185   9.965
 2104W        W 6304   2.912   9.465   1.180
 2105W        W 6305   6.121   1.661   1.540
 2106W        W 6306   6.578   1.886   3.470
 2107W        W 6307  10.353   2.691   2.617
 2108W        W 6308   3.144   3.415   1.247
 2109W        W 6309   7.991   2.587  11.307
 2110W        W 6310   5.983   6.214  11.083
 2111W        W 6311   2.764   3.313   3.016
 2112W        W 6312   0.473  10.473   9.653
 2113W        W 6313  11.368   9.517   1.182
 2114W        W 6314   6.329   7.118  11.520
 2115W        W 6315   0.327   2.630   0.221
 2116W        W 6316   9.416   6.061   1.003
 2117W        W 6317   2.598   8.494   0.013
 2118W        W 6318   4.663   8.100   1.003
 2119W        W 6319   6.843   3.487   0.006
 2120W        W 6320   2.011   5.591   8.742
 2121W        W 6321  10.930   0.323  11.422
 2122W        W 6322   9.089   7.590  10.651
 2123W        W 6323   5.317   0.844   0.402
 2124W        W 6324   7.340  10.501   0.276
 2125W        W 6325  10.697   1.832  11.826
 2126W        W 6326   5.667   6.722   0.069
 2127W        W 6327   9.819   4.110   8.876
 2128W        W 6328   7.695   6.428   9.714
 2129W        W 6329   9.390   2.951   0.381
 2130W        W 6330   7.944   7.231  10.056
 2131W        W 6331   1.787   8.098   2.515
 2132W        W 6332   5.575   3.527  10.904
 2133W        W 6333   9.793   1.708   1.044
 2134W        W 6334   1.370   6.234   0.229
 2135W        W 6335   5.292   8.658   9.481
 2136W        W 6336   3.423   0.520   8.768
 2137W        W 6337   3.390   9.499   1.377
 2138W        W 6338   8.011   2.627   2.850
 2139W        W 6339   2.354   1.574   1.959
 2140W        W 6340   9.862   9.389  11.510
 2141W        W 6341   4.997   3.769   8.325
 2142W        W 6342   0.267   1.333   0.410
 2143W        W 6343   2.566   4.236   9.270
 2144W        W 6344   3.687   5.265   9.861
 2145W        W 6345   5.931   5.806  10.775
 2146W        W 6346   5.612   6.229   2.260
 2147W        W 6347   2.166   0.738   2.318
 2148W        W 6348   8.928   6.706   2.211
 2149W        W 6349   3.699   5.581  11.387
 2150W        W 6350   5.772   1.650  10.666
 2151W        W 6351   0.803   7.916   0.234
 2152W        W 6352  11.293   1.926   2.501
 2153W        W 6353   7.000   5.058   1.031
 2154W        W 6354  11.188   2.418  11.537
 2155W        W 6355   7.035   7.985   2.816
 2156W        W 6356   9.481   6.427   1.369
 2157W        W 6357   1.200   3.635   9.948
 2158W        W 6358   7.700   5.626   2.063
 2159W        W 6359   3.396   9.054   1.069
 2160W        W 6360   2.932   3.883   1.136
 2161W        W 6361   9.495   9.965   0.865
 2162W        W 6362   5.273   8.789   3.128
 2163W        W 6363   8.799   8.217   0.550
 2164W        W 6364   6.948   9.383   1.993
 2165W        W 6365   5.648   1.517   0.743
 2166W        W 6366   7.456   8.058   9.553
 2167W        W 6367   2.074  10.532   3.710
 2168W        W 6368   8.356   1.203   2.903
 2169W        W 6369   9.223   5.571   9.342
 2170W        W 6370  10.486   9.326   0.696
 2171W        W 6371   8.605   5.951   3.593
 2172W        W 6372   2.264   6.329  10.867
 2173W        W 6373   7.996   4.756   3.044
 2174W        W 6374   5.320   2.409   0.340
 2175W        W 6375   9.529   6.494   3.079
 2176W        W 6376  11.285   3.975   0.221
 2177W        W 6377  10.796   3.632   1.476
 2178W        W 6378   6.544   7.373  10.539
 2179W        W 6379   9.532  10.765  11.072
 2180W        W 6380   5.671   0.515   8.997
 2181W        W 6381   1.872   5.872  10.388
 2182W        W 6382   6.941   9.717   9.998
 2183W        W 6383   3.699   1.936   1.156
 2184W        W 6384   6.410   4.241  11.349
 2185W        W 6385   2.436  10.735   2.332
 2186W        W 6386   1.900   8.965   9.041
 2187W        W 6387   5.349   4.168   1.445
 2188W        W 6388   6.141   5.460   3.146
 2189W        W 6389  10.815  10.035  10.467
 2190W        W 6390   4.531   0.868   9.483
 2191W        W 6391   5.781   2.377   3.102
 2192W        W 6392   1.680   6.683  10.081
 2193W        W 6393   4.626   5.712   9.970
 2194W        W 6394   3.098   8.001   2.729
 2195W        W 6395   1.425  10.239   1.708
 2196W        W 6396   0.835   3.168   1.929
 2197W        W 6397   7.823   8.583   2.803
 2198W        W 6398   8.987   3.139  11.613
 2199W        W 6399  10.487   4.195   0.404
 2200W        W 6400   9.079   7.955  11.756
 2201W        W 6401  10.043   1.557   2.907
 2202W        W 6402   0.687   8.832   9.550
 2203W        W 6403   9.313   9.929   1.332
 2204W        W 6404   6.253   2.363   9.173
 2205W        W 6405   8.856   5.549   0.631
 2206W        W 6406  10.535   1.517   8.799
 2207W        W 6407   3.632  10.320   3.476
 2208W        W 6408   3.733   8.554   1.730
 2209W        W 6409   8.704   1.007  10.315
 2210W        W 6410   5.224   7.651   2.116
 2211W        W 6411   7.190  10.051  10.495
 2212W        W 6412  10.324   6.192   9.477
 2213W        W 6413   2.833   1.498   9.931
 2214W        W 6414  10.352   6.037   1.690
 2215W        W 6415  10.070   2.443   3.306
 2216W        W 6416   5.593   2.189  10.382
 2217W        W 6417   0.835   2.689  10.165
 2218W        W 6418   5.681   8.959   1.478
 2219W        W 6419   9.096   6.272   0.379
 2220W        W 6420  11.023   8.344  11.921
 2221W        W 6421  10.872   1.616  10.049
 2222W        W 6422  10.996   8.056   8.820
 2223W        W 6423   3.648   1.651  11.715
 2224W        W 6424  10.032  10.315  11.054
 2225W        W 6425  10.859   4.763   1.136
 2226W        W 6426   9.974   0.876   2.044
 2227W        W 6427   7.442   4.808   3.276
 2228W        W 6428   1.605   7.574   1.201
 2229W        W 6429   7.166   2.848   9.341
 2230W        W 6430  10.520  11.309   1.379
 2231W        W 6431   1.259   9.098   0.205
 2232W        W 6432   1.300   2.923  10.789
 2233W        W 6433   5.645   9.698  11.950
 2234W        W 6434   2.394  10.052   1.831
 2235W        W 6435   5.648  11.034  11.856
 2236W        W 6436   8.881   1.961  10.857
 2237W        W 6437   3.834   6.254   9.975
 2238W        W 6438   7.456   1.513   3.310
 2239W        W 6439   7.268   1.433   1.779
 2240W        W 6440  10.073   3.206   8.718
 2241W        W 6441   3.226   8.143  11.110
 2242W        W 6442   6.568   0.761   1.818
 2243W        W 6443   7.615   1.382   0.328
 2244W        W 6444   6.394   3.189   0.492
 2245W        W 6445   6.142   5.549   1.242
 2246W        W 6446   3.339   0.710  10.967
 2247W        W 6447   4.161   2.407   1.876
 2248W        W 6448   9.864   3.097   0.938
 2249W        W 6449   4.055  10.057   3.351
 2250W        W 6450   3.450   6.069  11.446
 2251W        W 6451   4.939   4.093   4.061
 2252W        W 6452   0.600   6.508   0.460
 2253W        W 6453   9.976   7.638   8.648
 2254W        W 6454   4.758   8.945   2.529
 2255W        W 6455   8.155   9.162  10.785
 2256W        W 6456   3.708   2.383   9.474
 2257W        W 6457   3.964   3.832   9.275
 2258W        W 6458   5.263   2.136   2.298
 2259W        W 6459   9.948   4.751   9.690
 2260W        W 6460   9.387  11.492   9.009
 2261W        W 6461   4.806  10.724   9.001
 2262W        W 6462   3.716   1.244  10.262
 2263W        W 6463   5.940   3.674   9.836
 2264W        W 6464   9.675   4.198   3.588
 2265W        W 6465   0.403   8.154  10.922
 2266W        W 6466   0.165   4.171  10.753
 2267W        W 6467   0.110   8.824   1.429
 2268W        W 6468   3.799   8.095   1.261
 2269W        W 6469   8.184  11.262   0.340
 2270W        W 6470   5.726  11.331   9.476
 2271W        W 6471   2.718   9.966   3.113
 2272W        W 6472  10.295   5.490  11.480
 2273W        W 6473   5.953   0.713   3.599
 2274W        W 6474   1.517   0.552  10.430
 2275W        W 6475   8.246  10.342   8.696
 2276W        W 6476   1.880   6.010   3.325
 2277W        W 6477   5.619   7.944   0.456
 2278W        W 6478   0.647   6.985  11.256
 2279W        W 6479   5.848   5.311   2.676
 2280W        W 6480   6.682   4.135  10.910
 2281W        W 6481   2.172   2.794  10.912
 2282W        W 6482   9.286  10.873   0.787
 2283W        W 6483   8.975   7.049   1.825
 2284W        W 6484   6.482   0.635  11.262
 2285W        W 6485   5.200   0.926  10.912
 2286W        W 6486   3.208   0.848   2.119
 2287W        W 6487   8.085   5.958  11.048
 2288W        W 6488   3.637   2.607   9.931
 2289W        W 6489   5.493   0.418   2.272
 2290W        W 6490   6.071   1.908  11.502
 2291W        W 6491   0.979   1.737   1.061
 2292W        W 6492  10.721   6.280  11.282
 2293W        W 6493   0.786   7.515   9.505
 2294W        W 6494   0.194   8.542   2.960
 2295W        W 6495   3.869   9.415   1.204
 2296W        W 6496   2.261   2.328  10.025
 2297W        W 6497   4.889   4.315   1.689
 2298W        W 6498   6.019   4.568   0.365
 2299W        W 6499  10.220   6.997   0.265
 2300W        W 6500   3.155   4.242   9.633
 2301W        W 6501   0.824   7.644   0.720
 2302W        W 6502   1.097   7.501   0.219
 2303W        W 6503   0.201   4.792   2.563
 2304W        W 6504   6.976   6.596  10.417
 2305W        W 6505   8.384   1.902   1.009
 2306W        W 6506   2.245   0.206   2.959
 2307W        W 6507   9.789   5.766   0.258
 2308W        W 6508   9.998  11.441   0.642
 2309W        W 6509   5.089   0.216  11.729
 2310W        W 6510   1.460   3.007  10.289
 2311W        W 6511   7.635  11.208   3.415
 2312W        W 6512   3.151   9.976   1.345
 2313W        W 6513  10.473  11.055   2.882
 2314W        W 6514   4.012   5.039   1.027
 2315W        W 6515   9.441  11.036   2.333
 2316W        W 6516   2.811   6.763  11.361
 2317W        W 6517   4.405   0.719   1.369
 2318W        W 6518  10.005   5.681  10.834
 2319W        W 6519   0.772   6.567   2.278
 2320W        W 6520   5.636   8.524   2.317
 2321W        W 6521   4.147   9.398  11.860
 2322W        W 6522   2.843   1.851  10.814
 2323W        W 6523   1.914   2.586   1.338
 2324W        W 6524   2.851   2.614   1.279
 2325W        W 6525   2.813   2.830  10.314
 2326W        W 6526  11.369   5.647   9.099
 2327W        W 6527  10.334  10.979   0.948
 2328W        W 6528   1.819   4.615   9.410
 2329W        W 6529  10.846   1.377   0.509
 2330W        W 6530   4.438   7.133   3.108
 2331W        W 6531   4.181   0.281   9.266
 2332W        W 6532   9.043   4.921   3.256
 2333W        W 6533  10.496   8.945   2.428
 2334W        W 6534   8.495   0.738   2.669
 2335W        W 6535   8.181   5.644   2.203
 2336W        W 6536  10.666   0.796   2.965
 2337W        W 6537  10.387   6.130   1.155
 2338W        W 6538   0.989   7.941  10.428
 2339W        W 6539   8.606   6.489  11.170
 2340W        W 6540   0.546   1.014  10.884
 2341W        W 6541   6.007   2.366   9.603
 2342W        W 6542   6.465   8.601  11.502
 2343W        W 6543   3.160  10.706   2.394
 2344W        W 6544  10.840   6.572  10.202
 2345W        W 6545   6.071   7.847   2.743
 2346W        W 6546   0.873   4.052  10.082
 2347W        W 6547   9.421   5.260   8.560
 2348W        W 6548   7.718  11.277   1.241
 2349W        W 6549   6.351  10.751   0.316
 2350W        W 6550   7.864   5.036   3.478
 2351W        W 6551   2.939   7.280  11.284
 2352W        W 6552   9.144   1.820   9.897
 2353W        W 6553   3.643  10.415  10.856
 2354W        W 6554   0.461  10.276   2.820
 2355W        W 6555   0.094   3.720  10.371
 2356W        W 6556   4.675  10.902  10.350
 2357W        W 6557   1.816   1.811  10.602
 2358W        W 6558   1.969   1.842   0.914
 2359W        W 6559   9.238   7.022   0.098
 2360W        W 6560   3.224   9.104  10.043
 2361W        W 6561   5.198   8.868   1.678
 2362W        W 6562   3.160  10.331   9.535
 2363W        W 6563   1.198   6.318   1.237
 2364W        W 6564  11.170   3.389   3.464
 2365W        W 6565   3.386   3.891   0.376
 2366W        W 6566   0.039   2.461   9.024
 2367W        W 6567   0.220   9.769  10.399
 2368W        W 6568   2.133   1.334   8.977
 2369W        W 6569   7.768  10.493   8.795
 2370W        W 6570   7.851   4.035   0.636
 2371W        W 6571  11.180   6.166  10.068
 2372W        W 6572   5.236   1.263   2.181
 2373W        W 6573   9.734   7.589   0.060
 2374W        W 6574   2.678   5.500   0.271
 2375W        W 6575   7.336   3.266   2.867
 2376W        W 6576   5.240   9.004   2.263
 2377W        W 6577   2.848   5.391   4.059
 2378W        W 6578   7.144   8.607   3.948
 2379W        W 6579   3.869   4.203   1.685
 2380W        W 6580  10.338   8.558   2.145
 2381W        W 6581   0.367   9.282   0.311
 2382W        W 6582  11.435   2.237   1.382
 2383W        W 6583   7.591   4.325   0.277
 2384W        W 6584   2.285   1.321   1.511
 2385W        W 6585   3.670   6.736   1.142
 2386W        W 6586   1.162  10.985   8.555
 2387W        W 6587   9.471   2.973   9.395
 2388W        W 6588   1.405  10.433   0.025
 2389W        W 6589   4.271   3.633   2.396
 2390W        W 6590   0.461   5.043  10.596
 2391W        W 6591   3.228   7.363  10.398
 2392W        W 6592   4.113   5.593   9.757
 2393W        W 6593  10.401   5.902   9.881
 2394W        W 6594   2.604   5.073   1.266
 2395W        W 6595   0.859   6.647   9.016
 2396W        W 6596   4.432   3.654  11.433
 2397W        W 6597   2.361   6.630   2.751
 2398W        W 6598   1.628   7.457   0.277
 2399W        W 6599   2.340   9.391   0.266
 2400W        W 6600   0.866   3.540   2.314
 2401W        W 6601   8.167   6.070   2.498
 2402W        W 6602   7.663  10.091   2.667
 2403W        W 6603   6.418   5.158   2.238
 2404W        W 6604   7.147   4.867   1.957
 2405W        W 6605   1.578   7.013   2.725
 2406W        W 6606   4.194   1.724   2.688
 2407W        W 6607   3.657  10.779  11.243
 2408W        W 6608   1.557   2.287   2.266
 2409W        W 6609   6.461   0.670  10.194
 2410W        W 6610   4.642   9.907   1.373
 2411W        W 6611   5.474   9.184   8.588
 2412W        W 6612   0.883   6.672   9.528
 2413W        W 6613   9.536  10.165   3.298
 2414W        W 6614   1.354   4.388  11.741
 2415W        W 6615   1.054   5.909  11.969
 2416W        W 6616   0.551   1.419   2.493
 2417W        W 6617   8.521   9.608   9.216
 2418W        W 6618   7.180   4.535   2.356
 2419W        W 6619   0.965   1.191   9.998
 2420W        W 6620   5.146   2.931   1.223
 2421W        W 6621   0.413   7.900   1.123
 2422W        W 6622   9.464   9.679  10.360
 2423W        W 6623   9.103  11.330   2.741
 2424W        W 6624  10.640   8.084   1.992
 2425W        W 6625   9.431   7.633   2.287
 2426W        W 6626   9.572   8.348   8.990
 2427W        W 6627  10.784  10.175   2.662
 2428W        W 6628   3.360   0.498   1.012
 2429W        W 6629   7.222   8.043  11.449
 2430W        W 6630   7.549   2.755   3.578
 2431W        W 6631   8.375  10.673  10.358
 2432W        W 6632   9.530   2.433   1.369
 2433W        W 6633   5.459  10.662   3.319
 2434W        W 6634  11.376   2.867   9.844
 2435W        W 6635   5.207   2.884   1.818
 2436W        W 6636   7.068   9.028   3.211
 2437W        W 6637  11.408   3.307  11.086
 2438W        W 6638   4.646   2.728   2.487
 2439W        W 6639   6.427   0.866   9.398
 2440W        W 6640   0.780  10.252   1.390
 2441W        W 6641   8.639   4.876   8.572
 2442W        W 6642   2.333   1.183   3.304
 2443W        W 6643  10.286   3.379   0.976
 2444W        W 6644   2.606   8.857   0.428
 2445W        W 6645   5.523   8.955  10.353
 2446W        W 6646   6.590   4.283   1.286
 2447W        W 6647  10.901   6.244   3.020
 2448W        W 6648   8.426   3.783  11.939
 2449W        W 6649   8.934   0.405   0.207
 2450W        W 6650   4.611   3.021   1.192
 2451W        W 6651   9.293   2.222   0.943
 2452W        W 6652   1.976   9.543   1.808
 2453W        W 6653   1.022   9.061   9.215
 2454W        W 6654   4.798   8.067  10.168
 2455W        W 6655   2.367   5.027  11.406
 2456W        W 6656   1.000   2.762   1.624
 2457W        W 6657   4.306   6.075   9.782
 2458W        W 6658   0.558   2.669   1.891
 2459W        W 6659   9.489   3.964   2.646
 2460W        W 6660   3.875   3.787  11.421
 2461W        W 6661   2.235   7.962   2.316
 2462W        W 6662   0.270   4.914  11.194
 2463W        W 6663   8.397   6.979  11.508
 2464W        W 6664   3.440   3.919   9.320
 2465W        W 6665   0.974   3.714  11.737
 2466W        W 6666   8.134   8.183  11.042
 2467W        W 6667   6.541   9.921  11.329
 2468W        W 6668   1.103   1.834   2.704
 2469W        W 6669  10.146  10.938   9.928
 2470W        W 6670   2.712   4.138   8.800
 2471W        W 6671   0.640   8.081   8.662
 2472W        W 6672   4.957   3.361   1.421
 2473W        W 6673   9.791   3.622   8.586
 2474W        W 6674   5.991   8.494  11.351
 2475W        W 6675   5.187   9.316  10.485
 2476W        W 6676  11.084   5.924  10.508
 2477W        W 6677  10.880  10.239  11.373
 2478W        W 6678   4.356   4.315   1.732
 2479W        W 6679   1.307   1.408   1.272
 2480W        W 6680   6.492   3.441   2.716
 2481W        W 6681   7.462  10.076   1.688
 2482W        W 6682  10.006   7.445   9.145
 2483W        W 6683   4.143   3.422   1.929
 2484W        W 6684   6.901   2.047   0.165
 2485W        W 6685   6.263   2.685   0.262
 2486W        W 6686  11.366   6.097  10.893
 2487W        W 6687   2.604   3.884  11.441
 2488W        W 6688   1.721   1.280   9.292
 2489W        W 6689   8.909   2.835   1.302
 2490W        W 6690   6.581   1.819   1.367
 2491W        W 6691   2.900   6.618   2.692
 2492W        W 6692   8.456   4.527  11.575
 2493W        W 6693   0.297   4.621   0.320
 2494W        W 6694   1.855  11.194   9.089
 2495W        W 6695   0.489   4.326  11.958
 2496W        W 6696  10.701   2.254  11.516
 2497W        W 6697   8.355   7.265  11.959
 2498W        W 6698   2.721   1.755   9.490
 2499W        W 6699   6.241   3.028  10.326
 2500W        W 6700   9.999   8.107   3.244
 2501W        W 6701   2.852   2.268  11.104
 2502W        W 6702   9.208  11.394   9.520
 2503W        W 6703   2.680   3.807   3.230
 2504W        W 6704   6.650   8.638   2.129
 2505W        W 6705   1.901   1.621   1.386
 2506W        W 6706   7.132  11.148  10.912
 2507W        W 6707   4.198   3.043  11.976
 2508W        W 6708   1.649  10.732   1.411
 2509W        W 6709   4.786   8.849  10.990
 2510W        W 6710   3.208   5.117  11.581
 2511W        W 6711   5.682  10.484   0.711
 2512W        W 6712   6.485   3.846  11.885
 2513W        W 6713   3.499   4.972   3.629
 2514W        W 6714   2.225  10.729   2.810
 2515W        W 6715   4.758   2.415  11.761
 2516W        W 6716   3.109   8.398   0.354
 2517W        W 6717   0.768   6.596   1.311
 2518W        W 6718  10.036  11.321   1.193
 2519W        W 6719   7.590   2.853  10.526
 2520W        W 6720   7.949  10.278   1.841
 2521W        W 6721   5.448   1.412   1.206
 2522W        W 6722   1.011   6.876   2.605
 2523W        W 6723   3.135   2.734  10.952
 2524W        W 6724   3.071   4.250  10.596
 2525W        W 6725   5.570   1.863   3.633
 2526W        W 6726  10.026   6.651   2.709
 2527W        W 6727   6.648   9.939   1.311
 2528W        W 6728   8.227   7.644  10.226
 2529W        W 6729   4.307  10.148  11.326
 2530W        W 6730   3.544   0.947   1.183
 2531W        W 6731  10.782   1.418   1.927
 2532W        W 6732   3.303   5.748   9.551
 2533W        W 6733   0.978   3.670   0.266
 2534W        W 6734   2.953   1.773   1.023
 2535W        W 6735  10.044   2.825  10.602
 2536W        W 6736   7.082   9.018   2.711
 2537W        W 6737   8.496   6.252  11.929
 2538W        W 6738   2.451   0.247   0.442
 2539W        W 6739  11.250   3.603   1.777
 2540W        W 6740  10.271   9.414   9.804
 2541W        W 6741   7.483   6.684  11.819
 2542W        W 6742   5.477   7.215   8.520
 2543W        W 6743   3.619   4.457  10.715
 2544W        W 6744   0.912   3.277   1.439
 2545W        W 6745   6.281   3.283   3.729
 2546W        W 6746   1.419   1.389  10.132
 2547W        W 6747  10.206   7.104  11.270
 2548W        W 6748   6.690   9.156   9.346
 2549W        W 6749   3.122  10.476  10.850
 2550W        W 6750   2.665   1.920   3.248
 2551W        W 6751   3.692   2.625  10.773
 2552W        W 6752   9.482   4.621  10.008
 2553W        W 6753   8.111   0.874   1.490
 2554W        W 6754   2.400   6.583  10.379
 2555W        W 6755   5.835   6.099   9.152
 2556W        W 6756   0.893   6.026   1.520
 2557W        W 6757   6.974   5.253  11.554
 2558W        W 6758  10.012   2.242   9.931
 2559W        W 6759   3.357   6.991   2.381
 2560W        W 6760   4.609   0.237   1.388
 2561W        W 6761  11.024   0.539   1.989
 2562W        W 6762  10.440   9.954   1.916
 2563W        W 6763   6.458   5.233  11.457
 2564W        W 6764   5.933  11.463  11.761
 2565W        W 6765   9.539   0.134  10.787
 2566W        W 6766   1.250   8.419   1.933
 2567W        W 6767   6.418   4.901   9.708
 2568W        W 6768   5.027   9.046   0.256
 2569W        W 6769  11.211   3.987   1.420
 2570W        W 6770  10.033   6.290   3.096
 2571W        W 6771   1.105   7.122  11.396
 2572W        W 6772   8.678  10.038   0.242
 2573W        W 6773   7.582   2.981   1.191
 2574W        W 6774   2.626   4.614   9.631
 2575W        W 6775   8.299  11.006   9.645
 2576W        W 6776   0.258   7.002   8.542
 2577W        W 6777   7.496   1.207  10.925
 2578W        W 6778   5.331  10.625  11.617
 2579W        W 6779  10.946   0.971   1.721
 2580W        W 6780  10.559   3.507  11.232
 2581W        W 6781   6.896   3.705   0.789
 2582W        W 6782   8.140   2.992   8.721
 2583W        W 6783   1.895   8.829   1.317
 2584W        W 6784   1.709   0.681   1.244
 2585W        W 6785   2.699   9.422   2.481
 2586W        W 6786  10.846   2.744   8.972
 2587W        W 6787   1.219   5.731  11.485
 2588W        W 6788   4.989   5.300   1.001
 2589W        W 6789  10.775   6.241   9.781
 2590W        W 6790  10.751   5.126  10.852
 2591W        W 6791   0.616   9.480  11.475
 2592W        W 6792   7.658   6.125   2.396
 2593W        W 6793   1.407   7.136   1.450
 2594W        W 6794   5.634   2.195  11.422
 2595W        W 6795   5.789  11.139   9.941
 2596W        W 6796   0.326   0.989   2.360
 2597W        W 6797   6.056   5.700  11.250
 2598W        W 6798   0.774   1.518   3.326
 2599W        W 6799   6.707   1.730   2.997
 2600W        W 6800   8.659   6.106   2.736
 2601W        W 6801   4.081   5.140   9.542
 2602W        W 6802   0.003   2.394  11.050
 2603W        W 6803  11.456   4.584  10.973
 2604W        W 6804   1.390   3.249   1.225
 2605W        W 6805   9.418  10.617   9.553
 2606W        W 6806   1.925   4.419   0.931
 2607W        W 6807   8.523   0.301   3.399
 2608W        W 6808   4.931   7.654   9.350
 2609W        W 6809   5.283   2.795   9.823
 2610W        W 6810   8.579   2.338  11.750
 2611W        W 6811   5.793   8.763   8.624
 2612W        W 6812   6.950   2.640   2.133
 2613W        W 6813   4.714   9.393   2.743
 2614W        W 6814   8.949   6.383   3.694
 2615W        W 6815   2.769   8.997  11.938
 2616W        W 6816  10.533   7.475   0.387
 2617W        W 6817   3.064   6.510   9.935
 2618W        W 6818  10.770   4.731   3.108
 2619W        W 6819   0.359  10.134  11.779
 2620W        W 6820   7.539   4.192   8.756
 2621W        W 6821   1.380   3.645   1.549
 2622W        W 6822  10.953   4.396   0.199
 2623W        W 6823   1.183  10.555   1.387
 2624W        W 6824   6.545   6.149   9.685
 2625W        W 6825   3.611   1.199   8.732
 2626W        W 6826   3.340   1.009  11.844
 2627W        W 6827  10.415   6.688   0.995
 2628W        W 6828   2.100   3.222   0.402
 2629W        W 6829   9.013   4.771   2.752
 2630W        W 6830   2.473   9.423   9.655
 2631W        W 6831   1.711   8.356   0.074
 2632W        W 6832   1.222   7.356   9.699
 2633W        W 6833   0.313   5.773   3.167
 2634W        W 6834  10.923   4.832   2.121
 2635W        W 6835   3.507  10.707   0.699
 2636W        W 6836   6.636   6.228   8.770
 2637W        W 6837   1.515   2.231  11.962
 2638W        W 6838   3.844   2.324   1.465
 2639W        W 6839   8.427   5.567  11.313
 2640W        W 6840   7.907   3.602  11.831
 2641W        W 6841   7.991  11.489  10.195
 2642W        W 6842   0.247   0.934   3.361
 2643W        W 6843   6.730   3.094   0.921
 2644W        W 6844   9.871  10.391   3.004
 2645W        W 6845  11.009   0.363   9.469
 2646W        W 6846   2.106   6.903   3.633
 2647W        W 6847   6.442   9.082   0.900
 2648W        W 6848   5.605   5.584  11.477
 2649W        W 6849   8.142   1.772   1.467
 2650W        W 6850   4.688   4.592   9.425
 2651W        W 6851   7.602   9.394  11.776
 2652W        W 6852   8.725   6.850   3.581
 2653W        W 6853   5.702   0.450   0.898
 2654W        W 6854  10.494   5.063   2.786
 2655W        W 6855   0.516   2.111   0.171
 2656W        W 6856   1.455   6.157  10.529
 2657W        W 6857   0.380   0.821   1.884
 2658W        W 6858   5.463   2.888   0.454
 2659W        W 6859   6.183   1.340   0.232
 2660W        W 6860   7.095   3.533  10.408
 2661W        W 6861   6.092   6.126   3.124
 2662W        W 6862   5.010   2.792   0.239
 2663W        W 6863  10.885   0.463  11.921
 2664W        W 6864  10.379   5.184   0.155
 2665W        W 6865   6.363   6.042   0.360
 2666W        W 6866  11.125   3.950  10.395
 2667W        W 6867   5.591   8.068   2.630
 2668W        W 6868   5.932   8.068   2.252
 2669W        W 6869   4.046   5.990  12.001
 2670W        W 6870   1.828   6.903  11.967
 2671W        W 6871  11.157   6.370   0.369
 2672W        W 6872   6.787   2.180   1.966
 2673W        W 6873   1.064   0.796  11.855
 2674W        W 6874   8.210   7.173  10.502
 2675W        W 6875   1.731   2.242  10.864
 2676W        W 6876   6.224   9.947   2.257
 2677W        W 6877   9.082   0.893   9.996
 2678W        W 6878   6.895   9.111  10.322
 2679W        W 6879   6.784   0.740   2.283
 2680W        W 6880   9.966   4.205  11.387
 2681W        W 6881   9.936   6.698   1.734
 2682W        W 6882   8.536  10.905  11.257
 2683W        W 6883   7.228   4.673   4.134
 2684W        W 6884  10.896   2.136  10.165
 2685W        W 6885   9.292   4.135  10.138
 2686W        W 6886   3.814   6.631   1.643
 2687W        W 6887   5.621   1.795  11.738
 2688W        W 6888   4.347   6.976   9.737
 2689W        W 6889   2.964  11.409   1.730
 2690W        W 6890   8.485   8.896  10.426
 2691W        W 6891   3.887  11.076  11.670
 2692W        W 6892   6.535   7.879  11.864
 2693W        W 6893   4.199   2.209  11.473
 2694W        W 6894   8.081   3.812  10.911
 2695W        W 6895   5.712   2.908   1.870
 2696W        W 6896   6.429   7.800   1.080
 2697W        W 6897   8.705   5.134  11.130
 2698W        W 6898   0.727   5.572   2.502
 2699W        W 6899   3.645   0.520  11.355
 2700W        W 6900   4.956  11.034  10.773
 2701W        W 6901   2.890   8.937   0.904
 2702W        W 6902   8.040   2.693  10.298
 2703W        W 6903   7.107   0.773   0.946
 2704W        W 6904   4.741   7.160   2.685
 2705W        W 6905   6.714   3.685   2.225
 2706W        W 6906  10.089   1.498  10.768
 2707W        W 6907   4.547   9.928   3.509
 2708W        W 6908   8.882   5.625   2.642
 2709W        W 6909   8.224   4.246   3.241
 2710W        W 6910   1.762   6.536  11.025
 2711W        W 6911   0.778   1.842   2.329
 2712W        W 6912   1.305   7.538  10.521
 2713W        W 6913   8.818   7.091  11.799
 2714W        W 6914   0.009   3.762   2.238
 2715W        W 6915   4.716   6.655   1.424
 2716W        W 6916   7.492   4.087   2.880
 2717W        W 6917   7.788  10.684  11.094
 2718W        W 6918   7.920   7.697   1.274
 2719W        W 6919   0.782   6.443  10.529
 2720W        W 6920   7.534   4.657   9.950
 2721W        W 6921   6.518   0.890   3.250
 2722W        W 6922   6.094   5.598   0.274
 2723W        W 6923   9.063   6.708   3.200
 2724W        W 6924   5.450   8.901   1.007
 2725W        W 6925   5.519  10.923  11.238
 2726W        W 6926   6.545  10.940   1.425
 2727W        W 6927   9.045   9.947   9.612
 2728W        W 6928   2.870   6.061   3.305
 2729W        W 6929   3.219   5.550  10.067
 2730W        W 6930   8.432   5.948   9.616
 2731W        W 6931   2.168   5.602   3.485
 2732W        W 6932   5.052   3.792   1.170
 2733W        W 6933   5.584   9.314   9.374
 2734W        W 6934   7.568  10.005   0.401
 2735W        W 6935  10.589   4.514   8.943
 2736W        W 6936   2.677   8.918   1.775
 2737W        W 6937   2.797   7.685  11.684
 2738W        W 6938  11.271  11.465  10.301
 2739W        W 6939   7.552  10.569   1.707
 2740W        W 6940   0.433   9.155   2.228
 2741W        W 6941   4.767  10.212  11.015
 2742W        W 6942   1.880   0.061  11.511
 2743W        W 6943   9.025   6.712  10.964
 2744W        W 6944   3.805   2.722   0.118
 2745W        W 6945   7.879   9.783   1.750
 2746W        W 6946  10.245   5.016  11.665
 2747W        W 6947  11.035   2.944   3.116
 2748W        W 6948   7.104   8.714  10.039
 2749W        W 6949  10.341   7.679   2.089
 2750W        W 6950   6.956   1.270  10.039
 2751W        W 6951   9.121   0.367   2.201
 2752W        W 6952   4.772  11.357   3.311
 2753W        W 6953   8.895   3.549  10.347
 2754W        W 6954  11.498   8.017   1.385
 2755W        W 6955   7.416   7.241   3.110
 2756W        W 6956   5.249  10.790   0.638
 2757W        W 6957  10.682   7.130  11.420
 2758W        W 6958   1.742   9.841   0.542
 2759W        W 6959   2.207   1.867  10.278
 2760W        W 6960   8.457   7.660   1.851
 2761W        W 6961   8.416   4.194  10.756
 2762W        W 6962   2.134   9.843   1.418
 2763W        W 6963   5.061   7.780   0.406
 2764W        W 6964   3.163  11.412  10.629
 2765W        W 6965   5.287   6.927   9.958
 2766W        W 6966   8.651   5.857   1.374
 2767W        W 6967   1.813   8.614  11.338
 2768W        W 6968   1.885   9.388   1.249
 2769W        W 6969   7.543   9.180   9.447
 2770W        W 6970   2.367   6.986   3.180
 2771W        W 6971   1.912   9.007   3.338
 2772W        W 6972   0.848   9.067   2.539
 2773W        W 6973   2.621  11.364  10.889
 2774W        W 6974   6.213  10.432  11.357
 2775W        W 6975   1.241  11.470   1.306
 2776W        W 6976   8.003   7.611   8.850
 2777W        W 6977   6.535   6.698  11.715
 2778W        W 6978   4.245   3.897   8.806
 2779W        W 6979   2.686  10.174  11.976
 2780W        W 6980   6.811   6.557   2.514
 2781W        W 6981   1.109   7.113   1.870
 2782W        W 6982   0.722   8.336   9.385
 2783W        W 6983   7.512   2.549   0.701
 2784W        W 6984   3.533  10.008   9.692
 2785W        W 6985   9.804   1.478   3.350
 2786W        W 6986   9.044   6.167   1.362
 2787W        W 6987   7.650   4.269   2.424
 2788W        W 6988   5.627   5.672   0.485
 2789W        W 6989   2.647   5.061   8.898
 2790W        W 6990  10.122  11.301   2.577
 2791W        W 6991   4.769   0.665   9.903
 2792W        W 6992   1.304   4.399  10.204
 2793W        W 6993   1.320   1.789   9.811
 2794W        W 6994   3.937   8.102   3.041
 2795W        W 6995   3.956   6.463   2.670
 2796W        W 6996  11.293   8.565   9.518
 2797W        W 6997   2.180   7.698   1.871
 2798W        W 6998   5.674   4.296  10.253
 2799W        W 6999   5.210  10.735   8.706
 2800W        W 7000  11.280   2.839  11.235
 2801W        W 7001  10.930   8.462   9.151
 2802W        W 7002   2.516   5.520   8.712
 2803W        W 7003   0.181   9.131  10.850
 2804W        W 7004   8.927   5.668   8.922
 2805W        W 7005   2.712   9.455   3.245
 2806W        W 7006   5.790   8.882  11.010
 2807W        W 7007   0.386   8.937   0.810
 2808W        W 7008   8.555   9.788  10.307
 2809W        W 7009   4.540   3.977  11.803
 2810W        W 7010   6.834   2.285  11.115
 2811W        W 7011   0.345   4.025   9.889
 2812W        W 7012   4.201   0.424   0.031
 2813W        W 7013   4.912   2.806  11.419
 2814W        W 7014   1.778   0.943  10.650
 2815W        W 7015   6.018   5.111   9.994
 2816W        W 7016   9.547   9.875   2.419
 2817W        W 7017  11.477   0.369   1.659
 2818W        W 7018   8.897   1.754   2.183
 2819W        W 7019  11.059   0.045   1.725
 2820W        W 7020   2.855   8.525  11.086
 2821W        W 7021   6.530   3.635  10.876
 2822W        W 7022  10.322   9.172  11.331
 2823W        W 7023   3.873   1.395   3.411
 2824W        W 7024   5.209   4.122  11.906
 2825W        W 7025   1.892   1.972   3.049
 2826W        W 7026   3.278   8.608  11.355
 2827W        W 7027   6.691   6.679   3.636
 2828W        W 7028   2.733   0.012   2.286
 2829W        W 7029   1.106   5.421   0.761
 2830W        W 7030   9.977   1.187  10.321
 2831W        W 7031   2.876   5.893  10.360
 2832W        W 7032   4.856   9.535   0.219
 2833W        W 7033   6.233   5.836   9.400
 2834W        W 7034   5.541   1.930   9.545
 2835W        W 7035   0.450   0.959   1.367
 2836W        W 7036   9.081   5.061   4.271
 2837W        W 7037   6.745   2.597   4.009
 2838W        W 7038   3.243   0.496   2.832
 2839W        W 7039   0.240   2.158   2.827
 2840W        W 7040   6.450  11.168   0.969
 2841W        W 7041   4.509   8.604   0.229
 2842W        W 7042   8.132  10.040   9.116
 2843W        W 7043   0.886  11.051   3.758
 2844W        W 7044  10.043  10.345  11.832
 2845W        W 7045   2.676   8.153   2.932
 2846W        W 7046   9.942   6.238   1.469
 2847W        W 7047   3.210   9.231   2.411
 2848W        W 7048   8.343   0.798   9.002
 2849W        W 7049   0.034   0.667   1.188
 2850W        W 7050   5.232  10.130  10.807
 2851W        W 7051   8.914   9.511   0.405
 2852W        W 7052   9.338   2.261  10.105
 2853W        W 7053   5.633   7.053   9.022
 2854W        W 7054   6.568   9.522   2.796
 2855W        W 7055   8.465   9.021   1.738
 2856W        W 7056   4.587   9.742  10.993
 2857W        W 7057   4.381   9.569  11.445
 2858W        W 7058   4.169  10.053   0.527
 2859W        W 7059   7.943  10.065   0.733
 2860W        W 7060   4.320   1.435  11.033
 2861W        W 7061   8.987   0.668   9.525
 2862W        W 7062   7.581  10.385   1.236
 2863W        W 7063   0.446   9.914   9.503
 2864W        W 7064  10.819   0.220   1.281
 2865W        W 7065   2.762   7.376  10.194
 2866W        W 7066   9.907   6.521   0.283
 2867W        W 7067  10.359   1.318   9.241
 2868W        W 7068   8.376   5.038  11.504
 2869W        W 7069   7.416   0.959   9.173
 2870W        W 7070   8.752   7.553  11.050
 2871W        W 7071   0.749   2.314   9.663
 2872W        W 7072   2.181   9.149   2.918
 2873W        W 7073   8.481   3.206   8.392
 2874W        W 7074   0.294   1.728  10.064
 2875W        W 7075   8.333   4.115   0.493
 2876W        W 7076   6.269   5.743   0.780
 2877W        W 7077   6.084   0.984   8.993
 2878W        W 7078   6.059   7.448   9.788
 2879W        W 7079   2.327   0.244  11.350
 2880W        W 7080   4.328   6.819   2.681
 2881W        W 7081   2.082   7.881   1.052
 2882W        W 7082   8.041   9.257   9.564
 2883W        W 7083   7.623   6.708  11.328
 2884W        W 7084  10.856  11.431   0.230
 2885W        W 7085   2.225   7.482   3.066
 2886W        W 7086   2.409   5.277   2.176
 2887W        W 7087   3.292   4.715   8.955
 2888W        W 7088   2.161   2.894   9.330
 2889W        W 7089  10.500   9.899   3.466
 2890W        W 7090   8.865   0.634   9.012
 2891W        W 7091   3.456  10.943   3.857
 2892W        W 7092   0.123   1.449   2.220
 2893W        W 7093   6.806   7.953  11.170
 2894W        W 7094   2.695  10.680  10.424
 2895W        W 7095   4.592   4.026   2.548
 2896W        W 7096   8.157   3.652   0.346
 2897W        W 7097   2.372   7.559   0.679
 2898W        W 7098   6.467   9.393  10.403
 2899W        W 7099   4.100   6.418  11.238
 2900W        W 7100  10.945   5.363  11.339
 2901W        W 7101   0.892   6.710  11.611
 2902W        W 7102   0.267   0.418   9.950
 2903W        W 7103   7.152  11.335   3.534
 2904W        W 7104   5.947   8.039  10.995
 2905W        W 7105   7.413   9.589   1.842
 2906W        W 7106   5.674  11.359   1.329
 2907W        W 7107   7.950   3.671  10.434
 2908W        W 7108   2.262   1.162   2.787
 2909W        W 7109   0.061   4.174   2.566
 2910W        W 7110   4.080   3.407   8.849
 2911W        W 7111   9.423   6.562   3.576
 2912W        W 7112   5.328  11.306   1.729
 2913W        W 7113   9.027   2.292   1.370
 2914W        W 7114   8.952   9.025   1.552
 2915W        W 7115   9.904   0.437   2.320
 2916W        W 7116   0.345   9.251   1.210
 2917W        W 7117   0.692   9.523   1.956
 2918W        W 7118   5.111   9.595   8.547
 2919W        W 7119   0.354   8.066   3.155
 2920W        W 7120   8.035   9.509   2.462
 2921W        W 7121  11.456  11.383   2.519
 2922W        W 7122   7.114   2.956   4.096
 2923W        W 7123   4.843  10.833   9.873
 2924W        W 7124   6.437   2.359  10.811
 2925W        W 7125   5.201   6.923   3.586
 2926W        W 7126   4.086  11.062  11.182
 2927W        W 7127   2.724  11.039   2.025
 2928W        W 7128  10.613   0.472   0.889
 2929W        W 7129   5.223   2.626   0.824
 2930W        W 7130   0.218   6.969   1.254
 2931W        W 7131   0.593   1.761   2.874
 2932W        W 7132   0.890   7.669   9.999
 2933W        W 7133   1.566   2.154  10.304
 2934W        W 7134   0.163   9.577   2.061
 2935W        W 7135   2.883   2.123   0.058
 2936W        W 7136   8.428   6.762  11.982
 2937W        W 7137  10.618   8.579  10.481
 2938W        W 7138   1.864   9.333  11.827
 2939W        W 7139   6.303  10.471  11.879
 2940W        W 7140   0.343   3.397   2.375
 2941W        W 7141   7.276   2.410  11.349
 2942W        W 7142   3.341   5.710   2.836
 2943W        W 7143   3.562   4.344   3.049
 2944W        W 7144  11.107   0.887  10.951
 2945W        W 7145   3.220   5.191   2.845
 2946W        W 7146   0.829   9.495  10.299
 2947W        W 7147  10.375   0.438   0.015
 2948W        W 7148   5.078  10.153   2.605
 2949W        W 7149   9.563   5.019   2.674
 2950W        W 7150   9.499   6.936   8.665
 2951W        W 7151   2.674   1.983   1.864
 2952W        W 7152   3.865   1.445   9.464
 2953W        W 7153  10.892   5.681   0.736
 2954W        W 7154   3.957  11.302   9.989
 2955W        W 7155   2.664  10.242  10.740
 2956W        W 7156   0.317   5.224   3.204
 2957W        W 7157   7.566   3.350  10.503
 2958W        W 7158   9.872   9.624   9.553
 2959W        W 7159   5.158   9.327   9.000
 2960W        W 7160   5.522   6.322  11.828
 2961W        W 7161   1.225   3.234   0.186
 2962W        W 7162   5.972   1.747   2.375
 2963W        W 7163   0.883  10.354   1.876
 2964W        W 7164   3.795   1.239   2.412
 2965W        W 7165   9.370   2.785   1.042
 2966W        W 7166   7.417   5.013   3.764
 2967W        W 7167   5.055   6.080   0.510
 2968W        W 7168   4.907  10.131   1.742
 2969W        W 7169   9.372   8.132   1.369
 2970W        W 7170   7.944   9.075   9.097
 2971W        W 7171   3.856   5.511   0.248
 2972W        W 7172   1.712   3.153  10.948
 2973W        W 7173   8.945   8.834   0.265
 2974W        W 7174   2.907  10.285   9.101
 2975W        W 7175   9.088   1.504   2.605
 2976W        W 7176   5.127   7.328   8.896
 2977W        W 7177  10.792   3.271   0.908
 2978W        W 7178   2.747   1.860   2.707
 2979W        W 7179   5.850   3.299   9.382
 2980W        W 7180  10.028   9.467   0.894
 2981W        W 7181   8.965   2.945   0.770
 2982W        W 7182   0.179   4.041  11.665
 2983W        W 7183   5.202   1.439  11.089
 2984W        W 7184   2.170   4.270   9.592
 2985W        W 7185   6.800   2.063   2.473
 2986W        W 7186   0.508   0.431  10.392
 2987W        W 7187  10.161   7.097   9.505
 2988W        W 7188   3.551   6.704   9.832
 2989W        W 7189   6.143   6.522   9.943
 2990W        W 7190   2.694   6.736   8.256
 2991W        W 7191   0.339   0.077   1.157
 2992W        W 7192   2.068   4.286   9.084
 2993W        W 7193  11.409   3.893   0.752
 2994W        W 7194   3.716   0.844   9.083
 2995W        W 7195   6.529   4.587  10.708
 2996W        W 7196   8.636  10.477   9.016
 2997W        W 7197   0.139   0.423   3.220
 2998W        W 7198   8.857   4.869  11.529
 2999W        W 7199   9.776  11.327  11.729
 3000W        W 7200   0.456   3.321   8.905
 3001W        W 7201   2.209   0.008   0.003
 3002W        W 7202  10.926   0.441   0.435
 3003W        W 7203   4.874   1.467   9.572
 3004W        W 7204   0.921   1.367   2.851
 3005W        W 7205   4.323   2.333   2.644
 3006W        W 7206   7.260   2.806   3.106
 3007W        W 7207   3.483   9.485   2.755
 3008W        W 7208   4.364   3.696  10.576
 3009W        W 7209  10.778   0.805  10.577
 3010W        W 7210   9.898   7.684   2.981
 3011W        W 7211   1.224   5.783   1.848
 3012W        W 7212   0.773   8.506  11.231
 3013W        W 7213   2.977   5.999   9.864
 3014W        W 7214   1.302   3.167   1.745
 3015W        W 7215   7.411   2.094   0.932
 3016W        W 7216   1.366   8.574   0.951
 3017W        W 7217   4.103   9.195  10.431
 3018W        W 7218   0.639   8.367   3.748
 3019W        W 7219   3.751   4.918  10.286
 3020W        W 7220   9.593   5.122  11.719
 3021W        W 7221   9.994   8.118   2.702
 3022W        W 7222   2.275   1.964   9.254
 3023W        W 7223   5.679   9.027   2.529
 3024W        W 7224   5.134   3.814  10.917
 3025W        W 7225   6.702   2.656   8.555
 3026W        W 7226   4.264   1.123  11.910
 3027W        W 7227   6.555   1.668   8.763
 3028W        W 7228   3.215   5.296  11.047
 3029W        W 7229   2.630   0.616   1.170
 3030W        W 7230   3.848   5.849   1.480
 3031W        W 7231   3.628   4.338   1.248
 3032W        W 7232   5.086   5.709  10.207
 3033W        W 7233   0.690   7.990  11.349
 3034W        W 7234   8.676   7.435  10.370
 3035W        W 7235   4.618   7.957  11.045
 3036W        W 7236  11.210  11.039   1.786
 3037W        W 7237  10.065   5.179   2.444
 3038W        W 7238   6.266   3.268   9.062
 3039W        W 7239   1.394   5.724  10.206
 3040W        W 7240   2.660   1.695  10.365
 3041W        W 7241  10.139   9.596   1.629
 3042W        W 7242   2.645   0.177  11.823
 3043W        W 7243   0.157   2.579   1.017
 3044W        W 7244   3.135   7.541   1.673
 3045W        W 7245   3.613   9.809   3.182
 3046W        W 7246   0.953  10.797  11.972
 3047W        W 7247   6.287   7.674   0.617
 3048W        W 7248   6.023   1.370   8.447
 3049W        W 7249   9.878   5.146  11.303
 3050W        W 7250   9.199   7.943   9.034
 3051W        W 7251   7.965   4.708   2.523
 3052W        W 7252   6.767   8.821  11.148
 3053W        W 7253   7.717   3.644   2.818
 3054W        W 7254   3.152  10.894  11.906
 3055W        W 7255   7.742   7.594  10.368
 3056W        W 7256  11.039  11.500   3.297
 3057W        W 7257   7.067   0.571   9.073
 3058W        W 7258   0.518  10.846  11.562
 3059W        W 7259   9.925   7.606   9.627
 3060W        W 7260   0.900   0.463   0.665
 3061W        W 7261   2.322   7.205   9.936
 3062W        W 7262   1.197   1.191   9.174
 3063W        W 7263   4.426   2.669  11.410
 3064W        W 7264   3.696  11.381   9.087
 3065W        W 7265  10.409   8.176  11.473
 3066W        W 7266  10.933   2.738   0.215
 3067W        W 7267   9.939   4.837   3.448
 3068W        W 7268   8.876   7.250   0.331
 3069W        W 7269   2.774   1.809  11.644
 3070W        W 7270   7.472  10.384   9.796
 3071W        W 7271   9.479   8.876   8.936
 3072W        W 7272   7.486   6.731   3.203
 3073W        W 7273   5.506  10.745   1.936
 3074W        W 7274   1.454   5.266  11.483
 3075W        W 7275   0.015  10.093   2.018
 3076W        W 7276   5.533   0.620  10.152
 3077W        W 7277   5.821   7.571   0.789
 3078W        W 7278   5.238   3.738   2.264
 3079W        W 7279  10.547   1.411   2.904
 3080W        W 7280   8.183   5.046  10.458
 3081W        W 7281   6.644  10.474   1.229
 3082W        W 7282   6.758   3.760  11.323
 3083W        W 7283   6.055  11.020   1.268
 3084W        W 7284   9.863   4.684  11.566
 3085W        W 7285  11.348   9.234   3.437
 3086W        W 7286   0.522   5.906  10.840
 3087W        W 7287   7.461   8.508  11.475
 3088W        W 7288   5.193   5.729   9.676
 3089W        W 7289   8.039   0.021   3.448
 3090W        W 7290   2.667  10.198  10.242
 3091W        W 7291   8.329   0.783  11.216
 3092W        W 7292   9.430   7.376   1.056
 3093W        W 7293   8.960   1.603   9.314
 3094W        W 7294   5.603   4.476   1.091
 3095W        W 7295   2.895   4.645   8.619
 3096W        W 7296   5.331  10.982   9.788
 3097W        W 7297   1.840   6.563   2.792
 3098W        W 7298   4.155  11.441   8.872
 3099W        W 7299   6.606   9.854   8.948
 3100W        W 7300   5.815   6.047  11.543
 3101W        W 7301   0.850   2.659  10.704
 3102W        W 7302   4.592   5.442   1.443
 3103W        W 7303   4.285   7.829  10.078
 3104W        W 7304   2.838   7.518   2.093
 3105W        W 7305   1.440   8.165  10.530
 3106W        W 7306   7.504   2.756   1.646
 3107W        W 7307  11.385   1.241   0.050
 3108W        W 7308   8.032   0.818   1.995
 3109W        W 7309   6.132   0.451  11.773
 3110W        W 7310   5.263  10.518   1.068
 3111W        W 7311   8.117   2.445  11.930
 3112W        W 7312   7.042   4.086   1.082
 3113W        W 7313   3.259   8.653   9.358
 3114W        W 7314   3.589   5.763  11.867
 3115W        W 7315   5.804  10.770   0.280
 3116W        W 7316   4.042   0.783  10.436
 3117W        W 7317  11.375   5.200   9.764
 3118W        W 7318   6.440   4.776  11.709
 3119W        W 7319   1.187   8.583   9.317
 3120W        W 7320   3.262   7.913   0.368
 3121W        W 7321   3.288   8.196   1.265
 3122W        W 7322   1.805  11.220  10.566
 3123W        W 7323   4.568   0.006   0.900
 3124W        W 7324   8.463  11.303   2.639
 3125W        W 7325   6.173   1.294   0.744
 3126W        W 7326   0.912   7.267   3.987
 3127W        W 7327   0.372   3.813   0.991
 3128W        W 7328   3.733   3.200  11.887
 3129W        W 7329   1.629  10.311   9.014
 3130W        W 7330   3.521  11.271   3.055
 3131W        W 7331  11.044   8.734   0.576
 3132W        W 7332   5.705   2.298   9.196
 3133W        W 7333   2.508   5.074   3.786
 3134W        W 7334   6.765  10.520   9.046
 3135W        W 7335   5.745   2.826  10.017
 3136W        W 7336   3.980   4.677   9.828
 3137W        W 7337   4.514   9.116   0.263
 3138W        W 7338   7.769   8.322   9.235
 3139W        W 7339   0.263   0.854  10.262
 3140W        W 7340  11.472   1.280   1.308
 3141W        W 7341  11.119  10.756   3.547
 3142W        W 7342   1.289  11.358  10.505
 3143W        W 7343   6.834   7.860   2.341
 3144W        W 7344   6.511   4.493   2.609
 3145W        W 7345   1.025   4.514   1.329
 3146W        W 7346   4.265  10.325   1.975
 3147W        W 7347   0.634  10.055   0.191
 3148W        W 7348   1.403   9.541  11.013
 3149W        W 7349   8.979   1.091   9.201
 3150W        W 7350   2.925   0.283   0.249
 3151W        W 7351  11.310   8.741   3.318
 3152W        W 7352  11.189   4.675   3.406
 3153W        W 7353  11.213   4.340   9.881
 3154W        W 7354   1.913   1.870   0.042
 3155W        W 7355   6.971   9.798   0.920
 3156W        W 7356   5.287   8.952  10.993
 3157W        W 7357   1.890   3.884   0.881
 3158W        W 7358  10.501   8.435  11.918
 3159W        W 7359   4.393   9.940   9.237
 3160W        W 7360   2.564   1.230   2.391
 3161W        W 7361   8.411   5.552   8.984
 3162W        W 7362   1.559  10.398   1.000
 3163W        W 7363   3.740   1.765  10.425
 3164W        W 7364   5.619   1.674   1.616
 3165W        W 7365   8.167   1.045   2.443
 3166W        W 7366  10.538   9.339   0.178
 3167W        W 7367   6.244   5.078  10.475
 3168W        W 7368   3.599  10.980   9.457
 3169W        W 7369   8.494   2.672  10.005
 3170W        W 7370   2.307   8.666   9.100
 3171W        W 7371  10.911   9.535   3.369
 3172W        W 7372   9.341   4.269   9.637
 3173W        W 7373   5.746   7.990   9.096
 3174W        W 7374   3.159   6.951   1.045
 3175W        W 7375   9.994   4.563  10.170
 3176W        W 7376   2.826   2.804   0.476
 3177W        W 7377   5.591   2.837   3.374
 3178W        W 7378   6.965   0.783  10.242
 3179W        W 7379  11.451  10.949   2.265
 3180W        W 7380   2.120   6.115  11.768
 3181W        W 7381  11.335   7.609   1.631
 3182W        W 7382   1.684   0.692   9.177
 3183W        W 7383  10.585   8.854   1.393
 3184W        W 7384   3.195   8.881   1.992
 3185W        W 7385   6.086   8.307   1.771
 3186W        W 7386   0.366  11.074   1.314
 3187W        W 7387   5.993  10.907  11.439
 3188W        W 7388   9.869   2.231  11.779
 3189W        W 7389   8.930   0.863  10.743
 3190W        W 7390   8.600   3.788   2.670
 3191W        W 7391   1.228   6.537   3.522
 3192W        W 7392   8.900   1.248   9.683
 3193W        W 7393   3.817   7.784  11.427
 3194W        W 7394   8.304   9.557   2.020
 3195W        W 7395   9.310   7.843   1.854
 3196W        W 7396   0.950   9.874   9.377
 3197W        W 7397   8.778   4.565   1.269
 3198W        W 7398   1.106  11.318  11.940
 3199W        W 7399   1.195   0.999   2.610
 3200W        W 7400   5.760   3.266   8.367
 3201W        W 7401   9.938   6.181   9.841
 3202W        W 7402   5.636   0.935   2.211
 3203W        W 7403   2.691   7.179  11.731
 3204W        W 7404   5.757  11.277   0.423
 3205W        W 7405   2.642   2.839   9.458
 3206W        W 7406   3.741   2.720   3.301
 3207W        W 7407  10.941   8.942   9.299
 3208W        W 7408   2.235  11.232   2.756
 3209W        W 7409   9.059   4.683   9.685
 3210W        W 7410   8.135   9.386   1.569
 3211W        W 7411   7.540   9.042   2.928
 3212W        W 7412   2.005   7.640   2.627
 3213W        W 7413   8.711  11.344   0.384
 3214W        W 7414   0.794   1.594  11.352
 3215W        W 7415   8.439   0.574   1.755
 3216W        W 7416   7.499   7.977   1.008
 3217W        W 7417   4.003   2.827   9.568
 3218W        W 7418   0.832   8.806   0.062
 3219W        W 7419  10.764   4.875  11.440
 3220W        W 7420  11.281   8.179   0.369
 3221W        W 7421   2.735   1.530  11.217
 3222W        W 7422   6.607   0.748   2.767
 3223W        W 7423   4.172   0.968   3.410
 3224W        W 7424  10.817  10.804  10.895
 3225W        W 7425   7.259   1.344   9.575
 3226W        W 7426  10.924   2.550   9.702
 3227W        W 7427   9.429   6.628   0.329
 3228W        W 7428   1.875   2.909   2.729
 3229W        W 7429   3.479   4.401   0.457
 3230W        W 7430   9.568   6.552   0.818
 3231W        W 7431  10.275   1.268   3.337
 3232W        W 7432   7.514   9.429  11.290
 3233W        W 7433   9.892   9.474  10.522
 3234W        W 7434   3.920  10.062   9.351
 3235W        W 7435   3.442   7.965   1.746
 3236W        W 7436  10.577   1.835   9.189
 3237W        W 7437  10.789   0.831   3.455
 3238W        W 7438   3.585   8.954   0.582
 3239W        W 7439   6.992   4.310   2.783
 3240W        W 7440   3.142   3.214   0.457
 3241W        W 7441   6.511   9.197   8.472
 3242W        W 7442   6.119   5.223  11.893
 3243W        W 7443   4.324   8.639   2.558
 3244W        W 7444   6.281  11.295   0.373
 3245W        W 7445   3.660   6.504   2.143
 3246W        W 7446   2.816   4.332   0.930
 3247W        W 7447   1.255  10.061   1.265
 3248W        W 7448  11.297  10.292   9.942
 3249W        W 7449   8.078  10.308  11.281
 3250W        W 7450   0.922   5.643   9.963
 3251W        W 7451   8.415   7.092   9.817
 3252W        W 7452   0.777   7.781  10.874
 3253W        W 7453   3.950   3.211   0.899
 3254W        W 7454   6.395   5.759  10.560
 3255W        W 7455  10.424   9.783   0.927
 3256W        W 7456   0.795   9.970   0.669
 3257W        W 7457   0.394  11.025   9.953
 3258W        W 7458   4.649   4.393  10.016
 3259W        W 7459   0.854   1.261  11.729
 3260W        W 7460  11.488   0.168   0.714
 3261W        W 7461  10.913   1.239   3.201
 3262W        W 7462   1.957  10.433   3.154
 3263W        W 7463   6.302   6.033   1.209
 3264W        W 7464   0.312  11.459  10.246
 3265W        W 7465  10.244   0.531   2.720
 3266W        W 7466   5.364  10.093   0.770
 3267W        W 7467   5.989  11.373   2.842
 3268W        W 7468   2.792   9.386   9.263
 3269W        W 7469   8.369   9.272   3.253
 3270W        W 7470   9.915   2.833   0.466
 3271W        W 7471   9.396   0.037   1.457
 3272W        W 7472   5.051   0.011   2.492
 3273W        W 7473   9.685   0.047   0.164
 3274W        W 7474   8.398   8.619   2.056
 3275W        W 7475   3.346   8.468   2.806
 3276W        W 7476   0.372   6.088   0.751
 3277W        W 7477   4.201   6.530   8.570
 3278W        W 7478   5.059   2.369   9.990
 3279W        W 7479   1.138   8.755   2.913
 3280W        W 7480   2.601   8.473   3.311
 3281W        W 7481   0.363  11.026   8.451
 3282W        W 7482   7.500   1.417   1.198
 3283W        W 7483   1.441   2.217   3.217
 3284W        W 7484   9.958   7.186   9.952
 3285W        W 7485   1.299   0.582   2.370
 3286W        W 7486   2.686   3.467   1.016
 3287W        W 7487  11.287   6.869   0.367
 3288W        W 7488   7.477   8.194   0.309
 3289W        W 7489   6.975  10.175   0.066
 3290W        W 7490   0.468   0.465   1.459
 3291W        W 7491   5.509   3.247   0.091
 3292W        W 7492   8.649   5.933  10.083
 3293W        W 7493   2.215   4.119   1.750
 3294W        W 7494   0.405   2.973  11.837
 3295W        W 7495   7.673   0.072   1.679
 3296W        W 7496   1.930   5.137   2.328
 3297W        W 7497   7.473   2.679   2.159
 3298W        W 7498   1.403   6.916   9.512
 3299W        W 7499   8.504   0.272   2.894
 3300W        W 7500   1.569   9.435   0.842
 3301W        W 7501  11.331   1.612   0.429
 3302W        W 7502   6.610   7.100   9.663
 3303W        W 7503   9.052   8.899  11.232
 3304W        W 7504   3.749   4.635   0.832
 3305W        W 7505   1.802   0.466  10.016
 3306W        W 7506   8.384   8.891   9.420
 3307W        W 7507   1.041   7.938  11.743
 3308W        W 7508   0.442   5.549  10.475
 3309W        W 7509   2.962   9.493   9.810
 3310W        W 7510  10.839   0.659   8.964
 3311W        W 7511   3.239   8.208  10.095
 3312W        W 7512   7.472   0.532   0.265
 3313W        W 7513  11.322   6.448  10.463
 3314W        W 7514   3.179   1.263   1.555
 3315W        W 7515   3.187   7.684  10.803
 3316W        W 7516   6.697   9.056   2.401
 3317W        W 7517   8.020   0.515   0.284
 3318W        W 7518   1.880   3.081   1.281
 3319W        W 7519   4.980  10.359   0.498
 3320W        W 7520  10.314   3.677   8.665
 3321W        W 7521   3.888   2.344   0.913
 3322W        W 7522   7.542   5.622   1.561
 3323W        W 7523   1.371   8.918   1.974
 3324W        W 7524   6.209  10.146   1.200
 3325W        W 7525  10.588   6.094   0.677
 3326W        W 7526   4.022   2.194   3.510
 3327W        W 7527   9.761   3.065   1.871
 3328W        W 7528   0.186   4.496   2.978
 3329W        W 7529   0.553   3.889  10.573
 3330W        W 7530   6.051  10.589   1.026
 3331W        W 7531  10.477  11.205   0.493
 3332W        W 7532  10.357  10.461   9.225
 3333W        W 7533   4.363   5.993  11.177
 3334W        W 7534   9.371   1.019   9.592
 3335W        W 7535   3.064   1.450  10.565
 3336W        W 7536   4.734   6.784   9.491
 3337W        W 7537   4.674   1.085   2.879
 3338W        W 7538  10.716   3.609   2.643
 3339W        W 7539   0.617   9.032  10.528
 3340W        W 7540   8.538   1.514   8.407
 3341W        W 7541   0.836   0.483   3.173
 3342W        W 7542   0.496   2.302   8.796
 3343W        W 7543   6.182  11.477   9.867
 3344W        W 7544   4.085   1.616   1.304
 3345W        W 7545   9.937   6.663  11.283
 3346W        W 7546   4.057   5.049   0.053
 3347W        W 7547   8.052  10.541   1.428
 3348W        W 7548   7.274   5.477   1.033
 3349W        W 7549  11.357   6.014   2.389
 3350W        W 7550   9.478   8.393   2.772
 3351W        W 7551   0.577   7.491  11.261
 3352W        W 7552   7.462   6.041   1.906
 3353W        W 7553   3.052   9.771   3.485
 3354W        W 7554   6.784   4.207   2.271
 3355W        W 7555   3.434   6.566   2.649
 3356W        W 7556   4.987   7.539   1.269
 3357W        W 7557   0.873   8.421  11.722
 3358W        W 7558   7.414   9.904  10.040
 3359W        W 7559   0.947   5.672  10.481
 3360W        W 7560   7.989   8.930   3.177
 3361W        W 7561   5.706   3.120  11.179
 3362W        W 7562  11.493   2.807   2.929
 3363W        W 7563   5.210  10.535  11.107
 3364W        W 7564   2.275   8.579   0.776
 3365W        W 7565   0.376   1.759  11.599
 3366W        W 7566   2.892   7.175  10.785
 3367W        W 7567   8.358   5.658   2.747
 3368W        W 7568   0.944   8.035   1.482
 3369W        W 7569   6.734   9.134   4.150
 3370W        W 7570   1.098  11.241   0.468
 3371W        W 7571   6.585   3.050   0.043
 3372W        W 7572   9.179   6.428   1.802
 3373W        W 7573   2.838   2.962   1.917
 3374W        W 7574   6.504   4.368   9.813
 3375W        W 7575   3.199   3.508   3.234
 3376W        W 7576   4.757   0.769  11.300
 3377W        W 7577   9.364   4.080  10.639
 3378W        W 7578   7.770   3.362   8.749
 3379W        W 7579   3.775   6.455   9.444
 3380W        W 7580  10.324   9.500  11.741
 3381W        W 7581   3.815   4.125   2.649
 3382W        W 7582   4.539   7.299   9.405
 3383W        W 7583   6.938   0.490   9.590
 3384W        W 7584   1.056   6.228   8.809
 3385W        W 7585   1.281   2.442  10.921
 3386W        W 7586   4.899   6.558  10.606
 3387W        W 7587   9.363   2.320  11.624
 3388W        W 7588  10.933   6.736   2.666
 3389W        W 7589   4.274   5.305   1.852
 3390W        W 7590   5.025   2.388   1.864
 3391W        W 7591   5.478   4.966   2.793
 3392W        W 7592   9.782   9.942  11.270
 3393W        W 7593   4.394   7.017   0.633
 3394W        W 7594   8.246   6.974   3.352
 3395W        W 7595  10.849  11.041  11.844
 3396W        W 7596  10.496   6.091   3.268
 3397W        W 7597   5.247   2.226   8.962
 3398W        W 7598   7.028   1.015   8.812
 3399W        W 7599   7.059   2.869  11.252
 3400W        W 7600   6.791   7.042  10.188
 3401W        W 7601   5.235   5.730   0.849
 3402W        W 7602  10.032   7.164  10.799
 3403W        W 7603   9.020   6.185   9.788
 3404W        W 7604   4.186   1.936   1.701
 3405W        W 7605   2.948   8.643   9.930
 3406W        W 7606   0.397   9.599   8.525
 3407W        W 7607   9.923   8.658   8.758
 3408W        W 7608   6.508   9.645   9.414
 3409W        W 7609   3.118   1.682   1.883
 3410W        W 7610   8.455   2.582   8.534
 3411W        W 7611   5.234   1.424   9.200
 3412W        W 7612   4.151   3.166   9.911
 3413W        W 7613   9.517  10.273  10.965
 3414W        W 7614   3.018   3.155  10.654
 3415W        W 7615   3.571   8.591   0.241
 3416W        W 7616   1.354   2.645   9.900
 3417W        W 7617   1.785   7.662  10.410
 3418W        W 7618   4.108   6.739  10.842
 3419W        W 7619   7.846   6.919   1.541
 3420W        W 7620   1.947   2.853   1.781
 3421W        W 7621   8.417   6.301   0.819
 3422W        W 7622   6.685  11.268   2.363
 3423W        W 7623   2.765   2.578   9.043
 3424W        W 7624   2.344   6.903   9.504
 3425W        W 7625   4.316   0.371  10.608
 3426W        W 7626   3.117  10.834   9.558
 3427W        W 7627   7.109   5.012   0.090
 3428W        W 7628  10.820   9.007   0.961
 3429W        W 7629   9.599   1.494   2.616
 3430W        W 7630   4.299   9.885   2.843
 3431W        W 7631   0.700   0.905   2.714
 3432W        W 7632   6.738  10.610   3.214
 3433W        W 7633  10.941  10.907   0.335
 3434W        W 7634  10.927   8.078   2.729
 3435W        W 7635   5.833   6.672  10.918
 3436W        W 7636   8.961   4.407  11.387
 3437W        W 7637   2.194   8.377   9.491
 3438W        W 7638   4.130   3.059   3.219
 3439W        W 7639   2.517   2.169   2.325
 3440W        W 7640   4.155   3.641  10.124
 3441W        W 7641   6.546  10.501  10.178
 3442W        W 7642   3.477   8.782   2.416
 3443W        W 7643   6.631   5.193  11.985
 3444W        W 7644   9.883   2.703   9.596
 3445W        W 7645  10.829   8.944  11.237
 3446W        W 7646   1.335   5.208   0.360
 3447W        W 7647   7.200   6.971   0.922
 3448W        W 7648   2.324   1.065   1.949
 3449W        W 7649   8.659   7.791   0.886
 3450W        W 7650   6.992   3.914  11.761
 3451W        W 7651   7.101   8.559   3.432
 3452W        W 7652   9.805   4.569   1.030
 3453W        W 7653   8.632  11.234   1.279
 3454W        W 7654   1.678   0.840   9.654
 3455W        W 7655   8.088   0.990   3.447
 3456W        W 7656   8.194  10.477  10.816
 3457W        W 7657  10.852   5.722   3.123
 3458W        W 7658   2.033   4.950   3.601
 3459W        W 7659   5.280   7.880  10.282
 3460W        W 7660   1.761   2.707   9.599
 3461W        W 7661   0.101   1.753  10.561
 3462W        W 7662   9.385   2.738   3.033
 3463W        W 7663   3.409   1.234   9.278
 3464W        W 7664   7.116   3.929   1.983
 3465W        W 7665   8.786   5.167   8.980
 3466W        W 7666   0.270   8.285   0.237
 3467W        W 7667   7.699   8.045  11.265
 3468W        W 7668   5.123   6.851   2.510
 3469W        W 7669   2.413   9.464  10.164
 3470W        W 7670   6.702   6.916  10.704
 3471W        W 7671   5.074   4.222   2.395
 3472W        W 7672   0.047   9.640  10.919
 3473W        W 7673   5.879   7.526   3.120
 3474W        W 7674  11.371   8.783   9.066
 3475W        W 7675   7.736   8.544  11.945
 3476W        W 7676   5.161   9.365   1.895
 3477W        W 7677   1.811   9.486   3.054
 3478W        W 7678   3.032   5.260   0.640
 3479W        W 7679   5.957   6.062   0.063
 3480W        W 7680  10.839   4.532   9.474
 3481W        W 7681   9.012   6.705   1.409
 3482W        W 7682   0.793  10.804   1.189
 3483W        W 7683   5.981   0.808  10.328
 3484W        W 7684  11.476   1.284  10.803
 3485W        W 7685   9.578   5.411  10.941
 3486W        W 7686   4.295   9.451   9.457
 3487W        W 7687  10.295   2.783   8.950
 3488W        W 7688   4.027   5.550   2.363
 3489W        W 7689  10.821   8.184  10.143
 3490W        W 7690   4.673   0.828   3.313
 3491W        W 7691   1.375   6.109  11.151
 3492W        W 7692   6.050   6.466  11.787
 3493W        W 7693   9.770   4.108  10.314
 3494W        W 7694   8.325   1.432   0.853
 3495W        W 7695   5.742   5.760   0.987
 3496W        W 7696   3.575   8.317   2.167
 3497W        W 7697   8.544   4.684   3.196
 3498W        W 7698   1.213   8.633   0.436
 3499W        W 7699   8.877  10.468   0.452
 3500W        W 7700   0.814   4.718   2.177
 3501W        W 7701   0.534  10.595  10.906
 3502W        W 7702  10.048   1.707   9.583
 3503W        W 7703   4.310   3.706   9.641
 3504W        W 7704   2.402   3.044   3.284
 3505W        W 7705   3.306   9.589   8.851
 3506W        W 7706   2.386   5.328  10.976
 3507W        W 7707   9.366   7.020   0.681
 3508W        W 7708   7.510   4.592   2.803
 3509W        W 7709  11.077  11.387   8.546
 3510W        W 7710   1.589   8.640   3.160
 3511W        W 7711  10.848   8.364   1.291
 3512W        W 7712   6.785   5.225   1.885
 3513W        W 7713  11.313   5.761   1.914
 3514W        W 7714   8.304  11.192  10.499
 3515W        W 7715   2.790   5.039  10.880
 3516W        W 7716   2.260   6.633  11.286
 3517W        W 7717   1.585   8.525   2.320
 3518W        W 7718   3.028  10.553   0.775
 3519W        W 7719   3.251   5.602   9.037
 3520W        W 7720   1.029  10.724  10.999
 3521W        W 7721   1.818   6.585  11.551
 3522W        W 7722   8.138   8.433   3.204
 3523W        W 7723   4.596   9.034   9.378
 3524W        W 7724  11.355   3.311   9.555
 3525W        W 7725   3.192   4.169  11.988
 3526W        W 7726   9.029   2.334   2.228
 3527W        W 7727   1.293   0.731  11.390
 3528W        W 7728   3.132   4.757   9.530
 3529W        W 7729   5.260   1.402   0.428
 3530W        W 7730   9.325   4.688   2.317
 3531W        W 7731   0.478   0.242   2.876
 3532W        W 7732   0.767   6.420  11.145
 3533W        W 7733   3.786   2.587   2.780
 3534W        W 7734   1.070  10.390   0.880
 3535W        W 7735   6.142   7.677   8.920
 3536W        W 7736   0.728   3.333  11.981
 3537W        W 7737   1.739   9.829   8.843
 3538W        W 7738   4.313   1.856   0.385
 3539W        W 7739   3.327   4.612  10.350
 3540W        W 7740  10.430  10.880   0.090
 3541W        W 7741   6.568   9.292  11.188
 3542W        W 7742   8.156   2.144  11.531
 3543W        W 7743   0.941   3.759  11.238
 3544W        W 7744   4.626   1.501  11.934
 3545W        W 7745   5.241  10.617   9.291
 3546W        W 7746   8.864  10.405   2.274
 3547W        W 7747  11.136   5.184   0.002
 3548W        W 7748   8.064  10.376   2.929
 3549W        W 7749   9.375   5.525   2.465
 3550W        W 7750   1.629   1.855  11.611
 3551W        W 7751   6.445   9.362   8.947
 3552W        W 7752   5.996  10.427  10.356
 3553W        W 7753   7.889   8.924   1.732
 3554W        W 7754  10.962   7.426   1.343
 3555W        W 7755   1.858   8.961   2.363
 3556W        W 7756   4.949   8.305  11.743
 3557W        W 7757  10.185  11.400   0.097
 3558W        W 7758   6.693  11.289   1.845
 3559W        W 7759   4.770   9.887   9.565
 3560W        W 7760   8.578  10.336  11.105
 3561W        W 7761   5.393   7.322   3.289
 3562W        W 7762   6.303   3.846   1.383
 3563W        W 7763   2.720   3.052  11.070
 3564W        W 7764  11.362   5.568   0.906
 3565W        W 7765   7.939   3.228   9.598
 3566W        W 7766   5.232  11.097   3.219
 3567W        W 7767   1.310   0.086   2.312
 3568W        W 7768   1.327   9.187   3.126
 3569W        W 7769   7.118   7.398   2.111
 3570W        W 7770   4.094   6.473  11.766
 3571W        W 7771  10.984   1.860   1.707
 3572W        W 7772   9.251   0.003   3.625
 3573W        W 7773   6.169   2.483   8.645
 3574W        W 7774   6.708   9.926   2.500
 3575W        W 7775   3.612   3.583   8.981
 3576W        W 7776   3.107  10.048   9.990
 3577W        W 7777   8.068   0.243   0.736
 3578W        W 7778   9.998  10.325   8.847
 3579W        W 7779   8.679   2.404   2.586
 3580W        W 7780   0.436   2.272   1.355
 3581W        W 7781   3.661   0.370   9.235
 3582W        W 7782  11.416  11.020   8.703
 3583W        W 7783  11.025   2.321   2.297
 3584W        W 7784   1.832   6.041  10.856
 3585W        W 7785   3.441   8.609   9.833
 3586W        W 7786   2.588   7.098   1.932
 3587W        W 7787   9.946   4.842   0.630
 3588W        W 7788   7.722   8.836   2.222
 3589W        W 7789  11.337  10.569   1.968
 3590W        W 7790   0.909   5.427   1.624
 3591W        W 7791   6.985   1.888   0.663
 3592W        W 7792   1.980   2.295  11.753
 3593W        W 7793   6.544   5.696   1.509
 3594W        W 7794   9.118   3.452  11.211
 3595W        W 7795   3.520   7.500   2.607
 3596W        W 7796   3.595   7.076  10.185
 3597W        W 7797   7.267   6.218  11.011
 3598W        W 7798   4.009   9.332   8.516
 3599W        W 7799   6.140   2.831   0.737
 3600W        W 7800   9.547   9.050  11.764
 3601W        W 7801   2.405   9.163   8.987
 3602W        W 7802   9.212   5.774   3.023
 3603W        W 7803   4.991   6.658  11.235
 3604W        W 7804   4.252   4.725  11.247
 3605W        W 7805   5.352   8.854  11.913
 3606W        W 7806   3.242   7.915   2.238
 3607W        W 7807   8.449   1.802   0.511
 3608W        W 7808  11.419   7.840   3.035
 3609W        W 7809   0.987   8.269  10.821
 3610W        W 7810   1.132   4.270  11.285
 3611W        W 7811   6.092   5.289   9.481
 3612W        W 7812   6.677  10.208   0.808
 3613W        W 7813   6.812   0.300  10.068
 3614W        W 7814   5.629   4.068   9.821
 3615W        W 7815   4.635   1.597   2.913
 3616W        W 7816   8.084   8.119   0.981
 3617W        W 7817   1.896  10.318   0.229
 3618W        W 7818   1.319   2.700   9.320
 3619W        W 7819   6.488   2.639   2.331
 3620W        W 7820   4.117   7.552   9.648
 3621W        W 7821   2.298   5.561  10.434
 3622W        W 7822   9.543   8.260  10.731
 3623W        W 7823   1.894   6.979   9.270
 3624W        W 7824   9.971   0.866   0.565
 3625W        W 7825   6.155   8.531   2.235
 3626W        W 7826  11.303   1.099   0.541
 3627W        W 7827   7.490   7.677   0.224
 3628W        W 7828  11.068   6.171   0.864
 3629W        W 7829   2.130   9.000   0.515
 3630W        W 7830   8.383   6.883   2.313
 3631W        W 7831   3.249   4.690   2.092
 3632W        W 7832  10.959   1.396   1.438
 3633W        W 7833   4.669   1.909   0.918
 3634W        W 7834   5.650   0.640   1.783
 3635W        W 7835   3.212   7.580   3.030
 3636W        W 7836   1.064   7.635  11.327
 3637W        W 7837  10.011   9.944   3.245
 3638W        W 7838   5.766   2.215   2.355
 3639W        W 7839   9.054  10.820   1.536
 3640W        W 7840   6.535   8.167   2.908
 3641W        W 7841   1.827  10.408  10.735
 3642W        W 7842   9.938   8.752   0.085
 3643W        W 7843   1.737   4.250   9.927
 3644W        W 7844   4.245   8.482   0.951
 3645W        W 7845   9.839   5.667  11.316
 3646W        W 7846   0.172   1.712   0.056
 3647W        W 7847   3.662  10.471   9.483
 3648W        W 7848   8.518  10.865   0.434
 3649W        W 7849   5.016   3.881   9.211
 3650W        W 7850   8.014   0.028   2.455
 3651W        W 7851   5.451   7.446   0.369
 3652W        W 7852  10.434   0.835  10.948
 3653W        W 7853   8.221   1.906   0.069
 3654W        W 7854   0.687   0.058  11.059
 3655W        W 7855   8.082  10.336   3.438
 3656W        W 7856   8.543   6.617   3.131
 3657W        W 7857  10.977   8.569  10.899
 3658W        W 7858   1.350   0.262   2.807
 3659W        W 7859   5.043   5.243  10.439
 3660W        W 7860   8.538   4.633  11.095
 3661W        W 7861   2.313   5.219   2.676
 3662W        W 7862   9.332   2.370   9.133
 3663W        W 7863   4.058   1.228   9.048
 3664W        W 7864   2.612   6.558   2.282
 3665W        W 7865   7.297   7.956  10.959
 3666W        W 7866   5.103   3.877   2.749
 3667W        W 7867   4.501   9.867   1.887
 3668W        W 7868   8.384  11.454   9.262
 3669W        W 7869   8.461   0.315   8.922
 3670W        W 7870   0.935   2.291   1.420
 3671W        W 7871   2.885  10.534   9.929
 3672W        W 7872   5.112   3.255   0.458
 3673W        W 7873   9.634   3.488   9.409
 3674W        W 7874  10.059   7.172   2.823
 3675W        W 7875  10.602   2.670  11.844
 3676W        W 7876   5.062   3.068   3.186
 3677W        W 7877   6.332   6.589  10.852
 3678W        W 7878   0.360  10.827   0.880
 3679W        W 7879  11.399   3.070   0.073
 3680W        W 7880   1.264   0.355   9.108
 3681W        W 7881  11.218   2.343   1.830
 3682W        W 7882   3.773   5.233   2.049
 3683W        W 7883   2.377   3.116   1.752
 3684W        W 7884   4.303   9.247  10.950
 3685W        W 7885   6.016   5.311  10.875
 3686W        W 7886   5.642   1.345   3.596
 3687W        W 7887   3.304   8.663  10.849
 3688W        W 7888   8.731   5.150   1.944
 3689W        W 7889   6.285   3.989  10.610
 3690W        W 7890   2.346  10.348   1.375
 3691W        W 7891   4.905   4.090   3.153
 3692W        W 7892   8.148  10.749   0.072
 3693W        W 7893   7.293   2.128  10.901
 3694W        W 7894   2.838  11.034   9.942
 3695W        W 7895   6.519   5.668   2.009
 3696W        W 7896   7.078   7.553  11.330
 3697W        W 7897   4.357   5.987   1.534
 3698W        W 7898   9.723   0.095   3.334
 3699W        W 7899   4.184   9.097   1.704
 3700W        W 7900   9.503   4.499   2.770
 3701W        W 7901   3.388   2.272  11.005
 3702W        W 7902   6.136   5.628   9.881
 3703W        W 7903   2.377   7.970  11.519
 3704W        W 7904   2.268   5.674  11.964
 3705W        W 7905   0.366   6.582   9.184
 3706W        W 7906   9.965   1.037  11.021
 3707W        W 7907   0.442  11.352   1.778
 3708W        W 7908  11.379   2.669  10.350
 3709W        W 7909   7.956   6.671   3.731
 3710W        W 7910   2.672   6.656  10.819
 3711W        W 7911   3.176   5.919   2.018
 3712W        W 7912   5.742   6.671   1.627
 3713W        W 7913  11.376   9.070   2.918
 3714W        W 7914   1.116   2.958  11.770
 3715W        W 7915  11.051   7.953   9.344
 3716W        W 7916   5.646   9.428   1.718
 3717W        W 7917   3.837   2.458  11.231
 3718W        W 7918   9.581   5.214   0.735
 3719W        W 7919   8.527   7.428   1.379
 3720W        W 7920   9.520   3.273  11.563
 3721W        W 7921   2.301   3.584  10.521
 3722W        W 7922   9.637   9.653   3.460
 3723W        W 7923   8.594  11.300  10.919
 3724W        W 7924   7.109   2.657  10.320
 3725W        W 7925   3.140   6.195   2.873
 3726W        W 7926   1.128   0.897   0.430
 3727W        W 7927   8.546   5.654   1.843
 3728W        W 7928  10.075   6.139   2.606
 3729W        W 7929   4.160   7.739  10.988
 3730W        W 7930  10.438  11.494   0.922
 3731W        W 7931   0.128   2.638   8.518
 3732W        W 7932   6.121   2.779  11.307
 3733W        W 7933   4.251   0.056   0.451
 3734W        W 7934   6.340   6.944   1.305
 3735W        W 7935   6.071   4.818   1.783
 3736W        W 7936   7.775   5.577   1.111
 3737W        W 7937   7.301   9.386   0.991
 3738W        W 7938   5.159   9.192   0.726
 3739W        W 7939   1.885  10.045   1.844
 3740W        W 7940   5.284   4.647  10.278
 3741W        W 7941   4.302   3.803   0.233
 3742W        W 7942   3.089   2.565   9.467
 3743W        W 7943   6.902   4.708   9.860
 3744W        W 7944   5.056   9.676   0.731
 3745W        W 7945   5.150   0.877   3.017
 3746W        W 7946   9.394   3.554   2.936
 3747W        W 7947   0.284   6.331  10.670
 3748W        W 7948   0.798  11.279   1.432
 3749W        W 7949   3.266   4.238  11.056
 3750W        W 7950   4.047   0.306  10.170
 3751W        W 7951   0.455   5.767   1.565
 3752W        W 7952  10.832   3.224   0.020
 3753W        W 7953   8.150   8.179   2.764
 3754W        W 7954   6.224   8.303  11.827
 3755W        W 7955   9.094   6.498   9.375
 3756W        W 7956   2.157   3.881   2.637
 3757W        W 7957   3.536  10.849   1.235
 3758W        W 7958   9.638   1.905   9.823
 3759W        W 7959   8.300   4.322   2.437
 3760W        W 7960   9.492  10.769   1.855
 3761W        W 7961   9.535   8.536  11.788
 3762W        W 7962   3.306   1.943   0.293
 3763W        W 7963   3.901   9.064   2.536
 3764W        W 7964   9.265   1.358   3.081
 3765W        W 7965   6.111   0.315  10.247
 3766W        W 7966   7.623   4.611  10.964
 3767W        W 7967  10.848  11.062   0.826
 3768W        W 7968   6.057   8.117   0.717
 3769W        W 7969   6.673   4.667  11.223
 3770W        W 7970   2.214   4.260  10.097
 3771W        W 7971   8.515   3.633   9.975
 3772W        W 7972   0.755   9.792   1.159
 3773W        W 7973   3.027   0.437   2.366
 3774W        W 7974   8.438   3.622  10.543
 3775W        W 7975   2.914   5.133   2.073
 3776W        W 7976   6.085   4.113   9.131
 3777W        W 7977   9.261   5.406   3.418
 3778W        W 7978   2.563   5.678   3.099
 3779W        W 7979   6.950  10.684   8.586
 3780W        W 7980   4.173   5.642  10.254
 3781W        W 7981   6.681   3.141   2.332
 3782W        W 7982   0.808  11.237   9.497
 3783W        W 7983   0.272   7.470   8.795
 3784W        W 7984   8.010   1.895   2.435
 3785W        W 7985   9.791   7.892   0.477
 3786W        W 7986   9.835   6.021   9.372
 3787W        W 7987   3.355   3.325  11.567
 3788W        W 7988   5.597   0.884   2.736
 3789W        W 7989  10.956   9.979   3.108
 3790W        W 7990   2.169   8.194   8.722
 3791W        W 7991   8.592  10.087   9.374
 3792W        W 7992   1.823   5.968   9.094
 3793W        W 7993  11.274   7.493   2.125
 3794W        W 7994  10.075   5.347   1.512
 3795W        W 7995   7.950   8.176   9.703
 3796W        W 7996   8.026   1.934   8.930
 3797W        W 7997   9.835   0.897   2.538
 3798W        W 7998   5.698   9.896   0.439
 3799W        W 7999  10.795   2.729  11.287
 3800W        W 8000   9.782   1.529  11.789
 3801W        W 8001   8.996   2.977  11.094
 3802W        W 8002   3.405   5.676   0.575
 3803W        W 8003   0.694   1.191   9.062
 3804W        W 8004   2.559   2.226  10.445
 3805W        W 8005   1.841   3.592   1.318
 3806W        W 8006   3.648   7.857   9.574
 3807W        W 8007   7.896   7.401  10.824
 3808W        W 8008   5.239   3.501  10.530
 3809W        W 8009   4.715  10.035  10.540
 3810W        W 8010   7.962   3.816   9.072
 3811W        W 8011   3.629   8.590   1.215
 3812W        W 8012   6.663   7.382   2.318
 3813W        W 8013   7.586   7.552  11.218
 3814W        W 8014   3.142  10.462  10.351
 3815W        W 8015   0.629   2.786   1.242
 3816W        W 8016   9.802   2.367  10.401
 3817W        W 8017   8.487   9.374  11.139
 3818W        W 8018   8.513  10.567   9.510
 3819W        W 8019   4.460  11.347  10.124
 3820W        W 8020  11.211   9.148  11.533
 3821W        W 8021   1.613   9.385   3.504
 3822W        W 8022   8.102   5.453   8.217
 3823W        W 8023   2.009   8.876   9.539
 3824W        W 8024   8.752   5.331   3.363
 3825W        W 8025   8.433   8.191   1.781
 3826W        W 8026  10.956   1.232   9.669
 3827W        W 8027   9.112   8.108   2.437
 3828W        W 8028   3.979   9.971   1.761
 3829W        W 8029   8.191   5.496   9.474
 3830W        W 8030  10.693   2.277   1.887
 3831W        W 8031   7.386   4.468   1.220
 3832W        W 8032   9.461   6.968  10.827
 3833W        W 8033   0.458   6.862   2.561
 3834W        W 8034  10.376   6.555   0.480
 3835W        W 8035   1.777   4.110  11.825
 3836W        W 8036   4.668   4.097  10.898
 3837W        W 8037   0.556   5.012   3.643
 3838W        W 8038   1.836  10.252   1.384
 3839W        W 8039   7.222  11.426   0.345
 3840W        W 8040   6.298   6.992  10.061
 3841W        W 8041   9.983   9.766   8.774
 3842W        W 8042   2.486  10.573   1.818
 3843W        W 8043   8.920   2.968   0.175
 3844W        W 8044   9.395   0.372   9.358
 3845W        W 8045  10.281   1.288   1.983
 3846W        W 8046   0.800   3.488  10.831
 3847W        W 8047   6.943   1.534   2.597
 3848W        W 8048   8.430  10.516  11.569
 3849W        W 8049  10.999  10.327  10.863
 3850W        W 8050   9.501   1.922  11.951
 3851W        W 8051   3.504   3.340   2.350
 3852W        W 8052  10.011   0.385   0.362
 3853W        W 8053   3.805   8.987  11.968
 3854W        W 8054   8.990  10.363   1.354
 3855W        W 8055   3.778   0.246   0.295
 3856W        W 8056   2.308   1.414  10.037
 3857W        W 8057   9.423   3.626  10.323
 3858W        W 8058   6.991   9.477   9.569
 3859W        W 8059   8.586   5.112   4.118
 3860W        W 8060  10.143   0.804   1.480
 3861W        W 8061   1.425   1.437   2.705
 3862W        W 8062   0.806   9.390   1.478
 3863W        W 8063   7.285  10.947   0.697
 3864W        W 8064   6.480   2.348   2.757
 3865W        W 8065   9.609   1.813   3.017
 3866W        W 8066   4.977   3.379   1.930
 3867W        W 8067   2.468   1.363  11.646
 3868W        W 8068   7.190   3.476   2.208
 3869W        W 8069   8.498  10.958   9.172
 3870W        W 8070  10.425  10.951  10.595
 3871W        W 8071   9.812   3.567   1.824
 3872W        W 8072  11.431   6.677   8.903
 3873W        W 8073   0.244   9.560   3.653
 3874W        W 8074   3.551   5.413   1.371
 3875W        W 8075   6.008   1.863   9.341
 3876W        W 8076   4.712   4.304   0.920
 3877W        W 8077   6.043   1.743   0.516
 3878W        W 8078   3.130   3.451   9.149
 3879W        W 8079   6.084   7.450  10.780
 3880W        W 8080   4.487   8.895  10.577
 3881W        W 8081  10.951   9.411   0.500
 3882W        W 8082   5.124   4.675   0.701
 3883W        W 8083   4.476   8.710   9.003
 3884W        W 8084   5.780   1.861   3.152
 3885W        W 8085  10.328  10.142  11.442
 3886W        W 8086   5.736   4.377   9.418
 3887W        W 8087   9.512   7.383   9.011
 3888W        W 8088   4.769   0.692  10.767
 3889W        W 8089   4.276   4.222   9.539
 3890W        W 8090   7.214   1.829   2.959
 3891W        W 8091   1.339  10.439  11.508
 3892W        W 8092   4.468   1.263   1.276
 3893W        W 8093   4.800   3.626   9.592
 3894W        W 8094   3.382   7.130   3.266
 3895W        W 8095   9.032  10.730  11.729
 3896W        W 8096  11.250   5.785  11.348
 3897W        W 8097   4.802  10.646   0.875
 3898W        W 8098  11.319   0.167   0.204
 3899W        W 8099   4.187   9.862   9.748
 3900W        W 8100   3.588   8.050   2.625
 3901W        W 8101   3.137   9.916  11.998
 3902W        W 8102   2.693   9.080   9.938
 3903W        W 8103   9.446   9.288  10.750
 3904W        W 8104   5.526   4.693   0.168
 3905W        W 8105   8.472   0.505  11.965
 3906W        W 8106  10.896  11.250  11.376
 3907W        W 8107   8.849   5.861  11.463
 3908W        W 8108   9.548   3.629  10.850
 3909W        W 8109   6.333   5.189   2.744
 3910W        W 8110   5.231  10.129   9.456
 3911W        W 8111   0.470   3.313   0.879
 3912W        W 8112  11.412   1.331   3.132
 3913W        W 8113   8.342   1.244  10.563
 3914W        W 8114   4.912  10.854  11.784
 3915W        W 8115   1.770   0.187   9.153
 3916W        W 8116   4.626   8.424  10.730
 3917W        W 8117   5.599  11.277  10.789
 3918W        W 8118   8.547   1.754   2.565
 3919W        W 8119   6.371   7.298   0.947
 3920W        W 8120   0.218   9.011   8.786
 3921W        W 8121  10.501   2.257   2.364
 3922W        W 8122   4.173   9.502   2.015
 3923W        W 8123  10.380   8.491   2.660
 3924W        W 8124  11.324   3.828   9.948
 3925W        W 8125   7.152   0.327  11.582
 3926W        W 8126   2.270   5.758   1.970
 3927W        W 8127   0.447   3.658   1.941
 3928W        W 8128   8.051   2.219   1.251
 3929W        W 8129   7.241   7.828   9.956
 3930W        W 8130   2.748   7.977   2.323
 3931W        W 8131   7.408   5.241   2.262
 3932W        W 8132   8.404   6.425   3.579
 3933W        W 8133   7.651   5.084   2.700
 3934W        W 8134   9.665  10.262   2.043
 3935W        W 8135   6.070   7.795   1.841
 3936W        W 8136  10.441  11.462  10.757
 3937W        W 8137   5.659   1.717  11.183
 3938W        W 8138   7.199   5.188   1.560
 3939W        W 8139   8.569   1.839  11.732
 3940W        W 8140   3.273   2.705   1.845
 3941W        W 8141   0.511   4.338  10.328
 3942W        W 8142   1.226  11.033   1.572
 3943W        W 8143   3.891   4.103   0.357
 3944W        W 8144   9.467   4.777   8.332
 3945W        W 8145   9.036   4.756  11.038
 3946W        W 8146   7.665   1.031   2.496
 3947W        W 8147   4.571  10.834   8.558
 3948W        W 8148   7.192   8.410   0.896
 3949W        W 8149   7.601   8.392   3.222
 3950W        W 8150   5.397   7.786   3.056
 3951W        W 8151   6.284  11.338  11.406
 3952W        W 8152   3.783   2.793   1.683
 3953W        W 8153   7.522   3.103  11.844
 3954W        W 8154   3.256   1.819   1.407
 3955W        W 8155   7.939   3.162   1.640
 3956W        W 8156   1.968   9.448  10.409
 3957W        W 8157   1.043   5.575  10.989
 3958W        W 8158   9.321   2.871   2.090
 3959W        W 8159   2.716   7.591   3.167
 3960W        W 8160   8.456   4.296   0.017
 3961W        W 8161   7.131   7.353   1.613
 3962W        W 8162   7.149   4.558   3.639
 3963W        W 8163   6.660   3.085   1.813
 3964W        W 8164   4.181   3.848   2.859
 3965W        W 8165   4.264   8.851  10.094
 3966W        W 8166   7.876   4.448  11.717
 3967W        W 8167   2.180   7.429  10.869
 3968W        W 8168   9.530   4.604  11.934
 3969W        W 8169   2.120   6.150   2.888
 3970W        W 8170   1.354   8.690  10.600
 3971W        W 8171   8.325   5.080   9.165
 3972W        W 8172   4.817  10.414   1.338
 3973W        W 8173   6.063   3.208   9.879
 3974W        W 8174   9.056   5.590   1.620
 3975W        W 8175   8.460   7.135   1.866
 3976W        W 8176   9.046   4.709   0.347
 3977W        W 8177   5.860   2.635  10.473
 3978W        W 8178   2.074   5.640   2.958
 3979W        W 8179   1.788   8.813  11.801
 3980W        W 8180  11.437   9.022   0.454
 3981W        W 8181   0.711   7.724   2.981
 3982W        W 8182   5.143   9.955   9.933
 3983W        W 8183   8.631   9.300  10.125
 3984W        W 8184   4.792   0.735   9.009
 3985W        W 8185   7.703   2.192   9.239
 3986W        W 8186   4.847   0.819   0.619
 3987W        W 8187   7.647  11.192  11.064
 3988W        W 8188   2.363   3.818   2.181
 3989W        W 8189   8.094   7.211   1.184
 3990W        W 8190   6.742   4.971   0.585
 3991W        W 8191   6.641  10.895   2.766
 3992W        W 8192   1.313   3.780   2.470
 3993W        W 8193   0.716   5.721   0.665
 3994W        W 8194   4.701   1.731   8.929
 3995W        W 8195   8.968   9.545   2.707
 3996W        W 8196   2.032   0.493  10.529
 3997W        W 8197   6.569   1.261   9.090
 3998W        W 8198   6.134   6.940  11.984
 3999W        W 8199   8.922   7.745   0.433
 4000W        W 8200   5.277   8.042   0.039
 4001W        W 8201   2.189   0.903   1.205
 4002W        W 8202   9.477   4.607   3.295
 4003W        W 8203  10.409   0.553   9.709
 4004W        W 8204   7.457   9.232   2.405
 4005W        W 8205  11.269   1.763   1.252
 4006W        W 8206   7.618   8.466  10.990
 4007W        W 8207   1.922  10.806   2.302
 4008W        W 8208   4.251   9.597   3.265
 4009W        W 8209   4.237   2.853   2.760
 4010W        W 8210   9.630   5.980   2.360
 4011W        W 8211   7.967   3.758   9.935
 4012W        W 8212   3.315   5.432   1.934
 4013W        W 8213   4.650   4.356   2.144
 4014W        W 8214   5.918   4.048   3.064
 4015W        W 8215   7.164  10.956   2.786
 4016W        W 8216   9.315   4.616   1.352
 4017W        W 8217   2.643   7.607  10.715
 4018W        W 8218  10.719   2.182  10.636
 4019W        W 8219   1.314   2.277   0.451
 4020W        W 8220   6.089   6.413   0.920
 4021W        W 8221   3.354   1.388   3.325
 4022W        W 8222   6.617   7.070   3.971
 4023W        W 8223   5.703   8.210  10.346
 4024W        W 8224   1.338   5.166   3.327
 4025W        W 8225   2.891   9.274   8.763
 4026W        W 8226   8.256   5.653   3.327
 4027W        W 8227   0.383   2.896   3.372
 4028W        W 8228   2.924   0.796   1.702
 4029W        W 8229   5.691  10.829   8.563
 4030W        W 8230   5.943   1.306  11.299
 4031W        W 8231   6.445   6.156   1.737
 4032W        W 8232   1.269   0.806   8.854
 4033W        W 8233   9.523   4.159   0.853
 4034W        W 8234   3.879   6.890   2.409
 4035W        W 8235   4.319   8.527   9.478
 4036W        W 8236   4.605   8.045   0.496
 4037W        W 8237   3.008   5.113   0.046
 4038W        W 8238   9.383   1.371   9.081
 4039W        W 8239   6.891  10.588   0.507
 4040W        W 8240   5.684   1.152   1.667
 4041W        W 8241  11.321   6.640   1.788
 4042W        W 8242   4.073  10.575   3.468
 4043W        W 8243   3.739   0.270  11.792
 4044W        W 8244   4.035   8.506   0.013
 4045W        W 8245   2.487   0.567   9.650
 4046W        W 8246   2.750  11.385   9.032
 4047W        W 8247   1.786   3.616  11.204
 4048W        W 8248   3.654   6.425   8.587
 4049W        W 8249   1.205   1.872   1.535
 4050W        W 8250  11.303   7.488  10.051
 4051W        W 8251   6.746   7.870   8.273
 4052W        W 8252   0.415  11.261  10.731
 4053W        W 8253   8.771   7.587  11.962
 4054W        W 8254   5.526   3.031  10.685
 4055W        W 8255   6.643   1.879  10.854
 4056W        W 8256  11.274   5.143   9.253
 4057W        W 8257   8.096   9.319  11.951
 4058W        W 8258   7.452   0.533   9.488
 4059W        W 8259   3.244   4.631   0.929
 4060W        W 8260   7.685   9.985   9.522
 4061W        W 8261   4.021   8.466   9.065
 4062W        W 8262   1.778  11.172   0.497
 4063W        W 8263   9.459  11.050   8.713
 4064W        W 8264   0.553   6.195   1.893
 4065W        W 8265   5.021   3.824   1.691
 4066W        W 8266   5.534   5.201  11.859
 4067W        W 8267   2.135   8.405  11.748
 4068W        W 8268   2.361   3.406   8.644
 4069W        W 8269  10.784   5.522  10.467
 4070W        W 8270   3.995   0.937   9.518
 4071W        W 8271   7.617   3.755   1.657
 4072W        W 8272   4.736   9.122  10.192
 4073W        W 8273  10.808   3.902   0.069
 4074W        W 8274   7.948  11.187  11.885
 4075W        W 8275   5.635   0.224  10.491
 4076W        W 8276   3.070   5.125   9.181
 4077W        W 8277   6.766  10.629   0.015
 4078W        W 8278   2.207   9.790  11.805
 4079W        W 8279   4.005   3.163   2.374
 4080W        W 8280   3.221   6.358   4.017
 4081W        W 8281   7.510   0.080   2.632
 4082W        W 8282   3.092  10.007  10.541
 4083W        W 8283   2.982  10.613   1.915
 4084W        W 8284   6.823   1.982   8.410
 4085W        W 8285   8.462   7.496  11.507
 4086W        W 8286   9.539   4.595   8.804
 4087W        W 8287   6.311   8.047  11.380
 4088W        W 8288   1.041   6.279   1.930
 4089W        W 8289  11.005   1.807  11.420
 4090W        W 8290   2.647   7.493   9.388
 4091W        W 8291   8.314   7.766  11.965
 4092W        W 8292   9.531   4.899   0.339
 4093W        W 8293   0.041   2.884  10.794
 4094W        W 8294   6.723  10.286  10.590
 4095W        W 8295   3.774   3.875   8.588
 4096W        W 8296   5.764   8.845   9.472
 4097W        W 8297   3.519   5.358   3.241
 4098W        W 8298   6.628   6.818  11.202
 4099W        W 8299   0.562   9.484   0.775
 4100W        W 8300   3.651   1.737   3.092
 4101W        W 8301   0.554   3.833   0.003
 4102W        W 8302   9.768   1.939  10.860
 4103W        W 8303   5.685   2.169   0.087
 4104W        W 8304   6.397   6.579   2.836
 4105W        W 8305   2.320   4.812  11.869
 4106W        W 8306   0.767   8.496   1.762
 4107W        W 8307  11.081  10.578  11.807
 4108W        W 8308   5.006   4.734   9.846
 4109W        W 8309   2.981   0.776   8.571
 4110W        W 8310   4.480   4.835   9.824
 4111W        W 8311   0.511   7.458   3.749
 4112W        W 8312  10.885   9.518   0.982
 4113W        W 8313   9.821   9.506  11.017
 4114W        W 8314   3.951   0.025   3.207
 4115W        W 8315   9.624   5.948  10.479
 4116W        W 8316   1.950   0.816   1.698
 4117W        W 8317  11.235   2.762   2.419
 4118W        W 8318   3.181   6.667   3.117
 4119W        W 8319   9.940   7.662  10.124
 4120W        W 8320   6.928  11.195   8.639
 4121W        W 8321   2.194   1.378   0.992
 4122W        W 8322   5.276   0.966   1.380
 4123W        W 8323   0.375  10.577   1.414
 4124W        W 8324   8.464   6.179   8.668
 4125W        W 8325  10.836  10.306   8.995
 4126W        W 8326   1.735   8.504   9.260
 4127W        W 8327  10.851   7.876   0.466
 4128W        W 8328   0.062   6.219   1.961
 4129W        W 8329  11.435   7.623   9.578
 4130W        W 8330  10.007   8.491  11.230
 4131W        W 8331  11.353   4.103  11.243
 4132W        W 8332  11.464  10.056   2.854
 4133W        W 8333   6.042   3.765  10.985
 4134W        W 8334   9.811   4.108  10.898
 4135W        W 8335  10.990   6.824  10.621
 4136W        W 8336   2.438  10.508   9.159
 4137W        W 8337   4.332   4.312   0.147
 4138W        W 8338   2.781   0.744  10.994
 4139W        W 8339   6.566   1.248   2.851
 4140W        W 8340   9.413   4.071   8.553
 4141W        W 8341   6.738   2.719   3.151
 4142W        W 8342   6.585  11.049   9.838
 4143W        W 8343   8.803  11.028   0.828
 4144W        W 8344   0.159   2.654  11.528
 4145W        W 8345   6.814   0.829   0.267
 4146W        W 8346   0.319   4.362  11.271
 4147W        W 8347   1.068   4.950   1.806
 4148W        W 8348   6.710  10.342  11.601
 4149W        W 8349   4.025   4.608   0.402
 4150W        W 8350   0.960   3.342   8.872
 4151W        W 8351   0.847  10.825   0.678
 4152W        W 8352   8.199   6.653   1.851
 4153W        W 8353   1.768   9.869   1.048
 4154W        W 8354   7.728   9.606   0.790
 4155W        W 8355  10.096   1.761   0.630
 4156W        W 8356   7.595   4.000   1.158
 4157W        W 8357   9.521   6.217   0.034
 4158W        W 8358   2.829  10.837   9.115
 4159W        W 8359   1.651   4.324  11.314
 4160W        W 8360   7.031   3.225   3.294
 4161W        W 8361   3.655   6.110   2.876
 4162W        W 8362   9.398  11.206   3.236
 4163W        W 8363  10.702   7.116   9.485
 4164W        W 8364   8.151  10.977  10.917
 4165W        W 8365   5.649   7.743   3.527
 4166W        W 8366   2.993   6.492   3.572
 4167W        W 8367  10.513   6.151   0.172
 4168W        W 8368   2.674   3.445   2.005
 4169W        W 8369   6.579   1.861  11.386
 4170W        W 8370  11.281   8.933  10.607
 4171W        W 8371   8.771   6.982   9.048
 4172W        W 8372  10.680  10.341   2.154
 4173W        W 8373  10.073   9.033   3.234
 4174W        W 8374   2.787   6.131  10.846
 4175W        W 8375   9.834   1.063  11.599
 4176W        W 8376   9.603  10.555   8.562
 4177W        W 8377   9.150  10.371   0.872
 4178W        W 8378  10.425   2.169   1.446
 4179W        W 8379   3.507   1.506  11.227
 4180W        W 8380   5.618   1.367   2.505
 4181W        W 8381   3.941   0.732   2.509
 4182W        W 8382  10.815   4.204   8.597
 4183W        W 8383   7.645  10.703  11.911
 4184W        W 8384   7.723   9.027   0.106
 4185W        W 8385  10.721  10.138   8.532
 4186W        W 8386   6.060   4.292  10.963
 4187W        W 8387   8.921   2.760   3.338
 4188W        W 8388   9.900   8.561   2.453
 4189W        W 8389   3.139   3.721  10.868
 4190W        W 8390   2.383   4.660   8.319
 4191W        W 8391   1.907   7.056  11.141
 4192W        W 8392   2.054   1.267   2.324
 4193W        W 8393   2.766   0.466  11.408
 4194W        W 8394   9.938  11.070   1.813
 4195W        W 8395   1.803  10.254  10.216
 4196W        W 8396   9.610   8.575   1.466
 4197W        W 8397  10.727  10.301  10.000
 4198W        W 8398   9.491   6.984   3.281
 4199W        W 8399   5.552   5.265  10.458
 4200W        W 8400   5.711   7.695   8.392
 4201W        W 8401  11.409   6.757  11.422
 4202W        W 8402   9.732   8.298   0.190
 4203W        W 8403   3.768  11.487  11.356
 4204W        W 8404  10.307   8.168  10.586
 4205W        W 8405  10.811   0.942   0.770
 4206W        W 8406   0.805   7.430  10.459
 4207W        W 8407   8.165   6.547   8.442
 4208W        W 8408  10.872   5.183   0.848
 4209W        W 8409   7.605   2.573  10.973
 4210W        W 8410   4.649   7.503  10.822
 4211W        W 8411  10.363   6.437  10.503
 4212W        W 8412   6.066   0.368  10.761
 4213W        W 8413   3.932  11.252   2.686
 4214W        W 8414   2.824   4.542   2.496
 4215W        W 8415   5.000  11.185   8.856
 4216W        W 8416   1.689  11.243   1.431
 4217W        W 8417   2.905   6.031   2.445
 4218W        W 8418   9.884   1.646   2.028
 4219W        W 8419   4.709   1.246   9.121
 4220W        W 8420   4.227   2.768   0.956
 4221W        W 8421   6.618   0.285   2.498
 4222W        W 8422   7.476   0.715   8.726
 4223W        W 8423   7.926   8.223   3.610
 4224W        W 8424   9.465   0.053   2.414
 4225W        W 8425   6.744   5.669   1.010
 4226W        W 8426   9.624   3.429   0.389
 4227W        W 8427  10.847   2.626   2.742
 4228W        W 8428   2.743   9.784   2.115
 4229W        W 8429   8.019   9.397  11.408
 4230W        W 8430   8.338   9.881   3.233
 4231W        W 8431  10.000   3.096   9.264
 4232W        W 8432   4.918   0.010   2.011
 4233W        W 8433   0.006   8.069   0.860
 4234W        W 8434   8.828   6.908   0.970
 4235W        W 8435   3.690   4.474   3.543
 4236W        W 8436  10.294   2.238   9.026
 4237W        W 8437   2.851   7.785  11.181
 4238W        W 8438   3.690   8.440  10.283
 4239W        W 8439   9.114   4.167   1.211
 4240W        W 8440   1.713   5.711   1.637
 4241W        W 8441   8.265   8.393   9.340
 4242W        W 8442  10.899   1.841   0.294
 4243W        W 8443   9.521   7.884   9.896
 4244W        W 8444   7.801   6.104   1.521
 4245W        W 8445   9.715   7.197   1.450
 4246W        W 8446   1.219   4.949   0.948
 4247W        W 8447  10.819   4.979   9.053
 4248W        W 8448   5.058   7.042   2.036
 4249W        W 8449   4.037  10.915   1.375
 4250W        W 8450   4.325   9.626  10.586
 4251W        W 8451  11.146   4.233  10.806
 4252W        W 8452   9.135   0.851   0.353
 4253W        W 8453   0.959   3.122  10.470
 4254W        W 8454   6.831   6.208  11.376
 4255W        W 8455   4.281   1.130   2.560
 4256W        W 8456   8.074   1.165  11.644
 4257W        W 8457   8.358   6.099  11.462
 4258W        W 8458   0.936  10.432   0.364
 4259W        W 8459   0.364   4.681   8.481
 4260W        W 8460   3.889   8.845   8.726
 4261W        W 8461   5.356   9.888   1.712
 4262W        W 8462   0.819   8.161   0.949
 4263W        W 8463   3.449   1.310   2.020
 4264W        W 8464   9.119   1.378   0.465
 4265W        W 8465   8.433   4.307   1.952
 4266W        W 8466  10.267   9.553   9.214
 4267W        W 8467   0.990   8.488   9.791
 4268W        W 8468   7.251   2.324   2.875
 4269W        W 8469   9.448   4.404   0.413
 4270W        W 8470  10.416   6.672  11.480
 4271W        W 8471   2.928   8.978   3.302
 4272W        W 8472   6.020   4.781   2.652
 4273W        W 8473   5.345   3.116   9.366
 4274W        W 8474   0.793   0.140   9.130
 4275W        W 8475   7.229   1.931  10.398
 4276W        W 8476   1.443   7.128   9.051
 4277W        W 8477   4.208   7.430  11.413
 4278W        W 8478  10.961   5.695   2.290
 4279W        W 8479   9.175   9.792   0.090
 4280W        W 8480   7.999   4.069   0.074
 4281W        W 8481  11.047   8.049   1.664
 4282W        W 8482  10.982   5.199   3.009
 4283W        W 8483   1.354   6.610  11.867
 4284W        W 8484   7.940   4.331   9.064
 4285W        W 8485   0.247   8.518   2.456
 4286W        W 8486   0.303   1.834  11.098
 4287W        W 8487   8.866   0.960   0.778
 4288W        W 8488   6.295   2.153   2.281
 4289W        W 8489  10.207   1.032   2.870
 4290W        W 8490   0.036   3.811   9.496
 4291W        W 8491   7.954   7.763   3.835
 4292W        W 8492   9.531   9.096   2.222
 4293W        W 8493  11.250   6.994   2.187
 4294W        W 8494   7.099  10.346   1.930
 4295W        W 8495   7.106  10.128   0.552
 4296W        W 8496   0.930   7.984   1.986
 4297W        W 8497   4.252   8.453   8.610
 4298W        W 8498  10.057   9.030   2.699
 4299W        W 8499   2.426   8.981   3.324
 4300W        W 8500   0.471   0.278   3.608
 4301W        W 8501   8.249   3.232   3.561
 4302W        W 8502   4.075   7.169   1.022
 4303W        W 8503   4.713   6.037   3.529
 4304W        W 8504  10.798   8.509   3.010
 4305W        W 8505   8.173   9.518  10.008
 4306W        W 8506   3.131   6.530   2.188
 4307W        W 8507   0.288   6.502   0.023
 4308W        W 8508   1.681   1.411   0.934
 4309W        W 8509   2.772   8.452   0.989
 4310W        W 8510   7.677   5.133  10.243
 4311W        W 8511   8.147   7.698   2.628
 4312W        W 8512   4.640   0.291  11.483
 4313W        W 8513   6.550   6.226  11.918
 4314W        W 8514   7.049   1.192  10.538
 4315W        W 8515  10.933   1.127   2.698
 4316W        W 8516   0.625   4.668   9.437
 4317W        W 8517   9.466  10.931  11.540
 4318W        W 8518   9.386   9.857   1.857
 4319W        W 8519   9.043   3.645   9.875
 4320W        W 8520   9.972   4.732   2.809
 4321W        W 8521   3.840   5.958   9.516
 4322W        W 8522   8.961   8.995   8.899
 4323W        W 8523   6.811   2.201   3.096
 4324W        W 8524   7.708   6.197   0.467
 4325W        W 8525   4.561   3.436  11.929
 4326W        W 8526   6.470   3.186   3.202
 4327W        W 8527   4.511   2.028   3.557
 4328W        W 8528   7.529   1.896   1.407
 4329W        W 8529   9.829   3.564   2.661
 4330W        W 8530  11.147   9.451   1.950
 4331W        W 8531   9.141   8.562   9.881
 4332W        W 8532   4.521  10.282   0.215
 4333W        W 8533   2.782   4.250   7.758
 4334W        W 8534   2.716  10.623  11.666
 4335W        W 8535  10.469   5.942  10.718
 4336W        W 8536   6.048   3.709   3.608
 4337W        W 8537   6.224   3.661   9.407
 4338W        W 8538   1.185   7.041  10.509
 4339W        W 8539   6.168   0.923  11.563
 4340W        W 8540   7.192  10.512  11.734
 4341W        W 8541   4.682   2.471   1.108
 4342W        W 8542   3.163  11.286  11.110
 4343W        W 8543  10.209   4.190   8.534
 4344W        W 8544   8.422  10.024  11.800
 4345W        W 8545   9.180   3.138  10.235
 4346W        W 8546   6.465   9.813   3.377
 4347W        W 8547   6.287  10.306   3.437
 4348W        W 8548   1.254   5.340   2.855
 4349W        W 8549   9.351   4.736  11.469
 4350W        W 8550   1.752   2.558   0.476
 4351W        W 8551   8.916   4.276  10.880
 4352W        W 8552   2.755   0.358   1.913
 4353W        W 8553   0.665   8.682   2.233
 4354W        W 8554   4.465   0.832   0.274
 4355W        W 8555  10.370   7.926  10.152
 4356W        W 8556   6.982  11.301  10.018
 4357W        W 8557   6.695   0.158  11.472
 4358W        W 8558  10.017   8.389  11.732
 4359W        W 8559   4.056   8.843   0.398
 4360W        W 8560  10.909   6.554   1.181
 4361W        W 8561   8.841   0.564   8.500
 4362W        W 8562   5.034   3.230   9.767
 4363W        W 8563   1.153  10.532   9.112
 4364W        W 8564   3.875  10.337   0.894
 4365W        W 8565   2.988   3.163  11.893
 4366W        W 8566   5.939   6.626   8.961
 4367W        W 8567   8.750   6.845   8.172
 4368W        W 8568   9.838   1.320   9.299
 4369W        W 8569  11.300  10.293   3.351
 4370W        W 8570   2.401   1.996  11.951
 4371W        W 8571   6.138  10.037   9.437
 4372W        W 8572  10.265   2.632   1.288
 4373W        W 8573   5.207   2.589   3.122
 4374W        W 8574   7.597   3.405  11.435
 4375W        W 8575   4.067   7.046  10.421
 4376W        W 8576   4.527   6.647  11.948
 4377W        W 8577   3.787   2.227   2.426
 4378W        W 8578   3.245   0.980   3.029
 4379W        W 8579   6.158   9.036  11.548
 4380W        W 8580   0.772   1.009   3.212
 4381W        W 8581   8.309   6.043   9.126
 4382W        W 8582   2.753  10.569   2.723
 4383W        W 8583   8.114   3.319   9.128
 4384W        W 8584  11.260   9.568   2.935
 4385W        W 8585  11.371   8.466   1.144
 4386W        W 8586   4.436   0.052   1.853
 4387W        W 8587   8.090   7.412   3.054
 4388W        W 8588  11.427   3.233   2.639
 4389W        W 8589   4.806   2.585  10.973
 4390W        W 8590  10.359   7.630   3.236
 4391W        W 8591   9.418   2.692  10.385
 4392W        W 8592  10.963   7.117   1.775
 4393W        W 8593   9.325   8.809   1.826
 4394W        W 8594   0.898   4.150   3.172
 4395W        W 8595   6.061   2.264  11.133
 4396W        W 8596   7.839  10.821   1.050
 4397W        W 8597   7.215  11.350  11.394
 4398W        W 8598   3.127   4.094  10.116
 4399W        W 8599   7.530   7.087  10.987
 4400W        W 8600   9.869   0.027   1.622
 4401W        W 8601  11.415   5.034  11.603
 4402W        W 8602   9.556   6.155   3.874
 4403W        W 8603   3.703   6.779  11.909
 4404W        W 8604  10.901  10.797   2.161
 4405W        W 8605   9.954   6.698   9.822
 4406W        W 8606   4.700   9.442   1.676
 4407W        W 8607   0.582   6.023  10.329
 4408W        W 8608   4.579   2.527   0.265
 4409W        W 8609   4.943   0.387   3.257
 4410W        W 8610   7.737   4.554   9.506
 4411W        W 8611   3.138   1.300   1.043
 4412W        W 8612   8.457   2.236   8.944
 4413W        W 8613   0.804   2.856   0.159
 4414W        W 8614   4.325   9.067   2.835
 4415W        W 8615   7.989   2.852   3.310
 4416W        W 8616   0.339   3.129   1.952
 4417W        W 8617   3.465   6.693   3.563
 4418W        W 8618   0.137   2.564   9.522
 4419W        W 8619   8.886   2.517   8.887
 4420W        W 8620   9.218   8.327   1.831
 4421W        W 8621   9.843   9.948  10.720
 4422W        W 8622  10.355   9.013  10.429
 4423W        W 8623   6.406   7.957   3.691
 4424W        W 8624   5.598   3.351   0.614
 4425W        W 8625   9.931   4.374   3.176
 4426W        W 8626  11.020   3.601   2.238
 4427W        W 8627  10.894   1.997   9.681
 4428W        W 8628   3.472   7.685   1.294
 4429W        W 8629   3.257   1.964  11.744
 4430W        W 8630   9.000   6.123  11.880
 4431W        W 8631   0.685   1.222   2.019
 4432W        W 8632   3.778   9.508   1.705
 4433W        W 8633   5.763   1.350   3.000
 4434W        W 8634  10.719   2.719   2.233
 4435W        W 8635   8.742   9.112   2.896
 4436W        W 8636   1.168   1.536   8.471
 4437W        W 8637  10.299  10.970   9.076
 4438W        W 8638   6.651   0.036   3.457
 4439W        W 8639   1.439   4.839   9.164
 4440W        W 8640   4.589  11.370   8.587
 4441W        W 8641   9.802   3.618   0.849
 4442W        W 8642   2.781   2.477   1.786
 4443W        W 8643   6.815   6.288   9.263
 4444W        W 8644   2.349   8.423  11.259
 4445W        W 8645   3.198   0.049   0.886
 4446W        W 8646   3.059   3.737  11.741
 4447W        W 8647   7.611   0.334   2.202
 4448W        W 8648   0.228   2.851   2.424
 4449W        W 8649   5.139   8.185   2.447
 4450W        W 8650  11.333   0.501   9.059
 4451W        W 8651   1.325   1.821   2.196
 4452W        W 8652   1.216   3.204   9.305
 4453W        W 8653   9.976   4.344   0.403
 4454W        W 8654   9.445   1.568   1.773
 4455W        W 8655   2.629   8.335   0.503
 4456W        W 8656   9.804  10.574   9.931
 4457W        W 8657   1.298   3.308   0.717
 4458W        W 8658   1.625   1.443   3.482
 4459W        W 8659   1.959   9.866   9.314
 4460W        W 8660   2.363   5.828  10.899
 4461W        W 8661   1.061   5.006   9.562
 4462W        W 8662   7.577   3.165   9.198
 4463W        W 8663   0.077   5.948  10.371
 4464W        W 8664   9.246   4.584  10.593
 4465W        W 8665   3.100   0.596   3.317
 4466W        W 8666   9.254   1.180  10.991
 4467W        W 8667  10.406   6.768   2.394
 4468W        W 8668   9.000   1.193   1.281
 4469W        W 8669   4.756   1.712  11.192
 4470W        W 8670   9.411   6.355  10.099
 4471W        W 8671   1.872   3.738   3.305
 4472W        W 8672   9.497   5.003   9.551
 4473W        W 8673  10.913   4.389  11.309
 4474W        W 8674   6.125   9.214   1.501
 4475W        W 8675   4.442   7.797   9.344
 4476W        W 8676   7.027   8.933   9.031
 4477W        W 8677   8.199   0.838  10.277
 4478W        W 8678   8.635   6.661   8.649
 4479W        W 8679   2.857   9.293   2.031
 4480W        W 8680   6.027   6.828   2.600
 4481W        W 8681   3.414   6.219   9.703
 4482W        W 8682   6.760   9.352   0.108
 4483W        W 8683   7.055   3.232  11.612
 4484W        W 8684   1.514   6.097  11.732
 4485W        W 8685   1.147   8.490   3.385
 4486W        W 8686   8.917   6.615   0.018
 4487W        W 8687   3.166   6.123   8.782
 4488W        W 8688   8.040   2.829  10.811
 4489W        W 8689  11.374  10.835   9.181
 4490W        W 8690   1.291   2.233   9.531
 4491W        W 8691   2.606   6.829   3.636
 4492W        W 8692   2.275   3.359   9.145
 4493W        W 8693   0.946   1.642   1.894
 4494W        W 8694   4.057   5.091  11.536
 4495W        W 8695   3.768   0.805  10.002
 4496W        W 8696  10.949   3.965   9.638
 4497W        W 8697   5.690   0.144   9.971
 4498W        W 8698   8.644   1.787   9.863
 4499W        W 8699   7.468   1.859   1.943
 4500W        W 8700  10.825   4.275   3.351
 4501W        W 8701   0.958   2.834   8.967
 4502W        W 8702   4.780   8.049   1.496
 4503W        W 8703   9.086   1.235   2.154
 4504W        W 8704   9.957   5.079  10.799
 4505W        W 8705   5.896   4.110   1.301
 4506W        W 8706   2.153   8.467   0.292
 4507W        W 8707   8.843   3.079   9.805
 4508W        W 8708  10.846   1.852   2.222
 4509W        W 8709   4.263   4.672  10.261
 4510W        W 8710   5.528   5.467  10.938
 4511W        W 8711   1.745   4.249   3.267
 4512W        W 8712   0.448   2.669  11.038
 4513W        W 8713   4.365   0.893   0.844
 4514W        W 8714   4.502  10.563  11.814
 4515W        W 8715  10.530   0.049  11.254
 4516W        W 8716   4.857   6.169   1.517
 4517W        W 8717   8.890   0.681   1.219
 4518W        W 8718  10.795   0.825  11.340
 4519W        W 8719   8.115   2.456   2.376
 4520W        W 8720   7.617  10.866   3.044
 4521W        W 8721   5.646   7.608  10.962
 4522W        W 8722   8.398   2.842   2.609
 4523W        W 8723   4.258   0.768   2.940
 4524W        W 8724   8.541   9.328   9.636
 4525W        W 8725   3.103   1.920  10.352
 4526W        W 8726   8.880   2.923   9.224
 4527W        W 8727   3.380   6.075   0.276
 4528W        W 8728   1.941   9.356   8.720
 4529W        W 8729   3.565   9.032  11.524
 4530W        W 8730   6.099   4.535   8.368
 4531W        W 8731   9.406   5.752   1.970
 4532W        W 8732   4.726  11.326   0.443
 4533W        W 8733   6.302   1.655  10.525
 4534W        W 8734   3.584   1.029  11.372
 4535W        W 8735  11.499   3.157  11.578
 4536W        W 8736   3.908   4.392   8.582
 4537W        W 8737   6.507   2.348   9.842
 4538W        W 8738   5.222   9.147   2.783
 4539W        W 8739   1.878   0.935  11.172
 4540W        W 8740   3.941   0.491   3.432
 4541W        W 8741   6.979   3.640   9.912
 4542W        W 8742   2.140   2.039   1.953
 4543W        W 8743   3.486   4.579   9.859
 4544W        W 8744   6.531   7.304  11.045
 4545W        W 8745   7.157   6.416   9.631
 4546W        W 8746   2.191   3.309  10.971
 4547W        W 8747   7.293   4.983   8.418
 4548W        W 8748   8.565   4.122  11.253
 4549W        W 8749  10.751   9.519  10.585
 4550W        W 8750   4.143   7.082  11.817
 4551W        W 8751   6.871   2.250  10.579
 4552W        W 8752  10.516   1.762  11.355
 4553W        W 8753   3.902   9.348   0.310
 4554W        W 8754   6.519   7.454  10.044
 4555W        W 8755   7.140   0.348   0.631
 4556W        W 8756   4.588   4.163   9.104
 4557W        W 8757   6.948   3.516   1.747
 4558W        W 8758   9.675   4.006   9.349
 4559W        W 8759   8.943  11.094   3.535
 4560W        W 8760   3.579   3.803   3.020
 4561W        W 8761   7.820   3.529   0.698
 4562W        W 8762   4.212   9.936   2.311
 4563W        W 8763   7.214   0.447  10.559
 4564W        W 8764   9.438   6.846   1.678
 4565W        W 8765   2.894   6.531   9.046
 4566W        W 8766   0.052   0.671   0.639
 4567W        W 8767   2.683  10.298   2.226
 4568W        W 8768   3.141   8.507   3.288
 4569W        W 8769   8.606   8.645   9.039
 4570W        W 8770  11.356   7.524  11.097
 4571W        W 8771   4.183   3.360  10.941
 4572W        W 8772   7.134   2.269   1.324
 4573W        W 8773   5.269   3.131   4.005
 4574W        W 8774   6.580   8.792   3.353
 4575W        W 8775   8.860   1.980   0.776
 4576W        W 8776  10.084   7.942  11.959
 4577W        W 8777  11.316   6.825   3.152
 4578W        W 8778   3.292   9.497   9.366
 4579W        W 8779   0.064   7.030   9.265
 4580W        W 8780   4.637  11.258  11.104
 4581W        W 8781   9.994   9.904   2.179
 4582W        W 8782  10.888   3.125  10.415
 4583W        W 8783  10.296  10.332   2.702
 4584W        W 8784   2.405   9.478   1.193
 4585W        W 8785   2.320   7.367   3.547
 4586W        W 8786  10.799   6.733   3.152
 4587W        W 8787  11.214   7.549   3.377
 4588W        W 8788   6.569   4.248  10.294
 4589W        W 8789   9.529   9.470   1.023
 4590W        W 8790   2.143   7.383   9.493
 4591W        W 8791   8.998   1.776   8.421
 4592W        W 8792   0.348   3.139   0.341
 4593W        W 8793   9.059  10.009   2.527
 4594W        W 8794   0.486   3.427   3.612
 4595W        W 8795   8.882   2.955   8.612
 4596W        W 8796  11.362   7.463  10.565
 4597W        W 8797  10.312   2.859   0.824
 4598W        W 8798   5.069   4.795  11.217
 4599W        W 8799   2.838   5.534   9.706
 4600W        W 8800   1.481   2.761   1.994
 4601W        W 8801   6.410   3.541   1.790
 4602W        W 8802   5.183   1.673   8.745
 4603W        W 8803   3.405   3.831   2.533
 4604W        W 8804   9.632  10.448   0.775
 4605W        W 8805   5.635   6.259  10.700
 4606W        W 8806   8.706   8.465  10.160
 4607W        W 8807   1.752   2.239   9.278
 4608W        W 8808  10.508   3.785   9.818
 4609W        W 8809   3.800   4.708   8.993
 4610W        W 8810   5.384   7.402   9.319
 4611W        W 8811   5.530   2.434   1.947
 4612W        W 8812   5.569   0.713  11.214
 4613W        W 8813   6.691   8.486  11.974
 4614W        W 8814   1.849   6.666   0.834
 4615W        W 8815   2.824   9.282  10.395
 4616W        W 8816  10.458   1.155   0.245
 4617W        W 8817   6.996   7.801   9.466
 4618W        W 8818   1.381  10.378  10.993
 4619W        W 8819   3.445   0.895   2.568
 4620W        W 8820  10.798   5.453   0.280
 4621W        W 8821   8.163   3.153   0.676
 4622W        W 8822   3.124   1.412  11.548
 4623W        W 8823   8.309   3.155   9.928
 4624W        W 8824   1.836  10.565  11.735
 4625W        W 8825  10.862   7.526   0.826
 4626W        W 8826   0.037  10.477  10.862
 4627W        W 8827  11.007   2.228  11.088
 4628W        W 8828  11.158   4.146  11.731
 4629W        W 8829   1.492   2.299  11.383
 4630W        W 8830   8.878   0.180  11.766
 4631W        W 8831  10.807   5.751   1.796
 4632W        W 8832   9.229   0.127  10.380
 4633W        W 8833   5.113   7.708   2.611
 4634W        W 8834   9.027   6.745  10.447
 4635W        W 8835   3.544   9.084   9.620
 4636W        W 8836   4.229   6.148  10.276
 4637W        W 8837   2.344   2.590   2.578
 4638W        W 8838   6.638   9.327   3.331
 4639W        W 8839   6.106   8.836   9.852
 4640W        W 8840   8.196   4.073  11.593
 4641W        W 8841   1.309  10.869   0.964
 4642W        W 8842   3.175   2.939   9.063
 4643W        W 8843   6.987   0.140  10.992
 4644W        W 8844   3.787   1.954   0.128
 4645W        W 8845   5.737   2.628  10.973
 4646W        W 8846   3.603   4.910   8.563
 4647W        W 8847  10.324   3.375   9.536
 4648W        W 8848  10.495   7.388   1.161
 4649W        W 8849   2.681   9.666  11.951
 4650W        W 8850  10.459   3.338  10.030
 4651W        W 8851   9.853   2.584   0.967
 4652W        W 8852   6.456   6.595  10.356
 4653W        W 8853  10.776  10.566  10.433
 4654W        W 8854   3.601  10.131  11.977
 4655W        W 8855   4.757   4.069   0.344
 4656W        W 8856  11.250   7.680   2.599
 4657W        W 8857   7.265   9.623   0.539
 4658W        W 8858  10.649   3.360   3.338
 4659W        W 8859  10.292   9.345  10.827
 4660W        W 8860   1.867   6.067   1.955
 4661W        W 8861   8.977   3.760   1.957
 4662W        W 8862  10.244  10.866   1.442
 4663W        W 8863   0.323   6.365   2.396
 4664W        W 8864   5.211   0.689  11.886
 4665W        W 8865   5.757   5.264   1.779
 4666W        W 8866   3.466   1.189   0.355
 4667W        W 8867   9.528   7.772  10.946
 4668W        W 8868   9.998   6.552   9.326
 4669W        W 8869   9.954   0.623  11.387
 4670W        W 8870   2.248   8.894   0.035
 4671W        W 8871  10.013   5.251   1.001
 4672W        W 8872  10.105   6.105   0.497
 4673W        W 8873   9.512   9.884   8.992
 4674W        W 8874   7.730   0.258   9.828
 4675W        W 8875   7.988   0.842   2.919
 4676W        W 8876   4.311   5.367   2.742
 4677W        W 8877   1.335   4.780  10.583
 4678W        W 8878   2.690   4.290   3.002
 4679W        W 8879   1.138   4.879  10.097
 4680W        W 8880   4.779   1.385   1.940
 4681W        W 8881  11.023   9.074   0.139
 4682W        W 8882   9.696   7.152  11.272
 4683W        W 8883   2.641   6.390   8.627
 4684W        W 8884   6.225   7.696   8.369
 4685W        W 8885  10.476   6.666   9.508
 4686W        W 8886   4.834   8.802  11.845
 4687W        W 8887   5.161   2.672   4.200
 4688W        W 8888   5.661   2.735   9.487
 4689W        W 8889   5.913   9.974   2.693
 4690W        W 8890   9.608   6.904   2.793
 4691W        W 8891   5.025   3.232  11.952
 4692W        W 8892   8.897   0.335  10.774
 4693W        W 8893  11.366   8.366   9.982
 4694W        W 8894   1.025   9.287  10.728
 4695W        W 8895   2.620   7.434   0.197
 4696W        W 8896   4.043   3.321   9.371
 4697W        W 8897   5.628   7.548   8.875
 4698W        W 8898   2.530   3.056  11.569
 4699W        W 8899   6.635  11.109   0.045
 4700W        W 8900   8.131   9.610  10.512
 4701W        W 8901  10.209   7.984   1.680
 4702W        W 8902   0.750   0.962   9.535
 4703W        W 8903   7.615   4.864   0.348
 4704W        W 8904   6.491   1.053  11.942
 4705W        W 8905   4.606   3.063  11.066
 4706W        W 8906  10.515   4.159   9.479
 4707W        W 8907   1.443  10.859  11.249
 4708W        W 8908   5.168   0.787   3.507
 4709W        W 8909   9.098  10.291   0.011
 4710W        W 8910   9.983   3.835   2.252
 4711W        W 8911   0.261   6.609   2.971
 4712W        W 8912   3.522   3.370   9.447
 4713W        W 8913   3.699   3.351   3.291
 4714W        W 8914   8.355   4.607   8.915
 4715W        W 8915   3.757   4.109  11.046
 4716W        W 8916   6.862   3.110   2.833
 4717W        W 8917   1.003   1.630   8.960
 4718W        W 8918   8.463   6.383   2.206
 4719W        W 8919   5.256   4.230   9.520
 4720W        W 8920   3.376  10.085   8.677
 4721W        W 8921   5.668   6.611   0.585
 4722W        W 8922   0.261   8.640   1.928
 4723W        W 8923   8.158   8.389   8.452
 4724W        W 8924   1.420   4.317  10.818
 4725W        W 8925   3.565   1.216   9.783
 4726W        W 8926   5.250   8.906   3.639
 4727W        W 8927  10.890   4.414   1.811
 4728W        W 8928  10.471   5.001   9.884
 4729W        W 8929  11.286   7.755  11.545
 4730W        W 8930   0.812   0.776   2.230
 4731W        W 8931   5.552   4.482  10.698
 4732W        W 8932   8.178  11.485   1.161
 4733W        W 8933  11.270   0.897  10.476
 4734W        W 8934   7.005   1.119  11.048
 4735W        W 8935   0.797   0.192  10.050
 4736W        W 8936   2.003  11.296   3.182
 4737W        W 8937   9.016   1.715   1.287
 4738W        W 8938   4.727   2.345   9.537
 4739W        W 8939   9.819   2.875   3.326
 4740W        W 8940   3.809   3.638   0.202
 4741W        W 8941   7.685   0.274   1.167
 4742W        W 8942   8.218   9.009   9.979
 4743W        W 8943  10.013   9.232   8.653
 4744W        W 8944   7.402  10.868   9.556
 4745W        W 8945  11.441   1.168   2.642
 4746W        W 8946  10.949   5.927   0.294
 4747W        W 8947   5.571   2.170   1.503
 4748W        W 8948   4.602   3.272   3.222
 4749W        W 8949   8.566   5.230   0.944
 4750W        W 8950   8.308   7.055   8.835
 4751W        W 8951   3.283  10.489   0.247
 4752W        W 8952  10.365   6.543   1.481
 4753W        W 8953   7.932   2.937   2.390
 4754W        W 8954   3.180   3.861   8.840
 4755W        W 8955   5.533   5.783  10.471
 4756W        W 8956   3.232   8.073   8.667
 4757W        W 8957   9.042   0.172  11.255
 4758W        W 8958   4.210   6.748   1.263
 4759W        W 8959   0.803   0.049  10.553
 4760W        W 8960  10.822   4.696   2.603
 4761W        W 8961  11.070   6.848   9.236
 4762W        W 8962  11.461   3.974   9.002
 4763W        W 8963  10.904   5.370   1.460
 4764W        W 8964  11.415   6.537   9.453
 4765W        W 8965   9.990   1.368   0.262
 4766W        W 8966   4.122   7.004   9.286
 4767W        W 8967   1.795   3.335   1.765
 4768W        W 8968  10.112  10.550   0.748
 4769W        W 8969   8.380   2.231   9.748
 4770W        W 8970   6.733   4.559   9.405
 4771W        W 8971  10.572   2.765   1.708
 4772W        W 8972   4.964   7.021   3.134
 4773W        W 8973   0.244   2.146   9.782
 4774W        W 8974   7.822   7.981   2.297
 4775W        W 8975   3.961   6.009  11.513
 4776W        W 8976  11.344   4.626   1.867
 4777W        W 8977   4.583   7.562   0.337
 4778W        W 8978   5.560   4.583   2.464
 4779W        W 8979  10.448   7.546   9.374
 4780W        W 8980   7.480   4.331  11.394
 4781W        W 8981   8.321   8.723   2.818
 4782W        W 8982   3.657   3.255   1.873
 4783W        W 8983   2.030   6.997  10.301
 4784W        W 8984  10.280   1.783   1.132
 4785W        W 8985  11.372   8.689   8.547
 4786W        W 8986  10.153   2.194   1.921
 4787W        W 8987   7.162   9.932   2.733
 4788W        W 8988   0.274   6.237  11.169
 4789W        W 8989   1.201   1.009   2.019
 4790W        W 8990  10.448   9.867   2.953
 4791W        W 8991   8.718   0.004  10.438
 4792W        W 8992   9.347   2.200  11.119
 4793W        W 8993   8.528   3.476   1.271
 4794W        W 8994   9.134   5.192  10.829
 4795W        W 8995   4.780   7.918   0.025
 4796W        W 8996  11.436  11.423  10.779
 4797W        W 8997   0.665   9.425   3.390
 4798W        W 8998   0.461   0.005   9.732
 4799W        W 8999   1.942   7.922  11.811
 4800W        W 9000  10.430   8.548   8.921
 4801W        W 9001   3.819   2.886  10.338
 4802W        W 9002   4.877   4.989   1.406
 4803W        W 9003   1.140   2.812   0.591
 4804W        W 9004   7.388   3.780   0.739
 4805W        W 9005   8.532   6.777  10.751
 4806W        W 9006   2.131   4.745   0.350
 4807W        W 9007   4.749   1.600  10.704
 4808W        W 9008   1.544   2.862   0.926
 4809W        W 9009   9.033  10.965   0.347
 4810W        W 9010   0.693   7.107   2.176
 4811W        W 9011   1.246   2.807  11.299
 4812W        W 9012  11.022  10.140   1.804
 4813W        W 9013   4.782   1.304   2.453
 4814W        W 9014   9.589   9.781   2.955
 4815W        W 9015  10.806   4.567   0.664
 4816W        W 9016   5.957   6.096   9.743
 4817W        W 9017   9.956   5.302   0.413
 4818W        W 9018   9.182   4.709   9.183
 4819W        W 9019   9.098   7.657  10.137
 4820W        W 9020   0.241   2.251   1.839
 4821W        W 9021   9.952  11.052  11.349
 4822W        W 9022   9.512  10.117   9.463
 4823W        W 9023   9.429   6.621  11.259
 4824W        W 9024   1.144   9.580   3.388
 4825W        W 9025   9.801   8.601   1.961
 4826W        W 9026   8.054   4.565   0.206
 4827W        W 9027   9.958   1.884   0.162
 4828W        W 9028   6.581   7.499   8.695
 4829W        W 9029   7.146   4.555   8.674
 4830W        W 9030   0.501   7.923   9.615
 4831W        W 9031   3.450   6.052   1.234
 4832W        W 9032   1.588   6.163  10.036
 4833W        W 9033   1.688   0.834   2.142
 4834W        W 9034   5.946   1.370   2.049
 4835W        W 9035   1.094   8.517   2.437
 4836W        W 9036   1.856   4.046  10.903
 4837W        W 9037   6.682   2.382   3.549
 4838W        W 9038   6.530   8.546   1.643
 4839W        W 9039   0.906   3.651   0.811
 4840W        W 9040   6.840  11.190   3.136
 4841W        W 9041   1.165   5.532   9.469
 4842W        W 9042   6.871   1.159   1.946
 4843W        W 9043  10.435   9.973  11.923
 4844W        W 9044   6.706   4.687   0.151
 4845W        W 9045   1.618   7.984   0.874
 4846W        W 9046   0.282   3.498  10.792
 4847W        W 9047  10.019   7.566  11.120
 4848W        W 9048   7.111  10.180  11.326
 4849W        W 9049   7.978   5.225   0.305
 4850W        W 9050   5.616   1.370   8.798
 4851W        W 9051   8.949   6.163   8.838
 4852W        W 9052   2.257   4.180   8.513
 4853W        W 9053   5.135   5.643  11.240
 4854W        W 9054   4.732   8.578  10.250
 4855W        W 9055   7.748   1.823   2.979
 4856W        W 9056   0.166   9.465   9.503
 4857W        W 9057   7.680   1.331  11.386
 4858W        W 9058   6.307   4.024   2.240
 4859W        W 9059   0.616   2.216  10.139
 4860W        W 9060   7.589   6.203  11.954
 4861W        W 9061   0.788   5.222  10.254
 4862W        W 9062   7.996   2.485   8.848
 4863W        W 9063   7.409   4.289   0.749
 4864W        W 9064   8.366   3.285  11.768
 4865W        W 9065   8.573   4.570   9.806
 4866W        W 9066   0.380   0.300  11.511
 4867W        W 9067   3.010   3.490   2.382
 4868W        W 9068   8.988   0.441   0.708
 4869W        W 9069   0.329   8.343  11.417
 4870W        W 9070   3.052   5.582   3.222
 4871W        W 9071   1.994   1.017  11.680
 4872W        W 9072  10.514   8.372  11.013
 4873W        W 9073   5.869  10.038   8.944
 4874W        W 9074   2.592   5.993   9.516
 4875W        W 9075   4.147   0.534   0.538
 4876W        W 9076   4.337   8.147   2.727
 4877W        W 9077   8.734   7.103   3.139
 4878W        W 9078   8.044   1.912  11.013
 4879W        W 9079   3.953   8.669   2.201
 4880W        W 9080   2.621  10.991   3.011
 4881W        W 9081   9.651   4.256   2.263
 4882W        W 9082   5.574   1.824   9.043
 4883W        W 9083   3.761   4.622  11.160
 4884W        W 9084   0.409   5.246  11.569
 4885W        W 9085   5.634   4.801   0.668
 4886W        W 9086   7.910   8.751   9.516
 4887W        W 9087   0.754   3.020   8.520
 4888W        W 9088   2.883   7.050   1.485
 4889W        W 9089   5.772  10.879  10.401
 4890W        W 9090   1.274  11.387   9.317
 4891W        W 9091   2.420   2.566   3.086
 4892W        W 9092   0.591   2.638   9.308
 4893W        W 9093   9.760   9.065   1.749
 4894W        W 9094   1.427   6.120   2.198
 4895W        W 9095   9.359   2.832  11.830
 4896W        W 9096   6.145  11.034   9.601
 4897W        W 9097   1.817   3.592  10.694
 4898W        W 9098   1.729   9.909  10.582
 4899W        W 9099   4.391  10.492  10.082
 4900W        W 9100   7.715   0.853  11.942
 4901W        W 9101   5.123   8.505   1.083
 4902W        W 9102   3.208   2.182   1.766
 4903W        W 9103   0.661   9.150  11.076
 4904W        W 9104   9.505   2.353   9.622
 4905W        W 9105   9.940   2.161   1.267
 4906W        W 9106   9.284  11.401  11.660
 4907W        W 9107   7.920   5.504  10.510
 4908W        W 9108  10.604   3.107   0.467
 4909W        W 9109   5.659   8.491   0.742
 4910W        W 9110   5.103   6.336   2.424
 4911W        W 9111   7.471   1.315   8.783
 4912W        W 9112   6.542   1.151  10.337
 4913W        W 9113   7.589   6.517   1.314
 4914W        W 9114   0.569  10.360   0.940
 4915W        W 9115   3.999   7.617   1.368
 4916W        W 9116   5.787   9.954  10.308
 4917W        W 9117   8.493   2.656  10.533
 4918W        W 9118   9.338   7.943   0.221
 4919W        W 9119   3.083   9.131   1.546
 4920W        W 9120   1.794   4.501   3.714
 4921W        W 9121   1.679   0.182   1.187
 4922W        W 9122   7.478   0.911  10.447
 4923W        W 9123   7.377   7.324  10.138
 4924W        W 9124   1.844   1.196   3.101
 4925W        W 9125   9.494   7.627  11.455
 4926W        W 9126   6.591   3.955   2.686
 4927W        W 9127   1.110   5.140  11.866
 4928W        W 9128  11.340   7.189   8.822
 4929W        W 9129   2.078   5.948   9.579
 4930W        W 9130   9.389   9.782  10.884
 4931W        W 9131   1.785   4.901   1.042
 4932W        W 9132   2.797  11.062   2.525
 4933W        W 9133   0.474   1.747   9.584
 4934W        W 9134  10.368   2.228  11.945
 4935W        W 9135   7.019   9.572  11.245
 4936W        W 9136  11.295   6.705   0.854
 4937W        W 9137   6.947   6.090  10.051
 4938W        W 9138   4.636   4.530   3.136
 4939W        W 9139   3.347   3.327   3.691
 4940W        W 9140   5.145   8.888   9.985
 4941W        W 9141   3.881  10.869  10.739
 4942W        W 9142   4.339   0.946  10.837
 4943W        W 9143   4.726   2.799   0.713
 4944W        W 9144   9.827   7.682   1.916
 4945W        W 9145   2.773  11.462  11.375
 4946W        W 9146   7.232  11.389   1.869
 4947W        W 9147  10.866   2.619  10.290
 4948W        W 9148   9.885   6.376  10.308
 4949W        W 9149   2.641   3.083   2.368
 4950W        W 9150   6.419   8.725   8.265
 4951W        W 9151  10.959   9.575  11.964
 4952W        W 9152   0.824   2.433   0.422
 4953W        W 9153   5.466   4.106   9.060
 4954W        W 9154   2.896  10.940  10.812
 4955W        W 9155   8.610   6.413   1.275
 4956W        W 9156   5.114   9.462   2.419
 4957W        W 9157   5.863   6.680   2.147
 4958W        W 9158   9.989   1.965   3.437
 4959W        W 9159   0.809   6.256   0.920
 4960W        W 9160   0.722  10.843   1.731
 4961W        W 9161   5.737   9.197  11.816
 4962W        W 9162   2.655   2.269   9.491
 4963W        W 9163   0.269   1.457   3.469
 4964W        W 9164   9.940   4.224   2.688
 4965W        W 9165   3.821   8.109  11.799
 4966W        W 9166   2.991   5.660   8.586
 4967W        W 9167  10.002   6.176  10.772
 4968W        W 9168   5.501   0.979   9.106
 4969W        W 9169  11.395   2.642   0.532
 4970W        W 9170   9.798  10.928   0.928
 4971W        W 9171  10.005  10.818   2.738
 4972W        W 9172   2.742   7.981   9.507
 4973W        W 9173  10.774   7.632   2.390
 4974W        W 9174   4.770   7.590   1.748
 4975W        W 9175  10.763   4.922   3.595
 4976W        W 9176  10.300   1.933  10.939
 4977W        W 9177   1.612   6.159   0.988
 4978W        W 9178  10.346   6.989   9.051
 4979W        W 9179   8.110   9.944   0.257
 4980W        W 9180   6.934   4.412   1.822
 4981W        W 9181   4.656   4.732   3.604
 4982W        W 9182   6.556   5.454   0.460
 4983W        W 9183   7.920   9.967   9.987
 4984W        W 9184   5.039   4.583   3.916
 4985W        W 9185   2.201   3.314   2.195
 4986W        W 9186   5.681   9.097   3.048
 4987W        W 9187   5.539   4.102   2.585
 4988W        W 9188   2.539   2.674   0.869
 4989W        W 9189  10.251   7.258   2.348
 4990W        W 9190   5.663   3.179   8.881
 4991W        W 9191   8.429  11.005  11.745
 4992W        W 9192   1.038   4.087   0.520
 4993W        W 9193   3.390   6.603  10.321
 4994W        W 9194  10.310   6.572  11.970
 4995W        W 9195   4.159   9.087   9.098
 4996W        W 9196   9.928   5.682   9.914
 4997W        W 9197   3.494   8.499   8.930
 4998W        W 9198   4.365  10.990  10.756
 4999W        W 9199   9.994   1.646  10.090
 5000W        W 9200  10.043   1.286   8.821
 5001W        W 9201  10.051   0.861   0.048
 5002W        W 9202   6.081   5.777   1.706
 5003W        W 9203   1.262   9.452  10.003
 5004W        W 9204   2.514   7.725   2.704
 5005W        W 9205   9.900   0.778   8.900
 5006W        W 9206   3.984   1.345  11.474
 5007W        W 9207   2.080   1.620   3.355
 5008W        W 9208   8.663   3.086  10.288
 5009W        W 9209  10.537  10.838   3.367
 5010W        W 9210   2.250   9.332  11.263
 5011W        W 9211   8.451   2.639   2.047
 5012W        W 9212   7.401  11.314   8.824
 5013W        W 9213   8.184   0.776   8.500
 5014W        W 9214   0.177   6.078   2.785
 5015W        W 9215   8.675   9.965   2.863
 5016W        W 9216   4.556   5.310   9.663
 5017W        W 9217   5.959   6.271   2.649
 5018W        W 9218   3.716  10.779   2.778
 5019W        W 9219   1.594   5.608   3.165
 5020W        W 9220   4.721   4.526   2.621
 5021W        W 9221   8.127   4.611   3.562
 5022W        W 9222   6.840   9.367   0.673
 5023W        W 9223   0.086   5.648  10.822
 5024W        W 9224   0.623   1.470   0.745
 5025W        W 9225   2.344   0.672   0.760
 5026W        W 9226   8.345   2.140   3.738
 5027W        W 9227   4.907   6.081   1.004
 5028W        W 9228  10.229  11.412   9.393
 5029W        W 9229   7.109   2.634   9.797
 5030W        W 9230  10.888   7.555   9.658
 5031W        W 9231   5.544   6.433  11.279
 5032W        W 9232   0.963   2.339   9.102
 5033W        W 9233   5.490   0.006   0.019
 5034W        W 9234   1.617   3.482  10.213
 5035W        W 9235   4.734   2.826   2.009
 5036W        W 9236   4.956   8.078   1.977
 5037W        W 9237   8.543   5.491   9.850
 5038W        W 9238   0.707   4.153  11.001
 5039W        W 9239  11.277   2.215   9.415
 5040W        W 9240   9.616   8.370   9.913
 5041W        W 9241   5.783   9.866   2.007
 5042W        W 9242   6.968   4.564   0.915
 5043W        W 9243   4.794   1.655   0.429
 5044W        W 9244   2.288  11.250  11.428
 5045W        W 9245   1.277   0.501   1.875
 5046W        W 9246   4.085   2.326   0.307
 5047W        W 9247   7.231   4.460   9.547
 5048W        W 9248   9.886  10.479   9.406
 5049W        W 9249   1.928   6.386  10.463
 5050W        W 9250   7.012   8.298   9.721
 5051W        W 9251   0.750   8.399   0.402
 5052W        W 9252   9.385   3.914   1.672
 5053W        W 9253   9.875   2.639   2.857
 5054W        W 9254   6.753  10.757   1.875
 5055W        W 9255   5.473   8.100   2.032
 5056W        W 9256   9.390   0.945  11.890
 5057W        W 9257   5.503  11.032   9.040
 5058W        W 9258   6.227   2.746   9.885
 5059W        W 9259   2.275   7.094   0.066
 5060W        W 9260  11.283  11.419   9.358
 5061W        W 9261   5.665   0.698  10.713
 5062W        W 9262  10.873   8.332   9.652
 5063W        W 9263  10.285   5.966  11.193
 5064W        W 9264   6.976   3.171   1.376
 5065W        W 9265   2.749   8.498   9.473
 5066W        W 9266  10.853   7.623   1.871
 5067W        W 9267   9.403   4.390  11.052
 5068W        W 9268   7.491  11.340   9.333
 5069W        W 9269  10.814   3.915   1.893
 5070W        W 9270   2.586   6.303   9.988
 5071W        W 9271  10.588   7.871   0.010
 5072W        W 9272   0.454  11.331   0.713
 5073W        W 9273  11.432   5.022   2.169
 5074W        W 9274   4.616  11.428   9.128
 5075W        W 9275   8.925   5.352   8.526
 5076W        W 9276   8.874   2.833   2.837
 5077W        W 9277   0.487   3.611  11.538
 5078W        W 9278   8.445   2.950   1.554
 5079W        W 9279   8.060   3.928   1.923
 5080W        W 9280   0.508   5.386  11.016
 5081W        W 9281   2.455   2.519  11.877
 5082W        W 9282   2.777   3.107   1.423
 5083W        W 9283   6.170  10.562   9.404
 5084W        W 9284   4.648  10.886   1.353
 5085W        W 9285   1.046   9.501   0.780
 5086W        W 9286   4.655   6.825   2.295
 5087W        W 9287   5.203   9.851   9.017
 5088W        W 9288   0.281   9.918   0.914
 5089W        W 9289   5.811   7.085   0.386
 5090W        W 9290   7.884   6.944   2.972
 5091W        W 9291   3.843  10.791   9.883
 5092W        W 9292   2.606   6.214  11.881
 5093W        W 9293   1.379   2.027   8.972
 5094W        W 9294   0.825   1.879  10.923
 5095W        W 9295   4.091   0.869  11.293
 5096W        W 9296   2.020  11.109  10.083
 5097W        W 9297   1.345   7.849   8.805
 5098W        W 9298   2.161   4.952   1.499
 5099W        W 9299   2.642   9.752  10.542
 5100W        W 9300  10.544  11.230   2.296
 5101W        W 9301   6.279   0.436   3.322
 5102W        W 9302   3.859   7.351   2.228
 5103W        W 9303   3.849   8.491   2.673
 5104W        W 9304  10.038   3.313   1.424
 5105W        W 9305   3.480   2.222  10.499
 5106W        W 9306   0.363   9.608   1.570
 5107W        W 9307   8.870   4.135   9.865
 5108W        W 9308   0.163   3.672   2.765
 5109W        W 9309   0.504   3.064  10.684
 5110W        W 9310   4.176  10.818   1.877
 5111W        W 9311   4.137  10.911  10.301
 5112W        W 9312   5.356   9.453   0.325
 5113W        W 9313   0.143  10.583   3.083
 5114W        W 9314  10.575   0.880  11.835
 5115W        W 9315   2.872   8.626   2.865
 5116W        W 9316   9.389   2.683   3.525
 5117W        W 9317   5.751   7.781  10.033
 5118W        W 9318   8.544   1.475   1.333
 5119W        W 9319   8.118   9.417   1.055
 5120W        W 9320   9.373   2.729  11.321
 5121W        W 9321   6.741   7.889   9.911
 5122W        W 9322   5.780   4.815  10.358
 5123W        W 9323   7.656  10.294  10.799
 5124W        W 9324   5.102   5.715  10.735
 5125W        W 9325   9.155   3.743   0.207
 5126W        W 9326   2.187   0.801   8.904
 5127W        W 9327   0.285   7.557   3.290
 5128W        W 9328   6.855   8.573   2.975
 5129W        W 9329   0.648  10.357   2.349
 5130W        W 9330   2.940   0.259  10.962
 5131W        W 9331   2.983   4.574   9.985
 5132W        W 9332   6.488   4.038   0.805
 5133W        W 9333   3.848   4.690   8.160
 5134W        W 9334   4.800   2.726   1.537
 5135W        W 9335   8.156   1.827   9.981
 5136W        W 9336   3.364   2.374   0.017
 5137W        W 9337   8.501   1.885  11.248
 5138W        W 9338   3.762  10.351   8.960
 5139W        W 9339   9.586   0.614   0.236
 5140W        W 9340   8.592   5.010  10.137
 5141W        W 9341   6.661  10.371  11.096
 5142W        W 9342   9.544   2.368   2.216
 5143W        W 9343  10.703   1.315  11.538
 5144W        W 9344   1.418   3.885  11.482
 5145W        W 9345   8.052   2.773   0.363
 5146W        W 9346   0.416   5.712   9.959
 5147W        W 9347   4.167   7.462   9.063
 5148W        W 9348  10.361   4.557  11.450
 5149W        W 9349   4.695   3.557   0.432
 5150W        W 9350   6.785   3.140   9.175
 5151W        W 9351   7.686   5.771   8.322
 5152W        W 9352   4.587   6.372   2.510
 5153W        W 9353   5.568   8.973   0.420
 5154W        W 9354   2.754   3.400  10.297
 5155W        W 9355   2.819   2.355   2.751
 5156W        W 9356   5.451   2.401   2.706
 5157W        W 9357   6.723   2.805   0.468
 5158W        W 9358   3.174   0.811   9.110
 5159W        W 9359   8.986  10.012  10.125
 5160W        W 9360  11.376   5.580   0.214
 5161W        W 9361   4.519   3.207   9.538
 5162W        W 9362   8.052   1.830   3.445
 5163W        W 9363   8.478   6.966   0.459
 5164W        W 9364  10.452   8.080   2.978
 5165W        W 9365   7.625   0.747   3.412
 5166W        W 9366   4.091  11.392  10.504
 5167W        W 9367   1.914   5.211  11.227
 5168W        W 9368   4.541   5.449   2.269
 5169W        W 9369   5.586   3.682   3.802
 5170W        W 9370   7.375   4.794  10.532
 5171W        W 9371  11.315   6.419   2.802
 5172W        W 9372   1.705   2.317   0.935
 5173W        W 9373   5.046   9.841   2.122
 5174W        W 9374  11.492  11.463   2.014
 5175W        W 9375   9.180   9.533   2.242
 5176W        W 9376   0.775   7.171   9.933
 5177W        W 9377   6.960   1.253  11.942
 5178W        W 9378   0.772   7.498   1.800
 5179W        W 9379   0.867   9.128   1.051
 5180W        W 9380   5.164   5.576  11.758
 5181W        W 9381  10.119   5.027  10.300
 5182W        W 9382  10.121   1.961  10.471
 5183W        W 9383   4.993   1.512  10.121
 5184W        W 9384   8.839   6.911   9.541
 5185W        W 9385   0.805   2.037  11.622
 5186W        W 9386   0.738   5.516   2.998
 5187W        W 9387   6.281   5.022   0.365
 5188W        W 9388   1.266   5.269  10.443
 5189W        W 9389   5.335   6.718  10.852
 5190W        W 9390   1.614   5.070  11.966
 5191W        W 9391   0.268  11.432   0.244
 5192W        W 9392   0.487   4.585  10.833
 5193W        W 9393  11.306   8.896   1.884
 5194W        W 9394   8.725  11.254   9.577
 5195W        W 9395  10.505   7.365  10.949
 5196W        W 9396   9.106   9.048   2.519
 5197W        W 9397  11.258   4.793   0.818
 5198W        W 9398   3.276   2.641   0.861
 5199W        W 9399   8.549   0.950   9.440
 5200W        W 9400   7.060   8.349   1.965
 5201W        W 9401   5.156   0.022   2.990
 5202W        W 9402   2.999   3.818   4.144
 5203W        W 9403   1.200   8.120   0.614
 5204W        W 9404   1.345   9.561   0.396
 5205W        W 9405   0.738   0.929  10.426
 5206W        W 9406  10.338   2.571   9.411
 5207W        W 9407  10.555   1.586   9.642
 5208W        W 9408  10.239   8.466   0.391
 5209W        W 9409   2.348  10.250   2.714
 5210W        W 9410   9.968   8.063  10.953
 5211W        W 9411   2.288  11.267   0.483
 5212W        W 9412   7.646   2.456   3.167
 5213W        W 9413  10.184   0.300  10.098
 5214W        W 9414   8.421  11.321   3.168
 5215W        W 9415   9.447   6.680   2.159
 5216W        W 9416   4.128   8.082   9.640
 5217W        W 9417   9.831   0.821   9.457
 5218W        W 9418   7.170  10.379   3.395
 5219W        W 9419   0.679   6.933  10.375
 5220W        W 9420  11.301   1.795  10.971
 5221W        W 9421   2.165   2.948   8.809
 5222W        W 9422   7.733   7.728   9.868
 5223W        W 9423   8.596   6.006  11.012
 5224W        W 9424   7.493   7.076   1.873
 5225W        W 9425   1.777  10.987   2.814
 5226W        W 9426   1.809  10.485  11.243
 5227W        W 9427   2.965   7.860  10.385
 5228W        W 9428   1.823   3.696   2.291
 5229W        W 9429   9.442   8.781   0.219
 5230W        W 9430   0.399   6.050   0.244
 5231W        W 9431   0.488   3.886   2.416
 5232W        W 9432   4.688   2.652   2.983
 5233W        W 9433   0.718   0.695   9.971
 5234W        W 9434  10.397   7.470   9.875
 5235W        W 9435   3.217   0.152   9.140
 5236W        W 9436   3.746   0.613   2.962
 5237W        W 9437   1.189   5.696   2.357
 5238W        W 9438   7.556   1.041   1.939
 5239W        W 9439   7.475   8.369   2.310
 5240W        W 9440   8.602   6.454   0.382
 5241W        W 9441  10.213   2.260   0.837
 5242W        W 9442   6.653   9.889   1.995
 5243W        W 9443   3.681  11.459   9.586
 5244W        W 9444   4.658   4.624  10.934
 5245W        W 9445   4.804   9.007   3.066
 5246W        W 9446   2.673   1.146   1.252
 5247W        W 9447   4.770   6.997  10.041
 5248W        W 9448   1.369   9.520  11.903
 5249W        W 9449   2.382   3.799   9.473
 5250W        W 9450   4.657   4.753   1.805
 5251W        W 9451   2.898   9.981  11.530
 5252W        W 9452   9.237   7.355  11.082
 5253W        W 9453   8.796   8.688   0.749
 5254W        W 9454   8.102   1.439   8.705
 5255W        W 9455   9.632   9.551   1.508
 5256W        W 9456   0.713   4.680  11.330
 5257W        W 9457   8.102   8.848  11.751
 5258W        W 9458   1.818   7.407  11.815
 5259W        W 9459   4.719   8.509   0.715
 5260W        W 9460   6.326   7.456   1.474
 5261W        W 9461   3.726   8.862  10.591
 5262W        W 9462  10.356   5.040  11.160
 5263W        W 9463   1.428   5.227   2.371
 5264W        W 9464   1.891   0.471   0.817
 5265W        W 9465   2.827   7.035   2.377
 5266W        W 9466   7.907   5.217  11.431
 5267W        W 9467   1.775   5.237   2.824
 5268W        W 9468   6.392   1.257   1.756
 5269W        W 9469   1.630   3.043   0.449
 5270W        W 9470  11.082   0.936   1.225
 5271W        W 9471   1.466   0.029   0.278
 5272W        W 9472   4.093   3.526  11.794
 5273W        W 9473   5.179   0.818   1.930
 5274W        W 9474  10.107   8.980   9.100
 5275W        W 9475   2.006  10.392   9.402
 5276W        W 9476   2.742   4.610   1.352
 5277W        W 9477   4.541   5.135  11.206
 5278W        W 9478   9.010   5.680   9.782
 5279W        W 9479   4.636   4.014   1.364
 5280W        W 9480   7.812   9.522  10.899
 5281W        W 9481   4.234   1.315   3.033
 5282W        W 9482   9.388   8.609   2.308
 5283W        W 9483   1.430   5.554  11.926
 5284W        W 9484   3.795   1.110   2.924
 5285W        W 9485   9.961   2.753  10.099
 5286W        W 9486   1.169   7.304   2.890
 5287W        W 9487   5.927   5.592   9.061
 5288W        W 9488   6.535   2.866   3.607
 5289W        W 9489   9.720   1.144   2.974
 5290W        W 9490   4.083  11.347   0.878
 5291W        W 9491   0.896  11.048  10.648
 5292W        W 9492   8.311   6.791   0.941
 5293W        W 9493   7.123   7.026  11.939
 5294W        W 9494   9.954  10.869  11.883
 5295W        W 9495   3.731   6.922  11.157
 5296W        W 9496   2.211   8.039   0.572
 5297W        W 9497   9.635   4.214   1.347
 5298W        W 9498  10.642   0.699   1.377
 5299W        W 9499   7.581   7.372   2.296
 5300W        W 9500   1.989   5.331   1.853
 5301W        W 9501  10.567  10.478  11.769
 5302W        W 9502   1.607   7.000   1.908
 5303W        W 9503   8.305   4.026  10.277
 5304W        W 9504   5.645   3.225   2.555
 5305W        W 9505   6.084   0.306   2.267
 5306W        W 9506   9.568   7.680   1.453
 5307W        W 9507   9.905   3.203   9.788
 5308W        W 9508   9.611   4.902   1.722
 5309W        W 9509   8.212   3.669   9.508
 5310W        W 9510   6.680   3.972   1.721
 5311W        W 9511   9.978   8.529  10.722
 5312W        W 9512   8.476  10.265  10.036
 5313W        W 9513   0.320  11.457   9.250
 5314W        W 9514   3.678   3.612  10.977
 5315W        W 9515  11.456  10.725   9.689
 5316W        W 9516   0.175   7.187  11.328
 5317W        W 9517   8.942   9.364  11.422
 5318W        W 9518   2.611   0.836   9.223
 5319W        W 9519   0.542   3.438  10.315
 5320W        W 9520  10.213   2.722   2.098
 5321W        W 9521   5.632   8.538   1.788
 5322W        W 9522   3.958   8.001   1.758
 5323W        W 9523   8.213   3.820   3.999
 5324W        W 9524   1.216   4.042   9.233
 5325W        W 9525   2.260   1.888   9.764
 5326W        W 9526   9.886  10.789   2.231
 5327W        W 9527   5.190   9.825   3.336
 5328W        W 9528   1.967   2.146  11.285
 5329W        W 9529   8.003  10.457   2.413
 5330W        W 9530   1.934   3.203   8.398
 5331W        W 9531   0.395  10.017  10.927
 5332W        W 9532   8.569   3.569   3.133
 5333W        W 9533   9.929   7.688   2.424
 5334W        W 9534   6.564  10.907   9.329
 5335W        W 9535   2.790   5.294  11.343
 5336W        W 9536   4.964   2.514   8.616
 5337W        W 9537   6.729   8.636   0.820
 5338W        W 9538   1.863   6.914   8.765
 5339W        W 9539   3.655   0.165   2.741
 5340W        W 9540   4.989   8.301   8.933
 5341W        W 9541   7.037   9.343   8.579
 5342W        W 9542   1.247   7.580   2.063
 5343W        W 9543   7.996   5.919   0.786
 5344W        W 9544   5.633  10.958   0.948
 5345W        W 9545   0.673   8.784  10.079
 5346W        W 9546   4.000   6.205   1.847
 5347W        W 9547  10.719   7.408   3.537
 5348W        W 9548   1.625   6.669   8.332
 5349W        W 9549   0.310  11.000   9.464
 5350W        W 9550   5.231   4.687   1.658
 5351W        W 9551   2.792   4.826  11.630
 5352W        W 9552   3.148   3.338   1.760
 5353W        W 9553   0.144   7.900  10.001
 5354W        W 9554   6.319   6.473   2.330
 5355W        W 9555   2.192  10.990   1.855
 5356W        W 9556   0.437   0.508   2.441
 5357W        W 9557   9.716   7.046   0.304
 5358W        W 9558   0.887   7.086   1.417
 5359W        W 9559   5.217   1.381   1.689
 5360W        W 9560   1.741   4.803  10.285
 5361W        W 9561   5.793   5.161   0.302
 5362W        W 9562   1.770   8.094   9.626
 5363W        W 9563   1.189   1.912  11.283
 5364W        W 9564  10.967   9.964   9.698
 5365W        W 9565   3.796   9.361   3.414
 5366W        W 9566   6.906   2.626   2.655
 5367W        W 9567   6.376   2.530  10.337
 5368W        W 9568   2.220   1.467   0.075
 5369W        W 9569   1.158   1.311   3.641
 5370W        W 9570   7.771   0.375   3.740
 5371W        W 9571   2.295   5.778   9.138
 5372W        W 9572   8.954   7.475   2.167
 5373W        W 9573  11.253   5.133   1.204
 5374W        W 9574   1.456  10.375   3.020
 5375W        W 9575   2.859   3.217   3.518
 5376W        W 9576  10.472   8.897   2.948
 5377W        W 9577   8.625   7.364   9.443
 5378W        W 9578   1.897   4.542  10.909
 5379W        W 9579  10.092   1.304   1.216
 5380W        W 9580   7.570   1.797   9.589
 5381W        W 9581   3.150   5.615   0.104
 5382W        W 9582   4.047   5.156  11.024
 5383W        W 9583   2.688   3.105   9.000
 5384W        W 9584   0.187   1.801   1.516
 5385W        W 9585   9.796   1.301   0.767
 5386W        W 9586   8.941   0.761   1.897
 5387W        W 9587   7.563   5.063   1.236
 5388W        W 9588   6.700  10.390   2.713
 5389W        W 9589   0.838  10.289  10.088
 5390W        W 9590   0.090   9.372   0.756
 5391W        W 9591   7.666   1.027   9.603
 5392W        W 9592   7.699   6.517   1.834
 5393W        W 9593   8.113   6.691   9.908
 5394W        W 9594   3.740   9.077   2.014
 5395W        W 9595   1.694   8.896  10.900
 5396W        W 9596   7.015   5.993  11.829
 5397W        W 9597   6.229   0.798   2.425
 5398W        W 9598   8.070  10.861   2.797
 5399W        W 9599   0.225   5.468   1.900
 5400W        W 9600   8.097   3.741   1.422
 5401W        W 9601  10.886   1.388   0.005
 5402W        W 9602   8.982   8.567   2.712
 5403W        W 9603   8.457   1.464   9.523
 5404W        W 9604   0.286   7.581  11.709
 5405W        W 9605   7.106   6.685  11.336
 5406W        W 9606   2.317   7.935  10.997
 5407W        W 9607   0.354   1.279  11.841
 5408W        W 9608   3.955   6.298   1.276
 5409W        W 9609   6.652   7.488   3.653
 5410W        W 9610  11.325   8.456   2.187
 5411W        W 9611   9.115  11.423   0.726
 5412W        W 9612   0.165   5.160   0.926
 5413W        W 9613   9.886   0.389  11.839
 5414W        W 9614   5.079   0.248   0.236
 5415W        W 9615   6.238   3.490   2.265
 5416W        W 9616  10.795  10.375   3.416
 5417W        W 9617  11.194   5.258   8.764
 5418W        W 9618   5.734   8.642   3.310
 5419W        W 9619   8.974   3.670   3.455
 5420W        W 9620  11.187   1.506   8.844
 5421W        W 9621   2.739  11.270   0.218
 5422W        W 9622   5.711   2.390   1.026
 5423W        W 9623   5.090   7.736  11.645
 5424W        W 9624   1.187   8.237   0.121
 5425W        W 9625  10.622   7.846   1.415
 5426W        W 9626   7.662   3.054   0.699
 5427W        W 9627  11.357   3.785   3.170
 5428W        W 9628   4.365   5.002   1.413
 5429W        W 9629   0.191   9.234  10.333
 5430W        W 9630   8.736   7.963  10.378
 5431W        W 9631   1.712  10.833   9.419
 5432W        W 9632   9.364   6.643  11.788
 5433W        W 9633   9.139   7.326   9.568
 5434W        W 9634  11.491  11.355   9.815
 5435W        W 9635  10.757   0.230   9.912
 5436W        W 9636   1.979  10.699   8.981
 5437W        W 9637   7.754   6.290   8.257
 5438W        W 9638   0.187   5.532   9.514
 5439W        W 9639  10.819   7.141   8.899
 5440W        W 9640   6.444   2.792   8.980
 5441W        W 9641  10.099   0.736  10.542
 5442W        W 9642   6.792   6.108   1.314
 5443W        W 9643   9.514   3.305   2.288
 5444W        W 9644   5.257   5.814   2.350
 5445W        W 9645   7.313   0.456  10.057
 5446W        W 9646   8.934   0.805   2.405
 5447W        W 9647   3.663   3.601   0.715
 5448W        W 9648   0.200   3.061  10.247
 5449W        W 9649   0.432   8.686  10.889
 5450W        W 9650   7.591   6.359   3.533
 5451W        W 9651   1.291   7.851  10.917
 5452W        W 9652   3.999   1.017   0.426
 5453W        W 9653   9.476   2.800   9.899
 5454W        W 9654   7.289   1.006   0.259
 5455W        W 9655   6.762   0.665   8.438
 5456W        W 9656   5.519   3.771   1.819
 5457W        W 9657   9.523   1.363   1.303
 5458W        W 9658   0.511   7.045   8.997
 5459W        W 9659   0.213   8.715  10.387
 5460W        W 9660   0.298   3.861  11.146
 5461W        W 9661   1.420  10.882  11.780
 5462W        W 9662  10.745   9.354   2.257
 5463W        W 9663   2.040   8.376   3.209
 5464W        W 9664   1.637  10.370   2.169
 5465W        W 9665   4.645   8.119   9.678
 5466W        W 9666   9.464   6.887   9.871
 5467W        W 9667   3.690   5.430  10.348
 5468W        W 9668  11.383   6.046   0.045
 5469W        W 9669   3.350   7.210  10.967
 5470W        W 9670  10.876   8.559   8.649
 5471W        W 9671  10.733   6.990   0.399
 5472W        W 9672   3.336   9.130  11.066
 5473W        W 9673   1.637   9.630  11.466
 5474W        W 9674   5.885   1.519   9.799
 5475W        W 9675   4.899  10.396  10.178
 5476W        W 9676   1.306   5.733   0.384
 5477W        W 9677   2.140   1.750  11.578
 5478W        W 9678   9.828   0.638   3.031
 5479W        W 9679   7.703   9.046   9.913
 5480W        W 9680   7.149   7.111  10.545
 5481W        W 9681  11.455   9.851   8.706
 5482W        W 9682   1.356  10.441   9.976
 5483W        W 9683   5.495  10.755   2.464
 5484W        W 9684   5.005   7.975   3.360
 5485W        W 9685   3.248   0.188  11.457
 5486W        W 9686   2.264   7.499  10.353
 5487W        W 9687   1.488   4.255   2.377
 5488W        W 9688  10.486   2.460   9.934
 5489W        W 9689   4.954   6.409  11.722
 5490W        W 9690   7.074   1.763   1.148
 5491W        W 9691   0.418   0.345   0.514
 5492W        W 9692   8.363   7.193  11.020
 5493W        W 9693   2.359   3.065   2.787
 5494W        W 9694  10.575   6.005   2.191
 5495W        W 9695   4.296  11.381  11.528
 5496W        W 9696   2.404  10.191  11.528
 5497W        W 9697   0.981  11.475   8.584
 5498W        W 9698   9.427   0.775   2.124
 5499W        W 9699   7.708   6.611   8.684
 5500W        W 9700   6.606   8.584   3.833
 5501W        W 9701   2.367   0.392   9.159
 5502W        W 9702   8.473   5.043   9.638
 5503W        W 9703   3.725   0.842   2.061
 5504W        W 9704   1.716   0.362   1.648
 5505W        W 9705   4.271   2.267   9.289
 5506W        W 9706   0.369   8.030   9.120
 5507W        W 9707   9.997  10.033   0.720
 5508W        W 9708   0.413   3.386   1.489
 5509W        W 9709   4.218   0.026  11.004
 5510W        W 9710  11.124   1.435   2.327
 5511W        W 9711   5.098   7.002   1.033
 5512W        W 9712  11.472   5.578   1.429
 5513W        W 9713   1.379   7.064   0.115
 5514W        W 9714   1.408   3.733   1.029
 5515W        W 9715   3.304   7.623   0.796
 5516W        W 9716   6.107   1.708   3.506
 5517W        W 9717   8.474   8.436   3.587
 5518W        W 9718   9.919  10.407   3.534
 5519W        W 9719   9.527   7.738  10.423
 5520W        W 9720   8.050  10.987  10.095
 5521W        W 9721  10.866   8.686  10.023
 5522W        W 9722   2.498   4.323   2.140
 5523W        W 9723   8.681   8.526  11.759
 5524W        W 9724   2.395   6.072  10.440
 5525W        W 9725   2.866   8.900  10.736
 5526W        W 9726   7.123   5.746  11.365
 5527W        W 9727   2.873   9.339   0.294
 5528W        W 9728   5.106   9.077  11.474
 5529W        W 9729   3.441   0.215  10.983
 5530W        W 9730   4.625   4.562   0.497
 5531W        W 9731   0.638   0.521  10.859
 5532W        W 9732   8.418   7.866   3.089
 5533W        W 9733  10.396   5.612   0.906
 5534W        W 9734   1.841   5.692  11.649
 5535W        W 9735   2.034   4.691   9.874
 5536W        W 9736  11.052   5.304   1.956
 5537W        W 9737   4.845  10.457  11.461
 5538W        W 9738   4.415   4.069   3.246
 5539W        W 9739   7.288   2.271   8.823
 5540W        W 9740   3.689   1.829   1.663
 5541W        W 9741   8.399   4.156   9.267
 5542W        W 9742   7.860   3.254   0.241
 5543W        W 9743   4.373   3.247   3.663
 5544W        W 9744   9.035   5.031   1.454
 5545W        W 9745   4.250   7.017   8.775
 5546W        W 9746   7.772   0.921   0.449
 5547W        W 9747   6.124   4.556   1.317
 5548W        W 9748  10.357   6.430   9.992
 5549W        W 9749   5.864   9.406   0.329
 5550W        W 9750   4.179   1.379   0.824
 5551W        W 9751  11.208   9.851  10.188
 5552W        W 9752   7.225   9.542  10.377
 5553W        W 9753   6.026   4.272   2.610
 5554W        W 9754   4.934   2.328   2.677
 5555W        W 9755  10.343   9.509  10.299
 5556W        W 9756   2.595   9.866  11.094
 5557W        W 9757   1.435   1.725   3.107
 5558W        W 9758   5.548   5.388   2.256
 5559W        W 9759   4.877   7.110   1.498
 5560W        W 9760   0.384   1.301  11.309
 5561W        W 9761   5.576   4.628   9.015
 5562W        W 9762   5.917   6.516   9.460
 5563W        W 9763   0.241   6.794   2.093
 5564W        W 9764   9.914  10.467   1.232
 5565W        W 9765   2.301   3.350   1.316
 5566W        W 9766   4.960   9.100   8.565
 5567W        W 9767   8.533   3.871   1.721
 5568W        W 9768   1.507   4.802   2.683
 5569W        W 9769   6.238  11.462   1.407
 5570W        W 9770   1.864   6.919   3.154
 5571W        W 9771   3.157   3.606   0.769
 5572W        W 9772   7.702   9.204   1.291
 5573W        W 9773   7.882   8.072  10.210
 5574W        W 9774   9.575  11.401   0.988
 5575W        W 9775   6.754   6.568   9.943
 5576W        W 9776   3.046   5.510   2.459
 5577W        W 9777   7.319   8.558   2.771
 5578W        W 9778   3.395  10.928  10.809
 5579W        W 9779   8.036   1.314   1.260
 5580W        W 9780   5.930   3.069   0.318
 5581W        W 9781  11.266   1.015   3.556
 5582W        W 9782  10.307   3.703   1.697
 5583W        W 9783   4.602   3.362  10.038
 5584W        W 9784   8.507   7.671   9.054
 5585W        W 9785   7.734   5.249   8.526
 5586W        W 9786   1.719   3.145   2.264
 5587W        W 9787   3.145   7.032   9.900
 5588W        W 9788   2.275   2.443   1.680
 5589W        W 9789   9.494   7.391   9.960
 5590W        W 9790   7.491   0.242  11.154
 5591W        W 9791   6.624   2.341   1.381
 5592W        W 9792   8.644   7.634   9.890
 5593W        W 9793  10.976   3.584   0.456
 5594W        W 9794   3.597   2.345   0.470
 5595W        W 9795   8.128   6.605  11.286
 5596W        W 9796   6.936   0.336   1.115
 5597W        W 9797   0.912   5.725   9.000
 5598W        W 9798  10.292   5.652   2.439
 5599W        W 9799   4.195   6.915  11.339
 5600W        W 9800   0.117   0.743  10.814
 5601W        W 9801   1.454  11.366   0.841
 5602W        W 9802  10.005   0.310   9.136
 5603W        W 9803   2.245   1.923   8.721
 5604W        W 9804   1.388   1.427   1.767
 5605W        W 9805   9.125   9.935   3.097
 5606W        W 9806   8.629   1.155  11.018
 5607W        W 9807   9.285   2.663   2.553
 5608W        W 9808   9.187  11.467   0.203
 5609W        W 9809   7.521   8.770   9.150
 5610W        W 9810   2.777   1.589   1.501
 5611W        W 9811  10.685  10.587   2.944
 5612W        W 9812  10.448   8.268   3.479
 5613W        W 9813   8.379   7.916   1.357
 5614W        W 9814   2.169   0.680   2.828
 5615W        W 9815   6.442   1.159  11.199
 5616W        W 9816   7.198   6.471   1.725
 5617W        W 9817   5.424   5.276   9.549
 5618W        W 9818   0.120   1.623   2.737
 5619W        W 9819   3.175   2.819   9.926
 5620W        W 9820   3.007   4.716   2.966
 5621W        W 9821   2.045   5.151   0.664
 5622W        W 9822   6.045   9.361   9.609
 5623W        W 9823   9.032   5.129   2.394
 5624W        W 9824   8.468   0.407   1.260
 5625W        W 9825  10.339   6.475  11.008
 5626W        W 9826   7.086   8.423  11.082
 5627W        W 9827   4.047   4.749  10.711
 5628W        W 9828   2.335   7.719   8.970
 5629W        W 9829   6.553   3.080   4.133
 5630W        W 9830  11.230  11.041  11.057
 5631W        W 9831   0.001   3.449   9.077
 5632W        W 9832   3.002   8.358   9.036
 5633W        W 9833   6.233   9.327  11.983
 5634W        W 9834   2.254   2.816   9.834
 5635W        W 9835   9.900   6.158  11.463
 5636W        W 9836   8.690   6.584   1.775
 5637W        W 9837  10.429  10.467  10.793
 5638W        W 9838  10.039   4.095   0.894
 5639W        W 9839   7.014   0.768   3.143
 5640W        W 9840  10.404   4.469   2.844
 5641W        W 9841   8.752   2.304   1.809
 5642W        W 9842   9.209   3.832   9.419
 5643W        W 9843   5.486   5.037   9.994
 5644W        W 9844   6.938  10.780   2.366
 5645W        W 9845   3.511   7.729  11.944
 5646W        W 9846   0.219   2.702   1.518
 5647W        W 9847   1.878   8.179   1.990
 5648W        W 9848   9.144   9.073   9.778
 5649W        W 9849   1.194   4.801  11.479
 5650W        W 9850  11.384   9.827   9.228
 5651W        W 9851   8.597   9.344  10.630
 5652W        W 9852   7.972   2.334  10.711
 5653W        W 9853   0.504   8.043  11.829
 5654W        W 9854   4.484   2.814  10.647
 5655W        W 9855   8.922   1.567  11.187
 5656W        W 9856   3.483   3.799   1.174
 5657W        W 9857   6.436   3.523   0.875
 5658W        W 9858   6.566   2.856   1.361
 5659W        W 9859  10.449   3.291  10.622
 5660W        W 9860   3.701   8.288  11.294
 5661W        W 9861   4.135   6.576   0.774
 5662W        W 9862   4.745   0.315  10.351
 5663W        W 9863  10.060   0.110  11.430
 5664W        W 9864  10.986  11.263   9.931
 5665W        W 9865   0.838   5.070   3.221
 5666W        W 9866  10.071   1.358   2.441
 5667W        W 9867   8.889   4.180   0.264
 5668W        W 9868   0.783   9.931   3.234
 5669W        W 9869  10.847   9.667   2.670
 5670W        W 9870   3.434   3.147   0.886
 5671W        W 9871  11.021   6.964   3.575
 5672W        W 9872   1.281   2.328   2.769
 5673W        W 9873   2.159  10.836   1.369
 5674W        W 9874   7.136  10.324   2.430
 5675W        W 9875   3.419  11.072   9.931
 5676W        W 9876   2.215   3.328   9.648
 5677W        W 9877   3.496   3.971  10.626
 5678W        W 9878   1.886   5.539   9.359
 5679W        W 9879   8.679   5.192   2.863
 5680W        W 9880   5.544   7.363   9.799
 5681W        W 9881   4.314   7.515   0.763
 5682W        W 9882   0.952   2.690   2.650
 5683W        W 9883   0.199   6.827  10.509
 5684W        W 9884   5.451   4.113   4.022
 5685W        W 9885   8.201   8.089   8.947
 5686W        W 9886   8.894   5.463  10.229
 5687W        W 9887   7.476   2.368  10.496
 5688W        W 9888   7.712  11.233   9.787
 5689W        W 9889   0.196   5.234   8.991
 5690W        W 9890   1.888   6.989   1.456
 5691W        W 9891   0.952   5.271   2.164
 5692W        W 9892   7.641   0.580   1.752
 5693W        W 9893  11.406   5.691   9.938
 5694W        W 9894   2.627  11.248   9.518
 5695W        W 9895  10.868   7.164   9.998
 5696W        W 9896   3.745   4.765   2.249
 5697W        W 9897   4.684   9.928   0.520
 5698W        W 9898   7.878   1.548  11.925
 5699W        W 9899   0.744   0.424   8.662
 5700W        W 9900  11.331   0.030  11.292
 5701W        W 9901   0.454   8.001   0.611
 5702W        W 9902  10.235  11.324  10.304
 5703W        W 9903   1.442   4.239   0.233
 5704W        W 9904   4.920   1.303   3.250
 5705W        W 9905   7.675   8.983  10.904
 5706W        W 9906   6.883   8.856   8.538
 5707W        W 9907   3.674   5.490  10.864
 5708W        W 9908   4.937   4.341  10.507
 5709W        W 9909   0.384   8.777   0.326
 5710W        W 9910   6.949   4.583  10.346
 5711W        W 9911   8.230   9.597   8.795
 5712W        W 9912   5.026   2.898  10.626
 5713W        W 9913   9.758   4.567  10.628
 5714W        W 9914  11.147   8.474  10.422
 5715W        W 9915   4.455   7.992   1.892
 5716W        W 9916   6.425   1.314   1.246
 5717W        W 9917   1.427   9.073   1.216
 5718W        W 9918   9.923   6.452   3.584
 5719W        W 9919   1.323   7.157   2.324
 5720W        W 9920   8.073   4.162   1.080
 5721W        W 9921   4.803   5.238   1.869
 5722W        W 9922   0.394   3.478   9.424
 5723W        W 9923   6.936   1.683   2.106
 5724W        W 9924   4.427  10.290   0.934
 5725W        W 9925  10.031   8.087   9.821
 5726W        W 9926  10.296   3.975  11.984
 5727W        W 9927   8.393   6.164   1.704
 5728W        W 9928  11.299   3.401   0.856
 5729W        W 9929   4.464   6.309   1.157
 5730W        W 9930   0.022   8.551   0.644
 5731W        W 9931   8.820   1.172   3.385
 5732W        W 9932   3.876   7.113   1.487
 5733W        W 9933   9.025   4.329   0.733
 5734W        W 9934   7.754   1.479   1.661
 5735W        W 9935  11.360  10.126  11.629
 5736W        W 9936   4.165   5.062   2.334
 5737W        W 9937   8.927   7.578   1.670
 5738W        W 9938   3.177   7.704   9.431
 5739W        W 9939   2.292   4.790   0.959
 5740W        W 9940   1.439  11.432   8.824
 5741W        W 9941   1.429  11.316  11.530
 5742W        W 9942   7.139   2.923   8.820
 5743W        W 9943  11.182   9.277  10.998
 5744W        W 9944   0.397   3.714   3.215
 5745W        W 9945   1.019   8.475  10.313
 5746W        W 9946   8.831   5.986   8.370
 5747W        W 9947   6.354   0.806  10.687
 5748W        W 9948   5.512   3.712   8.144
 5749W        W 9949   9.541   8.622   3.241
 5750W        W 9950   5.907   3.385   1.876
 5751W        W 9951   2.273   8.434  10.304
 5752W        W 9952   5.715   9.119   3.570
 5753W        W 9953   3.612   1.887   9.509
 5754W        W 9954   1.338   4.742   2.199
 5755W        W 9955   6.046   8.349   2.695
 5756W        W 9956  10.373   6.587   3.363
 5757W        W 9957   0.302  10.562   9.160
 5758W        W 9958   9.561   5.547   1.128
 5759W        W 9959   8.521   0.976   2.085
 5760W        W 9960   2.895   7.878   1.326
 5761W        W 9961   0.090  10.580  11.730
 5762W        W 9962   5.191   0.963  11.442
 5763W        W 9963   9.068   7.597   2.664
 5764W        W 9964   2.271   0.856  10.849
 5765W        W 9965   6.289  10.510  10.774
 5766W        W 9966   3.520   3.797   3.544
 5767W        W 9967  10.574   9.990  10.985
 5768W        W 9968   6.161   1.744  11.019
 5769W        W 9969   8.103   7.677  11.188
 5770W        W 9970   2.187   8.888  11.031
 5771W        W 9971   8.921   6.040   0.791
 5772W        W 9972  10.188   4.260  10.588
 5773W        W 9973   3.279   9.083   9.076
 5774W        W 9974  10.498   9.025   8.739
 5775W        W 9975  10.042   9.018   2.183
 5776W        W 9976  10.331   5.363  10.628
 5777W        W 9977   1.682   3.800   2.831
 5778W        W 9978  11.271  10.275   0.622
 5779W        W 9979   1.933  11.439   1.853
 5780W        W 9980   4.518  10.916  11.452
 5781W        W 9981   2.764   2.061   9.042
 5782W        W 9982   6.166   9.048   2.302
 5783W        W 9983   8.964   0.369   2.690
 5784W        W 9984   9.553   6.442   9.593
 5785W        W 9985   1.373   3.828  10.957
 5786W        W 9986   7.426   7.610  11.708
 5787W        W 9987   0.988   3.672  10.400
 5788W        W 9988   4.891   7.203   0.563
 5789W        W 9989  10.457  10.743   2.461
 5790W        W 9990   3.321   3.756   9.779
 5791W        W 9991   1.759  11.385   3.592
 5792W        W 9992   7.191   7.488   1.077
 5793W        W 9993   3.132  10.798  11.291
 5794W        W 9994   0.297  10.074   1.394
 5795W        W 9995   8.619   1.988   1.439
 5796W        W 9996   5.166   1.937  10.945
 5797W        W 9997   4.708   6.060  10.776
 5798W        W 9998  10.066   7.592   1.361
 5799W        W 9999   2.331   9.860   2.408
 5800W        W10000  10.360   4.969   8.840
 5801W        W10001   4.673  10.579   1.827
 5802W        W10002   6.995   0.375   0.126
 5803W        W10003   0.604  11.349  11.783
 5804W        W10004   9.211   5.217  11.334
 5805W        W10005   8.024   5.664   8.684
 5806W        W10006   8.564  11.037   1.779
 5807W        W10007   2.511   4.769   2.872
 5808W        W10008   3.709   3.072   9.044
 5809W        W10009   3.376   9.438   3.728
 5810W        W10010   2.588   9.321   0.731
 5811W        W10011   2.677   4.295  10.272
 5812W        W10012   3.688   4.256   2.176
 5813W        W10013   8.466   9.582   0.165
 5814W        W10014   7.722   6.429   9.171
 5815W        W10015   1.916   0.988   0.743
 5816W        W10016   9.006  10.857   2.538
 5817W        W10017   2.836   5.558  10.766
 5818W        W10018  10.888  10.530   0.869
 5819W        W10019   5.652  10.135   9.840
 5820W        W10020   5.642   9.584   3.245
 5821W        W10021   6.553   1.240   2.332
 5822W        W10022   6.101   1.513   8.966
 5823W        W10023   0.866   4.866   8.513
 5824W        W10024   8.693   4.736   9.284
 5825W        W10025   6.212   1.600   3.016
 5826W        W10026   6.668   0.578  11.765
 5827W        W10027   4.696   1.313   0.795
 5828W        W10028   9.454   8.767  10.837
 5829W        W10029   2.655   9.041  11.173
 5830W        W10030   3.655   2.369   1.954
 5831W        W10031  11.496   8.937   2.353
 5832W        W10032   1.814   8.690   1.897
 5833W        W10033   8.945   8.452  11.034
 5834W        W10034   8.038   4.792   1.721
 5835W        W10035   7.093   6.500   1.180
 5836W        W10036   5.969   8.484   0.324
 5837W        W10037   9.909   1.869   2.482
 5838W        W10038   8.646   6.469   9.138
 5839W        W10039   6.226   3.642   3.141
 5840W        W10040   2.585   8.811   1.296
 5841W        W10041   3.663   9.939   1.346
 5842W        W10042   0.875   4.611  11.813
 5843W        W10043  11.414   3.652  11.467
 5844W        W10044  10.477   5.710  11.918
 5845W        W10045   7.493   4.077   9.814
 5846W        W10046   7.912   7.934   3.159
 5847W        W10047   1.455   9.892   9.282
 5848W        W10048  10.524   0.088   2.796
 5849W        W10049   2.232  10.668   0.880
 5850W        W10050   2.887   3.442  11.356
 5851W        W10051  11.437   1.066  11.290
 5852W        W10052   8.286   3.724   0.862
 5853W        W10053   5.303   9.776   1.192
 5854W        W10054   0.333   7.492   9.293
 5855W        W10055  10.404   4.212   1.798
 5856W        W10056   8.929   0.139   8.789
 5857W        W10057   0.361   8.362   1.478
 5858W        W10058  10.770   1.820   1.231
 5859W        W10059   1.154  10.350   2.321
 5860W        W10060  10.080   3.260  11.441
 5861W        W10061   6.412   7.819  10.896
 5862W        W10062   6.047   4.331   0.843
 5863W        W10063   6.644   1.289   0.439
 5864W        W10064   8.002   4.261  11.117
 5865W        W10065   8.736   5.807  10.568
 5866W        W10066   7.415   8.291  10.074
 5867W        W10067   8.931   8.074   9.895
 5868W        W10068   6.739  11.417   1.340
 5869W        W10069   1.625   6.164   9.521
 5870W        W10070   1.697   0.948  10.148
 5871W        W10071   1.638   2.484   3.583
 5872W        W10072   6.848   1.410   1.502
 5873W        W10073   5.230   2.156  11.845
 5874W        W10074  11.362   0.402  11.728
 5875W        W10075   2.215   8.968   2.004
 5876W        W10076   8.907   8.519   2.193
 5877W        W10077   3.911   7.045   3.250
 5878W        W10078  10.841   5.873   3.603
 5879W        W10079   2.492   7.068  10.507
 5880W        W10080  10.483   5.643   1.406
 5881W        W10081   3.193   5.623  11.532
 5882W        W10082   7.935   7.022   9.581
 5883W        W10083   6.690   0.324   3.031
 5884W        W10084   9.368   3.195   8.500
 5885W        W10085   4.720   7.035   9.018
 5886W        W10086   5.088   7.155  10.983
 5887W        W10087   8.327   4.819   2.170
 5888W        W10088  11.308   4.787   0.287
 5889W        W10089   2.358   8.659   2.899
 5890W        W10090   6.473   8.009   8.680
 5891W        W10091  11.055   2.853   1.875
 5892W        W10092   6.535   8.471   9.908
 5893W        W10093   5.557   3.275   9.809
 5894W        W10094  10.544   5.544  11.044
 5895W        W10095  10.289   0.289   1.341
 5896W        W10096   3.410  10.194   0.641
 5897W        W10097   4.920   1.154  10.513
 5898W        W10098   2.664  10.966  11.259
 5899W        W10099   7.531  10.172  11.924
 5900W        W10100   2.113   6.657   0.361
 5901W        W10101  10.354   1.063   9.688
 5902W        W10102   7.331   8.342   1.402
 5903W        W10103   2.550   8.850  10.346
 5904W        W10104   2.687   5.831   1.603
 5905W        W10105   7.512   9.571   2.802
 5906W        W10106   8.653   3.284   2.639
 5907W        W10107   6.483  11.392   2.832
 5908W        W10108   5.299   4.768   9.421
 5909W        W10109   1.679   9.751  10.102
 5910W        W10110   0.275   7.598   2.745
 5911W        W10111   2.897  10.419   1.371
 5912W        W10112  10.391   3.820   1.207
 5913W        W10113   6.223   8.162   9.097
 5914W        W10114   9.512   0.234   0.596
 5915W        W10115   6.056   7.078   1.701
 5916W        W10116   4.482  10.497  10.592
 5917W        W10117   0.378  11.028   8.966
 5918W        W10118  11.073   1.873   0.791
 5919W        W10119   3.382   9.784   0.942
 5920W        W10120   5.431   1.054  10.436
 5921W        W10121   6.550   9.527   1.648
 5922W        W10122   6.229   1.879   8.421
 5923W        W10123   0.291   8.477   8.794
 5924W        W10124   1.665   3.145  11.950
 5925W        W10125   9.030   8.514   3.255
 5926W        W10126   4.666   8.772   9.792
 5927W        W10127   9.301   2.843   8.909
 5928W        W10128   7.260  11.484   1.325
 5929W        W10129   6.307   8.815   0.021
 5930W        W10130   9.446   6.169   8.698
 5931W        W10131  10.003   4.567   1.797
 5932W        W10132   1.747   1.976   3.545
 5933W        W10133   1.065   2.314   3.564
 5934W        W10134  11.269   9.464  10.520
 5935W        W10135   2.598   1.106   8.786
 5936W        W10136  10.884   4.724   9.963
 5937W        W10137   2.127   6.807  10.763
 5938W        W10138   7.135   7.956  11.954
 5939W        W10139   1.442  10.887  10.741
 5940W        W10140   9.264   7.495  11.914
 5941W        W10141   4.243   8.460   1.834
 5942W        W10142  10.012   5.776   1.228
 5943W        W10143   4.482  10.698   2.299
 5944W        W10144  10.075   2.658  11.968
 5945W        W10145   2.767   8.489   2.016
 5946W        W10146  10.516   4.547  10.294
 5947W        W10147   7.402   9.869  10.988
 5948W        W10148   4.222  11.197   2.258
 5949W        W10149   8.243   8.581   0.811
 5950W        W10150   8.969   6.772   0.503
 5951W        W10151   6.708   1.862   9.810
 5952W        W10152   1.608   0.674   0.425
 5953W        W10153   9.160   6.716   2.674
 5954W        W10154   8.999   7.391   0.806
 5955W        W10155   7.113   5.568   9.969
 5956W        W10156   2.643   9.921   1.356
 5957W        W10157  11.322   0.677   0.159
 5958W        W10158   7.122   2.528   0.259
 5959W        W10159   5.304   5.251   1.481
 5960W        W10160   5.220   0.220  10.181
 5961W        W10161  10.993   8.890   2.297
 5962W        W10162   0.675   9.249   8.854
 5963W        W10163   7.477   1.837   2.466
 5964W        W10164  10.976   5.981   8.969
 5965W        W10165   2.671  11.480   2.797
 5966W        W10166   0.697   4.118  11.538
 5967W        W10167   8.878   5.587  11.025
 5968W        W10168  11.181   7.213  11.478
 5969W        W10169   5.789   6.990  10.066
 5970W        W10170   9.169   2.238   3.449
 5971W        W10171   1.768  11.300   2.318
 5972W        W10172   6.935   2.228  10.082
 5973W        W10173  10.447   7.526   8.866
 5974W        W10174   0.896   0.225   1.651
 5975W        W10175   8.605   8.978  11.481
 5976W        W10176   1.406   9.824   1.999
 5977W        W10177   4.274   4.335   2.813
 5978W        W10178  10.067   5.068   1.947
 5979W        W10179  10.388  11.088  11.614
 5980W        W10180  10.620   3.142   2.857
 5981W        W10181  10.968   7.671  10.795
 5982W        W10182   7.027   7.127  11.049
 5983W        W10183   9.355   9.519  11.693
 5984W        W10184  10.601   8.012   0.899
 5985W        W10185   5.052   5.235  10.959
 5986W        W10186   1.592   1.940   2.641
 5987W        W10187   1.456   4.506   1.090
 5988W        W10188   9.244   7.065  11.512
 5989W        W10189   0.178   9.449   2.598
 5990W        W10190   1.064   6.689   0.322
 5991W        W10191  11.423   1.498  11.575
 5992W        W10192   6.245   8.954   9.365
 5993W        W10193   3.815  10.853   2.273
 5994W        W10194   6.149   5.706  11.750
 5995W        W10195   5.557   1.860   2.677
 5996W        W10196   2.504   8.960   9.473
 5997W        W10197  10.027  10.961   0.430
 5998W        W10198   9.996   8.573   3.474
 5999W        W10199   7.090   6.990   3.458
 6000W        W10200   4.210  10.021  10.290
 6001W        W10201   3.319  10.338  11.299
 6002W        W10202   3.016   6.233   1.595
 6003W        W10203   2.719   0.437   3.018
 6004W        W10204   6.148  11.010  11.926
 6005W        W10205   7.992   6.104   2.008
 6006W        W10206   4.547   4.322  11.374
 6007W        W10207   5.041   0.180   0.745
 6008W        W10208   4.067   9.697  11.065
 6009W        W10209   9.975   8.578   2.963
 6010W        W10210   5.131   3.599   3.203
 6011W        W10211  10.438   1.924  10.057
 6012W        W10212   2.691   5.493   3.567
 6013W        W10213   7.669   9.858  10.513
 6014W        W10214   8.270   5.564   1.210
 6015W        W10215   3.884   0.769  11.750
 6016W        W10216   1.008   6.978   3.598
 6017W        W10217   2.335   7.947   3.271
 6018W        W10218   0.631   7.896   3.542
 6019W        W10219   7.925   1.434   9.754
 6020W        W10220   1.355   2.529   8.794
 6021W        W10221   8.255   8.065  10.555
 6022W        W10222  10.851   0.982   2.220
 6023W        W10223   0.497   1.910   1.005
 6024W        W10224   9.377   9.615   9.421
 6025W        W10225   7.929   5.179   2.260
 6026W        W10226   8.796   4.600   2.268
 6027W        W10227   5.132   3.705   0.204
 6028W        W10228   9.289   7.127   2.370
 6029W        W10229   8.375   0.456   9.434
 6030W        W10230   7.902  11.252   0.763
 6031W        W10231   1.010   7.320  10.925
 6032W        W10232   9.148   5.146   9.908
 6033W        W10233   6.519  10.264   0.317
 6034W        W10234   6.987   3.589   2.675
 6035W        W10235   6.195  11.433   1.907
 6036W        W10236   6.085   9.494   3.535
 6037W        W10237   1.476   8.871   3.603
 6038W        W10238   5.536   9.533   0.779
 6039W        W10239  11.012   3.223   9.123
 6040W        W10240   0.719   6.522   3.495
 6041W        W10241  11.496   5.354  11.228
 6042W        W10242   2.716   4.023   2.509
 6043W        W10243   9.774   3.087   0.027
 6044W        W10244   7.097   4.452  10.847
 6045W        W10245   3.807   6.962   0.631
 6046W        W10246   7.420   6.695   2.241
 6047W        W10247  11.036  10.977   9.526
 6048W        W10248   6.984   8.653  11.562
 6049W        W10249   4.638   7.216   1.034
 6050W        W10250   1.721   0.315   2.146
 6051W        W10251   5.502   4.552   9.840
 6052W        W10252  10.409   3.044  11.088
 6053W        W10253  10.188   7.047   1.404
 6054W        W10254   2.435   8.628   9.866
 6055W        W10255   8.431   0.296  10.990
 6056W        W10256  10.991   5.376   3.494
 6057W        W10257  10.596   1.401   2.403
 6058W        W10258   9.591   8.241   0.898
 6059W        W10259   3.674   9.483  11.321
 6060W        W10260   6.585   0.333  10.558
 6061W        W10261   3.666   5.773   9.959
 6062W        W10262   6.977   1.752  11.760
 6063W        W10263   9.852   8.143  10.326
 6064W        W10264  10.369   3.979   2.578
 6065W        W10265   8.239   2.177   2.772
 6066W        W10266  10.216   2.178  11.398
 6067W        W10267   2.469  10.433   3.184
 6068W        W10268   3.803   9.806  10.087
 6069W        W10269   8.639   1.026   8.611
 6070W        W10270   2.589   4.865   1.786
 6071W        W10271   6.045   3.245   2.858
 6072W        W10272   2.685   3.390   9.441
 6073W        W10273  10.018   7.678  10.621
 6074W        W10274   6.906   5.868  10.916
 6075W        W10275   5.938  10.800   2.214
 6076W        W10276   4.490   7.677   1.253
 6077W        W10277   9.620  11.074   1.417
 6078W        W10278   5.919   5.031   2.230
 6079W        W10279   9.938   2.212   9.402
 6080W        W10280   4.550   4.461   4.047
 6081W        W10281   9.080   8.230   0.970
 6082W        W10282   6.072   8.493  10.777
 6083W        W10283  10.184  10.368   2.153
 6084W        W10284   6.272   8.484   8.685
 6085W        W10285   7.695   3.491   1.185
 6086W        W10286   1.841   1.730   2.234
 6087W        W10287   3.129  11.345   9.599
 6088W        W10288   8.962   0.682  11.747
 6089W        W10289   0.779   9.272   9.837
 6090W        W10290   9.353   4.743   0.814
 6091W        W10291   2.207   5.734   1.456
 6092W        W10292   0.771   4.307   9.091
 6093W        W10293   8.919   3.912   9.003
 6094W        W10294   0.291   9.776   0.432
 6095W        W10295   1.863   7.748   8.666
 6096W        W10296   4.845   8.942   1.030
 6097W        W10297  10.872   5.053   9.556
 6098W        W10298   7.382   9.646   9.297
 6099W        W10299   4.262   9.469   2.511
 6100W        W10300  11.078   4.304   1.025
 6101W        W10301   0.882   4.164   2.181
 6102W        W10302   5.802   6.151  10.223
 6103W        W10303   3.463   9.527   9.846
 6104W        W10304   9.934   1.712   1.531
 6105W        W10305   9.507   5.370   0.148
 6106W        W10306   2.842   5.732   0.710
 6107W        W10307   6.986   4.734  11.657
 6108W        W10308   8.767   8.578   1.715
 6109W        W10309   3.901   9.821   0.889
 6110W        W10310   9.561   3.753  11.356
 6111W        W10311   3.676   0.245  10.529
 6112W        W10312   4.621   6.995  11.066
 6113W        W10313   7.831   0.855  11.244
 6114W        W10314   8.486  11.276  10.042
 6115W        W10315   2.768  10.650   0.183
 6116W        W10316   8.976   2.824  10.608
 6117W        W10317   4.436  10.941   3.391
 6118W        W10318  10.319  10.644  11.326
 6119W        W10319   3.731   8.106   0.302
 6120W        W10320   2.841   8.195  11.492
 6121W        W10321   4.730   3.308  10.543
 6122W        W10322   1.163   8.965   9.741
 6123W        W10323  10.115   1.455  11.343
 6124W        W10324   6.243   1.374   9.476
 6125W        W10325   0.485   7.843  10.408
 6126W        W10326   3.111   8.903   0.430
 6127W        W10327   3.350   0.433   0.512
 6128W        W10328   5.190   8.158   9.420
 6129W        W10329  11.212   2.793   9.348
 6130W        W10330   9.349  10.525   2.327
 6131W        W10331   9.003  10.501   3.401
 6132W        W10332   0.346   8.851  11.374
 6133W        W10333   2.166   2.397   9.536
 6134W        W10334   8.037   0.372   1.502
 6135W        W10335   9.702  11.450   9.427
 6136W        W10336   1.701   4.815  11.541
 6137W        W10337   1.959  10.546   1.790
 6138W        W10338   8.138   8.905   0.359
 6139W        W10339   6.302   6.668   1.856
 6140W        W10340   4.206   4.630  11.765
 6141W        W10341   7.100   8.949   0.575
 6142W        W10342   4.205   2.741   3.604
 6143W        W10343   2.982   3.727   3.644
 6144W        W10344   3.729   8.844   9.228
 6145W        W10345   6.438   0.466   0.207
 6146W        W10346   6.160  11.262   2.376
 6147W        W10347   5.149   6.572   0.686
 6148W        W10348   5.157  11.055   2.713
 6149W        W10349   2.732   0.195  10.439
 6150W        W10350   7.704  10.787   2.152
 6151W        W10351   8.146  11.044   1.427
 6152W        W10352   5.452   8.036  10.759
 6153W        W10353  10.296   1.298   0.690
 6154W        W10354   5.611   8.582   3.796
 6155W        W10355   9.522   2.523   0.602
 6156W        W10356   5.182   4.470   2.858
 6157W        W10357   0.911   3.160   3.603
 6158W        W10358   2.377  11.158   0.984
 6159W        W10359   3.643   6.907  10.661
 6160W        W10360   6.607   5.626  10.106
 6161W        W10361   6.436   2.390  11.450
 6162W        W10362   1.981   8.445  10.891
 6163W        W10363   1.192   9.442   9.506
 6164W        W10364   6.305   7.185   0.432
 6165W        W10365   8.828   1.675   0.177
 6166W        W10366   9.779   2.839   2.365
 6167W        W10367   4.027   4.625   1.389
 6168W        W10368   5.475  10.058   2.966
 6169W        W10369   6.310  10.286   8.987
 6170W        W10370   7.067  10.948   9.070
 6171W        W10371   5.727   2.827   2.876
 6172W        W10372   1.161   1.674  11.754
 6173W        W10373  11.492   9.100  11.952
 6174W        W10374   7.889   5.465  11.886
 6175W        W10375   5.576   7.107  11.141
 6176W        W10376   4.296   2.049   8.797
 6177W        W10377   6.173   6.481   1.417
 6178W        W10378   3.318   9.992   2.752
 6179W        W10379   0.722   1.153   0.198
 6180W        W10380   0.280  10.062   9.032
 6181W        W10381   7.144   9.989   9.601
 6182W        W10382  10.913   6.243   2.501
 6183W        W10383   6.661  10.354   2.209
 6184W        W10384  10.845   3.427   9.624
 6185W        W10385   7.927   1.297  10.263
 6186W        W10386   9.826   4.237   9.808
 6187W        W10387   7.301   0.735   2.301
 6188W        W10388   0.897   8.038   2.521
 6189W        W10389  10.387   9.910   9.975
 6190W        W10390   3.730   6.483   0.354
 6191W        W10391   5.366   5.496   2.739
 6192W        W10392   1.855   4.099   1.349
 6193W        W10393   9.108  10.735   8.951
 6194W        W10394  10.070   1.753   9.077
 6195W        W10395  10.275   0.748   3.304
 6196W        W10396   1.335   6.598  11.348
 6197W        W10397   6.520   1.756   9.279
 6198W        W10398   9.320   0.483   8.757
 6199W        W10399   6.615  10.536   9.681
 6200W        W10400   1.792   8.533  10.421
 6201W        W10401   6.564   4.201   0.246
 6202W        W10402   0.750   4.577   3.418
 6203W        W10403   9.318   4.142  11.986
 6204W        W10404   6.692   9.451   1.165
 6205W        W10405   9.950  10.574   1.742
 6206W        W10406   2.113   7.593   0.249
 6207W        W10407   8.887   1.014   2.887
 6208W        W10408   8.536  10.367   3.155
 6209W        W10409   6.974  11.444  11.872
 6210W        W10410   3.403   9.886   1.791
 6211W        W10411   6.203   8.590   0.843
 6212W        W10412  11.204   7.913  10.362
 6213W        W10413  11.239   0.853   3.044
 6214W        W10414   7.737   0.755  10.026
 6215W        W10415   8.134   5.425   0.743
 6216W        W10416   9.064   5.686   1.121
 6217W        W10417   6.124   7.539   3.584
 6218W        W10418   8.830   1.469   0.879
 6219W        W10419   5.976  11.347  10.380
 6220W        W10420   5.963   8.081   8.634
 6221W        W10421   8.472   7.411   2.326
 6222W        W10422   4.581   0.060  11.996
 6223W        W10423  10.010   3.317   2.257
 6224W        W10424   8.715   8.406   9.579
 6225W        W10425  11.355   3.210   2.137
 6226W        W10426   0.691   1.656   0.013
 6227W        W10427   4.885   2.293   0.623
 6228W        W10428   9.330   8.330   3.639
 6229W        W10429  10.283   2.678  11.450
 6230W        W10430  10.583   8.091   9.160
 6231W        W10431   8.577   8.795   3.258
 6232W        W10432   0.928  10.298  11.846
 6233W        W10433   8.204   5.969  10.484
 6234W        W10434   2.095  10.014   3.604
 6235W        W10435   3.621   7.240   0.081
 6236W        W10436   4.747   9.923  11.448
 6237W        W10437   0.369  10.300  10.497
 6238W        W10438   9.298   0.578  10.951
 6239W        W10439   5.055   1.835   2.770
 6240W        W10440   1.998  10.231   0.745
 6241W        W10441   1.006   6.063  10.797
 6242W        W10442   4.899   7.533   3.064
 6243W        W10443   5.458   0.445   3.237
 6244W        W10444   7.936   0.489  10.876
 6245W        W10445   4.556   3.212   1.690
 6246W        W10446   2.275   6.728   1.794
 6247W        W10447   9.333   1.444   0.018
 6248W        W10448   3.781   0.326   1.902
 6249W        W10449   7.488   3.556  10.005
 6250W        W10450   4.527   7.515  11.819
 6251W        W10451   4.601   3.886  10.039
 6252W        W10452   5.748   5.678   9.543
 6253W        W10453   8.872  10.276  11.534
 6254W        W10454   5.476   1.368  11.508
 6255W        W10455   5.199   0.473   9.750
 6256W        W10456  11.455   6.895   2.653
 6257W        W10457   1.919   8.111  11.309
 6258W        W10458   5.977   5.334   0.744
 6259W        W10459  10.836   7.286  10.494
 6260W        W10460   5.682   8.060   1.551
 6261W        W10461   0.896  10.979   2.763
 6262W        W10462   0.808   6.384  11.998
 6263W        W10463   1.339  11.246   2.682
 6264W        W10464   7.275   6.904   1.435
 6265W        W10465   4.756   9.318  11.206
 6266W        W10466   8.911   9.016   2.047
 6267W        W10467   8.580   4.549   0.450
 6268W        W10468   8.892   4.240   1.677
 6269W        W10469   7.857   3.541   3.647
 6270W        W10470   5.628   8.024   0.991
 6271W        W10471   0.870   9.682  11.027
 6272W        W10472   9.895  11.451   2.150
 6273W        W10473   1.802   0.404   3.140
 6274W        W10474   9.063   6.230  11.152
 6275W        W10475   9.879  10.454  10.598
 6276W        W10476   7.831   5.619   2.577
 6277W        W10477  11.330   6.515   2.305
 6278W        W10478   0.147   2.195  10.305
 6279W        W10479   3.536   4.258  11.498
 6280W        W10480  10.500   0.394  10.489
 6281W        W10481   9.675   0.723   1.662
 6282W        W10482   3.974   3.653   1.203
 6283W        W10483   2.604   6.185   0.750
 6284W        W10484  11.082   4.702  11.820
 6285W        W10485   1.642   4.809   0.526
 6286W        W10486   4.160  10.552  11.015
 6287W        W10487   1.627   1.843   8.525
 6288W        W10488   3.685   8.352   9.429
 6289W        W10489   1.406  10.729   2.549
 6290W        W10490   4.293  10.343   9.595
 6291W        W10491   7.291   3.687   3.154
 6292W        W10492   1.197   4.555   0.637
 6293W        W10493   7.593  10.348  11.440
 6294W        W10494   9.003   9.819   9.121
 6295W        W10495   3.304   2.109   0.856
 6296W        W10496   4.195   2.013   2.222
 6297W        W10497   3.377   1.802  10.797
 6298W        W10498   1.346   8.046   2.295
 6299W        W10499   3.097   4.268   9.128
 6300W        W10500   7.143   3.050   1.918
 6301W        W10501   2.697   9.102   2.867
 6302W        W10502   7.669   3.657   9.504
 6303W        W10503  10.979  11.006   3.128
 6304W        W10504   7.723   0.392  10.403
 6305W        W10505   2.326   4.363   2.629
 6306W        W10506   8.432   2.839   9.526
 6307W        W10507   3.370   4.450   8.499
 6308W        W10508   9.186   6.923   3.852
 6309W        W10509   6.701   2.834  10.061
 6310W        W10510   7.875   1.002   8.897
 6311W        W10511   3.868   6.485  10.447
 6312W        W10512   5.697   1.865   1.116
 6313W        W10513   9.540   1.898   9.299
 6314W        W10514   8.946  11.219   9.101
 6315W        W10515   1.431   0.740   2.990
 6316W        W10516   2.693   8.681  11.544
 6317W        W10517   6.842  10.080   3.115
 6318W        W10518   6.928   1.947   8.997
 6319W        W10519   3.650   9.388  10.330
 6320W        W10520   9.452   0.516   3.409
 6321W        W10521   5.042   4.625   8.184
 6322W        W10522   9.992   2.340   0.366
 6323W        W10523   2.140   4.607   1.886
 6324W        W10524   6.757   8.372   8.468
 6325W        W10525  10.661   6.095  10.275
 6326W        W10526   7.479   1.256  10.029
 6327W        W10527   4.110   1.904   9.619
 6328W        W10528   5.946   9.127   8.998
 6329W        W10529   1.378   3.590   9.003
 6330W        W10530   9.578   6.131  11.052
 6331W        W10531   1.077   4.492   2.577
 6332W        W10532   1.738   3.928   8.902
 6333W        W10533   1.926   2.107   1.380
 6334W        W10534   3.725   3.132  10.814
 6335W        W10535   5.658   1.005   0.839
 6336W        W10536   9.404   0.801  11.396
 6337W        W10537   5.488   7.052   1.370
 6338W        W10538   3.634   9.541  11.873
 6339W        W10539  10.409   7.094   3.243
 6340W        W10540   0.162   2.426   3.261
 6341W        W10541  10.372   4.056   3.129
 6342W        W10542   9.411   3.172   3.282
 6343W        W10543   0.917   4.029   2.670
 6344W        W10544   8.187   3.851   2.933
 6345W        W10545   7.912   7.992   0.123
 6346W        W10546   0.752   4.691   0.915
 6347W        W10547   8.165   2.381   9.330
 6348W        W10548   5.610   4.720   1.992
 6349W        W10549   3.923   8.946   0.975
 6350W        W10550   8.889   6.024   1.852
 6351W        W10551   6.706   0.898   9.812
 6352W        W10552   8.805   3.448  11.987
 6353W        W10553   6.561   2.593   0.920
 6354W        W10554   6.933   6.007   1.817
 6355W        W10555   9.539   8.628   9.429
 6356W        W10556   1.311  10.789   0.401
 6357W        W10557   3.725   8.384  10.791
 6358W        W10558   0.816   1.749   9.957
 6359W        W10559   1.803   9.358   0.335
 6360W        W10560   2.341   5.221  10.001
 6361W        W10561   9.311   1.705   0.863
 6362W        W10562   9.839   0.192   2.774
 6363W        W10563   9.444  11.026   9.246
 6364W        W10564   1.940   2.746   3.239
 6365W        W10565   9.306   1.081   1.706
 6366W        W10566  10.416   5.948   9.032
 6367W        W10567   3.085   1.111   9.701
 6368W        W10568   8.456   7.512   0.415
 6369W        W10569   5.562  10.178   3.481
 6370W        W10570   9.118   1.861   3.112
 6371W        W10571   9.414   3.303   9.829
 6372W        W10572   9.320   5.734  11.271
 6373W        W10573   0.515   7.010   3.495
 6374W        W10574  10.208   3.130   3.536
 6375W        W10575   3.641   3.130   9.894
 6376W        W10576   1.388   8.103   9.253
 6377W        W10577   0.456   9.771   2.876
 6378W        W10578   1.316   0.344   3.320
 6379W        W10579   6.571   7.070   2.703
 6380W        W10580   7.352   3.572  11.878
 6381W        W10581   7.645  11.054   0.321
 6382W        W10582   4.799   8.958   2.016
 6383W        W10583   4.233   4.379   3.629
 6384W        W10584   5.466   8.471   0.245
 6385W        W10585   1.747   2.220   9.808
 6386W        W10586   8.611   5.901   2.283
 6387W        W10587   1.200   9.932  10.248
 6388W        W10588   3.039   7.418   1.174
 6389W        W10589   9.815   2.858   1.395
 6390W        W10590   6.078   0.396   1.216
 6391W        W10591   4.340  11.316   1.337
 6392W        W10592   5.957   6.263   1.855
 6393W        W10593   0.825  10.494  11.391
 6394W        W10594   7.101   2.749   1.113
 6395W        W10595   5.326   4.169   8.306
 6396W        W10596   1.400  10.963   9.027
 6397W        W10597   4.613   9.198   8.900
 6398W        W10598   1.151   9.990   0.229
 6399W        W10599   4.924   3.357   0.913
 6400W        W10600  11.119   1.610   3.481
 6401W        W10601   4.906   2.827   9.503
 6402W        W10602  10.135   7.955   9.335
 6403W        W10603   5.212  10.103  11.356
 6404W        W10604   2.748   3.859  10.506
 6405W        W10605   7.184   3.016   2.434
 6406W        W10606   2.848   6.036   0.296
 6407W        W10607   9.453   5.662   8.903
 6408W        W10608   8.441   4.093   8.762
 6409W        W10609  11.007   2.295   0.492
 6410W        W10610   5.238   2.401   9.456
 6411W        W10611   2.149   9.033  10.032
 6412W        W10612   4.077  10.417   2.452
 6413W        W10613   0.446   6.951   0.221
 6414W        W10614   9.580   5.036   1.220
 6415W        W10615   3.350  10.388   1.641
 6416W        W10616   3.382   6.659   0.688
 6417W        W10617   3.274   1.586   0.649
 6418W        W10618   4.619   8.420  11.248
 6419W        W10619   7.970   2.839   9.253
 6420W        W10620  10.392   1.813   3.182
 6421W        W10621   3.674   1.274   0.810
 6422W        W10622   1.653   9.101   9.862
 6423W        W10623   4.591   5.242  10.185
 6424W        W10624   5.147   0.432  11.263
 6425W        W10625   8.160  10.744   1.899
 6426W        W10626   2.401   9.299  10.735
 6427W        W10627  10.435   3.983  11.415
 6428W        W10628   6.145   2.837   9.392
 6429W        W10629   1.349   7.586   0.666
 6430W        W10630   4.035   2.895   8.618
 6431W        W10631  10.115   3.824   0.468
 6432W        W10632  11.334   1.380  10.294
 6433W        W10633   8.013   6.993   0.201
 6434W        W10634   1.123   9.491  11.445
 6435W        W10635  11.341   9.817   2.422
 6436W        W10636   9.606  11.122  10.727
 6437W        W10637   4.182   8.142  11.428
 6438W        W10638   9.411   6.888   1.165
 6439W        W10639   4.735   5.743   1.818
 6440W        W10640   3.143  10.967  10.354
 6441W        W10641   7.176   2.913   0.626
 6442W        W10642   6.678   0.027   9.637
 6443W        W10643   7.138  10.479   0.944
 6444W        W10644   9.616   1.242   2.162
 6445W        W10645   3.814  11.266   0.443
 6446W        W10646   6.729   7.992   4.077
 6447W        W10647   1.247   9.389   1.757
 6448W        W10648   4.200   6.624   3.132
 6449W        W10649   9.531   8.726  11.332
 6450W        W10650   1.188   5.925   0.839
 6451W        W10651   0.002   0.486   2.177
 6452W        W10652   2.914   7.983   1.835
 6453W        W10653   4.742   4.439   8.584
 6454W        W10654  10.450   3.745  10.346
 6455W        W10655   6.069   4.575   8.889
 6456W        W10656   3.407   0.012   8.662
 6457W        W10657   0.934   5.099  10.802
 6458W        W10658   0.213  10.560  10.093
 6459W        W10659   9.159  10.829  10.722
 6460W        W10660   7.591   6.073   1.036
 6461W        W10661   9.590   9.133   3.365
 6462W        W10662   7.694   2.144  11.308
 6463W        W10663   0.461   9.108  11.807
 6464W        W10664  10.360   5.459  10.134
 6465W        W10665   8.893   3.298   2.149
 6466W        W10666   0.344   8.978   2.720
 6467W        W10667   9.172   3.296  10.718
 6468W        W10668   4.809   8.506   9.371
 6469W        W10669  11.248   4.756   2.881
 6470W        W10670   7.203  11.233   2.354
 6471W        W10671   6.104   4.046   0.397
 6472W        W10672   1.858   3.697   9.807
 6473W        W10673  11.220   8.634   2.691
 6474W        W10674   1.531   8.276  11.627
 6475W        W10675   8.013  11.467   8.883
 6476W        W10676   0.696   5.282   8.787
 6477W        W10677   3.789   9.307  10.845
 6478W        W10678   2.782   6.994   9.256
 6479W        W10679   8.050   5.966  11.912
 6480W        W10680   3.900   2.376  10.298
 6481W        W10681   8.400   1.332  10.029
 6482W        W10682   0.460  11.028   2.188
 6483W        W10683   0.867   2.351  11.180
 6484W        W10684   9.622   6.086   3.375
 6485W        W10685   2.708   5.202   3.042
 6486W        W10686   1.750   8.908   0.830
 6487W        W10687   7.006  10.713  11.258
 6488W        W10688  11.058   7.225   2.611
 6489W        W10689   9.846   5.462  10.390
 6490W        W10690   1.268   3.258   3.237
 6491W        W10691   7.543   2.831   0.260
 6492W        W10692   4.394   0.508  11.087
 6493W        W10693   0.874   9.992   2.684
 6494W        W10694  10.339   0.888   0.993
 6495W        W10695   5.583   6.913   9.534
 6496W        W10696   0.229   6.622   3.696
 6497W        W10697   6.411   8.116   2.433
 6498W        W10698   5.616   3.669   2.807
 6499W        W10699   5.272   3.129  10.210
 6500W        W10700   1.339   5.831   1.318
 6501W        W10701   8.410   7.931   9.507
 6502W        W10702   5.717   0.884   8.621
 6503W        W10703   7.450   0.015  10.702
 6504W        W10704   9.021   2.023  11.869
 6505W        W10705   8.843   9.916   1.553
 6506W        W10706   4.188   8.238  10.932
 6507W        W10707  10.047   8.633  10.217
 6508W        W10708   6.416   0.454   9.728
 6509W        W10709   5.138  11.079   2.193
 6510W        W10710   2.876   6.975   0.359
 6511W        W10711   1.819   1.767   9.527
 6512W        W10712   7.902   0.189   9.335
 6513W        W10713   9.310   1.722  10.894
 6514W        W10714   4.009  11.296   1.762
 6515W        W10715   0.477   0.585   0.961
 6516W        W10716  11.389   9.511   0.268
 6517W        W10717   2.194  10.993  11.884
 6518W        W10718  10.455   0.822  10.167
 6519W        W10719   8.792   9.483   8.783
 6520W        W10720   0.034   8.119   9.535
 6521W        W10721   9.587   1.653   0.434
 6522W        W10722   5.240   4.272   0.390
 6523W        W10723   0.647   5.010   0.046
 6524W        W10724   3.482   7.811  10.353
 6525W        W10725  10.096   6.983  11.746
 6526W        W10726   4.080  11.412  12.000
 6527W        W10727   4.181   0.352   1.022
 6528W        W10728   1.755   8.097  10.134
 6529W        W10729   7.531   8.867   3.426
 6530W        W10730  10.432   9.890   2.428
 6531W        W10731   6.099   7.153   2.203
 6532W        W10732  10.337   4.694   0.953
 6533W        W10733  10.482   5.140   1.203
 6534W        W10734   7.839   9.921   3.116
 6535W        W10735  11.475   7.127   1.735
 6536W        W10736   6.148  10.332   9.871
 6537W        W10737   7.626   0.237   3.240
 6538W        W10738   2.880   6.624   0.761
 6539W        W10739   2.768  10.397  11.215
 6540W        W10740   4.190   3.584   3.294
 6541W        W10741  10.480   8.437   1.677
 6542W        W10742   0.200   0.851   9.209
 6543W        W10743   5.564   8.811  11.447
 6544W        W10744   5.982   8.306   9.929
 6545W        W10745   7.360   2.098   0.418
 6546W        W10746   3.129   1.751   3.020
 6547W        W10747   1.415   5.314   1.806
 6548W        W10748   5.955   8.600   9.074
 6549W        W10749   0.321   1.824   0.530
 6550W        W10750   0.318   4.699   2.068
 6551W        W10751   1.660   9.885   3.358
 6552W        W10752   1.266   6.669   2.161
 6553W        W10753   0.531   4.402   2.476
 6554W        W10754   5.755   0.797   1.298
 6555W        W10755   1.564   6.135   2.911
 6556W        W10756   0.422   8.088   2.661
 6557W        W10757   9.021   7.216   1.327
 6558W        W10758   1.724  10.864   3.374
 6559W        W10759   9.797   5.611   8.509
 6560W        W10760   0.621   7.656   2.283
 6561W        W10761   6.219   7.916   3.225
 6562W        W10762   4.398   5.384   0.259
 6563W        W10763   4.918   5.207   0.013
 6564W        W10764   6.586   0.359   9.232
 6565W        W10765   0.872   6.828  10.845
 6566W        W10766   6.514   9.102   1.920
 6567W        W10767   2.708   2.035   9.979
 6568W        W10768   5.025   8.408   9.848
 6569W        W10769   9.290   3.293   0.021
 6570W        W10770   8.383   7.937   3.598
 6571W        W10771   1.236   6.807   1.111
 6572W        W10772   8.916   2.130  11.383
 6573W        W10773   8.556   4.032   1.237
 6574W        W10774  10.138   5.918  10.329
 6575W        W10775   1.735   1.020   2.638
 6576W        W10776   4.214   4.338  10.925
 6577W        W10777   6.004  11.443   0.911
 6578W        W10778   1.046   6.225  11.559
 6579W        W10779   8.948   6.636  11.502
 6580W        W10780   5.473   6.194   0.824
 6581W        W10781   0.838   0.495  11.328
 6582W        W10782   2.574   0.212   1.464
 6583W        W10783   6.879   2.529   9.038
 6584W        W10784   7.822   9.345   2.025
 6585W        W10785   9.513   7.898   2.713
 6586W        W10786   5.604   5.671   1.491
 6587W        W10787   4.174   8.308   0.466
 6588W        W10788   7.710   6.918   1.002
 6589W        W10789   1.259   1.814   3.580
 6590W        W10790   6.160   6.211  10.584
 6591W        W10791   9.464   1.924   1.354
 6592W        W10792   2.313   3.130   0.869
 6593W        W10793   2.240   9.130   1.532
 6594W        W10794   7.112   3.802   0.292
 6595W        W10795   4.067   4.289   9.070
 6596W        W10796   2.805   0.670  11.864
 6597W        W10797   4.198  10.389   2.961
 6598W        W10798   9.531   4.887  11.007
 6599W        W10799   8.986   9.467  10.934
 6600W        W10800  11.437   2.147   8.601
 6601W        W10801   8.029  11.481  10.855
 6602W        W10802   8.638   1.808  10.392
 6603W        W10803   4.750   8.501   1.773
 6604W        W10804   8.627   0.209   9.806
 6605W        W10805   4.085   5.127   9.034
 6606W        W10806   3.222   7.210   9.430
 6607W        W10807   3.715   7.271  11.578
 6608W        W10808   5.539   7.140   0.829
 6609W        W10809   4.946   1.397   1.263
 6610W        W10810   9.723   7.042   3.724
 6611W        W10811   0.948   0.032   3.531
 6612W        W10812   3.794   9.570   9.424
 6613W        W10813  11.321   0.187   1.193
 6614W        W10814   0.931   8.780  10.836
 6615W        W10815   1.471  10.394   9.486
 6616W        W10816   6.209  10.390   2.507
 6617W        W10817   9.438  11.045   0.032
 6618W        W10818   0.398   2.162   9.286
 6619W        W10819   7.378   3.353   0.396
 6620W        W10820   2.421   4.577   8.810
 6621W        W10821   9.927   7.247   0.979
 6622W        W10822   0.470   3.829   9.054
 6623W        W10823   9.548   3.804   9.825
 6624W        W10824   8.611   1.290   0.441
 6625W        W10825   0.298   9.051   9.836
 6626W        W10826   8.004  10.323  11.795
 6627W        W10827   6.245   7.884  10.007
 6628W        W10828   2.771   0.950   0.793
 6629W        W10829   2.891   4.440   1.837
 6630W        W10830   6.089  10.054  10.721
 6631W        W10831  10.452   1.691   1.642
 6632W        W10832   0.415  11.244   2.760
 6633W        W10833   2.125   6.441   2.185
 6634W        W10834   5.410   4.083   3.105
 6635W        W10835   3.120   0.805   0.254
 6636W        W10836   7.590  10.664   3.561
 6637W        W10837   4.555   7.110   0.138
 6638W        W10838  10.830   6.601   1.687
 6639W        W10839   2.450  10.754   8.703
 6640W        W10840   7.027   6.908   1.933
 6641W        W10841   0.296   1.930   2.376
 6642W        W10842   2.665   7.044   0.995
 6643W        W10843   1.559   6.189   8.706
 6644W        W10844   6.064   9.269  10.122
 6645W        W10845   6.124   0.816   0.927
 6646W        W10846   6.150  10.210   0.684
 6647W        W10847   3.652   7.887  10.914
 6648W        W10848   7.435   4.650  11.911
 6649W        W10849   9.792   0.547  10.920
 6650W        W10850   7.144   7.903   0.577
 6651W        W10851   1.429   3.061   8.858
 6652W        W10852  10.803   9.030   1.842
 6653W        W10853   8.582   8.887  10.950
 6654W        W10854   9.063   8.887  11.762
 6655W        W10855   1.747   6.741   2.323
 6656W        W10856   7.464  10.879  11.446
 6657W        W10857   1.776   3.859   1.805
 6658W        W10858   1.503   5.637   8.846
 6659W        W10859   5.451   8.218   3.461
 6660W        W10860   9.420   9.595   0.523
 6661W        W10861   0.836   1.958   0.602
 6662W        W10862   4.871   3.935  11.326
 6663W        W10863  10.155   4.316   2.226
 6664W        W10864   8.529   0.938  11.686
 6665W        W10865   2.190   4.609  10.494
 6666W        W10866   1.100   9.024  10.270
 6667W        W10867   7.972   2.714   0.912
 6668W        W10868   2.235  11.499  10.423
 6669W        W10869   7.060   1.434   9.112
 6670W        W10870   1.010   8.495   1.298
 6671W        W10871   7.440   0.704  10.934
 6672W        W10872   6.493   8.605   2.617
 6673W        W10873  10.246   4.129  10.093
 6674W        W10874   1.490   1.475   8.858
 6675W        W10875   2.256  10.687  11.415
 6676W        W10876   0.979   0.020  11.462
 6677W        W10877   1.257   8.134  10.030
 6678W        W10878   2.322   4.281   3.532
 6679W        W10879   1.645   6.572   1.294
 6680W        W10880   1.374   6.679   8.796
 6681W        W10881   9.266   2.441   1.796
 6682W        W10882   8.371   4.102   9.783
 6683W        W10883   5.030   5.276   9.912
 6684W        W10884   0.256   4.086   0.357
 6685W        W10885   4.146   1.881   0.860
 6686W        W10886   7.036   4.269   9.097
 6687W        W10887   2.369   6.647   0.833
 6688W        W10888   7.015   4.083  10.481
 6689W        W10889   8.890   2.641  11.469
 6690W        W10890   8.992   2.687  10.113
 6691W        W10891  10.500   3.553   0.257
 6692W        W10892   4.032   4.022  11.857
 6693W        W10893   9.861   5.559   2.155
 6694W        W10894   7.933   7.163  11.296
 6695W        W10895   8.252   8.213   4.014
 6696W        W10896   8.707   5.525   9.380
 6697W        W10897   7.564   9.185   0.569
 6698W        W10898   8.002   6.521   3.235
 6699W        W10899   5.448   8.133   8.625
 6700W        W10900   0.075   4.223   1.130
 6701W        W10901   1.199   2.186   0.937
 6702W        W10902   9.975   9.202   1.323
 6703W        W10903   1.345   8.990   2.472
 6704W        W10904   3.696   1.882   0.642
 6705W        W10905   5.097   8.602  11.358
 6706W        W10906  10.869  10.405   0.298
 6707W        W10907   6.164   7.101   9.071
 6708W        W10908   0.921   6.119   0.431
 6709W        W10909   6.205   8.481   3.165
 6710W        W10910  11.269   0.803   9.495
 6711W        W10911   0.926   0.825   1.137
 6712W        W10912   7.509   8.088   1.863
 6713W        W10913   7.612  10.023   9.004
 6714W        W10914   5.293   8.795   4.146
 6715W        W10915  11.170   0.491   3.402
 6716W        W10916   6.053   3.551   0.489
 6717W        W10917   5.284  10.420   1.576
 6718W        W10918   8.511  11.312   8.775
 6719W        W10919   6.696   3.234  11.146
 6720W        W10920  10.883   3.766  11.568
 6721W        W10921   9.802  10.135  10.222
 6722W        W10922   0.405   5.691   9.071
 6723W        W10923   8.592   9.289   1.309
 6724W        W10924   7.581   2.584   9.551
 6725W        W10925   0.761   4.144   1.672
 6726W        W10926   8.690   3.656  11.515
 6727W        W10927   3.983   7.747   2.672
 6728W        W10928   5.765  11.360  11.291
 6729W        W10929   7.097   7.375   0.365
 6730W        W10930   7.419   1.814   9.061
 6731W        W10931   8.844   0.205   9.311
 6732W        W10932   7.435   9.261   8.949
 6733W        W10933   4.249  10.848   2.726
 6734W        W10934  11.165   2.410   0.970
 6735W        W10935   3.055   2.252   3.192
 6736W        W10936  10.975   9.282   1.428
 6737W        W10937   1.409   3.778  11.993
 6738W        W10938   1.570   1.228   8.384
 6739W        W10939   2.787   0.213   9.426
 6740W        W10940   8.434   2.732   9.034
 6741W        W10941   7.033  10.771   9.913
 6742W        W10942   2.382   2.732   2.083
 6743W        W10943   9.111   1.948   1.755
 6744W        W10944   1.584   5.701   9.731
 6745W        W10945   2.028   8.072  10.567
 6746W        W10946   1.059   6.116  10.181
 6747W        W10947  11.397   4.224   3.511
 6748W        W10948   7.496   5.688  10.294
 6749W        W10949   7.878   6.101   2.924
 6750W        W10950   7.678   4.694   8.624
 6751W        W10951   9.434   9.057   1.338
 6752W        W10952   4.057   4.587   3.196
 6753W        W10953   3.180   6.688   9.465
 6754W        W10954   7.818   1.855   0.387
 6755W        W10955   9.304   3.732   0.687
 6756W        W10956  10.549   1.669  10.502
 6757W        W10957   4.146   4.780   1.888
 6758W        W10958   8.109  11.046   2.327
 6759W        W10959   4.575   2.127   3.030
 6760W        W10960   1.772  10.673   0.626
 6761W        W10961   2.006   2.770   0.014
 6762W        W10962  10.658   9.524   1.759
 6763W        W10963  10.849   5.486   9.100
 6764W        W10964   9.843   5.608   2.669
 6765W        W10965   2.810   4.672   8.046
 6766W        W10966  10.088   5.252   9.701
 6767W        W10967   4.339   7.315  10.087
 6768W        W10968   4.222   3.823   1.625
 6769W        W10969   7.946   2.690   1.934
 6770W        W10970   6.168   4.555   2.207
 6771W        W10971   2.885   4.879  10.387
 6772W        W10972   0.678   6.143   9.818
 6773W        W10973   5.214   8.186   0.677
 6774W        W10974   5.192   9.619   9.501
 6775W        W10975   3.765   4.147   9.689
 6776W        W10976  11.043   9.790  10.885
 6777W        W10977   7.088   6.846   2.899
 6778W        W10978   3.351   7.437   2.134
 6779W        W10979   3.746   5.732   0.967
 6780W        W10980   8.727   5.944   0.299
 6781W        W10981   0.280  10.310   0.506
 6782W        W10982   0.130   6.179  11.641
 6783W        W10983   1.662   7.591   9.521
 6784W        W10984   5.110   8.433  10.877
 6785W        W10985   7.521   5.725   0.675
 6786W        W10986  10.817   8.132  10.640
 6787W        W10987   5.653   2.897   0.937
 6788W        W10988  10.654   4.338   2.271
 6789W        W10989  11.051   1.367  11.160
 6790W        W10990   3.710   7.419  10.600
 6791W        W10991   1.318   1.956  10.768
 6792W        W10992   6.757  11.189  11.264
 6793W        W10993   4.129   1.217   9.943
 6794W        W10994   5.815   2.530   0.485
 6795W        W10995   0.011   0.346   2.704
 6796W        W10996   4.324  10.489   1.466
 6797W        W10997   6.974   7.576  10.320
 6798W        W10998   5.749   5.751   2.990
 6799W        W10999   6.800   1.649  10.358
 6800W        W11000   8.816  11.011  10.373
 6801W        W11001   8.440   9.046   0.891
 6802W        W11002  10.947   3.162   2.473
 6803W        W11003   1.830   3.151  11.453
 6804W        W11004   6.232  11.489   9.360
 6805W        W11005   0.886   5.452   0.243
 6806W        W11006   9.960   7.949  11.449
 6807W        W11007   9.669   5.610   3.156
 6808W        W11008   5.571   7.661  11.921
 6809W        W11009   5.134   9.670   2.869
 6810W        W11010   5.248   0.642   8.711
 6811W        W11011   4.095   8.971   9.595
 6812W        W11012   5.187   9.935   0.304
 6813W        W11013  10.786   6.152   1.473
 6814W        W11014   9.637   3.941   0.361
 6815W        W11015   9.896   5.790   1.715
 6816W        W11016   9.109   4.700   1.849
 6817W        W11017   5.385   3.286   3.539
 6818W        W11018   4.109   5.477   1.267
 6819W        W11019   1.766   2.716   9.061
 6820W        W11020   7.845   1.295   0.794
 6821W        W11021  11.098   0.241   2.403
 6822W        W11022   0.365  10.481   1.940
 6823W        W11023   2.091   8.927  10.542
 6824W        W11024   9.960   9.148  10.106
 6825W        W11025   0.864   8.212   3.015
 6826W        W11026   2.367   4.794   2.342
 6827W        W11027   6.951   5.343  11.038
 6828W        W11028   5.785   8.147   3.091
 6829W        W11029   1.835   4.314   2.758
 6830W        W11030   9.849   8.984  10.575
 6831W        W11031  10.917   2.295   1.408
 6832W        W11032   8.840   0.656  11.200
 6833W        W11033   2.222   6.214   8.887
 6834W        W11034   0.672   0.948   0.660
 6835W        W11035  10.042   3.249  10.302
 6836W        W11036   8.014   2.697   1.425
 6837W        W11037   0.139   9.320  11.331
 6838W        W11038   5.223   9.111   8.131
 6839W        W11039   6.200   2.826  10.797
 6840W        W11040   8.386   2.236  10.253
 6841W        W11041   8.435  11.483  11.941
 6842W        W11042   6.636  10.294   1.693
 6843W        W11043   6.483   7.615   9.560
 6844W        W11044   8.482   2.881   1.019
 6845W        W11045   7.439   1.424   2.749
 6846W        W11046   9.652   5.796  11.770
 6847W        W11047   3.163   3.831   1.576
 6848W        W11048   4.529   9.825  11.915
 6849W        W11049   2.277   4.408   1.325
 6850W        W11050   8.872   7.146  10.741
 6851W        W11051   5.373   1.442   9.705
 6852W        W11052   4.263   0.706   9.911
 6853W        W11053   6.093   0.886   2.950
 6854W        W11054   1.881   8.556   2.740
 6855W        W11055   7.031   1.326   3.084
 6856W        W11056   8.467   2.119   2.212
 6857W        W11057   7.257   6.697  10.837
 6858W        W11058  11.340  10.336   9.012
 6859W        W11059   4.380   2.328   0.720
 6860W        W11060   8.841   6.020   9.324
 6861W        W11061   1.433   3.642   9.503
 6862W        W11062  11.249   5.726   8.541
 6863W        W11063   7.451  10.010   0.907
 6864W        W11064  11.460   1.749   9.585
 6865W        W11065   1.662   5.632   2.141
 6866W        W11066   0.993   8.989   3.448
 6867W        W11067  11.343   1.264   9.296
 6868W        W11068  10.864   7.585  11.287
 6869W        W11069   0.692   5.719   9.504
 6870W        W11070   4.468   6.107  11.710
 6871W        W11071   9.316   1.185   0.876
 6872W        W11072   1.487   8.384  10.997
 6873W        W11073   1.298   1.205   3.157
 6874W        W11074   9.954  10.987   8.527
 6875W        W11075   0.769   7.485   8.970
 6876W        W11076   9.000   3.884   2.972
 6877W        W11077  10.462   3.548  11.751
 6878W        W11078   7.151   4.643   0.441
 6879W        W11079  10.852   6.653   2.176
 6880W        W11080   1.323  11.130   3.532
 6881W        W11081   8.392   4.922   1.357
 6882W        W11082   8.712   3.803   9.506
 6883W        W11083   1.848   1.787   9.016
 6884W        W11084   8.083  10.952   8.834
 6885W        W11085   7.869   9.578   9.183
 6886W        W11086   5.923   6.072   0.597
 6887W        W11087   9.365  10.164  10.479
 6888W        W11088   0.866   7.412   3.356
 6889W        W11089   2.822   8.856   9.101
 6890W        W11090   9.544   8.201  11.268
 6891W        W11091   1.205   7.587   1.539
 6892W        W11092   1.269   3.344  11.140
 6893W        W11093   6.149   8.707   1.343
 6894W        W11094   1.485  11.390   3.146
 6895W        W11095   8.716   0.500  10.323
 6896W        W11096  10.499   2.140   0.428
 6897W        W11097   9.465   5.914   1.488
 6898W        W11098  10.912   6.677  11.582
 6899W        W11099   1.731   3.187   9.384
 6900W        W11100   5.902  10.842  10.909
 6901W        W11101   2.151  10.315   2.221
 6902W        W11102   2.287   2.728  10.357
 6903W        W11103   8.504   9.798  10.822
 6904W        W11104   6.399   1.512  10.008
 6905W        W11105  11.443   0.893   1.636
 6906W        W11106   0.412   2.251  11.366
 6907W        W11107   8.141   1.264  11.131
 6908W        W11108   9.639   6.031   2.870
 6909W        W11109   7.037   2.791   3.606
 6910W        W11110   9.632   1.891  10.346
 6911W        W11111   1.888   7.087   0.506
 6912W        W11112   5.137   2.767   3.646
 6913W        W11113   4.863   6.147   9.763
 6914W        W11114   8.032   3.877   2.445
 6915W        W11115   4.652   1.152   9.906
 6916W        W11116   8.400   2.800  11.534
 6917W        W11117   2.772   5.782  11.230
 6918W        W11118   8.415   0.039   1.622
 6919W        W11119   3.814  11.397   1.300
 6920W        W11120  11.385  10.600   0.227
 6921W        W11121   5.823   0.691   0.468
 6922W        W11122   1.776   4.321  10.448
 6923W        W11123   5.093   4.788  10.715
 6924W        W11124  10.590   1.744   0.734
 6925W        W11125   3.575  11.205   0.877
 6926W        W11126   0.105   4.669  10.501
 6927W        W11127   6.215   9.644   1.260
 6928W        W11128  11.428   7.742   9.071
 6929W        W11129   4.545   6.495  10.965
 6930W        W11130   5.258  10.314   2.102
 6931W        W11131   1.491   7.581   2.563
 6932W        W11132   5.968   7.745   1.275
 6933W        W11133   7.339   5.876   0.231
 6934W        W11134   0.191   7.264   2.363
 6935W        W11135   6.092   7.053  11.091
 6936W        W11136   9.564   0.959  10.137
 6937W        W11137   9.917   9.672  10.062
 6938W        W11138   0.944   3.875   8.832
 6939W        W11139   0.746  10.763   9.322
 6940W        W11140   8.655   7.907   2.623
 6941W        W11141  11.176   9.653  11.357
 6942W        W11142   3.351   3.798  11.327
 6943W        W11143  10.423   2.641   0.344
 6944W        W11144   5.693   7.075   2.930
 6945W        W11145   7.244   2.284   2.369
 6946W        W11146   2.495   5.037   7.900
 6947W        W11147  10.003   2.365   2.431
 6948W        W11148   9.603   5.138   2.191
 6949W        W11149   5.254  11.016   1.285
 6950W        W11150   4.404   2.536   8.824
 6951W        W11151  11.484   4.410  11.994
 6952W        W11152   9.030   3.350   0.479
 6953W        W11153   7.554  10.815  10.083
 6954W        W11154   8.895   4.279   9.374
 6955W        W11155  10.290   3.194   1.856
 6956W        W11156   7.427   6.514   0.773
 6957W        W11157  11.030   5.792   1.222
 6958W        W11158   3.223   5.225  10.533
 6959W        W11159  10.715   5.503   2.683
 6960W        W11160  11.407   9.362   8.583
 6961W        W11161   5.213   4.200   0.902
 6962W        W11162   8.992   7.049   8.590
 6963W        W11163   7.440   4.790   0.838
 6964W        W11164   3.144   1.871  11.258
 6965W        W11165  11.047   5.171   2.487
 6966W        W11166   3.647   4.676   1.745
 6967W        W11167   0.732   2.375   0.941
 6968W        W11168   2.702   6.609   1.272
 6969W        W11169   2.280   3.525   3.058
 6970W        W11170   5.708   1.064   9.963
 6971W        W11171   9.585   8.136   2.258
 6972W        W11172   8.068   1.659  11.469
 6973W        W11173  10.423   8.406   9.939
 6974W        W11174   0.361   7.460   9.827
 6975W        W11175   7.232   8.465  10.555
 6976W        W11176  11.482   9.279   1.611
 6977W        W11177  10.498  11.435   8.938
 6978W        W11178   5.137   1.663  11.981
 6979W        W11179  10.845   2.508   3.275
 6980W        W11180   7.879  10.746   9.624
 6981W        W11181   7.428   5.328  11.260
 6982W        W11182   1.707   9.989  11.079
 6983W        W11183  10.472   3.624   2.179
 6984W        W11184  11.232   6.052   9.548
 6985W        W11185   4.195   4.075   2.156
 6986W        W11186   8.227   5.176   8.668
 6987W        W11187   3.258   5.817  11.047
 6988W        W11188   6.062  11.054   9.103
 6989W        W11189   7.341   6.248  11.511
 6990W        W11190   3.223   5.615   1.039
 6991W        W11191   0.695   1.834   1.489
 6992W        W11192   7.461   4.576   9.085
 6993W        W11193   1.142   0.800   3.477
 6994W        W11194   6.930   8.359   2.471
 6995W        W11195   5.624   9.136   9.867
 6996W        W11196   3.022   2.867  11.452
 6997W        W11197   8.625   8.314   8.647
 6998W        W11198   6.029   3.311  10.738
 6999W        W11199  11.476   9.844   9.760
 7000W        W11200   8.477   3.683   9.072
 7001W        W11201   2.335   0.765  11.353
 7002W        W11202   0.300  11.327  11.320
 7003W        W11203   5.352   2.638  10.316
 7004W        W11204   7.981   8.416   0.391
 7005W        W11205   8.848   8.071   3.418
 7006W        W11206   0.004   5.122  10.775
 7007W        W11207   0.512   7.043   9.515
 7008W        W11208   0.851   6.193   9.313
 7009W        W11209   9.348   2.221  10.623
 7010W        W11210   8.630  10.544   0.022
 7011W        W11211   4.177   5.679  10.788
 7012W        W11212   4.863   1.167   0.257
 7013W        W11213  10.953   8.419   3.517
 7014W        W11214   1.517   8.982   9.376
 7015W        W11215   6.110   4.448  10.462
 7016W        W11216  10.418  10.010   8.952
 7017W        W11217  10.431   9.968   1.397
 7018W        W11218   0.396   3.164  11.223
 7019W        W11219   7.625   0.908   1.147
 7020W        W11220   3.407   2.131   2.786
 7021W        W11221   0.607   1.821  10.449
 7022W        W11222   4.729   4.220   3.618
 7023W        W11223   3.091  11.435  11.877
 7024W        W11224   1.169   6.315   2.592
 7025W        W11225   4.709   6.701   8.632
 7026W        W11226   2.576   8.419   2.497
 7027W        W11227   2.354   5.515   9.574
 7028W        W11228   1.361   4.151   1.465
 7029W        W11229  11.453   4.819   8.741
 7030W        W11230   2.401   3.581   0.231
 7031W        W11231   7.068   3.777  10.877
 7032W        W11232   2.618   7.505   1.637
 7033W        W11233   4.599   2.263   1.619
 7034W        W11234   3.678   9.031   1.501
 7035W        W11235   3.941   8.534   9.833
 7036W        W11236  11.452   6.506   1.286
 7037W        W11237   6.967   0.261   1.661
 7038W        W11238   7.231   3.661   1.303
 7039W        W11239  11.062   1.768  10.504
 7040W        W11240   9.693   0.456  10.280
 7041W        W11241   5.466   4.826   3.297
 7042W        W11242   5.729   0.361   2.790
 7043W        W11243   4.125   7.792   0.389
 7044W        W11244   7.990   0.306   2.883
 7045W        W11245   9.363   8.699   0.927
 7046W        W11246   6.036   9.516   2.474
 7047W        W11247   9.246   7.197  10.372
 7048W        W11248   4.560  10.418   3.325
 7049W        W11249   3.081   1.261   2.383
 7050W        W11250  10.919   9.795   1.408
 7051W        W11251   8.463   7.450   3.420
 7052W        W11252  10.700   2.226   0.929
 7053W        W11253   8.119   1.423   0.370
 7054W        W11254   8.548  10.805   2.266
 7055W        W11255   0.210   9.428   3.135
 7056W        W11256   8.857   3.272   1.628
 7057W        W11257   5.968   2.470   1.639
 7058W        W11258   4.293   1.941  11.058
 7059W        W11259   6.718   6.620   0.223
 7060W        W11260   1.419   0.684   3.893
 7061W        W11261   2.530   5.302   0.755
 7062W        W11262   3.918   4.065   3.302
 7063W        W11263   3.826   3.557  10.499
 7064W        W11264   5.264  10.480   9.826
 7065W        W11265   0.700  10.000  11.400
 7066W        W11266   8.991  10.659  11.199
 7067W        W11267   7.944   7.502  11.696
 7068W        W11268   8.224   8.354  11.920
 7069W        W11269  10.869   1.971   3.197
 7070W        W11270  11.456   7.071  10.874
 7071W        W11271   4.298   8.917  11.861
 7072W        W11272   4.974  11.263  10.127
 7073W        W11273   5.218   0.444  10.738
 7074W        W11274   3.701   5.465   9.386
 7075W        W11275   6.871   8.157   1.530
 7076W        W11276   2.929   8.038   3.363
 7077W        W11277   1.826   9.873   2.309
 7078W        W11278   2.928   6.017   1.146
 7079W        W11279   1.888   1.354   1.843
 7080W        W11280   6.062   9.058  10.612
 7081W        W11281   6.074   1.772  11.991
 7082W        W11282   7.599   3.806   2.171
 7083W        W11283   7.570   2.647  10.058
 7084W        W11284   1.999   4.174   2.230
 7085W        W11285  11.019   3.297  11.427
 7086W        W11286  10.741  11.442  10.345
 7087W        W11287   2.601   6.522   0.341
 7088W        W11288  10.526   7.704  10.570
 7089W        W11289   2.281   3.619   0.728
 7090W        W11290   5.932   3.746   8.458
 7091W        W11291   5.275   2.130   0.917
 7092W        W11292   6.952   9.486   9.060
 7093W        W11293  10.588   3.711   9.276
 7094W        W11294   3.415   6.114   2.416
 7095W        W11295   7.228   6.386   0.267
 7096W        W11296   2.896   6.404  10.410
 7097W        W11297   2.674   6.555   3.174
 7098W        W11298   6.750   3.643   3.130
 7099W        W11299   5.141   4.170  10.031
 7100W        W11300   9.606   0.923  10.650
 7101W        W11301   9.022  10.334  10.820
 7102W        W11302   0.983   4.142   0.008
 7103W        W11303   8.013   6.077   3.494
 7104W        W11304   9.279   6.968   9.214
 7105W        W11305   9.460   0.538   2.584
 7106W        W11306   4.979   8.842   9.034
 7107W        W11307   3.270   0.915   0.732
 7108W        W11308   6.698   6.161  10.500
 7109W        W11309   5.729   9.423   1.224
 7110W        W11310   3.808  10.280  11.372
 7111W        W11311   2.550   0.449   2.540
 7112W        W11312   9.512  11.308  11.195
 7113W        W11313   9.581   5.094   3.183
 7114W        W11314   7.588   7.322   1.371
 7115W        W11315   6.589   9.010   1.415
 7116W        W11316   1.349   9.918   2.496
 7117W        W11317  11.369   9.056   9.561
 7118W        W11318   6.581   1.590   0.023
 7119W        W11319   0.346   9.948   2.399
 7120W        W11320   3.332   8.090  11.617
 7121W        W11321   2.749   5.536   9.189
 7122W        W11322  10.118   3.294   0.509
 7123W        W11323   3.522   4.849   3.101
 7124W        W11324   7.885   2.209   0.762
 7125W        W11325   2.233  11.489   8.864
 7126W        W11326   1.146   4.507   9.448
 7127W        W11327   1.860   1.306   9.797
 7128W        W11328   8.213   6.207  10.001
 7129W        W11329   4.128   8.698   1.391
 7130W        W11330   1.506   4.724   9.793
 7131W        W11331   6.109   4.113   9.637
 7132W        W11332   7.206   5.152   0.575
 7133W        W11333   9.908   7.293   3.301
 7134W        W11334   3.053   8.079   0.807
 7135W        W11335   8.482   8.488  11.274
 7136W        W11336   3.676   6.277   0.837
 7137W        W11337   8.366   6.987   2.819
 7138W        W11338  10.813   8.420   2.372
 7139W        W11339   0.479   7.901   1.663
 7140W        W11340  10.259   1.307  11.815
 7141W        W11341   5.287   2.822  11.097
 7142W        W11342  11.447   3.134   1.641
 7143W        W11343   7.615   7.393   9.162
 7144W        W11344   7.598  10.895   9.073
 7145W        W11345   4.642   1.876   1.956
 7146W        W11346   2.378  10.742  10.031
 7147W        W11347   2.874   6.236  11.441
 7148W        W11348  11.336   3.761  10.850
 7149W        W11349   8.493   2.565   3.034
 7150W        W11350   8.630   8.741   1.253
 7151W        W11351   5.632   8.595   2.822
 7152W        W11352   1.775   0.340  11.974
 7153W        W11353   2.358   7.430   2.298
 7154W        W11354   2.223   8.875  11.528
 7155W        W11355   5.673   7.052  10.598
 7156W        W11356   0.987   1.352  10.947
 7157W        W11357   0.283   8.950   3.296
 7158W        W11358   1.295   9.942   9.757
 7159W        W11359   2.187   9.890   0.314
 7160W        W11360  10.546   7.951   9.677
 7161W        W11361   2.643   2.644  10.766
 7162W        W11362   6.113   6.190   8.710
 7163W        W11363   0.038   2.356   2.332
 7164W        W11364  11.345   4.640   1.336
 7165W        W11365   9.895  11.296   8.979
 7166W        W11366   6.200   9.832   0.320
 7167W        W11367   6.083   6.992   9.580
 7168W        W11368   4.651   4.925   2.296
 7169W        W11369   7.968  11.159   9.306
 7170W        W11370   8.959   1.535  11.694
 7171W        W11371   5.226  10.567   2.878
 7172W        W11372   3.859   5.081   0.531
 7173W        W11373   3.026   0.046   3.231
 7174W        W11374   6.949   8.858   1.773
 7175W        W11375  10.435   2.897  10.255
 7176W        W11376   4.451   7.989  10.548
 7177W        W11377  10.992  10.709   8.702
 7178W        W11378   9.471   3.789   2.155
 7179W        W11379   0.082   3.297   3.170
 7180W        W11380   0.443   6.186   1.293
 7181W        W11381   4.322  10.943   9.832
 7182W        W11382   2.859   1.170  11.925
 7183W        W11383   7.341   9.918   3.212
 7184W        W11384   5.256   7.853   9.020
 7185W        W11385   6.722   8.579  10.567
 7186W        W11386   9.038  10.897   3.054
 7187W        W11387   2.210   9.502   3.380
 7188W        W11388  10.053   4.857   1.378
 7189W        W11389  10.467   8.033   2.466
 7190W        W11390   6.077   4.658  11.354
 7191W        W11391   6.555  10.006   9.831
 7192W        W11392   4.689   6.710   0.918
 7193W        W11393   3.123   1.849   3.509
 7194W        W11394   1.656   1.783  11.098
 7195W        W11395   3.700  10.293   2.980
 7196W        W11396   1.301   7.424  11.751
 7197W        W11397   3.921   6.065   2.338
 7198W        W11398   8.484   2.771   0.030
 7199W        W11399   9.042   9.413  10.408
 7200W        W11400   8.504   8.552   0.308
 7201W        W11401   0.266   8.541   9.309
 7202W        W11402   0.824   3.237   0.499
 7203W        W11403   9.088   2.645   9.603
 7204W        W11404   9.362   0.217   2.987
 7205W        W11405   6.501   9.459   9.890
 7206W        W11406   9.294   1.010   3.478
 7207W        W11407   7.014   8.466   0.417
 7208W        W11408   5.603   9.510   2.743
 7209W        W11409  11.368   8.099   3.583
 7210W        W11410   1.456   5.691  10.707
 7211W        W11411   6.980  11.491   2.732
 7212W        W11412   0.448  10.756   2.637
 7213W        W11413   8.682   2.306   3.410
 7214W        W11414  11.391   7.973  10.845
 7215W        W11415   9.147  11.179   1.186
 7216W        W11416   5.249   3.319   8.342
 7217W        W11417  10.395   4.512   9.804
 7218W        W11418   4.648   6.711   3.400
 7219W        W11419   8.509   7.280   0.881
 7220W        W11420   5.680   4.836   1.467
 7221W        W11421   2.822   2.111   1.393
 7222W        W11422   9.555   9.364   9.847
 7223W        W11423   3.283   0.451  11.915
 7224W        W11424   9.403   3.246   0.815
 7225W        W11425   7.795   3.123  10.094
 7226W        W11426   6.975   7.981   1.067
 7227W        W11427   9.472   0.727   0.731
 7228W        W11428   5.882  10.591   8.973
 7229W        W11429  10.727   4.154   1.401
 7230W        W11430   9.916   6.212   0.956
 7231W        W11431   5.330   4.919   1.099
 7232W        W11432   1.346   1.220  11.547
 7233W        W11433   9.816  10.367   2.507
 7234W        W11434   3.671   6.532  11.463
 7235W        W11435  10.152   4.286   1.354
 7236W        W11436   3.161   0.006   2.716
 7237W        W11437   0.671   9.435   9.352
 7238W        W11438   2.119  11.448  10.943
 7239W        W11439  10.421   1.365  10.092
 7240W        W11440   5.213   8.391  10.336
 7241W        W11441   6.184  10.841  10.076
 7242W        W11442   7.629  10.439   9.309
 7243W        W11443   0.466   9.082   1.714
 7244W        W11444  10.399   1.844   2.663
 7245W        W11445   8.514   2.051   8.475
 7246W        W11446   4.741   0.528  11.972
 7247W        W11447  10.280   9.483   2.117
 7248W        W11448   4.820   0.927   1.123
 7249W        W11449   8.464   3.223   0.284
 7250W        W11450   8.325   7.986   2.233
 7251W        W11451   0.667   8.610   3.266
 7252W        W11452   3.832   8.612   4.039
 7253W        W11453   5.926   4.985   3.100
 7254W        W11454   2.338   2.122   2.849
 7255W        W11455   5.273  10.828   0.135
 7256W        W11456  10.421   6.942   9.938
 7257W        W11457   3.223   6.522  11.718
 7258W        W11458   3.602   7.003   1.935
 7259W        W11459   6.455   5.248   0.922
 7260W        W11460   4.651   7.600   9.801
 7261W        W11461   2.023   2.733   0.878
 7262W        W11462   1.703   9.144   1.668
 7263W        W11463   5.139   4.322  10.991
 7264W        W11464   6.363   7.075   3.530
 7265W        W11465   0.486   7.172  10.807
 7266W        W11466   5.676   2.061   0.612
 7267W        W11467   5.482   8.929   9.046
 7268W        W11468   8.628   0.793   0.343
 7269W        W11469   0.841   6.763   0.816
 7270W        W11470   1.303   7.035   0.631
 7271W        W11471   9.679   8.140   9.461
 7272W        W11472   0.126   3.073   1.166
 7273W        W11473   2.769   1.665   2.246
 7274W        W11474   8.502   5.627   8.492
 7275W        W11475   8.582   8.444  10.671
 7276W        W11476   0.615   7.195   0.990
 7277W        W11477   2.119   9.736   9.810
 7278W        W11478   7.765   6.360  10.996
 7279W        W11479   5.140   0.040   1.242
 7280W        W11480   2.376   6.065   2.398
 7281W        W11481  10.006   9.484   2.995
 7282W        W11482   5.583   7.056   1.918
 7283W        W11483   3.618   6.915   9.332
 7284W        W11484   7.122   0.272   3.275
 7285W        W11485   4.744   2.228   9.037
 7286W        W11486   2.307   3.851   1.275
 7287W        W11487  10.968   3.772   1.018
 7288W        W11488   0.419   5.069   0.505
 7289W        W11489   4.100  10.655  11.511
 7290W        W11490   0.839   1.005  11.307
 7291W        W11491   6.353   2.559   8.175
 7292W        W11492   3.676   7.506   1.753
 7293W        W11493   0.914   5.204  11.330
 7294W        W11494   3.124  10.955   0.432
 7295W        W11495   4.341   4.979   0.579
 7296W        W11496   1.538  10.965   9.909
 7297W        W11497   3.918   2.814  11.596
 7298W        W11498   5.332   4.019  10.500
 7299W        W11499   6.673   4.711   2.152
 7300W        W11500   6.574   7.664   2.743
 7301W        W11501   9.008   6.667   9.948
 7302W        W11502   8.126  11.251  11.352
 7303W        W11503   7.581   3.223   3.319
 7304W        W11504   9.373   1.810   8.806
 7305W        W11505   3.057   0.936  10.610
 7306W        W11506   1.744   5.252   1.407
 7307W        W11507   8.772   5.354  11.615
 7308W        W11508   6.207   1.933   9.793
 7309W        W11509   2.905   7.860   9.033
 7310W        W11510   9.541   2.226   2.701
 7311W        W11511   8.566   6.370   8.177
 7312W        W11512   7.898   4.836   9.063
 7313W        W11513   4.729   8.475   2.299
 7314W        W11514   9.513   3.699   3.427
 7315W        W11515   0.369  10.079  10.000
 7316W        W11516   4.802   1.160   3.725
 7317W        W11517   6.418   2.895   2.757
 7318W        W11518   1.991   3.398   2.659
 7319W        W11519   1.439   7.968   1.790
 7320W        W11520   3.118   6.511   0.254
 7321W        W11521   4.249   0.557   1.953
 7322W        W11522   7.019   2.395   0.754
 7323W        W11523   1.671   8.415   0.569
 7324W        W11524   0.027   2.067   0.899
 7325W        W11525   5.581   2.714   3.889
 7326W        W11526   6.533   3.367  11.619
 7327W        W11527   5.591   4.610   8.262
 7328W        W11528   7.440   8.860   0.940
 7329W        W11529   0.430   9.630  11.939
 7330W        W11530   5.733   1.409   9.318
 7331W        W11531   5.560   2.360   9.864
 7332W        W11532   0.809   5.530  11.717
 7333W        W11533   3.602  10.874   0.205
 7334W        W11534   5.289   9.825  10.408
 7335W        W11535   8.856   9.346  11.922
 7336W        W11536  10.821   3.677   8.820
 7337W        W11537   4.262   7.704   2.266
 7338W        W11538   9.581   6.436   2.573
 7339W        W11539   4.468   8.451  11.731
 7340W        W11540   4.134   5.537   0.691
 7341W        W11541  11.356   8.973   0.989
 7342W        W11542   3.003   9.707   8.433
 7343W        W11543   4.190   1.803   3.204
 7344W        W11544  11.424   1.860   3.136
 7345W        W11545   0.491   3.639   0.477
 7346W        W11546   8.949   3.742   1.442
 7347W        W11547   0.884  10.516  10.541
 7348W        W11548   7.675   1.922  10.632
 7349W        W11549   3.108  11.025   0.951
 7350W        W11550   0.828   4.126   3.694
 7351W        W11551   1.714  11.337   9.587
 7352W        W11552   1.076   1.267   0.836
 7353W        W11553   4.452   4.656   8.943
 7354W        W11554   3.664   3.186   0.398
 7355W        W11555   8.171   7.531   9.714
 7356W        W11556   2.225  10.249  11.039
 7357W        W11557   1.912   3.784   0.241
 7358W        W11558  10.865   3.597  10.661
 7359W        W11559   3.493  10.751   3.239
 7360W        W11560   9.420   1.836   2.244
 7361W        W11561   3.284   0.635  10.025
 7362W        W11562   0.002  11.350   1.514
 7363W        W11563   2.282   2.746   0.441
 7364W        W11564  11.346   8.878  10.062
 7365W        W11565   4.754   5.957   4.054
 7366W        W11566   6.380  10.907  11.083
 7367W        W11567   6.636   5.718  11.509
 7368W        W11568   7.876   2.205   9.727
 7369W        W11569  11.105   3.694   9.257
 7370W        W11570  10.829   4.961   0.360
 7371W        W11571   2.373   9.300  11.764
 7372W        W11572   1.706   5.240   8.495
 7373W        W11573   0.942   9.511   2.904
 7374W        W11574   1.859   7.889   1.516
 7375W        W11575   1.816   5.696   1.134
 7376W        W11576   1.863   7.540   0.740
 7377W        W11577   3.828   3.555   2.664
 7378W        W11578   6.112   9.469   1.951
 7379W        W11579   7.650   4.556   3.748
 7380W        W11580   1.267   6.671   1.630
 7381W        W11581   9.859  10.490   0.297
 7382W        W11582   1.814   4.589   1.452
 7383W        W11583   1.630   5.664  11.190
 7384W        W11584   9.362  10.330   9.975
 7385W        W11585   2.740   5.541   1.189
 7386W        W11586   5.646   7.552   2.666
 7387W        W11587   0.980   4.203  10.565
 7388W        W11588   9.515   4.408   1.797
 7389W        W11589   2.650  10.262   9.569
 7390W        W11590   5.338   4.249   1.959
 7391W        W11591   0.450   1.734   1.941
 7392W        W11592   3.708   1.736   2.567
 7393W        W11593   0.855   0.757   1.683
 7394W        W11594   2.300   7.075   8.553
 7395W        W11595   8.364   5.256  11.957
 7396W        W11596  10.396   2.094   9.580
 7397W        W11597   1.151   5.837   2.860
 7398W        W11598   6.039   2.575   2.109
 7399W        W11599   3.549   5.175   8.989
 7400W        W11600   8.032   5.704   3.845
 7401W        W11601   2.377   6.076   3.323
 7402W        W11602  11.030   8.279   0.799
 7403W        W11603   4.421   0.341   3.248
 7404W        W11604   9.226   0.489   1.586
 7405W        W11605   5.605   4.045  10.963
 7406W        W11606   9.604   7.389   2.690
 7407W        W11607   0.039  10.258   9.479
 7408W        W11608   5.960  10.276   0.200
 7409W        W11609   2.810   9.980   2.601
 7410W        W11610   1.836   7.252   2.319
 7411W        W11611   1.431   8.647  10.062
 7412W        W11612   9.001   5.120   9.431
 7413W        W11613   4.068  10.767   9.406
 7414W        W11614   6.398   7.989   1.531
 7415W        W11615  10.373   4.699   0.386
 7416W        W11616   7.308   5.745   2.392
 7417W        W11617   3.275   8.210  10.607
 7418W        W11618   2.747   0.938   3.151
 7419W        W11619  10.489   9.368   3.152
 7420W        W11620   6.650   3.753  10.334
 7421W        W11621   3.228   6.956   8.982
 7422W        W11622   8.382   0.271   8.418
 7423W        W11623   3.751   2.778   0.673
 7424W        W11624   2.513  11.407   3.283
 7425W        W11625  11.145   7.939   9.847
 7426W        W11626   5.019   3.109   2.338
 7427W        W11627   6.751   9.801  10.450
 7428W        W11628   3.535   4.451   9.355
 7429W        W11629  11.092   8.795   1.426
 7430W        W11630   3.084  10.907   1.499
 7431W        W11631   6.991  11.152   9.523
 7432W        W11632   6.386   9.389   0.462
 7433W        W11633   8.363   9.975   1.735
 7434W        W11634   4.958   3.698  11.744
 7435W        W11635   7.667   1.757  10.112
 7436W        W11636   3.659  10.905   1.736
 7437W        W11637   0.323   4.308   8.831
 7438W        W11638   4.714   5.715   0.030
 7439W        W11639  10.751   0.825   9.426
 7440W        W11640   1.194  11.338   9.831
 7441W        W11641   2.370   8.970   2.481
 7442W        W11642  10.550   4.221   0.930
 7443W        W11643   0.164   2.199  11.825
 7444W        W11644   2.939   2.661   0.004
 7445W        W11645  10.731   5.251   8.551
 7446W        W11646   7.599   8.096  11.765
 7447W        W11647   0.573   5.103   1.853
 7448W        W11648   2.239   3.850  11.836
 7449W        W11649  10.312   0.990  11.412
 7450W        W11650  11.374  10.084  11.130
 7451W        W11651  10.525  11.365   3.295
 7452W        W11652   7.076   1.848   3.463
 7453W        W11653   3.016   2.126   2.235
 7454W        W11654   8.164   9.929   2.726
 7455W        W11655   3.191   9.600  10.267
 7456W        W11656  10.665   0.369   3.255
 7457W        W11657   3.284   4.121   0.840
 7458W        W11658   4.104   6.972   1.936
 7459W        W11659  11.027  10.721   9.978
 7460W        W11660   5.124   7.218  11.512
 7461W        W11661   8.046  10.868   3.340
 7462W        W11662   2.203   5.076   8.639
 7463W        W11663  10.808   0.333   8.530
 7464W        W11664   5.544   7.264   3.797
 7465W        W11665  10.383   5.478   8.839
 7466W        W11666   2.853   2.731   3.294
 7467W        W11667  10.740   9.272  11.620
 7468W        W11668  10.334   5.596   3.028
 7469W        W11669   8.113  10.265   9.591
 7470W        W11670   1.775  10.094   9.738
 7471W        W11671   5.521   4.551   3.757
 7472W        W11672   4.689   9.303  11.773
 7473W        W11673   7.607   4.774   2.167
 7474W        W11674   7.135   8.444   9.249
 7475W        W11675   1.080   4.875   3.668
 7476W        W11676   1.589   8.236   3.483
 7477W        W11677   4.012   7.598  11.895
 7478W        W11678   9.161   3.665  11.682
 7479W        W11679   5.623   0.332   9.487
 7480W        W11680   8.617   8.012  11.523
 7481W        W11681  11.319  10.019   1.162
 7482W        W11682  11.398   8.267   9.065
 7483W        W11683   3.387  10.370   1.119
 7484W        W11684   1.854   8.405   1.028
 7485W        W11685   1.242   9.072  11.141
 7486W        W11686   2.646   9.767   0.466
 7487W        W11687   5.037   5.316   2.350
 7488W        W11688   7.748   2.368   0.273
 7489W        W11689  10.306   9.126   1.743
 7490W        W11690   8.950  10.427   2.837
 7491W        W11691   1.083   4.411   8.688
 7492W        W11692   2.860   8.863   2.393
 7493W        W11693   1.712   1.417  11.891
 7494W        W11694   3.497   2.554   9.014
 7495W        W11695   7.164   8.789   2.251
 7496W        W11696   6.793   7.655   1.408
 7497W        W11697   2.682   0.326   3.531
 7498W        W11698   1.234   9.548   1.244
 7499W        W11699   7.822   8.574  10.005
 7500W        W11700   6.124   7.337   2.690
 7501W        W11701   2.637   0.719   0.351
 7502W        W11702   3.111   1.673   9.109
 7503W        W11703   8.042   4.725  11.296
 7504W        W11704   4.643   8.523   1.272
 7505W        W11705   5.069   6.089   1.978
 7506W        W11706   4.709   4.834   0.945
 7507W        W11707   1.218   0.750   9.437
 7508W        W11708   7.533   2.649   9.055
 7509W        W11709   6.567   9.030  10.730
 7510W        W11710   1.802   6.614   9.595
 7511W        W11711  10.472   0.201   0.460
 7512W        W11712   8.210   8.494  10.311
 7513W        W11713   4.492   5.258  11.739
 7514W        W11714   0.927   3.099   0.974
 7515W        W11715   9.982   6.815   0.700
 7516W        W11716   2.397   8.007   0.069
 7517W        W11717   0.729   5.706   1.996
 7518W        W11718   8.676   2.049   2.956
 7519W        W11719   5.044   4.391  11.499
 7520W        W11720   9.293   8.383   0.512
 7521W        W11721   8.873   2.294  10.442
 7522W        W11722   3.937   2.388   8.615
 7523W        W11723  10.955   5.244  10.043
 7524W        W11724   6.778   5.125  10.142
 7525W        W11725   9.040   2.533   0.462
 7526W        W11726   8.858   4.444   8.869
 7527W        W11727   3.217   8.421   1.761
 7528W        W11728   3.565   4.870   1.258
 7529W        W11729  10.552   3.741   0.723
 7530W        W11730   6.570   3.335  10.027
 7531W        W11731   0.959   4.798   9.049
 7532W        W11732   5.446   8.383  11.699
 7533W        W11733   1.911   3.667   9.305
 7534W        W11734   3.898   2.150  10.791
 7535W        W11735  10.428   1.168  10.562
 7536W        W11736   3.390   5.217   4.114
 7537W        W11737   6.156   2.753   3.164
 7538W        W11738   4.067   9.146  11.397
 7539W        W11739   6.021   4.786  10.845
 7540W        W11740   8.230   8.439   1.381
 7541W        W11741   9.315   1.814  11.457
 7542W        W11742   1.662   6.465   3.284
 7543W        W11743   8.149   7.338   9.247
 7544W        W11744   8.262   1.712   2.990
 7545W        W11745   8.577  10.822   2.805
 7546W        W11746   2.215   4.076   3.087
 7547W        W11747  11.450   9.604  11.775
 7548W        W11748   0.471   2.638   2.846
 7549W        W11749   6.177   5.052   1.326
 7550W        W11750   6.585   9.026   2.907
 7551W        W11751   7.689  11.450  11.526
 7552W        W11752   6.320   0.887   0.459
 7553W        W11753   0.862   8.940  11.517
 7554W        W11754   2.127   9.808  11.298
 7555W        W11755   5.006   7.414   0.050
 7556W        W11756  10.737  10.838   1.273
 7557W        W11757   3.973   7.955   9.176
 7558W        W11758   5.055   4.071   8.738
 7559W        W11759   9.093   3.326   8.932
 7560W        W11760   4.354   9.587   0.350
 7561W        W11761   2.359   6.697   8.996
 7562W        W11762   6.150   6.000   2.237
 7563W        W11763   6.226   4.490   3.039
 7564W        W11764   0.856   5.662   1.164
 7565W        W11765   0.370   9.557   9.961
 7566W        W11766   8.570   5.212   8.180
 7567W        W11767   3.334   2.488   2.412
 7568W        W11768  10.376   0.477   8.794
 7569W        W11769   8.567   3.673  11.027
 7570W        W11770  11.355   8.259  11.289
 7571W        W11771  10.179   0.263   3.163
 7572W        W11772   6.199   6.600  11.330
 7573W        W11773  10.799   3.299   1.878
 7574W        W11774   5.134   7.403  10.106
 7575W        W11775   0.486  10.835  10.428
 7576W        W11776   5.168   8.654   2.621
 7577W        W11777   9.984  11.387  10.967
 7578W        W11778   7.087   9.324   1.489
 7579W        W11779   9.182   8.250   9.450
 7580W        W11780   5.228   1.922   0.424
 7581W        W11781   4.224   4.552   2.353
 7582W        W11782   8.973   8.921  10.232
 7583W        W11783   0.666   2.384   3.246
 7584W        W11784   7.600   6.390   4.052
 7585W        W11785   9.025   6.480   7.889
 7586W        W11786   7.978   6.850  10.860
 7587W        W11787   2.816  11.359   1.203
 7588W        W11788   9.637   4.562   9.320
 7589W        W11789   6.905   7.594  10.828
 7590W        W11790   5.639   9.817  10.855
 7591W        W11791   0.393   6.561   9.688
 7592W        W11792   2.128   0.403   1.323
 7593W        W11793   3.018   2.339  10.632
 7594W        W11794  10.810  10.758  11.404
 7595W        W11795   1.213   7.840   2.893
 7596W        W11796   0.380   7.117   3.011
 7597W        W11797   5.043   8.837  10.545
 7598W        W11798   7.446   1.642   0.731
 7599W        W11799   5.602   0.248  11.008
 7600W        W11800   7.910   7.804   9.346
 7601W        W11801   6.436   9.684  10.866
 7602W        W11802   5.244   2.885   2.724
 7603W        W11803   5.188   6.160  10.469
 7604W        W11804   5.216   2.103   8.476
 7605W        W11805   1.462   0.233  11.245
 7606W        W11806   2.713   1.620   0.125
 7607W        W11807   0.866   6.891   3.105
 7608W        W11808   8.235   3.591   8.641
 7609W        W11809   0.898   9.070   2.016
 7610W        W11810   6.106  11.336  10.896
 7611W        W11811   5.624   9.460  10.280
 7612W        W11812   3.558   0.155  10.045
 7613W        W11813  11.182  10.490   2.838
 7614W        W11814   6.610   8.942   0.425
 7615W        W11815   0.334   4.204   9.369
 7616W        W11816   1.503   7.417  11.154
 7617W        W11817   8.508   2.821  11.010
 7618W        W11818   2.835   9.791   8.956
 7619W        W11819   4.824   2.464  10.444
 7620W        W11820   3.518   1.305  10.727
 7621W        W11821   4.795   7.656   0.813
 7622W        W11822   1.557   5.184   9.498
 7623W        W11823   3.469   5.441   8.520
 7624W        W11824  10.330   5.575   1.929
 7625W        W11825   2.737   5.732  11.749
 7626W        W11826   9.218   5.199   1.903
 7627W        W11827   2.698   3.643   8.979
 7628W        W11828   5.963  10.335   8.512
 7629W        W11829   6.665  10.140   9.365
 7630W        W11830   2.235   2.445   9.031
 7631W        W11831   6.321   8.199   8.234
 7632W        W11832   6.979   0.005  10.481
 7633W        W11833   8.644  10.797   9.945
 7634W        W11834   6.022   4.547   9.932
 7635W        W11835   5.648   2.705  11.494
 7636W        W11836   4.101  10.634   8.674
 7637W        W11837   5.774   3.209   3.863
 7638W        W11838   5.063   0.703  10.329
 7639W        W11839   2.660   4.544  10.702
 7640W        W11840  11.088  11.487  11.774
 7641W        W11841   7.452   1.269  11.836
 7642W        W11842   5.556   5.937  11.097
 7643W        W11843   1.812   6.402   0.028
 7644W        W11844   5.458  11.272  10.288
 7645W        W11845   2.965   8.394   8.367
 7646W        W11846   4.223   5.534  11.310
 7647W        W11847   4.768   7.465   2.264
 7648W        W11848   6.060   2.117  10.597
 7649W        W11849   9.282   8.162  10.262
 7650W        W11850   2.810   1.254   1.924
 7651W        W11851   8.887   1.143   0.012
 7652W        W11852   4.733   9.321  10.690
 7653W        W11853   0.919  11.283   1.947
 7654W        W11854   1.130   2.660   1.126
 7655W        W11855   8.206   6.064   1.223
 7656W        W11856   9.938   0.352   9.640
 7657W        W11857   0.289   6.965   9.996
 7658W        W11858   2.629   8.543   8.728
 7659W        W11859   2.678   5.058   8.396
 7660W        W11860   2.744   4.241   8.303
 7661W        W11861  11.392   4.801  10.071
 7662W        W11862   4.275   2.711  10.207
 7663W        W11863   5.046   4.423   9.102
 7664W        W11864   5.638   9.830   9.346
 7665W        W11865   5.853   3.601   1.416
 7666W        W11866   9.502  10.408   9.050
 7667W        W11867   6.199   5.694   2.676
 7668W        W11868  10.425   5.237   9.290
 7669W        W11869   9.324   7.444   8.537
 7670W        W11870  11.261   8.301   3.099
 7671W        W11871  11.498   6.025   1.091
 7672W        W11872  11.285   4.741   9.568
 7673W        W11873  11.316   1.865  10.066
 7674W        W11874   2.971   6.910  10.358
 7675W        W11875   6.841   7.127  11.532
 7676W        W11876   6.443   6.632   9.540
 7677W        W11877   5.162   2.360  11.320
 7678W        W11878   7.749   5.067  10.761
 7679W        W11879   6.737   3.632   1.281
 7680W        W11880   2.655   1.449   0.779
 7681W        W11881   2.821   2.595   2.301
 7682W        W11882   7.155  10.466   2.912
 7683W        W11883   9.781   9.404   9.099
 7684W        W11884  10.606   4.778  11.934
 7685W        W11885   7.605  10.368   3.130
 7686W        W11886   0.889   1.443   9.518
 7687W        W11887   3.660   3.920  10.146
 7688W        W11888  10.528   5.149   1.719
 7689W        W11889   0.668   9.553   2.466
 7690W        W11890   1.804   5.160   9.936
 7691W        W11891   3.831   3.279  11.352
 7692W        W11892   9.953  10.092   9.742
 7693W        W11893  10.314  11.420   1.851
 7694W        W11894   7.127   2.605  10.833
 7695W        W11895   4.759   9.521   9.240
 7696W        W11896   5.151   9.585  11.389
 7697W        W11897  10.014   2.112   2.918
 7698W        W11898   7.977   5.726  11.477
 7699W        W11899   9.950   4.910   0.066
 7700W        W11900   1.203  10.847  10.278
 7701W        W11901   7.615   0.538   0.750
 7702W        W11902   6.808   7.155   1.229
 7703W        W11903  10.288   0.785   9.233
 7704W        W11904   0.054   6.954  11.881
 7705W        W11905   6.496   4.532   0.640
 7706W        W11906   8.162  11.489   9.714
 7707W        W11907   0.692   3.031   2.388
 7708W        W11908   5.152   8.002   1.152
 7709W        W11909  10.358   0.922   2.387
 7710W        W11910   0.221   9.820  11.390
 7711W        W11911   8.463   9.490  11.643
 7712W        W11912   2.326   0.653   3.312
 7713W        W11913   2.296  10.492  11.945
 7714W        W11914   0.089   1.558   0.885
 7715W        W11915   2.316   8.361   1.229
 7716W        W11916   3.744   3.084   2.847
 7717W        W11917   4.412   9.410   3.693
 7718W        W11918   2.294  11.226   2.276
 7719W        W11919   3.657   7.589   0.428
 7720W        W11920   2.637   4.970   0.359
 7721W        W11921   1.358   9.998  11.756
 7722W        W11922   7.906   1.483  10.752
 7723W        W11923  10.496   1.177   1.535
 7724W        W11924   0.720   3.129   9.306
 7725W        W11925   7.101   1.628  10.824
 7726W        W11926   6.241   7.651   2.296
 7727W        W11927   6.576   6.534   1.102
 7728W        W11928   1.761   2.037   0.497
 7729W        W11929   9.395   1.315  11.509
 7730W        W11930   3.684   3.723   1.655
 7731W        W11931   7.447   4.314   1.965
 7732W        W11932   1.907   1.536   0.481
 7733W        W11933   1.131   9.455   2.275
 7734W        W11934   9.962   6.651   8.726
 7735W        W11935   5.955  10.679   3.311
 7736W        W11936   0.253   9.516   9.005
 7737W        W11937   7.858   5.503  11.012
 7738W        W11938   8.217   9.075   2.194
 7739W        W11939   0.991   3.194   2.779
 7740W        W11940   3.013   4.215  11.506
 7741W        W11941  10.197   4.483  11.935
 7742W        W11942   7.574  10.324  10.291
 7743W        W11943   1.699   9.024   2.839
 7744W        W11944  10.827   6.575   0.677
 7745W        W11945   6.709   0.074   0.430
 7746W        W11946  11.287   6.107   1.546
 7747W        W11947   9.594   3.690  11.914
 7748W        W11948   1.994  11.464   0.875
 7749W        W11949   3.740   7.827   2.185
 7750W        W11950   1.737   5.783   0.649
 7751W        W11951   8.860   8.116   1.482
 7752W        W11952   4.936   6.523   9.087
 7753W        W11953   0.030   2.723   1.979
 7754W        W11954  10.439  11.080  11.100
 7755W        W11955   6.704   2.210   9.398
 7756W        W11956   4.383   1.532   2.246
 7757W        W11957   3.570   4.210   8.917
 7758W        W11958   4.791   0.220  10.956
 7759W        W11959   2.861   7.083   3.265
 7760W        W11960   5.726  10.632   9.950
 7761W        W11961  10.934   4.770   8.589
 7762W        W11962   9.236   9.100   0.619
 7763W        W11963  10.582   2.766  10.711
 7764W        W11964   6.185   1.732   1.011
 7765W        W11965   6.488  10.683   0.799
 7766W        W11966   3.158   4.209   2.259
 7767W        W11967   5.226   6.819   8.766
 7768W        W11968   0.410   5.567   0.048
 7769W        W11969  11.458   6.176   9.073
 7770W        W11970  10.899   5.906  10.993
 7771W        W11971   4.245  10.095  10.802
 7772W        W11972   8.985   9.056   1.053
 7773W        W11973   5.052  11.092   9.359
 7774W        W11974   8.532   5.317   2.375
 7775W        W11975   3.169   3.315   9.982
 7776W        W11976   8.199   0.967   0.108
 7777W        W11977   1.376  10.380  10.483
 7778W        W11978   1.914   4.280   0.434
 7779W        W11979   6.545   3.700   0.387
 7780W        W11980   6.436  10.808   2.310
 7781W        W11981   0.689   9.777   8.939
 7782W        W11982   6.182   4.295  11.884
 7783W        W11983   9.569  11.070   9.812
 7784W        W11984   2.413   5.069  10.512
 7785W        W11985   8.216   5.111  10.992
 7786W        W11986   9.403   3.752   1.180
 7787W        W11987   7.029   7.016   2.429
 7788W        W11988   1.755   7.726   2.159
 7789W        W11989  11.341   9.388   9.986
 7790W        W11990   2.486   3.109  10.614
 7791W        W11991   8.876   9.799  11.678
 7792W        W11992   5.164   1.900   1.825
 7793W        W11993   4.824  11.308   1.558
 7794W        W11994   2.916   3.655   0.243
 7795W        W11995   5.372   2.718   9.036
 7796W        W11996   7.978   0.211  11.872
 7797W        W11997   6.404   9.105   3.732
 7798W        W11998   8.368   3.405   1.759
 7799W        W11999   5.994   0.190   0.216
 7800W        W12000   6.507  10.839  11.579
 7801W        W12001  10.479   2.232   3.494
 7802W        W12002   0.790   6.709   1.806
 7803W        W12003   8.427   1.406  11.959
 7804W        W12004   1.779   1.760  10.041
 7805W        W12005   3.258   8.685  10.339
 7806W        W12006   6.601   6.132   0.798
 7807W        W12007   9.482   8.098   3.208
 7808W        W12008   1.413   3.523   2.058
 7809W        W12009   6.273   8.849  11.090
 7810W        W12010   8.870   6.225   3.219
 7811W        W12011   8.771   9.566   3.171
 7812W        W12012   5.703   5.126   9.144
 7813W        W12013   9.325   3.384   1.808
 7814W        W12014   7.636   5.420   9.812
 7815W        W12015   3.128   2.086   9.691
 7816W        W12016   0.971   1.975   3.177
 7817W        W12017   8.947   0.536   3.195
 7818W        W12018  10.405   6.440   1.990
 7819W        W12019   7.914   4.267  10.043
 7820W        W12020   6.675   2.534  11.991
 7821W        W12021   4.499   5.784   1.075
 7822W        W12022  10.846   7.021   0.918
 7823W        W12023   4.446   3.246   0.778
 7824W        W12024  10.655   9.574   9.550
 7825W        W12025  11.380   5.509   3.205
 7826W        W12026   6.661   2.728   9.500
 7827W        W12027   5.487  10.167  11.806
 7828W        W12028   2.789   4.844   0.839
 7829W        W12029   2.483   9.548   1.707
 7830W        W12030   5.133   6.503   1.180
 7831W        W12031   1.810   3.356   0.842
 7832W        W12032  10.467   9.107   9.431
 7833W        W12033   4.293   8.665   3.810
 7834W        W12034   0.838   0.254   1.135
 7835W        W12035   5.961   8.204   3.577
 7836W        W12036   7.641   6.555  10.532
 7837W        W12037   4.449   4.213  10.453
 7838W        W12038   8.960  10.824   9.451
 7839W        W12039   7.861   6.933   9.081
 7840W        W12040   8.516   6.913   1.401
 7841W        W12041   2.685  10.792   1.125
 7842W        W12042  10.040  11.279   3.081
 7843W        W12043   3.094   7.044   1.940
 7844W        W12044   3.784   5.964  11.030
 7845W        W12045   4.818   6.142  11.303
 7846W        W12046   9.547   8.618  10.349
 7847W        W12047   3.388  10.018   9.192
 7848W        W12048   2.244   7.870   9.466
 7849W        W12049   3.351   3.464   0.075
 7850W        W12050   1.472   7.843  11.983
 7851W        W12051   4.486   2.749   9.769
 7852W        W12052   8.586   9.144   0.437
 7853W        W12053   9.107  11.341  10.802
 7854W        W12054   7.187   2.361   3.380
 7855W        W12055   2.561   2.628  11.287
 7856W        W12056   0.334   4.817   1.261
 7857W        W12057   4.685   0.113   2.844
 7858W        W12058   5.774   4.377   1.685
 7859W        W12059   6.664   6.070   2.278
 7860W        W12060   5.883   2.728   8.976
 7861W        W12061   8.287   5.157   3.197
 7862W        W12062   6.925   5.107   2.377
 7863W        W12063   9.122   8.415  11.507
 7864W        W12064   2.249   5.276   9.105
 7865W        W12065   1.279   4.109   9.753
 7866W        W12066   0.871   0.279   2.153
 7867W        W12067   7.463  11.477  10.184
 7868W        W12068   0.750   2.165   1.908
 7869W        W12069   7.170   0.766  11.840
 7870W        W12070   8.348   4.538  10.294
 7871W        W12071  11.105   4.110   2.279
 7872W        W12072   9.898   3.790   1.342
 7873W        W12073   3.132   9.343   0.739
 7874W        W12074   3.818   1.634   9.935
 7875W        W12075  10.846   4.634  10.824
 7876W        W12076   8.253   6.364  10.814
 7877W        W12077  10.100   3.837   9.535
 7878W        W12078  10.695   4.154  10.578
 7879W        W12079   5.132   7.502  10.607
 7880W        W12080  11.427  10.954   2.790
 7881W        W12081   0.431   5.292   1.398
 7882W        W12082  10.196   3.667   3.417
 7883W        W12083   6.336   3.955   8.182
 7884W        W12084   3.203   5.419   3.683
 7885W        W12085   8.488   0.785   3.184
 7886W        W12086   1.802   6.494   9.079
 7887W        W12087   2.318   1.851   0.451
 7888W        W12088  10.863   3.915  11.080
 7889W        W12089   5.223   1.841  11.434
 7890W        W12090   5.460   8.166   9.897
 7891W        W12091   5.878   2.011   1.908
 7892W        W12092   2.312   7.541  11.789
 7893W        W12093   3.064   0.319   1.393
 7894W        W12094   7.646   3.117  10.968
 7895W        W12095   2.445  10.686  10.894
 7896W        W12096   4.220   3.210  10.430
 7897W        W12097   8.588   4.267   2.859
 7898W        W12098   1.374   0.394   0.833
 7899W        W12099   0.297   0.398   0.010
 7900W        W12100   7.067   0.247   2.223
 7901W        W12101   9.109   6.635   8.869
 7902W        W12102   4.193   7.492   1.826
 7903W        W12103   8.618   1.807   3.382
 7904W        W12104   1.516   0.330   9.582
 7905W        W12105   1.444   2.881   8.348
 7906W        W12106   7.341   6.458  10.099
 7907W        W12107  10.574   7.121   2.751
 7908W        W12108  11.365   9.776   3.391
 7909W        W12109   6.451   9.763   0.814
 7910W        W12110   1.876   7.802   3.496
 7911W        W12111   2.845   1.890   0.538
 7912W        W12112   7.025   4.833   9.101
 7913W        W12113   3.292   6.220  10.705
 7914W        W12114   9.608   3.105   2.779
 7915W        W12115   6.456   6.079  10.984
 7916W        W12116  10.354  10.383   0.230
 7917W        W12117   3.124   6.050  11.845
 7918W        W12118   5.360   1.910  10.016
 7919W        W12119   7.711   5.950  10.697
 7920W        W12120   7.498   5.387   0.243
 7921W        W12121   9.424  10.236   2.796
 7922W        W12122   0.992   9.852   1.662
 7923W        W12123   4.609   1.766   1.431
 7924W        W12124   6.152   2.259   0.769
 7925W        W12125   1.818   2.270   8.757
 7926W        W12126   2.179   7.082  11.565
 7927W        W12127   9.450   9.122   9.381
 7928W        W12128   4.656   1.886  10.293
 7929W        W12129   1.390   7.032   3.278
 7930W        W12130   9.991   3.282  10.853
 7931W        W12131   8.955   5.071   3.750
 7932W        W12132   6.472   9.964  11.896
 7933W        W12133   5.205   8.348   1.572
 7934W        W12134   6.597   2.324   0.471
 7935W        W12135  11.287  10.537  10.407
 7936W        W12136   4.793   0.985   1.622
 7937W        W12137   7.712   8.970  11.435
 7938W        W12138   5.526   7.550  11.437
 7939W        W12139   7.623   3.125   2.014
 7940W        W12140   7.943   6.879  11.713
 7941W        W12141   4.666   9.434   2.187
 7942W        W12142   2.255   6.143   0.275
 7943W        W12143   3.941   0.419   8.803
 7944W        W12144   5.939   0.969   9.478
 7945W        W12145   7.511   4.100   9.271
 7946W        W12146   9.515   1.874   3.539
 7947W        W12147   4.641  11.076   1.985
 7948W        W12148   5.715   1.177   0.346
 7949W        W12149   5.410  10.805  10.736
 7950W        W12150   6.986   4.193   9.967
 7951W        W12151   7.677   7.072  10.481
 7952W        W12152   3.683   6.457  10.930
 7953W        W12153  10.041   8.319   8.396
 7954W        W12154  10.993   0.420  10.333
 7955W        W12155  10.813   4.173   2.745
 7956W        W12156   1.328   6.646   2.949
 7957W        W12157   2.297   4.715   9.269
 7958W        W12158   2.388   1.609   2.963
 7959W        W12159   2.989   7.526   2.567
 7960W        W12160   5.489  11.455   0.873
 7961W        W12161   9.573   5.406   1.617
 7962W        W12162   0.994   7.058   8.730
 7963W        W12163   7.087   3.034   0.116
 7964W        W12164   1.786   5.418   0.297
 7965W        W12165   6.821   3.276   3.750
 7966W        W12166   6.681   5.351  10.588
 7967W        W12167   3.592   1.447   1.289
 7968W        W12168   4.176   7.992   0.888
 7969W        W12169   4.346   4.847   2.783
 7970W        W12170   2.191   0.384   1.928
 7971W        W12171   8.337  10.390   0.436
 7972W        W12172   5.227   9.365  11.857
 7973W        W12173   7.641   2.574  11.795
 7974W        W12174   2.848   2.862   2.782
 7975W        W12175   4.828   2.877  10.130
 7976W        W12176   0.773   7.586   1.279
 7977W        W12177   8.570  10.851   3.307
 7978W        W12178   0.797   4.109   9.565
 7979W        W12179   6.129   0.420   1.730
 7980W        W12180  10.539  10.717   0.563
 7981W        W12181   4.983  10.643   2.411
 7982W        W12182   5.610   9.637   9.807
 7983W        W12183   8.046   7.382   1.663
 7984W        W12184   3.027   9.045   9.557
 7985W        W12185  10.298   3.570   2.925
 7986W        W12186   5.124   1.652   0.852
 7987W        W12187   5.115   1.137   8.792
 7988W        W12188  10.034  10.809   3.256
 7989W        W12189   8.514   0.393  11.485
 7990W        W12190   8.558   7.454   2.825
 7991W        W12191   4.425   0.608   2.445
 7992W        W12192   7.472   3.050   9.704
 7993W        W12193   7.238  10.873   1.970
 7994W        W12194   0.005   5.536  11.724
 7995W        W12195   5.076  10.310   3.310
 7996W        W12196   8.677   9.377   2.322
 7997W        W12197   9.560   1.119   0.358
 7998W        W12198   6.562   9.514  11.643
 7999W        W12199   1.795   5.897   0.133
 8000W        W12200   5.640   3.671   3.303
 8001W        W12201   8.659   1.254   2.486
 8002W        W12202   9.021   4.533  11.874
 8003W        W12203  11.026   9.040   8.762
 8004W        W12204   2.471   7.051  11.070
 8005W        W12205   0.915   9.923   2.179
 8006W        W12206   9.700  10.992   3.626
 8007W        W12207   8.813   7.080  11.249
 8008W        W12208   6.546   2.194   8.793
 8009W        W12209   3.240   6.474  11.196
 8010W        W12210   0.699   3.653   9.804
 8011W        W12211   8.111   6.222   3.974
 8012W        W12212  10.480   8.585   9.441
 8013W        W12213  10.780   9.033  10.743
 8014W        W12214   6.555   4.786   1.648
 8015W        W12215   7.956   4.131   3.667
 8016W        W12216   7.544   2.870  11.397
 8017W        W12217   3.344   2.780   0.330
 8018W        W12218   2.704   6.521   9.534
 8019W        W12219   7.200   6.603   3.778
 8020W        W12220   1.438   2.800   3.027
 8021W        W12221   1.369   6.031   3.387
 8022W        W12222   0.672   5.223   0.933
 8023W        W12223   8.343   5.579  10.817
 8024W        W12224   8.690  10.507   1.769
 8025W        W12225   2.659   8.034   8.608
 8026W        W12226   6.920   9.861  11.674
 8027W        W12227   9.144   1.806  10.411
 8028W        W12228   2.711   6.023   8.990
 8029W        W12229   2.259   6.616  11.846
 8030W        W12230   5.275   6.037  11.508
 8031W        W12231   5.835   2.712   8.325
 8032W        W12232   0.302   7.465   1.416
 8033W        W12233  10.810   7.663  10.147
 8034W        W12234   3.422   5.241   0.321
 8035W        W12235   9.295   9.315   1.807
 8036W        W12236   7.003   9.803   1.656
 8037W        W12237   5.938   8.666  10.308
 8038W        W12238   5.841   0.034   9.022
 8039W        W12239  10.884   7.983   3.247
 8040W        W12240   3.218  10.224   2.162
 8041W        W12241   6.497  11.407  10.265
 8042W        W12242   5.426   9.562   3.700
 8043W        W12243   4.472   1.638   9.886
 8044W        W12244   2.439   2.164  11.459
 8045W        W12245   6.108   8.819   1.827
 8046W        W12246   0.269  10.063   3.258
 8047W        W12247   3.415  10.505   9.927
 8048W        W12248   9.082  10.219   8.778
 8049W        W12249   6.988  10.975  11.688
 8050W        W12250   8.713   5.756   3.113
 8051W        W12251  10.322   2.422  10.411
 8052W        W12252   5.019   6.516  10.099
 8053W        W12253   6.903   8.979   3.685
 8054W        W12254   9.899   4.066   1.794
 8055W        W12255   9.343   6.066   9.220
 8056W        W12256   0.359   1.330  10.378
 8057W        W12257  11.235   4.255   3.011
 8058W        W12258   7.239  11.077  10.401
 8059W        W12259  10.349   1.781   2.156
 8060W        W12260   8.655   5.214  10.630
 8061W        W12261   7.572   4.829  11.453
 8062W        W12262   3.118   4.767   0.417
 8063W        W12263   3.445   8.008   9.121
 8064W        W12264   7.794   3.872   3.261
 8065W        W12265   2.469   7.490  11.310
 8066W        W12266   4.202   3.856  11.030
 8067W        W12267   0.431   0.850   8.751
 8068W        W12268   7.931   0.698   9.332
 8069W        W12269   9.802   2.831  11.582
 8070W        W12270  11.391   8.627   0.141
 8071W        W12271   3.426   9.909  11.555
 8072W        W12272   1.762   4.590   0.019
 8073W        W12273   0.939  11.494   2.971
 8074W        W12274   5.220   5.590   1.867
 8075W        W12275   6.746   0.530   3.554
 8076W        W12276   2.415   7.066   0.545
 8077W        W12277   9.552  11.194   0.509
 8078W        W12278   2.754   6.907   8.737
 8079W        W12279  10.392   5.057   3.281
 8080W        W12280   1.459   3.724   0.495
 8081W        W12281  10.395   5.142   0.665
 8082W        W12282  11.377   8.433   1.661
 8083W        W12283   4.162   4.149  10.029
 8084W        W12284   4.759   0.602   2.821
 8085W        W12285   9.601   2.299   3.202
 8086W        W12286   7.577   7.583   1.833
 8087W        W12287   6.601   2.079   0.933
 8088W        W12288  10.146   8.994   0.496
 8089W        W12289   6.543   0.416   1.431
 8090W        W12290   3.295   6.661   1.655
 8091W        W12291   3.564   8.066   0.799
 8092W        W12292   3.239   3.233   2.797
 8093W        W12293   0.765   2.221   2.763
 8094W        W12294   5.952   3.824  11.861
 8095W        W12295   0.434   3.048   9.749
 8096W        W12296  10.434  10.024   9.477
 8097W        W12297   9.054   5.000  10.374
 8098W        W12298   5.584   9.440   2.225
 8099W        W12299   3.103   5.143   8.685
 8100W        W12300   3.605   9.934  11.066
 8101W        W12301   4.282   2.658   1.449
 8102W        W12302   8.475  10.360   2.615
 8103W        W12303   2.188   2.275   0.735
 8104W        W12304   4.746   0.316   8.359
 8105W        W12305   9.804   7.016   2.337
 8106W        W12306   0.447   4.808  10.117
 8107W        W12307   3.786   5.949  10.485
 8108W        W12308  11.063   2.879  11.717
 8109W        W12309   2.795   0.809  10.023
 8110W        W12310   0.513   9.505  10.715
 8111W        W12311   6.948  11.395   0.862
 8112W        W12312   6.860   6.058   0.340
 8113W        W12313   0.820  11.198  10.169
 8114W        W12314   7.357   8.926  11.775
 8115W        W12315  10.493   8.790   3.443
 8116W        W12316   3.826   2.119   9.058
 8117W        W12317   4.154   1.966  10.129
 8118W        W12318   6.306   6.307   9.177
 8119W        W12319   5.180   1.146   0.853
 8120W        W12320   0.674   5.234   9.293
 8121W        W12321   8.061   5.694   1.673
 8122W        W12322   9.076   8.534  10.539
 8123W        W12323  10.936   9.138  10.272
 8124W        W12324   6.330  10.033  10.285
 8125W        W12325   8.187   6.556   8.953
 8126W        W12326   2.097   7.101   2.737
 8127W        W12327   7.076  10.571   1.482
 8128W        W12328   6.084   9.790   9.904
 8129W        W12329  10.978   4.893   1.616
 8130W        W12330   0.387   2.613  10.490
 8131W        W12331   9.995   0.766   9.958
 8132W        W12332   1.851  11.013  11.491
 8133W        W12333   0.213   4.520   9.754
 8134W        W12334   2.462   6.155   1.267
 8135W        W12335   7.513   9.708   1.333
 8136W        W12336  11.115   7.845   0.030
 8137W        W12337   4.373   8.960   8.523
 8138W        W12338   8.170   3.181  10.442
 8139W        W12339   1.221   9.972  11.274
 8140W        W12340   3.962  10.851   0.866
 8141W        W12341   6.277  10.968  10.559
 8142W        W12342   5.097   9.642  10.879
 8143W        W12343   5.132   2.622   2.296
 8144W        W12344   3.671   4.349  11.978
 8145W        W12345   2.687  11.193  10.410
 8146W        W12346   7.522   4.056  11.830
 8147W        W12347   9.055   9.534   0.879
 8148W        W12348   7.966   8.478  11.429
 8149W        W12349   2.242  10.953  10.511
 8150W        W12350   2.823   3.660   9.863
 8151W        W12351   7.447  10.782  10.744
 8152W        W12352   1.260   1.004  10.442
 8153W        W12353   6.022   3.815   0.916
 8154W        W12354   5.714   4.262   8.645
 8155W        W12355   2.930   3.026   0.932
 8156W        W12356  10.451   7.867  11.050
 8157W        W12357   1.456  10.297   0.507
 8158W        W12358   6.092   8.963   0.494
 8159W        W12359   2.691   0.789   2.170
 8160W        W12360   1.048   1.405   2.342
 8161W        W12361   5.538   1.481  10.193
 8162W        W12362   2.546  11.448   9.992
 8163W        W12363   7.274  10.487   8.948
 8164W        W12364  10.399   8.922   9.913
 8165W        W12365   1.628   9.051  10.369
 8166W        W12366   9.581   6.135   0.530
 8167W        W12367   3.615   7.019   2.828
 8168W        W12368   7.890   5.347   9.062
 8169W        W12369   8.518   1.270   9.043
 8170W        W12370  11.285   6.591  10.958
 8171W        W12371   3.640   2.843   2.197
 8172W        W12372  11.365   2.563   0.002
 8173W        W12373   3.560  10.178  10.341
 8174W        W12374  10.813   7.616   2.904
 8175W        W12375  10.244   9.675  11.252
 8176W        W12376   3.708   7.424   9.320
 8177W        W12377  11.424  10.987  10.153
 8178W        W12378   3.211   6.958  11.983
 8179W        W12379   5.542   4.463  11.697
 8180W        W12380   4.750  10.918   2.987
 8181W        W12381   4.594   6.281   0.659
 8182W        W12382   5.920   7.248   1.211
 8183W        W12383   5.673   6.664   3.584
 8184W        W12384   2.078   0.073   9.870
 8185W        W12385   3.894   5.102   1.568
 8186W        W12386   6.645   8.293   3.393
 8187W        W12387   8.917   7.794   9.461
 8188W        W12388   3.399   1.383   2.780
 8189W        W12389  10.612   5.462   9.697
 8190W        W12390   1.273   6.444   0.725
 8191W        W12391   8.119   6.595   0.492
 8192W        W12392   6.745  10.200   3.619
 8193W        W12393   3.513   8.478   3.643
 8194W        W12394   6.204   7.001  10.582
 8195W        W12395   0.186  10.858  11.171
 8196W        W12396   7.502   0.286   9.035
 8197W        W12397  11.199   2.910   0.947
 8198W        W12398   8.089   0.273   2.000
 8199W        W12399   0.350   8.471   9.813
 8200W        W12400   1.484   1.254   0.496
 8201W        W12401   7.704   8.424   0.819
 8202W        W12402   8.249   2.253   1.745
 8203W        W12403  11.114   1.371   0.940
 8204W        W12404   6.892  10.914   1.047
 8205W        W12405  11.461   0.531   3.820
 8206W        W12406   1.882   9.386  10.908
 8207W        W12407   9.947   6.517   2.220
 8208W        W12408   8.012   2.721   9.783
 8209W        W12409   2.198   9.921  10.291
 8210W        W12410   6.638   1.370  10.786
 8211W        W12411   8.671   6.601   2.640
 8212W        W12412   2.194   5.137   3.158
 8213W        W12413   8.113   8.643  10.807
 8214W        W12414   7.481   8.599   1.829
 8215W        W12415   5.170   6.239  10.963
 8216W        W12416   6.100  10.878   2.709
 8217W        W12417   5.336   6.052   1.282
 8218W        W12418   9.996   5.429  11.903
 8219W        W12419   7.115  10.577  10.391
 8220W        W12420   3.127  10.998   2.906
 8221W        W12421   4.490   3.602   9.158
 8222W        W12422   2.129  10.173   8.935
 8223W        W12423   7.239   3.313   0.928
 8224W        W12424   7.392   9.094   1.895
 8225W        W12425   2.150  11.009   9.603
 8226W        W12426   7.575   0.576   2.729
 8227W        W12427   8.944   4.544  10.170
 8228W        W12428   3.360   9.600  10.773
 8229W        W12429   7.179   5.564   1.930
 8230W        W12430   0.466   4.091   2.889
 8231W        W12431  10.341   7.608   2.717
 8232W        W12432   0.672  11.051  11.118
 8233W        W12433   2.322   2.278  10.931
 8234W        W12434   7.106   1.486   0.376
 8235W        W12435   2.211  10.779   0.367
 8236W        W12436   3.231   9.731   2.309
 8237W        W12437  11.055   7.908   1.145
 8238W        W12438   6.560   7.860  10.400
 8239W        W12439   0.081   3.761   3.618
 8240W        W12440  10.908   3.145  10.941
 8241W        W12441  10.957   0.161   8.999
 8242W        W12442   5.462   3.663  11.792
 8243W        W12443   6.224   4.163   3.461
 8244W        W12444   2.369   4.053   0.370
 8245W        W12445   2.113   2.719  11.498
 8246W        W12446  10.325   4.063   9.014
 8247W        W12447   1.369   2.705   0.138
 8248W        W12448   8.239   0.975   0.633
 8249W        W12449   7.943   4.101   9.532
 8250W        W12450   5.836   7.634   4.011
 8251W        W12451   8.073   4.735   9.904
 8252W        W12452   4.131   5.219  10.532
 8253W        W12453   1.136   4.457   1.826
 8254W        W12454  11.379  10.065  10.614
 8255W        W12455  11.215   6.289  11.373
 8256W        W12456   7.080   6.362   4.226
 8257W        W12457   5.014   4.721   0.209
 8258W        W12458   9.978   9.237  11.987
 8259W        W12459   0.897   3.681   3.383
 8260W        W12460   5.246   4.550   8.647
 8261W        W12461  11.484   3.516   0.389
 8262W        W12462   1.400  11.474   1.814
 8263W        W12463   1.316  11.096   2.195
 8264W        W12464   9.559   6.774  10.365
 8265W        W12465   5.625   6.520   9.886
 8266W        W12466   3.378   7.140   1.488
 8267W        W12467   1.312   5.966   9.184
 8268W        W12468   1.308   9.919   0.792
 8269W        W12469   0.406   0.018   2.327
 8270W        W12470   6.466   2.037  10.250
 8271W        W12471  10.276  10.540  10.263
 8272W        W12472   7.930   0.971  10.723
 8273W        W12473   6.613   7.814   9.114
 8274W        W12474   1.805   7.292   3.481
 8275W        W12475   4.073  10.747   0.044
 8276W        W12476   8.556  10.745   1.340
 8277W        W12477   6.586   5.720   0.024
 8278W        W12478   6.761   7.078   0.659
 8279W        W12479   6.649   3.278  10.538
 8280W        W12480   7.921   6.429   0.917
 8281W        W12481  10.077   5.860   3.392
 8282W        W12482   4.617  10.011  10.015
 8283W        W12483   9.419  10.655   1.215
 8284W        W12484   9.063   4.267   2.617
 8285W        W12485   8.961   5.573   2.138
 8286W        W12486   9.950   6.798   3.191
 8287W        W12487  11.080   0.947  11.748
 8288W        W12488   3.794   4.413  10.242
 8289W        W12489   9.249   5.810   0.199
 8290W        W12490   5.465   6.257   1.729
 8291W        W12491  11.415   7.316   2.970
 8292W        W12492  10.400   9.414   2.646
 8293W        W12493   6.533   8.318   1.168
 8294W        W12494   9.747   7.265  10.405
 8295W        W12495   4.328   7.208   2.349
 8296W        W12496  11.101   6.336   8.382
 8297W        W12497   4.122   4.862   8.590
 8298W        W12498  11.119   3.106   0.490
 8299W        W12499   1.582   6.689   0.381
 8300W        W12500   8.124   9.389   0.526
 8301W        W12501   8.032   9.961   2.226
 8302W        W12502   4.745  10.792   0.304
 8303W        W12503   8.691   8.863   9.820
 8304W        W12504   3.806  10.404   0.359
 8305W        W12505   9.580   8.886   2.706
 8306W        W12506   6.096   3.770   2.663
 8307W        W12507   0.719  10.268   9.159
 8308W        W12508   1.803   6.549   1.781
 8309W        W12509   0.017   5.062   1.645
 8310W        W12510   3.945   9.359   9.878
 8311W        W12511   1.664  11.284  11.077
 8312W        W12512   3.532   5.602   2.383
 8313W        W12513   2.152   0.201   3.479
 8314W        W12514   9.432   9.242  11.260
 8315W        W12515   6.394   1.687   2.045
 8316W        W12516  10.484   5.509   3.526
 8317W        W12517   1.947   3.136  10.488
 8318W        W12518   1.796   0.021   2.769
 8319W        W12519   6.910   8.245  10.217
 8320W        W12520   9.287   9.267   0.139
 8321W        W12521   2.478   7.966  10.365
 8322W        W12522   2.350   1.863   1.487
 8323W        W12523   4.815   8.016   2.879
 8324W        W12524  11.446  10.056   0.143
 8325W        W12525   7.657   5.171   1.815
 8326W        W12526   2.622   0.695  10.500
 8327W        W12527   3.418   6.477   9.063
 8328W        W12528   5.774  11.124   3.482
 8329W        W12529   4.694   9.830   2.516
 8330W        W12530   2.155   3.272  11.880
 8331W        W12531   3.851   7.128   9.744
 8332W        W12532   3.782   7.419  11.096
 8333W        W12533   7.732   8.457  10.499
 8334W        W12534   0.126   7.797   0.175
 8335W        W12535   1.612   5.689   2.651
 8336W        W12536  10.375   4.742   9.347
 8337W        W12537   6.103   1.188   3.399
 8338W        W12538   1.779   9.131  11.353
 8339W        W12539   8.554   2.730   0.531
 8340W        W12540   3.907  10.289   9.943
 8341W        W12541   9.059   9.975   0.570
 8342W        W12542   2.296   3.232  10.145
 8343W        W12543   8.611   0.054   0.862
 8344W        W12544   7.781   7.930  10.756
 8345W        W12545   1.602   9.758   1.524
 8346W        W12546  10.370   4.545   3.380
 8347W        W12547   6.152   9.054   3.265
 8348W        W12548   7.973  10.030   1.278
 8349W        W12549   8.859   5.474   0.111
 8350W        W12550  11.025   6.198   1.987
 8351W        W12551  11.319   7.698   0.587
 8352W        W12552   5.526   3.688  10.133
 8353W        W12553   8.447   2.178  10.767
 8354W        W12554   3.161   4.805   1.582
 8355W        W12555   1.481   4.760  11.075
 8356W        W12556   3.109   7.092   2.817
 8357W        W12557  10.833   6.345  10.730
 8358W        W12558   3.209  10.561   3.641
 8359W        W12559   6.236   9.962   1.708
 8360W        W12560   1.814   1.399  11.388
 8361W        W12561  10.901   6.587   8.821
 8362W        W12562   6.933   4.640   3.177
 8363W        W12563  10.341   8.319   1.220
 8364W        W12564   2.350   1.144   0.492
 8365W        W12565   0.558   2.436   2.349
 8366W        W12566   6.650   2.860  11.581
 8367W        W12567  10.859   2.942   3.596
 8368W        W12568   2.616   9.857   9.883
 8369W        W12569   2.238   0.511  11.796
 8370W        W12570   7.792   8.158   1.411
 8371W        W12571   0.285   1.306   1.715
 8372W        W12572  11.044  10.446   9.482
 8373W        W12573   5.493   6.144   9.518
 8374W        W12574   3.561   2.229   3.271
 8375W        W12575   0.472   7.083   1.710
 8376W        W12576   3.891   1.506   0.388
 8377W        W12577   5.560   7.817   9.541
 8378W        W12578   9.079   7.734   1.204
 8379W        W12579   7.503   8.687   0.411
 8380W        W12580  10.438  10.407   1.665
 8381W        W12581   4.180   8.602   3.060
 8382W        W12582   4.266   9.086   3.337
 8383W        W12583   8.611   8.331   3.009
 8384W        W12584   5.532   0.345   1.374
 8385W        W12585  11.073   3.407   2.952
 8386W        W12586   5.817  10.562  11.785
 8387W        W12587   4.533   4.868   0.095
 8388W        W12588   1.702   4.835   3.182
 8389W        W12589   8.078   1.829   9.444
 8390W        W12590   9.870   3.360   3.160
 8391W        W12591   7.872   1.763   1.018
 8392W        W12592  11.346  11.030  11.565
 8393W        W12593   5.175   6.499   0.177
 8394W        W12594   2.188  11.475   9.383
 8395W        W12595   0.650  11.080   0.271
 8396W        W12596   5.187   1.846   1.329
 8397W        W12597   6.460   5.050  10.960
 8398W        W12598   3.139   4.305   1.338
 8399W        W12599   1.762   9.940   2.820
 8400W        W12600   4.644   8.282   3.714
 8401W        W12601   6.971   8.875   0.084
 8402W        W12602   5.074   1.900   9.310
 8403W        W12603   2.032  11.072   8.604
 8404W        W12604   7.432   3.283   1.576
 8405W        W12605   0.237   1.074   0.898
 8406W        W12606   1.010  10.999  11.493
 8407W        W12607   4.473  11.072  11.936
 8408W        W12608   1.143  10.054   8.913
 8409W        W12609   5.613   9.808  11.441
 8410W        W12610   5.236   0.447   2.733
 8411W        W12611   3.283   3.267  11.068
 8412W        W12612  10.076   6.030   2.114
 8413W        W12613   0.494  10.558   0.081
 8414W        W12614   2.150   4.594   3.188
 8415W        W12615   3.382   2.418  11.489
 8416W        W12616   4.279   2.171   1.239
 8417W        W12617   5.849   8.668  11.850
 8418W        W12618   6.036   0.323  11.286
 8419W        W12619   4.177   0.269   2.803
 8420W        W12620   0.796   4.519   0.326
 8421W        W12621   9.926   8.587   1.064
 8422W        W12622   6.033   0.828  11.074
 8423W        W12623   5.206   0.529   9.232
 8424W        W12624   8.996   2.516  11.960
 8425W        W12625   7.755   6.161  10.230
 8426W        W12626   2.082   5.078   9.535
 8427W        W12627   2.439   0.356  10.848
 8428W        W12628  10.006   5.356   3.407
 8429W        W12629   5.098   9.120   9.488
 8430W        W12630   4.371   7.203   1.454
 8431W        W12631   8.456   0.267   0.402
 8432W        W12632   0.876  10.216  10.963
 8433W        W12633   2.080   9.474   0.755
 8434W        W12634   4.842   3.832  10.494
 8435W        W12635   3.531   5.239   0.872
 8436W        W12636   1.199   3.137   2.303
 8437W        W12637   7.304   0.545   1.378
 8438W        W12638   0.283   3.928   1.518
 8439W        W12639   8.853   2.253   9.910
 8440W        W12640   0.166  10.972   0.442
 8441W        W12641   9.474   9.855   9.887
 8442W        W12642  10.402   6.173  11.655
 8443W        W12643   1.298   6.475   9.261
 8444W        W12644   8.822   4.081  10.400
 8445W        W12645   7.964   7.501   0.287
 8446W        W12646   0.727   2.782  11.456
 8447W        W12647   6.346   7.605   4.056
 8448W        W12648   0.479   4.817   8.951
 8449W        W12649   4.941   0.465   2.289
 8450W        W12650   6.989  10.246  10.021
 8451W        W12651   3.889   8.820   3.538
 8452W        W12652   4.541   8.905  11.426
 8453W        W12653   4.596   2.344   2.164
 8454W        W12654   0.568   4.300   1.225
 8455W        W12655   3.743   7.136   8.886
 8456W        W12656   0.364   6.472  10.191
 8457W        W12657   0.272   0.868   9.714
 8458W        W12658   5.780   8.131   0.000
 8459W        W12659   5.613   9.303  10.774
 8460W        W12660   1.898   1.079   0.222
 8461W        W12661   2.806   4.670   9.149
 8462W        W12662  10.736   7.153   2.227
 8463W        W12663  10.374   7.142   0.739
 8464W        W12664  10.616   1.341   1.068
 8465W        W12665   6.169   0.377   0.654
 8466W        W12666  11.417   8.167   2.622
 8467W        W12667   2.569   1.591   9.009
 8468W        W12668   4.400   6.602  10.449
 8469W        W12669   8.587  10.243  10.567
 8470W        W12670   3.315   0.309   9.624
 8471W        W12671   3.203   3.659  10.355
 8472W        W12672   7.111   6.053   0.859
 8473W        W12673   7.050   7.584   8.972
 8474W        W12674   8.144   1.845  10.489
 8475W        W12675  11.401   4.116   1.865
 8476W        W12676   4.790   1.907  11.679
 8477W        W12677   6.986   5.732  10.437
 8478W        W12678   6.021   9.572  10.575
 8479W        W12679   5.102   7.824   9.803
 8480W        W12680   3.821   3.627   9.749
 8481W        W12681   1.030   8.942   1.543
 8482W        W12682   5.178   8.696   0.608
 8483W        W12683   7.957   7.043   2.061
 8484W        W12684   9.149   5.193   0.460
 8485W        W12685   4.798  10.372   9.664
 8486W        W12686   8.387   5.515  10.316
 8487W        W12687   2.646  10.887   0.623
 8488W        W12688   9.376   0.841   1.251
 8489W        W12689   9.784   2.651   9.094
 8490W        W12690  10.850   3.007   9.921
 8491W        W12691  11.369   0.565  11.260
 8492W        W12692   2.778   1.025  11.426
 8493W        W12693   2.228   2.160   3.411
 8494W        W12694   9.464   1.465  10.097
 8495W        W12695   5.924   1.820  10.204
 8496W        W12696   4.504   7.608   2.710
 8497W        W12697   5.444   6.111   2.753
 8498W        W12698   4.726   8.525   2.888
 8499W        W12699   4.219   2.915   1.919
 8500W        W12700   6.067  10.964   0.691
 8501W        W12701   7.898   4.191  10.587
 8502W        W12702   4.276  11.058   0.407
 8503W        W12703   5.190  11.419  11.106
 8504W        W12704   7.237   9.248   9.948
 8505W        W12705   9.385   6.180  11.541
 8506W        W12706  10.635   3.836   3.651
 8507W        W12707   3.947   8.005  10.502
 8508W        W12708   6.790  10.768  10.787
 8509W        W12709   4.897  10.095   0.960
 8510W        W12710   1.651   0.885   3.467
 8511W        W12711   7.085  10.480   9.448
 8512W        W12712   9.827  10.788   8.990
 8513W        W12713   2.135   0.190   2.425
 8514W        W12714   2.386   6.116  11.334
 8515W        W12715   4.160   1.720   9.148
 8516W        W12716  10.470   4.318  11.016
 8517W        W12717   9.782   0.397   1.283
 8518W        W12718   0.917   4.984   0.513
 8519W        W12719   1.310   5.311   9.924
 8520W        W12720   8.478   5.801   0.819
 8521W        W12721   1.160   8.152  11.303
 8522W        W12722   0.214   3.461  11.938
 8523W        W12723   2.728   3.859   0.670
 8524W        W12724   2.616   5.093   9.424
 8525W        W12725   9.880   5.700   0.747
 8526W        W12726   8.583   8.276   1.036
 8527W        W12727   6.030   9.438   8.600
 8528W        W12728   9.612   3.137  10.538
 8529W        W12729   6.340   2.100   1.739
 8530W        W12730   5.803   9.861   1.476
 8531W        W12731   7.129   9.882   2.169
 8532W        W12732   4.647  11.263   9.621
 8533W        W12733   5.705   8.329   9.485
 8534W        W12734   5.660   5.818   1.980
 8535ION    NA+12735   2.771   6.701  11.890
 8536ION    NA+12736   4.185   1.067   2.063
 8537ION    NA+12737   1.088  10.572   3.367
 8538ION    NA+12738   6.810   0.888   1.374
 8539ION    NA+12739   7.206   3.419   9.476
 8540ION    NA+12740  10.152   9.514   3.522
 8541ION    NA+12741  11.456   2.011  11.411
 8542ION    NA+12742   5.636   4.057   0.647
 8543ION    NA+12743  11.241   7.144   9.647
 8544ION    NA+12744   8.224   4.614   9.422
 8545ION    NA+12745   6.822   6.441  10.907
 8546ION    NA+12746   7.748   2.279   1.666
 8547ION    NA+12747   8.053   4.984   0.991
 8548ION    NA+12748   8.119   2.300   3.250
 8549ION    NA+12749   1.833  11.002   1.002
 8550ION    NA+12750   0.914   9.292  11.891
 8551ION    NA+12751   7.854   6.238  11.510
 8552ION    NA+12752   5.352   1.585   3.212
 8553ION    NA+12753   3.995  10.437  10.471
 8554ION    NA+12754   1.843   3.115   9.930
 8555ION    NA+12755   9.847   4.718   2.301
 8556ION    NA+12756   0.854   8.670   0.827
 8557ION    NA+12757   6.326   7.429  11.918
 8558ION    NA+12758   8.042   3.413   3.132
 8559ION    NA+12759   8.878   6.304  10.671
 8560ION    NA+12760   9.736   7.752   0.956
 8561ION    NA+12761   6.344  10.982   3.166
 8562ION    NA+12762   8.244   2.292   0.400
 8563ION    NA+12763   0.931   2.811   9.655
 8564ION    NA+12764   2.117   0.627   0.297
 8565ION    NA+12765   3.401   2.836  11.796
 8566ION    NA+12766   6.604   7.664   1.893
 8567ION    NA+12767   3.198   4.898   8.256
 8568ION    NA+12768   4.663  11.166   2.546
 8569ION    NA+12769   5.694  10.286   1.213
 8570ION    NA+12770   3.167   4.707  10.832
 8571ION    NA+12771  10.440   0.487  11.505
 8572ION    NA+12772   7.110   7.536   3.424
 8573ION    NA+12773   7.637   3.767   0.260
 8574ION    NA+12774  10.239   7.439  11.969
 8575ION    NA+12775   3.698   9.988   2.189
 8576ION    NA+12776   3.219   1.133  10.180
 8577ION    NA+12777   1.456   7.674  10.015
 8578ION    NA+12778   1.465   8.749   8.832
 8579ION    NA+12779   3.121   9.433  11.823
 8580ION    NA+12780   8.915   0.156   1.293
 8581ION    NA+12781   0.541   5.233   9.805
 8582ION    NA+12782   5.603   7.091   2.421
 8583ION    NA+12783   2.916   3.859   9.394
 8584ION    NA+12784   7.027   5.624   0.561
 8585ION    NA+12785   3.493  11.425   1.732
 8586ION    NA+12786   0.906  10.803   2.271
 8587ION    NA+12787   4.822   6.529   1.928
 8588ION    NA+12788   1.032   6.277   3.106
 8589ION    NA+12789   9.771   2.155   8.916
 8590ION    NA+12790   6.659   6.889   3.159
 8591ION    NA+12791   9.177  10.348   1.845
 8592ION    NA+12792   1.501   4.162   0.738
 8593ION    NA+12793   1.657   4.369   1.884
 8594ION    NA+12794   3.357   6.207   3.337
 8595ION    NA+12795   9.652   7.691   3.480
 8596ION    NA+12796   5.770   8.035  11.482
 8597ION    NA+12797   1.164   6.005   9.685
 8598ION    NA+12798   8.466   3.641   2.204
 8599ION    NA+12799   9.676   2.308   3.717
 8600ION    NA+12800   7.405   1.743   0.045
 8601ION    NA+12801   8.534   8.379   2.496
 8602ION    NA+12802   0.006  11.057   3.291
 8603ION    NA+12803   6.815   7.491   4.212
 8604ION    NA+12804   5.320  11.282  11.576
 8605ION    NA+12805   6.044   2.548   2.621
 8606ION    NA+12806   8.294   8.543   9.817
 8607ION    NA+12807   7.329   8.878   1.430
 8608ION    NA+12808   4.717  10.226   2.211
 8609ION    NA+12809   4.267   5.811   2.006
 8610ION    NA+12810   0.030   8.012   1.909
 8611ION    NA+12811   4.151  10.047   1.279
 8612ION    NA+12812   8.148   0.943   9.771
 8613ION    NA+12813   4.359   5.915   0.384
 8614ION    NA+12814  10.095   0.427   0.865
 8615ION    NA+12815   9.721   7.861   9.033
 8616ION    NA+12816   6.010   3.907   1.834
 8617ION    NA+12817   7.323   9.360  10.832
 8618ION    NA+12818   5.915   3.241   3.349
 8619ION    NA+12819   1.760   1.156   1.369
 8620ION    NA+12820   7.666   2.848   8.611
 8621ION    NA+12821   6.196   8.470   9.503
 8622ION    NA+12822   0.652   4.673   1.614
 8623ION    NA+12823   3.170   6.611   8.595
 8624ION    NA+12824   4.131   6.807   0.254
 8625ION    CL-12825   5.522   1.705   2.133
 8626ION    CL-12826   0.202   7.860  11.286
 8627ION    CL-12827  11.334   4.319   8.639
 8628ION    CL-12828   2.128   8.512   2.282
 8629ION    CL-12829   7.021   7.824   1.870
 8630ION    CL-12830   4.682   8.960   1.522
 8631ION    CL-12831   8.192   3.596  11.384
 8632ION    CL-12832   0.135   7.833   2.302
 8633ION    CL-12833   9.180   5.897   3.525
 8634ION    CL-12834   0.278   0.877   0.210
 8635ION    CL-12835   7.451  11.474   0.817
 8636ION    CL-12836   3.313  11.338   1.335
 8637ION    CL-12837   6.940   3.144   9.706
 8638ION    CL-12838   5.023   0.529   1.389
 8639ION    CL-12839  11.489  11.430   3.029
 8640ION    CL-12840   4.768   1.189  11.018
 8641ION    CL-12841   5.810   9.920   0.967
 8642ION    CL-12842  11.133   7.354   9.266
 8643ION    CL-12843   0.257   4.449   1.621
 8644ION    CL-12844   6.052   7.773  11.750
 8645ION    CL-12845  10.610  10.954  10.127
 8646ION    CL-12846   3.574  11.334  11.987
 8647ION    CL-12847   7.222   1.044   1.453
 8648ION    CL-12848   9.116   1.598   3.548
 8649ION    CL-12849   3.238  11.141   9.127
 8650ION    CL-12850   0.978  10.350   9.595
 8651ION    CL-12851   3.294   2.999   3.294
 8652ION    CL-12852   6.880   7.284   3.107
 8653ION    CL-12853   6.705   2.783  10.608
 8654ION    CL-12854  11.462   3.549   1.301
 8655ION    CL-12855   2.363   0.438  10.131
 8656ION    CL-12856   9.474  10.651  10.353
 8657ION    CL-12857   1.105   7.958   3.384
 8658ION    CL-12858   6.480   7.271   4.428
 8659ION    CL-12859   8.466   4.975   3.629
 8660ION    CL-12860   5.387   2.843   8.531
 8661ION    CL-12861   8.179   6.512   2.756
 8662ION    CL-12862   7.007   9.490   2.497
 8663ION    CL-12863   5.193   3.389   2.738
 8664ION    CL-12864  11.204   3.556  11.931
 8665ION    CL-12865  10.533   3.189   1.392
 8666ION    CL-12866   7.526   7.312   9.662
 8667ION    CL-12867   1.015   1.527   0.393
 8668ION    CL-12868   3.336   1.557  10.104
 8669ION    CL-12869  10.882   3.608  10.117
 8670ION    CL-12870   1.350   1.236   9.656
 8671ION    CL-12871  11.438   5.495   2.337
 8672ION    CL-12872   2.660   6.827   9.967
 8673ION    CL-12873   6.886   9.420  10.766
 8674ION    CL-12874   8.317   4.619   0.965
 8675ION    CL-12875   4.256   8.737  11.014
 8676ION    CL-12876   5.296   3.761   0.670
 8677ION    CL-12877   0.225   5.260  10.122
 8678ION    CL-12878   5.816   4.168   2.143
 8679ION    CL-12879   9.116   9.594   3.541
 8680ION    CL-12880  10.972   5.536   8.109
 8681ION    CL-12881   3.023   7.759   9.902
 8682ION    CL-12882   5.322   1.183  11.964
 8683ION    CL-12883   9.901   6.688   1.200
 8684ION    CL-12884   9.191   7.169   2.919
 8685ION    CL-12885   4.088   7.263   0.302
 8686ION    CL-12886   9.320   6.384  10.663
 8687ION    CL-12887   0.693   4.615   2.912
 8688ION    CL-12888  10.428  10.448   1.142
 8689ION    CL-12889   7.132  10.111   1.289
 8690ION    CL-12890   5.308   3.698   9.628
 8691ION    CL-12891   4.537   6.180   2.005
 8692ION    CL-12892   4.232   6.350   0.303
 8693ION    CL-12893  10.880   0.867   8.500
 8694ION    CL-12894   5.536   8.311  11.197
 8695ION    CL-12895   5.330   3.114  11.554
 8696ION    CL-12896   4.465   3.060   8.852
 8697ION    CL-12897   9.964   7.465  11.618
 8698ION    CL-12898   0.751   5.993   3.350
 8699ION    CL-12899  10.109   3.118   2.748
 8700ION    CL-12900   9.338   7.820   0.763
 8701ION    CL-12901   7.486   1.758  11.606
 8702ION    CL-12902   2.754   5.636   2.070
 8703ION    CL-12903   5.670  10.701   1.403
 8704ION    CL-12904   1.245   2.308   1.852
 8705ION    CL-12905   1.153  11.270  11.039
 8706ION    CL-12906   4.894   1.926   9.810
 8707ION    CL-12907   8.072  11.267   1.871
 8708ION    CL-12908   1.440   9.459   2.694
 8709ION    CL-12909   6.627   7.108   0.034
 8710ION    CL-12910   1.751  10.749  10.346
 8711ION    CL-12911   0.859   4.989   1.354
 8712ION    CL-12912   6.047   9.553  11.552
 8713ION    CL-12913   5.455  10.320   8.899
 8714ION    CL-12914   9.525  10.317   1.567
  11.50000  11.50000  12.00000
