Protein in INSANE! Membrane UpperLeaflet>POPC=1.0 LowerLeaflet>POPC=1.0
12914
    1AU     AUC    1   1.210   6.249   7.120 -0.1123 -0.0179 -0.0480
    1AU     AUC    2   1.405   6.115   7.321  0.0620  0.0109  0.0076
    1AU     AUC    3   1.067   6.148   7.371 -0.0562  0.0261  0.0123
    1AU     AUC    4   1.319   6.375   6.844 -0.0220 -0.0116  0.0247
    1AU     AUC    5   1.020   6.433   6.923  0.0111 -0.0829 -0.0549
    1AU     AUC    6   1.253   6.618   7.066  0.0599  0.0179  0.0462
    1AU     AUC    7   1.293   6.418   7.388 -0.0721 -0.0337 -0.0365
    1AU     AUC    8   1.115   6.099   6.845  0.0325 -0.0224  0.0851
    1AU     AUC    9   1.175   5.925   7.122  0.0272 -0.0433 -0.1215
    1AU     AUC   10   0.924   6.125   7.086  0.0539  0.0177  0.0305
    1AU     AUC   11   1.012   6.442   7.247  0.0277  0.0470 -0.0396
    1AU     AUC   12   1.447   6.088   6.966  0.0132  0.0845  0.0529
    1AU     AUC   13   1.515   6.355   7.143  0.0326  0.0128  0.0157
    1AU     AUC   14   1.620   5.967   7.575 -0.0366  0.0628 -0.0694
    1AU     AUC   15   1.263   5.970   7.622 -0.0575 -0.0499  0.0814
    1AU     AUC   16   0.921   6.024   7.679  0.0739  0.0180 -0.0296
    1AU     AUC   17   1.415   6.498   6.507  0.0336 -0.0319 -0.0035
    1AU     AUC   18   1.084   6.570   6.612  0.0163  0.0325  0.1031
    1AU     AUC   19   0.780   6.607   6.748  0.1342  0.0345  0.0057
    1AU     AUC   20   1.295   6.957   7.100  0.0320 -0.0182 -0.0234
    1AU     AUC   21   1.403   6.785   7.389  0.0061  0.0573  0.0168
    1AU     AUC   22   1.403   6.558   7.677  0.0399 -0.0260  0.0026
    1AU     AUC   23   1.043   5.952   6.534  0.0297 -0.0598  0.0260
    1AU     AUC   24   1.092   5.728   6.817  0.0512  0.0744  0.0769
    1AU     AUC   25   1.140   5.576   7.127  0.0336 -0.0046 -0.0710
    1AU     AUC   26   0.589   6.019   7.060 -0.0929 -0.0204 -0.0065
    1AU     AUC   27   0.663   6.335   7.219 -0.0178 -0.0681  0.0602
    1AU     AUC   28   0.750   6.641   7.413 -0.0001  0.0992  0.0828
    1AU     AUC   29   1.664   5.892   6.855  0.0277 -0.0956 -0.0104
    1AU     AUC   30   1.789   6.174   6.984  0.0298 -0.0511  0.0108
    1AU     AUC   31   1.826   6.462   7.112 -0.0010 -0.0831 -0.0743
    1AU     AUC   32   0.710   5.992   7.342 -0.0154 -0.0210  0.0405
    1AU     AUC   33   0.817   6.305   7.544 -0.0638  0.0573 -0.0536
    1AU     AUC   34   1.721   5.926   7.252 -0.0155  0.0041  0.0962
    1AU     AUC   35   1.733   6.217   7.381  0.0117  0.0719  0.0377
    1AU     AUC   36   0.650   6.340   6.896  0.0961 -0.0111  0.0187
    1AU     AUC   37   0.733   6.684   7.072 -0.0463 -0.0440  0.0219
    1AU     AUC   38   1.554   6.212   6.679  0.1080 -0.0248 -0.0609
    1AU     AUC   39   1.650   6.477   6.752 -0.0110 -0.0560  0.0001
    1AU     AUC   40   1.504   6.244   7.671  0.0047  0.0553  0.0600
    1AU     AUC   41   1.137   6.295   7.675  0.0582 -0.1152  0.0540
    1AU     AUC   42   1.338   6.749   6.774  0.0377 -0.0364  0.0365
    1AU     AUC   43   1.008   6.830   6.907 -0.0160 -0.0094  0.0503
    1AU     AUC   44   1.362   5.761   7.380  0.0083 -0.1385 -0.0402
    1AU     AUC   45   1.018   5.758   7.386 -0.0834  0.0157  0.0441
    1AU     AUC   46   1.206   6.228   6.512 -0.0048 -0.0541  0.0393
    1AU     AUC   47   0.870   6.274   6.628 -0.0097  0.0769 -0.0619
    1AU     AUC   48   1.069   6.824   7.276  0.0633 -0.0180  0.0196
    1AU     AUC   49   1.093   6.637   7.546  0.0031 -0.0631 -0.0530
    1AU     AUC   50   0.804   5.965   6.785  0.0260 -0.0701  0.0506
    1AU     AUC   51   0.846   5.771   7.054  0.0597  0.0298  0.0519
    1AU     AUC   52   1.570   6.709   7.062  0.0163 -0.0040  0.0464
    1AU     AUC   53   1.622   6.531   7.420 -0.0120  0.0457 -0.0204
    1AU     AUC   54   1.368   5.899   6.681  0.0017  0.1447  0.0553
    1AU     AUC   55   1.422   5.731   7.016 -0.0216  0.0549 -0.1342
    1AU    AUSL   56   0.534   6.001   7.682  0.0376 -0.0039  0.0849
    1AU    AUSL   57   0.476   5.736   7.283 -0.0213  0.0435  0.0170
    1AU     AUL   58   0.367   5.685   7.610  0.0379  0.0332  0.0694
    1AU       S   59   0.431   5.285   7.434 -0.2043  0.2738  0.1339
    1AU     LIG   60   0.156   4.910   7.371  0.3183  0.3273 -0.2669
    1AU     LIG   61   0.126   4.525   7.138 -0.3787 -0.2328 -0.1954
    1AU     LIG   62   0.443   4.342   6.853 -0.2666 -0.3122  0.0942
    1AU     LIG   63   0.782   4.095   6.931  0.0276  0.2795  0.4718
    1AU     LIG   64   0.840   3.714   7.009 -0.3801  0.1455  0.1351
    1AU       S   65   0.026   6.009   7.674  0.0175  0.0354  0.1274
    1AU     LIG   66  -0.314   5.748   7.649  0.0834 -0.2619 -0.1429
    1AU     LIG   67  -0.610   5.765   7.447 -0.0802  0.0901  0.2537
    1AU     LIG   68  -0.957   5.758   7.296  0.1218  0.0960 -0.0420
    1AU     LIG   69  -1.220   5.692   6.919 -0.1241  0.2392 -0.4486
    1AU     LIG   70  -1.131   6.043   6.684  0.1919 -0.6187 -0.0126
    1AU    AUSL   71   0.312   6.141   7.314 -0.0438 -0.1044  0.0006
    1AU    AUSL   72   0.375   6.609   7.266  0.0493 -0.0415  0.0464
    1AU     AUL   73   0.083   6.440   7.447  0.0712 -0.0101 -0.0605
    1AU       S   74   0.113   6.003   7.335  0.1619  0.1814  0.2425
    1AU     LIG   75  -0.049   5.539   7.196  0.4764  0.1255  0.1114
    1AU     LIG   76  -0.528   5.504   7.037 -0.3236  0.0632 -0.0000
    1AU     LIG   77  -0.865   5.404   6.820  0.0102  0.2355 -0.0083
    1AU     LIG   78  -1.067   5.164   6.499  0.0192 -0.1863  0.0037
    1AU     LIG   79  -1.015   4.677   6.466  0.0363  0.0325  0.1596
    1AU       S   80  -0.045   6.635   7.025 -0.4291 -0.1723 -0.1278
    1AU     LIG   81  -0.455   6.660   7.266  0.0616  0.0101  0.2419
    1AU     LIG   82  -0.834   6.767   7.336  0.3776  0.0362 -0.0622
    1AU     LIG   83  -1.204   6.921   7.179 -0.1458 -0.1834  0.0607
    1AU     LIG   84  -1.212   7.372   7.268  0.1402  0.1325  0.0567
    1AU     LIG   85  -1.391   7.756   7.122  0.2548 -0.0040 -0.0205
    1AU    AUSL   86   0.652   6.406   7.498  0.0559 -0.0376 -0.0232
    1AU    AUSL   87   0.768   6.259   7.934 -0.0535  0.0359 -0.1058
    1AU     AUL   88   0.377   6.296   7.800  0.0571  0.0186 -0.0759
    1AU       S   89   0.282   6.816   7.686 -0.1915 -0.5439 -0.0951
    1AU     LIG   90  -0.130   6.801   7.757  0.0939  0.0014 -0.1487
    1AU     LIG   91  -0.593   6.962   7.732  0.3254  0.1633  0.3040
    1AU     LIG   92  -0.906   6.645   7.876  0.5216  0.4640  0.0386
    1AU     LIG   93  -1.175   6.450   7.585  0.0802  0.0621  0.3473
    1AU     LIG   94  -1.515   6.588   7.381 -0.0205 -0.2651 -0.1705
    1AU       S   95   0.652   6.317   8.165  0.0815  0.0396  0.0955
    1AU     LIG   96   0.740   6.227   8.598 -0.2008 -0.3180  0.0558
    1AU     LIG   97   0.600   6.178   8.983 -0.0167  0.4208  0.1646
    1AU     LIG   98   0.488   5.861   9.242  0.0324  0.0995  0.1080
    1AU     LIG   99   0.313   5.545   9.204 -0.0700  0.0906 -0.3233
    1AU     LIG  100   0.305   5.187   8.955  0.0632 -0.0236 -0.0464
    1AU    AUSL  101   2.045   6.047   7.482  0.0202  0.0151  0.0112
    1AU    AUSL  102   1.900   6.444   7.479 -0.0546  0.0757 -0.0937
    1AU     AUL  103   2.204   6.402   7.547 -0.0180 -0.1557  0.1464
    1AU       S  104   2.473   6.078   7.348 -0.2813 -0.0586 -0.0901
    1AU     LIG  105   2.825   6.405   7.062 -0.0190 -0.3226 -0.0523
    1AU     LIG  106   3.223   6.479   6.970  0.1126  0.2904 -0.1321
    1AU     LIG  107   3.562   6.774   6.910 -0.2539  0.0193  0.0822
    1AU     LIG  108   3.963   6.640   6.693  0.1459 -0.1078 -0.0814
    1AU     LIG  109   4.283   6.889   6.461 -0.2007 -0.1515  0.0791
    1AU       S  110   2.072   6.447   7.981  0.0787  0.1601 -0.4789
    1AU     LIG  111   2.185   6.924   8.024  0.0609  0.4047  0.0099
    1AU     LIG  112   1.846   7.134   8.122  0.1416  0.0356  0.1455
    1AU     LIG  113   1.549   7.288   8.438 -0.0431 -0.0674 -0.1812
    1AU     LIG  114   1.131   7.502   8.417  0.0443  0.6225 -0.2217
    1AU     LIG  115   0.896   7.849   8.607  0.3368 -0.1583 -0.0635
    1AU    AUSL  116   2.059   5.820   7.121 -0.0383 -0.0440 -0.0322
    1AU    AUSL  117   1.830   5.685   7.511  0.0598 -0.0614 -0.0036
    1AU     AUL  118   2.166   5.741   7.509 -0.0098 -0.0276 -0.0165
    1AU       S  119   1.997   5.320   7.615 -0.1147 -0.1604 -0.0689
    1AU     LIG  120   1.768   5.145   7.981  0.0758 -0.0658 -0.4929
    1AU     LIG  121   1.791   4.733   7.910  0.0717 -0.0322 -0.1754
    1AU     LIG  122   1.632   4.436   7.674  0.1636  0.0013 -0.1820
    1AU     LIG  123   1.769   4.082   7.294 -0.2564 -0.1889 -0.0372
    1AU     LIG  124   1.990   3.723   7.213  0.0228 -0.1044  0.0033
    1AU       S  125   2.463   6.015   7.192  0.0656  0.1618 -0.0799
    1AU     LIG  126   2.862   5.899   7.109 -0.0696 -0.2069 -0.0099
    1AU     LIG  127   3.352   5.817   7.102  0.0244 -0.0115  0.3408
    1AU     LIG  128   3.643   5.392   7.004 -0.1763 -0.0097  0.3645
    1AU     LIG  129   3.902   5.096   7.115  0.0282  0.0012  0.0075
    1AU     LIG  130   4.173   4.900   6.905  0.1156 -0.0250 -0.1480
    1AU    AUSL  131   2.030   6.257   7.117 -0.0269 -0.0606  0.0320
    1AU    AUSL  132   1.903   6.038   6.768  0.0281  0.0334 -0.0926
    1AU     AUL  133   2.149   5.917   6.874 -0.0397 -0.0257 -0.0146
    1AU       S  134   2.278   6.145   6.480 -0.3086  0.0288 -0.1947
    1AU     LIG  135   2.563   6.001   6.672 -0.1977 -0.1795 -0.1093
    1AU     LIG  136   2.997   6.145   6.626 -0.3271  0.1937 -0.1798
    1AU     LIG  137   3.434   6.338   6.583 -0.2086  0.0790  0.2262
    1AU     LIG  138   3.854   6.162   6.617 -0.2164 -0.1889 -0.4053
    1AU     LIG  139   4.088   5.884   6.987  0.3412 -0.1121  0.2990
    1AU       S  140   2.335   6.235   7.128 -0.3909 -0.3258 -0.1200
    1AU     LIG  141   2.443   6.667   7.131  0.0341 -0.1890 -0.0327
    1AU     LIG  142   2.450   6.825   6.799 -0.0526  0.2023  0.1821
    1AU     LIG  143   2.371   6.939   6.388 -0.1890 -0.0597 -0.0411
    1AU     LIG  144   2.320   7.036   6.010 -0.0196  0.0719  0.0328
    1AU     LIG  145   2.302   6.817   5.487  0.2541  0.0411 -0.2441
    1AU    AUSL  146   0.434   6.720   6.849 -0.0155  0.0223 -0.0041
    1AU    AUSL  147   0.628   6.935   7.290  0.0014 -0.0753  0.0067
    1AU     AUL  148   0.300   6.919   7.141 -0.0188  0.0339 -0.0253
    1AU       S  149   0.038   6.505   6.905 -0.2684 -0.2071 -0.0410
    1AU     LIG  150  -0.144   6.728   6.551  0.2596 -0.1809  0.0666
    1AU     LIG  151  -0.505   6.722   6.244  0.2986 -0.0446 -0.0303
    1AU     LIG  152  -0.832   6.383   6.408 -0.0704  0.1317 -0.5630
    1AU     LIG  153  -1.025   6.146   6.199  0.0684  0.0178 -0.0229
    1AU     LIG  154  -1.089   5.881   5.916  0.0445  0.0930  0.1787
    1AU       S  155   0.591   7.315   7.095  0.2933 -0.3180 -0.4106
    1AU     LIG  156   0.221   7.367   7.358  0.0792  0.3173 -0.4557
    1AU     LIG  157  -0.161   7.222   7.350 -0.2765 -0.3508  0.0444
    1AU     LIG  158  -0.574   7.276   7.293  0.1664  0.0404 -0.2727
    1AU     LIG  159  -0.808   7.555   6.916  0.2615  0.2528  0.0586
    1AU     LIG  160  -0.816   7.948   6.854 -0.2219 -0.4123  0.1620
    1AU    AUSL  161   0.526   6.314   6.992  0.0126 -0.0430  0.0437
    1AU    AUSL  162   0.445   6.356   6.568  0.0333  0.0166  0.0096
    1AU     AUL  163   0.360   6.607   6.606 -0.0654 -0.0012  0.0742
    1AU       S  164   0.094   6.228   6.482 -0.2870 -0.3691  0.3005
    1AU     LIG  165  -0.331   6.279   6.669  0.1022  0.1301 -0.1064
    1AU     LIG  166  -0.586   6.625   6.806 -0.0551  0.2284 -0.2394
    1AU     LIG  167  -0.861   6.409   7.027 -0.0827 -0.4569  0.0944
    1AU     LIG  168  -0.754   6.203   7.423 -0.0512 -0.1123  0.1364
    1AU     LIG  169  -0.383   6.280   7.634 -0.2415 -0.2863  0.1230
    1AU       S  170   0.119   6.366   6.964  0.2502 -0.0413 -0.3504
    1AU     LIG  171  -0.313   6.211   7.145 -0.0047  0.3517 -0.2735
    1AU     LIG  172  -0.652   5.943   6.886  0.0853  0.3511 -0.0161
    1AU     LIG  173  -0.670   5.819   6.434  0.0325 -0.3853  0.2476
    1AU     LIG  174  -0.658   5.570   6.163  0.2183 -0.5063  0.1079
    1AU     LIG  175  -1.015   5.407   5.878 -0.0466  0.2644  0.0916
    1AU    AUSL  176   1.814   6.332   6.445 -0.0324 -0.0808  0.0511
    1AU    AUSL  177   1.590   5.924   6.522  0.0343 -0.0597 -0.1085
    1AU     AUL  178   1.884   5.881   6.434  0.0724  0.0412 -0.1264
    1AU       S  179   2.172   6.212   6.316  0.0128 -0.4506 -0.4119
    1AU     LIG  180   2.623   6.150   6.142 -0.0962  0.1368 -0.2086
    1AU     LIG  181   3.027   5.864   6.222  0.1345  0.2045  0.1833
    1AU     LIG  182   3.186   5.380   6.299 -0.1614 -0.2741 -0.2559
    1AU     LIG  183   2.946   5.039   6.484 -0.0263 -0.4270 -0.2012
    1AU     LIG  184   3.092   4.607   6.593 -0.0398  0.4062  0.2966
    1AU       S  185   1.629   5.930   6.034 -0.4367  0.0590 -0.0109
    1AU     LIG  186   1.838   5.643   5.901 -0.2105 -0.1686  0.0108
    1AU     LIG  187   2.007   5.397   6.180  0.1539 -0.2699 -0.1479
    1AU     LIG  188   2.124   5.481   6.618  0.0653  0.1197  0.1930
    1AU     LIG  189   2.388   5.516   6.994 -0.0427  0.1444  0.0752
    1AU     LIG  190   2.599   5.548   7.388 -0.0024 -0.1857  0.0705
    1AU    AUSL  191   2.075   6.458   6.761  0.0080 -0.0440  0.0362
    1AU    AUSL  192   1.651   6.747   6.448 -0.0113  0.0032  0.0357
    1AU     AUL  193   1.978   6.613   6.429 -0.0582  0.0036 -0.0057
    1AU       S  194   1.857   7.014   6.225  0.1783  0.3825  0.4706
    1AU     LIG  195   2.046   7.424   6.118 -0.1770 -0.4305 -0.3947
    1AU     LIG  196   1.835   7.782   6.198  0.0955  0.0184 -0.0936
    1AU     LIG  197   1.500   8.104   6.291 -0.0494  0.2915 -0.1277
    1AU     LIG  198   1.430   8.533   6.436 -0.0054  0.2802 -0.0940
    1AU     LIG  199   1.366   8.754   6.910 -0.0938  0.4584  0.2554
    1AU       S  200   2.271   6.376   6.667 -0.0733 -0.0496 -0.2655
    1AU     LIG  201   2.658   6.492   6.553 -0.5427  0.0539  0.3768
    1AU     LIG  202   2.909   6.722   6.651 -0.0073 -0.2808  0.1583
    1AU     LIG  203   3.030   6.925   7.009 -0.1615  0.1199  0.2322
    1AU     LIG  204   3.201   6.859   7.420 -0.1628  0.3994 -0.3043
    1AU     LIG  205   3.602   6.643   7.579  0.3378  0.1004 -0.0968
    1AU    AUSL  206   1.400   6.316   8.029 -0.0002 -0.0092  0.1448
    1AU    AUSL  207   1.748   6.130   7.781  0.0039  0.0114 -0.0371
    1AU     AUL  208   1.659   6.205   8.181 -0.0204  0.0178  0.0997
    1AU       S  209   2.024   6.209   7.922  0.2046  0.4490 -0.0115
    1AU     LIG  210   1.975   5.766   8.017  0.1403 -0.3334  0.1743
    1AU     LIG  211   2.305   5.361   7.988  0.0886 -0.1937  0.1210
    1AU     LIG  212   2.784   5.245   7.737 -0.1074  0.4562 -0.0514
    1AU     LIG  213   3.084   5.130   7.377  0.2130  0.0583  0.0828
    1AU     LIG  214   3.508   4.937   7.355  0.1157  0.4139  0.1650
    1AU       S  215   1.272   6.084   8.420  0.0908 -0.0892 -0.2247
    1AU     LIG  216   1.695   5.877   8.546 -0.2408 -0.0955  0.2083
    1AU     LIG  217   1.868   5.499   8.458 -0.1750 -0.2260  0.0716
    1AU     LIG  218   2.005   5.129   8.440 -0.0526 -0.1982  0.0093
    1AU     LIG  219   2.198   4.720   8.211 -0.2939  0.4755  0.1911
    1AU     LIG  220   2.177   4.407   7.928  0.1118  0.3100  0.0002
    1AU    AUSL  221   1.458   5.867   7.964 -0.0672  0.0400 -0.1101
    1AU    AUSL  222   1.092   5.650   7.843 -0.1153  0.0236  0.0056
    1AU     AUL  223   1.375   5.509   8.078 -0.0377 -0.1075 -0.0256
    1AU       S  224   1.235   5.896   8.284 -0.0251 -0.0234  0.0777
    1AU     LIG  225   1.309   5.504   8.552 -0.3839 -0.1887  0.0433
    1AU     LIG  226   1.444   5.132   8.463  0.3818 -0.2208  0.0881
    1AU     LIG  227   1.597   4.805   8.397 -0.0327  0.2178  0.0375
    1AU     LIG  228   1.763   4.408   8.379  0.2991 -0.1828  0.1065
    1AU     LIG  229   2.031   4.032   8.256 -0.0123  0.1375 -0.0892
    1AU       S  230   1.069   5.190   7.886  0.1495 -0.1989  0.1104
    1AU     LIG  231   0.721   5.032   7.986  0.1230 -0.0489 -0.1331
    1AU     LIG  232   0.314   4.939   7.919 -0.0332 -0.1396  0.1209
    1AU     LIG  233   0.120   4.513   7.695 -0.0268 -0.1681 -0.0045
    1AU     LIG  234  -0.045   4.087   7.792 -0.0440  0.4446 -0.2187
    1AU     LIG  235  -0.266   3.899   7.914 -0.0823 -0.2063  0.1407
    1AU    AUSL  236   1.118   6.065   7.815  0.0849  0.0273 -0.0125
    1AU    AUSL  237   1.089   6.524   7.836  0.1219  0.0432  0.0091
    1AU     AUL  238   1.115   6.415   8.118 -0.0142  0.0387  0.0615
    1AU       S  239   0.712   6.596   8.250  0.3797 -0.1402  0.1605
    1AU     LIG  240   0.247   6.501   8.464 -0.0709 -0.4697  0.0530
    1AU     LIG  241  -0.165   6.612   8.494  0.0349 -0.1519  0.2031
    1AU     LIG  242  -0.428   6.888   8.632  0.0025  0.0927  0.0682
    1AU     LIG  243  -0.433   7.257   8.658  0.0210  0.0075 -0.1807
    1AU     LIG  244  -0.428   7.540   8.951  0.4112 -0.0809  0.1296
    1AU       S  245   1.031   5.952   8.171 -0.2489 -0.2540  0.1181
    1AU     LIG  246   0.579   5.817   8.181  0.0669 -0.2785 -0.2969
    1AU     LIG  247   0.280   6.019   8.252 -0.0130  0.0904  0.3424
    1AU     LIG  248  -0.078   6.269   8.114  0.1846  0.3797  0.1404
    1AU     LIG  249  -0.445   6.557   8.053  0.0078  0.0616  0.0609
    1AU     LIG  250  -0.769   6.599   8.346 -0.1778  0.3090 -0.1734
    1AU    AUSL  251   1.178   7.113   6.794 -0.0362 -0.0039 -0.0569
    1AU    AUSL  252   0.809   6.886   6.894 -0.0160 -0.0614 -0.0881
    1AU     AUL  253   0.923   7.277   6.719 -0.0389  0.0607  0.0710
    1AU       S  254   0.514   7.203   6.871  0.0850  0.3297  0.0205
    1AU     LIG  255   0.097   7.154   6.673 -0.1342 -0.0500  0.3014
    1AU     LIG  256  -0.363   7.071   6.836 -0.1034  0.0651  0.0929
    1AU     LIG  257  -0.892   7.073   6.847  0.1518  0.1156  0.2639
    1AU     LIG  258  -1.109   6.740   6.719 -0.1105  0.2598  0.0376
    1AU     LIG  259  -1.571   6.626   6.863  0.3326 -0.1100 -0.2578
    1AU       S  260   1.329   7.400   6.920  0.1334 -0.0390 -0.1917
    1AU     LIG  261   1.109   7.796   7.061  0.3534  0.1469 -0.1370
    1AU     LIG  262   1.223   8.181   6.895  0.1677  0.2159 -0.4710
    1AU     LIG  263   0.979   8.531   6.676 -0.3340 -0.0071  0.0814
    1AU     LIG  264   0.917   8.957   6.634  0.0712  0.0307 -0.5024
    1AU     LIG  265   0.597   9.113   6.796  0.1249  0.3047 -0.1166
    1AU    AUSL  266   1.256   6.759   6.543  0.0683 -0.0266 -0.1093
    1AU    AUSL  267   1.602   7.038   6.775 -0.0525  0.0973 -0.0400
    1AU     AUL  268   1.431   7.077   6.476 -0.0298 -0.0044  0.0070
    1AU       S  269   1.474   6.809   6.017 -0.3499 -0.0048 -0.2235
    1AU     LIG  270   1.719   6.584   5.959  0.0077 -0.2493  0.0396
    1AU     LIG  271   2.160   6.517   5.948 -0.4179  0.1052 -0.3651
    1AU     LIG  272   2.590   6.614   5.946  0.2259 -0.0770 -0.0102
    1AU     LIG  273   2.861   6.923   6.161 -0.1536  0.0800  0.0785
    1AU     LIG  274   3.265   6.966   6.447 -0.0788  0.3088 -0.2753
    1AU       S  275   1.782   7.295   6.706 -0.1480 -0.2747 -0.1128
    1AU     LIG  276   1.462   7.626   6.507  0.6727  0.0828  0.0528
    1AU     LIG  277   1.092   7.868   6.563 -0.0381  0.0370  0.3211
    1AU     LIG  278   0.733   8.083   6.782  0.2665  0.4856  0.3954
    1AU     LIG  279   0.471   8.452   6.746 -0.3082  0.2657 -0.0738
    1AU     LIG  280   0.170   8.876   6.989 -0.3571 -0.1317 -0.1428
    1AU    AUSL  281   0.848   6.907   6.474 -0.0363  0.0822 -0.0291
    1AU    AUSL  282   1.130   6.561   6.209  0.0498  0.0320 -0.0134
    1AU     AUL  283   1.087   6.922   6.217  0.0069 -0.0385  0.0498
    1AU       S  284   0.799   6.559   6.057 -0.1937  0.5506  0.0797
    1AU     LIG  285   0.662   7.055   5.915 -0.3801 -0.0870  0.3511
    1AU     LIG  286   0.644   7.514   5.910  0.1705  0.1500  0.3155
    1AU     LIG  287   0.676   7.783   6.313  0.1006  0.2445 -0.3710
    1AU     LIG  288   0.491   7.652   6.685 -0.2722 -0.0690 -0.2679
    1AU     LIG  289   0.154   7.728   6.966  0.2019  0.1880  0.0010
    1AU       S  290   0.655   6.960   6.434  0.0248  0.1579  0.0037
    1AU     LIG  291   0.387   7.205   6.263 -0.3069  0.0468 -0.2241
    1AU     LIG  292   0.120   7.541   6.366 -0.3536 -0.1598 -0.0842
    1AU     LIG  293   0.162   8.064   6.594  0.0458  0.0116  0.2929
    1AU     LIG  294  -0.217   8.150   6.869 -0.1181  0.0918  0.0484
    1AU     LIG  295  -0.222   8.210   7.456 -0.0353  0.1761  0.2920
    1AU    AUSL  296   1.131   5.457   7.432 -0.0828 -0.0059 -0.0814
    1AU    AUSL  297   0.841   5.770   7.516 -0.0401  0.0039 -0.0394
    1AU     AUL  298   0.824   5.584   7.769  0.0702 -0.0241 -0.0545
    1AU       S  299   1.114   5.230   7.518 -0.0455 -0.0684  0.0004
    1AU     LIG  300   1.045   4.965   7.162  0.1231 -0.2609 -0.0900
    1AU     LIG  301   0.964   4.612   6.942 -0.2965 -0.1983  0.0639
    1AU     LIG  302   0.925   4.424   6.600 -0.2384  0.1128 -0.0831
    1AU     LIG  303   1.102   3.989   6.516 -0.0667  0.2109  0.1176
    1AU     LIG  304   1.355   3.679   6.355 -0.0247 -0.1535  0.3272
    1AU       S  305   0.614   5.247   7.552 -0.0317 -0.5563  0.2401
    1AU     LIG  306   0.650   4.776   7.478  0.3205  0.2254 -0.1637
    1AU     LIG  307   0.566   4.478   7.323 -0.0798 -0.0948 -0.1339
    1AU     LIG  308   0.321   4.138   7.400 -0.0928 -0.3203  0.0177
    1AU     LIG  309   0.359   3.851   7.060  0.1978 -0.0884 -0.4814
    1AU     LIG  310   0.209   3.787   6.670 -0.1458 -0.3803 -0.0409
    1AU    AUSL  311   1.414   5.756   7.575 -0.0040  0.0772  0.0366
    1AU    AUSL  312   1.541   5.387   7.314  0.0789  0.0467 -0.1122
    1AU     AUL  313   1.542   5.482   7.660 -0.0160  0.0545  0.0745
    1AU       S  314   1.284   5.144   7.773 -0.0774 -0.0431 -0.0963
    1AU     LIG  315   1.231   4.744   7.588  0.3272 -0.0661 -0.0656
    1AU     LIG  316   1.046   4.473   7.479 -0.0443  0.1063  0.1075
    1AU     LIG  317   0.836   4.037   7.448  0.1361 -0.1522  0.3351
    1AU     LIG  318   0.524   3.720   7.566 -0.1141 -0.0590  0.0330
    1AU     LIG  319   0.521   3.390   7.293 -0.0044  0.1504 -0.0268
    1AU       S  320   1.804   5.166   7.430  0.1556 -0.0480 -0.1475
    1AU     LIG  321   1.840   4.822   7.388 -0.2502  0.1325 -0.0763
    1AU     LIG  322   2.143   4.672   7.341 -0.2500  0.3866  0.1929
    1AU     LIG  323   2.257   4.121   7.443  0.0785  0.1279  0.0471
    1AU     LIG  324   2.548   3.853   7.222 -0.4316  0.0648  0.3643
    1AU     LIG  325   2.815   3.633   6.920 -0.1525 -0.0299 -0.0340
    1AU    AUSL  326   0.969   6.155   6.224 -0.0494 -0.0520  0.0128
    1AU    AUSL  327   1.415   6.279   6.340  0.0072 -0.0876 -0.0189
    1AU     AUL  328   1.241   6.345   5.970 -0.1070  0.0189  0.0821
    1AU       S  329   1.642   6.119   6.021 -0.2319 -0.0171 -0.3829
    1AU     LIG  330   2.091   6.064   5.879 -0.0819 -0.1417 -0.0329
    1AU     LIG  331   2.355   5.750   6.073  0.0059  0.0865 -0.0529
    1AU     LIG  332   2.559   5.552   6.342 -0.2618 -0.4511 -0.1270
    1AU     LIG  333   2.822   5.600   6.672  0.3259 -0.1165  0.0207
    1AU     LIG  334   3.123   5.425   6.941  0.3461 -0.0521 -0.1222
    1AU       S  335   0.763   6.393   5.911 -0.2227  0.1332 -0.1099
    1AU     LIG  336   0.292   6.352   5.896 -0.0788  0.0451 -0.0180
    1AU     LIG  337  -0.044   6.103   5.869  0.4315 -0.0095 -0.5945
    1AU     LIG  338  -0.393   5.834   5.783  0.0468  0.3101  0.3612
    1AU     LIG  339  -0.604   5.577   5.651 -0.0027  0.3308 -0.1338
    1AU     LIG  340  -0.643   5.222   5.530  0.0379  0.1095 -0.0755
    1AU    AUSL  341   0.825   6.484   6.505  0.0174 -0.0183  0.0145
    1AU    AUSL  342   0.743   6.055   6.566  0.1828 -0.0500  0.0469
    1AU     AUL  343   0.580   6.138   6.279 -0.0702  0.0146  0.0248
    1AU       S  344   0.129   6.063   6.365 -0.1769  0.2244 -0.2091
    1AU     LIG  345  -0.167   5.779   6.262 -0.1304  0.1161  0.1505
    1AU     LIG  346   0.046   5.470   6.308 -0.2430  0.0750 -0.4527
    1AU     LIG  347  -0.061   5.045   6.359 -0.0836 -0.2154  0.1192
    1AU     LIG  348  -0.175   4.700   6.571 -0.0281  0.1265  0.1383
    1AU     LIG  349  -0.561   4.558   6.594  0.2528 -0.0843 -0.1365
    1AU       S  350   0.658   6.585   6.148 -0.0117  0.0993  0.0006
    1AU     LIG  351   0.219   6.732   6.183 -0.3265 -0.1483  0.0533
    1AU     LIG  352  -0.095   7.086   6.111  0.3851  0.1597  0.1422
    1AU     LIG  353  -0.338   7.345   6.417  0.1635  0.2358 -0.2234
    1AU     LIG  354  -0.369   7.713   6.694  0.4284  0.0104 -0.0416
    1AU     LIG  355  -0.337   7.713   7.123  0.0308 -0.2846  0.1248
    1AU    AUSL  356   0.980   6.883   7.538 -0.0379 -0.0476 -0.0759
    1AU    AUSL  357   1.010   7.133   7.178  0.0171 -0.0697 -0.0710
    1AU     AUL  358   0.729   7.103   7.522  0.0432  0.0146  0.0712
    1AU       S  359   0.906   7.425   7.202  0.0524  0.0653 -0.4195
    1AU     LIG  360   0.644   7.829   7.191  0.1452 -0.2362 -0.1320
    1AU     LIG  361   0.279   8.135   7.188  0.0410  0.2149 -0.0905
    1AU     LIG  362  -0.101   8.501   7.117  0.0110 -0.0990 -0.1497
    1AU     LIG  363  -0.365   8.703   7.360 -0.2473 -0.0913  0.2363
    1AU     LIG  364  -0.464   9.009   7.666 -0.0542  0.0521  0.1375
    1AU       S  365   1.033   7.307   7.796  0.3343  0.0904 -0.3092
    1AU     LIG  366   0.938   7.727   7.604  0.6351  0.3170  0.0960
    1AU     LIG  367   1.002   8.119   7.441 -0.2729 -0.0079 -0.3313
    1AU     LIG  368   0.752   8.376   7.169  0.0249 -0.1538 -0.1671
    1AU     LIG  369   0.850   8.802   7.120  0.0282 -0.0324 -0.2439
    1AU     LIG  370   0.991   9.202   7.222  0.1815 -0.3064 -0.1388
    1AU    AUSL  371   1.332   7.146   7.452  0.0600  0.0059  0.0104
    1AU    AUSL  372   1.700   6.871   7.557  0.0629 -0.0085 -0.0529
    1AU     AUL  373   1.651   7.203   7.683  0.0670  0.0640  0.0195
    1AU       S  374   1.184   7.296   7.603 -0.0784 -0.2497  0.2514
    1AU     LIG  375   1.403   7.641   7.429  0.2186 -0.0392 -0.0424
    1AU     LIG  376   1.510   8.067   7.454  0.1276  0.0345 -0.3314
    1AU     LIG  377   1.282   8.502   7.343 -0.0339  0.0810  0.1451
    1AU     LIG  378   1.313   8.896   7.421  0.0717  0.1359 -0.1299
    1AU     LIG  379   1.553   9.236   7.106 -0.1400 -0.5700 -0.0302
    1AU       S  380   1.956   7.257   7.307 -0.3217  0.2988 -0.0658
    1AU     LIG  381   2.159   7.631   7.117  0.1691  0.0674 -0.1036
    1AU     LIG  382   2.066   8.023   7.214 -0.0666  0.1216  0.5603
    1AU     LIG  383   2.110   8.385   6.876 -0.2408 -0.3142  0.3808
    1AU     LIG  384   1.919   8.640   6.662  0.0109 -0.1254  0.0936
    1AU     LIG  385   1.835   8.819   6.289 -0.0141 -0.3330  0.2187
    1AU    AUSL  386   1.322   6.866   7.792 -0.0092  0.0245 -0.0034
    1AU    AUSL  387   0.701   6.697   7.784  0.0523  0.0093 -0.0896
    1AU     AUL  388   0.971   6.847   7.934  0.0580 -0.0333 -0.0244
    1AU       S  389   0.537   6.704   8.089  0.0934 -0.0353 -0.1051
    1AU     LIG  390   0.598   7.163   7.989  0.1253 -0.0145  0.1427
    1AU     LIG  391   0.507   7.567   7.768  0.1504 -0.2216  0.1359
    1AU     LIG  392   0.553   8.093   7.668  0.4558 -0.4092  0.2717
    1AU     LIG  393   0.379   8.642   7.375  0.3665 -0.1576 -0.0095
    1AU     LIG  394   0.528   9.128   7.281  0.1725 -0.0670 -0.2914
    1AU       S  395   1.295   7.207   7.971 -0.3027  0.3071 -0.0040
    1AU     LIG  396   1.402   7.595   7.940 -0.0558  0.0394 -0.2817
    1AU     LIG  397   1.252   7.991   7.969  0.0343  0.2340 -0.2723
    1AU     LIG  398   0.995   8.405   7.916 -0.0622 -0.2973  0.0211
    1AU     LIG  399   0.809   8.537   7.623 -0.0968 -0.1504 -0.1525
    1AU     LIG  400   0.873   8.989   7.622 -0.0824 -0.1478 -0.3245
    1AU    AUSL  401   0.654   5.747   6.891  0.0881  0.1105 -0.0402
    1AU    AUSL  402   0.786   5.469   7.184  0.0367 -0.0318  0.0029
    1AU     AUL  403   0.391   5.535   7.028  0.0083 -0.0004  0.0664
    1AU       S  404   0.493   5.320   6.632  0.3395 -0.3916  0.1946
    1AU     LIG  405   0.093   5.232   6.828  0.0409 -0.0099 -0.2085
    1AU     LIG  406  -0.268   5.060   6.940  0.0612  0.3266 -0.0813
    1AU     LIG  407  -0.749   4.880   6.926 -0.2145  0.3715 -0.0765
    1AU     LIG  408  -1.161   4.903   6.992 -0.5503 -0.2095  0.3331
    1AU     LIG  409  -1.435   4.779   6.761  0.0165  0.0512 -0.1159
    1AU       S  410   0.674   5.273   7.297  0.2176  0.0361  0.1954
    1AU     LIG  411   0.508   4.933   6.972  0.0952  0.1318 -0.2859
    1AU     LIG  412   0.312   4.843   6.612 -0.2488 -0.0793  0.0652
    1AU     LIG  413   0.260   4.605   6.275 -0.0197 -0.2045  0.4275
    1AU     LIG  414   0.084   4.266   6.437 -0.0970 -0.3057  0.0749
    1AU     LIG  415  -0.334   4.178   6.446  0.3822 -0.0913 -0.4438
    1AU    AUSL  416   0.835   5.675   6.457  0.0130  0.0671  0.0361
    1AU    AUSL  417   0.339   5.996   6.797  0.0387  0.0976  0.0867
    1AU     AUL  418   0.449   5.773   6.581  0.0836  0.0165 -0.0211
    1AU       S  419   0.589   5.338   6.447  0.5688  0.4830 -0.2448
    1AU     LIG  420   0.442   5.635   6.101 -0.0170 -0.0524  0.4120
    1AU     LIG  421   0.674   5.845   5.880 -0.3147 -0.0403  0.4367
    1AU     LIG  422   0.992   5.954   5.703 -0.4346 -0.2189 -0.1008
    1AU     LIG  423   1.248   5.916   5.438  0.4670 -0.1891 -0.1062
    1AU     LIG  424   1.393   5.636   5.464  0.1381  0.1221 -0.2974
    1AU       S  425   0.086   6.016   6.654  0.3476  0.2066 -0.2239
    1AU     LIG  426  -0.162   5.680   6.752  0.2250  0.2754  0.2657
    1AU     LIG  427  -0.434   5.358   6.553  0.0597 -0.2937  0.3219
    1AU     LIG  428  -0.532   4.969   6.270  0.2747 -0.3853 -0.0857
    1AU     LIG  429  -0.864   4.963   6.056 -0.1977 -0.2792  0.1228
    1AU     LIG  430  -0.888   4.724   5.701 -0.2214 -0.1054  0.1777
    1AU    AUSL  431   0.929   5.415   6.799  0.0324 -0.0591 -0.0329
    1AU    AUSL  432   1.226   5.677   6.615 -0.1269  0.0356  0.0054
    1AU     AUL  433   1.052   5.409   6.407  0.0497 -0.1569  0.0022
    1AU       S  434   1.323   5.147   6.652 -0.0973  0.2049  0.2443
    1AU     LIG  435   1.427   4.661   6.552 -0.1352  0.1351 -0.0306
    1AU     LIG  436   1.540   4.201   6.617  0.1653 -0.0707  0.0343
    1AU     LIG  437   1.539   3.831   6.937 -0.2139 -0.0163  0.0266
    1AU     LIG  438   1.246   3.532   7.281  0.1634  0.0278 -0.0092
    1AU     LIG  439   0.921   3.370   7.649 -0.0463  0.1100  0.1176
    1AU       S  440   0.702   5.325   6.745 -0.1435  0.2404 -0.2493
    1AU     LIG  441   0.893   4.970   6.529 -0.3438  0.3419 -0.1779
    1AU     LIG  442   0.680   4.852   6.230  0.0648 -0.1514  0.0253
    1AU     LIG  443   0.557   4.661   5.840 -0.0109 -0.1351  0.0801
    1AU     LIG  444   0.568   4.361   5.621 -0.1422 -0.4013  0.0225
    1AU     LIG  445   0.221   4.232   5.294  0.1736  0.1215 -0.0528
    1AU    AUSL  446   1.961   6.767   7.208 -0.0748 -0.0706  0.0695
    1AU    AUSL  447   1.650   6.563   7.830 -0.0101  0.0602 -0.0126
    1AU     AUL  448   1.973   6.795   7.613 -0.0010 -0.0517  0.0049
    1AU       S  449   2.073   7.099   7.288  0.3740  0.3297  0.1450
    1AU     LIG  450   2.486   7.017   7.572 -0.1046  0.0169  0.3680
    1AU     LIG  451   2.767   6.700   7.619  0.2860  0.3740  0.2165
    1AU     LIG  452   2.661   6.351   7.755  0.2851 -0.1477 -0.0697
    1AU     LIG  453   2.954   5.977   7.626 -0.0399 -0.3913 -0.1127
    1AU     LIG  454   3.035   5.693   7.560 -0.6391 -0.3345 -0.1913
    1AU       S  455   1.832   6.606   8.042 -0.3450  0.4074 -0.0568
    1AU     LIG  456   1.901   6.683   8.396 -0.2523  0.4306  0.2724
    1AU     LIG  457   1.996   6.285   8.627 -0.3916 -0.0322 -0.1554
    1AU     LIG  458   2.424   6.237   8.746 -0.0436 -0.2386 -0.1701
    1AU     LIG  459   2.803   6.263   9.011 -0.1151 -0.0421 -0.1777
    1AU     LIG  460   3.186   6.618   8.946  0.1275 -0.1899 -0.1930
    1AU    AUSL  461   1.568   6.947   7.171 -0.0248  0.0062  0.0406
    1AU    AUSL  462   1.732   6.630   6.882 -0.0689  0.0134 -0.0400
    1AU     AUL  463   1.949   6.898   6.916  0.0946 -0.0331 -0.0444
    1AU       S  464   1.732   7.226   7.212  0.0729  0.1733 -0.1698
    1AU     LIG  465   1.698   7.724   7.029 -0.5346 -0.0731 -0.2778
    1AU     LIG  466   1.673   8.023   6.789  0.2682 -0.0685 -0.0115
    1AU     LIG  467   1.687   8.437   7.081 -0.3224  0.3808 -0.3243
    1AU     LIG  468   1.822   8.762   7.308  0.1065  0.0734  0.0720
    1AU     LIG  469   1.957   8.976   7.055 -0.3175 -0.2111 -0.1134
    1AU       S  470   1.959   7.105   6.501  0.2389 -0.2157  0.2955
    1AU     LIG  471   2.274   7.270   6.752 -0.2094 -0.3875  0.0330
    1AU     LIG  472   2.486   7.650   6.751  0.1710 -0.0944  0.1279
    1AU     LIG  473   2.916   7.749   6.611 -0.0320  0.1934  0.0416
    1AU     LIG  474   3.283   7.999   6.839  0.0728  0.4131 -0.0138
    1AU     LIG  475   3.118   8.163   7.204  0.2815 -0.1220  0.1462
    1AU    AUSL  476   1.641   5.537   6.682 -0.0499 -0.0305  0.0605
    1AU    AUSL  477   1.257   5.864   6.255  0.0567  0.0280 -0.1329
    1AU     AUL  478   1.466   5.564   6.353 -0.0283  0.0043 -0.0299
    1AU       S  479   1.372   5.922   6.002  0.0089  0.2310 -0.1728
    1AU     LIG  480   1.177   5.532   5.873  0.2119 -0.7254 -0.0368
    1AU     LIG  481   0.831   5.232   6.013  0.3733 -0.0243 -0.1705
    1AU     LIG  482   0.396   5.189   6.040 -0.1098  0.0265 -0.0618
    1AU     LIG  483   0.079   4.940   5.814  0.3311 -0.0419 -0.5116
    1AU     LIG  484   0.010   4.604   5.495  0.1773 -0.1418  0.4568
    1AU       S  485   1.558   5.181   6.601  0.0021 -0.2445  0.0339
    1AU     LIG  486   1.993   5.028   6.497 -0.3320  0.3563 -0.1076
    1AU     LIG  487   2.441   5.094   6.588 -0.0688  0.1939 -0.0237
    1AU     LIG  488   2.697   5.149   6.949 -0.1455  0.4495  0.1043
    1AU     LIG  489   2.462   5.055   7.380 -0.0550 -0.3003 -0.2523
    1AU     LIG  490   2.234   4.892   7.775 -0.1154  0.3059  0.1117
    1AU    AUSL  491   1.312   5.475   6.983  0.0283 -0.0478  0.0124
    1AU    AUSL  492   1.666   5.715   7.073 -0.0655 -0.0051 -0.0136
    1AU     AUL  493   1.707   5.383   6.998 -0.0115 -0.0392  0.0399
    1AU       S  494   1.371   5.142   6.846 -0.2255 -0.2491 -0.2659
    1AU     LIG  495   1.531   4.900   7.062 -0.1768  0.0086 -0.0392
    1AU     LIG  496   1.778   4.504   6.954  0.3498 -0.6748 -0.1424
    1AU     LIG  497   2.130   4.248   6.927  0.0472  0.2541 -0.3360
    1AU     LIG  498   2.490   4.171   6.708  0.0110  0.1105 -0.3162
    1AU     LIG  499   2.814   3.962   6.466 -0.2478 -0.0951 -0.0521
    1AU       S  500   2.034   5.324   7.302  0.2512  0.1888  0.0880
    1AU     LIG  501   2.089   5.084   6.994 -0.2134  0.3086  0.1393
    1AU     LIG  502   2.180   4.744   6.859 -0.0055  0.1186 -0.0655
    1AU     LIG  503   2.535   4.583   7.034 -0.0816 -0.2574 -0.2389
    1AU     LIG  504   2.917   4.764   7.114 -0.3680 -0.0248  0.0777
    1AU     LIG  505   3.257   4.931   6.915 -0.4352 -0.0764  0.2101
    2POPC   NC3  506   5.078   1.692   9.080 -0.0623  0.2306 -0.0023
    2POPC   PO4  507   4.991   1.627   8.592  0.0331  0.1706  0.1334
    2POPC   GL1  508   5.081   1.641   8.066 -0.2015 -0.2101  0.0168
    2POPC   GL2  509   5.363   1.859   7.827  0.1659 -0.2094  0.1929
    2POPC   C1A  510   4.954   1.424   7.698  0.0202  0.3996  0.2603
    2POPC   D2A  511   4.818   1.486   7.238 -0.0865  0.1591 -0.2505
    2POPC   C3A  512   4.586   1.766   6.983  0.1559 -0.3267 -0.0218
    2POPC   C4A  513   4.280   2.003   6.754 -0.0009  0.2763 -0.1269
    2POPC   C1B  514   5.295   1.636   7.393  0.0465  0.0002  0.1048
    2POPC   C2B  515   5.189   1.833   7.020  0.0632  0.2723  0.1261
    2POPC   C3B  516   5.382   2.240   6.960 -0.1170 -0.0671 -0.2068
    2POPC   C4B  517   5.438   2.739   7.081  0.0880 -0.1476  0.0366
    3POPC   NC3  518   6.545   7.219   8.655  0.0523 -0.2263 -0.0176
    3POPC   PO4  519   6.856   7.490   8.790  0.0484 -0.0128 -0.2057
    3POPC   GL1  520   6.977   7.426   8.332 -0.0208  0.5108 -0.0508
    3POPC   GL2  521   6.726   7.187   8.203  0.1124 -0.1030 -0.1854
    3POPC   C1A  522   7.268   7.358   8.005  0.0891  0.1583  0.1098
    3POPC   D2A  523   7.307   7.371   7.508  0.1915  0.2261  0.0056
    3POPC   C3A  524   7.289   7.668   7.227 -0.4669  0.0133  0.0943
    3POPC   C4A  525   7.126   7.597   6.790 -0.2722  0.1169 -0.1160
    3POPC   C1B  526   6.789   7.409   7.863  0.0309  0.0909 -0.1212
    3POPC   C2B  527   7.081   7.763   7.825  0.1748 -0.5891  0.0942
    3POPC   C3B  528   7.224   7.988   7.579  0.0115  0.1690 -0.0312
    3POPC   C4B  529   7.623   8.211   7.456 -0.0192  0.1655  0.2003
    4POPC   NC3  530   9.542   4.459   9.613  0.2196 -0.1795  0.1883
    4POPC   PO4  531   9.544   4.197   9.212  0.1104 -0.2655  0.3197
    4POPC   GL1  532   9.758   4.498   8.948  0.1793 -0.2006 -0.2306
    4POPC   GL2  533  10.108   4.347   8.974  0.2772  0.0972  0.1221
    4POPC   C1A  534  10.068   4.579   8.572 -0.0089  0.0475 -0.1202
    4POPC   D2A  535  10.275   4.646   8.130  0.1090 -0.1457  0.1388
    4POPC   C3A  536  10.300   4.923   7.764  0.0971 -0.1729  0.0637
    4POPC   C4A  537  10.456   5.352   7.624  0.0390 -0.1674 -0.1185
    4POPC   C1B  538  10.533   4.292   8.840 -0.0404 -0.4046  0.4621
    4POPC   C2B  539  10.881   4.099   8.673  0.1740 -0.0243  0.1818
    4POPC   C3B  540  11.220   4.004   8.514 -0.0781 -0.0255 -0.0409
    4POPC   C4B  541  11.615   3.717   8.400 -0.1031  0.0043 -0.0652
    5POPC   NC3  542   5.129   5.490   8.751  0.3130 -0.1939  0.1112
    5POPC   PO4  543   5.105   5.706   8.543  0.1231  0.0146  0.5550
    5POPC   GL1  544   5.071   5.647   8.152  0.0303 -0.3638 -0.1436
    5POPC   GL2  545   5.034   6.033   8.112 -0.0447 -0.1429  0.1482
    5POPC   C1A  546   5.082   5.636   7.673  0.0668  0.0299 -0.3243
    5POPC   D2A  547   5.506   5.805   7.399 -0.2079 -0.1103 -0.0791
    5POPC   C3A  548   5.943   5.754   7.458  0.3601 -0.1667 -0.1278
    5POPC   C4A  549   6.156   5.846   7.829  0.1284 -0.3321 -0.1142
    5POPC   C1B  550   5.064   6.221   7.787 -0.0753  0.1944 -0.1654
    5POPC   C2B  551   4.946   6.062   7.494  0.1286  0.0239 -0.2738
    5POPC   C3B  552   4.642   5.860   7.247 -0.1261  0.1824 -0.1219
    5POPC   C4B  553   4.748   5.700   6.787  0.4080 -0.1116 -0.2995
    6POPC   NC3  554   7.819   7.837   8.903  0.2670  0.4235  0.1508
    6POPC   PO4  555   7.471   7.990   8.564  0.2220  0.2212  0.1607
    6POPC   GL1  556   7.182   8.202   8.220  0.0035  0.0311 -0.0334
    6POPC   GL2  557   6.811   7.997   8.212 -0.1292 -0.1408 -0.0707
    6POPC   C1A  558   7.305   8.467   7.853 -0.0474 -0.1352  0.2063
    6POPC   D2A  559   7.254   8.912   7.738 -0.1378 -0.0975 -0.0889
    6POPC   C3A  560   6.840   9.061   7.997  0.2856 -0.0128  0.1773
    6POPC   C4A  561   6.578   9.060   8.294 -0.1981  0.1249 -0.0256
    6POPC   C1B  562   6.743   8.161   7.754  0.0216 -0.1924 -0.0998
    6POPC   C2B  563   6.588   8.329   7.388  0.2079 -0.4609  0.3895
    6POPC   C3B  564   6.571   8.379   6.899 -0.1329  0.3684 -0.1537
    6POPC   C4B  565   6.952   8.399   6.680 -0.3380 -0.0164  0.2676
    7POPC   NC3  566   8.320   4.905   9.094 -0.2811  0.0036 -0.1131
    7POPC   PO4  567   7.964   5.245   9.076 -0.0480 -0.0484 -0.3798
    7POPC   GL1  568   8.013   5.397   8.622  0.2224 -0.0185  0.1428
    7POPC   GL2  569   7.790   5.694   8.591  0.0764 -0.1553  0.2653
    7POPC   C1A  570   8.206   5.346   8.254  0.1729 -0.1209 -0.0353
    7POPC   D2A  571   8.060   5.424   7.795 -0.2094  0.0202 -0.1484
    7POPC   C3A  572   8.337   5.491   7.460 -0.2832  0.1118  0.0254
    7POPC   C4A  573   8.294   5.831   7.170  0.0729  0.1164 -0.0501
    7POPC   C1B  574   7.733   5.634   8.149 -0.0442  0.2570  0.3470
    7POPC   C2B  575   7.654   5.643   7.603  0.2501 -0.2330 -0.2822
    7POPC   C3B  576   7.825   5.515   7.311  0.1506 -0.1151  0.1230
    7POPC   C4B  577   7.682   5.181   6.845  0.0132 -0.0517 -0.1446
    8POPC   NC3  578   9.319   0.088   9.322  0.0657 -0.0627  0.2858
    8POPC   PO4  579   9.349   0.437   9.074 -0.0083  0.1286  0.1655
    8POPC   GL1  580   9.632   0.184   8.727 -0.3266 -0.1268 -0.2184
    8POPC   GL2  581   9.953   0.196   8.639 -0.0006 -0.1162  0.0499
    8POPC   C1A  582   9.516   0.387   8.306 -0.1665 -0.0569  0.0726
    8POPC   D2A  583   9.790   0.393   7.888  0.0256 -0.1963 -0.3402
    8POPC   C3A  584  10.048   0.635   7.917 -0.0078  0.0590  0.2174
    8POPC   C4A  585  10.398   0.788   8.064 -0.0314  0.3827  0.4001
    8POPC   C1B  586   9.914   0.629   8.434 -0.0338  0.2502  0.1444
    8POPC   C2B  587  10.057   1.062   8.250  0.2823 -0.1011 -0.0507
    8POPC   C3B  588  10.274   1.412   8.004 -0.1249 -0.1237 -0.0850
    8POPC   C4B  589  10.650   1.590   7.774  0.1890 -0.4052 -0.3816
    9POPC   NC3  590   2.349   7.409  10.126  0.0616  0.0640 -0.0897
    9POPC   PO4  591   2.643   7.461   9.821 -0.0722 -0.2621  0.0712
    9POPC   GL1  592   2.718   7.236   9.458 -0.2067 -0.1889 -0.0861
    9POPC   GL2  593   2.781   7.457   9.106  0.4725  0.2184  0.1080
    9POPC   C1A  594   2.737   6.802   9.288 -0.4233  0.0123 -0.1002
    9POPC   D2A  595   2.705   6.788   8.908 -0.2213 -0.1836 -0.3613
    9POPC   C3A  596   2.984   7.014   8.577 -0.1497 -0.2247 -0.1292
    9POPC   C4A  597   2.884   7.394   8.454  0.0203 -0.1508 -0.1150
    9POPC   C1B  598   2.653   7.768   8.700 -0.0735  0.0210  0.0374
    9POPC   C2B  599   2.433   7.792   8.362 -0.1521 -0.0209 -0.0723
    9POPC   C3B  600   2.342   7.680   7.988 -0.2010  0.2508  0.0303
    9POPC   C4B  601   2.168   7.338   7.738  0.0664 -0.3262 -0.4330
   10POPC   NC3  602   3.689   6.016   9.713 -0.1779 -0.0189 -0.0132
   10POPC   PO4  603   3.793   5.567   9.814 -0.2972 -0.0262  0.0136
   10POPC   GL1  604   3.295   5.601   9.703  0.2294 -0.1196 -0.0289
   10POPC   GL2  605   3.157   5.863   9.734  0.0559 -0.1676  0.0929
   10POPC   C1A  606   3.008   5.355   9.423  0.3156 -0.2865 -0.1071
   10POPC   D2A  607   2.749   5.242   9.124  0.1163 -0.0383 -0.1736
   10POPC   C3A  608   2.534   4.851   9.093 -0.0745 -0.0556 -0.2393
   10POPC   C4A  609   2.547   4.568   9.476 -0.0974 -0.2548  0.1533
   10POPC   C1B  610   2.705   5.970   9.475  0.0539  0.0092 -0.1255
   10POPC   C2B  611   2.291   6.130   9.399  0.0453  0.1990  0.0022
   10POPC   C3B  612   2.280   6.562   9.188 -0.2607 -0.0502  0.0382
   10POPC   C4B  613   2.237   6.679   8.752 -0.0781  0.2947 -0.2388
   11POPC   NC3  614   2.790   3.812   9.294  0.3573 -0.4534  0.0942
   11POPC   PO4  615   2.380   3.633   9.169  0.0633 -0.2020 -0.0295
   11POPC   GL1  616   2.226   3.892   8.782 -0.2883  0.2667  0.1873
   11POPC   GL2  617   1.994   4.014   8.866  0.0157  0.1297  0.2465
   11POPC   C1A  618   2.487   3.998   8.480  0.2153  0.1786 -0.1146
   11POPC   D2A  619   2.594   4.438   8.255  0.1746  0.1351 -0.0264
   11POPC   C3A  620   2.971   4.421   8.122 -0.0945 -0.2316 -0.1158
   11POPC   C4A  621   3.291   4.742   8.155 -0.2683  0.1924  0.2409
   11POPC   C1B  622   2.196   4.347   8.659 -0.0049 -0.2532 -0.1173
   11POPC   C2B  623   2.327   4.744   8.676 -0.0659 -0.0645 -0.0289
   11POPC   C3B  624   2.556   5.043   8.370 -0.4445  0.1954 -0.1108
   11POPC   C4B  625   2.957   5.190   8.204  0.1124  0.1985 -0.0774
   12POPC   NC3  626   7.596   4.595   8.507 -0.1198  0.2483  0.1266
   12POPC   PO4  627   7.534   4.883   8.791  0.1546 -0.3817 -0.2792
   12POPC   GL1  628   7.626   5.089   8.384 -0.4434  0.0610  0.1162
   12POPC   GL2  629   7.325   5.353   8.230 -0.0741 -0.2714  0.3077
   12POPC   C1A  630   7.822   5.099   8.047  0.1526 -0.2942 -0.0329
   12POPC   D2A  631   8.102   4.918   7.677 -0.0499 -0.4457 -0.0091
   12POPC   C3A  632   8.131   5.089   7.206  0.1565  0.1414 -0.3529
   12POPC   C4A  633   8.170   5.386   6.933  0.4234 -0.0465  0.0096
   12POPC   C1B  634   7.421   5.171   7.810  0.0351  0.1890 -0.0661
   12POPC   C2B  635   7.588   5.064   7.363 -0.0625  0.2219 -0.0465
   12POPC   C3B  636   7.746   4.755   7.147 -0.0797  0.1905  0.2755
   12POPC   C4B  637   7.688   4.379   7.080  0.1595 -0.2487 -0.0855
   13POPC   NC3  638   8.437   3.549   9.113 -0.0454  0.0201 -0.2413
   13POPC   PO4  639   8.279   3.298   8.726 -0.1421  0.1192  0.0951
   13POPC   GL1  640   8.422   3.397   8.309  0.1188 -0.0627 -0.0008
   13POPC   GL2  641   8.165   3.362   8.133  0.0033 -0.1328  0.2419
   13POPC   C1A  642   8.642   3.623   8.106  0.2880  0.2588 -0.0326
   13POPC   D2A  643   8.937   3.815   7.886 -0.0230  0.0323 -0.0778
   13POPC   C3A  644   8.961   4.322   7.917  0.2825  0.2150  0.1716
   13POPC   C4A  645   8.835   4.584   7.428 -0.1195 -0.1852 -0.3566
   13POPC   C1B  646   8.126   3.059   7.737 -0.0012  0.0310 -0.2396
   13POPC   C2B  647   8.383   3.255   7.401  0.1256 -0.1097  0.3917
   13POPC   C3B  648   8.607   3.123   7.076  0.0116 -0.3849 -0.0177
   13POPC   C4B  649   8.910   2.998   6.807  0.0490  0.1461 -0.3320
   14POPC   NC3  650   2.960   8.410   9.430  0.1035  0.3698  0.0155
   14POPC   PO4  651   3.171   8.376   9.014  0.0040 -0.0444  0.3091
   14POPC   GL1  652   2.860   8.185   8.772 -0.1047 -0.0168  0.3139
   14POPC   GL2  653   3.147   7.865   8.818  0.3381 -0.1576  0.1561
   14POPC   C1A  654   2.626   8.253   8.424 -0.3566 -0.1337 -0.1846
   14POPC   D2A  655   2.502   8.601   8.178  0.0728  0.1783 -0.2309
   14POPC   C3A  656   2.224   8.642   7.789  0.1180 -0.0366  0.2827
   14POPC   C4A  657   2.214   8.476   7.417 -0.0117  0.0362  0.0265
   14POPC   C1B  658   2.994   7.906   8.364 -0.0034 -0.1610 -0.1752
   14POPC   C2B  659   2.818   7.693   8.033  0.2017 -0.0378 -0.0781
   14POPC   C3B  660   2.666   7.256   7.954  0.1369 -0.0337 -0.1207
   14POPC   C4B  661   2.859   6.877   8.069 -0.2780 -0.1329 -0.2712
   15POPC   NC3  662   3.484   0.417   8.882  0.0647 -0.0285 -0.3085
   15POPC   PO4  663   3.625   0.773   8.691  0.1532  0.1047  0.0876
   15POPC   GL1  664   3.634   0.877   8.197 -0.2391 -0.1781  0.1445
   15POPC   GL2  665   3.692   1.227   8.234 -0.0792  0.0564  0.0150
   15POPC   C1A  666   3.590   0.836   7.738  0.0942 -0.1776  0.1788
   15POPC   D2A  667   3.358   1.005   7.498 -0.2250 -0.0199  0.0187
   15POPC   C3A  668   3.602   1.055   7.130 -0.0486  0.0570  0.0577
   15POPC   C4A  669   3.771   1.442   6.984  0.3056 -0.4093  0.2216
   15POPC   C1B  670   3.878   1.515   8.007 -0.0316 -0.0116 -0.1295
   15POPC   C2B  671   3.637   1.746   7.827 -0.2232 -0.0212  0.2655
   15POPC   C3B  672   3.561   1.761   7.447 -0.1689 -0.4570 -0.0922
   15POPC   C4B  673   3.501   2.020   7.025  0.1245  0.0898  0.1721
   16POPC   NC3  674   4.756   0.754   9.044  0.2070  0.1925 -0.0165
   16POPC   PO4  675   4.968   0.707   8.629 -0.0870 -0.2275  0.3001
   16POPC   GL1  676   4.830   0.586   8.253 -0.0078 -0.0020 -0.0811
   16POPC   GL2  677   4.987   0.303   8.325  0.0226 -0.0611 -0.1540
   16POPC   C1A  678   4.682   0.514   7.806 -0.0584 -0.2274 -0.0035
   16POPC   D2A  679   4.428   0.339   7.502 -0.0116  0.1787 -0.2767
   16POPC   C3A  680   4.508   0.273   7.073  0.0617  0.0760  0.1484
   16POPC   C4A  681   4.388   0.411   6.592  0.1101 -0.1793  0.0521
   16POPC   C1B  682   5.106   0.209   7.836  0.1151 -0.4410  0.0762
   16POPC   C2B  683   4.768  -0.024   7.523  0.2308  0.1244  0.2687
   16POPC   C3B  684   4.839  -0.243   7.108  0.3467  0.1863 -0.2028
   16POPC   C4B  685   5.137  -0.444   6.863 -0.0437  0.3384 -0.4139
   17POPC   NC3  686   8.694   6.233   9.812 -0.0406 -0.1061 -0.1376
   17POPC   PO4  687   8.942   6.249   9.438 -0.0735  0.2646 -0.2968
   17POPC   GL1  688   8.907   6.396   9.029 -0.0472 -0.4386  0.1696
   17POPC   GL2  689   9.259   6.353   9.036 -0.0159  0.2075 -0.0011
   17POPC   C1A  690   8.964   6.443   8.605 -0.0165  0.2007 -0.0054
   17POPC   D2A  691   9.221   6.459   8.206  0.1846 -0.0990 -0.1063
   17POPC   C3A  692   8.932   6.691   7.920 -0.3284 -0.0557 -0.2022
   17POPC   C4A  693   8.828   7.005   7.579 -0.1355  0.1247 -0.1341
   17POPC   C1B  694   9.424   6.009   8.763  0.2046  0.1588  0.0180
   17POPC   C2B  695   9.480   5.821   8.426  0.3722 -0.2080  0.0281
   17POPC   C3B  696   9.479   5.506   8.282 -0.0986  0.2395  0.4608
   17POPC   C4B  697   9.443   5.601   7.832 -0.3347 -0.0535  0.0395
   18POPC   NC3  698  10.384   0.149   9.470  0.0335 -0.0266  0.4472
   18POPC   PO4  699  10.230  -0.242   9.536 -0.0045  0.1698 -0.4614
   18POPC   GL1  700  10.446  -0.486   9.213 -0.0785 -0.1375 -0.0429
   18POPC   GL2  701  10.388  -0.863   9.152  0.1592  0.2033 -0.0153
   18POPC   C1A  702  10.333  -0.509   8.818 -0.0279 -0.2889  0.2301
   18POPC   D2A  703  10.188  -0.552   8.414  0.4216 -0.0796  0.0167
   18POPC   C3A  704  10.036  -0.168   8.283 -0.1952 -0.3338  0.0407
   18POPC   C4A  705   9.577  -0.041   8.131 -0.0624  0.0443 -0.1317
   18POPC   C1B  706  10.588  -0.894   8.876  0.4590 -0.2452 -0.0383
   18POPC   C2B  707  10.719  -1.213   8.749 -0.2783  0.1542 -0.3277
   18POPC   C3B  708  10.488  -1.566   8.647  0.0173 -0.0751  0.1629
   18POPC   C4B  709  10.127  -1.824   8.582 -0.1759 -0.1777  0.0347
   19POPC   NC3  710   5.260   7.405   8.673  0.0962 -0.2225 -0.0287
   19POPC   PO4  711   5.659   7.633   8.546 -0.1856 -0.1250 -0.1128
   19POPC   GL1  712   5.444   7.788   8.207 -0.1627  0.3683  0.1238
   19POPC   GL2  713   5.131   7.696   8.206  0.2254  0.2374 -0.2813
   19POPC   C1A  714   5.477   8.000   7.844 -0.0688 -0.1775  0.1669
   19POPC   D2A  715   5.720   8.214   7.549  0.1110 -0.0302  0.2483
   19POPC   C3A  716   5.742   8.089   7.117 -0.1396 -0.1538 -0.0806
   19POPC   C4A  717   5.675   8.088   6.758  0.1746  0.0966 -0.2372
   19POPC   C1B  718   5.002   7.978   7.912 -0.3844 -0.3573 -0.0301
   19POPC   C2B  719   4.846   7.973   7.557 -0.2191 -0.4365 -0.1900
   19POPC   C3B  720   4.736   7.888   7.151  0.0873  0.0035 -0.4178
   19POPC   C4B  721   4.670   8.248   6.776  0.2252  0.4377 -0.1812
   20POPC   NC3  722   1.864   0.907   8.949 -0.4243  0.0682 -0.0464
   20POPC   PO4  723   2.053   0.562   9.018  0.0887  0.0469 -0.1468
   20POPC   GL1  724   1.939   0.455   8.654 -0.1664 -0.1109  0.0538
   20POPC   GL2  725   1.772   0.629   8.556  0.2330  0.3204 -0.2858
   20POPC   C1A  726   1.963   0.377   8.163  0.0482  0.0336 -0.2768
   20POPC   D2A  727   2.039   0.076   7.923 -0.0386  0.0099 -0.0382
   20POPC   C3A  728   2.006  -0.291   7.695  0.2905 -0.1051  0.0692
   20POPC   C4A  729   2.064  -0.728   7.475 -0.4581 -0.2949  0.0572
   20POPC   C1B  730   1.675   0.717   8.121 -0.2807  0.1061 -0.2921
   20POPC   C2B  731   1.464   0.766   7.823 -0.1509  0.0164 -0.1467
   20POPC   C3B  732   1.469   0.775   7.493 -0.1730  0.1557 -0.0324
   20POPC   C4B  733   1.642   0.558   7.186 -0.0617  0.0855 -0.2523
   21POPC   NC3  734   2.845   6.425  10.035  0.0884 -0.0977 -0.0594
   21POPC   PO4  735   2.424   6.513  10.002 -0.0701  0.0403 -0.0959
   21POPC   GL1  736   2.019   6.577   9.849  0.0124  0.0054 -0.3116
   21POPC   GL2  737   1.954   6.567  10.059  0.2955  0.1176  0.1106
   21POPC   C1A  738   1.890   6.397   9.421 -0.0101  0.4270  0.0963
   21POPC   D2A  739   1.784   6.685   9.066  0.0271 -0.5252 -0.1137
   21POPC   C3A  740   1.891   7.043   8.756  0.2101  0.3048 -0.0085
   21POPC   C4A  741   2.127   7.411   8.406 -0.0052 -0.0701  0.0969
   21POPC   C1B  742   1.573   6.444   9.790  0.0363 -0.0536  0.2157
   21POPC   C2B  743   1.435   6.634   9.362  0.1548 -0.1777 -0.0867
   21POPC   C3B  744   1.163   6.657   9.042  0.0373  0.1629  0.2544
   21POPC   C4B  745   1.104   6.576   8.584  0.2691  0.1603 -0.1502
   22POPC   NC3  746   5.665   5.082   9.260 -0.3212 -0.0732  0.1664
   22POPC   PO4  747   5.546   5.257   8.925 -0.1795  0.0904 -0.0381
   22POPC   GL1  748   5.501   5.325   8.442 -0.2230 -0.1484  0.3147
   22POPC   GL2  749   5.818   5.279   8.189 -0.1378 -0.1175 -0.0841
   22POPC   C1A  750   5.287   5.217   8.025  0.0194  0.0346  0.1072
   22POPC   D2A  751   4.904   5.095   7.780 -0.1691 -0.2042  0.0743
   22POPC   C3A  752   4.615   5.409   7.490 -0.0153  0.1593  0.0795
   22POPC   C4A  753   4.279   5.418   7.248  0.2666 -0.0356 -0.2283
   22POPC   C1B  754   5.577   4.880   8.210 -0.0609 -0.0586 -0.0418
   22POPC   C2B  755   5.331   4.665   7.844 -0.0402  0.2451 -0.1495
   22POPC   C3B  756   5.024   4.794   7.428  0.2734  0.1453 -0.1175
   22POPC   C4B  757   4.781   4.658   7.097 -0.2944 -0.1600 -0.3541
   23POPC   NC3  758   7.932   2.050   8.853 -0.0392 -0.0389 -0.0643
   23POPC   PO4  759   8.229   1.688   8.855  0.2693 -0.1987  0.1985
   23POPC   GL1  760   8.202   1.811   8.427  0.1586 -0.0639  0.1226
   23POPC   GL2  761   8.190   1.438   8.195  0.2665  0.0148  0.3256
   23POPC   C1A  762   8.002   1.969   8.104  0.1218 -0.3462  0.0018
   23POPC   D2A  763   7.897   2.222   7.729 -0.2171  0.0414  0.1845
   23POPC   C3A  764   8.108   2.488   7.606  0.1089 -0.2083  0.0939
   23POPC   C4A  765   8.436   2.750   7.428  0.0799 -0.5183 -0.0091
   23POPC   C1B  766   8.184   1.458   7.772 -0.1189  0.2055  0.2883
   23POPC   C2B  767   8.381   1.330   7.448 -0.0442 -0.0539  0.0171
   23POPC   C3B  768   8.426   0.980   7.184  0.0486  0.3575  0.1259
   23POPC   C4B  769   8.797   0.933   6.909  0.1343 -0.2867 -0.0417
   24POPC   NC3  770   9.785   8.765   9.916 -0.0766 -0.0542 -0.0943
   24POPC   PO4  771  10.086   8.827   9.583  0.3064  0.0053  0.0210
   24POPC   GL1  772  10.255   8.547   9.190  0.1112 -0.0645  0.0305
   24POPC   GL2  773  10.391   8.223   9.193 -0.0426 -0.3779  0.1668
   24POPC   C1A  774  10.559   8.428   8.772 -0.1261 -0.2475 -0.0835
   24POPC   D2A  775  10.485   8.380   8.327 -0.2393 -0.0175 -0.0813
   24POPC   C3A  776  10.479   8.786   8.083 -0.0363 -0.2840 -0.1821
   24POPC   C4A  777  10.698   9.198   8.269  0.0535  0.0222  0.1089
   24POPC   C1B  778  10.548   7.834   8.988 -0.0653 -0.0417 -0.3507
   24POPC   C2B  779  10.523   7.481   8.665 -0.0626 -0.0472  0.6320
   24POPC   C3B  780  10.600   7.353   8.275  0.0663 -0.0742  0.0145
   24POPC   C4B  781  10.565   7.340   7.856  0.3854  0.0585 -0.0936
   25POPC   NC3  782   2.774   2.689   9.055 -0.2408  0.2637 -0.3061
   25POPC   PO4  783   2.643   2.902   8.706 -0.0956  0.1556  0.2026
   25POPC   GL1  784   2.734   3.096   8.299  0.0773 -0.0508 -0.0787
   25POPC   GL2  785   2.950   3.266   8.466  0.0791 -0.1942  0.3622
   25POPC   C1A  786   3.063   3.168   7.919  0.1619 -0.0914  0.0787
   25POPC   D2A  787   3.454   3.246   7.675  0.0137 -0.1227 -0.0966
   25POPC   C3A  788   3.392   3.383   7.399 -0.1726 -0.1684  0.2759
   25POPC   C4A  789   3.157   3.409   7.162  0.0494  0.0242 -0.0057
   25POPC   C1B  790   2.833   3.618   8.286 -0.0935 -0.2102 -0.1989
   25POPC   C2B  791   2.717   3.909   8.025  0.2631 -0.1891  0.2381
   25POPC   C3B  792   2.726   4.068   7.654 -0.0310 -0.1838  0.1151
   25POPC   C4B  793   2.628   4.438   7.530  0.4238  0.1803  0.5227
   26POPC   NC3  794   6.963   5.401   8.989  0.1888  0.2140 -0.3790
   26POPC   PO4  795   7.009   5.059   8.646 -0.0612 -0.0670 -0.1589
   26POPC   GL1  796   6.818   4.912   8.258  0.0336 -0.0259  0.0872
   26POPC   GL2  797   6.568   5.010   8.189 -0.0438  0.3977  0.2751
   26POPC   C1A  798   6.888   4.592   8.058  0.2061  0.1072  0.0968
   26POPC   D2A  799   6.884   4.199   8.108  0.1291  0.3095  0.3066
   26POPC   C3A  800   7.065   3.931   7.799  0.0059 -0.3129 -0.0701
   26POPC   C4A  801   7.421   3.950   7.455 -0.1720  0.2267 -0.1079
   26POPC   C1B  802   6.493   4.834   7.729 -0.0061  0.5096  0.1093
   26POPC   C2B  803   6.443   4.657   7.242 -0.2390 -0.0490 -0.0460
   26POPC   C3B  804   6.506   4.152   7.147 -0.0173  0.0130 -0.0309
   26POPC   C4B  805   6.307   3.818   7.168  0.0307 -0.2747  0.0591
   27POPC   NC3  806   5.725   0.084   9.032  0.1490 -0.2285  0.0485
   27POPC   PO4  807   5.973  -0.332   8.971  0.1045  0.0766  0.0933
   27POPC   GL1  808   5.934  -0.510   8.499 -0.1058  0.0824 -0.1600
   27POPC   GL2  809   6.295  -0.547   8.517 -0.0471 -0.1728  0.0405
   27POPC   C1A  810   5.641  -0.473   8.129 -0.2420 -0.1689 -0.2874
   27POPC   D2A  811   5.498  -0.213   7.703 -0.0287  0.2175  0.0659
   27POPC   C3A  812   5.192  -0.435   7.442  0.1570  0.2436 -0.1110
   27POPC   C4A  813   5.198  -0.827   7.311 -0.2533 -0.3813  0.1821
   27POPC   C1B  814   6.227  -0.930   8.322 -0.2930  0.1892  0.1350
   27POPC   C2B  815   6.367  -1.153   7.862  0.2964 -0.1132  0.1060
   27POPC   C3B  816   6.457  -1.221   7.455 -0.1035 -0.0235  0.2321
   27POPC   C4B  817   6.899  -1.309   7.304  0.0590 -0.1197 -0.0628
   28POPC   NC3  818   4.894   8.645   8.737 -0.0080 -0.1637  0.1816
   28POPC   PO4  819   4.600   8.752   8.412  0.2053  0.1154  0.0141
   28POPC   GL1  820   4.392   8.611   7.977 -0.3072 -0.0159  0.3184
   28POPC   GL2  821   4.392   8.253   7.812 -0.0877 -0.1997  0.0033
   28POPC   C1A  822   4.347   8.856   7.520 -0.1192 -0.1237  0.1328
   28POPC   D2A  823   4.105   8.894   7.215  0.0116 -0.0429 -0.0677
   28POPC   C3A  824   3.881   9.241   7.124 -0.1510 -0.2655  0.0424
   28POPC   C4A  825   3.561   9.592   7.076 -0.1893 -0.3681 -0.0464
   28POPC   C1B  826   4.234   8.385   7.390 -0.1389 -0.2653  0.1702
   28POPC   C2B  827   4.137   8.570   6.875 -0.1645  0.4026 -0.2270
   28POPC   C3B  828   4.407   8.553   6.500 -0.0663 -0.0004 -0.0980
   28POPC   C4B  829   4.409   8.638   6.099 -0.0507  0.1103 -0.2854
   29POPC   NC3  830   1.402   4.821  10.742  0.0153 -0.1207  0.0010
   29POPC   PO4  831   1.272   5.186  10.518  0.0572  0.0194 -0.2068
   29POPC   GL1  832   1.330   5.430  10.161 -0.0932 -0.1101 -0.1566
   29POPC   GL2  833   1.100   5.723  10.034 -0.1307  0.0192 -0.3289
   29POPC   C1A  834   1.385   5.436   9.698 -0.1308  0.2713 -0.0771
   29POPC   D2A  835   1.251   5.247   9.333  0.2477  0.1183  0.4803
   29POPC   C3A  836   1.384   5.038   9.014 -0.1304 -0.1258  0.0297
   29POPC   C4A  837   1.292   4.660   8.756  0.0417 -0.0659  0.0240
   29POPC   C1B  838   1.106   6.162   9.821 -0.1185 -0.1338  0.0203
   29POPC   C2B  839   0.940   6.282   9.386 -0.1779  0.0078 -0.2064
   29POPC   C3B  840   0.674   6.597   9.202 -0.0481  0.1172 -0.0557
   29POPC   C4B  841   0.644   6.654   8.782  0.0217  0.1782 -0.0344
   30POPC   NC3  842   8.544  10.352   8.900 -0.2530 -0.1235 -0.2767
   30POPC   PO4  843   8.867  10.100   8.774  0.3500  0.0411 -0.4494
   30POPC   GL1  844   8.696  10.163   8.341  0.3706 -0.1334 -0.3423
   30POPC   GL2  845   8.510  10.452   8.388 -0.3377 -0.0887  0.3631
   30POPC   C1A  846   8.753  10.372   7.955 -0.1467 -0.3496  0.2656
   30POPC   D2A  847   8.840  10.609   7.661 -0.2544 -0.0211  0.0479
   30POPC   C3A  848   8.791  10.262   7.407 -0.0197  0.1092  0.0758
   30POPC   C4A  849   8.510   9.943   7.303  0.2486  0.1500  0.2316
   30POPC   C1B  850   8.231  10.322   8.129  0.0051  0.2713  0.2090
   30POPC   C2B  851   8.211  10.119   7.881  0.1566  0.2373 -0.3820
   30POPC   C3B  852   8.021   9.915   7.565 -0.0706 -0.0380  0.2730
   30POPC   C4B  853   7.975   9.790   7.255  0.0683 -0.0545  0.3215
   31POPC   NC3  854   2.146   4.968  10.208  0.0462 -0.0307 -0.2338
   31POPC   PO4  855   1.833   5.351  10.383  0.0028  0.0804  0.0125
   31POPC   GL1  856   1.787   5.212   9.893 -0.0862  0.1715 -0.1051
   31POPC   GL2  857   1.767   4.878   9.768  0.0198  0.1129 -0.1288
   31POPC   C1A  858   1.979   5.538   9.692 -0.0102 -0.0253 -0.2478
   31POPC   D2A  859   2.344   5.651   9.521 -0.0782 -0.0842  0.1552
   31POPC   C3A  860   2.225   5.413   9.204  0.1823 -0.1558  0.0044
   31POPC   C4A  861   2.303   5.218   8.789  0.2798  0.1420  0.1696
   31POPC   C1B  862   1.745   5.177   9.412 -0.0374  0.0749  0.1893
   31POPC   C2B  863   1.961   5.009   9.117 -0.0059 -0.0234  0.3707
   31POPC   C3B  864   1.843   4.746   8.819  0.1316 -0.1242 -0.3262
   31POPC   C4B  865   1.680   4.390   8.925 -0.1630 -0.1662  0.0358
   32POPC   NC3  866   4.881   9.936   8.760 -0.0195 -0.0768 -0.0345
   32POPC   PO4  867   4.543   9.833   9.028  0.0459 -0.1524 -0.1412
   32POPC   GL1  868   4.480  10.189   8.606 -0.0052 -0.0735 -0.1172
   32POPC   GL2  869   4.539  10.145   8.356 -0.1087 -0.2344  0.2620
   32POPC   C1A  870   4.261  10.570   8.374  0.0264  0.1855  0.0755
   32POPC   D2A  871   4.086  10.827   7.956  0.0021 -0.2650  0.0986
   32POPC   C3A  872   3.699  10.871   7.950 -0.0579  0.0049  0.3007
   32POPC   C4A  873   3.368  10.504   7.915 -0.1399  0.3391 -0.3380
   32POPC   C1B  874   4.389  10.364   7.913 -0.1377  0.1770 -0.3646
   32POPC   C2B  875   4.299  10.302   7.505 -0.1514 -0.0784  0.0775
   32POPC   C3B  876   4.075  10.482   7.160 -0.0629  0.2188  0.0525
   32POPC   C4B  877   3.701  10.529   6.772 -0.0623 -0.0871 -0.0263
   33POPC   NC3  878   9.321   7.083   9.822  0.0376  0.1666 -0.1448
   33POPC   PO4  879   9.296   7.166   9.437  0.0534  0.3349  0.0482
   33POPC   GL1  880   9.450   7.297   8.936  0.1497 -0.1482  0.2116
   33POPC   GL2  881   9.476   7.620   8.780  0.1407  0.2539 -0.1430
   33POPC   C1A  882   9.558   7.187   8.540  0.0332  0.1106 -0.1310
   33POPC   D2A  883   9.819   7.122   8.210  0.2153  0.0817  0.3432
   33POPC   C3A  884  10.182   7.059   8.137  0.2038 -0.0729 -0.3391
   33POPC   C4A  885  10.551   6.887   8.156  0.0559  0.0948 -0.2055
   33POPC   C1B  886   9.706   7.726   8.536  0.0538 -0.1613  0.0702
   33POPC   C2B  887   9.877   8.086   8.320 -0.1298 -0.3015  0.3573
   33POPC   C3B  888  10.120   8.025   7.950 -0.4198  0.2647 -0.1113
   33POPC   C4B  889  10.422   7.774   7.601 -0.1112 -0.1700  0.1056
   34POPC   NC3  890   9.513   1.283   9.449  0.0089 -0.2067 -0.0650
   34POPC   PO4  891   9.733   1.302   9.046  0.2476 -0.0644  0.1509
   34POPC   GL1  892   9.734   1.140   8.635  0.1548  0.0188 -0.0723
   34POPC   GL2  893   9.749   1.557   8.587 -0.0374  0.1190 -0.0689
   34POPC   C1A  894   9.534   0.977   8.363 -0.2348 -0.2036  0.1270
   34POPC   D2A  895   9.296   0.812   8.124 -0.2408  0.0111  0.0833
   34POPC   C3A  896   9.460   0.789   7.704 -0.2283  0.0437  0.1609
   34POPC   C4A  897   9.351   0.489   7.277  0.1426  0.1448 -0.0360
   34POPC   C1B  898   9.677   1.428   8.196  0.0948  0.2409  0.3440
   34POPC   C2B  899   9.825   1.267   7.742  0.2988  0.0028  0.0064
   34POPC   C3B  900   9.952   0.990   7.536 -0.5250  0.3055  0.1353
   34POPC   C4B  901   9.842   0.554   7.382  0.0807 -0.1122 -0.0046
   35POPC   NC3  902   8.789   5.127   9.109 -0.0613  0.0442  0.3818
   35POPC   PO4  903   8.865   5.403   9.306 -0.0556 -0.0416  0.0692
   35POPC   GL1  904   9.261   5.379   9.050  0.1290 -0.0287 -0.1612
   35POPC   GL2  905   9.240   5.555   8.814  0.2286 -0.0967 -0.3394
   35POPC   C1A  906   9.695   5.387   8.682  0.0820 -0.0542  0.2092
   35POPC   D2A  907  10.038   5.636   8.432  0.0067  0.0619  0.0086
   35POPC   C3A  908   9.903   5.968   8.102 -0.1484  0.1716  0.0058
   35POPC   C4A  909   9.512   6.119   7.900  0.1200 -0.0501  0.0924
   35POPC   C1B  910   9.002   5.658   8.556 -0.0504  0.1877 -0.4423
   35POPC   C2B  911   9.025   5.580   8.130 -0.2689 -0.2612 -0.3631
   35POPC   C3B  912   9.115   5.247   7.738  0.1819  0.1278 -0.0026
   35POPC   C4B  913   9.003   5.032   7.321  0.1010  0.1300  0.0495
   36POPC   NC3  914   8.332   8.315   8.538 -0.2643  0.2559  0.0032
   36POPC   PO4  915   8.711   8.151   8.516  0.2054  0.0325  0.1821
   36POPC   GL1  916   8.750   8.437   8.279  0.2731 -0.0480 -0.1122
   36POPC   GL2  917   9.107   8.578   8.199  0.0781 -0.3766 -0.4333
   36POPC   C1A  918   8.641   8.362   7.914 -0.2071  0.2635  0.0109
   36POPC   D2A  919   8.772   8.292   7.477  0.1547 -0.3488  0.1343
   36POPC   C3A  920   8.518   7.991   7.231 -0.0499 -0.1598 -0.2955
   36POPC   C4A  921   8.251   7.728   7.300  0.1213  0.1522 -0.0522
   36POPC   C1B  922   9.084   8.668   7.773  0.2886 -0.0166 -0.0869
   36POPC   C2B  923   9.218   8.693   7.329  0.0630  0.0006 -0.0861
   36POPC   C3B  924   9.163   8.959   6.824 -0.0127 -0.1914  0.0067
   36POPC   C4B  925   9.195   9.242   6.466 -0.4306  0.3646 -0.0240
   37POPC   NC3  926   7.310   5.759   9.354 -0.0765 -0.3352  0.1369
   37POPC   PO4  927   7.174   5.850   8.936 -0.2644  0.5346 -0.0887
   37POPC   GL1  928   7.291   5.812   8.510  0.2083  0.0818 -0.2183
   37POPC   GL2  929   7.484   6.057   8.367 -0.0494  0.0171  0.1693
   37POPC   C1A  930   7.192   5.835   8.046 -0.1521 -0.2116 -0.0523
   37POPC   D2A  931   7.088   5.820   7.605 -0.3335 -0.0249 -0.2365
   37POPC   C3A  932   7.368   5.939   7.292  0.1931  0.1781  0.0688
   37POPC   C4A  933   7.588   5.683   6.916  0.1033  0.2052  0.2320
   37POPC   C1B  934   7.657   6.106   8.060 -0.1171  0.1682 -0.0883
   37POPC   C2B  935   7.501   6.194   7.765 -0.1311  0.0589 -0.1317
   37POPC   C3B  936   7.183   6.378   7.535  0.2998  0.0525 -0.0528
   37POPC   C4B  937   6.938   6.201   7.202  0.1949  0.2569 -0.0938
   38POPC   NC3  938   6.433   2.033   9.076  0.2295 -0.1365 -0.2202
   38POPC   PO4  939   6.761   2.392   8.859 -0.0856 -0.3569 -0.2035
   38POPC   GL1  940   6.812   2.197   8.491 -0.0218  0.0204  0.0303
   38POPC   GL2  941   6.552   2.273   8.241 -0.2460  0.0636  0.1516
   38POPC   C1A  942   7.050   2.123   8.201 -0.1183  0.0592 -0.1789
   38POPC   D2A  943   7.033   2.122   7.829  0.0926  0.1252 -0.1141
   38POPC   C3A  944   6.972   1.818   7.495  0.0983  0.1623 -0.3195
   38POPC   C4A  945   6.741   1.537   7.262  0.6824 -0.2516 -0.0113
   38POPC   C1B  946   6.547   2.166   7.842  0.1339 -0.0486 -0.0609
   38POPC   C2B  947   6.713   2.318   7.413 -0.0139  0.0388  0.1257
   38POPC   C3B  948   7.037   2.442   7.123 -0.1103 -0.2282  0.1301
   38POPC   C4B  949   7.347   2.808   7.119  0.0536  0.1865 -0.1299
   39POPC   NC3  950   9.383   8.104   8.998 -0.0977  0.1288 -0.0812
   39POPC   PO4  951   9.185   8.075   8.584 -0.3739 -0.0567  0.0787
   39POPC   GL1  952   9.117   7.989   8.137  0.0341  0.0054  0.0595
   39POPC   GL2  953   8.781   7.778   8.152 -0.1672  0.0449 -0.1273
   39POPC   C1A  954   9.194   8.184   7.763  0.1248 -0.1725  0.0755
   39POPC   D2A  955   9.348   8.221   7.317 -0.0447  0.2530  0.2479
   39POPC   C3A  956   9.004   8.229   7.042  0.0249 -0.0717 -0.0400
   39POPC   C4A  957   8.722   8.640   6.936 -0.0335 -0.0201 -0.1301
   39POPC   C1B  958   8.697   7.819   7.694 -0.1271 -0.1409  0.0602
   39POPC   C2B  959   8.747   7.474   7.371  0.3014  0.0700  0.1435
   39POPC   C3B  960   8.861   7.151   7.092  0.2286  0.3400  0.0568
   39POPC   C4B  961   8.676   7.025   6.713  0.0925  0.1478 -0.0400
   40POPC   NC3  962   6.932   3.379   8.875  0.0721  0.0218  0.0822
   40POPC   PO4  963   6.967   3.074   8.664 -0.0390 -0.1938 -0.2588
   40POPC   GL1  964   6.993   3.277   8.363 -0.1362 -0.3673  0.0767
   40POPC   GL2  965   6.669   3.245   8.304  0.2282  0.3289 -0.2070
   40POPC   C1A  966   7.177   3.380   8.015  0.2862 -0.0108  0.0602
   40POPC   D2A  967   7.233   3.493   7.568  0.0807 -0.1378 -0.1403
   40POPC   C3A  968   6.918   3.285   7.218 -0.0749 -0.0513  0.0040
   40POPC   C4A  969   6.604   3.395   6.968 -0.0353 -0.3881 -0.2974
   40POPC   C1B  970   6.422   2.900   8.081  0.0215  0.0509 -0.0025
   40POPC   C2B  971   6.445   2.807   7.671  0.0263  0.1002  0.3481
   40POPC   C3B  972   6.848   2.886   7.423 -0.0010  0.0072 -0.1468
   40POPC   C4B  973   7.161   2.577   7.548 -0.0622  0.1311 -0.3163
   41POPC   NC3  974   5.698   1.873   8.392  0.3660 -0.4492  0.0463
   41POPC   PO4  975   5.526   1.486   8.654 -0.0694  0.0756 -0.0674
   41POPC   GL1  976   5.488   1.372   8.257 -0.0600  0.0217 -0.1763
   41POPC   GL2  977   5.737   1.101   8.246 -0.1118  0.2450  0.3333
   41POPC   C1A  978   5.419   1.262   7.708 -0.0269 -0.0144 -0.1184
   41POPC   D2A  979   5.185   1.033   7.450  0.0287 -0.1451  0.0980
   41POPC   C3A  980   5.022   1.118   7.011 -0.1769  0.0999 -0.0276
   41POPC   C4A  981   4.748   1.227   6.757 -0.2624 -0.2327 -0.0863
   41POPC   C1B  982   5.878   0.890   7.818  0.3406  0.2507  0.1318
   41POPC   C2B  983   5.817   0.849   7.424 -0.0523  0.0610  0.2118
   41POPC   C3B  984   5.536   0.654   7.064  0.0314 -0.0944 -0.3200
   41POPC   C4B  985   5.605   0.171   6.945  0.1285 -0.3594  0.3296
   42POPC   NC3  986   6.129   5.030   8.606 -0.2525 -0.1512  0.4697
   42POPC   PO4  987   5.895   5.484   8.628 -0.1271 -0.2236 -0.3061
   42POPC   GL1  988   5.808   5.805   8.256  0.1773 -0.0555 -0.2931
   42POPC   GL2  989   5.512   5.939   8.276  0.1685  0.1757 -0.2185
   42POPC   C1A  990   5.632   5.640   7.912 -0.0286  0.0238  0.0015
   42POPC   D2A  991   5.731   5.349   7.691 -0.2371 -0.1209  0.2307
   42POPC   C3A  992   5.349   5.252   7.478 -0.0921 -0.1022  0.2175
   42POPC   C4A  993   5.046   5.411   7.187  0.0996  0.3571  0.0893
   42POPC   C1B  994   5.762   6.125   7.887 -0.0308  0.1512  0.2503
   42POPC   C2B  995   5.865   6.205   7.447  0.3719  0.3358 -0.2066
   42POPC   C3B  996   5.826   6.090   6.991  0.0193 -0.0591  0.1428
   42POPC   C4B  997   5.762   6.184   6.559  0.2340  0.2821 -0.1854
   43POPC   NC3  998   9.479   2.075   8.765  0.0890  0.0051 -0.0593
   43POPC   PO4  999   9.851   2.246   8.775 -0.1280 -0.1094  0.3531
   43POPC   GL1 1000   9.877   2.231   8.277  0.2280 -0.1518 -0.1199
   43POPC   GL2 1001   9.769   2.541   8.254  0.1130 -0.1668  0.0110
   43POPC   C1A 1002  10.103   2.362   7.872  0.1461  0.2870 -0.4833
   43POPC   D2A 1003   9.952   2.399   7.455  0.1734  0.0486  0.0434
   43POPC   C3A 1004   9.522   2.195   7.323 -0.0039  0.0240 -0.1440
   43POPC   C4A 1005   9.139   2.048   7.158  0.3087 -0.2242  0.2309
   43POPC   C1B 1006   9.945   2.820   7.983  0.2501 -0.4201 -0.0103
   43POPC   C2B 1007   9.784   3.068   7.651  0.0377  0.1995 -0.0994
   43POPC   C3B 1008   9.953   3.059   7.311  0.0009 -0.1538  0.3222
   43POPC   C4B 1009  10.223   3.273   7.199 -0.1610 -0.0076  0.2232
   44POPC   NC3 1010   6.844   9.272   8.862 -0.1652 -0.1373 -0.2099
   44POPC   PO4 1011   6.606   8.878   8.876  0.2803  0.2146 -0.3544
   44POPC   GL1 1012   6.410   8.645   8.533  0.3013  0.1846  0.3470
   44POPC   GL2 1013   6.508   8.337   8.469 -0.0907 -0.0484  0.1847
   44POPC   C1A 1014   6.283   8.771   8.023 -0.3978 -0.3124 -0.2149
   44POPC   D2A 1015   6.321   8.677   7.633 -0.1075  0.0568  0.1455
   44POPC   C3A 1016   6.083   8.523   7.332  0.1815 -0.0756 -0.1208
   44POPC   C4A 1017   5.970   8.541   6.918 -0.1548  0.1606 -0.3817
   44POPC   C1B 1018   6.351   8.278   8.081 -0.0976 -0.1196 -0.1543
   44POPC   C2B 1019   6.192   8.194   7.699 -0.2789 -0.1646 -0.0953
   44POPC   C3B 1020   6.270   7.961   7.357 -0.3804  0.2491 -0.0566
   44POPC   C4B 1021   6.261   7.583   7.388 -0.3496  0.1591 -0.1022
   45POPC   NC3 1022   2.723   0.922   8.892 -0.3028 -0.0657 -0.1574
   45POPC   PO4 1023   2.964   0.614   9.063 -0.0011  0.3428 -0.2485
   45POPC   GL1 1024   2.994   0.518   8.610 -0.1598  0.0293 -0.0874
   45POPC   GL2 1025   3.258   0.576   8.443  0.1134  0.3035 -0.2176
   45POPC   C1A 1026   2.828   0.730   8.244  0.3482  0.1838  0.0489
   45POPC   D2A 1027   2.805   0.859   7.780  0.0468  0.1962 -0.3505
   45POPC   C3A 1028   2.475   1.161   7.650  0.2122 -0.2702 -0.2775
   45POPC   C4A 1029   2.238   1.477   7.772  0.2248 -0.2692  0.2922
   45POPC   C1B 1030   3.269   0.656   8.017  0.2162 -0.0321  0.1842
   45POPC   C2B 1031   3.289   0.474   7.552  0.4483  0.2522 -0.1692
   45POPC   C3B 1032   3.375   0.549   7.114 -0.1843  0.2020  0.0276
   45POPC   C4B 1033   3.571   0.742   6.743 -0.1598  0.0302 -0.0312
   46POPC   NC3 1034   5.442   3.244   8.877 -0.1700 -0.1633  0.1412
   46POPC   PO4 1035   5.882   3.236   8.756 -0.0234  0.2489  0.1990
   46POPC   GL1 1036   5.732   3.349   8.340 -0.3784  0.0596 -0.0847
   46POPC   GL2 1037   5.718   3.702   8.342  0.0589  0.0545  0.2934
   46POPC   C1A 1038   5.773   3.311   7.832 -0.1918  0.0556 -0.0489
   46POPC   D2A 1039   5.934   3.391   7.463  0.4618 -0.2110  0.1013
   46POPC   C3A 1040   5.790   3.793   7.256 -0.1843  0.1230  0.3129
   46POPC   C4A 1041   5.494   4.028   7.275  0.2077 -0.2226 -0.3991
   46POPC   C1B 1042   5.784   3.828   7.895  0.1955 -0.1588  0.1256
   46POPC   C2B 1043   6.194   3.757   7.644 -0.0080  0.1293 -0.1353
   46POPC   C3B 1044   6.668   3.690   7.482 -0.0045 -0.2550 -0.5055
   46POPC   C4B 1045   6.993   3.825   7.202 -0.0305 -0.1535  0.2558
   47POPC   NC3 1046   1.953   3.302   9.201  0.0320  0.0995  0.0414
   47POPC   PO4 1047   1.898   2.934   8.991 -0.2616  0.0478 -0.0828
   47POPC   GL1 1048   1.664   3.056   8.627 -0.2896  0.1691 -0.0301
   47POPC   GL2 1049   1.536   3.370   8.561 -0.0739 -0.2160  0.0310
   47POPC   C1A 1050   1.698   3.005   8.199  0.1256  0.0604 -0.0403
   47POPC   D2A 1051   1.577   2.891   7.776  0.0647 -0.0665  0.4384
   47POPC   C3A 1052   1.700   3.123   7.453  0.3158  0.1705 -0.0146
   47POPC   C4A 1053   1.705   2.930   7.077  0.3370 -0.0315  0.0074
   47POPC   C1B 1054   1.831   3.469   8.171  0.0983  0.1662 -0.0569
   47POPC   C2B 1055   1.988   3.457   7.759  0.1646 -0.1042 -0.0337
   47POPC   C3B 1056   2.328   3.409   7.393  0.1345  0.0584  0.0564
   47POPC   C4B 1057   2.317   3.286   6.854 -0.3569 -0.0206 -0.3123
   48POPC   NC3 1058   0.903   1.593   8.791  0.0925  0.2505 -0.4090
   48POPC   PO4 1059   1.277   1.443   8.776 -0.2660  0.1237  0.4923
   48POPC   GL1 1060   1.437   1.643   8.490  0.0827  0.0866  0.1065
   48POPC   GL2 1061   1.767   1.687   8.333  0.2189  0.0133 -0.1333
   48POPC   C1A 1062   1.431   1.793   8.011  0.0959 -0.1110 -0.0292
   48POPC   D2A 1063   1.178   1.885   7.663 -0.1538 -0.2309  0.2199
   48POPC   C3A 1064   0.963   1.594   7.339 -0.1323  0.1613  0.0019
   48POPC   C4A 1065   0.569   1.261   7.463 -0.1794 -0.4176  0.1722
   48POPC   C1B 1066   1.713   1.453   8.112  0.4141 -0.3983  0.0613
   48POPC   C2B 1067   1.889   1.155   7.798  0.0445  0.2794  0.1056
   48POPC   C3B 1068   1.835   1.018   7.331  0.0790  0.1040  0.1463
   48POPC   C4B 1069   2.027   0.801   6.891  0.0043 -0.0042  0.0706
   49POPC   NC3 1070   6.182   5.902   8.611 -0.0098 -0.0530 -0.1758
   49POPC   PO4 1071   6.653   5.960   8.667 -0.0251 -0.0414 -0.9003
   49POPC   GL1 1072   6.594   5.850   8.205  0.1069 -0.0348 -0.3208
   49POPC   GL2 1073   6.340   5.592   8.220 -0.2009 -0.1098 -0.0565
   49POPC   C1A 1074   6.788   5.548   7.999  0.1604 -0.0935 -0.0386
   49POPC   D2A 1075   6.932   5.182   7.808  0.0153 -0.0335 -0.5042
   49POPC   C3A 1076   7.169   5.371   7.350 -0.0687 -0.1002 -0.1947
   49POPC   C4A 1077   7.068   5.659   6.967 -0.0235 -0.4066 -0.1971
   49POPC   C1B 1078   6.324   5.372   7.829 -0.0421  0.1222 -0.0690
   49POPC   C2B 1079   6.294   5.257   7.390 -0.1320  0.1304 -0.1434
   49POPC   C3B 1080   6.753   5.209   7.092  0.1417  0.2644  0.0450
   49POPC   C4B 1081   6.773   4.972   6.725 -0.3336  0.3010 -0.1071
   50POPC   NC3 1082   7.960   9.758   8.839  0.1646 -0.1977 -0.0205
   50POPC   PO4 1083   8.344   9.951   8.693  0.0437 -0.1998  0.1137
   50POPC   GL1 1084   8.125   9.785   8.281  0.0316 -0.4903  0.1301
   50POPC   GL2 1085   7.859   9.960   8.337 -0.0446  0.0387 -0.2181
   50POPC   C1A 1086   7.870   9.613   8.024  0.0285 -0.3769  0.3210
   50POPC   D2A 1087   7.577   9.231   8.096 -0.2028 -0.2679 -0.0202
   50POPC   C3A 1088   7.303   9.385   7.818  0.2157 -0.2701 -0.0262
   50POPC   C4A 1089   6.847   9.505   7.698  0.2135  0.0883 -0.2754
   50POPC   C1B 1090   7.686  10.106   7.966  0.3939  0.1193  0.0092
   50POPC   C2B 1091   7.455  10.155   7.591 -0.1991  0.0447  0.0469
   50POPC   C3B 1092   7.496  10.253   7.148  0.2904  0.1681 -0.0141
   50POPC   C4B 1093   7.706  10.338   6.795  0.0937  0.1529  0.0073
   51POPC   NC3 1094   8.511   0.803   8.772  0.0459 -0.0810  0.0243
   51POPC   PO4 1095   8.147   0.803   8.627  0.3081 -0.0500  0.0348
   51POPC   GL1 1096   8.323   0.954   8.264  0.0418  0.1302 -0.1288
   51POPC   GL2 1097   8.126   0.879   8.002  0.4606  0.0989  0.1497
   51POPC   C1A 1098   8.613   1.151   7.957  0.3843 -0.2616  0.2409
   51POPC   D2A 1099   8.811   1.449   7.637  0.1428  0.0079 -0.0406
   51POPC   C3A 1100   8.798   1.886   7.530  0.3065 -0.1848 -0.2431
   51POPC   C4A 1101   8.574   2.313   7.593  0.2206 -0.2124  0.2569
   51POPC   C1B 1102   8.140   0.894   7.606  0.0044  0.0584  0.2000
   51POPC   C2B 1103   8.450   0.555   7.467 -0.0408 -0.0079 -0.0474
   51POPC   C3B 1104   8.855   0.420   7.245 -0.0921  0.1531 -0.1293
   51POPC   C4B 1105   8.968   0.452   6.826 -0.1411 -0.2218  0.1321
   52POPC   NC3 1106   7.010   0.489   8.930  0.0259  0.0687 -0.1468
   52POPC   PO4 1107   6.943   0.290   8.462 -0.0449 -0.1549  0.1590
   52POPC   GL1 1108   6.751   0.385   8.084  0.0026  0.1452  0.3004
   52POPC   GL2 1109   6.716   0.670   8.101  0.0907  0.1456  0.0893
   52POPC   C1A 1110   6.727   0.286   7.664 -0.0035 -0.2060 -0.1627
   52POPC   D2A 1111   6.588   0.335   7.193 -0.0101  0.0316  0.0102
   52POPC   C3A 1112   6.593   0.142   6.774  0.0201  0.1102  0.0411
   52POPC   C4A 1113   6.704  -0.149   6.463 -0.0251  0.0872 -0.0717
   52POPC   C1B 1114   6.842   0.811   7.716  0.1566  0.7253 -0.0847
   52POPC   C2B 1115   7.254   0.891   7.525 -0.0141 -0.1467  0.0160
   52POPC   C3B 1116   7.633   0.849   7.428  0.1229 -0.0206 -0.0392
   52POPC   C4B 1117   7.823   0.692   7.002 -0.1838 -0.0804  0.1249
   53POPC   NC3 1118   4.323   4.370   9.087 -0.1077  0.3159  0.2128
   53POPC   PO4 1119   4.291   3.846   9.091 -0.1052  0.0016 -0.0392
   53POPC   GL1 1120   4.204   4.062   8.690  0.0642 -0.0010  0.0952
   53POPC   GL2 1121   4.317   3.852   8.455  0.2012  0.0945 -0.1265
   53POPC   C1A 1122   3.964   4.335   8.397  0.1889  0.1653  0.0590
   53POPC   D2A 1123   3.837   4.698   8.159 -0.3611 -0.2179  0.0246
   53POPC   C3A 1124   3.702   4.716   7.772 -0.3634  0.1166 -0.1486
   53POPC   C4A 1125   3.982   4.705   7.403 -0.1866 -0.0245 -0.2471
   53POPC   C1B 1126   4.233   3.814   8.005  0.0350  0.3339  0.0648
   53POPC   C2B 1127   4.037   3.977   7.588 -0.0561 -0.1893  0.2612
   53POPC   C3B 1128   3.780   4.214   7.507 -0.2269  0.1462 -0.1801
   53POPC   C4B 1129   3.398   4.478   7.179 -0.1367 -0.1031 -0.3478
   54POPC   NC3 1130   9.693   8.907   9.318 -0.0628  0.0181 -0.0007
   54POPC   PO4 1131   9.783   8.447   9.135 -0.3473 -0.1390 -0.3818
   54POPC   GL1 1132   9.801   8.310   8.772 -0.0899 -0.5813  0.0309
   54POPC   GL2 1133   9.543   8.447   8.527  0.1531 -0.3488 -0.0338
   54POPC   C1A 1134  10.174   8.109   8.762  0.0096 -0.4409 -0.3102
   54POPC   D2A 1135  10.361   7.868   8.432  0.1641 -0.1382  0.2122
   54POPC   C3A 1136  10.097   7.600   8.252  0.1434  0.3380  0.1122
   54POPC   C4A 1137  10.104   7.473   7.819  0.2276  0.0227 -0.0487
   54POPC   C1B 1138   9.533   8.452   8.034 -0.2327 -0.1957 -0.2101
   54POPC   C2B 1139   9.654   8.719   7.582  0.2530  0.2693 -0.1598
   54POPC   C3B 1140   9.652   8.689   7.156 -0.0649 -0.1576  0.0594
   54POPC   C4B 1141   9.802   8.420   6.754  0.0225  0.0199 -0.1199
   55POPC   NC3 1142  10.021   2.681   8.970  0.0816  0.1759  0.3404
   55POPC   PO4 1143   9.829   3.105   8.975 -0.0119  0.0197 -0.2173
   55POPC   GL1 1144   9.859   3.355   8.506  0.1115  0.1543 -0.2402
   55POPC   GL2 1145   9.556   3.391   8.267  0.0504 -0.1886  0.3547
   55POPC   C1A 1146  10.077   3.408   8.126 -0.0475  0.2434 -0.0824
   55POPC   D2A 1147  10.094   3.542   7.627 -0.0359 -0.1512  0.1176
   55POPC   C3A 1148  10.336   3.804   7.289 -0.1040  0.1984 -0.1751
   55POPC   C4A 1149  10.413   4.123   6.957  0.4610  0.0360 -0.3907
   55POPC   C1B 1150   9.784   3.809   8.242  0.4825 -0.3741 -0.2266
   55POPC   C2B 1151   9.816   4.276   8.023 -0.0895 -0.2091 -0.0806
   55POPC   C3B 1152   9.982   4.512   7.685  0.1586  0.2419 -0.1413
   55POPC   C4B 1153  10.116   4.728   7.326  0.2596 -0.3944  0.0271
   56POPC   NC3 1154   8.075   6.231   9.103  0.2012  0.1144  0.0596
   56POPC   PO4 1155   8.439   6.306   9.313 -0.0055 -0.0860  0.1700
   56POPC   GL1 1156   8.392   6.512   8.882 -0.3588 -0.2298  0.3990
   56POPC   GL2 1157   8.575   6.825   8.795  0.0287  0.0952  0.0509
   56POPC   C1A 1158   8.419   6.499   8.461  0.0136 -0.0152  0.1111
   56POPC   D2A 1159   8.442   6.482   8.022 -0.2194  0.1226 -0.1034
   56POPC   C3A 1160   8.644   6.307   7.758  0.4335 -0.1209  0.1634
   56POPC   C4A 1161   8.675   6.174   7.299 -0.1495  0.1408  0.2218
   56POPC   C1B 1162   8.728   6.858   8.342 -0.1874 -0.2080  0.0524
   56POPC   C2B 1163   8.772   7.313   8.198 -0.2128  0.4892 -0.0924
   56POPC   C3B 1164   9.057   7.458   7.847 -0.0497 -0.1115  0.4463
   56POPC   C4B 1165   9.204   7.721   7.591  0.1659  0.2720 -0.0987
   57POPC   NC3 1166   3.245   0.987   9.289  0.1469  0.3864 -0.1556
   57POPC   PO4 1167   3.115   1.216   8.977  0.0359  0.3140  0.1804
   57POPC   GL1 1168   3.209   1.565   8.595  0.1063  0.0398 -0.0724
   57POPC   GL2 1169   3.194   1.875   8.623  0.2002  0.1149 -0.3775
   57POPC   C1A 1170   3.279   1.551   8.236 -0.4600  0.3702  0.1376
   57POPC   D2A 1171   3.301   1.301   7.879  0.0201  0.2731  0.0864
   57POPC   C3A 1172   3.190   1.470   7.484  0.1982 -0.0099 -0.0897
   57POPC   C4A 1173   3.275   1.584   7.101  0.0762  0.1552  0.0600
   57POPC   C1B 1174   3.173   2.105   8.233 -0.2609 -0.2462  0.3630
   57POPC   C2B 1175   2.839   2.276   7.992  0.0584  0.0830  0.1677
   57POPC   C3B 1176   2.785   2.258   7.514 -0.0941  0.3865 -0.3569
   57POPC   C4B 1177   2.947   1.982   7.241  0.0055 -0.1531 -0.1799
   58POPC   NC3 1178   4.636   6.354   9.036  0.0352  0.0144 -0.3891
   58POPC   PO4 1179   5.009   6.041   8.990 -0.2600  0.0406  0.0495
   58POPC   GL1 1180   4.710   6.089   8.639 -0.5351 -0.1176 -0.0033
   58POPC   GL2 1181   4.672   6.321   8.538 -0.0223 -0.4462  0.1634
   58POPC   C1A 1182   4.543   5.848   8.286 -0.0070  0.1186  0.3259
   58POPC   D2A 1183   4.529   5.884   7.841  0.1928 -0.1335  0.0939
   58POPC   C3A 1184   4.250   5.830   7.552  0.1115 -0.0257 -0.1591
   58POPC   C4A 1185   3.850   5.811   7.506 -0.1017  0.1183 -0.2598
   58POPC   C1B 1186   4.593   6.338   8.102  0.1847  0.2609 -0.4430
   58POPC   C2B 1187   4.363   6.321   7.709  0.3027  0.3375  0.1768
   58POPC   C3B 1188   4.076   6.274   7.347 -0.0201  0.0899  0.1821
   58POPC   C4B 1189   3.666   6.290   7.137  0.0490  0.2002 -0.1395
   59POPC   NC3 1190  10.219   8.049   9.882 -0.1905  0.0710 -0.2036
   59POPC   PO4 1191  10.094   7.738   9.619  0.2065  0.0703 -0.2101
   59POPC   GL1 1192  10.115   7.375   9.405 -0.3039  0.0288 -0.0057
   59POPC   GL2 1193  10.434   7.362   9.439 -0.0215  0.1559  0.1072
   59POPC   C1A 1194  10.012   6.990   9.113  0.2840  0.1745  0.1865
   59POPC   D2A 1195   9.683   6.652   9.012 -0.0782  0.0911  0.1164
   59POPC   C3A 1196   9.773   6.303   8.963 -0.0310  0.2856  0.2512
   59POPC   C4A 1197   9.891   5.808   8.890 -0.2677 -0.3061 -0.1740
   59POPC   C1B 1198  10.880   7.383   9.283 -0.2938  0.2952 -0.1043
   59POPC   C2B 1199  11.050   7.374   8.899  0.4152 -0.1597 -0.3291
   59POPC   C3B 1200  10.992   7.296   8.559  0.0589  0.1867  0.0473
   59POPC   C4B 1201  11.102   7.578   8.282 -0.2812  0.1458 -0.1353
   60POPC   NC3 1202   1.017   2.394   9.041  0.6135  0.0134  0.2057
   60POPC   PO4 1203   0.748   2.030   9.040  0.1313 -0.0758 -0.1345
   60POPC   GL1 1204   0.921   2.012   8.613 -0.0694  0.3827 -0.1909
   60POPC   GL2 1205   0.870   2.200   8.454  0.0246 -0.1756 -0.1219
   60POPC   C1A 1206   0.892   1.835   8.163  0.0224  0.0056 -0.1944
   60POPC   D2A 1207   0.985   1.499   7.818 -0.1063 -0.1296 -0.1110
   60POPC   C3A 1208   0.691   1.156   7.971  0.4311  0.1264  0.0790
   60POPC   C4A 1209   0.403   0.708   7.881  0.1119  0.1144 -0.2181
   60POPC   C1B 1210   0.453   2.400   8.531 -0.1766  0.1450 -0.1135
   60POPC   C2B 1211   0.288   2.839   8.381  0.0226  0.0870  0.0617
   60POPC   C3B 1212   0.095   2.906   7.941  0.3350  0.0070  0.2953
   60POPC   C4B 1213  -0.171   2.810   7.613 -0.1833  0.0341  0.1355
   61POPC   NC3 1214   4.128   5.809   9.550  0.2216 -0.1050 -0.4688
   61POPC   PO4 1215   3.990   6.040   9.215 -0.2430 -0.0762  0.2455
   61POPC   GL1 1216   3.907   6.254   8.823 -0.1068  0.1637 -0.1735
   61POPC   GL2 1217   4.193   6.300   8.721 -0.2522  0.3481 -0.0912
   61POPC   C1A 1218   3.585   6.533   8.605  0.2224 -0.1896 -0.0370
   61POPC   D2A 1219   3.212   6.521   8.388  0.0660 -0.0856  0.1485
   61POPC   C3A 1220   2.754   6.542   8.462 -0.2147  0.3003 -0.0622
   61POPC   C4A 1221   2.409   6.507   8.322  0.3450 -0.0917 -0.0377
   61POPC   C1B 1222   4.142   6.137   8.311  0.1055 -0.0527 -0.0442
   61POPC   C2B 1223   3.874   6.247   7.842  0.1737  0.2540  0.0909
   61POPC   C3B 1224   3.514   6.162   7.615 -0.1643 -0.1150 -0.2932
   61POPC   C4B 1225   3.183   6.292   7.409  0.0975  0.1742 -0.0944
   62POPC   NC3 1226   5.900   0.967   8.739 -0.0339  0.1292 -0.0203
   62POPC   PO4 1227   5.736   0.567   8.433 -0.0516  0.2211  0.0883
   62POPC   GL1 1228   6.052   0.270   8.237  0.0090 -0.0833  0.1265
   62POPC   GL2 1229   6.086  -0.063   8.168  0.1955  0.4701  0.2527
   62POPC   C1A 1230   6.248   0.242   7.817 -0.2487 -0.0845  0.3392
   62POPC   D2A 1231   6.100   0.146   7.400  0.0335  0.1099  0.1133
   62POPC   C3A 1232   5.762  -0.061   7.351 -0.1295  0.0945  0.2938
   62POPC   C4A 1233   5.715  -0.542   7.235 -0.1884 -0.0846  0.1926
   62POPC   C1B 1234   6.002  -0.170   7.772 -0.1632 -0.0634  0.1033
   62POPC   C2B 1235   6.135  -0.372   7.492  0.3135  0.0582 -0.1770
   62POPC   C3B 1236   6.146  -0.361   7.016 -0.1900  0.2318  0.0740
   62POPC   C4B 1237   6.529  -0.398   6.824  0.0242 -0.0943  0.0252
   63POPC   NC3 1238   1.524   1.358   9.169  0.2270 -0.0995  0.0484
   63POPC   PO4 1239   1.953   1.408   9.247 -0.2925 -0.0106  0.0390
   63POPC   GL1 1240   1.938   1.366   8.818 -0.2101 -0.1685 -0.0634
   63POPC   GL2 1241   2.212   1.681   8.631  0.2816  0.1737 -0.0860
   63POPC   C1A 1242   2.111   1.257   8.335  0.3643  0.0811  0.2723
   63POPC   D2A 1243   2.530   1.142   8.196 -0.0787 -0.0437 -0.1572
   63POPC   C3A 1244   2.854   1.389   7.927  0.1024  0.3130  0.0551
   63POPC   C4A 1245   2.984   1.779   7.907  0.1685 -0.0621  0.4584
   63POPC   C1B 1246   2.223   1.718   8.243  0.0680 -0.0991  0.1051
   63POPC   C2B 1247   1.940   1.855   7.846  0.4848  0.1142 -0.1565
   63POPC   C3B 1248   2.213   1.868   7.424  0.0140  0.1431  0.4182
   63POPC   C4B 1249   2.528   1.686   7.062  0.2223 -0.1484  0.0862
   64POPC   NC3 1250   4.231   2.579   8.932 -0.0214  0.0596 -0.2571
   64POPC   PO4 1251   4.062   2.382   8.641 -0.1949  0.1256 -0.3949
   64POPC   GL1 1252   4.252   2.642   8.444 -0.1714 -0.0247  0.2200
   64POPC   GL2 1253   4.354   2.405   8.209  0.1592 -0.1931  0.1585
   64POPC   C1A 1254   4.103   2.953   8.190  0.0724  0.0634 -0.0836
   64POPC   D2A 1255   4.009   3.400   7.995 -0.1286 -0.0435  0.1409
   64POPC   C3A 1256   4.036   3.434   7.609 -0.0992 -0.2039 -0.2281
   64POPC   C4A 1257   4.371   3.604   7.300 -0.1989 -0.0183 -0.0031
   64POPC   C1B 1258   4.273   2.635   7.823  0.1107 -0.1282  0.0677
   64POPC   C2B 1259   4.153   2.683   7.433 -0.1858 -0.5070 -0.0533
   64POPC   C3B 1260   4.005   2.778   7.003 -0.3789 -0.0346 -0.3762
   64POPC   C4B 1261   4.004   3.048   6.593 -0.0629  0.0091  0.1497
   65POPC   NC3 1262   7.967   3.671   8.505  0.1546  0.2242 -0.1913
   65POPC   PO4 1263   7.524   3.878   8.507  0.2286  0.0613 -0.1945
   65POPC   GL1 1264   7.582   3.895   8.053 -0.2160  0.3741  0.3319
   65POPC   GL2 1265   7.671   3.561   8.124 -0.1265 -0.1094 -0.0969
   65POPC   C1A 1266   7.955   3.934   7.709 -0.2071  0.0222  0.1074
   65POPC   D2A 1267   8.078   4.164   7.325 -0.0897  0.3050 -0.1693
   65POPC   C3A 1268   8.334   4.467   7.266 -0.1123  0.2360  0.1244
   65POPC   C4A 1269   8.556   4.766   7.061 -0.2527 -0.3909  0.3202
   65POPC   C1B 1270   7.712   3.524   7.721  0.0189 -0.1575 -0.1971
   65POPC   C2B 1271   8.059   3.602   7.323  0.3348  0.0883 -0.1970
   65POPC   C3B 1272   8.172   3.900   6.928  0.0403 -0.1263 -0.0774
   65POPC   C4B 1273   8.193   4.322   6.710 -0.0938 -0.1486  0.3407
   66POPC   NC3 1274   5.380   4.005   8.585  0.1185 -0.1495 -0.0575
   66POPC   PO4 1275   5.216   3.672   8.894  0.1810 -0.0156  0.2821
   66POPC   GL1 1276   5.229   3.480   8.480  0.1920 -0.0664 -0.2008
   66POPC   GL2 1277   4.826   3.455   8.462 -0.2820 -0.0413  0.1743
   66POPC   C1A 1278   5.354   3.557   7.976 -0.1467  0.1779  0.2598
   66POPC   D2A 1279   5.250   3.641   7.510 -0.2645 -0.1834  0.0395
   66POPC   C3A 1280   4.880   3.807   7.357  0.1057  0.1473  0.2585
   66POPC   C4A 1281   4.709   4.153   7.214 -0.0924  0.2755 -0.2282
   66POPC   C1B 1282   4.840   3.782   8.106  0.2388 -0.1365 -0.2213
   66POPC   C2B 1283   5.034   3.959   7.782  0.2320 -0.3524  0.0009
   66POPC   C3B 1284   5.151   4.293   7.473  0.0580  0.2708 -0.0579
   66POPC   C4B 1285   5.306   4.360   7.004  0.1746  0.3850 -0.0838
   67POPC   NC3 1286   7.057   3.717   8.543 -0.0542  0.1241  0.3538
   67POPC   PO4 1287   6.737   3.868   8.902  0.0616  0.2316  0.1301
   67POPC   GL1 1288   6.577   3.712   8.477 -0.0954 -0.1141  0.1595
   67POPC   GL2 1289   6.360   3.658   8.494  0.0194 -0.1801  0.2351
   67POPC   C1A 1290   6.666   3.594   8.018 -0.0619  0.2131 -0.1347
   67POPC   D2A 1291   6.715   3.273   7.726 -0.0884 -0.3934  0.1076
   67POPC   C3A 1292   6.947   2.929   7.951 -0.1128  0.2497  0.0552
   67POPC   C4A 1293   6.887   2.551   8.049  0.0713 -0.0340 -0.1513
   67POPC   C1B 1294   6.135   3.564   8.149 -0.2128 -0.0896  0.2601
   67POPC   C2B 1295   6.257   3.237   7.824 -0.2016 -0.0727 -0.0033
   67POPC   C3B 1296   6.376   3.164   7.357  0.0389 -0.1956  0.0600
   67POPC   C4B 1297   6.156   3.305   6.951 -0.3649 -0.1367 -0.1290
   68POPC   NC3 1298   2.696   5.699  10.309  0.1156 -0.0605  0.2533
   68POPC   PO4 1299   2.588   5.259  10.335 -0.1667  0.4415  0.2099
   68POPC   GL1 1300   2.443   5.210   9.816 -0.1624  0.1462 -0.1704
   68POPC   GL2 1301   2.678   5.021   9.613  0.0734  0.2585 -0.1027
   68POPC   C1A 1302   2.208   4.936   9.556  0.0904 -0.2833  0.3719
   68POPC   D2A 1303   2.116   4.520   9.218 -0.1500 -0.0613 -0.0987
   68POPC   C3A 1304   2.530   4.330   8.986 -0.0283 -0.0235  0.2070
   68POPC   C4A 1305   2.876   4.211   8.632  0.0238 -0.0154  0.0211
   68POPC   C1B 1306   3.015   4.799   9.441  0.0497  0.0432 -0.0566
   68POPC   C2B 1307   3.060   4.522   9.048  0.0506  0.2133 -0.2554
   68POPC   C3B 1308   3.331   4.470   8.812  0.0254 -0.1654  0.2830
   68POPC   C4B 1309   3.465   4.343   8.487  0.0245 -0.1851 -0.1781
   69POPC   NC3 1310  10.401   4.705  10.221  0.0744 -0.2249 -0.1105
   69POPC   PO4 1311  10.430   4.503   9.864  0.3729  0.0452 -0.4852
   69POPC   GL1 1312  10.516   4.594   9.419  0.1230 -0.1171  0.0235
   69POPC   GL2 1313  10.738   4.798   9.383 -0.0778 -0.3024 -0.2010
   69POPC   C1A 1314  10.505   4.739   8.961 -0.1884 -0.0920  0.2120
   69POPC   D2A 1315  10.729   4.732   8.614 -0.0621 -0.0881  0.0411
   69POPC   C3A 1316  10.839   5.083   8.405 -0.0164  0.0104 -0.1923
   69POPC   C4A 1317  10.879   5.391   8.076  0.0540  0.2797  0.2803
   69POPC   C1B 1318  11.047   4.829   9.166 -0.1574 -0.0132  0.1644
   69POPC   C2B 1319  11.339   5.058   8.831  0.1005  0.2980  0.2303
   69POPC   C3B 1320  11.317   4.949   8.458  0.2064  0.3707  0.2465
   69POPC   C4B 1321  11.580   4.745   8.111  0.0281  0.0180 -0.0131
   70POPC   NC3 1322   1.871   2.329   9.107  0.2149 -0.0656  0.1890
   70POPC   PO4 1323   1.804   2.530   8.703  0.1325  0.2793  0.0873
   70POPC   GL1 1324   2.069   2.647   8.438  0.0020  0.2633  0.1439
   70POPC   GL2 1325   2.172   2.891   8.582 -0.3364  0.0519 -0.0335
   70POPC   C1A 1326   1.980   2.592   7.973 -0.1116 -0.2130 -0.0457
   70POPC   D2A 1327   1.836   2.531   7.486 -0.2064 -0.1918  0.0658
   70POPC   C3A 1328   1.413   2.540   7.506  0.1013  0.1472  0.1555
   70POPC   C4A 1329   1.230   2.854   7.329 -0.0318 -0.1063  0.2990
   70POPC   C1B 1330   2.203   3.043   8.197 -0.1650  0.1215 -0.3263
   70POPC   C2B 1331   2.190   2.920   7.692 -0.1480 -0.0295  0.3373
   70POPC   C3B 1332   2.245   2.895   7.264  0.1521 -0.1558  0.1411
   70POPC   C4B 1333   2.203   2.821   6.836  0.1626 -0.0536 -0.2867
   71POPC   NC3 1334   7.099   6.283   8.726 -0.1006  0.1699  0.0221
   71POPC   PO4 1335   7.622   6.141   8.913  0.2962  0.1723 -0.0870
   71POPC   GL1 1336   7.955   6.160   8.630 -0.1286 -0.2272 -0.1573
   71POPC   GL2 1337   7.953   6.359   8.400 -0.1165 -0.0620  0.0068
   71POPC   C1A 1338   8.133   5.954   8.279 -0.2864  0.0901  0.0992
   71POPC   D2A 1339   8.206   6.098   7.822 -0.1907 -0.2933  0.0184
   71POPC   C3A 1340   8.048   5.934   7.623  0.1619 -0.1877 -0.1614
   71POPC   C4A 1341   7.831   6.041   7.340  0.1251 -0.1080  0.3753
   71POPC   C1B 1342   7.934   6.484   7.968  0.0819 -0.1162 -0.3401
   71POPC   C2B 1343   7.773   6.602   7.585 -0.2633  0.1711  0.2443
   71POPC   C3B 1344   7.910   6.740   7.157 -0.0297  0.0579  0.2688
   71POPC   C4B 1345   7.860   6.798   6.700 -0.2081  0.0450  0.0918
   72POPC   NC3 1346   6.550   4.776   8.657 -0.0113 -0.1672 -0.0104
   72POPC   PO4 1347   6.231   4.523   8.660 -0.0035 -0.1454  0.1586
   72POPC   GL1 1348   6.196   4.607   8.249  0.0759  0.3158 -0.1227
   72POPC   GL2 1349   6.411   4.501   8.101  0.0606 -0.1908 -0.1060
   72POPC   C1A 1350   6.018   4.849   7.891 -0.0060  0.0439 -0.0823
   72POPC   D2A 1351   6.044   4.875   7.538  0.2352  0.2033  0.0751
   72POPC   C3A 1352   5.851   5.153   7.257  0.0547  0.0957  0.1407
   72POPC   C4A 1353   5.927   5.413   7.038 -0.0115 -0.0096  0.1729
   72POPC   C1B 1354   6.261   4.381   7.796 -0.1113  0.0978  0.3290
   72POPC   C2B 1355   6.118   4.192   7.436  0.1020  0.1978  0.3515
   72POPC   C3B 1356   6.040   4.220   6.970 -0.5335  0.0703  0.2631
   72POPC   C4B 1357   6.274   4.174   6.605  0.2813 -0.1397 -0.0495
   73POPC   NC3 1358   6.371   8.330   8.940 -0.3023 -0.1035 -0.1501
   73POPC   PO4 1359   6.502   7.893   8.675  0.1866  0.2195  0.3451
   73POPC   GL1 1360   6.428   7.654   8.332 -0.0882  0.2051 -0.0798
   73POPC   GL2 1361   6.237   7.424   8.322  0.0738  0.2624 -0.2623
   73POPC   C1A 1362   6.481   7.750   7.862  0.0465 -0.2105 -0.3528
   73POPC   D2A 1363   6.730   7.715   7.480 -0.1173 -0.1883  0.2535
   73POPC   C3A 1364   6.940   8.045   7.185 -0.0669 -0.1830 -0.0525
   73POPC   C4A 1365   7.341   8.094   6.907 -0.1030 -0.1078  0.1392
   73POPC   C1B 1366   6.015   7.406   8.018 -0.0197  0.2140 -0.1337
   73POPC   C2B 1367   5.839   7.254   7.621 -0.1882 -0.0924  0.0079
   73POPC   C3B 1368   5.417   6.990   7.508 -0.1587  0.1272 -0.0690
   73POPC   C4B 1369   4.958   7.024   7.534  0.0566 -0.1055 -0.3912
   74POPC   NC3 1370   4.283   4.281   9.953  0.3483  0.2585 -0.1239
   74POPC   PO4 1371   4.067   4.141   9.455  0.1098  0.0705 -0.1077
   74POPC   GL1 1372   3.788   4.377   9.185  0.0231  0.1467  0.2899
   74POPC   GL2 1373   3.843   4.509   8.838 -0.0334  0.1542 -0.3641
   74POPC   C1A 1374   3.532   4.763   9.204  0.1765 -0.1001 -0.2515
   74POPC   D2A 1375   3.344   5.072   9.018 -0.1098 -0.0808  0.3397
   74POPC   C3A 1376   3.001   5.003   8.761 -0.1467 -0.1386 -0.2044
   74POPC   C4A 1377   2.963   4.674   8.586  0.0506  0.0484  0.0989
   74POPC   C1B 1378   3.627   4.889   8.677  0.0437  0.2293  0.0536
   74POPC   C2B 1379   3.407   5.329   8.535  0.0606 -0.1785  0.0674
   74POPC   C3B 1380   3.207   5.595   8.313  0.0317 -0.2128 -0.1256
   74POPC   C4B 1381   2.712   5.634   8.115  0.3565 -0.0976 -0.3611
   75POPC   NC3 1382   2.874  10.304   9.735  0.0078  0.0507  0.1092
   75POPC   PO4 1383   2.803  10.214   9.328  0.1068  0.0357  0.0987
   75POPC   GL1 1384   2.855  10.177   8.832 -0.0431  0.1539 -0.0552
   75POPC   GL2 1385   2.985  10.381   8.639  0.0229 -0.1603  0.2402
   75POPC   C1A 1386   2.568  10.046   8.386  0.2153 -0.3730 -0.1451
   75POPC   D2A 1387   2.361   9.983   8.003  0.0443 -0.6772 -0.0812
   75POPC   C3A 1388   2.572   9.945   7.644  0.1415  0.0486 -0.3855
   75POPC   C4A 1389   2.888  10.050   7.268 -0.0220  0.2666 -0.3342
   75POPC   C1B 1390   3.020  10.659   8.271  0.0914 -0.0979  0.2027
   75POPC   C2B 1391   2.898  10.770   7.819  0.1366 -0.1431 -0.2378
   75POPC   C3B 1392   2.545  10.901   7.592 -0.0802 -0.0352 -0.4116
   75POPC   C4B 1393   2.229  11.191   7.331 -0.0440 -0.3170  0.0664
   76POPC   NC3 1394   7.754   4.246   9.202  0.0098 -0.0740 -0.1012
   76POPC   PO4 1395   7.847   4.237   8.690  0.1347 -0.0945 -0.0052
   76POPC   GL1 1396   7.986   4.351   8.364 -0.4751 -0.2684  0.1316
   76POPC   GL2 1397   8.292   4.567   8.378 -0.1948  0.0097 -0.1744
   76POPC   C1A 1398   8.049   4.401   7.893 -0.0896  0.0878 -0.0004
   76POPC   D2A 1399   7.840   4.556   7.558  0.2496  0.1716 -0.1975
   76POPC   C3A 1400   7.363   4.646   7.472 -0.2156  0.3469 -0.1942
   76POPC   C4A 1401   6.949   4.871   7.411 -0.1655  0.1577  0.0751
   76POPC   C1B 1402   8.529   4.683   8.064 -0.1743  0.4987 -0.0305
   76POPC   C2B 1403   8.914   4.821   7.942  0.1406  0.5883  0.0293
   76POPC   C3B 1404   9.257   4.748   7.634  0.0433  0.0905  0.1286
   76POPC   C4B 1405   9.514   4.626   7.332 -0.1320  0.0883  0.2844
   77POPC   NC3 1406   3.688   8.301   8.920 -0.1421  0.0111  0.0176
   77POPC   PO4 1407   4.059   8.116   8.671 -0.0543  0.2021 -0.1543
   77POPC   GL1 1408   3.887   8.115   8.301  0.1411  0.0621  0.1510
   77POPC   GL2 1409   3.943   8.322   8.084  0.1709 -0.3025 -0.1935
   77POPC   C1A 1410   3.599   7.924   8.036 -0.1056 -0.1488 -0.0329
   77POPC   D2A 1411   3.265   7.884   7.773  0.1743  0.1148 -0.0486
   77POPC   C3A 1412   2.856   7.912   7.570 -0.0200  0.1448  0.0966
   77POPC   C4A 1413   2.466   7.608   7.495  0.0426  0.0041  0.0458
   77POPC   C1B 1414   3.853   8.165   7.693  0.0402 -0.2170  0.1121
   77POPC   C2B 1415   3.837   8.036   7.144  0.2453 -0.1198 -0.0874
   77POPC   C3B 1416   4.207   7.927   6.904  0.1528 -0.0985  0.3235
   77POPC   C4B 1417   4.386   7.971   6.529  0.1337  0.1583 -0.2526
   78POPC   NC3 1418   0.784   5.317  10.418 -0.0235  0.1979  0.0868
   78POPC   PO4 1419   0.411   5.485  10.459 -0.0467 -0.1426  0.0983
   78POPC   GL1 1420   0.602   5.637  10.085 -0.4664  0.1195  0.3644
   78POPC   GL2 1421   0.562   5.386   9.900  0.0111  0.2187 -0.1522
   78POPC   C1A 1422   0.597   6.003   9.912 -0.0968  0.2722 -0.2053
   78POPC   D2A 1423   0.552   6.347   9.691  0.1522  0.3969 -0.4691
   78POPC   C3A 1424   0.322   6.353   9.393  0.1692 -0.1013 -0.0491
   78POPC   C4A 1425   0.199   6.405   8.953 -0.3417 -0.1040  0.0175
   78POPC   C1B 1426   0.713   5.583   9.593 -0.0720 -0.0618  0.0823
   78POPC   C2B 1427   1.020   5.776   9.306 -0.2802 -0.1779  0.3832
   78POPC   C3B 1428   1.439   5.654   9.213 -0.0727 -0.2052 -0.0413
   78POPC   C4B 1429   1.737   5.438   8.922 -0.0921 -0.0457  0.2466
   79POPC   NC3 1430   0.023   8.935   9.885 -0.0888 -0.0131  0.0190
   79POPC   PO4 1431   0.317   8.684   9.990  0.0534 -0.0217 -0.0040
   79POPC   GL1 1432   0.486   8.456   9.655  0.0138  0.4029 -0.2079
   79POPC   GL2 1433   0.877   8.381   9.593 -0.0363  0.0595 -0.1592
   79POPC   C1A 1434   0.466   8.311   9.229  0.0735 -0.1858  0.1709
   79POPC   D2A 1435   0.538   8.109   8.842 -0.1857  0.1860  0.0491
   79POPC   C3A 1436   0.381   7.923   8.490 -0.2493  0.0289  0.0063
   79POPC   C4A 1437   0.252   7.887   8.015  0.0271 -0.0263 -0.1548
   79POPC   C1B 1438   0.973   8.208   9.157  0.3539  0.0417  0.0923
   79POPC   C2B 1439   0.918   8.454   8.775  0.1093  0.0416  0.2141
   79POPC   C3B 1440   0.942   8.363   8.426  0.2369  0.1097  0.3504
   79POPC   C4B 1441   0.783   8.001   8.140 -0.1824 -0.0223 -0.0921
   80POPC   NC3 1442   6.272   2.553   8.639  0.0279  0.2699  0.2397
   80POPC   PO4 1443   6.245   2.060   8.615  0.1808 -0.1673  0.1611
   80POPC   GL1 1444   6.059   2.336   8.210  0.2043 -0.0937  0.1667
   80POPC   GL2 1445   6.000   2.690   8.253 -0.1718 -0.2936  0.1979
   80POPC   C1A 1446   5.932   2.191   7.759 -0.1086 -0.3193 -0.0078
   80POPC   D2A 1447   6.111   2.234   7.447  0.0960 -0.4664  0.2374
   80POPC   C3A 1448   5.819   2.423   7.096  0.0042  0.1425  0.2299
   80POPC   C4A 1449   6.072   2.376   6.734  0.2639  0.2669 -0.1411
   80POPC   C1B 1450   5.969   2.821   7.784  0.2433  0.0189  0.1900
   80POPC   C2B 1451   5.829   2.929   7.359  0.0349  0.2596 -0.1218
   80POPC   C3B 1452   5.848   2.937   6.855  0.0722  0.1961  0.1830
   80POPC   C4B 1453   6.056   3.058   6.448  0.1539  0.2744  0.4435
   81POPC   NC3 1454   9.752   9.179   8.927  0.0730 -0.2286 -0.1676
   81POPC   PO4 1455   9.510   8.827   8.852 -0.0858  0.0639  0.0410
   81POPC   GL1 1456   9.543   8.951   8.372  0.0307 -0.0325  0.1491
   81POPC   GL2 1457   9.243   9.150   8.323  0.2008  0.2236 -0.0477
   81POPC   C1A 1458   9.835   8.846   8.146  0.1538  0.1629 -0.1754
   81POPC   D2A 1459  10.089   8.540   7.795 -0.1996 -0.0378 -0.0007
   81POPC   C3A 1460  10.580   8.406   7.754 -0.1564 -0.0135  0.0364
   81POPC   C4A 1461  10.967   8.410   8.078  0.4371 -0.2477  0.1297
   81POPC   C1B 1462   9.436   9.070   7.932  0.0462 -0.1191 -0.2225
   81POPC   C2B 1463   9.444   9.140   7.571 -0.1969 -0.0379 -0.0711
   81POPC   C3B 1464   9.226   9.215   7.319 -0.2155  0.0350 -0.3004
   81POPC   C4B 1465   9.431   9.393   6.958 -0.0415  0.1082  0.2851
   82POPC   NC3 1466   0.059   1.634   9.273  0.4050  0.0037 -0.4184
   82POPC   PO4 1467   0.169   1.374   8.956  0.2301  0.0312 -0.1014
   82POPC   GL1 1468   0.212   1.293   8.557 -0.0364 -0.0452 -0.0446
   82POPC   GL2 1469   0.591   1.227   8.536 -0.3310 -0.2413  0.1525
   82POPC   C1A 1470   0.205   1.153   8.143 -0.2569  0.1465 -0.1451
   82POPC   D2A 1471   0.166   1.114   7.646 -0.0874  0.0930  0.0005
   82POPC   C3A 1472  -0.151   1.397   7.448 -0.0345 -0.0561 -0.3163
   82POPC   C4A 1473  -0.572   1.374   7.272  0.1451 -0.0895  0.0755
   82POPC   C1B 1474   0.482   1.584   8.230 -0.0752  0.3830  0.2157
   82POPC   C2B 1475   0.310   1.975   8.184  0.0970  0.1356 -0.3492
   82POPC   C3B 1476  -0.096   2.092   8.306 -0.2600  0.1134  0.0691
   82POPC   C4B 1477  -0.268   1.745   8.435 -0.0765  0.2117  0.1128
   83POPC   NC3 1478   1.520   7.472  10.266 -0.2910  0.1848 -0.2978
   83POPC   PO4 1479   1.868   7.651  10.047  0.1268  0.1085  0.1272
   83POPC   GL1 1480   1.470   7.748   9.838  0.2242 -0.1752  0.3127
   83POPC   GL2 1481   1.232   8.018   9.866 -0.0729  0.3474  0.0550
   83POPC   C1A 1482   1.387   7.529   9.590 -0.4257  0.3295  0.7191
   83POPC   D2A 1483   1.527   7.084   9.612 -0.1258 -0.2412 -0.2261
   83POPC   C3A 1484   1.945   6.968   9.509 -0.0744 -0.1014  0.0339
   83POPC   C4A 1485   2.234   7.157   9.170 -0.3113  0.1656 -0.2618
   83POPC   C1B 1486   1.098   7.913   9.553 -0.0653 -0.0538  0.1455
   83POPC   C2B 1487   1.293   7.826   9.089  0.0468  0.1051  0.0265
   83POPC   C3B 1488   1.462   7.679   8.804 -0.0617 -0.0458  0.1166
   83POPC   C4B 1489   1.500   7.913   8.382  0.0145 -0.1163 -0.0548
   84POPC   NC3 1490   5.029   1.181   8.394 -0.0668  0.0791 -0.0299
   84POPC   PO4 1491   4.646   1.211   8.612 -0.0982  0.0811  0.1622
   84POPC   GL1 1492   4.503   1.023   8.218 -0.1123  0.2032  0.4264
   84POPC   GL2 1493   4.279   0.776   8.128  0.0952 -0.1290  0.1129
   84POPC   C1A 1494   4.718   1.015   7.802  0.0667 -0.0168  0.3017
   84POPC   D2A 1495   4.740   0.770   7.395 -0.0262  0.0577  0.1192
   84POPC   C3A 1496   4.983   0.421   7.371  0.1285 -0.2291 -0.0680
   84POPC   C4A 1497   5.248   0.017   7.282  0.3476 -0.3226 -0.0672
   84POPC   C1B 1498   4.017   1.045   7.821  0.1067 -0.3741 -0.0888
   84POPC   C2B 1499   3.739   1.296   7.619 -0.1370  0.2392  0.2247
   84POPC   C3B 1500   3.961   1.515   7.494  0.1371  0.2038  0.0005
   84POPC   C4B 1501   4.391   1.658   7.405 -0.0641  0.0141  0.1622
   85POPC   NC3 1502   1.010   3.697   9.409 -0.0294  0.3371 -0.5359
   85POPC   PO4 1503   1.534   3.563   9.350  0.0303 -0.0715 -0.0283
   85POPC   GL1 1504   1.722   3.633   8.948  0.3100 -0.1964  0.4387
   85POPC   GL2 1505   1.981   3.453   8.676  0.1006  0.1059 -0.4258
   85POPC   C1A 1506   1.586   3.928   8.601  0.2117 -0.3918  0.0722
   85POPC   D2A 1507   1.530   3.922   8.116 -0.2594 -0.1046 -0.3491
   85POPC   C3A 1508   1.818   3.931   7.804  0.2560 -0.2660  0.0881
   85POPC   C4A 1509   2.286   3.850   7.858 -0.0344  0.0167  0.1564
   85POPC   C1B 1510   2.311   3.544   8.286  0.1475  0.0685 -0.2035
   85POPC   C2B 1511   2.445   3.319   7.875 -0.0545 -0.0909  0.0870
   85POPC   C3B 1512   2.813   3.476   7.620 -0.2067 -0.2231 -0.2422
   85POPC   C4B 1513   3.073   3.750   7.759 -0.1378  0.0809  0.1374
   86POPC   NC3 1514   4.946   9.555   9.153  0.1788 -0.2795 -0.3033
   86POPC   PO4 1515   5.186   9.510   8.779  0.1401 -0.0273  0.2034
   86POPC   GL1 1516   5.409   9.443   8.378 -0.0886  0.0162 -0.1217
   86POPC   GL2 1517   5.214   9.269   8.082  0.1696 -0.0952  0.2368
   86POPC   C1A 1518   5.700   9.494   8.210 -0.0852  0.2140  0.1416
   86POPC   D2A 1519   6.064   9.774   7.989  0.4324  0.0620  0.0484
   86POPC   C3A 1520   6.454   9.790   7.706 -0.0212  0.4991  0.2163
   86POPC   C4A 1521   6.599   9.730   7.331  0.1453  0.1286  0.0317
   86POPC   C1B 1522   5.546   9.274   7.794  0.2644 -0.0461 -0.1659
   86POPC   C2B 1523   5.459   9.262   7.410  0.1483 -0.0015 -0.1662
   86POPC   C3B 1524   5.612   9.217   7.075  0.2259 -0.1528 -0.1784
   86POPC   C4B 1525   5.637   9.259   6.666 -0.0262 -0.0372  0.4754
   87POPC   NC3 1526   4.548   5.199   9.551 -0.1162 -0.1759  0.0477
   87POPC   PO4 1527   4.327   4.889   9.153 -0.0668 -0.0397  0.2876
   87POPC   GL1 1528   4.128   4.987   8.753  0.1323 -0.0954  0.1478
   87POPC   GL2 1529   3.844   5.222   8.950 -0.2679 -0.0269  0.1054
   87POPC   C1A 1530   4.228   4.920   8.345  0.0844  0.1742  0.0935
   87POPC   D2A 1531   4.192   4.901   7.856  0.2613  0.0681  0.0422
   87POPC   C3A 1532   3.906   5.240   7.604  0.0927 -0.3819 -0.0068
   87POPC   C4A 1533   3.460   5.423   7.417  0.2538 -0.1163 -0.1674
   87POPC   C1B 1534   3.764   5.587   8.742  0.0772 -0.1427 -0.1078
   87POPC   C2B 1535   3.763   5.806   8.486 -0.2093  0.0594 -0.0294
   87POPC   C3B 1536   3.573   6.167   8.222 -0.2440 -0.0475  0.0028
   87POPC   C4B 1537   3.694   6.657   8.129 -0.4423 -0.2038  0.0678
   88POPC   NC3 1538   0.162   8.347  10.299  0.1525 -0.1723  0.1299
   88POPC   PO4 1539   0.308   8.023   9.921 -0.2008  0.2428  0.1709
   88POPC   GL1 1540   0.556   7.702   9.695 -0.4103  0.0509 -0.1980
   88POPC   GL2 1541   0.609   7.866   9.426 -0.0513 -0.1222 -0.1306
   88POPC   C1A 1542   0.732   7.316   9.707  0.1429 -0.2847 -0.5246
   88POPC   D2A 1543   0.559   6.947   9.552  0.0843  0.2159  0.2037
   88POPC   C3A 1544   0.911   6.817   9.540 -0.1866 -0.2909 -0.3441
   88POPC   C4A 1545   1.165   6.765   9.810  0.1474  0.0420  0.0469
   88POPC   C1B 1546   0.888   7.604   9.229  0.2007  0.0262 -0.2979
   88POPC   C2B 1547   1.011   7.197   9.219 -0.0060 -0.1374 -0.0093
   88POPC   C3B 1548   0.976   7.098   8.810 -0.5427 -0.1012 -0.3579
   88POPC   C4B 1549   0.908   7.078   8.361  0.0207 -0.0397 -0.0566
   89POPC   NC3 1550   7.848   1.125   8.362  0.0633 -0.0465 -0.0099
   89POPC   PO4 1551   7.741   1.433   8.660 -0.0217  0.3343  0.0963
   89POPC   GL1 1552   7.641   1.596   8.179 -0.0861  0.0465 -0.1983
   89POPC   GL2 1553   7.300   1.631   8.093 -0.0376 -0.3925  0.2571
   89POPC   C1A 1554   7.784   1.723   7.759 -0.3407  0.0881  0.1264
   89POPC   D2A 1555   7.899   1.892   7.387  0.1082 -0.1168  0.0421
   89POPC   C3A 1556   7.927   1.727   7.050  0.0922  0.0858 -0.1939
   89POPC   C4A 1557   7.851   1.652   6.640 -0.0570 -0.2332  0.1804
   89POPC   C1B 1558   7.243   1.417   7.771 -0.1178  0.0472  0.0618
   89POPC   C2B 1559   7.260   1.436   7.352  0.1667 -0.2949  0.0901
   89POPC   C3B 1560   6.965   1.148   7.165 -0.1697  0.3974  0.3810
   89POPC   C4B 1561   6.723   0.850   7.151  0.3146  0.0217 -0.1521
   90POPC   NC3 1562   0.780   9.749   9.519  0.0863 -0.0359 -0.0260
   90POPC   PO4 1563   0.396   9.925   9.518 -0.0412  0.1785  0.0101
   90POPC   GL1 1564   0.504   9.937   9.132  0.0651 -0.0690  0.2010
   90POPC   GL2 1565   0.675   9.647   9.001  0.1073  0.0110 -0.1995
   90POPC   C1A 1566   0.342  10.094   8.776 -0.0153  0.2989 -0.3119
   90POPC   D2A 1567   0.136  10.283   8.527  0.0578  0.4691 -0.0753
   90POPC   C3A 1568  -0.039  10.144   8.049 -0.0978  0.1053 -0.0847
   90POPC   C4A 1569  -0.255   9.789   7.804  0.1683 -0.1974 -0.0511
   90POPC   C1B 1570   0.638   9.603   8.670 -0.0760  0.1567 -0.3660
   90POPC   C2B 1571   0.337   9.686   8.419  0.1704 -0.0538 -0.2653
   90POPC   C3B 1572   0.229   9.664   8.057 -0.1120  0.0514  0.2204
   90POPC   C4B 1573   0.185   9.585   7.576 -0.0716  0.0003  0.2925
   91POPC   NC3 1574   2.257   0.113   9.184  0.3060  0.3454 -0.0701
   91POPC   PO4 1575   1.839   0.038   9.358  0.2804  0.0851 -0.0743
   91POPC   GL1 1576   1.789   0.001   8.881  0.2596 -0.1394  0.1059
   91POPC   GL2 1577   2.012  -0.039   8.749  0.1413 -0.2743  0.2048
   91POPC   C1A 1578   1.593  -0.330   8.618 -0.0342 -0.6429 -0.3343
   91POPC   D2A 1579   1.428  -0.610   8.298 -0.0290  0.0425  0.1665
   91POPC   C3A 1580   1.579  -0.647   7.849  0.1487  0.0179 -0.0275
   91POPC   C4A 1581   1.593  -0.900   7.495 -0.0915 -0.0085  0.2848
   91POPC   C1B 1582   2.084  -0.259   8.431  0.1860 -0.0269  0.0898
   91POPC   C2B 1583   1.877  -0.573   8.250 -0.0258  0.0440  0.2136
   91POPC   C3B 1584   1.704  -1.093   8.342 -0.1494 -0.0017  0.0613
   91POPC   C4B 1585   1.577  -1.429   8.390  0.0824  0.0989  0.0390
   92POPC   NC3 1586   6.884   0.900   8.564 -0.2846  0.3006  0.2960
   92POPC   PO4 1587   7.317   0.633   8.543 -0.0795  0.0064 -0.2298
   92POPC   GL1 1588   7.205   0.685   8.137  0.1006  0.2262 -0.0895
   92POPC   GL2 1589   7.415   0.953   7.961  0.3115 -0.2257 -0.1111
   92POPC   C1A 1590   7.235   0.457   7.799  0.0977 -0.0062  0.0904
   92POPC   D2A 1591   7.507   0.221   7.486  0.1033 -0.0801 -0.0589
   92POPC   C3A 1592   7.432   0.300   6.989 -0.1525 -0.0923 -0.0106
   92POPC   C4A 1593   7.349   0.519   6.617 -0.2702 -0.4206  0.2390
   92POPC   C1B 1594   7.764   1.171   7.776  0.0866  0.0175  0.2468
   92POPC   C2B 1595   7.826   1.388   7.373  0.3189 -0.0003 -0.1521
   92POPC   C3B 1596   7.887   1.220   7.031 -0.1859 -0.2463  0.1877
   92POPC   C4B 1597   7.974   1.201   6.653  0.1300  0.1161 -0.0591
   93POPC   NC3 1598   3.293   2.032   9.121  0.2894 -0.3893 -0.0703
   93POPC   PO4 1599   3.118   2.380   8.841 -0.0145 -0.2043 -0.0133
   93POPC   GL1 1600   2.895   2.442   8.513 -0.3119  0.3569 -0.3505
   93POPC   GL2 1601   2.576   2.491   8.460  0.0197  0.0137 -0.0725
   93POPC   C1A 1602   3.032   2.702   8.154  0.0190 -0.1081 -0.2163
   93POPC   D2A 1603   3.157   2.698   7.769 -0.1007  0.0123  0.2231
   93POPC   C3A 1604   3.154   2.948   7.383 -0.2180  0.0230  0.4323
   93POPC   C4A 1605   2.709   3.154   7.223  0.1530  0.1374 -0.1893
   93POPC   C1B 1606   2.551   2.670   8.036  0.3035 -0.0281 -0.2575
   93POPC   C2B 1607   2.632   2.761   7.562 -0.1857  0.2355  0.0392
   93POPC   C3B 1608   2.771   2.602   7.201  0.2540  0.0226  0.0444
   93POPC   C4B 1609   2.742   2.736   6.736  0.2041  0.0815 -0.1677
   94POPC   NC3 1610   2.030   8.989   9.452 -0.0550  0.1670 -0.3092
   94POPC   PO4 1611   1.735   8.785   9.697 -0.1121 -0.0292  0.1448
   94POPC   GL1 1612   1.566   8.908   9.262  0.3288 -0.1016  0.2953
   94POPC   GL2 1613   1.326   8.606   9.257 -0.0617 -0.2168  0.1324
   94POPC   C1A 1614   1.311   8.769   8.791 -0.1978  0.1190 -0.3231
   94POPC   D2A 1615   1.110   8.863   8.391  0.0043 -0.2535 -0.0495
   94POPC   C3A 1616   1.276   8.944   7.938  0.1043 -0.2363  0.2622
   94POPC   C4A 1617   1.596   9.125   7.779 -0.1742 -0.2267  0.0884
   94POPC   C1B 1618   1.482   8.354   8.996  0.2995  0.1391  0.0766
   94POPC   C2B 1619   1.383   8.279   8.657 -0.0061 -0.0481  0.0714
   94POPC   C3B 1620   1.415   8.497   8.281 -0.0685 -0.0589 -0.1002
   94POPC   C4B 1621   1.808   8.607   8.123 -0.3581  0.1926  0.0639
   95POPC   NC3 1622   8.739   7.682   8.659 -0.2221 -0.4531  0.0477
   95POPC   PO4 1623   8.258   7.798   8.697 -0.0463  0.1799  0.2984
   95POPC   GL1 1624   8.334   7.668   8.282 -0.2308  0.1395 -0.0494
   95POPC   GL2 1625   8.142   7.428   8.162  0.2122  0.3001  0.2677
   95POPC   C1A 1626   8.176   7.883   7.927  0.1521  0.1097 -0.0260
   95POPC   D2A 1627   8.186   8.159   7.531 -0.0218 -0.2599  0.0530
   95POPC   C3A 1628   8.003   8.097   7.107  0.0064  0.0175  0.0504
   95POPC   C4A 1629   7.831   8.428   6.759 -0.1146  0.0456  0.0291
   95POPC   C1B 1630   8.170   7.434   7.741  0.0982 -0.5005 -0.0322
   95POPC   C2B 1631   8.297   7.255   7.419 -0.3663  0.3361 -0.0218
   95POPC   C3B 1632   8.379   6.850   7.101  0.0227 -0.1057  0.0406
   95POPC   C4B 1633   8.284   6.569   6.875 -0.1950  0.2344 -0.0774
   96POPC   NC3 1634   7.991   7.083   9.223 -0.1548 -0.1974  0.2616
   96POPC   PO4 1635   8.079   6.857   9.039 -0.1490  0.1446  0.2710
   96POPC   GL1 1636   7.989   6.807   8.629  0.0851  0.0995  0.0937
   96POPC   GL2 1637   7.733   7.005   8.471  0.0987 -0.1998 -0.2380
   96POPC   C1A 1638   8.220   6.880   8.243  0.0032 -0.2436  0.2985
   96POPC   D2A 1639   8.458   6.982   7.952 -0.0149  0.2355 -0.0070
   96POPC   C3A 1640   8.332   6.749   7.598  0.2875  0.1844  0.2733
   96POPC   C4A 1641   8.226   6.316   7.339 -0.2469 -0.4677 -0.0452
   96POPC   C1B 1642   7.678   7.083   8.055  0.0098  0.4158 -0.0394
   96POPC   C2B 1643   7.799   7.039   7.768  0.0161  0.0396  0.1982
   96POPC   C3B 1644   7.791   7.193   7.316 -0.2631 -0.1322  0.0047
   96POPC   C4B 1645   8.126   7.283   6.922 -0.3036 -0.0767 -0.0314
   97POPC   NC3 1646   5.397   8.278   9.393  0.2101 -0.1258  0.0976
   97POPC   PO4 1647   5.405   8.451   8.876  0.0546  0.0556 -0.1009
   97POPC   GL1 1648   5.340   8.582   8.424 -0.1754 -0.1634  0.2358
   97POPC   GL2 1649   5.356   8.331   8.148  0.0006 -0.0078 -0.0750
   97POPC   C1A 1650   5.516   8.846   8.126  0.0799  0.1659  0.1950
   97POPC   D2A 1651   5.859   9.050   8.125  0.0194 -0.0828  0.3167
   97POPC   C3A 1652   6.025   9.039   7.630  0.3344 -0.1006  0.0350
   97POPC   C4A 1653   6.072   8.982   7.207 -0.3562  0.2804  0.1994
   97POPC   C1B 1654   5.329   8.446   7.730  0.1262  0.0130 -0.2150
   97POPC   C2B 1655   5.184   8.327   7.404 -0.0823 -0.0917 -0.1181
   97POPC   C3B 1656   5.219   7.982   7.120 -0.3572  0.4141 -0.0259
   97POPC   C4B 1657   5.420   7.717   6.974 -0.3167  0.2929 -0.1117
   98POPC   NC3 1658   3.130   7.541   9.506 -0.2946  0.0377  0.1234
   98POPC   PO4 1659   3.359   7.554   9.191 -0.2687 -0.4493  0.1097
   98POPC   GL1 1660   3.395   7.392   8.715  0.0749  0.5428  0.1305
   98POPC   GL2 1661   3.513   7.647   8.459 -0.0032  0.1504  0.2788
   98POPC   C1A 1662   3.391   7.013   8.375 -0.1529 -0.1339 -0.1847
   98POPC   D2A 1663   3.351   6.931   7.936  0.0319  0.2636  0.0016
   98POPC   C3A 1664   3.191   6.505   7.896  0.1634  0.3999 -0.1034
   98POPC   C4A 1665   3.079   6.032   8.070  0.1077 -0.0434  0.2046
   98POPC   C1B 1666   3.330   7.471   8.078 -0.0374  0.1094  0.0636
   98POPC   C2B 1667   3.209   7.396   7.673 -0.1913  0.3557  0.1625
   98POPC   C3B 1668   2.874   7.223   7.454 -0.1324 -0.2148  0.3943
   98POPC   C4B 1669   2.573   7.247   7.147 -0.1362  0.1152 -0.0186
   99POPC   NC3 1670   8.589   2.765   9.757 -0.0529 -0.1883 -0.3362
   99POPC   PO4 1671   8.612   2.650   9.301 -0.0606 -0.0637  0.1387
   99POPC   GL1 1672   8.693   2.479   8.823  0.3137 -0.0796 -0.0316
   99POPC   GL2 1673   9.114   2.462   8.689 -0.1566  0.1306 -0.0461
   99POPC   C1A 1674   8.728   2.539   8.319  0.0326  0.1462 -0.1370
   99POPC   D2A 1675   8.892   2.725   7.944 -0.0823 -0.1082 -0.2699
   99POPC   C3A 1676   9.311   2.986   7.936  0.0589 -0.0093  0.1318
   99POPC   C4A 1677   9.501   2.927   8.357 -0.1290 -0.1161 -0.1863
   99POPC   C1B 1678   9.288   2.462   8.162  0.1723  0.3535 -0.0383
   99POPC   C2B 1679   9.595   2.540   7.797  0.1283 -0.2756 -0.1167
   99POPC   C3B 1680   9.573   2.690   7.476  0.0053 -0.2810  0.4298
   99POPC   C4B 1681   9.719   2.659   7.080 -0.2878 -0.2318  0.1161
  100POPC   NC3 1682   5.877   8.155   9.418  0.0041 -0.3822 -0.0866
  100POPC   PO4 1683   5.886   8.321   9.096  0.0837 -0.0837  0.0924
  100POPC   GL1 1684   5.776   8.187   8.623  0.0892 -0.2948  0.0575
  100POPC   GL2 1685   6.017   8.036   8.630  0.0137  0.2553 -0.0732
  100POPC   C1A 1686   5.877   8.538   8.309  0.2447 -0.2078  0.2286
  100POPC   D2A 1687   5.856   8.625   7.845  0.1888  0.1376 -0.0156
  100POPC   C3A 1688   5.612   8.768   7.527 -0.0904  0.1057 -0.1964
  100POPC   C4A 1689   5.557   8.643   7.155 -0.0487 -0.3047 -0.0450
  100POPC   C1B 1690   6.032   7.933   8.134  0.0606 -0.1307 -0.1949
  100POPC   C2B 1691   5.918   7.755   7.718  0.2171 -0.2441 -0.1936
  100POPC   C3B 1692   5.692   7.662   7.349 -0.4595  0.1514 -0.0210
  100POPC   C4B 1693   5.949   7.571   7.006  0.2169 -0.1993 -0.0049
  101POPC   NC3 1694   6.218   0.801   9.275  0.0714 -0.1395  0.0403
  101POPC   PO4 1695   6.415   0.812   8.830 -0.1667 -0.1351 -0.2752
  101POPC   GL1 1696   6.406   0.980   8.400 -0.1327 -0.1215  0.2841
  101POPC   GL2 1697   6.172   0.816   8.353  0.3896  0.0306  0.0501
  101POPC   C1A 1698   6.342   1.391   8.105 -0.3266  0.1370 -0.1050
  101POPC   D2A 1699   5.961   1.425   7.771 -0.0893  0.2797  0.1601
  101POPC   C3A 1700   5.881   1.775   7.516  0.0398  0.1802 -0.4339
  101POPC   C4A 1701   5.565   2.094   7.403  0.1251  0.0617 -0.0848
  101POPC   C1B 1702   6.362   0.892   7.867 -0.1387  0.0735  0.0489
  101POPC   C2B 1703   6.274   0.620   7.509 -0.0296 -0.0322 -0.1385
  101POPC   C3B 1704   6.185   0.797   7.079 -0.1912 -0.3100  0.0490
  101POPC   C4B 1705   5.956   1.072   6.872 -0.1036 -0.0216 -0.1310
  102POPC   NC3 1706   2.118   8.496   9.745  0.1488  0.2896  0.2120
  102POPC   PO4 1707   2.557   8.439   9.702  0.1554 -0.0574 -0.0297
  102POPC   GL1 1708   2.476   8.324   9.236  0.3975 -0.0165 -0.0232
  102POPC   GL2 1709   2.493   8.502   8.949 -0.3054  0.0098 -0.1976
  102POPC   C1A 1710   2.322   8.021   8.921 -0.0128  0.0090 -0.3166
  102POPC   D2A 1711   2.110   7.546   8.907 -0.0276 -0.7101  0.6335
  102POPC   C3A 1712   2.472   7.210   8.723  0.0141 -0.0172  0.0506
  102POPC   C4A 1713   2.493   7.013   8.437  0.0901 -0.0725 -0.1414
  102POPC   C1B 1714   2.257   8.594   8.625 -0.2262 -0.2510  0.1296
  102POPC   C2B 1715   2.160   8.211   8.168 -0.2020 -0.1807 -0.0452
  102POPC   C3B 1716   1.784   8.210   7.880  0.0924 -0.1151  0.2117
  102POPC   C4B 1717   1.512   8.538   7.772 -0.0011  0.0576  0.2330
  103POPC   NC3 1718   5.482   5.808   8.829 -0.0671 -0.0066  0.0094
  103POPC   PO4 1719   5.727   6.189   8.602  0.1038  0.3322  0.1914
  103POPC   GL1 1720   5.987   6.445   8.210 -0.0984 -0.1348 -0.0479
  103POPC   GL2 1721   6.246   6.191   8.174 -0.0533  0.0508  0.1277
  103POPC   C1A 1722   5.984   6.612   7.820  0.0904  0.1436 -0.0336
  103POPC   D2A 1723   6.134   6.569   7.384  0.0431  0.1424 -0.1384
  103POPC   C3A 1724   6.620   6.571   7.374  0.1419 -0.0490 -0.0510
  103POPC   C4A 1725   6.991   6.721   7.062  0.0776 -0.0551 -0.1744
  103POPC   C1B 1726   6.357   6.267   7.722 -0.0668  0.1535 -0.0778
  103POPC   C2B 1727   6.357   6.070   7.242 -0.2491 -0.1195 -0.1602
  103POPC   C3B 1728   6.393   6.363   6.896  0.0284 -0.0142 -0.1170
  103POPC   C4B 1729   6.213   6.729   6.665 -0.1577 -0.0851  0.0740
  104POPC   NC3 1730   0.451   4.663   9.912 -0.0007 -0.1732 -0.1605
  104POPC   PO4 1731   0.828   4.975   9.981  0.0961 -0.0763  0.0378
  104POPC   GL1 1732   0.859   5.039   9.524 -0.4623  0.0713 -0.3938
  104POPC   GL2 1733   1.050   4.707   9.444  0.1750 -0.1023  0.1013
  104POPC   C1A 1734   0.797   5.304   9.194 -0.1168 -0.0260  0.1053
  104POPC   D2A 1735   1.032   5.501   8.912 -0.2217  0.1253  0.0022
  104POPC   C3A 1736   0.975   5.813   8.814  0.0745  0.1303 -0.0161
  104POPC   C4A 1737   1.126   6.133   8.898 -0.2768  0.0244  0.0346
  104POPC   C1B 1738   0.941   4.505   9.065 -0.0049 -0.0830 -0.0211
  104POPC   C2B 1739   0.765   4.516   8.720 -0.1625 -0.0470  0.0245
  104POPC   C3B 1740   0.685   4.437   8.342  0.1190 -0.1212 -0.0180
  104POPC   C4B 1741   0.628   4.496   7.881  0.2602  0.1141  0.2454
  105POPC   NC3 1742   0.079   2.659   9.335 -0.3451 -0.0526 -0.1403
  105POPC   PO4 1743  -0.094   3.008   9.123  0.0432  0.1845 -0.1436
  105POPC   GL1 1744  -0.166   3.014   8.705 -0.2501 -0.1105 -0.2572
  105POPC   GL2 1745  -0.433   2.892   8.522 -0.1285 -0.0830  0.0034
  105POPC   C1A 1746   0.012   3.229   8.364 -0.2203 -0.2809  0.0392
  105POPC   D2A 1747   0.075   3.525   7.938  0.0151  0.0570 -0.0488
  105POPC   C3A 1748   0.122   3.222   7.570 -0.1204  0.0013  0.1660
  105POPC   C4A 1749   0.312   2.767   7.340 -0.3357  0.0376  0.0711
  105POPC   C1B 1750  -0.171   2.594   8.281 -0.0786 -0.2244 -0.3199
  105POPC   C2B 1751   0.209   2.462   8.105 -0.0320  0.0981  0.1758
  105POPC   C3B 1752   0.622   2.712   8.093  0.0127  0.1418  0.0891
  105POPC   C4B 1753   1.083   2.871   7.873  0.0222 -0.2500  0.1071
  106POPC   NC3 1754  10.348   0.997   9.182  0.3310  0.2584  0.1190
  106POPC   PO4 1755  10.275   0.557   9.169  0.0975  0.0479 -0.1322
  106POPC   GL1 1756  10.355   0.499   8.762 -0.2081  0.1165  0.0161
  106POPC   GL2 1757  10.312   0.808   8.610 -0.0291  0.1372  0.1883
  106POPC   C1A 1758  10.336   0.323   8.309 -0.1976  0.0487  0.1864
  106POPC   D2A 1759  10.306   0.170   7.941 -0.1276 -0.0322 -0.0309
  106POPC   C3A 1760   9.969  -0.115   7.771  0.1555 -0.0773 -0.2802
  106POPC   C4A 1761   9.705   0.001   7.478 -0.0143  0.2027 -0.0945
  106POPC   C1B 1762  10.796   0.800   8.520 -0.1501  0.1062 -0.0410
  106POPC   C2B 1763  11.131   0.805   8.330 -0.3103 -0.1410  0.0328
  106POPC   C3B 1764  11.378   0.701   7.863 -0.1639  0.1103  0.0514
  106POPC   C4B 1765  11.204   0.782   7.510  0.0887  0.2329  0.1809
  107POPC   NC3 1766   3.393   8.806   8.865 -0.1959  0.0254 -0.0444
  107POPC   PO4 1767   3.784   8.806   8.941 -0.1601 -0.3035 -0.2110
  107POPC   GL1 1768   3.591   8.455   8.471  0.1228  0.1824 -0.1417
  107POPC   GL2 1769   3.390   8.175   8.517  0.2263  0.5130 -0.2204
  107POPC   C1A 1770   3.107   8.538   8.356  0.0994  0.2289  0.0161
  107POPC   D2A 1771   2.977   8.253   8.012  0.3668 -0.3625 -0.2439
  107POPC   C3A 1772   2.574   8.147   7.894 -0.2020 -0.1061 -0.0178
  107POPC   C4A 1773   2.213   8.006   7.669  0.1294 -0.2222  0.1740
  107POPC   C1B 1774   3.454   8.419   7.990  0.0877  0.2120  0.0854
  107POPC   C2B 1775   3.354   8.330   7.614 -0.0219  0.3220  0.2245
  107POPC   C3B 1776   3.221   8.644   7.431  0.1258 -0.1580 -0.0849
  107POPC   C4B 1777   3.009   9.075   7.493  0.1208 -0.1344  0.3564
  108POPC   NC3 1778   3.696   6.879   9.237  0.0132 -0.1099 -0.1736
  108POPC   PO4 1779   3.695   6.509   9.519  0.0030 -0.1160  0.0216
  108POPC   GL1 1780   3.391   6.271   9.348 -0.1438 -0.0009  0.3281
  108POPC   GL2 1781   3.561   6.212   9.140 -0.0274 -0.0032 -0.0721
  108POPC   C1A 1782   3.242   5.836   9.248  0.0838  0.1875 -0.2193
  108POPC   D2A 1783   3.194   5.617   8.837  0.1371  0.1754 -0.0856
  108POPC   C3A 1784   2.776   5.519   8.570 -0.2295  0.1402  0.0875
  108POPC   C4A 1785   2.359   5.570   8.454  0.0732 -0.0081 -0.2343
  108POPC   C1B 1786   3.391   6.071   8.778  0.1489 -0.0238  0.0679
  108POPC   C2B 1787   2.912   6.000   8.569  0.2208  0.0597  0.3388
  108POPC   C3B 1788   2.587   6.058   8.282  0.1504  0.0212 -0.1350
  108POPC   C4B 1789   2.449   5.964   7.830  0.1926  0.0011 -0.1379
  109POPC   NC3 1790   1.470   3.138   9.116 -0.2258  0.1153  0.3358
  109POPC   PO4 1791   1.262   3.325   8.973 -0.2686  0.1697 -0.0148
  109POPC   GL1 1792   1.021   3.255   8.641  0.0671 -0.0262 -0.3105
  109POPC   GL2 1793   1.214   2.984   8.419 -0.0378 -0.0579  0.0294
  109POPC   C1A 1794   0.817   3.268   8.248  0.1371 -0.3357 -0.0241
  109POPC   D2A 1795   0.470   3.211   7.926 -0.1433  0.0198  0.2060
  109POPC   C3A 1796   0.699   2.899   7.550 -0.3278 -0.1815 -0.3924
  109POPC   C4A 1797   0.769   2.534   7.231  0.1583 -0.0483 -0.0408
  109POPC   C1B 1798   1.296   3.340   8.072 -0.0843  0.0354 -0.0010
  109POPC   C2B 1799   1.423   3.616   7.745  0.2332  0.0426  0.0087
  109POPC   C3B 1800   1.315   4.010   7.517  0.0869 -0.1878  0.0170
  109POPC   C4B 1801   1.361   4.301   7.101 -0.0826  0.1130 -0.3072
  110POPC   NC3 1802   2.594   1.874   9.433  0.0338  0.1247  0.2802
  110POPC   PO4 1803   2.728   2.223   9.147  0.1518  0.0227  0.1507
  110POPC   GL1 1804   2.615   2.086   8.769 -0.0277 -0.1633  0.0035
  110POPC   GL2 1805   2.252   2.153   8.560 -0.1287 -0.0191 -0.0152
  110POPC   C1A 1806   2.667   1.883   8.382 -0.0239  0.0332  0.2715
  110POPC   D2A 1807   2.517   1.942   7.798  0.0025  0.2693  0.0476
  110POPC   C3A 1808   2.641   1.606   7.552 -0.3639  0.1139 -0.0308
  110POPC   C4A 1809   2.791   1.252   7.304  0.0611  0.1666 -0.0039
  110POPC   C1B 1810   2.287   2.206   8.140  0.0232 -0.2776 -0.2153
  110POPC   C2B 1811   2.345   2.384   7.664  0.0122  0.1863  0.1172
  110POPC   C3B 1812   2.200   2.350   7.208 -0.0484  0.2944 -0.0602
  110POPC   C4B 1813   1.836   2.438   7.002  0.1660  0.1470  0.3345
  111POPC   NC3 1814   4.702   3.756   8.819 -0.0472 -0.0570 -0.1297
  111POPC   PO4 1815   4.913   4.079   8.886 -0.1035  0.1323 -0.0141
  111POPC   GL1 1816   4.764   4.211   8.544  0.2519  0.1564  0.1697
  111POPC   GL2 1817   4.839   4.583   8.581 -0.0009  0.0403  0.1194
  111POPC   C1A 1818   4.557   4.227   8.115 -0.0085  0.1599  0.1884
  111POPC   D2A 1819   4.592   4.004   7.735 -0.1142 -0.1341  0.1180
  111POPC   C3A 1820   4.618   3.529   7.763  0.3578 -0.3866 -0.1230
  111POPC   C4A 1821   4.415   3.416   8.231 -0.1646 -0.2663  0.0446
  111POPC   C1B 1822   4.920   4.677   8.194 -0.1189 -0.1362  0.3240
  111POPC   C2B 1823   4.628   4.675   7.904 -0.2498 -0.1580  0.2145
  111POPC   C3B 1824   4.512   4.935   7.427  0.1878 -0.4484 -0.0301
  111POPC   C4B 1825   4.712   5.111   7.038 -0.0883 -0.1103  0.0322
  112POPC   NC3 1826   9.090   2.915   8.970 -0.2926  0.0380  0.3533
  112POPC   PO4 1827   8.541   3.022   9.019 -0.3424 -0.0368  0.1988
  112POPC   GL1 1828   8.711   2.992   8.539  0.0083 -0.1161  0.0805
  112POPC   GL2 1829   8.346   2.839   8.572 -0.1150 -0.0474 -0.1482
  112POPC   C1A 1830   8.951   3.087   8.339  0.2204  0.1056 -0.0576
  112POPC   D2A 1831   9.082   3.373   8.131  0.3819  0.2438 -0.0009
  112POPC   C3A 1832   9.369   3.523   7.803  0.1677  0.0952 -0.0318
  112POPC   C4A 1833   9.630   3.574   7.377 -0.0983  0.3659  0.2334
  112POPC   C1B 1834   8.425   2.854   8.066  0.0733 -0.0305 -0.0663
  112POPC   C2B 1835   8.648   3.149   7.819  0.0029  0.1203 -0.1264
  112POPC   C3B 1836   8.825   3.415   7.532 -0.1897  0.0779 -0.0338
  112POPC   C4B 1837   9.140   3.742   7.435  0.0476  0.1899  0.1645
  113POPC   NC3 1838   8.210   4.492   8.877 -0.1907 -0.0293  0.1584
  113POPC   PO4 1839   8.616   4.761   8.779 -0.0796 -0.2458  0.1347
  113POPC   GL1 1840   8.634   5.104   8.447  0.1770  0.3889 -0.2870
  113POPC   GL2 1841   8.881   5.171   8.594 -0.1065  0.0609  0.1145
  113POPC   C1A 1842   8.663   5.239   8.024  0.0607  0.3373 -0.0837
  113POPC   D2A 1843   8.568   5.094   7.580  0.1307  0.1494 -0.0791
  113POPC   C3A 1844   8.612   5.295   7.110 -0.0607 -0.1704 -0.1522
  113POPC   C4A 1845   8.976   5.285   6.849  0.0616  0.1383  0.2462
  113POPC   C1B 1846   9.219   5.109   8.385 -0.2355 -0.1604 -0.1213
  113POPC   C2B 1847   9.480   5.037   8.053  0.0815 -0.1780 -0.0648
  113POPC   C3B 1848   9.711   4.945   7.743  0.0603 -0.1687  0.0949
  113POPC   C4B 1849   9.926   5.223   7.483  0.2300 -0.2135 -0.1285
  114POPC   NC3 1850   5.376   8.942   8.761 -0.1813  0.1460 -0.1332
  114POPC   PO4 1851   5.006   9.087   8.552  0.0500  0.0532 -0.3905
  114POPC   GL1 1852   4.715   9.234   8.236  0.0190  0.0568  0.1562
  114POPC   GL2 1853   4.547   9.064   7.895  0.0136 -0.1220  0.0207
  114POPC   C1A 1854   4.441   9.517   7.986  0.0657  0.0726 -0.1395
  114POPC   D2A 1855   4.172   9.827   7.699  0.0277  0.2549 -0.2955
  114POPC   C3A 1856   4.075   9.748   7.304  0.2890 -0.1732  0.0629
  114POPC   C4A 1857   4.102   9.621   6.873 -0.0070 -0.0066  0.3236
  114POPC   C1B 1858   4.827   9.323   7.673  0.0050  0.2080  0.1353
  114POPC   C2B 1859   4.783   9.705   7.568  0.0079  0.0560  0.0847
  114POPC   C3B 1860   4.581   9.793   7.265 -0.0813  0.1363  0.0035
  114POPC   C4B 1861   4.389  10.047   7.015  0.1510  0.1656 -0.0919
  115POPC   NC3 1862   7.344   9.219   8.716  0.0967 -0.0695 -0.0257
  115POPC   PO4 1863   7.268   9.562   8.817  0.0064  0.1590  0.2377
  115POPC   GL1 1864   7.218   9.538   8.297  0.2108  0.4299  0.0818
  115POPC   GL2 1865   7.040   9.359   8.357  0.0307 -0.0464 -0.2439
  115POPC   C1A 1866   7.177   9.838   7.938  0.2899  0.2924 -0.1777
  115POPC   D2A 1867   6.937  10.032   7.657 -0.3401  0.1241  0.2196
  115POPC   C3A 1868   7.008  10.004   7.286 -0.0918 -0.2663 -0.0929
  115POPC   C4A 1869   7.025   9.585   7.152  0.0810 -0.1217 -0.1286
  115POPC   C1B 1870   6.695   9.531   8.183 -0.0016  0.1070 -0.1067
  115POPC   C2B 1871   6.655   9.971   8.096 -0.0254 -0.3949 -0.4282
  115POPC   C3B 1872   6.491  10.263   7.830  0.2028 -0.2416  0.2553
  115POPC   C4B 1873   6.615  10.333   7.320 -0.0481 -0.2740  0.2186
  116POPC   NC3 1874   7.726   0.312   8.673 -0.0980 -0.1030  0.0835
  116POPC   PO4 1875   8.156   0.238   8.745  0.0161  0.1814 -0.0534
  116POPC   GL1 1876   8.116   0.302   8.304 -0.0157 -0.0939  0.1397
  116POPC   GL2 1877   8.354   0.459   8.236 -0.4673 -0.2523  0.1407
  116POPC   C1A 1878   8.290   0.213   7.814  0.2306 -0.1252 -0.0613
  116POPC   D2A 1879   8.336   0.003   7.555  0.1168 -0.2387 -0.0819
  116POPC   C3A 1880   8.436   0.072   7.283  0.2848 -0.1294 -0.1225
  116POPC   C4A 1881   8.619  -0.021   6.891  0.1628 -0.1747  0.2186
  116POPC   C1B 1882   8.606   0.623   7.935  0.3104 -0.0203  0.2820
  116POPC   C2B 1883   8.936   0.687   7.780 -0.0882 -0.2466  0.2211
  116POPC   C3B 1884   9.036   0.931   7.418 -0.1422 -0.0756  0.2977
  116POPC   C4B 1885   9.531   1.039   7.282  0.2933 -0.4600 -0.3285
  117POPC   NC3 1886   8.018   2.828   8.915  0.2170  0.1619  0.0183
  117POPC   PO4 1887   7.632   2.533   8.964  0.0592  0.5720 -0.2687
  117POPC   GL1 1888   7.767   2.548   8.567  0.2333  0.0683  0.0190
  117POPC   GL2 1889   7.536   2.355   8.347 -0.2134 -0.1810  0.1653
  117POPC   C1A 1890   7.980   2.537   8.123 -0.0223  0.0015  0.0371
  117POPC   D2A 1891   8.371   2.294   8.049  0.0764 -0.0532 -0.0494
  117POPC   C3A 1892   8.436   1.869   7.900 -0.1253 -0.1856 -0.0936
  117POPC   C4A 1893   8.602   1.607   8.131 -0.1205  0.1330  0.0670
  117POPC   C1B 1894   7.501   2.093   8.047  0.0724 -0.0671 -0.0174
  117POPC   C2B 1895   7.445   2.118   7.600  0.2228  0.1590 -0.3123
  117POPC   C3B 1896   7.435   1.975   7.129 -0.1806  0.3515 -0.2006
  117POPC   C4B 1897   7.032   1.915   7.017  0.0995 -0.1246  0.0294
  118POPC   NC3 1898   5.295   2.566   8.732 -0.0334  0.0703 -0.0951
  118POPC   PO4 1899   5.414   2.483   8.239 -0.0860  0.4456  0.1549
  118POPC   GL1 1900   5.115   2.661   8.029  0.0386 -0.1414 -0.1668
  118POPC   GL2 1901   5.406   3.018   7.969  0.1168  0.1482  0.0036
  118POPC   C1A 1902   4.854   2.793   7.673 -0.0671 -0.1608 -0.1699
  118POPC   D2A 1903   4.768   2.626   7.322 -0.2818  0.0756  0.2899
  118POPC   C3A 1904   4.911   2.904   7.030 -0.1352 -0.2242 -0.1491
  118POPC   C4A 1905   4.764   3.260   6.798  0.1428  0.0990 -0.0818
  118POPC   C1B 1906   5.366   3.137   7.467 -0.0229 -0.0330 -0.0594
  118POPC   C2B 1907   5.511   3.256   7.138  0.2781 -0.2272 -0.1442
  118POPC   C3B 1908   5.635   3.436   6.845 -0.0426  0.0315  0.1388
  118POPC   C4B 1909   5.801   3.469   6.422  0.3133 -0.2569 -0.0414
  119POPC   NC3 1910   9.117   6.824   9.190  0.0920  0.1248 -0.2010
  119POPC   PO4 1911   8.880   7.167   8.937 -0.1382  0.4245  0.0299
  119POPC   GL1 1912   9.091   7.215   8.656  0.1315 -0.1242  0.4686
  119POPC   GL2 1913   9.148   7.475   8.395  0.2474 -0.0015  0.0931
  119POPC   C1A 1914   9.238   7.029   8.177  0.2702  0.2268  0.4394
  119POPC   D2A 1915   9.349   7.065   7.737  0.0997 -0.1832 -0.3044
  119POPC   C3A 1916   9.575   7.397   7.643 -0.1428  0.2760 -0.1629
  119POPC   C4A 1917   9.658   7.697   7.391  0.3543  0.0844  0.0868
  119POPC   C1B 1918   9.481   7.532   8.152 -0.4689 -0.3050  0.0113
  119POPC   C2B 1919   9.589   7.939   7.927 -0.0970  0.1656  0.1537
  119POPC   C3B 1920   9.776   8.155   7.645  0.1527 -0.2287  0.1068
  119POPC   C4B 1921   9.819   8.183   7.255 -0.0615 -0.0701  0.2816
  120POPC   NC3 1922   4.338   7.465   9.288  0.1751 -0.1024  0.1738
  120POPC   PO4 1923   4.485   7.231   8.945 -0.2435  0.2905  0.0995
  120POPC   GL1 1924   4.451   7.298   8.589  0.0657 -0.1795  0.1632
  120POPC   GL2 1925   4.823   7.328   8.342 -0.0980 -0.3323  0.1421
  120POPC   C1A 1926   4.327   7.273   8.123  0.6282 -0.1539  0.0234
  120POPC   D2A 1927   4.293   7.145   7.802 -0.0749  0.0668  0.2156
  120POPC   C3A 1928   4.159   7.160   7.417  0.3208 -0.1822 -0.0068
  120POPC   C4A 1929   4.368   7.020   6.968  0.2034 -0.0407 -0.0150
  120POPC   C1B 1930   4.770   7.386   7.840 -0.1026 -0.0444  0.2945
  120POPC   C2B 1931   4.595   7.402   7.436 -0.0103 -0.1082  0.0169
  120POPC   C3B 1932   4.470   7.508   7.019 -0.3655 -0.1716 -0.0138
  120POPC   C4B 1933   4.301   7.448   6.655  0.1329  0.1444  0.1989
  121POPC   NC3 1934   3.346   9.563   9.218 -0.0250 -0.2272 -0.1816
  121POPC   PO4 1935   3.534   9.810   8.859 -0.1370 -0.0068 -0.2709
  121POPC   GL1 1936   3.912   9.618   8.580 -0.2342  0.0876  0.0525
  121POPC   GL2 1937   4.291   9.677   8.534 -0.1782 -0.0957  0.2930
  121POPC   C1A 1938   3.923   9.503   8.155 -0.1539  0.0203 -0.1327
  121POPC   D2A 1939   3.974   9.293   7.728  0.2879  0.2433  0.1587
  121POPC   C3A 1940   4.274   9.354   7.488 -0.0888  0.0105  0.1239
  121POPC   C4A 1941   4.496   9.362   7.050 -0.0299  0.0441  0.0915
  121POPC   C1B 1942   4.129   9.954   8.195  0.0808 -0.0514 -0.1143
  121POPC   C2B 1943   3.879  10.370   8.077  0.6805 -0.0083  0.0319
  121POPC   C3B 1944   3.808  10.480   7.632 -0.1133  0.0035  0.2406
  121POPC   C4B 1945   3.589  10.610   7.272 -0.2388  0.1426 -0.0379
  122POPC   NC3 1946   7.541   8.756   8.690  0.1719  0.0027  0.1729
  122POPC   PO4 1947   7.829   9.033   8.460  0.0255 -0.0592 -0.0753
  122POPC   GL1 1948   8.086   8.652   8.190 -0.2764  0.3761 -0.1387
  122POPC   GL2 1949   8.410   8.771   8.017  0.0482 -0.1168  0.1544
  122POPC   C1A 1950   7.879   8.364   7.879  0.0100 -0.0412 -0.2400
  122POPC   D2A 1951   7.673   7.933   7.884  0.2445 -0.3082  0.0970
  122POPC   C3A 1952   7.785   7.626   7.543 -0.1367 -0.0418  0.4226
  122POPC   C4A 1953   7.750   7.675   7.133 -0.0313  0.0246 -0.0201
  122POPC   C1B 1954   8.611   8.890   7.638 -0.0774  0.2651  0.1767
  122POPC   C2B 1955   8.738   9.023   7.304  0.0615 -0.2213  0.2607
  122POPC   C3B 1956   8.620   9.108   6.918  0.1679  0.1704 -0.1313
  122POPC   C4B 1957   8.172   9.237   6.705 -0.2352  0.0953  0.0850
  123POPC   NC3 1958   8.259   5.755   9.054  0.0428 -0.1090 -0.1889
  123POPC   PO4 1959   8.450   5.381   8.909  0.0038 -0.0551  0.0073
  123POPC   GL1 1960   8.450   5.686   8.580  0.0354  0.0402  0.3074
  123POPC   GL2 1961   8.502   6.051   8.698 -0.0703 -0.0177 -0.0449
  123POPC   C1A 1962   8.521   5.711   8.068  0.2071 -0.0402 -0.0444
  123POPC   D2A 1963   8.765   5.618   7.663  0.0188  0.1837  0.1253
  123POPC   C3A 1964   9.029   5.501   7.307 -0.0871  0.1790  0.3321
  123POPC   C4A 1965   9.447   5.243   7.292 -0.1872  0.0052  0.0449
  123POPC   C1B 1966   8.679   6.081   8.301 -0.2979 -0.0443  0.1042
  123POPC   C2B 1967   9.033   6.082   7.952  0.0843 -0.0454  0.1814
  123POPC   C3B 1968   9.127   5.978   7.589 -0.0894  0.1423  0.1663
  123POPC   C4B 1969   9.163   6.158   7.158  0.1663  0.2957 -0.1684
  124POPC   NC3 1970   2.116   9.717   9.507  0.0042 -0.0385 -0.2082
  124POPC   PO4 1971   2.483   9.329   9.457  0.1224 -0.1634  0.2810
  124POPC   GL1 1972   2.574   9.249   9.044  0.2439 -0.1605 -0.1563
  124POPC   GL2 1973   2.346   9.026   8.922 -0.0604  0.0469  0.0243
  124POPC   C1A 1974   2.615   9.248   8.569 -0.0097  0.2043  0.1668
  124POPC   D2A 1975   2.744   9.507   8.265 -0.0809 -0.1089 -0.2760
  124POPC   C3A 1976   2.918   9.427   7.894  0.2443  0.0952  0.1703
  124POPC   C4A 1977   2.697   9.516   7.447  0.1272 -0.1185  0.1279
  124POPC   C1B 1978   2.126   9.086   8.490  0.0353  0.0134 -0.3141
  124POPC   C2B 1979   2.026   9.035   8.057 -0.1044 -0.0190  0.0469
  124POPC   C3B 1980   2.065   9.157   7.554 -0.2250  0.0360 -0.0457
  124POPC   C4B 1981   2.248   9.358   7.192 -0.2310  0.0562  0.5500
  125POPC   NC3 1982   7.008  10.263   8.521 -0.0352  0.0982 -0.3928
  125POPC   PO4 1983   7.391  10.030   8.527 -0.2410 -0.0658 -0.2866
  125POPC   GL1 1984   7.572  10.403   8.401  0.1559 -0.4610 -0.2275
  125POPC   GL2 1985   7.379  10.635   8.341 -0.2420 -0.0512 -0.0299
  125POPC   C1A 1986   7.721  10.627   7.994  0.2738 -0.0563  0.1738
  125POPC   D2A 1987   7.851  10.977   7.775 -0.0107 -0.4290  0.1282
  125POPC   C3A 1988   7.957  10.829   7.479  0.1811  0.2941  0.3290
  125POPC   C4A 1989   7.869  10.369   7.467  0.1101 -0.1391 -0.0746
  125POPC   C1B 1990   7.237  10.438   7.949 -0.0026  0.1523 -0.0411
  125POPC   C2B 1991   7.067  10.475   7.471  0.1762  0.0442  0.0117
  125POPC   C3B 1992   7.063  10.815   7.295  0.1488  0.0271 -0.1524
  125POPC   C4B 1993   6.970  10.864   6.880 -0.0005 -0.2572  0.1720
  126POPC   NC3 1994   0.860   9.304   9.775 -0.1370  0.0309  0.1592
  126POPC   PO4 1995   1.175   9.609   9.952 -0.1236 -0.0711  0.1551
  126POPC   GL1 1996   1.233   9.502   9.501 -0.2162 -0.0474  0.0881
  126POPC   GL2 1997   1.188   9.745   9.295 -0.2500  0.2380  0.1650
  126POPC   C1A 1998   1.256   9.346   9.020  0.1580 -0.0395 -0.0894
  126POPC   D2A 1999   1.674   9.180   8.847 -0.0134 -0.1652  0.0998
  126POPC   C3A 2000   1.784   8.731   8.866  0.0166 -0.2928 -0.1786
  126POPC   C4A 2001   1.860   8.329   8.573  0.0522  0.1162 -0.2389
  126POPC   C1B 2002   1.102   9.905   8.822  0.2112  0.0925 -0.3939
  126POPC   C2B 2003   0.957   9.831   8.377  0.0972 -0.4689 -0.1002
  126POPC   C3B 2004   1.015   9.771   7.956 -0.1882  0.0534  0.1967
  126POPC   C4B 2005   1.044  10.074   7.468  0.1000  0.2407  0.0067
  127POPC   NC3 2006   7.089   8.792   9.334  0.3665  0.3242  0.0728
  127POPC   PO4 2007   7.130   8.854   8.938  0.2550  0.0761 -0.0100
  127POPC   GL1 2008   7.008   8.674   8.521  0.1716 -0.3510 -0.0178
  127POPC   GL2 2009   7.215   8.775   8.227 -0.0393 -0.3499  0.4190
  127POPC   C1A 2010   6.796   8.528   8.079  0.0314 -0.0145  0.0727
  127POPC   D2A 2011   6.801   8.645   7.630  0.0529 -0.2665  0.0517
  127POPC   C3A 2012   7.109   8.542   7.396  0.2712  0.0400  0.0708
  127POPC   C4A 2013   7.359   8.559   6.945  0.1589 -0.1714 -0.0824
  127POPC   C1B 2014   7.690   8.800   7.904 -0.1003  0.0865  0.1254
  127POPC   C2B 2015   8.067   8.639   7.576 -0.0550 -0.2440  0.2978
  127POPC   C3B 2016   8.261   8.585   7.169  0.0330  0.1586  0.3776
  127POPC   C4B 2017   8.365   8.270   6.854 -0.0006 -0.2253 -0.1658
  128POPC   NC3 2018   4.394   6.805   9.616  0.1041  0.0199 -0.2357
  128POPC   PO4 2019   4.155   6.989   9.355 -0.1196 -0.1587 -0.1038
  128POPC   GL1 2020   4.077   6.951   8.878  0.1355  0.0744 -0.0263
  128POPC   GL2 2021   3.696   6.965   8.741 -0.1333  0.0823 -0.0717
  128POPC   C1A 2022   4.114   6.694   8.450  0.0752  0.1033 -0.0500
  128POPC   D2A 2023   4.208   6.685   8.077 -0.0861 -0.1210  0.1307
  128POPC   C3A 2024   4.077   6.722   7.601  0.1995  0.0409 -0.0259
  128POPC   C4A 2025   3.932   6.724   7.226 -0.0262 -0.1762 -0.2117
  128POPC   C1B 2026   3.848   7.125   8.275 -0.1094  0.1302  0.0236
  128POPC   C2B 2027   3.821   7.112   7.859  0.0103 -0.0521 -0.2218
  128POPC   C3B 2028   3.638   7.138   7.511 -0.2505 -0.2477  0.3211
  128POPC   C4B 2029   3.488   7.271   7.087  0.2830  0.0777  0.2717
  129POPC   NC3 2030   4.444   7.756   8.786  0.0018  0.2365  0.4385
  129POPC   PO4 2031   4.849   7.738   8.700 -0.0010  0.0015 -0.0123
  129POPC   GL1 2032   4.628   7.834   8.225 -0.2129  0.1033  0.0511
  129POPC   GL2 2033   4.269   7.718   8.309  0.0219 -0.1111 -0.2789
  129POPC   C1A 2034   4.449   7.765   7.793 -0.0121 -0.0199 -0.1035
  129POPC   D2A 2035   4.190   7.793   7.404 -0.0304 -0.3012  0.0208
  129POPC   C3A 2036   3.950   7.499   7.161  0.2423 -0.3731 -0.1819
  129POPC   C4A 2037   3.891   7.198   6.865 -0.0511  0.1103  0.0963
  129POPC   C1B 2038   3.961   7.591   7.921  0.4247  0.1859  0.1318
  129POPC   C2B 2039   3.742   7.649   7.594  0.2240  0.0045  0.0023
  129POPC   C3B 2040   3.343   7.696   7.309  0.3427 -0.0727  0.0872
  129POPC   C4B 2041   2.989   7.519   7.030 -0.3307 -0.0972  0.1329
  130POPC   NC3 2042   1.629   0.432   9.203  0.2563 -0.3613 -0.0723
  130POPC   PO4 2043   1.347   0.867   9.056  0.1267  0.0689 -0.2293
  130POPC   GL1 2044   1.125   0.947   8.694  0.1948 -0.2915 -0.0005
  130POPC   GL2 2045   1.115   1.169   8.352 -0.2996  0.0689  0.0425
  130POPC   C1A 2046   1.185   0.694   8.293 -0.1522 -0.2011  0.0152
  130POPC   D2A 2047   1.070   0.297   8.070 -0.1638  0.3149  0.1329
  130POPC   C3A 2048   1.184   0.292   7.603 -0.0582 -0.1110 -0.0585
  130POPC   C4A 2049   0.916   0.103   7.253  0.6610  0.1055 -0.0983
  130POPC   C1B 2050   1.303   1.216   7.986 -0.3658  0.1386  0.1516
  130POPC   C2B 2051   1.489   1.415   7.685  0.0805  0.4108 -0.0055
  130POPC   C3B 2052   1.855   1.538   7.402  0.1893 -0.0406  0.0724
  130POPC   C4B 2053   1.850   1.885   7.074  0.3010 -0.2032 -0.2734
  131POPC   NC3 2054   1.673   9.649   9.954  0.1920 -0.0279  0.0060
  131POPC   PO4 2055   1.628   9.864   9.561 -0.2140  0.2638  0.0603
  131POPC   GL1 2056   1.688   9.812   9.169 -0.0325  0.2021  0.0788
  131POPC   GL2 2057   1.885  10.025   9.117  0.2991  0.0402  0.3154
  131POPC   C1A 2058   1.594   9.656   8.729  0.0018 -0.1430 -0.1550
  131POPC   D2A 2059   1.227   9.431   8.548 -0.1218  0.2663 -0.2596
  131POPC   C3A 2060   1.238   9.376   8.180  0.2756  0.0276  0.0649
  131POPC   C4A 2061   1.152   9.374   7.711 -0.1164  0.0952 -0.0545
  131POPC   C1B 2062   2.083   9.851   8.825  0.0347 -0.0320  0.1508
  131POPC   C2B 2063   2.121   9.634   8.569  0.2849 -0.1997 -0.1958
  131POPC   C3B 2064   2.244   9.484   8.226 -0.2537 -0.2331 -0.2711
  131POPC   C4B 2065   2.357   9.557   7.820  0.1766 -0.2330  0.0476
  132POPC   NC3 2066   4.812   2.657   8.405 -0.0588 -0.2009  0.0961
  132POPC   PO4 2067   5.062   2.965   8.583 -0.0604 -0.0408 -0.1652
  132POPC   GL1 2068   4.932   3.083   8.202 -0.0598 -0.2698  0.1708
  132POPC   GL2 2069   4.582   2.978   8.042 -0.1455 -0.0557 -0.0599
  132POPC   C1A 2070   4.996   3.279   7.761  0.1051  0.1291  0.0329
  132POPC   D2A 2071   4.847   3.273   7.311 -0.1189 -0.0749 -0.1505
  132POPC   C3A 2072   5.036   3.540   7.008 -0.1342  0.0917 -0.2075
  132POPC   C4A 2073   4.946   3.968   6.833  0.0065  0.0847 -0.0634
  132POPC   C1B 2074   4.459   3.038   7.603 -0.0088 -0.0724  0.0644
  132POPC   C2B 2075   4.370   3.080   7.180  0.0813  0.1566  0.0110
  132POPC   C3B 2076   4.268   3.355   6.872  0.2251 -0.1891  0.2051
  132POPC   C4B 2077   3.910   3.525   6.576  0.0813  0.1829 -0.0969
  133POPC   NC3 2078   4.927   7.039   8.734 -0.0560 -0.1689 -0.0696
  133POPC   PO4 2079   5.343   6.939   8.724 -0.1097 -0.2166 -0.1753
  133POPC   GL1 2080   5.497   7.077   8.375 -0.1050 -0.0341 -0.0458
  133POPC   GL2 2081   5.283   7.186   8.156  0.0931  0.2859  0.0803
  133POPC   C1A 2082   5.615   6.889   7.899 -0.0488 -0.1804  0.0763
  133POPC   D2A 2083   5.537   6.526   7.618 -0.1271  0.0267  0.0518
  133POPC   C3A 2084   5.362   6.279   7.268  0.1199 -0.1759 -0.2393
  133POPC   C4A 2085   5.207   5.841   7.073  0.0339 -0.1247  0.0953
  133POPC   C1B 2086   5.385   7.511   7.816  0.2969  0.0642 -0.1148
  133POPC   C2B 2087   5.076   7.547   7.422 -0.1003  0.2308 -0.0069
  133POPC   C3B 2088   4.917   7.293   7.066  0.0147 -0.2068  0.0752
  133POPC   C4B 2089   4.757   7.225   6.670 -0.2031  0.0447  0.2073
  134POPC   NC3 2090   4.533   1.767   8.703 -0.0349 -0.0713 -0.0876
  134POPC   PO4 2091   4.154   1.910   8.556 -0.0183  0.1352  0.2792
  134POPC   GL1 2092   4.086   2.008   8.192  0.2145 -0.0055  0.0895
  134POPC   GL2 2093   4.204   1.874   7.915  0.3595  0.0073  0.0734
  134POPC   C1A 2094   3.810   2.250   7.941 -0.3249 -0.0492 -0.0145
  134POPC   D2A 2095   3.292   2.205   7.748 -0.0887  0.0342 -0.0989
  134POPC   C3A 2096   3.205   2.364   7.314 -0.3320  0.3046  0.1586
  134POPC   C4A 2097   3.543   2.652   7.102  0.0210 -0.3344  0.2655
  134POPC   C1B 2098   4.293   2.097   7.588 -0.1112  0.1747 -0.1329
  134POPC   C2B 2099   4.402   2.192   7.162  0.1866 -0.2113 -0.0206
  134POPC   C3B 2100   4.848   2.207   7.063  0.1014 -0.0815  0.2346
  134POPC   C4B 2101   4.971   2.451   6.840  0.1569  0.3247 -0.1549
  135POPC   NC3 2102  10.105   5.739  10.181  0.0542  0.1186 -0.4868
  135POPC   PO4 2103   9.739   6.029  10.178  0.0474  0.2189 -0.0585
  135POPC   GL1 2104   9.886   6.039   9.831 -0.0379 -0.2577  0.1127
  135POPC   GL2 2105   9.983   6.415   9.819 -0.1951  0.0042  0.0066
  135POPC   C1A 2106  10.163   5.779   9.439  0.1963  0.4457 -0.2281
  135POPC   D2A 2107  10.388   5.903   9.120 -0.0339 -0.2884  0.0571
  135POPC   C3A 2108  10.352   6.111   8.676  0.6134 -0.0927  0.3410
  135POPC   C4A 2109   9.924   6.140   8.514 -0.0699 -0.2441 -0.1293
  135POPC   C1B 2110  10.113   6.717   9.525 -0.0482 -0.0703  0.3059
  135POPC   C2B 2111  10.494   6.852   9.350  0.4755 -0.1475  0.0508
  135POPC   C3B 2112  10.500   7.058   9.037 -0.1155  0.0999  0.0699
  135POPC   C4B 2113  10.669   6.938   8.651 -0.2150 -0.3455  0.3433
  136POPC   NC3 2114   1.026   8.592  10.382  0.1244 -0.2700  0.0682
  136POPC   PO4 2115   0.850   8.779   9.937 -0.1266 -0.1589 -0.2554
  136POPC   GL1 2116   0.934   8.852   9.494 -0.0045  0.1142 -0.3048
  136POPC   GL2 2117   0.860   9.191   9.282  0.0342 -0.1105 -0.0299
  136POPC   C1A 2118   0.768   8.718   9.188 -0.0939 -0.1990 -0.1722
  136POPC   D2A 2119   0.495   8.733   8.818 -0.0272 -0.2732  0.1190
  136POPC   C3A 2120   0.496   8.733   8.442  0.0368 -0.1533 -0.1080
  136POPC   C4A 2121   0.768   8.873   8.058 -0.0526 -0.0525  0.0780
  136POPC   C1B 2122   0.802   9.193   8.889  0.1060  0.0088 -0.2175
  136POPC   C2B 2123   0.721   9.194   8.459 -0.1015  0.1731  0.1042
  136POPC   C3B 2124   0.660   9.428   8.186 -0.1503 -0.1497  0.0351
  136POPC   C4B 2125   0.592   9.469   7.800 -0.0939  0.0082  0.0799
  137POPC   NC3 2126   2.270   0.973   9.282 -0.1080  0.1099 -0.0848
  137POPC   PO4 2127   2.492   0.630   9.261 -0.1552 -0.4360 -0.2589
  137POPC   GL1 2128   2.458   0.448   8.782  0.3497  0.1809 -0.1703
  137POPC   GL2 2129   2.668   0.204   8.885  0.1103  0.3079 -0.1289
  137POPC   C1A 2130   2.375   0.558   8.314 -0.1050  0.3690 -0.0835
  137POPC   D2A 2131   2.281   0.803   7.973  0.3763  0.2660  0.1716
  137POPC   C3A 2132   1.970   0.570   7.709 -0.0992  0.1659  0.0926
  137POPC   C4A 2133   1.698   0.263   7.606  0.0350 -0.0509 -0.0940
  137POPC   C1B 2134   2.405   0.099   8.484 -0.2092 -0.2047 -0.3011
  137POPC   C2B 2135   2.528   0.107   8.053  0.1956 -0.2220  0.1159
  137POPC   C3B 2136   2.425  -0.023   7.593 -0.0200  0.1264 -0.0038
  137POPC   C4B 2137   2.119   0.134   7.371 -0.1298  0.2634  0.1786
  138POPC   NC3 2138  10.112   4.991   9.682 -0.1639 -0.0759 -0.1215
  138POPC   PO4 2139  10.458   5.036   9.869  0.1827  0.2647  0.0531
  138POPC   GL1 2140  10.589   5.256   9.616  0.2374  0.1398  0.1351
  138POPC   GL2 2141  10.381   5.209   9.250  0.2053  0.1925  0.1456
  138POPC   C1A 2142  10.602   5.676   9.677  0.0624 -0.1671  0.3323
  138POPC   D2A 2143  10.465   6.146   9.747 -0.0749 -0.0526  0.1163
  138POPC   C3A 2144  10.295   6.290   9.389 -0.3184 -0.1016  0.0613
  138POPC   C4A 2145  10.173   6.515   8.952 -0.2582  0.6606 -0.1176
  138POPC   C1B 2146  10.257   5.458   8.934 -0.0295  0.1036 -0.1973
  138POPC   C2B 2147  10.525   5.638   8.659  0.3571 -0.2007 -0.1642
  138POPC   C3B 2148  11.062   5.476   8.646 -0.0263  0.2209 -0.1330
  138POPC   C4B 2149  11.377   5.399   8.246  0.0054 -0.0040 -0.0323
  139POPC   NC3 2150   8.604   2.001   8.809  0.0938  0.2008 -0.1191
  139POPC   PO4 2151   9.001   2.005   8.902 -0.1541  0.1140  0.0304
  139POPC   GL1 2152   8.889   2.065   8.422 -0.1602  0.4002  0.2730
  139POPC   GL2 2153   9.199   1.892   8.337  0.0302  0.0420 -0.5334
  139POPC   C1A 2154   8.886   2.217   7.941 -0.0717  0.1788  0.0732
  139POPC   D2A 2155   9.136   2.392   7.591  0.2008 -0.0799 -0.0352
  139POPC   C3A 2156   9.048   2.828   7.469  0.4105  0.0309 -0.1239
  139POPC   C4A 2157   9.288   3.182   7.394 -0.1352  0.0082  0.1158
  139POPC   C1B 2158   9.086   1.736   7.975  0.0241  0.1149 -0.2325
  139POPC   C2B 2159   9.443   1.981   7.904 -0.0094  0.3101  0.3696
  139POPC   C3B 2160  10.003   1.838   7.900 -0.1057  0.2709  0.2013
  139POPC   C4B 2161  10.406   1.957   7.693 -0.2940  0.0338  0.0080
  140POPC   NC3 2162   1.685   5.777  10.572 -0.2111  0.2313 -0.3356
  140POPC   PO4 2163   1.849   6.112  10.721  0.0889 -0.0386  0.0232
  140POPC   GL1 2164   1.909   6.114  10.233  0.4991 -0.1257  0.3573
  140POPC   GL2 2165   1.743   5.786  10.113 -0.1486  0.4036  0.1178
  140POPC   C1A 2166   2.023   6.026   9.784 -0.2478 -0.0357 -0.0202
  140POPC   D2A 2167   1.878   5.844   9.345 -0.1971  0.1012  0.1136
  140POPC   C3A 2168   2.052   5.888   8.951 -0.0442 -0.1138  0.0153
  140POPC   C4A 2169   2.520   5.729   8.949  0.1193  0.0818 -0.2460
  140POPC   C1B 2170   1.541   5.911   9.744 -0.1453  0.1753 -0.1224
  140POPC   C2B 2171   1.452   6.112   9.390  0.0321 -0.0597 -0.0034
  140POPC   C3B 2172   1.619   6.244   8.950  0.0715  0.2732  0.1745
  140POPC   C4B 2173   1.511   6.420   8.664 -0.3700 -0.0879 -0.0595
  141POPC   NC3 2174   9.738   3.612   8.961  0.1623  0.0264  0.2479
  141POPC   PO4 2175   9.248   3.735   8.974 -0.2291  0.0099 -0.3031
  141POPC   GL1 2176   9.418   3.808   8.588  0.2156 -0.1166 -0.0186
  141POPC   GL2 2177   9.719   4.078   8.727 -0.2208  0.0928  0.1502
  141POPC   C1A 2178   9.324   4.043   8.085  0.0236  0.0449 -0.0200
  141POPC   D2A 2179   9.662   3.929   7.704 -0.0261  0.0539 -0.2421
  141POPC   C3A 2180   9.938   4.086   7.439  0.0459 -0.3742 -0.1706
  141POPC   C4A 2181   9.901   4.348   7.110 -0.3055 -0.0605  0.3493
  141POPC   C1B 2182   9.527   4.366   8.439 -0.2782 -0.1501  0.1110
  141POPC   C2B 2183   9.398   4.594   8.089  0.0011  0.1653 -0.0318
  141POPC   C3B 2184   9.348   4.272   7.618  0.1977  0.1429 -0.0815
  141POPC   C4B 2185   9.473   4.044   7.293 -0.1166 -0.2189 -0.0243
  142POPC   NC3 2186   5.227   6.284   8.567  0.0681 -0.0110 -0.0665
  142POPC   PO4 2187   5.013   6.560   8.853 -0.1991 -0.1105  0.1813
  142POPC   GL1 2188   5.044   6.768   8.311 -0.0131 -0.0374  0.1103
  142POPC   GL2 2189   4.678   6.842   8.251 -0.0697  0.0041 -0.0784
  142POPC   C1A 2190   5.146   6.682   7.858  0.2271 -0.0362 -0.1594
  142POPC   D2A 2191   4.923   6.580   7.473 -0.1427  0.0983 -0.1294
  142POPC   C3A 2192   5.175   6.802   7.101 -0.1036  0.0539 -0.0801
  142POPC   C4A 2193   5.233   6.927   6.652  0.2020  0.0185  0.0556
  142POPC   C1B 2194   4.656   6.829   7.869  0.2859  0.1381  0.1395
  142POPC   C2B 2195   4.537   6.877   7.456 -0.3638  0.0950  0.1677
  142POPC   C3B 2196   4.480   6.495   7.203  0.0542 -0.0079  0.2445
  142POPC   C4B 2197   4.908   6.382   7.004 -0.4019 -0.2164 -0.1335
  143POPC   NC3 2198   8.794   3.898   8.951 -0.0927 -0.1321  0.3519
  143POPC   PO4 2199   8.585   4.244   8.724  0.2968  0.0762  0.1207
  143POPC   GL1 2200   8.476   4.154   8.274  0.2478  0.0784 -0.1445
  143POPC   GL2 2201   8.244   3.870   8.119 -0.1969 -0.2419  0.0148
  143POPC   C1A 2202   8.476   4.244   7.824  0.0173  0.0833  0.1576
  143POPC   D2A 2203   8.767   4.112   7.494  0.0267 -0.2234  0.0301
  143POPC   C3A 2204   9.063   4.296   7.073  0.0681 -0.1933 -0.0614
  143POPC   C4A 2205   9.464   4.400   6.880 -0.0123  0.0757  0.0276
  143POPC   C1B 2206   8.434   3.722   7.717 -0.0404 -0.0041  0.0004
  143POPC   C2B 2207   8.534   3.716   7.190 -0.1126 -0.0468 -0.5859
  143POPC   C3B 2208   8.770   3.884   7.033 -0.1347 -0.1586  0.0504
  143POPC   C4B 2209   8.650   4.196   6.812  0.1640 -0.0158 -0.0312
  144POPC   NC3 2210   9.220   9.761   8.943 -0.2377  0.0963 -0.3069
  144POPC   PO4 2211   9.616   9.688   8.942 -0.2552  0.0089 -0.1445
  144POPC   GL1 2212   9.649   9.421   8.507  0.0933 -0.0115  0.0686
  144POPC   GL2 2213   9.709   9.696   8.439 -0.2006  0.1671  0.0007
  144POPC   C1A 2214   9.966   9.309   8.163 -0.2431  0.0918 -0.3728
  144POPC   D2A 2215  10.331   9.346   7.924 -0.1334  0.1824  0.2912
  144POPC   C3A 2216  10.529   9.069   7.615  0.0139 -0.4009  0.1036
  144POPC   C4A 2217  10.847   9.058   7.806 -0.1020 -0.0134  0.0371
  144POPC   C1B 2218   9.748   9.897   8.152  0.2942  0.0471 -0.0165
  144POPC   C2B 2219   9.511   9.994   7.750  0.0845  0.1043 -0.1714
  144POPC   C3B 2220   9.238  10.302   7.648 -0.2667 -0.2978  0.2116
  144POPC   C4B 2221   9.337  10.703   7.813  0.0341 -0.0592  0.1234
  145POPC   NC3 2222   0.129   3.651   9.555 -0.0508 -0.0499  0.0625
  145POPC   PO4 2223   0.522   3.840   9.445  0.0645 -0.0846 -0.2207
  145POPC   GL1 2224   0.607   3.841   9.139 -0.2105  0.0242 -0.1070
  145POPC   GL2 2225   0.846   3.997   8.982  0.0329 -0.1157 -0.0225
  145POPC   C1A 2226   0.592   3.581   8.715 -0.3321  0.1213 -0.3085
  145POPC   D2A 2227   0.396   3.630   8.358 -0.3501  0.0710  0.1031
  145POPC   C3A 2228   0.374   3.988   8.039 -0.0170 -0.2005 -0.1449
  145POPC   C4A 2229   0.171   4.288   8.259 -0.2795 -0.2110  0.2017
  145POPC   C1B 2230   1.142   4.154   8.811  0.0053  0.2108 -0.2201
  145POPC   C2B 2231   1.277   4.294   8.355  0.1847  0.0530 -0.0805
  145POPC   C3B 2232   1.125   4.110   7.988 -0.0161  0.0433 -0.1490
  145POPC   C4B 2233   0.885   3.813   7.923 -0.0837  0.0290  0.1078
  146POPC   NC3 2234   4.242   2.052   8.994 -0.0164 -0.0203 -0.4286
  146POPC   PO4 2235   4.615   2.260   8.663 -0.1238  0.3414  0.1703
  146POPC   GL1 2236   4.609   1.951   8.263  0.0183  0.0512 -0.0021
  146POPC   GL2 2237   4.598   1.628   8.228 -0.1203 -0.1666  0.1180
  146POPC   C1A 2238   4.724   1.857   7.838  0.2886 -0.3467  0.0780
  146POPC   D2A 2239   4.918   1.977   7.494 -0.0711  0.1043 -0.2079
  146POPC   C3A 2240   5.193   2.411   7.447  0.0792 -0.2337  0.0622
  146POPC   C4A 2241   5.573   2.590   7.626 -0.1131 -0.2397 -0.0074
  146POPC   C1B 2242   4.406   1.356   7.855  0.1729 -0.0582 -0.1464
  146POPC   C2B 2243   4.410   1.145   7.454 -0.0438 -0.0348  0.1113
  146POPC   C3B 2244   4.167   0.864   7.355  0.1265 -0.0183 -0.0236
  146POPC   C4B 2245   3.926   0.503   7.437  0.1715  0.2320 -0.1711
  147POPC   NC3 2246   7.333   7.458   8.650 -0.0842 -0.0339 -0.1041
  147POPC   PO4 2247   7.105   7.038   8.670  0.0076 -0.1083  0.1080
  147POPC   GL1 2248   7.238   6.900   8.237 -0.2213 -0.3023  0.1403
  147POPC   GL2 2249   7.495   6.599   8.207  0.2098 -0.1433  0.1319
  147POPC   C1A 2250   7.320   6.842   7.731 -0.1149 -0.3219 -0.2813
  147POPC   D2A 2251   7.425   6.848   7.293 -0.2175  0.1234  0.0316
  147POPC   C3A 2252   7.523   6.419   7.105 -0.4220  0.0503  0.1921
  147POPC   C4A 2253   7.856   6.150   6.849 -0.2768  0.1154  0.0717
  147POPC   C1B 2254   7.161   6.389   8.072 -0.0734  0.0439 -0.1206
  147POPC   C2B 2255   6.813   6.155   7.874  0.3222  0.1126 -0.0819
  147POPC   C3B 2256   6.633   5.803   7.623 -0.2051  0.2750 -0.2416
  147POPC   C4B 2257   6.691   5.474   7.458 -0.0337 -0.0004  0.1313
  148POPC   NC3 2258   7.285   1.461   8.900 -0.0140 -0.1482  0.1357
  148POPC   PO4 2259   6.837   1.344   8.762  0.0572 -0.0701  0.0171
  148POPC   GL1 2260   6.797   1.419   8.256 -0.1869  0.1522 -0.0241
  148POPC   GL2 2261   6.939   1.103   8.083  0.0728 -0.1164 -0.0779
  148POPC   C1A 2262   6.758   1.698   7.964 -0.1160 -0.3944 -0.3005
  148POPC   D2A 2263   6.362   1.726   7.624 -0.3697  0.0794  0.2774
  148POPC   C3A 2264   6.442   1.918   7.328 -0.0163 -0.2220  0.0203
  148POPC   C4A 2265   6.474   2.251   6.991  0.0308  0.2600  0.0033
  148POPC   C1B 2266   6.741   1.284   7.682  0.1643  0.2617 -0.1652
  148POPC   C2B 2267   6.404   1.194   7.425 -0.1322 -0.0888 -0.0091
  148POPC   C3B 2268   6.175   1.455   7.146  0.1353  0.1350  0.1293
  148POPC   C4B 2269   6.009   1.905   7.001 -0.2016 -0.3021  0.2026
  149POPC   NC3 2270   0.919   0.655   9.060 -0.2649  0.0978 -0.2126
  149POPC   PO4 2271   0.755   0.362   9.465  0.1387  0.0392 -0.0081
  149POPC   GL1 2272   0.519   0.351   9.096 -0.0877  0.2592  0.2587
  149POPC   GL2 2273   0.635   0.062   8.942  0.0611 -0.1664 -0.1923
  149POPC   C1A 2274   0.344   0.289   8.606 -0.3334 -0.0663  0.0791
  149POPC   D2A 2275   0.411   0.215   8.166  0.0358  0.0055  0.0310
  149POPC   C3A 2276   0.345  -0.093   7.866  0.0023  0.1456 -0.1516
  149POPC   C4A 2277   0.083  -0.203   7.592  0.1837 -0.3072  0.1949
  149POPC   C1B 2278   0.651  -0.118   8.525 -0.0752 -0.1079 -0.2715
  149POPC   C2B 2279   0.578  -0.298   8.233 -0.2791 -0.0958 -0.2267
  149POPC   C3B 2280   0.653  -0.471   7.741  0.2591 -0.1227  0.1844
  149POPC   C4B 2281   0.544  -0.240   7.308 -0.1177 -0.0402  0.1878
  150POPC   NC3 2282   5.953   4.179   9.309 -0.1695 -0.0250 -0.0151
  150POPC   PO4 2283   5.786   4.321   8.916  0.1416  0.3101 -0.1189
  150POPC   GL1 2284   5.851   4.206   8.526 -0.1504 -0.1268 -0.1300
  150POPC   GL2 2285   6.108   4.124   8.398  0.1300  0.1891  0.2751
  150POPC   C1A 2286   5.832   4.344   8.050  0.3337 -0.0419 -0.0834
  150POPC   D2A 2287   5.596   4.290   7.715  0.1750 -0.3387 -0.2728
  150POPC   C3A 2288   5.615   4.648   7.437 -0.0404 -0.2896 -0.0868
  150POPC   C4A 2289   5.460   4.898   7.092 -0.3601 -0.1696 -0.1607
  150POPC   C1B 2290   6.422   3.993   8.047  0.0622  0.1480  0.1283
  150POPC   C2B 2291   6.647   4.147   7.628 -0.0619  0.1294 -0.1810
  150POPC   C3B 2292   6.996   4.345   7.392 -0.2479 -0.0965 -0.2254
  150POPC   C4B 2293   7.092   4.323   6.932  0.2001 -0.0869 -0.1097
  151POPC   NC3 2294   5.369   0.299   8.721 -0.0651 -0.2949  0.2779
  151POPC   PO4 2295   5.285  -0.197   8.868  0.0272 -0.0547 -0.0104
  151POPC   GL1 2296   5.071  -0.209   8.445 -0.0104 -0.2001  0.1177
  151POPC   GL2 2297   5.268  -0.089   8.213  0.1304 -0.0877  0.0953
  151POPC   C1A 2298   4.950  -0.326   7.939  0.0515  0.2589  0.1777
  151POPC   D2A 2299   5.162  -0.740   7.911 -0.0981  0.0862  0.3927
  151POPC   C3A 2300   5.573  -0.738   7.656 -0.2055 -0.2320 -0.3513
  151POPC   C4A 2301   5.973  -0.919   7.520  0.0528 -0.0569  0.0847
  151POPC   C1B 2302   5.609   0.123   8.038  0.4509 -0.1147 -0.2301
  151POPC   C2B 2303   5.764   0.379   7.725  0.4044  0.1335  0.0886
  151POPC   C3B 2304   5.403   0.620   7.621 -0.0105 -0.0721  0.2159
  151POPC   C4B 2305   5.214   0.754   7.980  0.1369 -0.0639  0.1146
  152POPC   NC3 2306   5.153   4.998   9.039 -0.0611  0.1910 -0.0641
  152POPC   PO4 2307   5.188   4.946   8.700  0.0574 -0.2601  0.1947
  152POPC   GL1 2308   4.930   5.208   8.391  0.2135 -0.0963  0.0820
  152POPC   GL2 2309   4.667   5.088   8.574  0.1885 -0.1127  0.0382
  152POPC   C1A 2310   4.616   5.392   8.144 -0.2002  0.0342 -0.1150
  152POPC   D2A 2311   4.321   5.471   7.919  0.1262  0.1928  0.4454
  152POPC   C3A 2312   3.945   5.755   7.999  0.2264 -0.1529  0.0396
  152POPC   C4A 2313   3.443   5.694   7.882 -0.0982 -0.0863  0.1271
  152POPC   C1B 2314   4.397   5.381   8.552  0.1358 -0.2526 -0.1843
  152POPC   C2B 2315   4.019   5.339   8.405  0.1124  0.0044 -0.0291
  152POPC   C3B 2316   3.659   5.215   8.123 -0.0232 -0.1298  0.1063
  152POPC   C4B 2317   3.377   5.172   7.821  0.0158 -0.0462  0.3787
  153POPC   NC3 2318   9.115   8.558   8.694  0.0876 -0.1734 -0.2190
  153POPC   PO4 2319   8.900   8.884   8.624 -0.1493 -0.0936  0.0157
  153POPC   GL1 2320   8.707   9.245   8.354 -0.0124  0.2609 -0.0841
  153POPC   GL2 2321   8.792   9.076   8.130  0.1720  0.1028  0.1229
  153POPC   C1A 2322   8.329   9.314   8.072  0.2682  0.3653 -0.0086
  153POPC   D2A 2323   8.071   9.149   7.748  0.0288  0.0721  0.0597
  153POPC   C3A 2324   7.771   9.371   7.569 -0.4639  0.0502  0.2339
  153POPC   C4A 2325   7.508   9.729   7.381  0.1574 -0.1397 -0.4202
  153POPC   C1B 2326   8.938   9.264   7.807  0.3740 -0.1156 -0.2410
  153POPC   C2B 2327   9.128   9.584   7.673 -0.2711 -0.0707  0.1630
  153POPC   C3B 2328   9.263   9.808   7.300  0.0944 -0.2320 -0.1680
  153POPC   C4B 2329   8.955  10.008   6.958 -0.1979 -0.1139 -0.1018
  154POPC   NC3 2330   9.237   5.237   9.960  0.0219  0.0641  0.0351
  154POPC   PO4 2331   9.514   4.980   9.743 -0.1370 -0.4396  0.1089
  154POPC   GL1 2332   9.578   4.885   9.397 -0.1625 -0.0877  0.0456
  154POPC   GL2 2333   9.776   5.316   9.215  0.0716  0.1569 -0.1768
  154POPC   C1A 2334   9.525   4.979   8.943 -0.2544  0.0347 -0.0655
  154POPC   D2A 2335   9.643   4.897   8.562 -0.0935  0.3641 -0.0269
  154POPC   C3A 2336   9.966   5.071   8.362  0.3527  0.0976  0.3831
  154POPC   C4A 2337   9.982   5.351   7.992  0.1840 -0.1950  0.1140
  154POPC   C1B 2338  10.058   4.967   8.922  0.1635 -0.0655 -0.3143
  154POPC   C2B 2339  10.401   5.125   8.577  0.0809  0.0440 -0.4013
  154POPC   C3B 2340  10.409   5.177   8.183 -0.4618  0.0027 -0.0393
  154POPC   C4B 2341  10.392   5.680   8.054 -0.0243  0.0550 -0.0644
  155POPC   NC3 2342   7.172   2.716   8.925  0.2493 -0.0781  0.0098
  155POPC   PO4 2343   7.463   2.973   8.772  0.0150 -0.0983 -0.2335
  155POPC   GL1 2344   7.411   2.874   8.436  0.0661 -0.2131 -0.0862
  155POPC   GL2 2345   7.204   2.745   8.387 -0.1711  0.1220  0.1802
  155POPC   C1A 2346   7.661   3.024   8.031  0.0926 -0.1646  0.0094
  155POPC   D2A 2347   7.331   3.040   7.632  0.2481  0.3070 -0.0462
  155POPC   C3A 2348   7.514   3.240   7.270  0.1190 -0.2382  0.1637
  155POPC   C4A 2349   7.557   3.334   6.868 -0.3682  0.1158  0.1049
  155POPC   C1B 2350   7.395   2.619   7.992  0.3563 -0.3055 -0.1055
  155POPC   C2B 2351   7.710   2.722   7.647  0.0048  0.3336 -0.3975
  155POPC   C3B 2352   7.952   2.810   7.247  0.1838 -0.0748 -0.0517
  155POPC   C4B 2353   8.225   2.542   6.946  0.1367 -0.1801  0.0714
  156POPC   NC3 2354   1.309   8.527   9.779  0.1035  0.2407 -0.1843
  156POPC   PO4 2355   1.697   8.217   9.762 -0.0643  0.0117  0.1949
  156POPC   GL1 2356   1.648   8.015   9.343  0.1868 -0.2458  0.3115
  156POPC   GL2 2357   1.826   7.729   9.403  0.2155  0.0645 -0.0272
  156POPC   C1A 2358   1.799   7.985   8.976 -0.0729 -0.2662  0.1740
  156POPC   D2A 2359   1.951   7.874   8.494 -0.3069  0.0041 -0.1797
  156POPC   C3A 2360   1.863   7.791   8.072 -0.0937  0.0624  0.2662
  156POPC   C4A 2361   1.878   7.672   7.552  0.1095  0.1530 -0.1207
  156POPC   C1B 2362   1.717   7.432   9.260 -0.3596  0.0953  0.1913
  156POPC   C2B 2363   1.523   7.212   9.063  0.0488  0.0075  0.1581
  156POPC   C3B 2364   1.415   6.895   8.766 -0.3702 -0.0408  0.1361
  156POPC   C4B 2365   1.426   6.766   8.305  0.1008 -0.0235  0.2831
  157POPC   NC3 2366   6.207   7.181   9.245  0.2098  0.0002  0.0687
  157POPC   PO4 2367   6.207   6.901   8.878 -0.0622 -0.0841 -0.1804
  157POPC   GL1 2368   6.204   6.904   8.452  0.2104  0.1923 -0.1217
  157POPC   GL2 2369   5.997   6.945   8.202 -0.1141 -0.6007  0.1662
  157POPC   C1A 2370   6.460   6.669   8.109 -0.2348  0.1321 -0.2392
  157POPC   D2A 2371   6.859   6.726   7.826 -0.2369 -0.3388  0.2612
  157POPC   C3A 2372   6.940   7.005   7.492 -0.0427  0.1854 -0.2732
  157POPC   C4A 2373   6.985   7.255   7.074 -0.2017  0.1723 -0.0878
  157POPC   C1B 2374   6.335   7.088   7.915 -0.0458 -0.0289  0.0653
  157POPC   C2B 2375   6.382   7.048   7.598  0.3254 -0.0846 -0.1503
  157POPC   C3B 2376   6.563   7.048   7.154 -0.0108 -0.0298 -0.0813
  157POPC   C4B 2377   6.683   6.929   6.715  0.0463  0.2657 -0.0338
  158POPC   NC3 2378   3.909  10.161   8.821  0.0995 -0.3565  0.0345
  158POPC   PO4 2379   3.450  10.316   8.803 -0.0939  0.1399 -0.1174
  158POPC   GL1 2380   3.351  10.053   8.440  0.0432 -0.2317 -0.2999
  158POPC   GL2 2381   3.648   9.981   8.359  0.0033 -0.0149  0.1923
  158POPC   C1A 2382   2.976   9.934   8.108 -0.3281 -0.3419 -0.4309
  158POPC   D2A 2383   2.915  10.261   7.766 -0.0769  0.1702 -0.2315
  158POPC   C3A 2384   3.368  10.175   7.524  0.2715 -0.1785  0.1413
  158POPC   C4A 2385   3.754  10.090   7.295 -0.1752 -0.3252 -0.1683
  158POPC   C1B 2386   3.546   9.823   8.024  0.1335 -0.1316  0.1064
  158POPC   C2B 2387   3.597   9.592   7.603 -0.1042 -0.0966 -0.1336
  158POPC   C3B 2388   3.218   9.639   7.438  0.0210  0.0450  0.0610
  158POPC   C4B 2389   3.059   9.570   7.081  0.2447 -0.2240 -0.0864
  159POPC   NC3 2390   3.150   2.883   8.757 -0.5050  0.2503 -0.1817
  159POPC   PO4 2391   3.377   3.207   8.773  0.1468 -0.1625  0.0441
  159POPC   GL1 2392   3.408   3.203   8.254  0.1720 -0.1188 -0.3083
  159POPC   GL2 2393   3.370   3.511   8.173  0.2560  0.2048  0.3394
  159POPC   C1A 2394   3.685   2.939   7.958  0.0095  0.0740 -0.1695
  159POPC   D2A 2395   3.677   2.602   7.621 -0.0473 -0.3820  0.3004
  159POPC   C3A 2396   3.863   2.288   7.376 -0.0510  0.3322 -0.2701
  159POPC   C4A 2397   3.988   1.861   7.161 -0.1543 -0.0414  0.3026
  159POPC   C1B 2398   3.622   3.702   7.776 -0.3785 -0.1445 -0.1249
  159POPC   C2B 2399   3.414   3.905   7.346  0.3711  0.0964 -0.3476
  159POPC   C3B 2400   3.056   3.993   7.196  0.1663 -0.2855 -0.1184
  159POPC   C4B 2401   2.893   4.194   7.025  0.0026  0.0145  0.2164
  160POPC   NC3 2402   1.218   0.055   9.584 -0.2514 -0.0336 -0.0075
  160POPC   PO4 2403   1.151   0.223   9.138  0.0934  0.1347 -0.0889
  160POPC   GL1 2404   1.231   0.024   8.711  0.3104  0.1254  0.0048
  160POPC   GL2 2405   1.344   0.376   8.706  0.0126 -0.1987 -0.0198
  160POPC   C1A 2406   1.173  -0.201   8.401  0.2259  0.0379  0.2055
  160POPC   D2A 2407   1.050  -0.218   8.018  0.1974  0.0173 -0.0022
  160POPC   C3A 2408   0.823   0.029   7.742 -0.0498  0.1349  0.0361
  160POPC   C4A 2409   0.572   0.301   7.644 -0.1150  0.0133  0.0714
  160POPC   C1B 2410   1.645   0.091   8.347 -0.0646  0.1693  0.3501
  160POPC   C2B 2411   1.575  -0.166   8.068 -0.1883 -0.6583  0.0138
  160POPC   C3B 2412   1.494  -0.185   7.679 -0.0092 -0.1223  0.5035
  160POPC   C4B 2413   1.663  -0.431   7.357 -0.0038 -0.0668  0.3134
  161POPC   NC3 2414   1.279   1.917   8.957 -0.0968 -0.1633 -0.0986
  161POPC   PO4 2415   1.460   2.233   8.889 -0.0115  0.3394  0.2551
  161POPC   GL1 2416   1.374   2.315   8.487  0.5416  0.1635  0.1480
  161POPC   GL2 2417   1.445   2.571   8.359 -0.1456  0.0887 -0.0627
  161POPC   C1A 2418   1.059   2.332   8.078 -0.1576  0.1149  0.2496
  161POPC   D2A 2419   0.902   2.404   7.685 -0.1010 -0.1044  0.2057
  161POPC   C3A 2420   0.398   2.324   7.615 -0.0652 -0.0834  0.2683
  161POPC   C4A 2421   0.012   2.377   7.438  0.3185 -0.1699  0.0257
  161POPC   C1B 2422   1.552   2.265   7.925  0.1983  0.0863 -0.1588
  161POPC   C2B 2423   1.643   2.106   7.530 -0.2381 -0.1958 -0.1669
  161POPC   C3B 2424   1.412   1.892   7.252  0.0605  0.0146 -0.1067
  161POPC   C4B 2425   1.466   1.487   7.147  0.0810  0.0401 -0.3610
  162POPC   NC3 2426   4.399   8.290   8.329  0.3057  0.0849 -0.0868
  162POPC   PO4 2427   4.871   8.215   8.507  0.0415  0.0067 -0.1382
  162POPC   GL1 2428   4.858   8.426   8.120  0.2352  0.1910  0.1907
  162POPC   GL2 2429   5.017   8.820   8.044  0.1441 -0.0437 -0.3117
  162POPC   C1A 2430   4.799   8.461   7.694  0.1841  0.0595  0.1517
  162POPC   D2A 2431   4.688   8.422   7.257  0.1146  0.0351 -0.3903
  162POPC   C3A 2432   4.669   8.770   7.000 -0.0089 -0.3207 -0.0988
  162POPC   C4A 2433   4.596   9.094   6.620  0.3964  0.1189 -0.1874
  162POPC   C1B 2434   5.121   8.902   7.722  0.3313  0.0131  0.0792
  162POPC   C2B 2435   5.033   8.913   7.334  0.1334  0.0754 -0.3432
  162POPC   C3B 2436   5.066   9.034   6.797 -0.0638 -0.4651  0.1888
  162POPC   C4B 2437   5.409   8.830   6.682 -0.1818  0.1301 -0.1212
  163POPC   NC3 2438   8.458   9.121   8.955  0.1431  0.2432 -0.2412
  163POPC   PO4 2439   8.623   9.470   8.862  0.2330  0.1903 -0.0788
  163POPC   GL1 2440   8.758   9.677   8.579 -0.3157  0.2894 -0.0037
  163POPC   GL2 2441   9.021   9.676   8.500 -0.0260  0.1026  0.0700
  163POPC   C1A 2442   8.561   9.745   8.110 -0.2988 -0.0612 -0.3788
  163POPC   D2A 2443   8.450   9.677   7.725  0.0747  0.0167  0.1716
  163POPC   C3A 2444   8.313   9.403   7.403  0.0087  0.2157  0.0553
  163POPC   C4A 2445   8.236   9.068   7.309 -0.1002  0.1002  0.1045
  163POPC   C1B 2446   9.308   9.588   8.130 -0.0126  0.1451 -0.0709
  163POPC   C2B 2447   9.628   9.534   7.842  0.0602 -0.1583 -0.2019
  163POPC   C3B 2448   9.697   9.534   7.418 -0.0296 -0.1333  0.0693
  163POPC   C4B 2449   9.843   9.676   6.999  0.1058  0.0852 -0.0942
  164POPC   NC3 2450   9.329   0.979   9.007 -0.2676  0.0542  0.0910
  164POPC   PO4 2451   8.930   1.103   8.789  0.0798 -0.2658  0.2977
  164POPC   GL1 2452   8.895   1.132   8.405  0.1582 -0.0888  0.1428
  164POPC   GL2 2453   8.796   0.802   8.320 -0.3024  0.2115 -0.1174
  164POPC   C1A 2454   9.093   1.214   7.953 -0.0268  0.0606  0.1032
  164POPC   D2A 2455   9.258   1.446   7.549  0.0258  0.1643 -0.0968
  164POPC   C3A 2456   9.411   1.689   7.461  0.0063  0.0756 -0.1880
  164POPC   C4A 2457   9.901   1.899   7.437 -0.2722 -0.1767 -0.0952
  164POPC   C1B 2458   8.949   0.410   8.251  0.0096  0.0449 -0.0082
  164POPC   C2B 2459   9.126   0.091   8.246 -0.2075  0.2792  0.2302
  164POPC   C3B 2460   9.157  -0.305   8.130  0.1071  0.1924 -0.0920
  164POPC   C4B 2461   8.858  -0.489   7.775  0.0005 -0.2212 -0.4832
  165POPC   NC3 2462   4.084   9.245   8.841  0.1531  0.3461  0.0695
  165POPC   PO4 2463   3.642   9.292   8.863  0.3400  0.1875 -0.2170
  165POPC   GL1 2464   3.702   9.044   8.458 -0.2087  0.1221  0.1359
  165POPC   GL2 2465   3.413   8.875   8.281 -0.2469 -0.3319 -0.0570
  165POPC   C1A 2466   3.786   8.817   8.036 -0.0061 -0.4184  0.3239
  165POPC   D2A 2467   3.825   8.676   7.650 -0.1417  0.0258  0.0242
  165POPC   C3A 2468   3.672   8.630   7.220  0.1031  0.1548 -0.2200
  165POPC   C4A 2469   3.374   8.449   6.927 -0.1367  0.0918 -0.0923
  165POPC   C1B 2470   3.163   8.799   7.895 -0.2237 -0.1294  0.0377
  165POPC   C2B 2471   2.757   8.707   7.712 -0.2897  0.3579 -0.0086
  165POPC   C3B 2472   2.673   8.430   7.463  0.2978 -0.2059 -0.2547
  165POPC   C4B 2473   2.601   8.004   7.099  0.1521 -0.0886 -0.1439
  166POPC   NC3 2474   3.649   3.908   9.331 -0.0827  0.0315 -0.2202
  166POPC   PO4 2475   3.215   3.825   9.120  0.0994 -0.1473 -0.2531
  166POPC   GL1 2476   3.357   3.937   8.737 -0.3024  0.1773  0.1212
  166POPC   GL2 2477   3.290   3.661   8.622 -0.0436  0.3298  0.1122
  166POPC   C1A 2478   3.205   3.962   8.222 -0.0122  0.3348 -0.0456
  166POPC   D2A 2479   3.373   4.182   7.886 -0.0159 -0.2779 -0.1186
  166POPC   C3A 2480   3.134   4.615   7.704  0.1478  0.0568  0.1956
  166POPC   C4A 2481   2.729   4.766   7.895 -0.1727 -0.1814 -0.0429
  166POPC   C1B 2482   3.675   3.836   8.327 -0.1887  0.1836  0.6051
  166POPC   C2B 2483   3.840   4.138   7.984  0.1972 -0.1268  0.2718
  166POPC   C3B 2484   4.169   4.399   7.838 -0.1498 -0.1039  0.3682
  166POPC   C4B 2485   4.474   4.446   7.515  0.2607 -0.0275  0.0728
  167POPC   NC3 2486   3.072   9.722   8.753  0.1917  0.0383 -0.2523
  167POPC   PO4 2487   3.174   9.224   8.895 -0.3992 -0.1218  0.0808
  167POPC   GL1 2488   3.120   9.223   8.460  0.2210  0.0087 -0.0392
  167POPC   GL2 2489   3.423   9.510   8.397 -0.0310  0.1766 -0.1392
  167POPC   C1A 2490   2.863   8.989   8.193 -0.2750  0.0846 -0.5966
  167POPC   D2A 2491   2.536   9.128   7.992  0.1366  0.3779  0.0840
  167POPC   C3A 2492   2.527   9.025   7.481  0.1310 -0.1660  0.1311
  167POPC   C4A 2493   2.411   8.774   7.078 -0.1248  0.0660  0.0914
  167POPC   C1B 2494   3.378   9.309   8.016  0.1349  0.1103  0.3176
  167POPC   C2B 2495   3.496   9.095   7.551  0.2599  0.2828  0.0876
  167POPC   C3B 2496   3.401   8.999   7.090  0.5993  0.0630  0.2134
  167POPC   C4B 2497   3.114   9.116   6.684  0.0728 -0.1151  0.0564
  168POPC   NC3 2498   5.017   8.864   4.531  0.3077 -0.1896  0.0483
  168POPC   PO4 2499   5.092   8.965   4.899  0.2204  0.1943  0.0097
  168POPC   GL1 2500   5.020   9.015   5.326  0.0582 -0.1258  0.0154
  168POPC   GL2 2501   4.737   8.983   5.292 -0.1306 -0.0941  0.4809
  168POPC   C1A 2502   5.044   8.925   5.670 -0.1443  0.1933 -0.1937
  168POPC   D2A 2503   5.200   9.037   6.163  0.3538  0.0242  0.1523
  168POPC   C3A 2504   5.485   9.462   6.205 -0.0066 -0.1887  0.1763
  168POPC   C4A 2505   5.590   9.760   6.637  0.1810  0.1725 -0.0217
  168POPC   C1B 2506   4.516   8.930   5.636  0.0255 -0.1125 -0.1045
  168POPC   C2B 2507   4.621   9.129   6.089  0.0585 -0.1491 -0.1991
  168POPC   C3B 2508   4.882   9.390   6.377  0.1318 -0.0255 -0.0724
  168POPC   C4B 2509   5.173   9.513   6.758 -0.1859  0.1088 -0.3225
  169POPC   NC3 2510   0.822   9.032   4.703 -0.1325  0.1253  0.2332
  169POPC   PO4 2511   1.142   8.856   4.519 -0.1698  0.0073 -0.2908
  169POPC   GL1 2512   1.085   8.691   4.990 -0.0434  0.0885  0.1845
  169POPC   GL2 2513   1.152   8.386   5.033 -0.3588  0.0992 -0.0268
  169POPC   C1A 2514   0.667   8.366   5.034 -0.0638  0.0396  0.2542
  169POPC   D2A 2515   0.466   8.002   5.154 -0.1493  0.2664 -0.2134
  169POPC   C3A 2516   0.640   7.731   5.393 -0.0456 -0.0694 -0.2413
  169POPC   C4A 2517   0.710   7.220   5.459  0.2200  0.0835  0.0722
  169POPC   C1B 2518   1.116   8.032   5.174 -0.2194 -0.0128  0.0309
  169POPC   C2B 2519   1.089   7.833   5.551  0.0947 -0.0472 -0.1453
  169POPC   C3B 2520   1.127   7.726   6.053 -0.1841 -0.2111 -0.0428
  169POPC   C4B 2521   1.023   7.379   6.248 -0.2325  0.1914  0.0763
  170POPC   NC3 2522   8.500   5.592   4.828  0.5062  0.0808  0.0149
  170POPC   PO4 2523   8.107   5.530   5.058 -0.4377 -0.2047 -0.0426
  170POPC   GL1 2524   8.370   5.826   5.280 -0.1574  0.1162  0.2164
  170POPC   GL2 2525   8.274   6.198   5.284 -0.1596  0.1190 -0.3039
  170POPC   C1A 2526   8.377   5.890   5.738  0.5420 -0.0797  0.0353
  170POPC   D2A 2527   8.564   5.900   6.239  0.0260 -0.0033 -0.1768
  170POPC   C3A 2528   8.670   6.245   6.378 -0.0415 -0.0757 -0.1275
  170POPC   C4A 2529   8.642   6.615   6.385 -0.1551  0.0738 -0.1691
  170POPC   C1B 2530   8.035   6.407   5.653 -0.2690  0.0696  0.0072
  170POPC   C2B 2531   7.741   6.257   6.103 -0.0649  0.0209  0.0457
  170POPC   C3B 2532   7.527   6.164   6.408 -0.2448  0.0987 -0.1598
  170POPC   C4B 2533   7.312   6.107   6.767  0.1119  0.0919  0.0169
  171POPC   NC3 2534   1.719   3.295   4.950  0.1801 -0.2198 -0.2359
  171POPC   PO4 2535   1.991   3.569   4.805  0.0729 -0.1049 -0.0421
  171POPC   GL1 2536   2.076   3.569   5.260 -0.0267  0.1579  0.0725
  171POPC   GL2 2537   1.897   3.371   5.395 -0.0663 -0.3894 -0.2373
  171POPC   C1A 2538   2.268   3.695   5.680 -0.2729 -0.1556  0.1362
  171POPC   D2A 2539   2.459   3.936   6.036  0.1232  0.0076  0.0640
  171POPC   C3A 2540   2.238   4.139   6.286  0.1212  0.0422 -0.0747
  171POPC   C4A 2541   1.967   4.421   6.374 -0.0789  0.2846 -0.2309
  171POPC   C1B 2542   1.670   3.548   5.828  0.0592  0.1169 -0.0093
  171POPC   C2B 2543   1.629   3.252   6.089  0.1018 -0.1899 -0.0145
  171POPC   C3B 2544   1.683   3.198   6.542 -0.4345  0.0615 -0.0881
  171POPC   C4B 2545   1.844   3.361   6.837  0.2611 -0.0015 -0.0183
  172POPC   NC3 2546   5.234   7.583   4.735  0.1317  0.2477 -0.0522
  172POPC   PO4 2547   4.817   7.618   4.746  0.1678  0.4206  0.2681
  172POPC   GL1 2548   4.909   7.525   5.105 -0.1607 -0.4404  0.1227
  172POPC   GL2 2549   4.680   7.277   5.129 -0.1182  0.3464 -0.2388
  172POPC   C1A 2550   4.890   7.592   5.521 -0.3258 -0.1080  0.3471
  172POPC   D2A 2551   5.093   7.548   5.937 -0.1263 -0.2631 -0.0026
  172POPC   C3A 2552   5.187   7.915   6.226  0.1280  0.1339 -0.0661
  172POPC   C4A 2553   5.398   7.686   6.493 -0.0078  0.0089 -0.2803
  172POPC   C1B 2554   4.637   7.159   5.574 -0.2261 -0.3334 -0.0748
  172POPC   C2B 2555   4.663   7.366   5.957  0.0393  0.2203 -0.0213
  172POPC   C3B 2556   4.751   7.571   6.328 -0.0344 -0.0229 -0.0200
  172POPC   C4B 2557   4.912   7.786   6.663  0.1215 -0.1112 -0.2680
  173POPC   NC3 2558   7.311   8.442   5.322 -0.0364  0.3431  0.1568
  173POPC   PO4 2559   7.775   8.469   5.389 -0.1142 -0.1661 -0.0596
  173POPC   GL1 2560   7.587   8.632   5.686 -0.0375  0.2382  0.0802
  173POPC   GL2 2561   7.182   8.510   5.744 -0.1437 -0.0507 -0.1935
  173POPC   C1A 2562   7.566   8.568   6.135  0.1871 -0.3514  0.3358
  173POPC   D2A 2563   7.394   8.306   6.452 -0.1427  0.2471 -0.1045
  173POPC   C3A 2564   7.360   7.921   6.458  0.1310  0.0469  0.2004
  173POPC   C4A 2565   7.072   7.637   6.304 -0.2022 -0.3767  0.0234
  173POPC   C1B 2566   7.059   8.681   6.150 -0.1520  0.1600  0.2896
  173POPC   C2B 2567   6.798   8.872   6.519  0.1143  0.2162  0.2175
  173POPC   C3B 2568   6.842   8.770   6.981 -0.2096  0.0005  0.1194
  173POPC   C4B 2569   6.526   8.852   7.190  0.3034  0.2182  0.1406
  174POPC   NC3 2570  10.179   8.996   4.588 -0.0645 -0.1643 -0.1867
  174POPC   PO4 2571   9.835   8.777   4.296  0.5522 -0.2078 -0.0078
  174POPC   GL1 2572   9.679   8.725   4.732 -0.2490  0.1934  0.1546
  174POPC   GL2 2573   9.835   8.945   5.070  0.2237 -0.0726  0.0691
  174POPC   C1A 2574   9.710   8.393   5.152  0.1190  0.1457  0.1479
  174POPC   D2A 2575   9.749   8.028   5.337 -0.2439  0.0346 -0.1404
  174POPC   C3A 2576   9.721   7.888   5.720 -0.2564  0.0131 -0.1815
  174POPC   C4A 2577   9.355   7.826   5.996 -0.0447 -0.1278  0.2452
  174POPC   C1B 2578  10.162   8.696   5.269 -0.2199  0.1186 -0.1297
  174POPC   C2B 2579  10.087   8.398   5.575  0.2029  0.3164 -0.1317
  174POPC   C3B 2580  10.215   7.899   5.732 -0.0310 -0.2009  0.0687
  174POPC   C4B 2581  10.072   7.704   6.090  0.1684  0.2439 -0.3086
  175POPC   NC3 2582   9.016   6.075   4.059 -0.0857 -0.0749 -0.0294
  175POPC   PO4 2583   9.424   6.278   3.999  0.0578  0.0430  0.0085
  175POPC   GL1 2584   9.674   6.242   4.391  0.4553  0.2134  0.3746
  175POPC   GL2 2585   9.502   6.336   4.660  0.2858  0.0155 -0.1219
  175POPC   C1A 2586  10.023   6.349   4.655  0.1081  0.0598 -0.2298
  175POPC   D2A 2587  10.285   6.529   4.982  0.1043  0.0755 -0.1515
  175POPC   C3A 2588  10.256   6.812   5.278  0.1384 -0.0434  0.2192
  175POPC   C4A 2589  10.028   7.036   5.661 -0.0780 -0.1075  0.1641
  175POPC   C1B 2590   9.719   6.000   4.835  0.3002 -0.0710  0.0025
  175POPC   C2B 2591  10.077   5.878   4.828  0.1791  0.0616 -0.0019
  175POPC   C3B 2592  10.425   6.004   4.916  0.0460  0.3352 -0.1152
  175POPC   C4B 2593  10.826   5.913   4.692  0.0158 -0.1552 -0.1415
  176POPC   NC3 2594   9.468   8.252   3.830  0.1369  0.1364  0.0011
  176POPC   PO4 2595   9.812   8.295   4.124  0.0315  0.3218  0.2928
  176POPC   GL1 2596   9.649   8.191   4.578  0.1030  0.3516  0.2734
  176POPC   GL2 2597   9.794   8.000   4.751  0.2400 -0.1923 -0.0962
  176POPC   C1A 2598   9.293   8.086   4.971 -0.1119  0.0220  0.3759
  176POPC   D2A 2599   9.301   7.843   5.299  0.2161  0.1347  0.0715
  176POPC   C3A 2600   8.957   7.911   5.506 -0.2937 -0.0195  0.2480
  176POPC   C4A 2601   8.667   8.061   5.797 -0.2251 -0.1617 -0.0422
  176POPC   C1B 2602   9.824   7.662   5.007  0.2178  0.0911  0.0880
  176POPC   C2B 2603   9.858   7.524   5.510 -0.2209 -0.2235 -0.0183
  176POPC   C3B 2604   9.737   7.390   5.911  0.0216 -0.0228 -0.2801
  176POPC   C4B 2605   9.601   7.544   6.386 -0.2083  0.0888 -0.4548
  177POPC   NC3 2606   0.989   3.722   4.539  0.0476  0.0244 -0.0325
  177POPC   PO4 2607   1.463   3.723   4.592 -0.3139 -0.1288  0.2254
  177POPC   GL1 2608   1.301   3.595   5.023 -0.0748 -0.0080  0.2988
  177POPC   GL2 2609   1.544   3.763   5.253 -0.0779  0.0405 -0.2213
  177POPC   C1A 2610   1.136   3.436   5.495 -0.0792 -0.1969  0.2164
  177POPC   D2A 2611   0.753   3.579   5.726  0.0101  0.1403  0.4431
  177POPC   C3A 2612   0.590   3.919   5.790  0.1172 -0.2621  0.0679
  177POPC   C4A 2613   0.304   4.145   6.006 -0.0477 -0.1459 -0.2354
  177POPC   C1B 2614   1.826   3.924   5.575  0.0518  0.2409 -0.0727
  177POPC   C2B 2615   2.022   4.142   5.756  0.0856  0.0033 -0.0764
  177POPC   C3B 2616   2.188   4.504   5.941 -0.1526  0.1938 -0.1763
  177POPC   C4B 2617   2.276   4.910   6.096 -0.1594 -0.0558 -0.1661
  178POPC   NC3 2618   5.913   9.012   4.359  0.1522 -0.0019 -0.2873
  178POPC   PO4 2619   6.331   8.845   4.591 -0.0282  0.2949  0.1571
  178POPC   GL1 2620   6.206   8.749   5.094  0.1569  0.0030  0.1928
  178POPC   GL2 2621   5.971   8.989   5.018  0.0990  0.0763  0.2613
  178POPC   C1A 2622   6.232   8.586   5.559  0.1342  0.0287  0.1897
  178POPC   D2A 2623   6.237   8.557   6.014 -0.0946  0.1169 -0.2294
  178POPC   C3A 2624   6.441   8.956   6.210  0.0787  0.1129  0.5310
  178POPC   C4A 2625   6.533   9.356   6.448 -0.2777 -0.0187  0.0593
  178POPC   C1B 2626   5.886   8.921   5.437  0.2008  0.2135  0.7241
  178POPC   C2B 2627   5.673   8.630   5.680 -0.0648 -0.0586 -0.0640
  178POPC   C3B 2628   5.330   8.384   5.653  0.0438 -0.0893 -0.2456
  178POPC   C4B 2629   5.196   8.007   5.724  0.3544  0.1569 -0.0254
  179POPC   NC3 2630   1.924   5.225   3.871  0.3083  0.0307  0.2332
  179POPC   PO4 2631   2.068   4.945   4.097  0.1474 -0.1571  0.0602
  179POPC   GL1 2632   2.053   5.251   4.368  0.3207  0.2628  0.4004
  179POPC   GL2 2633   2.143   5.097   4.775 -0.2537  0.1625  0.1522
  179POPC   C1A 2634   1.844   5.565   4.625 -0.1464  0.2018  0.1316
  179POPC   D2A 2635   1.775   5.713   5.075  0.1305  0.0690 -0.1064
  179POPC   C3A 2636   2.093   5.706   5.405  0.0553  0.1453 -0.3515
  179POPC   C4A 2637   2.288   5.369   5.710 -0.0583 -0.1501  0.0029
  179POPC   C1B 2638   1.807   5.240   5.020 -0.4064  0.0161 -0.3019
  179POPC   C2B 2639   1.777   5.346   5.437  0.0614  0.1044  0.3772
  179POPC   C3B 2640   1.628   5.213   5.842 -0.0589  0.0146  0.0338
  179POPC   C4B 2641   1.269   5.049   6.192 -0.0360 -0.0345  0.1035
  180POPC   NC3 2642   6.761   9.052   4.745  0.3144  0.0248  0.2513
  180POPC   PO4 2643   6.770   8.618   5.016 -0.1932 -0.0746  0.1178
  180POPC   GL1 2644   6.790   8.869   5.352  0.3366 -0.0660 -0.2064
  180POPC   GL2 2645   7.129   8.930   5.548  0.0894 -0.0173 -0.1600
  180POPC   C1A 2646   6.673   8.716   5.833 -0.0548  0.0899 -0.2037
  180POPC   D2A 2647   6.627   8.452   6.209  0.1253  0.0999  0.2356
  180POPC   C3A 2648   6.388   8.723   6.623  0.2210  0.0296 -0.0933
  180POPC   C4A 2649   6.262   9.087   6.784  0.1935  0.3190 -0.2694
  180POPC   C1B 2650   7.323   9.046   5.943  0.0690  0.0049 -0.3091
  180POPC   C2B 2651   7.311   8.908   6.498 -0.0844  0.2751  0.3716
  180POPC   C3B 2652   7.314   9.069   6.964 -0.1732 -0.3645 -0.0838
  180POPC   C4B 2653   7.407   9.205   7.315  0.2823 -0.0500 -0.2818
  181POPC   NC3 2654   6.667   2.563   4.958  0.1961  0.2680 -0.1223
  181POPC   PO4 2655   7.162   2.603   4.875  0.1769 -0.1743 -0.2032
  181POPC   GL1 2656   7.106   2.633   5.313 -0.0038  0.2063  0.1319
  181POPC   GL2 2657   6.828   2.880   5.435  0.1134 -0.0311  0.0160
  181POPC   C1A 2658   7.182   2.717   5.702 -0.2381  0.1591  0.3590
  181POPC   D2A 2659   7.305   2.696   6.081 -0.0401 -0.3450 -0.2133
  181POPC   C3A 2660   7.301   3.076   6.369  0.2850 -0.1910 -0.0274
  181POPC   C4A 2661   6.989   3.265   6.696  0.1982  0.0460  0.0341
  181POPC   C1B 2662   6.525   3.203   5.590 -0.1676  0.1558  0.3427
  181POPC   C2B 2663   6.487   3.281   5.924  0.0289  0.3766  0.3485
  181POPC   C3B 2664   6.146   3.523   6.125 -0.2563  0.1254 -0.1455
  181POPC   C4B 2665   6.231   3.644   6.612 -0.0893  0.1714  0.2366
  182POPC   NC3 2666   9.186  10.386   5.107 -0.1823 -0.3419 -0.2908
  182POPC   PO4 2667   8.870  10.012   5.125  0.1369 -0.5117 -0.2541
  182POPC   GL1 2668   8.898  10.137   5.551  0.2051 -0.3098  0.0026
  182POPC   GL2 2669   9.153   9.932   5.754 -0.0471  0.0022  0.3730
  182POPC   C1A 2670   8.668   9.963   5.958 -0.1874  0.1965 -0.2007
  182POPC   D2A 2671   8.900   9.892   6.406 -0.1992 -0.2555 -0.0007
  182POPC   C3A 2672   9.068  10.340   6.622  0.2387 -0.2633  0.0922
  182POPC   C4A 2673   9.117  10.457   7.105  0.0165 -0.1434 -0.2780
  182POPC   C1B 2674   9.028  10.275   6.048  0.0866 -0.3939 -0.0025
  182POPC   C2B 2675   8.891  10.658   6.103  0.2111 -0.0371 -0.1367
  182POPC   C3B 2676   8.753  10.926   6.333  0.2744  0.1850  0.1545
  182POPC   C4B 2677   8.456  11.343   6.501  0.2971 -0.2806  0.0473
  183POPC   NC3 2678   0.026   5.652   3.404  0.1597  0.0402  0.0445
  183POPC   PO4 2679  -0.066   5.906   3.709  0.3212 -0.1147 -0.0729
  183POPC   GL1 2680  -0.164   5.991   4.112 -0.1725  0.1767 -0.0263
  183POPC   GL2 2681  -0.383   5.974   4.267 -0.0809 -0.3795  0.0993
  183POPC   C1A 2682   0.036   6.228   4.457 -0.1873 -0.1634  0.1093
  183POPC   D2A 2683   0.266   6.437   4.760 -0.0003  0.0032  0.0344
  183POPC   C3A 2684   0.357   6.219   5.139  0.4193  0.1550 -0.1012
  183POPC   C4A 2685   0.027   6.261   5.386 -0.0891 -0.1433  0.2122
  183POPC   C1B 2686  -0.424   5.539   4.389  0.2056 -0.0280 -0.0870
  183POPC   C2B 2687  -0.240   5.168   4.335 -0.0872 -0.1687  0.0544
  183POPC   C3B 2688  -0.032   4.956   4.606 -0.0726 -0.1871 -0.2869
  183POPC   C4B 2689   0.462   4.940   4.577  0.0937  0.0800  0.0090
  184POPC   NC3 2690  10.385   2.243   4.537  0.0476  0.1165 -0.0947
  184POPC   PO4 2691  10.365   2.322   4.982 -0.1177  0.1897  0.1096
  184POPC   GL1 2692  10.395   2.347   5.392  0.0809 -0.2515 -0.0908
  184POPC   GL2 2693  10.285   2.682   5.584  0.1305 -0.2531  0.1447
  184POPC   C1A 2694  10.555   2.336   5.856  0.3972  0.1760  0.0243
  184POPC   D2A 2695  10.800   2.098   6.087  0.0307  0.1142  0.0237
  184POPC   C3A 2696  10.716   2.278   6.463 -0.1408  0.1785 -0.2285
  184POPC   C4A 2697  10.811   2.496   6.914 -0.0717  0.0371  0.1323
  184POPC   C1B 2698  10.195   2.673   6.008  0.2293 -0.1063 -0.2843
  184POPC   C2B 2699  10.281   2.797   6.449 -0.0674 -0.0183  0.0792
  184POPC   C3B 2700  10.324   2.880   6.774 -0.0493  0.0939  0.2882
  184POPC   C4B 2701  10.234   2.710   7.085 -0.1684 -0.0320  0.2097
  185POPC   NC3 2702   8.134   5.282   4.530  0.2148  0.1222 -0.0951
  185POPC   PO4 2703   7.836   5.179   4.833  0.0460  0.0666  0.2345
  185POPC   GL1 2704   7.747   5.184   5.292 -0.0424  0.3130 -0.1449
  185POPC   GL2 2705   7.952   5.445   5.460  0.1928  0.4339 -0.0691
  185POPC   C1A 2706   7.622   5.033   5.637 -0.0136 -0.0945 -0.0687
  185POPC   D2A 2707   7.793   5.012   5.998 -0.4323 -0.0016 -0.0944
  185POPC   C3A 2708   7.592   5.040   6.333  0.0544  0.0133  0.0193
  185POPC   C4A 2709   7.220   5.240   6.528 -0.0785  0.1960  0.0025
  185POPC   C1B 2710   8.173   5.423   5.883 -0.0336  0.0446  0.0224
  185POPC   C2B 2711   8.431   5.412   6.239 -0.2987 -0.0658 -0.1293
  185POPC   C3B 2712   8.530   5.535   6.610 -0.1974 -0.4104  0.1864
  185POPC   C4B 2713   8.754   5.940   6.860 -0.0417 -0.1794 -0.1276
  186POPC   NC3 2714   3.126   9.008   4.441 -0.0267 -0.1550 -0.1408
  186POPC   PO4 2715   3.524   9.155   4.245 -0.0704  0.0634  0.0347
  186POPC   GL1 2716   3.580   9.032   4.717 -0.0077 -0.1063 -0.1477
  186POPC   GL2 2717   3.295   8.929   4.974 -0.4668  0.2256  0.0626
  186POPC   C1A 2718   3.654   9.230   5.141  0.0120  0.2743  0.1490
  186POPC   D2A 2719   3.787   9.388   5.584  0.3525  0.1329 -0.0454
  186POPC   C3A 2720   3.622   9.261   6.040  0.3287  0.2543 -0.0609
  186POPC   C4A 2721   3.302   9.315   6.233  0.4445  0.1245  0.0717
  186POPC   C1B 2722   3.257   8.638   5.354  0.2189  0.3368  0.0849
  186POPC   C2B 2723   3.389   8.442   5.806 -0.3495 -0.4086  0.2412
  186POPC   C3B 2724   3.339   8.279   6.192 -0.0836 -0.2428  0.4129
  186POPC   C4B 2725   2.980   8.211   6.510  0.3823 -0.0323  0.1871
  187POPC   NC3 2726   3.732   7.026   3.649 -0.0438 -0.2234  0.2616
  187POPC   PO4 2727   3.757   6.733   3.905 -0.1874  0.0957  0.3197
  187POPC   GL1 2728   3.395   6.680   4.253  0.2458 -0.0750  0.1786
  187POPC   GL2 2729   3.523   6.437   4.310 -0.1206  0.0712 -0.1037
  187POPC   C1A 2730   3.249   6.541   4.719  0.0727  0.3552  0.0695
  187POPC   D2A 2731   3.301   6.396   5.198  0.4323  0.0660 -0.2490
  187POPC   C3A 2732   2.946   6.647   5.495  0.1914  0.0785 -0.0571
  187POPC   C4A 2733   2.763   6.929   5.635  0.1700  0.3096 -0.2938
  187POPC   C1B 2734   3.745   6.520   4.626 -0.4236 -0.1392  0.1700
  187POPC   C2B 2735   3.851   6.257   5.014  0.0451 -0.1103 -0.0353
  187POPC   C3B 2736   4.204   6.335   5.380  0.0506 -0.2065  0.4281
  187POPC   C4B 2737   4.581   6.255   5.276  0.1622  0.0891 -0.0373
  188POPC   NC3 2738   3.340   1.937   4.483 -0.1267 -0.0949 -0.1834
  188POPC   PO4 2739   2.949   1.994   4.800  0.0885  0.0082 -0.1014
  188POPC   GL1 2740   3.025   2.102   5.210  0.2251  0.4782  0.1765
  188POPC   GL2 2741   3.224   2.367   5.364  0.2160 -0.1980 -0.0436
  188POPC   C1A 2742   3.448   1.848   5.428  0.0213 -0.2248  0.0492
  188POPC   D2A 2743   3.505   1.497   5.705 -0.2360  0.0133 -0.2405
  188POPC   C3A 2744   3.203   1.491   6.008  0.1433 -0.1544  0.0823
  188POPC   C4A 2745   2.984   1.717   6.303  0.2831  0.0294 -0.1498
  188POPC   C1B 2746   3.110   2.070   5.725  0.0907 -0.1737 -0.1590
  188POPC   C2B 2747   3.339   2.017   6.141  0.2115  0.1681  0.2199
  188POPC   C3B 2748   3.309   2.172   6.435  0.3922 -0.1964  0.0446
  188POPC   C4B 2749   3.194   2.323   6.816  0.1881  0.1077 -0.2793
  189POPC   NC3 2750   7.646   0.765   4.796  0.0864 -0.0754  0.1741
  189POPC   PO4 2751   7.901   0.808   5.170 -0.1567  0.3261 -0.0018
  189POPC   GL1 2752   8.033   0.619   5.550  0.1938  0.1436  0.0293
  189POPC   GL2 2753   7.741   0.612   5.614 -0.1921 -0.0572 -0.0044
  189POPC   C1A 2754   8.080   0.329   5.906  0.6186 -0.3390  0.4265
  189POPC   D2A 2755   7.940  -0.037   6.123  0.1640 -0.0560 -0.4312
  189POPC   C3A 2756   8.103  -0.411   6.016 -0.1338 -0.0222  0.0873
  189POPC   C4A 2757   8.285  -0.816   5.826 -0.0976 -0.0016 -0.1903
  189POPC   C1B 2758   7.619   0.405   6.035  0.1501 -0.2782  0.0584
  189POPC   C2B 2759   7.461   0.036   6.248 -0.2117 -0.0693  0.1083
  189POPC   C3B 2760   7.228  -0.025   6.568  0.2494 -0.3068 -0.3175
  189POPC   C4B 2761   7.006  -0.100   6.966 -0.0259  0.0387 -0.2166
  190POPC   NC3 2762  10.126   7.956   4.286 -0.0384  0.2776 -0.2968
  190POPC   PO4 2763  10.398   8.131   4.596 -0.3149 -0.1843  0.4172
  190POPC   GL1 2764  10.485   8.128   5.013 -0.1141 -0.1781 -0.2087
  190POPC   GL2 2765  10.246   8.038   5.291  0.0012  0.0380 -0.0607
  190POPC   C1A 2766  10.631   8.480   5.433  0.2127  0.2991 -0.1046
  190POPC   D2A 2767  10.852   8.535   5.828 -0.1144  0.3927 -0.1034
  190POPC   C3A 2768  10.888   8.890   5.869  0.2365 -0.0316 -0.0573
  190POPC   C4A 2769  10.728   9.187   5.912 -0.0914 -0.0206 -0.0939
  190POPC   C1B 2770  10.564   7.712   5.351  0.1243 -0.2763 -0.0725
  190POPC   C2B 2771  10.677   7.726   5.688  0.1456 -0.1661 -0.3239
  190POPC   C3B 2772  10.628   7.963   6.113 -0.0560  0.1171  0.0276
  190POPC   C4B 2773  10.463   8.277   5.962 -0.3721 -0.0093  0.4294
  191POPC   NC3 2774   2.032   8.540   4.333 -0.0225  0.0068 -0.1532
  191POPC   PO4 2775   1.962   8.356   4.639 -0.1089 -0.1615  0.0404
  191POPC   GL1 2776   1.852   8.006   4.770  0.1194 -0.2696  0.1313
  191POPC   GL2 2777   1.685   8.213   5.059  0.0103 -0.2702  0.3463
  191POPC   C1A 2778   2.069   7.655   4.963  0.1355 -0.3332  0.1394
  191POPC   D2A 2779   2.439   7.572   5.257  0.2387 -0.0426  0.4431
  191POPC   C3A 2780   2.281   7.376   5.636 -0.1062 -0.0948 -0.2478
  191POPC   C4A 2781   1.899   7.030   5.742  0.1462 -0.5411  0.0317
  191POPC   C1B 2782   1.567   7.808   5.223  0.0551  0.1576 -0.1771
  191POPC   C2B 2783   1.846   7.526   5.390  0.2885  0.0485  0.1993
  191POPC   C3B 2784   2.093   7.179   5.259  0.1547 -0.0575  0.0568
  191POPC   C4B 2785   2.532   7.116   5.124  0.6502 -0.1143  0.2325
  192POPC   NC3 2786   7.936   8.740   5.015  0.2353  0.1157 -0.0956
  192POPC   PO4 2787   8.291   9.054   4.986  0.2846  0.0165 -0.2701
  192POPC   GL1 2788   8.455   8.954   5.359  0.4763 -0.1827 -0.0844
  192POPC   GL2 2789   8.271   8.744   5.578  0.1212 -0.1912  0.0628
  192POPC   C1A 2790   8.241   9.196   5.727 -0.4454  0.0179 -0.0995
  192POPC   D2A 2791   8.356   9.290   6.123 -0.1198 -0.0190 -0.0261
  192POPC   C3A 2792   8.419   9.764   6.283  0.0602  0.0804 -0.0736
  192POPC   C4A 2793   8.505  10.078   6.592 -0.1024  0.1880  0.1972
  192POPC   C1B 2794   7.993   8.457   5.942 -0.0542 -0.3395  0.0363
  192POPC   C2B 2795   8.095   8.056   5.852 -0.2269  0.1045 -0.0226
  192POPC   C3B 2796   8.211   7.634   5.792 -0.0083  0.1752 -0.0041
  192POPC   C4B 2797   8.337   7.165   5.706  0.0673  0.0027 -0.2177
  193POPC   NC3 2798   1.836   5.970   3.253  0.0129  0.1730  0.2359
  193POPC   PO4 2799   1.856   5.843   3.651 -0.2572 -0.2378 -0.0165
  193POPC   GL1 2800   1.905   5.678   3.986 -0.1587  0.1510 -0.0972
  193POPC   GL2 2801   1.604   5.584   4.180 -0.2300 -0.4900 -0.0867
  193POPC   C1A 2802   2.279   5.696   4.390 -0.0546 -0.1186 -0.0767
  193POPC   D2A 2803   2.234   5.742   4.855  0.1690 -0.0613  0.0735
  193POPC   C3A 2804   2.546   5.991   5.114 -0.3161 -0.1450  0.0444
  193POPC   C4A 2805   2.944   6.115   5.344 -0.0061  0.0884 -0.1584
  193POPC   C1B 2806   1.395   5.757   4.553  0.1574  0.1048 -0.0278
  193POPC   C2B 2807   1.316   5.521   4.912  0.1306 -0.1557  0.4431
  193POPC   C3B 2808   1.179   5.130   5.191 -0.2473  0.0939  0.2484
  193POPC   C4B 2809   1.534   4.852   5.409 -0.0705  0.0476  0.5665
  194POPC   NC3 2810   7.830   7.014   4.939  0.1856  0.2301 -0.0888
  194POPC   PO4 2811   7.571   6.696   4.923 -0.1483 -0.0227 -0.0466
  194POPC   GL1 2812   7.626   6.677   5.354 -0.0960 -0.0550 -0.0856
  194POPC   GL2 2813   7.396   6.592   5.448 -0.0248 -0.0902 -0.2749
  194POPC   C1A 2814   7.724   6.763   5.842  0.2644  0.0981  0.0641
  194POPC   D2A 2815   8.067   6.771   6.038  0.2932 -0.2936  0.2034
  194POPC   C3A 2816   8.044   6.405   6.416 -0.0444 -0.0786 -0.3844
  194POPC   C4A 2817   8.308   6.037   6.631 -0.0116 -0.0773  0.2894
  194POPC   C1B 2818   7.224   6.875   5.738 -0.0917  0.2606 -0.0412
  194POPC   C2B 2819   7.202   7.050   6.079  0.1187 -0.3936  0.2181
  194POPC   C3B 2820   7.091   7.143   6.440 -0.0273 -0.1666  0.1253
  194POPC   C4B 2821   7.341   6.888   6.751 -0.0683  0.0951 -0.3864
  195POPC   NC3 2822   5.717   6.084   5.002 -0.0361  0.0948  0.2421
  195POPC   PO4 2823   5.457   5.737   4.939 -0.1077 -0.1451  0.0677
  195POPC   GL1 2824   5.545   5.794   5.372  0.0179 -0.2413 -0.0966
  195POPC   GL2 2825   5.252   5.803   5.519 -0.2833  0.0653 -0.1498
  195POPC   C1A 2826   5.893   5.718   5.712  0.1386 -0.3296 -0.1177
  195POPC   D2A 2827   5.964   5.773   6.093 -0.2799  0.1675  0.2327
  195POPC   C3A 2828   5.576   5.757   6.305 -0.4619  0.0950 -0.3480
  195POPC   C4A 2829   5.494   5.738   6.652 -0.0862 -0.2124 -0.0415
  195POPC   C1B 2830   4.877   5.751   5.810  0.1128 -0.1906 -0.3040
  195POPC   C2B 2831   4.490   5.808   6.144  0.2241 -0.0099  0.0208
  195POPC   C3B 2832   4.179   5.764   6.517 -0.1411 -0.0368  0.1280
  195POPC   C4B 2833   4.130   5.401   6.787  0.0314 -0.5802 -0.1212
  196POPC   NC3 2834   8.335   9.964   5.241  0.0765 -0.2332  0.3468
  196POPC   PO4 2835   8.623   9.569   5.263  0.0663 -0.0325  0.0861
  196POPC   GL1 2836   8.849   9.477   5.634 -0.0356 -0.0070  0.0476
  196POPC   GL2 2837   9.170   9.317   5.530  0.1294 -0.3235 -0.0109
  196POPC   C1A 2838   8.821   9.457   6.144 -0.0754 -0.3537 -0.0379
  196POPC   D2A 2839   8.662   9.363   6.496 -0.0599 -0.1146  0.0164
  196POPC   C3A 2840   8.969   9.492   6.849 -0.1089  0.0240  0.0713
  196POPC   C4A 2841   8.811   9.545   7.257 -0.0565 -0.3597  0.1711
  196POPC   C1B 2842   9.281   9.340   5.891 -0.2032 -0.3405 -0.1267
  196POPC   C2B 2843   9.292   9.685   6.178 -0.1505  0.4273  0.2519
  196POPC   C3B 2844   9.429  10.065   6.278  0.2070  0.0575 -0.0718
  196POPC   C4B 2845   9.561  10.384   6.519  0.3172  0.0283  0.1027
  197POPC   NC3 2846   6.521   2.071   4.273 -0.0158 -0.1747 -0.3673
  197POPC   PO4 2847   6.392   2.198   4.737  0.0451  0.3917  0.0417
  197POPC   GL1 2848   6.249   2.510   5.180 -0.2964  0.0544 -0.0334
  197POPC   GL2 2849   6.494   2.296   5.399  0.0072  0.1172  0.1790
  197POPC   C1A 2850   6.227   2.750   5.501  0.1943  0.0150 -0.0395
  197POPC   D2A 2851   5.962   2.996   5.955 -0.1706  0.0365  0.0879
  197POPC   C3A 2852   5.624   3.289   5.954  0.0537 -0.1084  0.3060
  197POPC   C4A 2853   5.604   3.742   5.911 -0.1134 -0.0197 -0.0028
  197POPC   C1B 2854   6.440   2.507   5.876 -0.1707 -0.0836 -0.3322
  197POPC   C2B 2855   6.369   2.723   6.205 -0.0217 -0.2236  0.4404
  197POPC   C3B 2856   6.397   2.752   6.626  0.0325 -0.0298  0.0560
  197POPC   C4B 2857   6.343   2.738   7.107 -0.0972 -0.0755  0.1678
  198POPC   NC3 2858   3.405   2.786   5.130  0.1135  0.1461  0.0271
  198POPC   PO4 2859   3.822   2.720   4.961 -0.0526 -0.1782 -0.0547
  198POPC   GL1 2860   3.802   2.770   5.491 -0.0780 -0.1553  0.3299
  198POPC   GL2 2861   3.627   2.937   5.540  0.1281  0.0843  0.0275
  198POPC   C1A 2862   3.934   2.895   5.974 -0.3296  0.3579  0.0945
  198POPC   D2A 2863   4.095   3.316   6.029  0.0336 -0.0749 -0.1604
  198POPC   C3A 2864   4.383   3.375   6.351  0.0212 -0.0468 -0.1458
  198POPC   C4A 2865   4.527   3.699   6.666  0.2437  0.0887 -0.0536
  198POPC   C1B 2866   3.414   3.065   5.994  0.3176  0.1232 -0.0487
  198POPC   C2B 2867   3.517   3.205   6.436  0.1303 -0.0606  0.0895
  198POPC   C3B 2868   3.643   3.134   6.918  0.1005  0.2471  0.0676
  198POPC   C4B 2869   3.772   3.104   7.351  0.2529  0.0123 -0.0371
  199POPC   NC3 2870   6.107   7.450   5.209  0.0584  0.1437 -0.2442
  199POPC   PO4 2871   6.302   7.811   5.115 -0.0575  0.1341  0.1389
  199POPC   GL1 2872   6.416   7.704   5.614 -0.2405 -0.0953 -0.2383
  199POPC   GL2 2873   6.614   7.650   5.807  0.0917 -0.0814 -0.3290
  199POPC   C1A 2874   6.118   7.975   5.853  0.0709  0.0289  0.3067
  199POPC   D2A 2875   5.710   8.206   6.058  0.3507 -0.0496 -0.0954
  199POPC   C3A 2876   5.715   8.483   6.426  0.0743 -0.1033  0.1602
  199POPC   C4A 2877   5.892   8.814   6.476 -0.1407 -0.1017 -0.0077
  199POPC   C1B 2878   6.245   7.567   6.162  0.1749  0.1829 -0.0220
  199POPC   C2B 2879   5.950   7.415   6.454  0.2323 -0.0782  0.1967
  199POPC   C3B 2880   5.629   7.206   6.708 -0.0143 -0.0509 -0.1968
  199POPC   C4B 2881   5.437   7.276   7.128 -0.0452  0.0431  0.4166
  200POPC   NC3 2882   8.382   2.075   4.730  0.1622 -0.0182 -0.0500
  200POPC   PO4 2883   8.816   2.219   4.934 -0.2256  0.0549  0.1860
  200POPC   GL1 2884   9.034   2.158   5.355 -0.0481 -0.1551  0.0204
  200POPC   GL2 2885   8.882   2.254   5.734 -0.0160 -0.0401 -0.3681
  200POPC   C1A 2886   9.414   2.492   5.618 -0.4411  0.1821 -0.0730
  200POPC   D2A 2887   9.710   2.538   5.913  0.2461 -0.1533  0.1923
  200POPC   C3A 2888   9.656   2.445   6.381  0.2339  0.0337 -0.0530
  200POPC   C4A 2889   9.512   2.006   6.395  0.0690  0.1739 -0.1492
  200POPC   C1B 2890   9.227   2.305   6.029  0.0957 -0.1553  0.0447
  200POPC   C2B 2891   9.162   2.410   6.391 -0.1557  0.0506 -0.0532
  200POPC   C3B 2892   9.080   2.497   6.773 -0.2331  0.0537 -0.1837
  200POPC   C4B 2893   9.237   2.531   7.118  0.1385  0.0337 -0.1663
  201POPC   NC3 2894   9.982   1.486   5.611 -0.0115 -0.1008 -0.0459
  201POPC   PO4 2895  10.428   1.260   5.565  0.4237  0.1261 -0.2153
  201POPC   GL1 2896  10.329   1.395   5.948  0.1070  0.0159  0.2736
  201POPC   GL2 2897  10.515   1.676   6.035 -0.1720  0.1121  0.3131
  201POPC   C1A 2898  10.117   1.540   6.209 -0.1123  0.4696  0.1593
  201POPC   D2A 2899   9.867   1.668   6.465 -0.2759 -0.0421 -0.0807
  201POPC   C3A 2900  10.056   1.638   6.846  0.0883  0.1843 -0.2433
  201POPC   C4A 2901  10.411   1.716   7.050  0.1420 -0.0298  0.2170
  201POPC   C1B 2902  10.413   1.805   6.552  0.3235  0.2957 -0.1750
  201POPC   C2B 2903  10.333   2.191   6.901 -0.0749 -0.2087  0.0453
  201POPC   C3B 2904   9.958   2.159   6.994 -0.3494 -0.0125 -0.1820
  201POPC   C4B 2905   9.582   2.246   6.852  0.2192  0.3105  0.2731
  202POPC   NC3 2906   0.078  10.067   5.464  0.0319  0.0448 -0.3293
  202POPC   PO4 2907   0.093   9.591   5.309 -0.0568  0.2181 -0.2326
  202POPC   GL1 2908   0.032   9.612   5.713 -0.1674 -0.1135  0.0256
  202POPC   GL2 2909  -0.197   9.814   5.782  0.0635 -0.3089 -0.1497
  202POPC   C1A 2910   0.133   9.566   6.166 -0.1217 -0.0769  0.0434
  202POPC   D2A 2911   0.185   9.290   6.534  0.0621  0.0664 -0.1068
  202POPC   C3A 2912   0.029   8.942   6.470 -0.1059  0.2562  0.1447
  202POPC   C4A 2913  -0.081   8.452   6.480  0.1359 -0.0497  0.0134
  202POPC   C1B 2914  -0.400   9.783   6.130 -0.2902  0.0335  0.1662
  202POPC   C2B 2915  -0.675   9.632   6.502  0.4323  0.1535 -0.3233
  202POPC   C3B 2916  -1.075   9.853   6.699 -0.2821 -0.0550 -0.2601
  202POPC   C4B 2917  -0.940  10.190   7.042  0.1603  0.0886  0.1934
  203POPC   NC3 2918   0.032   1.829   5.192  0.0498  0.0079  0.0379
  203POPC   PO4 2919   0.277   1.730   5.560 -0.0599 -0.1118  0.1608
  203POPC   GL1 2920   0.597   1.842   5.720 -0.1742  0.0196 -0.2579
  203POPC   GL2 2921   0.759   1.507   5.804 -0.0947  0.1210 -0.2635
  203POPC   C1A 2922   0.749   2.190   5.844 -0.0243  0.3380 -0.0486
  203POPC   D2A 2923   1.179   2.302   6.065 -0.0311  0.1400 -0.3264
  203POPC   C3A 2924   1.059   2.650   6.464 -0.0082  0.3572 -0.4003
  203POPC   C4A 2925   1.275   2.825   6.756  0.2473 -0.0354  0.0714
  203POPC   C1B 2926   0.627   1.726   6.178  0.0729  0.0738 -0.0195
  203POPC   C2B 2927   0.535   1.770   6.557 -0.2031 -0.0850 -0.1894
  203POPC   C3B 2928   0.375   1.987   6.872  0.3521 -0.3202  0.0789
  203POPC   C4B 2929   0.406   1.724   7.293 -0.0368 -0.1958  0.2457
  204POPC   NC3 2930   1.464   8.436   4.583  0.1934  0.1339 -0.0191
  204POPC   PO4 2931   1.634   8.782   4.740  0.1715 -0.1452  0.0261
  204POPC   GL1 2932   1.524   8.792   5.190  0.1076  0.2372  0.0753
  204POPC   GL2 2933   1.564   9.069   5.300 -0.0018  0.2551 -0.2334
  204POPC   C1A 2934   1.316   8.486   5.474  0.1434 -0.0115  0.0809
  204POPC   D2A 2935   1.213   8.280   5.814  0.1411  0.0847 -0.0880
  204POPC   C3A 2936   1.585   7.956   5.763 -0.1207  0.1359 -0.2782
  204POPC   C4A 2937   2.080   7.940   5.816  0.1641 -0.2242  0.0353
  204POPC   C1B 2938   1.124   8.992   5.422  0.3839 -0.0335 -0.0500
  204POPC   C2B 2939   0.903   9.115   5.818 -0.3965  0.2774 -0.2031
  204POPC   C3B 2940   0.601   9.092   6.283  0.0720 -0.0816 -0.0375
  204POPC   C4B 2941   0.322   8.615   6.297 -0.1764 -0.0486  0.2367
  205POPC   NC3 2942   2.251  10.370   5.382 -0.0616  0.0575 -0.0567
  205POPC   PO4 2943   2.572  10.696   5.589 -0.1341 -0.1360  0.0429
  205POPC   GL1 2944   2.664  10.212   5.635  0.1389  0.2959 -0.3927
  205POPC   GL2 2945   2.994  10.078   5.592 -0.2649  0.1700  0.0968
  205POPC   C1A 2946   2.632   9.935   5.882  0.2398  0.2387  0.0759
  205POPC   D2A 2947   2.953   9.845   6.215  0.0901  0.1019 -0.0398
  205POPC   C3A 2948   2.806   9.454   6.532 -0.2812  0.1443  0.1792
  205POPC   C4A 2949   2.688   9.304   6.952 -0.1113  0.2581  0.0514
  205POPC   C1B 2950   3.279  10.252   5.816  0.1432  0.4103 -0.2126
  205POPC   C2B 2951   3.357  10.366   6.143 -0.2250  0.3115 -0.1569
  205POPC   C3B 2952   3.294  10.202   6.541  0.0482  0.1352 -0.0387
  205POPC   C4B 2953   2.871   9.982   6.700 -0.1973 -0.0056  0.2256
  206POPC   NC3 2954   6.189   3.693   4.970  0.0368  0.1745  0.0171
  206POPC   PO4 2955   6.121   3.269   4.850  0.0835 -0.0740 -0.1941
  206POPC   GL1 2956   5.811   3.271   5.028  0.0818 -0.1952 -0.1307
  206POPC   GL2 2957   5.461   3.216   5.064 -0.0444 -0.2995 -0.0080
  206POPC   C1A 2958   5.803   3.131   5.452  0.1987  0.3130 -0.1497
  206POPC   D2A 2959   5.469   2.913   5.653 -0.0229  0.0687  0.3277
  206POPC   C3A 2960   5.378   2.853   6.071  0.0718  0.1949  0.1226
  206POPC   C4A 2961   5.532   3.002   6.368  0.4144 -0.1068  0.0694
  206POPC   C1B 2962   5.516   3.535   5.366 -0.0593 -0.2237  0.1004
  206POPC   C2B 2963   5.938   3.571   5.588 -0.0647  0.1465  0.1479
  206POPC   C3B 2964   6.383   3.763   5.652  0.4370  0.0084  0.1973
  206POPC   C4B 2965   6.755   3.675   5.814 -0.2599 -0.1021  0.1624
  207POPC   NC3 2966   6.775   0.749   4.772  0.0418 -0.3245  0.1933
  207POPC   PO4 2967   6.729   1.215   4.748 -0.0265 -0.0735  0.0123
  207POPC   GL1 2968   6.752   1.081   5.212 -0.2876  0.1729  0.3936
  207POPC   GL2 2969   6.922   0.855   5.292  0.0928 -0.3157  0.0754
  207POPC   C1A 2970   6.456   1.076   5.476 -0.0253  0.0316  0.1108
  207POPC   D2A 2971   6.282   1.430   5.621 -0.1283 -0.0731  0.5359
  207POPC   C3A 2972   6.124   1.550   5.938 -0.0010 -0.0437  0.1164
  207POPC   C4A 2973   5.715   1.736   6.078  0.0150 -0.1966  0.0753
  207POPC   C1B 2974   6.776   0.724   5.708  0.0169 -0.1853  0.0601
  207POPC   C2B 2975   6.808   0.844   6.133 -0.2453  0.1773 -0.0119
  207POPC   C3B 2976   6.505   1.036   6.441 -0.0830  0.2939  0.1340
  207POPC   C4B 2977   6.124   1.008   6.359 -0.0407  0.0710  0.0237
  208POPC   NC3 2978   7.675   6.275   5.124  0.0420  0.1214 -0.0253
  208POPC   PO4 2979   7.462   6.035   4.891 -0.4152  0.0429 -0.0425
  208POPC   GL1 2980   7.239   5.861   5.295 -0.0499 -0.0756  0.1905
  208POPC   GL2 2981   7.433   6.050   5.601 -0.0087 -0.1792 -0.1577
  208POPC   C1A 2982   6.827   6.064   5.533 -0.0370  0.0837  0.0089
  208POPC   D2A 2983   6.832   6.337   5.892  0.1520 -0.0335 -0.1007
  208POPC   C3A 2984   7.288   6.486   6.038  0.0195 -0.2432 -0.2516
  208POPC   C4A 2985   7.563   6.660   6.331  0.1098  0.1012 -0.0042
  208POPC   C1B 2986   7.413   5.914   6.056  0.1585  0.0616 -0.1762
  208POPC   C2B 2987   7.178   5.710   6.446 -0.0749  0.1268  0.1166
  208POPC   C3B 2988   6.783   5.522   6.566 -0.0974 -0.4047  0.1310
  208POPC   C4B 2989   6.412   5.559   6.406  0.0882  0.3247  0.0453
  209POPC   NC3 2990   6.370   7.868   4.583 -0.0849  0.0434 -0.0817
  209POPC   PO4 2991   6.743   7.738   4.925  0.4051 -0.0327 -0.1549
  209POPC   GL1 2992   6.840   7.944   5.344  0.0387  0.1279 -0.0380
  209POPC   GL2 2993   6.702   8.252   5.349 -0.0520  0.0012  0.1378
  209POPC   C1A 2994   7.029   8.028   5.733 -0.1435  0.1453  0.4708
  209POPC   D2A 2995   7.046   8.150   6.199 -0.1637  0.6727  0.0012
  209POPC   C3A 2996   6.829   7.918   6.640 -0.0035 -0.1693 -0.0739
  209POPC   C4A 2997   6.581   7.684   7.010  0.4412 -0.0983 -0.0197
  209POPC   C1B 2998   6.536   8.251   5.756 -0.2324  0.1583 -0.0916
  209POPC   C2B 2999   6.535   7.973   6.174 -0.0568 -0.2841  0.0105
  209POPC   C3B 3000   6.385   7.774   6.567  0.2867  0.1977  0.2357
  209POPC   C4B 3001   6.170   8.026   6.844  0.2696 -0.0354  0.1284
  210POPC   NC3 3002   7.505  10.198   5.099 -0.1983  0.2063  0.1301
  210POPC   PO4 3003   7.209  10.348   5.055 -0.0713 -0.2223  0.0036
  210POPC   GL1 3004   6.952  10.090   5.394  0.1022  0.2005 -0.1133
  210POPC   GL2 3005   7.185  10.112   5.664  0.1489 -0.1731 -0.0242
  210POPC   C1A 3006   6.772   9.894   5.792 -0.1152 -0.4695 -0.0647
  210POPC   D2A 3007   6.750   9.783   6.200 -0.1041  0.0734 -0.0103
  210POPC   C3A 3008   6.885   9.794   6.574  0.4789  0.1296 -0.1054
  210POPC   C4A 3009   7.214   9.978   6.777  0.1390  0.0217  0.0278
  210POPC   C1B 3010   7.591  10.077   5.972  0.0378  0.0859  0.1348
  210POPC   C2B 3011   7.788  10.011   6.401 -0.1116 -0.0423 -0.1675
  210POPC   C3B 3012   7.988   9.809   6.684 -0.0023 -0.3656 -0.0631
  210POPC   C4B 3013   8.404   9.680   6.861 -0.0149  0.1706  0.3106
  211POPC   NC3 3014   6.170  10.332   4.348 -0.1743 -0.0552 -0.0226
  211POPC   PO4 3015   6.246  10.279   4.734  0.2362 -0.0732  0.2880
  211POPC   GL1 3016   6.197  10.053   5.120  0.5077  0.1380 -0.0642
  211POPC   GL2 3017   6.447  10.070   5.384  0.1943  0.1041  0.1132
  211POPC   C1A 3018   5.816  10.059   5.333 -0.2978  0.1382 -0.1070
  211POPC   D2A 3019   5.858  10.012   5.791 -0.0910  0.1010  0.1818
  211POPC   C3A 3020   5.858  10.380   6.065 -0.0158  0.0977 -0.1706
  211POPC   C4A 3021   5.635  10.667   6.332  0.2338 -0.2109  0.2195
  211POPC   C1B 3022   6.301  10.152   5.825  0.0870  0.1358  0.0253
  211POPC   C2B 3023   6.291  10.038   6.282 -0.1881  0.0464  0.0478
  211POPC   C3B 3024   6.167   9.722   6.593 -0.0358  0.1935  0.1708
  211POPC   C4B 3025   6.087   9.581   6.948 -0.4108 -0.0338 -0.2096
  212POPC   NC3 3026   5.635   1.749   4.617 -0.0012  0.2332 -0.0198
  212POPC   PO4 3027   5.825   1.573   4.871  0.0680 -0.3583  0.2307
  212POPC   GL1 3028   5.668   1.706   5.256 -0.0725  0.2220 -0.1392
  212POPC   GL2 3029   5.908   1.673   5.449  0.0361 -0.2107  0.0096
  212POPC   C1A 3030   5.393   1.949   5.614 -0.1965  0.3941 -0.1794
  212POPC   D2A 3031   5.292   2.383   5.703 -0.1752  0.1019  0.1669
  212POPC   C3A 3032   5.090   2.429   6.033  0.0950 -0.0478  0.1132
  212POPC   C4A 3033   5.038   2.705   6.400  0.1882 -0.2174  0.3701
  212POPC   C1B 3034   6.154   2.029   5.726 -0.1379  0.1653  0.1983
  212POPC   C2B 3035   6.052   2.290   6.092 -0.0836 -0.1958  0.4384
  212POPC   C3B 3036   5.896   2.603   6.339  0.0668 -0.0424  0.3264
  212POPC   C4B 3037   5.586   2.574   6.618  0.0039  0.0161  0.1043
  213POPC   NC3 3038   2.397   1.464   4.686  0.4759  0.4565 -0.1897
  213POPC   PO4 3039   2.304   1.431   5.101  0.1784  0.1395  0.1766
  213POPC   GL1 3040   2.467   1.651   5.497  0.0996  0.4434  0.0726
  213POPC   GL2 3041   2.519   1.958   5.529 -0.0547 -0.0878 -0.0211
  213POPC   C1A 3042   2.614   1.569   5.925 -0.3911 -0.1233  0.1759
  213POPC   D2A 3043   2.680   1.289   6.354  0.0096  0.0395 -0.1539
  213POPC   C3A 3044   3.068   1.252   6.506  0.0802 -0.1545 -0.2575
  213POPC   C4A 3045   3.200   1.065   6.753  0.1184  0.1778 -0.0885
  213POPC   C1B 3046   2.210   1.905   5.825 -0.1032 -0.0463 -0.1191
  213POPC   C2B 3047   1.954   1.733   6.114 -0.2200 -0.1466 -0.1745
  213POPC   C3B 3048   1.747   1.580   6.495  0.1748 -0.3290 -0.1210
  213POPC   C4B 3049   1.402   1.697   6.711  0.3409  0.0609  0.0229
  214POPC   NC3 3050  10.001   2.694   4.990  0.1409 -0.1713  0.2210
  214POPC   PO4 3051  10.404   2.813   5.100  0.2754  0.1700  0.0262
  214POPC   GL1 3052  10.582   3.129   5.301 -0.1942  0.0986 -0.1006
  214POPC   GL2 3053  10.830   3.329   5.160  0.1805  0.0416  0.2001
  214POPC   C1A 3054  10.681   3.058   5.671 -0.0338 -0.1072  0.0079
  214POPC   D2A 3055  10.704   2.714   6.122 -0.0252 -0.2380  0.2465
  214POPC   C3A 3056  10.796   2.842   6.535 -0.0197 -0.3535 -0.3062
  214POPC   C4A 3057  10.689   3.091   6.927 -0.0511  0.1399 -0.3094
  214POPC   C1B 3058  10.781   3.564   5.494  0.0395 -0.1028  0.3255
  214POPC   C2B 3059  10.684   3.542   5.959  0.0627  0.3142 -0.0941
  214POPC   C3B 3060  10.701   3.310   6.359  0.0618  0.1216  0.0077
  214POPC   C4B 3061  10.974   3.445   6.746  0.1133  0.2577 -0.0719
  215POPC   NC3 3062   6.968   3.203   4.455 -0.0605 -0.1027  0.0802
  215POPC   PO4 3063   6.902   3.096   4.951 -0.0790  0.0625  0.0949
  215POPC   GL1 3064   6.952   3.357   5.351  0.0473 -0.2241  0.3955
  215POPC   GL2 3065   7.191   3.612   5.578 -0.0872 -0.3660  0.4516
  215POPC   C1A 3066   7.018   3.225   5.793  0.2372 -0.0215  0.0338
  215POPC   D2A 3067   6.828   2.887   5.971 -0.2434 -0.1379  0.0315
  215POPC   C3A 3068   6.856   2.865   6.392 -0.2617  0.0372  0.0899
  215POPC   C4A 3069   6.812   2.796   6.891 -0.0650  0.0778 -0.0108
  215POPC   C1B 3070   7.415   3.471   6.060  0.0088  0.2262  0.0811
  215POPC   C2B 3071   7.653   3.528   6.438 -0.0472 -0.0099  0.1924
  215POPC   C3B 3072   7.997   3.485   6.680  0.3043 -0.3563 -0.0836
  215POPC   C4B 3073   8.116   3.171   6.948 -0.3388 -0.0311  0.1587
  216POPC   NC3 3074   0.618   4.317   4.034  0.1450  0.0547  0.0292
  216POPC   PO4 3075   0.520   3.955   4.394 -0.2048  0.3336 -0.0144
  216POPC   GL1 3076   0.324   4.122   4.740  0.1854  0.0032 -0.0200
  216POPC   GL2 3077   0.037   4.169   4.715  0.3380 -0.1352 -0.1503
  216POPC   C1A 3078   0.371   4.532   4.902 -0.1678 -0.0534 -0.0679
  216POPC   D2A 3079   0.133   4.936   5.129  0.1031  0.3042  0.1434
  216POPC   C3A 3080   0.315   5.159   5.468  0.1686 -0.0811 -0.2354
  216POPC   C4A 3081   0.120   5.517   5.803 -0.1806 -0.1933  0.0577
  216POPC   C1B 3082  -0.182   4.529   4.992  0.1130  0.0600 -0.3223
  216POPC   C2B 3083  -0.471   4.726   5.370  0.0844 -0.0665  0.0925
  216POPC   C3B 3084  -0.389   4.802   5.833 -0.0018  0.0802  0.2825
  216POPC   C4B 3085  -0.116   4.504   6.042 -0.1933  0.0023  0.3066
  217POPC   NC3 3086   5.193   6.004   4.556 -0.1028 -0.0576 -0.2631
  217POPC   PO4 3087   5.263   6.364   4.828  0.0699  0.2145  0.0663
  217POPC   GL1 3088   5.247   6.390   5.215 -0.1427  0.1685  0.0946
  217POPC   GL2 3089   5.527   6.343   5.379 -0.1895  0.1386  0.4478
  217POPC   C1A 3090   5.083   6.281   5.613  0.2307  0.0427 -0.4022
  217POPC   D2A 3091   5.014   6.156   6.057 -0.0329  0.2396 -0.0273
  217POPC   C3A 3092   5.352   6.190   6.326  0.3049 -0.0979  0.2389
  217POPC   C4A 3093   5.338   6.421   6.751  0.3096  0.3142  0.0904
  217POPC   C1B 3094   5.471   6.497   5.805 -0.3746 -0.0602 -0.1119
  217POPC   C2B 3095   5.537   6.648   6.261  0.0810  0.0842  0.1110
  217POPC   C3B 3096   5.741   6.729   6.637 -0.0993 -0.2813 -0.6173
  217POPC   C4B 3097   5.662   6.747   7.131 -0.4113  0.3548  0.2310
  218POPC   NC3 3098   6.878   7.253   4.895 -0.0347 -0.0715  0.0339
  218POPC   PO4 3099   7.195   7.440   5.188 -0.1974 -0.0960  0.0335
  218POPC   GL1 3100   7.305   7.631   5.616  0.0606  0.1560 -0.1812
  218POPC   GL2 3101   7.037   7.366   5.739  0.1484 -0.1168  0.0553
  218POPC   C1A 3102   7.466   7.562   5.946 -0.0423  0.0887 -0.4529
  218POPC   D2A 3103   7.868   7.685   6.242 -0.0395 -0.3944 -0.1619
  218POPC   C3A 3104   8.223   7.402   6.314 -0.0309 -0.0743 -0.2282
  218POPC   C4A 3105   8.228   7.048   6.474 -0.0281  0.0554 -0.1941
  218POPC   C1B 3106   6.755   7.249   6.126  0.1486 -0.0660 -0.0778
  218POPC   C2B 3107   6.690   7.396   6.547 -0.1460 -0.0011 -0.0973
  218POPC   C3B 3108   6.296   7.301   6.782  0.0101 -0.0045 -0.0886
  218POPC   C4B 3109   6.034   7.041   7.104 -0.0095  0.1295 -0.2117
  219POPC   NC3 3110   5.501   0.813   4.823  0.2267  0.0040  0.3330
  219POPC   PO4 3111   5.302   0.473   4.599 -0.1260  0.0956 -0.1379
  219POPC   GL1 3112   5.414   0.335   4.991  0.0260 -0.4333  0.0927
  219POPC   GL2 3113   5.117   0.279   5.117 -0.0240 -0.1691  0.1801
  219POPC   C1A 3114   5.561   0.291   5.487 -0.0394  0.1244  0.0392
  219POPC   D2A 3115   5.501   0.023   5.809  0.0717  0.1129 -0.2879
  219POPC   C3A 3116   5.091  -0.173   5.965  0.0796 -0.1455 -0.3027
  219POPC   C4A 3117   5.068  -0.594   6.398  0.2128 -0.0931  0.1578
  219POPC   C1B 3118   5.090   0.203   5.642  0.2906 -0.2345 -0.1519
  219POPC   C2B 3119   5.060   0.361   6.057 -0.1711  0.1545 -0.1588
  219POPC   C3B 3120   5.094   0.239   6.449  0.1687 -0.0852  0.0613
  219POPC   C4B 3121   4.973   0.350   6.848 -0.2685  0.1833  0.3087
  220POPC   NC3 3122   2.076   2.510   4.584 -0.2399  0.4164  0.0726
  220POPC   PO4 3123   1.796   2.807   4.895 -0.0886  0.1148  0.0202
  220POPC   GL1 3124   1.680   2.942   5.309  0.0199 -0.3534 -0.1523
  220POPC   GL2 3125   1.895   2.781   5.425 -0.0816 -0.4754  0.0287
  220POPC   C1A 3126   1.437   3.110   5.631 -0.1678 -0.1616  0.0770
  220POPC   D2A 3127   1.182   3.442   5.947  0.0058  0.0984  0.1796
  220POPC   C3A 3128   0.817   3.536   6.308  0.1491  0.0159  0.3462
  220POPC   C4A 3129   0.578   3.926   6.367  0.0947  0.1510 -0.0890
  220POPC   C1B 3130   1.919   2.853   5.895 -0.0213 -0.1029 -0.0358
  220POPC   C2B 3131   2.063   3.003   6.299 -0.3385  0.0835  0.4884
  220POPC   C3B 3132   2.505   3.107   6.434  0.2770  0.1083 -0.0090
  220POPC   C4B 3133   2.883   3.222   6.657 -0.0876 -0.1345  0.0434
  221POPC   NC3 3134   0.570   7.579   3.635 -0.1499 -0.1052 -0.1815
  221POPC   PO4 3135   0.677   7.830   3.930 -0.1379  0.1119  0.0503
  221POPC   GL1 3136   0.773   7.614   4.320  0.1549 -0.1601  0.1692
  221POPC   GL2 3137   0.777   7.722   4.698  0.0488 -0.2149 -0.2729
  221POPC   C1A 3138   0.694   7.237   4.528  0.1678 -0.1342  0.0623
  221POPC   D2A 3139   0.729   6.965   4.955  0.1328  0.1936  0.1649
  221POPC   C3A 3140   0.896   6.764   5.292 -0.0074  0.1258 -0.0321
  221POPC   C4A 3141   1.115   6.809   5.683 -0.1940  0.1897 -0.3089
  221POPC   C1B 3142   0.905   7.441   5.075 -0.1737  0.2424 -0.0791
  221POPC   C2B 3143   1.208   7.281   5.416  0.0223 -0.0222  0.1979
  221POPC   C3B 3144   1.485   7.470   5.777  0.1138  0.2048 -0.0894
  221POPC   C4B 3145   1.553   7.344   6.104  0.3035  0.1316  0.3198
  222POPC   NC3 3146   4.843   9.421   5.025 -0.0878 -0.3040  0.0619
  222POPC   PO4 3147   4.535   9.671   4.940 -0.0387  0.1784 -0.1137
  222POPC   GL1 3148   4.498   9.891   5.332 -0.3386  0.0905  0.0131
  222POPC   GL2 3149   4.892   9.819   5.452 -0.2925  0.0140  0.1039
  222POPC   C1A 3150   4.384   9.860   5.700  0.0661  0.3094 -0.3375
  222POPC   D2A 3151   4.255  10.083   6.083  0.2739 -0.1372  0.0662
  222POPC   C3A 3152   4.254   9.955   6.502  0.2574 -0.1025 -0.1594
  222POPC   C4A 3153   4.625   9.714   6.655  0.0199  0.0348  0.0579
  222POPC   C1B 3154   4.824   9.808   5.957 -0.2040  0.0468 -0.5256
  222POPC   C2B 3155   4.410   9.605   6.144  0.1911  0.1936 -0.2018
  222POPC   C3B 3156   4.203   9.317   6.319  0.3849 -0.0475  0.2425
  222POPC   C4B 3157   4.055   9.115   6.689  0.1810 -0.2001  0.0516
  223POPC   NC3 3158   2.556   1.902   5.010  0.0618 -0.0549  0.2103
  223POPC   PO4 3159   2.129   1.878   5.152  0.0012  0.1179  0.0778
  223POPC   GL1 3160   1.945   2.168   5.327  0.0964 -0.0264 -0.3203
  223POPC   GL2 3161   1.781   2.342   5.128 -0.0356 -0.2377  0.0117
  223POPC   C1A 3162   1.993   2.397   5.728 -0.1647  0.0608  0.0159
  223POPC   D2A 3163   1.959   2.467   6.192  0.0959 -0.0202 -0.1678
  223POPC   C3A 3164   1.936   2.140   6.507 -0.0700 -0.2017 -0.2224
  223POPC   C4A 3165   2.122   1.883   6.644  0.0385 -0.0025 -0.1614
  223POPC   C1B 3166   1.532   2.461   5.438 -0.0402  0.1822 -0.0586
  223POPC   C2B 3167   1.480   2.575   5.777 -0.1411  0.0021 -0.2340
  223POPC   C3B 3168   1.493   2.748   6.252 -0.1763 -0.2535 -0.0652
  223POPC   C4B 3169   1.737   2.707   6.586 -0.0449  0.2635  0.1084
  224POPC   NC3 3170   2.290   3.948   4.738  0.0723 -0.0646 -0.2357
  224POPC   PO4 3171   2.489   3.673   5.016 -0.3240 -0.0713  0.0863
  224POPC   GL1 3172   2.587   3.850   5.363 -0.1787  0.1289 -0.1633
  224POPC   GL2 3173   2.317   4.046   5.349  0.0601 -0.0522 -0.1647
  224POPC   C1A 3174   2.769   3.622   5.725 -0.2678 -0.3636  0.1853
  224POPC   D2A 3175   2.782   3.514   6.261  0.1036  0.1506  0.1130
  224POPC   C3A 3176   2.455   3.570   6.456  0.2623 -0.1035  0.1997
  224POPC   C4A 3177   2.052   3.809   6.653  0.0253  0.0436 -0.0701
  224POPC   C1B 3178   2.088   4.407   5.405  0.2891 -0.1215  0.3187
  224POPC   C2B 3179   1.837   4.558   5.043  0.0550 -0.1968  0.2191
  224POPC   C3B 3180   1.599   4.805   4.829 -0.2122  0.1314  0.0389
  224POPC   C4B 3181   1.540   5.176   4.617  0.0544  0.1847 -0.0321
  225POPC   NC3 3182   5.680   3.142   4.527 -0.0598  0.1414 -0.3674
  225POPC   PO4 3183   5.196   3.054   4.673 -0.5289 -0.2122  0.2586
  225POPC   GL1 3184   4.989   3.043   5.058 -0.1249  0.1203  0.0444
  225POPC   GL2 3185   4.778   2.849   5.096  0.0577 -0.4569 -0.2605
  225POPC   C1A 3186   4.963   3.058   5.573  0.2971 -0.1374  0.3888
  225POPC   D2A 3187   4.914   2.881   5.905  0.0765 -0.0390 -0.0352
  225POPC   C3A 3188   4.916   3.186   6.274  0.0155 -0.1193 -0.0100
  225POPC   C4A 3189   5.230   3.163   6.677  0.1370 -0.0802  0.0685
  225POPC   C1B 3190   4.929   2.472   5.379 -0.1215 -0.2558 -0.0556
  225POPC   C2B 3191   4.663   2.454   5.773 -0.3950 -0.0699 -0.0095
  225POPC   C3B 3192   4.641   2.462   6.272  0.0791 -0.0456  0.0525
  225POPC   C4B 3193   4.691   2.174   6.567  0.3212  0.2416  0.2724
  226POPC   NC3 3194   6.411   6.648   4.844  0.3308 -0.1505 -0.1225
  226POPC   PO4 3195   6.404   7.044   5.081  0.2097  0.1684 -0.0084
  226POPC   GL1 3196   6.708   6.684   5.260  0.1171 -0.1868 -0.1054
  226POPC   GL2 3197   6.556   6.314   5.129  0.0084 -0.1662  0.1149
  226POPC   C1A 3198   6.763   6.790   5.708 -0.2129 -0.0950 -0.2353
  226POPC   D2A 3199   6.686   6.760   6.139 -0.3485  0.1752 -0.2975
  226POPC   C3A 3200   6.599   6.436   6.437 -0.1844  0.1927 -0.1862
  226POPC   C4A 3201   6.720   6.022   6.700  0.0293 -0.0861  0.1217
  226POPC   C1B 3202   6.428   6.305   5.552  0.2453 -0.2010  0.0292
  226POPC   C2B 3203   6.345   6.253   5.974 -0.0130  0.3715 -0.0242
  226POPC   C3B 3204   6.228   6.121   6.369  0.1977 -0.0186 -0.1498
  226POPC   C4B 3205   6.109   5.787   6.716  0.3840 -0.0722 -0.2393
  227POPC   NC3 3206   8.595   0.408   4.721  0.3141  0.0005  0.3118
  227POPC   PO4 3207   8.769   0.412   5.160 -0.0669 -0.0023 -0.0541
  227POPC   GL1 3208   8.614   0.327   5.538  0.1656  0.0195 -0.1959
  227POPC   GL2 3209   8.846   0.203   5.610 -0.0073  0.2730 -0.0483
  227POPC   C1A 3210   8.536   0.661   5.947 -0.0215 -0.0760 -0.1946
  227POPC   D2A 3211   8.224   0.533   6.335  0.0314 -0.0128 -0.0805
  227POPC   C3A 3212   8.405   0.475   6.811 -0.1038  0.1207 -0.1087
  227POPC   C4A 3213   8.041   0.206   6.992  0.0479 -0.2349 -0.2580
  227POPC   C1B 3214   9.263   0.072   5.708  0.0380  0.2539  0.1418
  227POPC   C2B 3215   9.406   0.169   6.078  0.1248  0.0366 -0.3477
  227POPC   C3B 3216   9.425   0.408   6.485 -0.2302  0.2805  0.0145
  227POPC   C4B 3217   9.459   0.746   6.874  0.2211  0.2212  0.0543
  228POPC   NC3 3218   8.346   2.938   5.191 -0.2566 -0.2584 -0.3545
  228POPC   PO4 3219   7.930   3.133   5.262  0.2221 -0.3449 -0.1215
  228POPC   GL1 3220   8.118   3.001   5.654 -0.1148 -0.0549  0.1611
  228POPC   GL2 3221   8.466   3.076   5.667 -0.0318 -0.0793 -0.1561
  228POPC   C1A 3222   8.283   2.778   6.064 -0.0428 -0.3309 -0.1612
  228POPC   D2A 3223   8.101   2.562   6.473  0.1722  0.2689 -0.0291
  228POPC   C3A 3224   7.639   2.542   6.388 -0.1278  0.0399  0.0221
  228POPC   C4A 3225   7.240   2.472   6.651  0.3961  0.0873 -0.1957
  228POPC   C1B 3226   8.671   3.199   6.084  0.0158 -0.0373  0.0218
  228POPC   C2B 3227   8.996   3.221   6.392 -0.1396  0.0110  0.2296
  228POPC   C3B 3228   9.372   3.433   6.577  0.2038  0.0633  0.2433
  228POPC   C4B 3229   9.652   3.392   6.926  0.0137  0.0242 -0.3515
  229POPC   NC3 3230   2.465   7.787   4.396 -0.2511  0.0271 -0.2034
  229POPC   PO4 3231   2.396   8.249   4.494 -0.2658  0.2940 -0.1073
  229POPC   GL1 3232   2.356   8.181   4.916 -0.2757 -0.2141  0.0918
  229POPC   GL2 3233   2.539   8.241   5.178 -0.1539  0.1332 -0.0139
  229POPC   C1A 3234   2.132   8.068   5.315 -0.0396  0.0986 -0.2878
  229POPC   D2A 3235   1.850   8.378   5.594 -0.0349  0.2432 -0.2774
  229POPC   C3A 3236   1.708   8.416   5.972 -0.1730  0.2018 -0.3271
  229POPC   C4A 3237   1.983   8.300   6.330 -0.1060 -0.0574 -0.1975
  229POPC   C1B 3238   2.627   7.881   5.575  0.0703  0.1141  0.0930
  229POPC   C2B 3239   2.537   7.643   5.961 -0.2026  0.1189  0.5023
  229POPC   C3B 3240   2.517   7.405   6.324  0.0762 -0.2808  0.2254
  229POPC   C4B 3241   2.794   7.178   6.629  0.0173 -0.0883 -0.1045
  230POPC   NC3 3242   9.244   4.359   4.538 -0.1823  0.0872  0.0229
  230POPC   PO4 3243   9.204   4.589   4.150  0.0747  0.3478 -0.0429
  230POPC   GL1 3244   9.425   4.821   4.452 -0.1587 -0.1686  0.0860
  230POPC   GL2 3245   9.777   4.839   4.359 -0.1003  0.2366  0.3390
  230POPC   C1A 3246   9.371   5.175   4.645 -0.0282 -0.0401  0.0733
  230POPC   D2A 3247   9.345   5.387   5.048  0.1285  0.0467  0.0965
  230POPC   C3A 3248   9.190   5.122   5.277  0.0348 -0.1027  0.0659
  230POPC   C4A 3249   9.145   4.980   5.699 -0.1581  0.0084 -0.1185
  230POPC   C1B 3250   9.910   4.990   4.762  0.0505 -0.0966  0.1706
  230POPC   C2B 3251  10.182   5.179   5.063  0.1781  0.1395  0.0096
  230POPC   C3B 3252  10.299   5.164   5.442  0.0515  0.2132 -0.0221
  230POPC   C4B 3253  10.106   5.269   5.915 -0.2142  0.2619 -0.0782
  231POPC   NC3 3254   2.652   3.287   4.781 -0.4420 -0.3397  0.1398
  231POPC   PO4 3255   2.861   2.988   5.067  0.0405  0.2135  0.2123
  231POPC   GL1 3256   3.030   2.930   5.480  0.1968 -0.0131 -0.0645
  231POPC   GL2 3257   2.877   3.122   5.870  0.0969 -0.6119 -0.0825
  231POPC   C1A 3258   3.181   2.752   5.721 -0.1665  0.1467 -0.1811
  231POPC   D2A 3259   3.145   2.473   6.021  0.0022 -0.2580 -0.2493
  231POPC   C3A 3260   2.861   2.271   6.138 -0.0636 -0.0654  0.0972
  231POPC   C4A 3261   2.823   2.266   6.476 -0.2494  0.1602  0.4425
  231POPC   C1B 3262   2.895   2.871   6.261 -0.2797 -0.1632  0.0184
  231POPC   C2B 3263   2.432   2.646   6.289  0.0380 -0.0182 -0.1537
  231POPC   C3B 3264   2.345   2.386   6.632 -0.1970 -0.2026  0.1240
  231POPC   C4B 3265   2.627   2.153   6.951 -0.0698 -0.3581  0.2039
  232POPC   NC3 3266   9.671   6.531   3.628 -0.3231  0.1392 -0.2255
  232POPC   PO4 3267   9.687   6.770   4.081  0.1727  0.2940  0.0773
  232POPC   GL1 3268   9.695   6.780   4.623  0.0227  0.0291  0.0073
  232POPC   GL2 3269   9.650   7.029   4.801  0.0029 -0.0098 -0.0885
  232POPC   C1A 3270   9.780   6.569   5.045  0.2939  0.0417 -0.1936
  232POPC   D2A 3271   9.820   6.615   5.479 -0.2577 -0.5279  0.0065
  232POPC   C3A 3272   9.657   6.395   5.779  0.0937 -0.0596  0.0400
  232POPC   C4A 3273  10.021   6.257   6.140  0.2827 -0.1189  0.1420
  232POPC   C1B 3274   9.762   7.151   5.230 -0.0869 -0.1250 -0.0326
  232POPC   C2B 3275   9.578   7.109   5.567 -0.1092  0.1722 -0.4074
  232POPC   C3B 3276   9.511   6.874   5.985 -0.0509  0.2576  0.1190
  232POPC   C4B 3277   9.652   7.056   6.370  0.1574 -0.1249 -0.1949
  233POPC   NC3 3278   7.792   7.848   4.734  0.0994  0.0376 -0.2520
  233POPC   PO4 3279   7.946   7.888   5.148 -0.0548 -0.1139  0.1037
  233POPC   GL1 3280   7.779   7.789   5.550  0.0876  0.0915  0.1931
  233POPC   GL2 3281   7.623   8.061   5.575  0.0213  0.0981  0.2057
  233POPC   C1A 3282   7.828   7.254   5.829 -0.2277 -0.0664  0.3645
  233POPC   D2A 3283   7.689   7.146   6.190  0.0897  0.0626 -0.1242
  233POPC   C3A 3284   7.548   7.399   6.516  0.2861  0.0018  0.1220
  233POPC   C4A 3285   7.499   7.302   6.961  0.0493  0.0986 -0.0900
  233POPC   C1B 3286   7.488   8.116   5.931  0.0032  0.0435  0.1326
  233POPC   C2B 3287   7.831   8.193   6.339 -0.1545  0.0392 -0.0317
  233POPC   C3B 3288   7.907   7.981   6.621 -0.1780 -0.0283 -0.1750
  233POPC   C4B 3289   8.204   7.789   6.688  0.0122  0.1568  0.2614
  234POPC   NC3 3290   4.155   2.427   4.748 -0.0757  0.0622  0.1447
  234POPC   PO4 3291   3.763   2.224   4.543 -0.0706 -0.3196  0.1037
  234POPC   GL1 3292   3.817   2.100   4.989 -0.2836  0.4418  0.0499
  234POPC   GL2 3293   3.733   2.292   5.289  0.0706  0.1857 -0.0799
  234POPC   C1A 3294   4.009   1.962   5.445  0.3046 -0.0673  0.4269
  234POPC   D2A 3295   3.877   2.046   5.894  0.0101 -0.0591 -0.1306
  234POPC   C3A 3296   3.734   1.668   6.135  0.1299  0.0660 -0.4506
  234POPC   C4A 3297   3.448   1.708   6.512  0.0626  0.1662 -0.0714
  234POPC   C1B 3298   3.568   2.400   5.719 -0.3532 -0.0225  0.1238
  234POPC   C2B 3299   3.646   2.498   6.191 -0.1513 -0.0665  0.0181
  234POPC   C3B 3300   3.497   2.681   6.533 -0.0029  0.2767 -0.2049
  234POPC   C4B 3301   3.239   2.923   6.785  0.0601  0.2993 -0.0228
  235POPC   NC3 3302   5.321   9.792   4.610 -0.0209  0.2201 -0.0743
  235POPC   PO4 3303   5.284   9.457   4.820 -0.2333  0.1421  0.1185
  235POPC   GL1 3304   5.487   9.270   5.157 -0.2373 -0.0648  0.1857
  235POPC   GL2 3305   5.771   9.412   5.185 -0.1583  0.0016  0.0573
  235POPC   C1A 3306   5.446   9.187   5.595  0.0773 -0.0468 -0.0668
  235POPC   D2A 3307   5.702   9.032   5.980  0.0442 -0.1482 -0.2819
  235POPC   C3A 3308   6.076   9.058   5.887  0.0953  0.0375  0.1659
  235POPC   C4A 3309   6.386   9.069   5.572  0.2185  0.1026  0.2143
  235POPC   C1B 3310   6.105   9.483   5.439 -0.1454  0.1684  0.1477
  235POPC   C2B 3311   6.235   9.684   5.677  0.0335  0.0699 -0.1075
  235POPC   C3B 3312   6.301   9.635   6.052 -0.3117  0.3538  0.0464
  235POPC   C4B 3313   6.042   9.284   6.320  0.0342  0.1805  0.0109
  236POPC   NC3 3314   0.990   4.605   4.006  0.0578  0.1360  0.0124
  236POPC   PO4 3315   1.060   4.171   4.293  0.1710  0.1755  0.1172
  236POPC   GL1 3316   1.093   4.308   4.663 -0.3332 -0.0908  0.0937
  236POPC   GL2 3317   1.207   4.063   4.861  0.0265 -0.1151  0.0485
  236POPC   C1A 3318   0.953   4.692   4.894 -0.0153 -0.0401  0.0652
  236POPC   D2A 3319   0.665   4.792   5.255 -0.0546  0.0974 -0.1459
  236POPC   C3A 3320   0.785   4.965   5.512  0.0954 -0.1486 -0.1601
  236POPC   C4A 3321   1.196   5.087   5.669  0.1078 -0.0517 -0.0312
  236POPC   C1B 3322   1.386   4.380   5.058 -0.1440  0.1674  0.1974
  236POPC   C2B 3323   1.480   4.304   5.438  0.1644  0.1240  0.0004
  236POPC   C3B 3324   1.728   4.535   5.764  0.0643 -0.0712 -0.0904
  236POPC   C4B 3325   1.707   4.818   6.142 -0.0196 -0.1154 -0.0223
  237POPC   NC3 3326   1.257   0.715   5.329 -0.1240 -0.0829  0.1145
  237POPC   PO4 3327   1.120   0.373   5.233 -0.1015  0.2414  0.0132
  237POPC   GL1 3328   1.062   0.265   5.676  0.0572 -0.2378  0.0016
  237POPC   GL2 3329   0.939   0.122   5.951 -0.3328  0.2437  0.1238
  237POPC   C1A 3330   1.307   0.456   6.025 -0.2014 -0.1200  0.1539
  237POPC   D2A 3331   1.393   0.396   6.442 -0.0233  0.0788 -0.0471
  237POPC   C3A 3332   1.546   0.676   6.668 -0.0294 -0.0867 -0.0604
  237POPC   C4A 3333   1.552   0.947   6.924  0.0519  0.0899  0.2478
  237POPC   C1B 3334   1.048  -0.074   6.288 -0.0702  0.1120 -0.2555
  237POPC   C2B 3335   1.373  -0.117   6.539  0.3143  0.0622  0.4078
  237POPC   C3B 3336   1.691  -0.107   6.769 -0.0180 -0.3656 -0.0326
  237POPC   C4B 3337   1.952  -0.266   7.033  0.2010  0.1785 -0.1159
  238POPC   NC3 3338   0.623   6.198   3.055 -0.3298  0.0820  0.0072
  238POPC   PO4 3339   0.873   6.195   3.476 -0.3699 -0.0448 -0.0576
  238POPC   GL1 3340   0.943   6.083   3.884 -0.0897 -0.0023 -0.0200
  238POPC   GL2 3341   1.175   5.829   3.949  0.0584  0.1227 -0.0789
  238POPC   C1A 3342   0.870   5.959   4.334 -0.1753 -0.2020  0.1165
  238POPC   D2A 3343   0.865   5.714   4.755  0.0846 -0.0653 -0.3108
  238POPC   C3A 3344   0.618   5.800   5.169  0.1124  0.0819  0.2154
  238POPC   C4A 3345   0.363   5.824   5.480  0.0265 -0.0519  0.0998
  238POPC   C1B 3346   1.463   6.095   4.120 -0.3300  0.1377 -0.1040
  238POPC   C2B 3347   1.839   5.973   4.422 -0.1435 -0.0256 -0.1723
  238POPC   C3B 3348   1.816   6.086   4.711  0.0868 -0.1621 -0.2556
  238POPC   C4B 3349   1.561   6.178   5.090  0.7234  0.1734  0.3130
  239POPC   NC3 3350   4.028   5.179   4.662  0.0454  0.1155 -0.0980
  239POPC   PO4 3351   4.143   4.882   4.889 -0.0488  0.0522 -0.0965
  239POPC   GL1 3352   3.771   5.041   5.129 -0.0729 -0.1297  0.0412
  239POPC   GL2 3353   3.759   5.396   5.105  0.1688 -0.1061 -0.0166
  239POPC   C1A 3354   3.354   5.129   5.327  0.1016 -0.2252  0.1079
  239POPC   D2A 3355   3.231   5.115   5.730 -0.2193  0.1522  0.1931
  239POPC   C3A 3356   3.550   5.202   6.052  0.3068  0.0613 -0.0512
  239POPC   C4A 3357   3.608   5.102   6.589  0.1695 -0.1474 -0.1086
  239POPC   C1B 3358   3.847   5.771   5.330 -0.1344  0.0044 -0.0223
  239POPC   C2B 3359   3.862   5.940   5.695  0.1455 -0.0329  0.1246
  239POPC   C3B 3360   4.052   6.134   6.069  0.0613 -0.0660 -0.1860
  239POPC   C4B 3361   4.367   6.341   6.342  0.0393 -0.2911 -0.0071
  240POPC   NC3 3362   5.223   4.612   4.319  0.1556  0.3056  0.0375
  240POPC   PO4 3363   4.936   4.395   4.548 -0.0331 -0.0464  0.3424
  240POPC   GL1 3364   4.991   4.312   4.913  0.1559  0.2250 -0.0063
  240POPC   GL2 3365   4.796   4.556   5.055 -0.1443  0.0664 -0.1596
  240POPC   C1A 3366   5.172   3.933   5.125  0.2381  0.4388 -0.0074
  240POPC   D2A 3367   5.045   3.574   5.049  0.2417  0.2974 -0.0134
  240POPC   C3A 3368   4.956   3.535   5.476  0.0338 -0.2003 -0.0600
  240POPC   C4A 3369   5.138   3.390   5.870 -0.3942 -0.0162  0.4359
  240POPC   C1B 3370   4.958   4.439   5.412 -0.3878 -0.1224 -0.0776
  240POPC   C2B 3371   5.260   4.418   5.637 -0.2422  0.2263  0.1385
  240POPC   C3B 3372   5.431   4.344   6.019 -0.0235  0.0666  0.1953
  240POPC   C4B 3373   5.301   4.295   6.450 -0.1967  0.0197 -0.2509
  241POPC   NC3 3374   5.151   1.640   4.858 -0.1681  0.0556  0.0853
  241POPC   PO4 3375   4.729   1.972   4.844  0.0461  0.1762  0.0699
  241POPC   GL1 3376   4.591   2.106   5.248 -0.1672  0.1994 -0.0451
  241POPC   GL2 3377   4.318   2.333   5.241 -0.0407  0.0924 -0.1560
  241POPC   C1A 3378   4.425   2.013   5.726  0.3981 -0.0178 -0.1024
  241POPC   D2A 3379   4.480   1.584   5.892 -0.0174 -0.1549 -0.0489
  241POPC   C3A 3380   4.621   1.616   6.382  0.1333  0.1507 -0.0576
  241POPC   C4A 3381   4.908   1.717   6.624 -0.1970 -0.0030 -0.1894
  241POPC   C1B 3382   4.141   2.382   5.619  0.0746 -0.0014  0.0363
  241POPC   C2B 3383   4.190   2.454   6.052 -0.4211  0.0084 -0.0813
  241POPC   C3B 3384   4.121   2.616   6.469 -0.0367 -0.1846  0.2689
  241POPC   C4B 3385   3.862   2.348   6.823 -0.0623 -0.0314 -0.1920
  242POPC   NC3 3386   3.061   3.598   5.200  0.0895  0.0314 -0.6413
  242POPC   PO4 3387   3.455   3.758   5.320  0.0084  0.1255  0.0894
  242POPC   GL1 3388   3.534   3.996   5.687 -0.0977 -0.0530 -0.3756
  242POPC   GL2 3389   3.534   4.356   5.541  0.1548  0.0119 -0.2039
  242POPC   C1A 3390   3.904   4.154   6.050  0.2783  0.1078 -0.1450
  242POPC   D2A 3391   4.168   4.043   6.379  0.0586  0.1757 -0.1196
  242POPC   C3A 3392   4.252   4.060   6.896 -0.0575  0.1669 -0.0973
  242POPC   C4A 3393   4.114   4.410   7.100 -0.0087  0.0245  0.0992
  242POPC   C1B 3394   3.525   4.757   5.565 -0.0690  0.3448 -0.0980
  242POPC   C2B 3395   3.759   5.115   5.608  0.3197 -0.2725 -0.3043
  242POPC   C3B 3396   3.583   5.488   5.625 -0.0531  0.0325  0.1109
  242POPC   C4B 3397   3.377   5.675   5.928 -0.0136  0.0613  0.0440
  243POPC   NC3 3398   2.845   8.487   4.859 -0.1745 -0.1336  0.2261
  243POPC   PO4 3399   2.895   8.118   4.603 -0.1761  0.3563  0.4374
  243POPC   GL1 3400   2.817   7.875   4.941 -0.1600  0.1494 -0.1792
  243POPC   GL2 3401   2.853   7.507   4.922  0.2187  0.1787  0.0397
  243POPC   C1A 3402   3.088   8.081   5.308 -0.0389 -0.2349 -0.0788
  243POPC   D2A 3403   3.527   8.122   5.470  0.0706  0.0242  0.2035
  243POPC   C3A 3404   3.649   8.016   5.924  0.1438 -0.0442  0.2733
  243POPC   C4A 3405   3.386   7.817   6.301 -0.5923 -0.1050  0.1946
  243POPC   C1B 3406   2.842   7.341   5.378  0.1225  0.1245  0.1996
  243POPC   C2B 3407   2.885   7.377   5.808 -0.0916  0.1821  0.0776
  243POPC   C3B 3408   3.003   7.394   6.235  0.1772  0.0782  0.2169
  243POPC   C4B 3409   3.267   7.407   6.612 -0.0535  0.0955 -0.0051
  244POPC   NC3 3410   4.215   6.567   3.993 -0.2158  0.1068 -0.1880
  244POPC   PO4 3411   4.434   6.223   4.316  0.0176  0.1297  0.1501
  244POPC   GL1 3412   4.365   6.596   4.504  0.1511 -0.0790 -0.1449
  244POPC   GL2 3413   4.460   6.773   4.779  0.0521 -0.2443 -0.0341
  244POPC   C1A 3414   4.068   6.712   4.947 -0.0740 -0.0108  0.0365
  244POPC   D2A 3415   4.150   7.207   4.934  0.1983 -0.2389 -0.0687
  244POPC   C3A 3416   4.203   7.268   5.396 -0.1957  0.1358  0.0491
  244POPC   C4A 3417   4.040   7.262   5.846 -0.1299 -0.1381 -0.0000
  244POPC   C1B 3418   4.455   6.750   5.186  0.3917  0.2005  0.2202
  244POPC   C2B 3419   4.199   6.759   5.584 -0.0022  0.4415  0.0738
  244POPC   C3B 3420   4.170   6.642   5.973  0.0011  0.0813  0.1706
  244POPC   C4B 3421   3.858   6.534   6.218 -0.0902 -0.1274 -0.2648
  245POPC   NC3 3422  10.082   4.100   4.388  0.2499 -0.2434  0.0740
  245POPC   PO4 3423   9.530   3.914   4.504 -0.1071  0.3759  0.0658
  245POPC   GL1 3424   9.552   3.836   4.983 -0.0551 -0.0829  0.1948
  245POPC   GL2 3425   9.451   4.250   4.980  0.1054  0.3219 -0.0677
  245POPC   C1A 3426   9.840   3.721   5.241  0.0838  0.1626  0.4660
  245POPC   D2A 3427   9.969   3.766   5.695 -0.2692 -0.1618 -0.1207
  245POPC   C3A 3428   9.791   3.980   6.024 -0.3473 -0.2155  0.0539
  245POPC   C4A 3429   9.730   4.474   6.051  0.4846  0.0650 -0.2174
  245POPC   C1B 3430   9.746   4.264   5.280 -0.1873 -0.1936 -0.3207
  245POPC   C2B 3431  10.182   4.255   5.519  0.0386 -0.0669 -0.0944
  245POPC   C3B 3432  10.316   4.043   5.922  0.2338  0.1293 -0.1100
  245POPC   C4B 3433  10.365   3.774   6.273 -0.1024 -0.0591 -0.0277
  246POPC   NC3 3434   2.713   9.525   5.007 -0.2045  0.2403 -0.2071
  246POPC   PO4 3435   2.762   9.041   4.744 -0.0731  0.0639  0.2181
  246POPC   GL1 3436   2.832   8.917   5.194 -0.2596 -0.1004  0.1862
  246POPC   GL2 3437   2.651   8.763   5.306 -0.0760  0.4048  0.3169
  246POPC   C1A 3438   2.931   8.928   5.681 -0.1334  0.1963 -0.0343
  246POPC   D2A 3439   3.268   8.921   5.957 -0.0617 -0.2521 -0.2407
  246POPC   C3A 3440   3.451   8.807   6.282  0.1777  0.0681 -0.1724
  246POPC   C4A 3441   3.178   8.671   6.521 -0.3180  0.1125  0.0990
  246POPC   C1B 3442   2.538   8.364   5.686 -0.5146 -0.1794  0.1239
  246POPC   C2B 3443   2.554   8.211   6.030 -0.1531 -0.1347  0.1617
  246POPC   C3B 3444   2.343   7.970   6.362  0.0297  0.0999  0.3044
  246POPC   C4B 3445   2.020   7.750   6.601 -0.0120  0.1772 -0.2299
  247POPC   NC3 3446   0.036   3.260   4.827  0.1947 -0.1769 -0.1164
  247POPC   PO4 3447  -0.360   3.151   4.731 -0.1320 -0.1240  0.0301
  247POPC   GL1 3448  -0.344   3.347   5.160 -0.4638  0.2118 -0.0161
  247POPC   GL2 3449  -0.347   3.094   5.406  0.0245  0.2362  0.1993
  247POPC   C1A 3450  -0.133   3.619   5.401 -0.0502 -0.1386 -0.0183
  247POPC   D2A 3451  -0.241   3.400   5.912  0.1839 -0.0101  0.1014
  247POPC   C3A 3452  -0.300   3.209   6.312  0.1002  0.2359  0.0719
  247POPC   C4A 3453  -0.269   3.459   6.692  0.0409 -0.1637  0.1836
  247POPC   C1B 3454  -0.612   2.989   5.748 -0.1323 -0.0117  0.0101
  247POPC   C2B 3455  -0.732   2.932   6.221 -0.1559 -0.2501  0.0378
  247POPC   C3B 3456  -1.074   2.878   6.444 -0.0450 -0.3691 -0.1585
  247POPC   C4B 3457  -1.067   2.993   6.970  0.1300  0.0874  0.1787
  248POPC   NC3 3458  10.222   6.456   3.685 -0.0138 -0.0312  0.0515
  248POPC   PO4 3459  10.130   6.826   3.680  0.0673 -0.0948  0.1180
  248POPC   GL1 3460  10.283   6.737   4.115  0.0822 -0.2652 -0.0410
  248POPC   GL2 3461  10.127   6.502   4.164 -0.0564 -0.0898 -0.0312
  248POPC   C1A 3462  10.590   6.634   4.226 -0.1208  0.3272 -0.3151
  248POPC   D2A 3463  10.991   6.341   4.119 -0.0617  0.0935 -0.2853
  248POPC   C3A 3464  10.826   5.886   4.186  0.0654 -0.1654 -0.1886
  248POPC   C4A 3465  10.494   5.633   4.403  0.2809 -0.2547  0.0269
  248POPC   C1B 3466  10.238   6.761   4.596  0.1263 -0.2234 -0.2698
  248POPC   C2B 3467  10.145   7.097   4.830 -0.1303  0.0987  0.1841
  248POPC   C3B 3468  10.257   7.359   5.237  0.1445 -0.0558 -0.0677
  248POPC   C4B 3469  10.333   7.423   5.737  0.0933 -0.3438 -0.1676
  249POPC   NC3 3470   1.922   9.817   4.610  0.1189  0.0582 -0.0891
  249POPC   PO4 3471   1.608  10.016   5.078  0.5344  0.1371  0.1449
  249POPC   GL1 3472   1.882   9.956   5.523 -0.0910  0.0954 -0.0918
  249POPC   GL2 3473   2.154   9.900   5.547  0.0426 -0.3302  0.4145
  249POPC   C1A 3474   1.829   9.693   5.940  0.1237 -0.0498  0.1288
  249POPC   D2A 3475   1.853   9.519   6.289 -0.1911  0.1791  0.1692
  249POPC   C3A 3476   1.553   9.617   6.506 -0.0564 -0.0363 -0.0251
  249POPC   C4A 3477   1.110   9.920   6.514  0.3085 -0.0871 -0.1813
  249POPC   C1B 3478   2.143  10.064   5.979 -0.0452  0.1213 -0.1509
  249POPC   C2B 3479   2.095  10.346   6.391 -0.1223  0.0280 -0.2063
  249POPC   C3B 3480   2.412  10.425   6.761 -0.1426  0.0680  0.2686
  249POPC   C4B 3481   2.530  10.386   7.108 -0.1112 -0.0873 -0.1822
  250POPC   NC3 3482   8.173   1.292   5.170  0.2938  0.3382  0.2118
  250POPC   PO4 3483   8.039   1.774   4.899  0.0685  0.0804  0.1721
  250POPC   GL1 3484   8.258   1.757   5.360  0.1174 -0.3459 -0.0011
  250POPC   GL2 3485   8.179   1.518   5.596 -0.2563 -0.1039  0.1121
  250POPC   C1A 3486   8.353   2.058   5.759  0.2999 -0.0621  0.0055
  250POPC   D2A 3487   8.505   2.379   6.143 -0.1663  0.0689  0.0496
  250POPC   C3A 3488   8.625   2.315   6.569  0.0285  0.2742  0.2170
  250POPC   C4A 3489   8.690   2.375   7.070 -0.3164  0.2646 -0.1795
  250POPC   C1B 3490   8.380   1.161   5.789 -0.1151 -0.1753  0.1136
  250POPC   C2B 3491   8.093   0.909   6.084  0.0880 -0.2681  0.2041
  250POPC   C3B 3492   7.799   0.800   6.351  0.1485  0.1701 -0.0467
  250POPC   C4B 3493   7.819   0.315   6.514 -0.0467  0.0753  0.0502
  251POPC   NC3 3494   2.927   7.674   4.400 -0.1369  0.2587  0.1504
  251POPC   PO4 3495   3.047   7.231   4.223 -0.2206 -0.2290 -0.0296
  251POPC   GL1 3496   3.059   7.155   4.599 -0.0079 -0.1694 -0.2517
  251POPC   GL2 3497   3.428   7.038   4.582  0.0555 -0.3741  0.2965
  251POPC   C1A 3498   3.342   7.349   4.973  0.1989 -0.1215  0.0285
  251POPC   D2A 3499   3.672   7.231   5.255  0.1053  0.3008 -0.1002
  251POPC   C3A 3500   3.674   7.007   5.681  0.0497  0.1179  0.2753
  251POPC   C4A 3501   3.225   7.026   5.888 -0.0853  0.1034  0.0815
  251POPC   C1B 3502   3.519   6.859   4.941 -0.0227 -0.3110 -0.1764
  251POPC   C2B 3503   3.706   6.655   5.323 -0.2119  0.5659  0.0697
  251POPC   C3B 3504   3.641   6.470   5.772 -0.1852 -0.2643  0.0308
  251POPC   C4B 3505   3.532   6.195   6.128  0.0500 -0.0259  0.1407
  252POPC   NC3 3506   2.530   0.393   5.106 -0.0619 -0.0153 -0.2642
  252POPC   PO4 3507   2.138   0.393   5.349 -0.0137 -0.2355  0.1386
  252POPC   GL1 3508   2.260   0.610   5.774 -0.2775  0.3681 -0.5181
  252POPC   GL2 3509   2.105   0.579   6.026 -0.0550  0.2805  0.0976
  252POPC   C1A 3510   2.457   0.976   6.052 -0.0660  0.5944 -0.3101
  252POPC   D2A 3511   2.411   0.861   6.596 -0.0271  0.2538  0.2470
  252POPC   C3A 3512   2.528   1.173   6.913 -0.0605 -0.4769  0.2429
  252POPC   C4A 3513   2.209   1.251   7.196 -0.1320  0.1652 -0.3597
  252POPC   C1B 3514   2.418   0.345   6.329 -0.0239  0.1734 -0.0043
  252POPC   C2B 3515   2.832   0.237   6.544  0.0303  0.1075  0.1962
  252POPC   C3B 3516   3.019   0.030   6.936  0.0180 -0.1198 -0.2113
  252POPC   C4B 3517   2.954   0.134   7.361 -0.0623 -0.1410 -0.0631
  253POPC   NC3 3518   3.505   1.188   5.202  0.0234  0.0151  0.1524
  253POPC   PO4 3519   3.053   1.101   5.299  0.3749 -0.0682  0.2561
  253POPC   GL1 3520   3.232   1.062   5.726 -0.6702  0.0728  0.0424
  253POPC   GL2 3521   3.523   1.004   5.752  0.1560 -0.0671 -0.0199
  253POPC   C1A 3522   3.065   0.980   6.098 -0.0120 -0.2292  0.3318
  253POPC   D2A 3523   2.888   0.764   6.456  0.1474 -0.1348  0.0776
  253POPC   C3A 3524   2.953   0.651   6.878  0.1120 -0.0680 -0.2277
  253POPC   C4A 3525   2.877   0.723   7.327  0.2345  0.0828 -0.0299
  253POPC   C1B 3526   3.605   1.178   6.148  0.1163  0.0126  0.0772
  253POPC   C2B 3527   3.661   1.211   6.552 -0.2004 -0.2308  0.3925
  253POPC   C3B 3528   4.015   0.957   6.757  0.0078  0.1000 -0.0571
  253POPC   C4B 3529   4.521   0.840   6.932 -0.3038 -0.1383 -0.0114
  254POPC   NC3 3530   9.577   0.897   5.010 -0.0128  0.5248  0.2477
  254POPC   PO4 3531   9.362   0.898   5.340  0.0120  0.4099 -0.2506
  254POPC   GL1 3532   9.335   0.691   5.768  0.3182 -0.1212  0.0582
  254POPC   GL2 3533   9.590   0.611   6.029 -0.0123  0.1417  0.1147
  254POPC   C1A 3534   9.081   0.762   6.033 -0.1586  0.1413 -0.3448
  254POPC   D2A 3535   8.812   0.972   6.167 -0.0351 -0.4481  0.0639
  254POPC   C3A 3536   8.814   1.248   6.546 -0.1014  0.0158  0.2388
  254POPC   C4A 3537   8.414   1.362   6.785 -0.2115  0.2433  0.0910
  254POPC   C1B 3538   9.786   0.748   6.404  0.0147  0.2658 -0.1612
  254POPC   C2B 3539   9.945   0.635   6.859 -0.0085  0.0033  0.1076
  254POPC   C3B 3540  10.189   0.270   6.944 -0.0001 -0.0748 -0.2484
  254POPC   C4B 3541  10.194   0.093   7.308  0.1724 -0.0241 -0.1446
  255POPC   NC3 3542   4.308   5.704   4.406  0.3399  0.3737 -0.2980
  255POPC   PO4 3543   4.476   5.265   4.577  0.0311 -0.1337  0.0470
  255POPC   GL1 3544   4.324   5.507   4.900  0.0188  0.0972  0.5557
  255POPC   GL2 3545   4.240   5.384   5.200 -0.3619  0.2890 -0.0662
  255POPC   C1A 3546   4.331   5.880   5.214 -0.4933  0.2308  0.1163
  255POPC   D2A 3547   4.405   5.926   5.656 -0.1772  0.2214  0.0622
  255POPC   C3A 3548   4.572   6.219   5.802  0.0534 -0.1011  0.0404
  255POPC   C4A 3549   4.638   6.595   5.677  0.2403 -0.0750  0.2796
  255POPC   C1B 3550   4.149   5.499   5.623 -0.1190 -0.0285 -0.1353
  255POPC   C2B 3551   3.883   5.604   6.029 -0.1174  0.0417  0.2729
  255POPC   C3B 3552   3.617   5.682   6.417 -0.2729  0.1600  0.0472
  255POPC   C4B 3553   3.292   5.749   6.617 -0.1288  0.2914  0.2382
  256POPC   NC3 3554   1.518   0.962   4.977 -0.0726 -0.0920  0.1579
  256POPC   PO4 3555   1.249   1.175   5.185  0.1521  0.2924  0.0176
  256POPC   GL1 3556   1.489   1.228   5.615  0.0424 -0.2332 -0.2979
  256POPC   GL2 3557   1.325   0.912   5.801 -0.2053 -0.1969  0.1546
  256POPC   C1A 3558   1.805   1.199   5.967  0.2864 -0.5276  0.3455
  256POPC   D2A 3559   2.191   1.330   6.142 -0.1074 -0.0757 -0.0382
  256POPC   C3A 3560   2.177   1.356   6.592 -0.0999 -0.0671 -0.1852
  256POPC   C4A 3561   1.855   1.335   6.904  0.1174 -0.1355 -0.1471
  256POPC   C1B 3562   1.658   0.791   6.057 -0.0145 -0.0307 -0.0921
  256POPC   C2B 3563   1.824   1.031   6.451  0.2888 -0.0278 -0.3681
  256POPC   C3B 3564   1.422   1.234   6.585  0.0595  0.2884  0.0818
  256POPC   C4B 3565   0.977   1.396   6.401 -0.1182 -0.0542  0.2131
  257POPC   NC3 3566   7.270   1.800   5.143  0.2982 -0.1988 -0.0353
  257POPC   PO4 3567   7.073   2.122   5.019 -0.0067  0.0648  0.0432
  257POPC   GL1 3568   7.158   2.164   5.455 -0.2453  0.1939 -0.0636
  257POPC   GL2 3569   7.393   1.825   5.616 -0.0277  0.2400 -0.1536
  257POPC   C1A 3570   6.958   2.345   5.870  0.2659  0.1486  0.1328
  257POPC   D2A 3571   6.876   2.275   6.264  0.2066 -0.0342  0.0895
  257POPC   C3A 3572   6.411   2.284   6.401 -0.3493  0.2304  0.1273
  257POPC   C4A 3573   6.074   1.944   6.424 -0.0106 -0.0918 -0.0438
  257POPC   C1B 3574   7.099   1.783   5.992  0.0483 -0.2941 -0.0567
  257POPC   C2B 3575   7.122   1.437   6.225 -0.1204 -0.0932 -0.1331
  257POPC   C3B 3576   6.884   1.356   6.679  0.3764 -0.1246  0.0803
  257POPC   C4B 3577   6.508   1.182   6.890 -0.0958 -0.0822  0.1441
  258POPC   NC3 3578   7.159   3.552   4.853  0.1344 -0.2255  0.0872
  258POPC   PO4 3579   7.542   3.588   5.167 -0.1384  0.3948 -0.2200
  258POPC   GL1 3580   7.747   3.743   5.478 -0.2289 -0.3454  0.0657
  258POPC   GL2 3581   7.987   3.544   5.596 -0.0412  0.0070 -0.2634
  258POPC   C1A 3582   7.800   3.903   5.936 -0.0247 -0.5466 -0.2447
  258POPC   D2A 3583   8.017   3.970   6.312 -0.1627  0.0513 -0.1651
  258POPC   C3A 3584   7.777   4.067   6.694 -0.1059 -0.2215  0.1977
  258POPC   C4A 3585   7.649   3.847   6.972  0.4033  0.0373 -0.2149
  258POPC   C1B 3586   8.058   3.442   6.024  0.1251 -0.4211 -0.0762
  258POPC   C2B 3587   8.351   3.326   6.396 -0.0808  0.0110  0.0698
  258POPC   C3B 3588   8.653   3.486   6.733 -0.3603  0.1107 -0.1502
  258POPC   C4B 3589   9.060   3.489   6.982 -0.1596 -0.1033  0.0255
  259POPC   NC3 3590   4.430   4.456   4.798  0.0804  0.5582 -0.2051
  259POPC   PO4 3591   4.053   4.159   4.901 -0.2646  0.1789 -0.0760
  259POPC   GL1 3592   4.381   4.188   5.214  0.1451  0.1993  0.1405
  259POPC   GL2 3593   4.636   3.942   5.060 -0.1369  0.0078  0.1512
  259POPC   C1A 3594   4.401   4.477   5.474  0.1316  0.1073 -0.2836
  259POPC   D2A 3595   4.552   4.647   5.808 -0.1013 -0.3291 -0.2419
  259POPC   C3A 3596   4.520   4.901   6.120  0.1029 -0.1534  0.2485
  259POPC   C4A 3597   4.493   5.065   6.552 -0.0618  0.1209  0.3208
  259POPC   C1B 3598   4.717   3.990   5.527  0.0716 -0.1499  0.0546
  259POPC   C2B 3599   4.899   4.196   5.884 -0.3601 -0.3042 -0.2819
  259POPC   C3B 3600   4.901   4.537   6.197  0.2551 -0.2671  0.0750
  259POPC   C4B 3601   4.971   4.581   6.630  0.3720  0.0402 -0.1068
  260POPC   NC3 3602   9.249   9.721   5.260 -0.0151 -0.1778  0.1741
  260POPC   PO4 3603   9.625  10.044   5.118  0.0379  0.0245 -0.0699
  260POPC   GL1 3604   9.628  10.079   5.488  0.0713 -0.2380 -0.0336
  260POPC   GL2 3605   9.627   9.764   5.599 -0.0640  0.0906  0.0324
  260POPC   C1A 3606   9.750  10.148   5.940  0.1153  0.4629  0.1628
  260POPC   D2A 3607   9.922  10.513   6.102 -0.0172 -0.1750  0.2020
  260POPC   C3A 3608   9.935  10.710   6.503  0.0611  0.0890  0.1151
  260POPC   C4A 3609   9.708  10.644   6.960 -0.2665  0.2647 -0.0360
  260POPC   C1B 3610   9.743   9.505   5.920 -0.1789  0.0826 -0.1825
  260POPC   C2B 3611   9.666   9.238   6.218 -0.1178  0.2259 -0.1158
  260POPC   C3B 3612   9.636   9.084   6.655  0.1516  0.2355 -0.1302
  260POPC   C4B 3613   9.851   9.161   7.132  0.2405 -0.0699 -0.1437
  261POPC   NC3 3614   6.009   3.541   4.482 -0.0086  0.2303 -0.1072
  261POPC   PO4 3615   6.001   4.051   4.580  0.0313  0.2331  0.1076
  261POPC   GL1 3616   5.885   4.073   5.102  0.2963  0.1182 -0.1550
  261POPC   GL2 3617   6.127   4.104   5.300  0.1160 -0.0749 -0.0096
  261POPC   C1A 3618   5.556   4.056   5.446 -0.0558  0.1438  0.0470
  261POPC   D2A 3619   5.185   3.891   5.687 -0.2193 -0.1740 -0.1175
  261POPC   C3A 3620   5.154   3.828   6.090  0.0896  0.0410  0.2377
  261POPC   C4A 3621   5.176   3.659   6.492 -0.1949  0.0814  0.0574
  261POPC   C1B 3622   6.007   4.097   5.626 -0.2916 -0.1191 -0.1911
  261POPC   C2B 3623   5.934   4.093   6.046 -0.4213 -0.1183  0.0849
  261POPC   C3B 3624   5.719   4.027   6.419 -0.0797  0.1343 -0.1633
  261POPC   C4B 3625   5.464   3.943   6.833  0.1534 -0.2648 -0.0189
  262POPC   NC3 3626   3.661   0.193   4.864 -0.3174 -0.1104 -0.1847
  262POPC   PO4 3627   3.385  -0.121   5.173  0.3321  0.0987 -0.1325
  262POPC   GL1 3628   3.591  -0.349   5.476 -0.2317  0.1870  0.0611
  262POPC   GL2 3629   3.849  -0.533   5.430  0.0942 -0.3152  0.4060
  262POPC   C1A 3630   3.407  -0.677   5.739  0.0477  0.0348 -0.1149
  262POPC   D2A 3631   3.452  -0.628   6.199  0.0471  0.1062 -0.2279
  262POPC   C3A 3632   3.356  -0.747   6.644  0.0918 -0.0645  0.1347
  262POPC   C4A 3633   3.351  -0.413   7.000  0.2663 -0.0670  0.1240
  262POPC   C1B 3634   3.897  -0.662   5.790  0.2731  0.1897 -0.1055
  262POPC   C2B 3635   3.912  -0.721   6.138  0.0180 -0.1599  0.3522
  262POPC   C3B 3636   3.789  -0.915   6.480 -0.1953  0.0538  0.2258
  262POPC   C4B 3637   3.570  -1.184   6.659 -0.0499 -0.1179 -0.2495
  263POPC   NC3 3638   9.765   3.128   4.365 -0.0816 -0.1431  0.3313
  263POPC   PO4 3639   9.601   2.978   4.785 -0.0578 -0.0020 -0.0648
  263POPC   GL1 3640   9.665   3.037   5.231 -0.2517  0.1451 -0.1223
  263POPC   GL2 3641   9.555   3.291   5.182 -0.2942  0.0482 -0.0238
  263POPC   C1A 3642   9.300   3.005   5.569  0.1107  0.4132  0.0039
  263POPC   D2A 3643   9.259   2.809   5.988 -0.0249  0.0759  0.1477
  263POPC   C3A 3644   8.869   2.767   6.316  0.2266 -0.1382 -0.1597
  263POPC   C4A 3645   8.550   2.862   6.509  0.2517  0.0109  0.1461
  263POPC   C1B 3646   9.641   3.409   5.609  0.0092 -0.1593  0.0513
  263POPC   C2B 3647   9.783   3.471   6.096 -0.0372 -0.0745 -0.1586
  263POPC   C3B 3648   9.858   3.746   6.484  0.2992 -0.2061  0.0524
  263POPC   C4B 3649   9.942   3.875   6.852  0.2433 -0.1668 -0.2114
  264POPC   NC3 3650   0.096   0.970   5.145 -0.1556  0.0077  0.0669
  264POPC   PO4 3651   0.322   0.762   5.438  0.1119 -0.1357  0.0576
  264POPC   GL1 3652   0.366   0.863   5.822 -0.0713 -0.1164  0.1963
  264POPC   GL2 3653   0.351   1.181   5.881  0.0642 -0.1780 -0.0016
  264POPC   C1A 3654   0.183   0.863   6.206  0.0019 -0.1150 -0.4377
  264POPC   D2A 3655   0.273   0.897   6.668 -0.0162  0.3027 -0.0538
  264POPC   C3A 3656   0.592   0.698   6.899 -0.4222  0.0050 -0.3835
  264POPC   C4A 3657   0.527   0.487   7.186 -0.4267 -0.1651 -0.2042
  264POPC   C1B 3658   0.288   1.334   6.277  0.1286  0.1667  0.4140
  264POPC   C2B 3659   0.219   1.374   6.629 -0.3182  0.3706 -0.2110
  264POPC   C3B 3660   0.291   1.319   7.028 -0.0311  0.2418  0.1238
  264POPC   C4B 3661   0.345   0.963   7.216 -0.1276 -0.0647 -0.0243
  265POPC   NC3 3662   0.409   2.970   4.848 -0.2169  0.4912  0.2048
  265POPC   PO4 3663   0.780   3.276   4.951 -0.1900 -0.2634  0.2607
  265POPC   GL1 3664   0.770   3.620   5.177 -0.0815  0.1841  0.2927
  265POPC   GL2 3665   0.709   3.815   4.979  0.2167 -0.2678 -0.0545
  265POPC   C1A 3666   1.086   3.943   5.366  0.1196 -0.1655 -0.0548
  265POPC   D2A 3667   1.304   3.857   5.725 -0.1047 -0.1179  0.1327
  265POPC   C3A 3668   1.046   3.923   6.042 -0.1215  0.0123 -0.0904
  265POPC   C4A 3669   0.773   4.299   6.154  0.0342  0.1454 -0.3227
  265POPC   C1B 3670   0.725   4.194   5.137 -0.0295 -0.2990  0.0568
  265POPC   C2B 3671   1.013   4.500   5.375 -0.3382  0.3459 -0.0958
  265POPC   C3B 3672   1.175   4.444   5.832  0.1413  0.2151  0.1417
  265POPC   C4B 3673   1.408   4.311   6.083  0.0336  0.1582  0.1406
  266POPC   NC3 3674   7.894   3.725   4.585  0.1286 -0.1973 -0.0194
  266POPC   PO4 3675   8.155   3.996   4.724  0.1156  0.0694 -0.2991
  266POPC   GL1 3676   8.281   4.054   5.198 -0.0688  0.3425 -0.1276
  266POPC   GL2 3677   8.158   4.045   5.408 -0.1626  0.0781 -0.1731
  266POPC   C1A 3678   8.674   4.165   5.484 -0.1694  0.0875  0.1158
  266POPC   D2A 3679   8.938   3.982   5.754 -0.2318 -0.0560  0.0622
  266POPC   C3A 3680   8.768   4.198   6.144  0.1551  0.1616 -0.2488
  266POPC   C4A 3681   8.495   3.931   6.435 -0.0987  0.3530  0.0439
  266POPC   C1B 3682   8.284   4.039   5.844 -0.1238 -0.2086  0.3112
  266POPC   C2B 3683   8.291   4.355   6.145  0.0659 -0.1408  0.2211
  266POPC   C3B 3684   8.577   4.628   6.512  0.5245  0.0036  0.0840
  266POPC   C4B 3685   8.564   5.027   6.567 -0.1549  0.0718  0.0778
  267POPC   NC3 3686   7.703   2.762   5.045 -0.0755  0.1923 -0.1106
  267POPC   PO4 3687   8.025   2.544   5.339  0.2893 -0.0492 -0.1423
  267POPC   GL1 3688   7.733   2.698   5.570  0.2595 -0.0249 -0.2828
  267POPC   GL2 3689   7.593   2.464   5.639  0.0236  0.1169  0.3714
  267POPC   C1A 3690   7.744   2.821   5.913  0.2477  0.2670 -0.1097
  267POPC   D2A 3691   7.763   3.031   6.140 -0.2603 -0.4812 -0.3453
  267POPC   C3A 3692   7.850   3.047   6.554  0.0167 -0.0202  0.0497
  267POPC   C4A 3693   7.722   2.733   6.842 -0.0089 -0.0621 -0.1642
  267POPC   C1B 3694   7.427   2.222   5.894  0.0406  0.0898 -0.2797
  267POPC   C2B 3695   7.342   2.117   6.346 -0.2910 -0.0263  0.0660
  267POPC   C3B 3696   7.301   1.731   6.634  0.1643 -0.2083 -0.2175
  267POPC   C4B 3697   7.397   1.424   6.899 -0.0850  0.0113  0.0319
  268POPC   NC3 3698   0.444   2.170   5.228 -0.2697  0.1533 -0.1174
  268POPC   PO4 3699   0.783   2.129   4.929 -0.1393 -0.0447 -0.0206
  268POPC   GL1 3700   0.881   2.341   5.399 -0.0235  0.0241 -0.1237
  268POPC   GL2 3701   1.140   2.105   5.547  0.1214  0.1163 -0.4296
  268POPC   C1A 3702   1.007   2.708   5.685  0.1802  0.3553 -0.0119
  268POPC   D2A 3703   1.148   2.970   6.062  0.0825  0.1676  0.3843
  268POPC   C3A 3704   1.211   3.176   6.420 -0.0072  0.0782 -0.1078
  268POPC   C4A 3705   1.084   3.367   6.726 -0.0607  0.2326  0.0112
  268POPC   C1B 3706   1.585   2.011   5.646 -0.1221 -0.0927 -0.3336
  268POPC   C2B 3707   1.612   2.119   6.140  0.0783 -0.2872  0.1083
  268POPC   C3B 3708   1.428   2.279   6.545 -0.0423  0.0154  0.2605
  268POPC   C4B 3709   1.248   2.236   6.886  0.2501  0.2203  0.1435
  269POPC   NC3 3710   5.559   6.740   4.878  0.3272  0.1947 -0.1277
  269POPC   PO4 3711   5.692   7.097   5.089 -0.2817 -0.1565 -0.1191
  269POPC   GL1 3712   5.823   7.138   5.429 -0.0517  0.1198  0.0658
  269POPC   GL2 3713   6.239   7.192   5.591  0.2701  0.2059 -0.1861
  269POPC   C1A 3714   5.811   7.465   5.827  0.2052 -0.1408 -0.0633
  269POPC   D2A 3715   5.740   7.665   6.088  0.1487 -0.0394 -0.1569
  269POPC   C3A 3716   5.960   7.966   6.363 -0.2042 -0.1240 -0.0031
  269POPC   C4A 3717   6.224   8.287   6.447 -0.1880 -0.1142 -0.0452
  269POPC   C1B 3718   6.286   6.828   5.900 -0.0149  0.0767  0.0235
  269POPC   C2B 3719   6.013   6.595   6.236 -0.1844 -0.2220  0.0803
  269POPC   C3B 3720   5.831   6.264   6.034  0.0274  0.1320 -0.2313
  269POPC   C4B 3721   5.511   6.032   5.880  0.1753  0.1983  0.1115
  270POPC   NC3 3722   3.530   4.218   5.078  0.3233  0.0387 -0.1651
  270POPC   PO4 3723   3.236   3.972   4.892  0.3715 -0.3097  0.0668
  270POPC   GL1 3724   3.049   4.152   5.348  0.1125 -0.2628 -0.1110
  270POPC   GL2 3725   3.091   4.478   5.300 -0.0236 -0.0092 -0.2242
  270POPC   C1A 3726   3.118   4.134   5.851 -0.1490 -0.2420  0.3186
  270POPC   D2A 3727   3.276   4.285   6.237  0.2850  0.2039 -0.0149
  270POPC   C3A 3728   3.342   4.156   6.764 -0.3695  0.1852 -0.1655
  270POPC   C4A 3729   3.735   4.049   7.010 -0.2533  0.2088 -0.1045
  270POPC   C1B 3730   3.018   4.667   5.685  0.2534  0.0898  0.0986
  270POPC   C2B 3731   3.184   4.756   6.086 -0.1647  0.1605  0.2096
  270POPC   C3B 3732   3.629   4.702   6.186 -0.0137  0.2764 -0.0941
  270POPC   C4B 3733   4.060   4.708   6.364  0.2811 -0.3924 -0.2970
  271POPC   NC3 3734   3.569   6.028   4.029  0.0041  0.0197  0.0250
  271POPC   PO4 3735   3.742   5.664   4.284  0.0079  0.1373 -0.1566
  271POPC   GL1 3736   3.536   5.528   4.682 -0.0263 -0.1119 -0.2086
  271POPC   GL2 3737   3.237   5.415   4.666 -0.1228  0.3777  0.2432
  271POPC   C1A 3738   3.415   5.920   5.059  0.0207  0.3976 -0.1249
  271POPC   D2A 3739   3.399   6.053   5.585 -0.0747  0.3380  0.0370
  271POPC   C3A 3740   3.056   6.127   5.856  0.0700  0.0998 -0.1748
  271POPC   C4A 3741   3.077   6.487   6.195 -0.1447  0.0289 -0.0089
  271POPC   C1B 3742   3.037   5.403   4.985 -0.3401  0.1158  0.2866
  271POPC   C2B 3743   3.059   5.637   5.315 -0.0757 -0.2607 -0.4019
  271POPC   C3B 3744   2.943   5.553   5.803 -0.1207 -0.0388 -0.1301
  271POPC   C4B 3745   2.765   5.175   5.993  0.0067 -0.0631  0.0872
  272POPC   NC3 3746   1.998   0.087   4.993  0.2072  0.0735  0.2061
  272POPC   PO4 3747   1.786  -0.030   5.288 -0.0097 -0.0584 -0.0717
  272POPC   GL1 3748   1.685  -0.151   5.788  0.1673 -0.0126  0.0352
  272POPC   GL2 3749   1.424  -0.091   5.868  0.1081 -0.0563 -0.1573
  272POPC   C1A 3750   1.725  -0.379   6.182  0.0782  0.2242 -0.1393
  272POPC   D2A 3751   1.867  -0.518   6.570 -0.0956 -0.2199 -0.0882
  272POPC   C3A 3752   2.256  -0.507   6.685  0.1376 -0.2026  0.2123
  272POPC   C4A 3753   2.408  -0.555   7.163  0.0463 -0.0508  0.1638
  272POPC   C1B 3754   1.760   0.199   6.137 -0.0667 -0.0970  0.2748
  272POPC   C2B 3755   1.929   0.398   6.469  0.2224  0.4223  0.0689
  272POPC   C3B 3756   2.047   0.306   6.862  0.2622 -0.2772  0.0156
  272POPC   C4B 3757   2.470   0.426   7.006 -0.0685  0.2264 -0.0078
  273POPC   NC3 3758   0.244   7.702   4.414 -0.0128  0.0962 -0.2091
  273POPC   PO4 3759  -0.155   7.476   4.301 -0.1495  0.1125 -0.2103
  273POPC   GL1 3760   0.084   7.285   4.603  0.0523  0.0144 -0.0453
  273POPC   GL2 3761   0.284   6.968   4.637 -0.1022  0.3696  0.0706
  273POPC   C1A 3762   0.343   7.289   5.068  0.1308 -0.4214  0.3072
  273POPC   D2A 3763   0.268   7.112   5.419  0.0126 -0.2514  0.1694
  273POPC   C3A 3764   0.109   6.881   5.701  0.1565 -0.3315 -0.1739
  273POPC   C4A 3765  -0.187   6.568   5.852  0.1223 -0.0618  0.1849
  273POPC   C1B 3766   0.294   6.757   5.099  0.3069 -0.0737 -0.0956
  273POPC   C2B 3767   0.368   6.598   5.429 -0.1378  0.0939  0.1330
  273POPC   C3B 3768   0.725   6.293   5.473 -0.0240  0.3933 -0.3056
  273POPC   C4B 3769   1.260   6.416   5.472  0.2556 -0.0495  0.2356
  274POPC   NC3 3770   5.524   8.060   5.107 -0.0206  0.4201  0.1032
  274POPC   PO4 3771   5.080   8.077   4.860  0.0890  0.2200  0.1826
  274POPC   GL1 3772   5.025   8.175   5.296 -0.2611 -0.2161 -0.2849
  274POPC   GL2 3773   5.019   8.519   5.271 -0.0491  0.1493 -0.1121
  274POPC   C1A 3774   4.626   8.103   5.553 -0.1013 -0.0056 -0.1290
  274POPC   D2A 3775   4.772   7.922   5.985  0.1073 -0.0317 -0.0598
  274POPC   C3A 3776   4.737   8.273   6.262 -0.1060  0.1487  0.1840
  274POPC   C4A 3777   4.883   8.699   6.413  0.2947 -0.1843  0.0982
  274POPC   C1B 3778   4.870   8.458   5.762 -0.4604 -0.0510  0.1378
  274POPC   C2B 3779   5.186   8.418   6.146 -0.1837  0.0488  0.0550
  274POPC   C3B 3780   5.251   8.322   6.554 -0.2779  0.2173  0.2716
  274POPC   C4B 3781   5.156   8.500   6.951  0.2091  0.1675  0.3618
  275POPC   NC3 3782   3.877   3.265   5.203 -0.2298 -0.0169  0.0385
  275POPC   PO4 3783   3.375   3.236   5.209 -0.0694 -0.2555 -0.3320
  275POPC   GL1 3784   3.293   3.389   5.635  0.3403  0.1526 -0.0822
  275POPC   GL2 3785   3.639   3.446   5.632  0.0606  0.0162  0.1767
  275POPC   C1A 3786   3.201   3.688   5.998  0.1363 -0.0094  0.2153
  275POPC   D2A 3787   3.249   3.636   6.499  0.1366  0.0000 -0.3426
  275POPC   C3A 3788   3.492   3.651   6.881  0.2348  0.2759 -0.3757
  275POPC   C4A 3789   3.819   3.562   7.164 -0.0268 -0.0803  0.2286
  275POPC   C1B 3790   3.664   3.574   6.144 -0.0171  0.2214 -0.0243
  275POPC   C2B 3791   3.619   3.912   6.387  0.2786 -0.1208 -0.0016
  275POPC   C3B 3792   3.760   4.330   6.548  0.0428  0.2776 -0.0680
  275POPC   C4B 3793   3.721   4.697   6.854 -0.1055  0.4467 -0.0612
  276POPC   NC3 3794   2.222   2.527   5.065 -0.2892 -0.0960 -0.0184
  276POPC   PO4 3795   2.425   2.301   5.201  0.0314  0.0319  0.1889
  276POPC   GL1 3796   2.446   2.527   5.530 -0.2275  0.0349  0.0667
  276POPC   GL2 3797   2.540   2.752   5.368 -0.0618 -0.0708 -0.3528
  276POPC   C1A 3798   2.459   2.335   5.889 -0.1355  0.0898 -0.1171
  276POPC   D2A 3799   2.408   2.018   6.260  0.1856 -0.1897 -0.3111
  276POPC   C3A 3800   2.610   1.819   6.551 -0.2318 -0.3251  0.1775
  276POPC   C4A 3801   2.954   1.825   6.811  0.0486  0.4139  0.0329
  276POPC   C1B 3802   2.311   3.017   5.639  0.0824  0.0925  0.1978
  276POPC   C2B 3803   2.333   3.325   5.969 -0.0995  0.1321  0.2309
  276POPC   C3B 3804   2.008   3.594   6.163 -0.0481  0.3084  0.0774
  276POPC   C4B 3805   1.801   3.973   6.190 -0.0637  0.4577  0.0932
  277POPC   NC3 3806   3.143   5.321   4.089  0.1230  0.1496  0.0697
  277POPC   PO4 3807   3.143   4.991   4.374 -0.0031  0.3443  0.1102
  277POPC   GL1 3808   2.926   4.878   4.787  0.2282  0.0730 -0.0998
  277POPC   GL2 3809   2.608   5.033   4.703 -0.0849  0.4591  0.3125
  277POPC   C1A 3810   2.925   4.890   5.159 -0.1369  0.3031 -0.0218
  277POPC   D2A 3811   2.776   5.131   5.466  0.2219 -0.1168 -0.0119
  277POPC   C3A 3812   2.416   4.853   5.580  0.0070  0.2432 -0.2877
  277POPC   C4A 3813   2.029   4.896   5.633  0.2202 -0.1683 -0.1142
  277POPC   C1B 3814   2.691   5.433   4.632 -0.1837  0.2174 -0.1044
  277POPC   C2B 3815   2.854   5.781   4.779  0.2364  0.0010 -0.1119
  277POPC   C3B 3816   2.868   6.295   4.873 -0.0941 -0.2589 -0.4665
  277POPC   C4B 3817   2.582   6.489   5.160  0.0650  0.3526  0.4448
  278POPC   NC3 3818   4.797   7.124   4.697  0.0399  0.2690  0.3371
  278POPC   PO4 3819   5.183   7.163   4.929 -0.1930  0.1493 -0.0373
  278POPC   GL1 3820   5.188   7.166   5.291  0.1101 -0.0613  0.0598
  278POPC   GL2 3821   5.393   6.859   5.424  0.0016  0.3042  0.1041
  278POPC   C1A 3822   5.387   7.294   5.656 -0.2657 -0.3308  0.1927
  278POPC   D2A 3823   5.401   7.214   6.062 -0.0164 -0.1245 -0.0104
  278POPC   C3A 3824   5.019   7.134   6.234  0.0145 -0.0335 -0.0098
  278POPC   C4A 3825   4.608   6.823   6.143  0.0598  0.1412  0.1616
  278POPC   C1B 3826   5.077   6.910   5.727  0.1170 -0.2968  0.1155
  278POPC   C2B 3827   5.084   6.632   6.047  0.2172 -0.0054 -0.0629
  278POPC   C3B 3828   4.962   6.589   6.417 -0.0230 -0.4521 -0.1318
  278POPC   C4B 3829   4.716   6.739   6.729 -0.0153 -0.0998  0.1739
  279POPC   NC3 3830   1.064   6.912   3.510  0.1273  0.0324  0.1398
  279POPC   PO4 3831   0.963   7.239   3.884 -0.1006 -0.5812  0.2183
  279POPC   GL1 3832   1.147   6.901   4.037 -0.0153  0.2112 -0.1499
  279POPC   GL2 3833   1.443   6.927   3.967 -0.2386 -0.1583 -0.0257
  279POPC   C1A 3834   1.013   6.500   4.186  0.2077 -0.1205 -0.4999
  279POPC   D2A 3835   0.681   6.604   4.507 -0.3024  0.1752  0.3831
  279POPC   C3A 3836   0.750   6.382   4.881  0.3549  0.1303 -0.0020
  279POPC   C4A 3837   0.993   6.177   5.081  0.0064  0.1386 -0.1379
  279POPC   C1B 3838   1.503   6.596   4.315 -0.2338 -0.1268 -0.0666
  279POPC   C2B 3839   1.650   6.514   4.624  0.0418  0.2993  0.0020
  279POPC   C3B 3840   1.727   6.641   4.920 -0.1284 -0.1181 -0.2422
  279POPC   C4B 3841   2.084   6.719   5.044 -0.1379  0.0026 -0.1955
  280POPC   NC3 3842   9.043   7.584   4.371  0.2523 -0.1296 -0.0497
  280POPC   PO4 3843   8.640   7.464   4.607  0.2618  0.1349  0.2171
  280POPC   GL1 3844   9.000   7.372   4.834 -0.1349  0.1548 -0.0455
  280POPC   GL2 3845   8.898   7.282   5.188  0.0088  0.0823  0.0447
  280POPC   C1A 3846   9.370   7.392   5.108  0.5347 -0.1772 -0.2243
  280POPC   D2A 3847   9.238   7.487   5.645  0.0351  0.0260 -0.1068
  280POPC   C3A 3848   9.089   7.062   5.818 -0.3658  0.1012 -0.1079
  280POPC   C4A 3849   9.079   6.924   6.343 -0.1870 -0.1361  0.0614
  280POPC   C1B 3850   8.668   7.527   5.550 -0.0373 -0.0411  0.1844
  280POPC   C2B 3851   8.796   7.608   5.982  0.1648  0.2117 -0.0178
  280POPC   C3B 3852   9.128   7.443   6.215 -0.2849  0.0471 -0.0554
  280POPC   C4B 3853   9.168   7.435   6.652 -0.1676  0.1403 -0.2224
  281POPC   NC3 3854   5.086   1.097   4.898 -0.2945  0.1499  0.1525
  281POPC   PO4 3855   5.523   1.245   5.042 -0.4683  0.0036  0.1385
  281POPC   GL1 3856   5.635   1.186   5.396  0.1550  0.0787 -0.0124
  281POPC   GL2 3857   5.941   1.131   5.613 -0.0077 -0.0038  0.1188
  281POPC   C1A 3858   5.355   1.444   5.801  0.1651 -0.0724 -0.4111
  281POPC   D2A 3859   5.111   1.638   6.162  0.5062  0.1847 -0.3116
  281POPC   C3A 3860   5.415   1.649   6.460  0.1393  0.2361 -0.5006
  281POPC   C4A 3861   5.621   1.938   6.710 -0.2525 -0.2395  0.1039
  281POPC   C1B 3862   5.716   1.166   5.963 -0.2543  0.1527 -0.1676
  281POPC   C2B 3863   5.651   1.207   6.395 -0.1366 -0.0880 -0.0880
  281POPC   C3B 3864   5.518   1.254   6.767  0.2308  0.1262 -0.4464
  281POPC   C4B 3865   5.657   1.599   7.090  0.2006  0.0227 -0.0486
  282POPC   NC3 3866   7.568   4.790   5.073 -0.0604  0.0895 -0.2777
  282POPC   PO4 3867   7.438   4.383   4.989  0.0383 -0.1754  0.1831
  282POPC   GL1 3868   7.514   4.234   5.380  0.1290 -0.4159 -0.1234
  282POPC   GL2 3869   7.411   4.512   5.653 -0.0528  0.2270  0.1473
  282POPC   C1A 3870   7.360   4.019   5.778  0.1946  0.1091 -0.1154
  282POPC   D2A 3871   7.074   3.881   6.144 -0.2753 -0.0650  0.0538
  282POPC   C3A 3872   6.866   3.437   6.226  0.0501 -0.2918 -0.0114
  282POPC   C4A 3873   6.513   3.239   6.496  0.0711 -0.1356  0.6721
  282POPC   C1B 3874   7.273   4.764   5.956 -0.0992  0.3275 -0.1984
  282POPC   C2B 3875   7.196   4.680   6.395  0.1893 -0.2004  0.0593
  282POPC   C3B 3876   7.343   4.733   6.738 -0.2348  0.0218  0.3285
  282POPC   C4B 3877   7.216   4.945   7.007  0.1554  0.1367  0.5129
  283POPC   NC3 3878   8.998   2.661   4.876 -0.3681 -0.1617  0.2685
  283POPC   PO4 3879   8.716   3.020   4.875  0.0532  0.0306  0.0720
  283POPC   GL1 3880   8.712   3.340   5.227 -0.1425 -0.1614 -0.0158
  283POPC   GL2 3881   8.541   3.587   5.396  0.0749 -0.2237 -0.2579
  283POPC   C1A 3882   8.919   3.394   5.637  0.0712 -0.3042 -0.0707
  283POPC   D2A 3883   9.236   3.441   5.962 -0.0683 -0.2107  0.1810
  283POPC   C3A 3884   9.322   3.833   6.232 -0.5048 -0.1896  0.1109
  283POPC   C4A 3885   9.612   4.155   6.483 -0.3415 -0.0583  0.0959
  283POPC   C1B 3886   8.555   3.640   5.823  0.0552 -0.0630 -0.1626
  283POPC   C2B 3887   8.836   3.735   6.181 -0.0108  0.1982  0.2285
  283POPC   C3B 3888   8.955   3.852   6.570 -0.3297 -0.0119 -0.1498
  283POPC   C4B 3889   9.383   3.924   6.824  0.0266 -0.1618 -0.0483
  284POPC   NC3 3890   4.951   0.003   4.730 -0.3036 -0.0229 -0.0074
  284POPC   PO4 3891   5.319  -0.148   4.803  0.2193 -0.2499 -0.1572
  284POPC   GL1 3892   5.388  -0.258   5.106  0.1915 -0.1785 -0.0282
  284POPC   GL2 3893   5.426  -0.595   5.092  0.2039  0.0683 -0.0558
  284POPC   C1A 3894   5.303  -0.335   5.535 -0.2641 -0.0279  0.1466
  284POPC   D2A 3895   5.362  -0.564   5.941 -0.1782  0.3647 -0.0900
  284POPC   C3A 3896   5.496  -0.322   6.219  0.1096  0.0996 -0.0229
  284POPC   C4A 3897   5.393  -0.121   6.537 -0.0558 -0.0059  0.1515
  284POPC   C1B 3898   5.474  -0.779   5.491  0.2199 -0.0889  0.1670
  284POPC   C2B 3899   5.783  -0.960   5.785 -0.1145  0.0675  0.2981
  284POPC   C3B 3900   5.864  -0.671   6.241  0.1466 -0.1517 -0.1345
  284POPC   C4B 3901   5.927  -0.299   6.551  0.1503 -0.2648 -0.0891
  285POPC   NC3 3902   0.785   2.612   4.794  0.3241 -0.1854 -0.0428
  285POPC   PO4 3903   0.352   2.493   4.831 -0.2171 -0.0584  0.0764
  285POPC   GL1 3904   0.376   2.707   5.251 -0.1074 -0.0077 -0.1650
  285POPC   GL2 3905   0.667   2.765   5.246 -0.1957 -0.2789 -0.1775
  285POPC   C1A 3906   0.487   2.630   5.661  0.0522 -0.0032 -0.0243
  285POPC   D2A 3907   0.714   2.678   6.058 -0.0689  0.3226  0.2218
  285POPC   C3A 3908   0.730   2.363   6.294 -0.0332 -0.0983  0.2431
  285POPC   C4A 3909   0.777   2.343   6.719 -0.1098  0.0413 -0.1943
  285POPC   C1B 3910   0.721   3.024   5.565  0.2083  0.0297  0.0712
  285POPC   C2B 3911   0.632   3.146   5.993 -0.0710 -0.1374  0.1435
  285POPC   C3B 3912   0.762   3.062   6.489  0.1260 -0.0362 -0.1349
  285POPC   C4B 3913   0.710   2.907   6.912 -0.1352  0.2548 -0.1116
  286POPC   NC3 3914  10.192   9.283   5.101  0.0609  0.0013 -0.0476
  286POPC   PO4 3915  10.554   9.288   4.838  0.0036 -0.2230 -0.0269
  286POPC   GL1 3916  10.881   9.101   5.048 -0.2420  0.0971  0.3077
  286POPC   GL2 3917  10.682   9.102   5.292  0.1628  0.0008  0.0651
  286POPC   C1A 3918  11.082   8.837   5.398 -0.2443 -0.0666  0.0172
  286POPC   D2A 3919  11.315   8.582   5.532  0.1002 -0.1255  0.1398
  286POPC   C3A 3920  11.201   8.246   5.557  0.0302  0.0340 -0.0201
  286POPC   C4A 3921  11.088   7.985   5.805 -0.0909 -0.0752 -0.1815
  286POPC   C1B 3922  10.398   8.940   5.670  0.0137  0.0145  0.2102
  286POPC   C2B 3923  10.202   8.750   6.025  0.2373  0.0125 -0.0225
  286POPC   C3B 3924   9.983   8.799   6.410  0.1685  0.1433  0.3498
  286POPC   C4B 3925  10.081   8.851   6.836 -0.1869  0.2494 -0.2715
  287POPC   NC3 3926   8.749   9.221   4.854  0.1194 -0.2294  0.0222
  287POPC   PO4 3927   8.718   8.816   4.957 -0.0209 -0.1144  0.0856
  287POPC   GL1 3928   9.011   8.887   5.374  0.1417 -0.0390  0.2460
  287POPC   GL2 3929   9.385   8.817   5.299 -0.0854 -0.3115  0.0284
  287POPC   C1A 3930   8.782   9.033   5.851  0.0332 -0.1207 -0.2954
  287POPC   D2A 3931   8.408   8.800   6.070 -0.1419  0.1540  0.1520
  287POPC   C3A 3932   8.388   8.397   6.271 -0.1057 -0.0390  0.1247
  287POPC   C4A 3933   8.351   7.975   6.274 -0.0999 -0.1056  0.1672
  287POPC   C1B 3934   9.325   8.849   5.832  0.2058  0.2616 -0.2685
  287POPC   C2B 3935   9.461   8.712   6.316  0.2975 -0.1165 -0.1492
  287POPC   C3B 3936   9.395   8.239   6.327 -0.4249  0.2031  0.1750
  287POPC   C4B 3937   9.217   7.905   6.603 -0.0547  0.1360 -0.3269
  288POPC   NC3 3938   7.521   2.335   5.141  0.1563 -0.4471 -0.4485
  288POPC   PO4 3939   7.717   2.002   5.219 -0.4278 -0.0955 -0.1010
  288POPC   GL1 3940   7.949   2.087   5.560 -0.0405  0.0953  0.1484
  288POPC   GL2 3941   7.860   1.859   5.793  0.0674 -0.1326  0.1861
  288POPC   C1A 3942   7.946   2.339   6.004  0.2381  0.0550 -0.1223
  288POPC   D2A 3943   7.888   2.131   6.436  0.1860 -0.0105 -0.0995
  288POPC   C3A 3944   7.709   2.241   6.794  0.0829 -0.0200 -0.3117
  288POPC   C4A 3945   7.672   2.408   7.259 -0.2789  0.2745 -0.1474
  288POPC   C1B 3946   7.565   1.718   6.182  0.2153  0.0806  0.2069
  288POPC   C2B 3947   7.541   1.291   6.455  0.0316  0.1570  0.3001
  288POPC   C3B 3948   7.477   0.971   6.749 -0.3930  0.0299 -0.1569
  288POPC   C4B 3949   7.310   0.754   7.063  0.1090  0.1106  0.3221
  289POPC   NC3 3950   7.056  10.376   4.578  0.0208  0.1707  0.0137
  289POPC   PO4 3951   6.736  10.609   4.720  0.0193  0.0137  0.0385
  289POPC   GL1 3952   6.671  10.659   5.119 -0.1515 -0.3336 -0.5271
  289POPC   GL2 3953   6.324  10.572   5.160 -0.0426 -0.3314 -0.0324
  289POPC   C1A 3954   6.686  10.553   5.585  0.0787  0.2570 -0.1408
  289POPC   D2A 3955   6.729  10.491   6.007 -0.3977  0.1457 -0.2777
  289POPC   C3A 3956   7.008  10.376   6.010  0.0536  0.1314 -0.2344
  289POPC   C4A 3957   7.176  10.046   6.288  0.0403  0.3245 -0.0762
  289POPC   C1B 3958   6.347  10.963   5.581  0.0327  0.0473  0.2561
  289POPC   C2B 3959   6.353  10.825   6.010  0.0169 -0.2228  0.3486
  289POPC   C3B 3960   6.216  10.619   6.372 -0.0308  0.2030  0.3674
  289POPC   C4B 3961   6.114  10.567   6.801  0.0952 -0.0305 -0.4572
  290POPC   NC3 3962   3.988   3.350   4.515 -0.1776 -0.0666  0.0221
  290POPC   PO4 3963   4.227   3.022   4.757 -0.0121  0.0802  0.1074
  290POPC   GL1 3964   4.374   3.109   5.129  0.1471  0.1739  0.0697
  290POPC   GL2 3965   4.247   2.824   5.302  0.1165 -0.2483 -0.0579
  290POPC   C1A 3966   4.575   3.280   5.399  0.1329 -0.2736  0.1985
  290POPC   D2A 3967   4.516   3.332   5.793 -0.1987  0.1321 -0.2441
  290POPC   C3A 3968   4.617   3.691   5.945 -0.0534  0.1556  0.0237
  290POPC   C4A 3969   4.725   3.970   6.275  0.0736  0.0319  0.0787
  290POPC   C1B 3970   4.384   2.876   5.605 -0.1253 -0.2012 -0.0776
  290POPC   C2B 3971   4.418   2.923   6.136  0.2504  0.0672  0.0087
  290POPC   C3B 3972   4.555   2.889   6.578  0.3712 -0.1528  0.0447
  290POPC   C4B 3973   4.481   2.599   6.847  0.4094  0.1989  0.0531
  291POPC   NC3 3974   8.763   4.524   4.430 -0.2544  0.1035 -0.0253
  291POPC   PO4 3975   8.696   4.972   4.713  0.1575 -0.3110  0.0704
  291POPC   GL1 3976   8.657   4.810   5.223  0.2931  0.1795 -0.1673
  291POPC   GL2 3977   8.412   4.515   5.276  0.0267  0.0437  0.0987
  291POPC   C1A 3978   8.653   4.940   5.653  0.2553  0.1203  0.0730
  291POPC   D2A 3979   8.712   5.325   5.854 -0.0028  0.1926  0.2213
  291POPC   C3A 3980   8.989   5.356   6.203 -0.5590  0.2003  0.4599
  291POPC   C4A 3981   9.052   5.695   6.443 -0.2128 -0.1007  0.5372
  291POPC   C1B 3982   8.385   4.583   5.669  0.0135  0.0076 -0.3597
  291POPC   C2B 3983   8.414   4.882   6.081  0.1633 -0.2136 -0.2044
  291POPC   C3B 3984   8.075   4.968   6.450  0.0568  0.1483  0.1182
  291POPC   C4B 3985   7.921   4.730   6.665  0.0830  0.1056 -0.3864
  292POPC   NC3 3986   4.619   0.468   4.723  0.0054 -0.2226 -0.0731
  292POPC   PO4 3987   4.151   0.211   4.879 -0.0380  0.0499  0.1957
  292POPC   GL1 3988   4.126   0.021   5.313  0.0033  0.1286 -0.2128
  292POPC   GL2 3989   3.774   0.161   5.347 -0.0279  0.1675 -0.2777
  292POPC   C1A 3990   4.126  -0.184   5.628  0.0522  0.0289 -0.3991
  292POPC   D2A 3991   3.816  -0.187   5.931 -0.5176 -0.0139 -0.0089
  292POPC   C3A 3992   3.820  -0.306   6.403  0.2298  0.0853 -0.1319
  292POPC   C4A 3993   3.849  -0.398   6.847  0.3665 -0.1897  0.0713
  292POPC   C1B 3994   3.650   0.170   5.710 -0.2943  0.1237 -0.1911
  292POPC   C2B 3995   3.671   0.276   6.157  0.2011  0.0840 -0.4375
  292POPC   C3B 3996   3.908   0.509   6.491  0.1276  0.2081 -0.0137
  292POPC   C4B 3997   4.000   0.441   6.951 -0.1536 -0.1174  0.4000
  293POPC   NC3 3998   1.810   9.236   4.849  0.2601 -0.0695 -0.0261
  293POPC   PO4 3999   2.002   9.540   5.120 -0.0435 -0.2687  0.0119
  293POPC   GL1 4000   1.964   9.358   5.572 -0.1544 -0.0525  0.2626
  293POPC   GL2 4001   2.034   9.007   5.453  0.3237 -0.3915 -0.0722
  293POPC   C1A 4002   2.051   9.176   6.029  0.1591  0.0033  0.2580
  293POPC   D2A 4003   2.340   9.200   6.305  0.1278  0.0323 -0.0001
  293POPC   C3A 4004   2.635   8.952   6.632  0.0787  0.2228  0.0873
  293POPC   C4A 4005   2.914   8.845   7.070  0.3595  0.1407 -0.0531
  293POPC   C1B 4006   1.694   8.870   5.710  0.1295  0.0986  0.3263
  293POPC   C2B 4007   1.262   8.807   5.929  0.2226 -0.0078 -0.2132
  293POPC   C3B 4008   0.897   8.627   6.086 -0.3237 -0.2328 -0.2411
  293POPC   C4B 4009   0.730   8.276   6.333  0.1249 -0.0693 -0.1936
  294POPC   NC3 4010   2.866   7.232   3.705 -0.3678 -0.1605 -0.0069
  294POPC   PO4 4011   2.751   7.561   3.936 -0.2529  0.1003 -0.3085
  294POPC   GL1 4012   2.550   7.339   4.226  0.1763  0.0854 -0.0025
  294POPC   GL2 4013   2.617   7.307   4.506  0.0927 -0.1272 -0.1338
  294POPC   C1A 4014   2.373   6.920   4.282 -0.0666 -0.1943  0.3239
  294POPC   D2A 4015   2.172   6.566   4.493  0.0028 -0.1621 -0.0586
  294POPC   C3A 4016   1.990   6.378   4.169 -0.0597  0.1609  0.0720
  294POPC   C4A 4017   1.966   6.714   4.042 -0.2108  0.0258 -0.2589
  294POPC   C1B 4018   2.247   7.159   4.713  0.1966 -0.2968  0.0766
  294POPC   C2B 4019   1.938   6.992   4.490 -0.0603  0.5180  0.0187
  294POPC   C3B 4020   1.553   7.019   4.546  0.1608 -0.0147  0.0983
  294POPC   C4B 4021   1.142   6.890   4.510 -0.0215 -0.0926 -0.1318
  295POPC   NC3 4022   0.586   0.297   5.192  0.0949 -0.2469  0.1655
  295POPC   PO4 4023   0.240   0.116   5.370 -0.1522 -0.0363  0.0891
  295POPC   GL1 4024   0.315  -0.060   5.825  0.0418 -0.1080 -0.2585
  295POPC   GL2 4025   0.337  -0.412   5.913  0.1617  0.0571 -0.1233
  295POPC   C1A 4026   0.487   0.037   6.337 -0.0585  0.3869  0.2134
  295POPC   D2A 4027   0.610  -0.234   6.739 -0.0390  0.1848 -0.0148
  295POPC   C3A 4028   1.053  -0.342   6.950  0.1850 -0.2442  0.2644
  295POPC   C4A 4029   1.436  -0.509   6.895  0.0693 -0.1317 -0.0866
  295POPC   C1B 4030  -0.031  -0.325   6.156 -0.0760  0.1339 -0.3059
  295POPC   C2B 4031  -0.472  -0.293   6.463  0.1699 -0.1310  0.2428
  295POPC   C3B 4032  -0.474  -0.318   6.916 -0.1212 -0.2436  0.2224
  295POPC   C4B 4033  -0.536  -0.465   7.393 -0.4439 -0.0009  0.4356
  296POPC   NC3 4034   0.819   5.072   3.274 -0.1651  0.1208 -0.3453
  296POPC   PO4 4035   1.045   5.012   3.749  0.1779  0.0925 -0.0825
  296POPC   GL1 4036   1.093   5.311   3.961  0.0963  0.0065  0.1785
  296POPC   GL2 4037   0.715   5.528   3.980  0.0502  0.1521 -0.1129
  296POPC   C1A 4038   1.142   5.340   4.370 -0.1764  0.2768  0.3353
  296POPC   D2A 4039   0.973   5.135   4.699 -0.3437 -0.2376  0.1886
  296POPC   C3A 4040   0.760   5.290   4.993  0.1219  0.1588  0.2267
  296POPC   C4A 4041   0.908   5.449   5.440 -0.2264 -0.0459  0.0034
  296POPC   C1B 4042   0.580   5.494   4.406 -0.0643 -0.2989  0.4384
  296POPC   C2B 4043   0.301   5.325   4.802 -0.0735  0.0161 -0.0808
  296POPC   C3B 4044   0.164   5.477   5.178 -0.1061  0.0458 -0.0348
  296POPC   C4B 4045  -0.205   5.716   5.337 -0.0219 -0.1299  0.5233
  297POPC   NC3 4046   0.931  10.328   4.996  0.0799  0.1753  0.1562
  297POPC   PO4 4047   1.160   9.859   5.033  0.2344  0.0211  0.3131
  297POPC   GL1 4048   1.146   9.930   5.449  0.0929 -0.5783 -0.3884
  297POPC   GL2 4049   1.431   9.876   5.639  0.0622 -0.2516  0.1062
  297POPC   C1A 4050   1.001  10.080   5.856  0.2001  0.3731  0.0775
  297POPC   D2A 4051   0.702  10.057   6.236  0.4057 -0.2848 -0.2947
  297POPC   C3A 4052   0.322   9.915   6.485 -0.0151 -0.0577  0.2373
  297POPC   C4A 4053  -0.100   9.785   6.594  0.1810 -0.1247  0.1616
  297POPC   C1B 4054   1.347   9.751   6.022 -0.1937 -0.1596 -0.1412
  297POPC   C2B 4055   1.064   9.475   6.340 -0.3138 -0.0450  0.3774
  297POPC   C3B 4056   1.147   9.506   6.804 -0.2276  0.2262  0.3950
  297POPC   C4B 4057   1.137   9.660   7.187 -0.0137 -0.0401 -0.4577
  298POPC   NC3 4058   0.517   0.369   5.676 -0.0701  0.0460  0.2028
  298POPC   PO4 4059   0.809   0.638   5.555 -0.1892  0.1917 -0.0557
  298POPC   GL1 4060   0.839   0.742   5.935  0.0695  0.2032  0.1476
  298POPC   GL2 4061   0.816   1.084   6.023 -0.0440 -0.3755  0.2738
  298POPC   C1A 4062   0.556   0.518   6.337  0.0307 -0.0267  0.0307
  298POPC   D2A 4063   0.812   0.251   6.713  0.1605  0.0027  0.2021
  298POPC   C3A 4064   1.263   0.255   6.915  0.0456 -0.0157 -0.0133
  298POPC   C4A 4065   1.551   0.033   7.221  0.2339 -0.0764 -0.2918
  298POPC   C1B 4066   0.720   1.005   6.460 -0.4195  0.1182 -0.1011
  298POPC   C2B 4067   0.667   1.208   6.760 -0.2040  0.1704  0.0788
  298POPC   C3B 4068   0.868   1.216   7.048  0.0697 -0.0052  0.1201
  298POPC   C4B 4069   1.127   1.108   7.438  0.2107 -0.1293 -0.1527
  299POPC   NC3 4070   5.533   5.082   5.206 -0.1317 -0.3641 -0.1978
  299POPC   PO4 4071   5.290   5.413   5.265  0.0872  0.0393 -0.2566
  299POPC   GL1 4072   5.538   5.371   5.663  0.1614 -0.0435  0.1009
  299POPC   GL2 4073   5.167   5.359   5.755 -0.1424  0.1338 -0.0013
  299POPC   C1A 4074   5.697   5.330   6.037 -0.0779  0.1018 -0.4719
  299POPC   D2A 4075   5.968   5.348   6.434 -0.1933 -0.2229 -0.1045
  299POPC   C3A 4076   5.879   5.065   6.711  0.3409  0.3574  0.0943
  299POPC   C4A 4077   5.912   4.707   7.011 -0.0134  0.2202 -0.2819
  299POPC   C1B 4078   5.230   5.581   6.072  0.1003  0.0595 -0.0943
  299POPC   C2B 4079   5.067   5.787   6.452  0.1856  0.0663 -0.0772
  299POPC   C3B 4080   4.831   6.170   6.566 -0.0374  0.1200 -0.0055
  299POPC   C4B 4081   4.405   6.198   6.826  0.2001 -0.1689 -0.0433
  300POPC   NC3 4082   9.230   3.434   4.807  0.3134 -0.0611 -0.1333
  300POPC   PO4 4083   9.080   3.893   4.786 -0.2442 -0.1434  0.2748
  300POPC   GL1 4084   9.035   3.905   5.152 -0.0069 -0.2005 -0.1844
  300POPC   GL2 4085   9.175   3.671   5.317  0.0825 -0.1872 -0.0379
  300POPC   C1A 4086   9.193   4.268   5.356  0.2317 -0.4192 -0.0858
  300POPC   D2A 4087   9.056   4.581   5.424 -0.1543  0.1840  0.1629
  300POPC   C3A 4088   8.859   4.510   5.744  0.0170  0.2270 -0.0166
  300POPC   C4A 4089   8.963   4.724   6.210  0.3372 -0.1711 -0.0387
  300POPC   C1B 4090   9.401   3.882   5.591 -0.2172 -0.0280  0.1144
  300POPC   C2B 4091   9.403   4.255   5.787  0.0130  0.0859 -0.0362
  300POPC   C3B 4092   9.212   4.355   6.177  0.0886 -0.0410  0.0438
  300POPC   C4B 4093   9.053   4.344   6.569  0.0794  0.1333  0.3995
  301POPC   NC3 4094   4.714   3.410   4.735 -0.0033  0.1414 -0.4300
  301POPC   PO4 4095   4.251   3.583   4.884  0.1034  0.0635 -0.1417
  301POPC   GL1 4096   4.088   3.702   5.332 -0.1119 -0.2114  0.3775
  301POPC   GL2 4097   3.940   3.947   5.308 -0.3559 -0.0284 -0.1956
  301POPC   C1A 4098   4.141   3.759   5.822 -0.0937 -0.1747 -0.2218
  301POPC   D2A 4099   4.398   4.157   5.877 -0.0989  0.0840  0.1813
  301POPC   C3A 4100   4.456   4.383   6.275 -0.0757 -0.0714  0.1333
  301POPC   C4A 4101   4.517   4.538   6.648  0.1109  0.0958 -0.2660
  301POPC   C1B 4102   4.026   4.134   5.542 -0.0164  0.1850  0.0756
  301POPC   C2B 4103   3.982   4.563   5.770  0.1051 -0.1278  0.0180
  301POPC   C3B 4104   4.078   4.979   5.963  0.0543  0.0540 -0.1240
  301POPC   C4B 4105   4.077   5.312   6.339 -0.2289 -0.2992  0.0847
  302POPC   NC3 4106   4.195   1.317   4.977  0.0077  0.2705 -0.0411
  302POPC   PO4 4107   3.977   1.047   5.000  0.1078  0.0642  0.0884
  302POPC   GL1 4108   4.065   1.047   5.429  0.0526 -0.2198 -0.1473
  302POPC   GL2 4109   3.874   1.259   5.482  0.0957  0.4465 -0.2866
  302POPC   C1A 4110   4.343   0.886   5.815  0.3290  0.2290  0.0471
  302POPC   D2A 4111   4.694   0.658   6.030  0.1840 -0.1173 -0.1227
  302POPC   C3A 4112   4.831   0.817   6.436 -0.0709  0.0630 -0.2284
  302POPC   C4A 4113   5.205   0.750   6.710 -0.0413 -0.1105  0.1025
  302POPC   C1B 4114   3.971   1.343   5.865  0.0512 -0.1101  0.0249
  302POPC   C2B 4115   4.121   1.309   6.242  0.0781  0.2334  0.0776
  302POPC   C3B 4116   4.095   1.468   6.637  0.1050 -0.0973  0.3589
  302POPC   C4B 4117   4.259   1.390   6.973  0.1324 -0.1292 -0.0360
  303POPC   NC3 4118   1.105   1.663   4.969  0.4020 -0.0012  0.1135
  303POPC   PO4 4119   1.067   1.633   5.336 -0.1733  0.1216 -0.1449
  303POPC   GL1 4120   1.305   1.665   5.761  0.1225 -0.0732 -0.0217
  303POPC   GL2 4121   1.178   1.809   6.039  0.1869 -0.2490 -0.2277
  303POPC   C1A 4122   1.394   1.340   6.143 -0.2249 -0.0571 -0.1106
  303POPC   D2A 4123   1.245   0.887   6.308  0.1260 -0.1935  0.3417
  303POPC   C3A 4124   1.078   0.855   6.748 -0.1128  0.2365  0.0056
  303POPC   C4A 4125   1.046   0.651   7.118  0.1176 -0.1223 -0.0540
  303POPC   C1B 4126   0.994   1.907   6.434 -0.5065 -0.2024  0.0485
  303POPC   C2B 4127   0.880   1.913   6.850 -0.1258  0.1133 -0.0993
  303POPC   C3B 4128   0.782   2.039   7.310 -0.3592 -0.3118 -0.0462
  303POPC   C4B 4129   0.619   1.847   7.726 -0.4016 -0.0950  0.0779
  304POPC   NC3 4130   0.505   9.572   5.042 -0.1687  0.0787  0.2429
  304POPC   PO4 4131   0.552  10.027   5.202  0.2616  0.1833 -0.1559
  304POPC   GL1 4132   0.675   9.816   5.646 -0.0186  0.4593  0.1327
  304POPC   GL2 4133   0.559   9.594   5.632  0.1351  0.2402 -0.0780
  304POPC   C1A 4134   1.027   9.558   5.738  0.1541 -0.0162  0.1028
  304POPC   D2A 4135   1.387   9.335   5.718 -0.3293 -0.0358  0.2512
  304POPC   C3A 4136   1.503   9.228   6.076  0.0750 -0.0373  0.2252
  304POPC   C4A 4137   1.414   9.077   6.432 -0.0373  0.1707  0.2445
  304POPC   C1B 4138   0.650   9.557   6.104  0.2616  0.4065  0.3125
  304POPC   C2B 4139   0.623   9.559   6.555 -0.0834  0.0183  0.0518
  304POPC   C3B 4140   0.652   9.623   6.953 -0.1494 -0.1779 -0.0962
  304POPC   C4B 4141   0.588   9.676   7.364 -0.1127  0.0600  0.5107
  305POPC   NC3 4142   8.632   8.100   4.344  0.0244 -0.0706  0.0215
  305POPC   PO4 4143   8.692   8.304   4.757 -0.0999 -0.1720  0.3967
  305POPC   GL1 4144   8.746   8.275   5.102 -0.0874  0.1142 -0.1376
  305POPC   GL2 4145   8.664   8.450   5.315 -0.0822 -0.3202 -0.1596
  305POPC   C1A 4146   9.138   8.364   5.375  0.1661 -0.0058 -0.0213
  305POPC   D2A 4147   9.201   8.241   5.769 -0.1457 -0.0268 -0.0585
  305POPC   C3A 4148   8.947   7.975   6.224 -0.1115  0.0574  0.3686
  305POPC   C4A 4149   8.762   8.034   6.598  0.0840 -0.2080  0.2124
  305POPC   C1B 4150   8.863   8.562   5.779 -0.0042 -0.0812 -0.0542
  305POPC   C2B 4151   8.938   8.590   6.109 -0.1314  0.1114  0.0042
  305POPC   C3B 4152   8.954   8.451   6.479  0.1775  0.0833 -0.1089
  305POPC   C4B 4153   9.323   8.491   6.754 -0.1173 -0.1666 -0.1225
  306POPC   NC3 4154   3.888   9.938   4.578  0.1341 -0.2041  0.1525
  306POPC   PO4 4155   3.501   9.859   5.045  0.1238 -0.0700 -0.2844
  306POPC   GL1 4156   3.360   9.602   5.253 -0.0087 -0.0941  0.4143
  306POPC   GL2 4157   3.049   9.562   5.338 -0.0335  0.2641  0.0345
  306POPC   C1A 4158   3.306   9.204   5.503  0.2554  0.0344 -0.1293
  306POPC   D2A 4159   3.675   8.869   5.482  0.1109  0.1075 -0.3049
  306POPC   C3A 4160   4.037   8.985   5.870 -0.4428 -0.0297  0.0431
  306POPC   C4A 4161   4.224   9.296   5.810 -0.1215  0.0308  0.5970
  306POPC   C1B 4162   2.977   9.565   5.715 -0.3059 -0.0804 -0.1371
  306POPC   C2B 4163   2.795   9.415   6.016 -0.0725  0.0170  0.0378
  306POPC   C3B 4164   2.821   9.015   6.193  0.0872 -0.0399  0.0235
  306POPC   C4B 4165   2.872   8.606   6.079  0.3983 -0.2163 -0.0028
  307POPC   NC3 4166   1.163   7.737   3.943  0.0433 -0.3600 -0.0389
  307POPC   PO4 4167   1.502   8.069   4.254 -0.0364  0.0441 -0.2033
  307POPC   GL1 4168   1.304   7.834   4.415 -0.0216  0.0325 -0.0832
  307POPC   GL2 4169   1.277   7.966   4.739  0.0688 -0.0967  0.2132
  307POPC   C1A 4170   1.148   7.364   4.643 -0.0094  0.0311 -0.2122
  307POPC   D2A 4171   1.218   7.062   4.998  0.4402  0.1817  0.0412
  307POPC   C3A 4172   1.232   6.621   4.954  0.0591  0.0168  0.1011
  307POPC   C4A 4173   1.214   6.266   4.600 -0.2146  0.2788  0.3002
  307POPC   C1B 4174   1.561   7.566   4.825  0.0808  0.1237  0.1761
  307POPC   C2B 4175   1.751   7.219   4.928  0.1494  0.3984 -0.0447
  307POPC   C3B 4176   1.588   6.940   5.352 -0.1649  0.1537  0.2809
  307POPC   C4B 4177   1.802   6.593   5.470  0.1335 -0.0139  0.1846
  308POPC   NC3 4178   7.088   4.748   4.859 -0.0583  0.1846  0.3292
  308POPC   PO4 4179   6.817   4.471   4.973 -0.0705 -0.0197 -0.1903
  308POPC   GL1 4180   6.999   4.461   5.362 -0.1026 -0.1785 -0.2418
  308POPC   GL2 4181   6.955   4.160   5.522  0.0271 -0.0603  0.0443
  308POPC   C1A 4182   6.794   4.694   5.733 -0.0741 -0.1527  0.1534
  308POPC   D2A 4183   6.263   4.656   5.848  0.0764  0.2017  0.0428
  308POPC   C3A 4184   6.151   4.597   6.190  0.1222  0.0691  0.0689
  308POPC   C4A 4185   5.930   4.492   6.500 -0.1252  0.1423  0.2268
  308POPC   C1B 4186   7.055   4.347   5.970  0.1476 -0.0642  0.1302
  308POPC   C2B 4187   6.841   4.305   6.417 -0.1130 -0.2627  0.0183
  308POPC   C3B 4188   6.667   4.480   6.763  0.0315  0.1363 -0.0347
  308POPC   C4B 4189   6.290   4.691   6.701  0.1553  0.3409  0.1445
  309POPC   NC3 4190   3.772   8.409   4.625  0.1205 -0.1302 -0.2320
  309POPC   PO4 4191   3.893   7.959   4.466 -0.2238 -0.1944 -0.1848
  309POPC   GL1 4192   3.882   7.986   4.881  0.1882 -0.1139  0.0086
  309POPC   GL2 4193   3.915   8.172   5.047  0.2524  0.0102 -0.0588
  309POPC   C1A 4194   3.631   7.782   5.066 -0.1321  0.1621  0.0136
  309POPC   D2A 4195   3.254   7.579   5.421 -0.3061  0.3503  0.2495
  309POPC   C3A 4196   3.214   7.859   5.786 -0.1823  0.0848 -0.1185
  309POPC   C4A 4197   2.912   7.885   6.137 -0.2885  0.1764  0.2140
  309POPC   C1B 4198   4.021   8.067   5.500 -0.2193 -0.0047 -0.1104
  309POPC   C2B 4199   4.281   8.197   5.867 -0.0352  0.4079 -0.1490
  309POPC   C3B 4200   4.119   8.202   6.209 -0.1761 -0.2642  0.0255
  309POPC   C4B 4201   3.841   8.255   6.585  0.0122 -0.2079  0.4533
  310POPC   NC3 4202   9.075   1.243   5.140 -0.1709 -0.0889  0.3505
  310POPC   PO4 4203   8.678   1.241   5.199  0.1325  0.3729 -0.0649
  310POPC   GL1 4204   8.840   1.389   5.589 -0.4481  0.0615 -0.2771
  310POPC   GL2 4205   8.796   1.715   5.522  0.1775  0.3366  0.0862
  310POPC   C1A 4206   9.016   1.367   5.967 -0.0684 -0.2528 -0.1871
  310POPC   D2A 4207   9.303   1.531   6.292  0.0306  0.0900  0.1142
  310POPC   C3A 4208   9.582   1.322   6.550  0.1856 -0.0128 -0.2138
  310POPC   C4A 4209   9.758   1.098   6.788  0.0670  0.3703  0.0447
  310POPC   C1B 4210   8.573   1.651   5.922 -0.1364 -0.0488  0.1542
  310POPC   C2B 4211   8.337   1.896   6.290  0.1143 -0.0484  0.3096
  310POPC   C3B 4212   8.255   1.949   6.759 -0.0227 -0.1742 -0.1041
  310POPC   C4B 4213   8.374   1.841   7.204 -0.1639 -0.4267  0.0461
  311POPC   NC3 4214   7.794   3.988   5.010  0.0991 -0.1552  0.0235
  311POPC   PO4 4215   7.915   4.454   5.099  0.1190  0.0988 -0.1285
  311POPC   GL1 4216   7.918   4.657   5.395 -0.0391 -0.0497 -0.0759
  311POPC   GL2 4217   7.920   4.433   5.646  0.0149 -0.1179  0.2751
  311POPC   C1A 4218   8.157   5.027   5.624  0.0196  0.2583  0.0851
  311POPC   D2A 4219   8.451   5.399   5.409  0.1485 -0.1182  0.2452
  311POPC   C3A 4220   8.924   5.494   5.403  0.1485 -0.3156  0.3202
  311POPC   C4A 4221   8.902   5.832   5.713 -0.1047 -0.2633  0.0784
  311POPC   C1B 4222   7.823   4.396   5.955  0.3481 -0.1467 -0.1751
  311POPC   C2B 4223   7.646   4.398   6.312 -0.0333 -0.2045  0.2949
  311POPC   C3B 4224   7.346   4.220   6.455 -0.0596  0.0470 -0.0849
  311POPC   C4B 4225   7.227   3.817   6.648 -0.0887  0.0259  0.2220
  312POPC   NC3 4226   4.479   1.534   4.635  0.0545 -0.3568  0.0682
  312POPC   PO4 4227   4.517   1.022   4.549 -0.2549 -0.0387  0.1517
  312POPC   GL1 4228   4.610   0.985   4.961  0.0975  0.2691  0.0464
  312POPC   GL2 4229   4.795   0.722   5.098 -0.1932  0.0367 -0.0756
  312POPC   C1A 4230   4.647   1.069   5.425 -0.1912  0.1158  0.1129
  312POPC   D2A 4231   4.789   1.276   5.732 -0.3128  0.3458  0.0403
  312POPC   C3A 4232   4.576   1.146   6.159  0.0024  0.0735 -0.0399
  312POPC   C4A 4233   4.329   0.856   6.347 -0.0169  0.0684 -0.0971
  312POPC   C1B 4234   4.803   0.617   5.499  0.1620 -0.2329 -0.2692
  312POPC   C2B 4235   5.079   0.850   5.818 -0.0102 -0.0173  0.0376
  312POPC   C3B 4236   5.109   1.101   6.090  0.0261 -0.2156 -0.0773
  312POPC   C4B 4237   5.121   1.243   6.445 -0.2308  0.2027  0.0900
  313POPC   NC3 4238   4.912   2.291   4.456  0.1433  0.0315 -0.2215
  313POPC   PO4 4239   5.205   2.116   4.566  0.2992  0.0461  0.0319
  313POPC   GL1 4240   5.460   2.082   5.006  0.1161 -0.1766  0.2168
  313POPC   GL2 4241   5.130   2.060   5.200 -0.2281 -0.1781 -0.2309
  313POPC   C1A 4242   5.788   2.257   5.325  0.0531  0.1716 -0.1241
  313POPC   D2A 4243   5.800   2.488   5.665  0.1464  0.2921  0.0473
  313POPC   C3A 4244   5.543   2.259   6.093  0.3032 -0.0597  0.0658
  313POPC   C4A 4245   5.285   2.102   6.380 -0.2527 -0.0359 -0.1514
  313POPC   C1B 4246   4.884   1.926   5.661  0.0053  0.3591  0.0440
  313POPC   C2B 4247   4.762   2.008   6.076  0.0200  0.3794 -0.1097
  313POPC   C3B 4248   4.280   1.943   6.229 -0.3176  0.0803  0.2205
  313POPC   C4B 4249   3.836   2.053   6.400  0.0838 -0.0053  0.0883
  314POPC   NC3 4250  10.119   9.822   5.264 -0.1747  0.1947 -0.0245
  314POPC   PO4 4251   9.740   9.524   5.153 -0.0955  0.3437 -0.3130
  314POPC   GL1 4252   9.736   9.243   5.527  0.2636 -0.2047 -0.0350
  314POPC   GL2 4253  10.063   9.332   5.615 -0.0234 -0.0007 -0.1594
  314POPC   C1A 4254   9.840   8.781   5.693  0.2814 -0.0375 -0.1007
  314POPC   D2A 4255   9.647   8.413   5.911  0.0860  0.2303 -0.5476
  314POPC   C3A 4256   9.923   8.309   6.131 -0.1531  0.4756 -0.2120
  314POPC   C4A 4257   9.898   8.035   6.402 -0.2738 -0.4268  0.0832
  314POPC   C1B 4258  10.221   9.252   6.065  0.2269  0.3012  0.1607
  314POPC   C2B 4259  10.118   9.266   6.539 -0.2433 -0.0043 -0.3197
  314POPC   C3B 4260  10.189   9.356   6.879  0.0276 -0.0364  0.0612
  314POPC   C4B 4261  10.183   9.454   7.388  0.0950  0.2360 -0.0519
  315POPC   NC3 4262   4.311   7.802   4.275 -0.0974  0.2533  0.1377
  315POPC   PO4 4263   4.336   7.638   4.768  0.0442 -0.3778 -0.0500
  315POPC   GL1 4264   4.184   7.694   5.229 -0.0359 -0.2337  0.0559
  315POPC   GL2 4265   4.476   7.659   5.345 -0.0199 -0.0940  0.2875
  315POPC   C1A 4266   3.833   7.619   5.564  0.2469 -0.1298 -0.0144
  315POPC   D2A 4267   3.504   7.505   5.923 -0.4484 -0.0349  0.1009
  315POPC   C3A 4268   3.649   7.388   6.178  0.0688  0.2681 -0.0225
  315POPC   C4A 4269   3.842   7.045   6.380 -0.0589  0.0481 -0.1150
  315POPC   C1B 4270   4.399   7.659   5.698  0.3346  0.0828 -0.0222
  315POPC   C2B 4271   4.079   7.736   5.982  0.0302  0.0047 -0.1051
  315POPC   C3B 4272   3.899   7.769   6.309 -0.0154  0.0789  0.3646
  315POPC   C4B 4273   3.748   7.593   6.678  0.2081 -0.3218 -0.0551
  316POPC   NC3 4274  10.310   0.768   5.535  0.0551  0.4145 -0.0185
  316POPC   PO4 4275   9.962   1.040   5.488 -0.2338  0.0692  0.1567
  316POPC   GL1 4276   9.815   1.131   5.894 -0.2914  0.1379  0.2611
  316POPC   GL2 4277  10.139   0.990   6.127  0.3278  0.0964 -0.1500
  316POPC   C1A 4278   9.463   1.122   6.068  0.4374  0.1992  0.1476
  316POPC   D2A 4279   9.226   0.975   6.433 -0.0204  0.0556  0.1806
  316POPC   C3A 4280   9.224   1.237   6.850 -0.0757 -0.0674  0.0815
  316POPC   C4A 4281   8.976   1.579   7.011 -0.1713  0.3040 -0.0532
  316POPC   C1B 4282  10.207   1.181   6.532 -0.0803  0.0279  0.0602
  316POPC   C2B 4283  10.296   1.127   6.895 -0.3475  0.0930 -0.0616
  316POPC   C3B 4284  10.395   0.762   6.999 -0.4953 -0.3036  0.0419
  316POPC   C4B 4285  10.371   0.553   7.345  0.1661 -0.0044  0.1637
  317POPC   NC3 4286   9.250   6.733   4.270  0.2868  0.2547 -0.0667
  317POPC   PO4 4287   9.254   7.136   4.469 -0.1115  0.3040  0.0769
  317POPC   GL1 4288   9.226   6.731   4.808  0.1089 -0.0133  0.2437
  317POPC   GL2 4289   9.256   6.907   5.110  0.0014  0.1603  0.1099
  317POPC   C1A 4290   9.224   6.353   5.073  0.2647  0.1471 -0.1281
  317POPC   D2A 4291   9.120   5.874   5.107  0.2071  0.1735  0.2596
  317POPC   C3A 4292   9.430   5.732   5.361 -0.1350  0.2027  0.0909
  317POPC   C4A 4293   9.775   5.605   5.127 -0.1964 -0.1068  0.1072
  317POPC   C1B 4294   9.335   6.683   5.426 -0.2241  0.2721  0.1726
  317POPC   C2B 4295   9.150   6.530   5.867 -0.2733 -0.1110 -0.0702
  317POPC   C3B 4296   8.793   6.294   5.930  0.0219  0.0288 -0.0808
  317POPC   C4B 4297   8.325   6.303   6.029 -0.0354  0.2675 -0.0008
  318POPC   NC3 4298   6.046   5.769   4.735 -0.2000 -0.1449 -0.2055
  318POPC   PO4 4299   6.191   6.138   4.793  0.0151  0.1083  0.0188
  318POPC   GL1 4300   6.189   5.900   5.208  0.1058 -0.0084  0.3093
  318POPC   GL2 4301   5.960   6.089   5.417  0.0143 -0.1657 -0.1144
  318POPC   C1A 4302   6.339   5.811   5.604  0.1058  0.1573 -0.3524
  318POPC   D2A 4303   6.492   5.591   5.866  0.0827 -0.0887 -0.0892
  318POPC   C3A 4304   6.727   5.328   6.116 -0.3587  0.5074 -0.1231
  318POPC   C4A 4305   6.750   4.773   6.187 -0.0439  0.5083  0.0354
  318POPC   C1B 4306   6.005   6.567   5.629 -0.0341  0.1952  0.2923
  318POPC   C2B 4307   5.745   6.885   5.805 -0.0559  0.3279 -0.0658
  318POPC   C3B 4308   5.936   7.114   6.093  0.1965  0.1596 -0.0072
  318POPC   C4B 4309   6.342   7.071   6.337  0.2245  0.0602 -0.0978
  319POPC   NC3 4310   6.249   5.215   4.800 -0.2668 -0.2919  0.1736
  319POPC   PO4 4311   5.989   5.000   5.063 -0.2581  0.1297  0.2049
  319POPC   GL1 4312   6.344   5.184   5.279  0.2595  0.0041  0.0713
  319POPC   GL2 4313   6.077   5.124   5.547 -0.1857  0.0516 -0.2692
  319POPC   C1A 4314   6.623   5.135   5.618  0.2416  0.0903 -0.2127
  319POPC   D2A 4315   7.094   5.194   5.803 -0.0128 -0.0508 -0.0233
  319POPC   C3A 4316   7.299   5.294   6.034  0.3120 -0.0260  0.0991
  319POPC   C4A 4317   7.621   5.497   6.195  0.0041 -0.1351  0.0672
  319POPC   C1B 4318   6.152   5.115   6.004 -0.2521  0.1411  0.3000
  319POPC   C2B 4319   6.345   5.051   6.374 -0.0195 -0.1352 -0.2586
  319POPC   C3B 4320   6.338   5.252   6.846  0.0516 -0.2027 -0.3962
  319POPC   C4B 4321   6.451   5.627   7.033  0.2404  0.3111 -0.2299
  320POPC   NC3 4322  10.086   0.339   4.879 -0.0811 -0.0591  0.2456
  320POPC   PO4 4323  10.204   0.289   5.365 -0.4688  0.1788 -0.3643
  320POPC   GL1 4324  10.255   0.261   5.767  0.0393 -0.0551 -0.2882
  320POPC   GL2 4325  10.563   0.394   5.940  0.0282  0.2667 -0.0079
  320POPC   C1A 4326  10.118   0.524   6.097 -0.3079  0.1847  0.1589
  320POPC   D2A 4327  10.306   0.606   6.529  0.2625  0.0374 -0.1584
  320POPC   C3A 4328  10.636   0.323   6.734  0.2409  0.1275  0.0243
  320POPC   C4A 4329  10.675   0.109   7.205 -0.0611 -0.1907 -0.2689
  320POPC   C1B 4330  10.446   0.146   6.298 -0.1955  0.3746 -0.1369
  320POPC   C2B 4331  10.458  -0.136   6.689 -0.1353 -0.2961  0.0768
  320POPC   C3B 4332  10.460  -0.331   7.121  0.2102 -0.1972  0.0861
  320POPC   C4B 4333  10.584  -0.737   7.073  0.3296  0.2561 -0.0057
  321POPC   NC3 4334   9.452   2.069   5.017 -0.1201 -0.2184  0.0175
  321POPC   PO4 4335   9.896   1.815   5.145  0.1671  0.0177 -0.5077
  321POPC   GL1 4336   9.735   1.960   5.656  0.0780 -0.1807 -0.1469
  321POPC   GL2 4337   9.701   1.707   5.923  0.0290  0.1093 -0.1058
  321POPC   C1A 4338  10.062   2.188   6.020 -0.3533  0.0164  0.0296
  321POPC   D2A 4339  10.227   2.276   6.367 -0.0053 -0.0488 -0.1771
  321POPC   C3A 4340   9.993   2.526   6.711  0.3299 -0.2017 -0.2880
  321POPC   C4A 4341   9.791   2.982   6.699 -0.2042  0.3273 -0.0547
  321POPC   C1B 4342   9.240   1.781   5.868  0.0217  0.0421  0.3191
  321POPC   C2B 4343   8.908   1.942   6.254  0.1230 -0.0075  0.1638
  321POPC   C3B 4344   9.110   1.933   6.659 -0.1739 -0.0360  0.3274
  321POPC   C4B 4345   9.504   1.742   6.951 -0.0122  0.1204  0.1119
  322POPC   NC3 4346   7.919  10.133   4.600  0.3434  0.0491  0.1161
  322POPC   PO4 4347   8.052  10.340   4.946 -0.0461  0.0074 -0.0935
  322POPC   GL1 4348   7.938  10.380   5.298 -0.3399 -0.0758 -0.1957
  322POPC   GL2 4349   8.139  10.388   5.494  0.1160 -0.3754 -0.0063
  322POPC   C1A 4350   7.637  10.615   5.569  0.0252 -0.1215  0.2515
  322POPC   D2A 4351   7.190  10.757   5.512 -0.0932 -0.2227  0.1415
  322POPC   C3A 4352   7.075  10.834   5.893  0.0842 -0.2986 -0.0737
  322POPC   C4A 4353   6.992  10.820   6.314 -0.3177  0.0090 -0.0381
  322POPC   C1B 4354   8.470  10.390   5.783  0.1885 -0.5213 -0.2802
  322POPC   C2B 4355   8.477  10.397   6.212 -0.1744 -0.0338 -0.1030
  322POPC   C3B 4356   8.171  10.472   6.608 -0.4339  0.0492  0.1655
  322POPC   C4B 4357   8.202  10.157   6.979  0.0626 -0.2124 -0.1798
  323POPC   NC3 4358   6.615   5.903   4.869  0.0290  0.2838 -0.1902
  323POPC   PO4 4359   6.593   5.524   4.989 -0.0789 -0.1438 -0.0033
  323POPC   GL1 4360   6.844   5.531   5.425 -0.2529 -0.3776 -0.0298
  323POPC   GL2 4361   7.104   5.413   5.335  0.3286  0.0369  0.2147
  323POPC   C1A 4362   6.958   5.703   5.829  0.1816 -0.1805 -0.0053
  323POPC   D2A 4363   6.760   5.848   6.178  0.0501  0.2285 -0.0403
  323POPC   C3A 4364   7.032   6.206   6.362  0.0790 -0.0586  0.0199
  323POPC   C4A 4365   7.052   6.625   6.424  0.3707 -0.0283 -0.1936
  323POPC   C1B 4366   7.482   5.564   5.653  0.0184 -0.0450 -0.0709
  323POPC   C2B 4367   7.828   5.805   5.806 -0.1067 -0.2765 -0.0943
  323POPC   C3B 4368   8.052   5.878   6.197  0.1847 -0.2551 -0.1435
  323POPC   C4B 4369   7.939   5.629   6.586  0.3925  0.1308 -0.1343
  324POPC   NC3 4370   3.612   0.947   4.441  0.5475  0.0281  0.1954
  324POPC   PO4 4371   3.615   0.659   4.853  0.0217 -0.1510 -0.0888
  324POPC   GL1 4372   3.691   0.651   5.309  0.2995 -0.4272  0.0362
  324POPC   GL2 4373   3.317   0.641   5.430 -0.2143  0.2099 -0.1204
  324POPC   C1A 4374   3.859   0.643   5.602 -0.0003 -0.0027  0.1310
  324POPC   D2A 4375   3.824   0.725   5.968 -0.1288 -0.0691 -0.1252
  324POPC   C3A 4376   3.489   0.684   6.273  0.4653  0.3569  0.0743
  324POPC   C4A 4377   3.320   0.348   6.573 -0.1208  0.4046  0.3944
  324POPC   C1B 4378   3.314   0.555   5.827  0.0236 -0.1390  0.3249
  324POPC   C2B 4379   3.048   0.347   6.063 -0.2532  0.0556 -0.1540
  324POPC   C3B 4380   2.854  -0.098   6.161 -0.2138  0.0723 -0.2719
  324POPC   C4B 4381   2.562  -0.313   6.332 -0.4571  0.0380 -0.1044
  325POPC   NC3 4382   7.171   1.395   4.740 -0.3460  0.0208 -0.2458
  325POPC   PO4 4383   7.236   1.052   4.858  0.0991 -0.2331 -0.1044
  325POPC   GL1 4384   7.325   1.212   5.254  0.3961 -0.1600 -0.1831
  325POPC   GL2 4385   7.418   0.906   5.326  0.1583 -0.0860 -0.1197
  325POPC   C1A 4386   7.443   1.297   5.618 -0.0313 -0.3667  0.0086
  325POPC   D2A 4387   7.568   1.254   5.978 -0.1221  0.1263 -0.0398
  325POPC   C3A 4388   7.993   1.467   6.122  0.1801  0.3092  0.1787
  325POPC   C4A 4389   8.401   1.416   6.298 -0.2022  0.0892 -0.0059
  325POPC   C1B 4390   7.321   0.816   5.769 -0.4083  0.0669 -0.1237
  325POPC   C2B 4391   7.323   0.865   6.248 -0.2707  0.0593  0.2872
  325POPC   C3B 4392   6.961   0.820   6.581 -0.0900 -0.0755 -0.1694
  325POPC   C4B 4393   6.574   0.545   6.559  0.0918  0.1714  0.2415
  326POPC   NC3 4394   6.424   9.689   4.915 -0.0530  0.0581 -0.0689
  326POPC   PO4 4395   6.833   9.653   4.958 -0.0489 -0.0155 -0.3455
  326POPC   GL1 4396   6.677   9.588   5.415 -0.1772  0.3373  0.2981
  326POPC   GL2 4397   6.936   9.389   5.426  0.1158 -0.0935 -0.0034
  326POPC   C1A 4398   6.785   9.279   5.863  0.3417  0.2475 -0.2603
  326POPC   D2A 4399   7.037   9.287   6.293 -0.1071 -0.1037  0.0485
  326POPC   C3A 4400   6.971   9.303   6.736  0.1256 -0.1419 -0.0306
  326POPC   C4A 4401   6.585   9.446   6.956  0.1664 -0.1230  0.3159
  326POPC   C1B 4402   7.156   9.597   5.664  0.1026  0.0755  0.0301
  326POPC   C2B 4403   7.324   9.633   6.053  0.0519  0.0879  0.2581
  326POPC   C3B 4404   7.439   9.658   6.511 -0.1576  0.2347 -0.1733
  326POPC   C4B 4405   7.606   9.486   6.903  0.1968 -0.2260  0.3158
  327POPC   NC3 4406   4.056   9.722   5.040  0.0137 -0.0956 -0.2121
  327POPC   PO4 4407   4.278  10.141   4.784  0.0585 -0.0588 -0.2296
  327POPC   GL1 4408   4.603  10.349   5.105  0.0867 -0.1865 -0.1224
  327POPC   GL2 4409   4.605  10.684   5.192  0.0659 -0.2012 -0.2147
  327POPC   C1A 4410   4.700  10.259   5.582  0.1893 -0.0774  0.0624
  327POPC   D2A 4411   4.663  10.506   5.885  0.3639 -0.3091  0.1134
  327POPC   C3A 4412   4.638  10.329   6.242 -0.3116 -0.0542  0.2655
  327POPC   C4A 4413   4.690  10.411   6.661 -0.2507  0.0325 -0.1346
  327POPC   C1B 4414   4.374  10.799   5.519 -0.0738  0.0661 -0.1249
  327POPC   C2B 4415   4.170  10.689   5.877 -0.1586 -0.1078 -0.1593
  327POPC   C3B 4416   4.151  10.554   6.226  0.0040 -0.0160  0.2316
  327POPC   C4B 4417   4.171  10.395   6.656  0.0061 -0.0994  0.0718
  328POPC   NC3 4418   5.620   4.843   4.684  0.1418  0.0581 -0.0585
  328POPC   PO4 4419   5.266   4.901   4.823 -0.0283  0.2534  0.2104
  328POPC   GL1 4420   5.022   4.941   5.265 -0.4693 -0.0988  0.1564
  328POPC   GL2 4421   5.218   4.942   5.518 -0.2003 -0.2196 -0.0889
  328POPC   C1A 4422   4.659   5.121   5.574 -0.2049 -0.2172  0.0625
  328POPC   D2A 4423   4.531   5.346   5.945 -0.1599  0.1103  0.0119
  328POPC   C3A 4424   4.788   5.341   6.279 -0.3974 -0.1120 -0.0834
  328POPC   C4A 4425   4.997   5.312   6.687 -0.0788  0.0079 -0.4924
  328POPC   C1B 4426   5.049   4.851   5.857  0.0130 -0.0143 -0.0592
  328POPC   C2B 4427   5.189   5.061   6.236 -0.0595  0.0926 -0.0499
  328POPC   C3B 4428   5.456   5.241   6.498 -0.1125 -0.2627 -0.0592
  328POPC   C4B 4429   5.443   5.356   6.914  0.2832 -0.0419 -0.1271
  329POPC   NC3 4430   6.279   1.920   5.132 -0.2096 -0.0647  0.2304
  329POPC   PO4 4431   6.571   1.762   4.846 -0.0359  0.1518  0.7125
  329POPC   GL1 4432   6.745   1.764   5.329 -0.1769  0.2011 -0.1647
  329POPC   GL2 4433   6.953   1.581   5.443  0.0783 -0.0160 -0.1490
  329POPC   C1A 4434   6.701   1.954   5.725 -0.0905 -0.0641 -0.0271
  329POPC   D2A 4435   6.499   1.952   6.065  0.5949 -0.2351 -0.1639
  329POPC   C3A 4436   6.754   1.826   6.449  0.1785 -0.2370  0.0930
  329POPC   C4A 4437   6.523   1.782   6.857 -0.2127  0.0844  0.1929
  329POPC   C1B 4438   6.786   1.351   5.756  0.1641 -0.3604 -0.0744
  329POPC   C2B 4439   6.580   1.429   6.172  0.1085  0.1473  0.0625
  329POPC   C3B 4440   6.304   1.456   6.484  0.3487 -0.1694 -0.3168
  329POPC   C4B 4441   5.874   1.522   6.660  0.0275 -0.0453  0.0644
  330POPC   NC3 4442   2.733   5.854   3.499  0.3120  0.3670 -0.0943
  330POPC   PO4 4443   2.984   5.942   3.839  0.0131 -0.1026 -0.0858
  330POPC   GL1 4444   2.815   6.229   4.093  0.2023  0.1081 -0.0999
  330POPC   GL2 4445   3.030   6.142   4.447 -0.1031  0.1573 -0.0905
  330POPC   C1A 4446   2.805   6.565   4.449  0.1564 -0.1309  0.0770
  330POPC   D2A 4447   2.602   6.743   4.746  0.1307  0.0859  0.0439
  330POPC   C3A 4448   2.982   6.807   5.048  0.2929  0.0831 -0.2370
  330POPC   C4A 4449   3.249   6.974   5.318 -0.0007 -0.0130  0.3260
  330POPC   C1B 4450   2.518   6.157   4.438  0.0523  0.1141 -0.4854
  330POPC   C2B 4451   2.273   6.297   4.856 -0.2839  0.4682  0.2946
  330POPC   C3B 4452   2.093   6.243   5.272  0.0663 -0.0948  0.2203
  330POPC   C4B 4453   1.676   6.099   5.530 -0.0091  0.0431  0.1383
  331POPC   NC3 4454   7.587   9.402   5.217  0.1389 -0.0047  0.0364
  331POPC   PO4 4455   7.850   9.883   5.325  0.0243  0.0075  0.0764
  331POPC   GL1 4456   7.831   9.698   5.740 -0.1670  0.0946 -0.1903
  331POPC   GL2 4457   7.637   9.337   5.752  0.0103 -0.0468 -0.0330
  331POPC   C1A 4458   7.897   9.531   6.134  0.0757  0.0168  0.1554
  331POPC   D2A 4459   7.701   9.197   6.423 -0.0375  0.1470 -0.0470
  331POPC   C3A 4460   7.842   8.950   6.887  0.1346  0.0357  0.3049
  331POPC   C4A 4461   7.734   8.819   7.268 -0.2349 -0.2182  0.1504
  331POPC   C1B 4462   7.837   8.976   5.937  0.3777 -0.1849  0.1113
  331POPC   C2B 4463   8.003   8.806   6.399 -0.0918  0.1607 -0.3620
  331POPC   C3B 4464   8.302   8.694   6.644 -0.0298 -0.0645 -0.2032
  331POPC   C4B 4465   8.699   8.866   6.502 -0.3378 -0.2597  0.3069
  332POPC   NC3 4466   8.812   6.951   4.707  0.0484 -0.2784  0.0661
  332POPC   PO4 4467   8.635   6.557   4.789  0.0460 -0.0997  0.3121
  332POPC   GL1 4468   8.634   6.530   5.107 -0.0873  0.0005  0.0965
  332POPC   GL2 4469   8.572   6.628   5.411 -0.0635  0.1783 -0.1436
  332POPC   C1A 4470   8.798   6.198   5.408 -0.1761  0.1747 -0.2421
  332POPC   D2A 4471   9.191   6.183   5.530 -0.1456  0.3537 -0.0835
  332POPC   C3A 4472   9.596   6.167   5.308 -0.2133 -0.1749  0.1113
  332POPC   C4A 4473  10.013   6.135   5.317 -0.0660 -0.2940 -0.2379
  332POPC   C1B 4474   8.625   6.763   5.878 -0.1154 -0.0643  0.1368
  332POPC   C2B 4475   8.612   7.137   6.137  0.0692  0.2213 -0.0420
  332POPC   C3B 4476   8.673   7.491   6.513 -0.1887  0.3695 -0.3830
  332POPC   C4B 4477   8.575   7.560   6.927 -0.2248 -0.1604  0.4293
  333POPC   NC3 4478   6.337   4.216   4.884  0.2332  0.0981  0.1654
  333POPC   PO4 4479   6.396   4.721   4.848  0.2294 -0.0686  0.0436
  333POPC   GL1 4480   6.446   4.697   5.227  0.1628  0.0745  0.1645
  333POPC   GL2 4481   6.117   4.590   5.287  0.0109 -0.0374 -0.0726
  333POPC   C1A 4482   6.523   4.309   5.523  0.2238 -0.0347 -0.1335
  333POPC   D2A 4483   6.553   4.256   6.072  0.1718  0.2462 -0.1876
  333POPC   C3A 4484   6.561   3.928   6.224 -0.3091 -0.0707 -0.0511
  333POPC   C4A 4485   6.761   3.819   6.578 -0.0163  0.1655 -0.2217
  333POPC   C1B 4486   5.778   4.505   5.561 -0.0210 -0.0111  0.1206
  333POPC   C2B 4487   5.588   4.817   5.924  0.1214 -0.1858 -0.0684
  333POPC   C3B 4488   5.689   4.894   6.290 -0.1939  0.0717 -0.1633
  333POPC   C4B 4489   5.534   4.726   6.646  0.0079 -0.2149  0.0374
  334POPC   NC3 4490   4.648   8.034   4.570 -0.2226 -0.2550 -0.0560
  334POPC   PO4 4491   4.257   8.341   4.610  0.0205  0.0070 -0.0663
  334POPC   GL1 4492   4.308   8.564   5.041 -0.1046  0.1861  0.3405
  334POPC   GL2 4493   4.455   8.470   5.269 -0.2797 -0.2036  0.1493
  334POPC   C1A 4494   4.227   8.997   5.234 -0.1040  0.1102 -0.3297
  334POPC   D2A 4495   4.351   9.332   5.338 -0.0601 -0.1217  0.1827
  334POPC   C3A 4496   4.664   9.406   5.671 -0.0316 -0.1351  0.0293
  334POPC   C4A 4497   5.066   9.389   5.835  0.1869 -0.0727 -0.0199
  334POPC   C1B 4498   4.098   8.532   5.581 -0.1784  0.1375  0.3596
  334POPC   C2B 4499   3.875   8.541   6.000  0.0589  0.2614  0.2180
  334POPC   C3B 4500   3.964   8.768   6.284 -0.0638 -0.0943 -0.1110
  334POPC   C4B 4501   3.730   8.732   6.669  0.1137 -0.2766 -0.0701
  335POPC   NC3 4502   5.686   0.151   4.580  0.1985  0.0005  0.1998
  335POPC   PO4 4503   5.850   0.574   4.535  0.2017 -0.1888  0.0094
  335POPC   GL1 4504   5.973   0.409   4.943  0.2648  0.0437 -0.4158
  335POPC   GL2 4505   5.841  -0.032   5.020  0.0621 -0.0384 -0.3973
  335POPC   C1A 4506   5.915   0.621   5.389 -0.1122  0.0738  0.2938
  335POPC   D2A 4507   5.547   0.738   5.698  0.0453 -0.1002  0.0275
  335POPC   C3A 4508   5.489   0.621   6.109  0.2859 -0.0519 -0.1752
  335POPC   C4A 4509   5.719   0.690   6.559  0.0819 -0.1714 -0.1681
  335POPC   C1B 4510   6.015   0.067   5.527  0.0561 -0.3470 -0.3328
  335POPC   C2B 4511   5.864   0.375   5.859  0.2788 -0.0094  0.0661
  335POPC   C3B 4512   5.981   0.729   5.894  0.0220 -0.0246 -0.0367
  335POPC   C4B 4513   6.313   1.065   5.926 -0.0093  0.0816 -0.3736
  336POPC   NC3 4514   3.008   9.949   5.033 -0.0386 -0.0249 -0.1282
  336POPC   PO4 4515   2.516   9.928   5.223  0.0314  0.0222  0.1904
  336POPC   GL1 4516   2.537   9.613   5.491 -0.0218 -0.2701  0.2276
  336POPC   GL2 4517   2.519   9.356   5.429  0.1525 -0.1734  0.2116
  336POPC   C1A 4518   2.316   9.563   5.860  0.2663 -0.1020  0.0179
  336POPC   D2A 4519   2.386   9.701   6.301 -0.1840 -0.1119  0.1971
  336POPC   C3A 4520   2.130   9.426   6.709  0.0429  0.3868 -0.2385
  336POPC   C4A 4521   1.814   9.648   7.034  0.2092 -0.0668  0.2103
  336POPC   C1B 4522   2.412   9.025   5.752  0.0992  0.2140 -0.2347
  336POPC   C2B 4523   2.243   8.664   6.038  0.0243 -0.2502 -0.0890
  336POPC   C3B 4524   2.475   8.505   6.458 -0.3000 -0.0752  0.0300
  336POPC   C4B 4525   2.704   8.433   6.842  0.1848 -0.0327  0.1056
  337POPC   NC3 4526   1.886   4.269   4.120 -0.1630  0.1633  0.0235
  337POPC   PO4 4527   2.098   4.324   4.517  0.3486 -0.2111 -0.1005
  337POPC   GL1 4528   2.357   4.431   4.912 -0.1696 -0.1255  0.0611
  337POPC   GL2 4529   2.302   4.744   5.120  0.1734  0.0462 -0.0240
  337POPC   C1A 4530   2.599   4.483   5.360 -0.0184 -0.3789 -0.1355
  337POPC   D2A 4531   2.688   4.284   5.720  0.1887 -0.1828 -0.1168
  337POPC   C3A 4532   2.774   4.460   6.185  0.2737 -0.0075 -0.2614
  337POPC   C4A 4533   2.406   4.584   6.447 -0.1100  0.3018 -0.0520
  337POPC   C1B 4534   2.261   5.143   5.232  0.1622 -0.0277 -0.0212
  337POPC   C2B 4535   2.485   5.476   5.231 -0.1811  0.1947  0.0054
  337POPC   C3B 4536   2.553   5.811   5.609 -0.2493  0.0527  0.4214
  337POPC   C4B 4537   2.494   6.224   5.658 -0.1347  0.2654  0.0955
  338W        W 4538   5.094  10.309   2.735 -0.0824 -0.0621  0.0792
  339W        W 4539   5.636   0.362  13.186 -0.1691  0.1230 -0.0852
  340W        W 4540   7.890   6.800  12.641 -0.1622  0.1768  0.0542
  341W        W 4541   2.960   2.724   2.902  0.3308 -0.0143  0.0271
  342W        W 4542   4.280   8.577  12.565 -0.1701  0.0184 -0.0944
  343W        W 4543   5.641   1.602   2.698 -0.1483  0.0202 -0.1963
  344W        W 4544   8.171   1.677   1.669  0.0376 -0.0322 -0.1920
  345W        W 4545   9.846   5.485   0.062  0.2775 -0.0171  0.1682
  346W        W 4546   1.838   2.132   0.128 -0.0181  0.2587 -0.1498
  347W        W 4547   2.199   3.346  12.212 -0.1545 -0.1250  0.3496
  348W        W 4548   2.773   9.579   4.472  0.0470 -0.0841  0.1089
  349W        W 4549   5.412   3.465  11.557 -0.0997 -0.1072  0.1319
  350W        W 4550   2.599   2.359   0.386 -0.3172  0.2692  0.0728
  351W        W 4551   9.113   5.415   2.536 -0.1632 -0.0521 -0.1994
  352W        W 4552   7.594   4.005   1.910  0.0101  0.2436  0.0810
  353W        W 4553   1.992  10.256   2.007  0.0917  0.0507  0.2019
  354W        W 4554   8.921   8.172   8.988  0.0601 -0.0866 -0.1304
  355W        W 4555   4.425  10.345   1.110  0.1213 -0.0994 -0.2751
  356W        W 4556   3.911   6.920   4.401  0.1776 -0.2363  0.1003
  357W        W 4557   7.161   0.505   5.063  0.2177  0.0575 -0.0688
  358W        W 4558   2.057   9.761  12.509  0.1178 -0.0778 -0.0812
  359W        W 4559   8.216   5.310   4.023  0.4822 -0.0782  0.2960
  360W        W 4560   9.349   1.195   4.154 -0.1414 -0.1505 -0.4518
  361W        W 4561   9.110   3.562  11.682 -0.3207  0.2829  0.2050
  362W        W 4562   8.276   3.206   0.848  0.1266  0.1018  0.1847
  363W        W 4563   9.852   7.569   4.489 -0.0112 -0.0438  0.2171
  364W        W 4564   4.843   2.407  10.583  0.0217  0.1860 -0.1885
  365W        W 4565   8.886   5.488   0.613 -0.1198 -0.0024 -0.0007
  366W        W 4566   1.237   3.296   4.584  0.4368  0.3599  0.0011
  367W        W 4567   2.063   6.653   1.702 -0.1178  0.1033  0.0420
  368W        W 4568   8.529  10.318   2.950  0.0642  0.1165  0.2302
  369W        W 4569   8.015   4.823  12.744 -0.2043  0.0217  0.1120
  370W        W 4570   5.822  10.256  11.174  0.0014  0.5204  0.1950
  371W        W 4571   8.948   3.541   2.535 -0.0302 -0.3112  0.0822
  372W        W 4572   4.791   1.217   2.097 -0.0424 -0.2547  0.2033
  373W        W 4573   5.395   3.347  13.054 -0.3222 -0.1343  0.0699
  374W        W 4574   7.655   6.513   9.653 -0.3564 -0.2426 -0.2530
  375W        W 4575   4.034   1.655   3.184  0.2460 -0.3203 -0.0441
  376W        W 4576   3.171   5.963   0.040 -0.1025  0.0608 -0.1398
  377W        W 4577   6.426   0.704   5.103 -0.0493 -0.4918 -0.3120
  378W        W 4578   9.160   5.273   3.130  0.0537 -0.0126 -0.2328
  379W        W 4579   8.432   6.175   4.069  0.0148  0.0408 -0.0051
  380W        W 4580   4.273   5.307   2.224  0.0555 -0.1732  0.0725
  381W        W 4581   8.383   0.767   0.360  0.2556  0.1608  0.2822
  382W        W 4582   3.497   5.218  10.039  0.2628 -0.0699 -0.0435
  383W        W 4583   1.322   5.985  12.414  0.0545  0.0215  0.2422
  384W        W 4584   3.966   1.199   0.329  0.1662 -0.4608  0.0655
  385W        W 4585   6.313   0.955   2.769 -0.1843 -0.4049 -0.0766
  386W        W 4586   1.172   4.696  11.676  0.0999 -0.3088  0.1301
  387W        W 4587   8.596   1.708   5.043 -0.0553  0.0331 -0.1241
  388W        W 4588   2.743   4.331   3.737 -0.3037  0.0989 -0.0744
  389W        W 4589   4.346   3.405  11.976  0.1016  0.1891 -0.1701
  390W        W 4590   8.505   8.324   3.454 -0.2699  0.2763 -0.0735
  391W        W 4591   3.324   9.919  10.164 -0.2745 -0.1840  0.1831
  392W        W 4592   3.072   6.646   0.325  0.3858  0.1710  0.1869
  393W        W 4593   3.618   0.644   1.588 -0.2948 -0.1830  0.0183
  394W        W 4594   1.735   8.614  11.821  0.1313  0.0078  0.1934
  395W        W 4595   5.213   3.590  10.210  0.0807  0.0052 -0.1930
  396W        W 4596   2.526   4.692   9.995  0.0472 -0.2189  0.1744
  397W        W 4597   8.134   2.131  12.176  0.0872 -0.0045  0.0025
  398W        W 4598   5.902   1.167  11.718 -0.0184  0.0066 -0.0527
  399W        W 4599   5.640   4.866   4.204 -0.0427  0.2351 -0.0894
  400W        W 4600  10.005   8.375  13.461 -0.0066 -0.2578  0.2049
  401W        W 4601   2.546   8.864  12.027  0.1471  0.0477  0.1131
  402W        W 4602   5.459   7.733  11.043  0.1829 -0.2818 -0.1849
  403W        W 4603   2.738   0.539   2.189 -0.0512  0.4626 -0.0425
  404W        W 4604   7.923   6.579   0.593  0.0101  0.0252 -0.0202
  405W        W 4605   2.784  10.201  11.377  0.2046 -0.0760  0.2181
  406W        W 4606   5.740   2.909   2.390  0.2591 -0.0746  0.0012
  407W        W 4607   9.604   2.060   0.412 -0.1377  0.1556  0.0763
  408W        W 4608   4.582  10.018  10.822 -0.3840 -0.0059 -0.0635
  409W        W 4609   7.216   9.270   9.246  0.0093  0.0118 -0.1473
  410W        W 4610   0.925   8.685  11.311  0.0647 -0.1186 -0.1393
  411W        W 4611   4.837   3.615  11.900  0.0971  0.0849  0.0269
  412W        W 4612   3.261   2.019  11.910  0.2241 -0.1464 -0.0008
  413W        W 4613   9.707   6.468   3.096  0.1803  0.2310 -0.1584
  414W        W 4614   1.065   9.150  10.226  0.1176  0.3761 -0.0124
  415W        W 4615   2.437   1.377   2.639  0.0749  0.0714  0.2174
  416W        W 4616   0.925   1.146   2.353  0.1244  0.3365 -0.4774
  417W        W 4617   6.246   2.256  11.192  0.1805  0.0950  0.0449
  418W        W 4618   3.550   0.061   8.385  0.2074  0.4649  0.3025
  419W        W 4619   5.405  10.399   3.312  0.0626 -0.1083  0.1451
  420W        W 4620   0.209   6.667   3.722 -0.0650 -0.0763  0.1906
  421W        W 4621   7.952   2.354   0.921 -0.0822  0.4024  0.1758
  422W        W 4622   1.051   3.052   3.692 -0.0321  0.2417  0.2781
  423W        W 4623   4.595   1.640  11.051  0.1340 -0.0559  0.3319
  424W        W 4624   5.382   0.385   0.146  0.0593  0.4890 -0.0632
  425W        W 4625   5.992   4.194   3.891  0.1279 -0.0484 -0.2521
  426W        W 4626   7.470   0.457   9.122 -0.1478  0.1078 -0.0560
  427W        W 4627   3.962   7.008  12.173 -0.0920 -0.0740  0.0219
  428W        W 4628   6.112   0.530   0.496 -0.1037  0.3189 -0.1648
  429W        W 4629   0.010   1.358  11.101  0.0255 -0.2043 -0.0312
  430W        W 4630   9.235   9.044   1.760 -0.0467  0.1188 -0.0793
  431W        W 4631   1.000   1.108   4.662 -0.1846  0.1053  0.1883
  432W        W 4632   5.482  10.031   2.875 -0.1836 -0.0189 -0.2164
  433W        W 4633   7.614   3.486   0.317 -0.0769  0.1196 -0.0765
  434W        W 4634   4.894   0.005   1.352  0.1078  0.0060 -0.5140
  435W        W 4635   2.280   7.402  11.173 -0.2149  0.1380 -0.0797
  436W        W 4636   3.010   9.671  12.321  0.0415  0.0611 -0.1152
  437W        W 4637   5.942   4.479   1.800  0.1186  0.1040  0.0540
  438W        W 4638  10.148   2.431   0.949 -0.1987  0.2079 -0.1248
  439W        W 4639   8.542   6.821   2.482 -0.1235  0.3278 -0.0801
  440W        W 4640   8.995   6.340   4.506 -0.1674  0.1272  0.0696
  441W        W 4641   6.415   6.736   9.356  0.3284  0.2005 -0.4162
  442W        W 4642   1.179   1.777   3.949 -0.0114  0.2038 -0.3125
  443W        W 4643   3.846   3.952  13.239 -0.1432 -0.0699 -0.3018
  444W        W 4644   2.624   0.692  13.045 -0.1843  0.2093 -0.1981
  445W        W 4645   7.569   2.222  10.052 -0.1518  0.2538 -0.2556
  446W        W 4646   1.211   3.019  10.615 -0.4012 -0.1080  0.5333
  447W        W 4647   6.631   3.730   9.718  0.3981 -0.4284 -0.2217
  448W        W 4648   4.597   5.379   4.082  0.1320  0.0713  0.0505
  449W        W 4649   0.650   5.560  11.427 -0.3309  0.1372 -0.0546
  450W        W 4650   8.263  10.194  12.865 -0.1283  0.0118 -0.1295
  451W        W 4651   9.069   7.407   3.886  0.0284 -0.1608 -0.2934
  452W        W 4652   7.228   4.880  12.182 -0.0354 -0.1389 -0.0138
  453W        W 4653   9.982  10.228   3.703 -0.3571 -0.3920  0.0760
  454W        W 4654   8.675   8.306   1.071  0.1024 -0.0317  0.0004
  455W        W 4655   5.113   7.323  12.587  0.0065 -0.0164 -0.4360
  456W        W 4656   5.937   3.339   3.588 -0.6217 -0.0980  0.1131
  457W        W 4657   3.901   1.782   4.569 -0.1633  0.2576 -0.0496
  458W        W 4658   6.700   2.334   9.377  0.2282  0.0935 -0.0373
  459W        W 4659   0.448   0.192  10.999  0.0005  0.1804  0.1788
  460W        W 4660   6.243   3.034   9.258 -0.2734 -0.4950  0.0503
  461W        W 4661   2.070   1.829   9.526  0.0685  0.0711  0.0879
  462W        W 4662   1.297   2.835   1.853 -0.1470 -0.2858  0.0297
  463W        W 4663   3.470   5.109  12.797 -0.1421  0.0497 -0.1060
  464W        W 4664   4.517   1.133   1.491  0.1231 -0.2267  0.2414
  465W        W 4665   3.494  10.343  11.083  0.2561  0.0452 -0.1192
  466W        W 4666   9.750   1.449  13.048  0.1245  0.2405 -0.2786
  467W        W 4667   2.796   6.653  11.540  0.3414  0.0798 -0.2323
  468W        W 4668   1.622   7.701   2.767 -0.1400  0.3038 -0.0639
  469W        W 4669   1.636   1.838   2.446 -0.1083  0.0145  0.0973
  470W        W 4670   6.247  10.111   1.552 -0.1694  0.2468 -0.3023
  471W        W 4671   5.619   5.306   4.771 -0.0301  0.1466 -0.0870
  472W        W 4672   9.110   1.838   9.537 -0.2329 -0.2654  0.2941
  473W        W 4673   9.996   4.664   0.686  0.0624 -0.0886 -0.3137
  474W        W 4674   7.457   9.326  12.088  0.2310 -0.1322 -0.3016
  475W        W 4675   2.992   3.370   3.738 -0.3769 -0.1975  0.2386
  476W        W 4676   4.846   4.837   9.617  0.2405  0.1300 -0.0634
  477W        W 4677   1.205   2.910   3.224  0.1023  0.3826 -0.1687
  478W        W 4678   0.265   4.823  10.828 -0.1397 -0.1963  0.0006
  479W        W 4679   8.181   2.141  11.657  0.0639  0.3384  0.1442
  480W        W 4680   1.295   7.193   0.566 -0.1156  0.2568  0.1772
  481W        W 4681   5.409   9.549  10.390  0.0575 -0.1445  0.1584
  482W        W 4682   3.672   4.458  13.375 -0.0444  0.2089  0.1152
  483W        W 4683   0.473   4.296   2.860  0.0016  0.4588  0.1613
  484W        W 4684   4.749   9.495   0.622 -0.0642 -0.1057 -0.1019
  485W        W 4685   2.078   5.214  13.167 -0.2136 -0.1318  0.0503
  486W        W 4686   3.992   5.272  12.817 -0.1927 -0.0534  0.0983
  487W        W 4687   0.399   7.652   2.659  0.0427 -0.0992  0.1507
  488W        W 4688   2.649   2.311   4.176  0.0074 -0.0236  0.1017
  489W        W 4689   5.295   5.760  11.528 -0.0600  0.0009  0.0363
  490W        W 4690   5.179   3.291   9.428  0.1888 -0.1590 -0.0088
  491W        W 4691   6.277   3.678   1.664 -0.2698  0.2837 -0.0220
  492W        W 4692   5.921   3.737   0.770 -0.0526 -0.2717 -0.0698
  493W        W 4693   5.150  10.107   9.884 -0.1613 -0.0283 -0.0838
  494W        W 4694   3.582   7.420  10.740 -0.1023 -0.1406  0.2391
  495W        W 4695   7.109   0.438   3.888  0.0757 -0.2249  0.2681
  496W        W 4696   3.165   8.478  11.429  0.1939 -0.2219  0.0225
  497W        W 4697   0.533   8.205   3.645 -0.2401 -0.1815  0.0213
  498W        W 4698   7.999   4.431   2.610 -0.0599 -0.0531 -0.0141
  499W        W 4699   8.556   2.178  11.382  0.0757  0.0574  0.0214
  500W        W 4700   6.823   1.446   0.974  0.0236  0.0812  0.1684
  501W        W 4701   5.432   5.718  13.239  0.0630 -0.1430  0.2287
  502W        W 4702   1.258   6.672   2.545 -0.2969 -0.0394 -0.3431
  503W        W 4703   7.767   6.141   1.875  0.1678  0.2778 -0.0602
  504W        W 4704   4.849   5.468  11.196 -0.0950 -0.0934 -0.0326
  505W        W 4705   9.366   5.078   4.040 -0.3132  0.0819  0.0744
  506W        W 4706   2.459   9.543  12.757  0.1288  0.0122  0.1084
  507W        W 4707   2.733   0.710   4.179  0.0201 -0.0381 -0.1249
  508W        W 4708   3.515   7.203   1.306  0.2104  0.3232 -0.3550
  509W        W 4709   0.736   4.096  12.420 -0.1220 -0.0724 -0.2188
  510W        W 4710  10.274   1.970  10.809  0.3180 -0.3593  0.0000
  511W        W 4711   2.399   0.059  10.404 -0.1571  0.0364  0.2782
  512W        W 4712   7.177   9.762  10.291 -0.2813 -0.2630  0.2140
  513W        W 4713   1.797   1.134  10.236  0.0861  0.1185 -0.1388
  514W        W 4714   8.962   9.383   9.750 -0.2113 -0.2164 -0.1076
  515W        W 4715   5.680   0.203   0.495  0.0832  0.1252  0.4267
  516W        W 4716   8.016   7.941  11.564  0.2435 -0.1843 -0.0209
  517W        W 4717   9.580   9.587   3.461 -0.1277 -0.0476  0.1523
  518W        W 4718   1.254   8.161  13.014  0.2044 -0.0413 -0.2122
  519W        W 4719  10.355   0.879  10.833  0.1875 -0.1228  0.1521
  520W        W 4720   6.716   4.138   2.578 -0.1329  0.2437  0.1608
  521W        W 4721   4.140   5.291   1.170  0.2565  0.2218 -0.0469
  522W        W 4722   0.010   4.501   0.679  0.0288 -0.1689 -0.1485
  523W        W 4723   4.348   2.625   3.289 -0.1519  0.1736 -0.2506
  524W        W 4724   5.534   3.881  11.794 -0.0558 -0.1713  0.0989
  525W        W 4725   8.816   7.461  12.125 -0.0484 -0.2414  0.0079
  526W        W 4726  10.368   7.464   2.596  0.0683  0.2098 -0.2912
  527W        W 4727   8.180   7.477  12.921  0.0431  0.1200  0.0500
  528W        W 4728   9.138   6.509   3.678  0.2373  0.1652 -0.0210
  529W        W 4729   4.058   4.780  12.517  0.0211  0.2106 -0.3632
  530W        W 4730   6.930   2.836  11.786  0.1176  0.2111 -0.0099
  531W        W 4731   3.635   6.285   0.421  0.0656  0.0210  0.1440
  532W        W 4732   0.941   7.116  13.161  0.1598  0.1760 -0.3299
  533W        W 4733  10.122   1.001   1.415  0.1015  0.1331  0.1503
  534W        W 4734   5.761   8.529  10.525 -0.0180 -0.1070  0.3439
  535W        W 4735   8.985   9.343   2.151  0.0891 -0.1180  0.1204
  536W        W 4736   5.740   1.916  13.419  0.2143 -0.0852 -0.1967
  537W        W 4737   7.527   0.701  13.281 -0.0825  0.1047 -0.1099
  538W        W 4738   6.435   8.345   1.935  0.1769  0.1047  0.0434
  539W        W 4739   9.335   2.327  11.868  0.2753 -0.3155 -0.2400
  540W        W 4740   0.867   5.890   1.416  0.2220 -0.0554 -0.1028
  541W        W 4741   1.046   6.619   1.477  0.0525 -0.0849 -0.0979
  542W        W 4742   0.002   7.448   0.138 -0.0786  0.2856  0.1038
  543W        W 4743  10.349   6.310  10.792 -0.2441 -0.1239 -0.1215
  544W        W 4744   9.522   2.153   1.394 -0.0087  0.2477  0.0231
  545W        W 4745   6.482   2.129  10.796 -0.2296  0.0294  0.0817
  546W        W 4746   0.799   6.234   2.225 -0.0450  0.2594 -0.1653
  547W        W 4747   4.609   4.261   3.793  0.0361 -0.0714  0.3450
  548W        W 4748   4.279   4.096   0.592 -0.2178 -0.1482  0.0431
  549W        W 4749   8.185   8.614  11.971 -0.1059 -0.0148 -0.4027
  550W        W 4750   8.146   3.232  10.379 -0.0761  0.0267 -0.2538
  551W        W 4751   3.185   5.343   0.759  0.4250 -0.2723  0.1344
  552W        W 4752   5.220   0.949   0.869 -0.2281  0.0739 -0.0299
  553W        W 4753   0.697   9.797   4.250 -0.1053  0.2476  0.2083
  554W        W 4754   0.352   0.063  12.817 -0.1220  0.2396  0.1047
  555W        W 4755   3.981   6.045   0.983 -0.0595  0.1446  0.0067
  556W        W 4756   2.915   1.526  13.120 -0.1663  0.0789 -0.1220
  557W        W 4757  10.286   2.326  13.181 -0.0976  0.0980  0.0537
  558W        W 4758   8.625   1.999   2.670  0.1480 -0.0925  0.2319
  559W        W 4759  10.049   0.777  11.914  0.0761  0.2619 -0.3256
  560W        W 4760   9.542   4.077   0.977 -0.0457 -0.1479  0.4587
  561W        W 4761   4.125   3.384   1.517 -0.0595 -0.1938  0.0388
  562W        W 4762   3.165   9.403   4.774 -0.1680 -0.3835  0.4152
  563W        W 4763   9.154   4.662   9.835 -0.3204 -0.4547 -0.3879
  564W        W 4764   4.592   6.483  13.066  0.2797  0.0731 -0.1270
  565W        W 4765   5.412   4.850  12.336 -0.2249 -0.1419 -0.1163
  566W        W 4766   9.145   3.337   0.490 -0.0601 -0.1782 -0.2265
  567W        W 4767   4.480   4.671   1.674 -0.2219  0.0177  0.0326
  568W        W 4768   6.521   6.186  12.129  0.3018  0.0028 -0.1929
  569W        W 4769   4.383   5.486   3.096  0.1551 -0.2357 -0.1381
  570W        W 4770   4.756   2.660   8.938  0.0062 -0.0566  0.1771
  571W        W 4771   3.590  10.224  10.628 -0.2981  0.3624 -0.0662
  572W        W 4772   0.321   9.879  13.220 -0.0761  0.3101 -0.2861
  573W        W 4773   5.194   6.424   1.329  0.2229 -0.1891 -0.0647
  574W        W 4774   8.137   3.575   3.868  0.2036  0.1691  0.3387
  575W        W 4775   3.708   3.121   9.681 -0.0767  0.1972 -0.0012
  576W        W 4776   8.769   0.848  12.505  0.1611  0.3237  0.0620
  577W        W 4777   6.329   9.241  12.422  0.0846  0.0401 -0.0019
  578W        W 4778   8.589   0.907   4.815  0.0030  0.0715  0.1902
  579W        W 4779   0.104   2.597   8.803 -0.1016 -0.3481  0.0093
  580W        W 4780   6.971   8.362  10.234 -0.0172 -0.0246 -0.0419
  581W        W 4781   0.551   2.148   3.731 -0.1600 -0.0665 -0.4055
  582W        W 4782   0.172   5.950  11.055 -0.0391  0.4299  0.1886
  583W        W 4783   2.259   6.662   2.173 -0.2667 -0.1831  0.0643
  584W        W 4784  10.124   7.553  12.885 -0.0066  0.2024 -0.0781
  585W        W 4785   7.823   5.979  12.021  0.1190 -0.1942  0.0670
  586W        W 4786   2.021   4.661  11.491  0.1271  0.2576 -0.2110
  587W        W 4787   5.554   7.079  12.789 -0.2099 -0.1008  0.0348
  588W        W 4788   9.138   0.351  11.437 -0.0258 -0.0060  0.1759
  589W        W 4789   0.758   9.513   1.982 -0.0795  0.1969 -0.0427
  590W        W 4790   9.496   1.708  11.193  0.0691 -0.1533  0.2343
  591W        W 4791   4.773   0.848  12.134 -0.4236 -0.0217 -0.1381
  592W        W 4792   3.289   5.720   0.470  0.0186  0.1508 -0.2971
  593W        W 4793  10.117   3.431   9.395 -0.1011  0.0560  0.0195
  594W        W 4794   7.444   8.188  10.261  0.0304  0.2364  0.3803
  595W        W 4795   4.086   1.165  12.450  0.0579  0.2127  0.1032
  596W        W 4796   9.973   8.005  12.566  0.0715 -0.4370 -0.1671
  597W        W 4797   9.780  10.014  11.028 -0.1465 -0.0164 -0.0574
  598W        W 4798   0.710   6.857   0.501  0.2560  0.2252 -0.2345
  599W        W 4799   2.163   7.411   2.580 -0.1065  0.0636 -0.0597
  600W        W 4800   5.254   6.360  13.104  0.1709  0.1444 -0.2509
  601W        W 4801  10.006   9.779  13.468 -0.3521 -0.0959 -0.2647
  602W        W 4802   9.407   2.429   2.837 -0.1071 -0.0044 -0.1003
  603W        W 4803   6.527   4.808   9.427  0.1208 -0.0677  0.3683
  604W        W 4804   7.496   6.062   9.715 -0.1348 -0.2513  0.0519
  605W        W 4805   7.349   8.778  10.167 -0.0720 -0.1923 -0.0779
  606W        W 4806   6.363   0.445   0.921  0.3446  0.0890 -0.1730
  607W        W 4807   5.204   2.131   3.397  0.0250 -0.0127  0.3487
  608W        W 4808   5.636   0.711  12.464  0.0063 -0.1508  0.1461
  609W        W 4809   7.096   2.652  12.727 -0.1138 -0.1052 -0.2624
  610W        W 4810   2.751   1.204  11.692 -0.1767  0.1228 -0.2614
  611W        W 4811   6.475   4.271  12.052 -0.1145 -0.0697  0.0948
  612W        W 4812   7.675   7.586  11.571 -0.0552 -0.0409  0.0846
  613W        W 4813   0.852   3.905   9.809 -0.0553 -0.1622 -0.1427
  614W        W 4814   3.776   2.281  11.022 -0.1231 -0.3321  0.0739
  615W        W 4815   8.858   7.089   9.895 -0.0929 -0.0876 -0.3724
  616W        W 4816   3.401   1.833   1.376 -0.3243 -0.0955 -0.1321
  617W        W 4817   6.990   9.349   2.011 -0.0146  0.1989 -0.2758
  618W        W 4818   9.251   3.920  11.294 -0.0831  0.1608  0.0932
  619W        W 4819   0.571   1.854  10.636 -0.0668 -0.1537  0.0549
  620W        W 4820   7.568   8.351   4.884 -0.0529 -0.3057 -0.1480
  621W        W 4821   2.985   6.710   3.421 -0.0476 -0.0201  0.1795
  622W        W 4822  10.033   0.533   2.680  0.1508 -0.1654 -0.2539
  623W        W 4823   4.006   5.109   3.031  0.1455 -0.0596  0.3201
  624W        W 4824   9.165   2.785  12.922  0.0830  0.0755 -0.0120
  625W        W 4825   8.126   6.979  11.023  0.0468  0.0177 -0.0794
  626W        W 4826   3.814   8.244   3.893  0.2969  0.2076  0.3034
  627W        W 4827   3.777   4.136   4.023 -0.1372 -0.2153 -0.0569
  628W        W 4828   2.467   7.043   0.912 -0.0426 -0.0961 -0.1509
  629W        W 4829   2.016   7.004  11.900  0.0450  0.2835  0.1519
  630W        W 4830   5.901   3.206   1.998 -0.0683 -0.0870 -0.4028
  631W        W 4831   2.806   9.275  11.858 -0.1580 -0.0380  0.2787
  632W        W 4832   2.531   6.223  10.433 -0.2543  0.2771  0.0984
  633W        W 4833   7.234   6.123  11.234 -0.2787  0.1947  0.1947
  634W        W 4834   1.140   7.375  11.215 -0.1824 -0.0682  0.1652
  635W        W 4835   4.075   2.860   1.461 -0.3592  0.2219 -0.2012
  636W        W 4836   1.488   9.555  11.176 -0.1120 -0.1030  0.2044
  637W        W 4837   1.767   0.862  11.686  0.1423 -0.1410 -0.0299
  638W        W 4838   7.712   6.994   0.334 -0.0466 -0.0081 -0.1938
  639W        W 4839   3.595   6.859  12.599  0.2497  0.0253  0.2487
  640W        W 4840   9.051   4.123   1.154 -0.1357 -0.0287  0.1062
  641W        W 4841   7.675   3.666   3.585 -0.1773  0.2225  0.2060
  642W        W 4842   5.560   9.033   4.760  0.1301  0.2082 -0.0635
  643W        W 4843   3.061   9.362  13.004  0.1011 -0.2743  0.2526
  644W        W 4844   4.511   3.287  12.810  0.0828 -0.3368 -0.3137
  645W        W 4845   0.863   3.408   9.949 -0.2553  0.2756  0.3590
  646W        W 4846  10.101   9.736   1.883  0.1269  0.1046  0.0376
  647W        W 4847   6.174   7.148   1.506 -0.0754  0.0753  0.2875
  648W        W 4848   0.335   3.295  13.272 -0.4312  0.0847  0.0267
  649W        W 4849   3.949   6.144   4.363  0.1864  0.0290 -0.1061
  650W        W 4850   2.585   8.580   0.779  0.2420  0.1818 -0.0416
  651W        W 4851   5.914   4.514   4.877 -0.1912  0.0561 -0.1138
  652W        W 4852   2.297   4.507   3.507 -0.4213 -0.2436  0.3561
  653W        W 4853   3.089   2.898  10.176 -0.1472  0.1434  0.2835
  654W        W 4854   7.815   3.286   4.804 -0.1194  0.1394 -0.1886
  655W        W 4855  10.425   8.234  12.044  0.0988 -0.3655 -0.1117
  656W        W 4856   5.466   5.916   2.132  0.0084  0.1146 -0.1207
  657W        W 4857   7.208   1.372   9.979  0.0798  0.1311  0.3163
  658W        W 4858   6.549   2.685   2.582 -0.1063 -0.0147 -0.1572
  659W        W 4859   7.681   7.202  11.247 -0.1631  0.0689 -0.0508
  660W        W 4860   5.668   8.228  11.732 -0.2068 -0.0269 -0.0186
  661W        W 4861   1.494   8.225   0.302  0.1486  0.0320  0.1948
  662W        W 4862   3.149   2.694  11.795  0.0105  0.0616  0.0888
  663W        W 4863   5.477   1.432  11.902 -0.2513  0.1716 -0.1855
  664W        W 4864   0.313   0.412  12.321  0.1264  0.3072  0.3205
  665W        W 4865   7.195   4.927   0.077  0.2959 -0.2585 -0.0039
  666W        W 4866   5.898   5.148   1.642  0.0429 -0.0086 -0.0358
  667W        W 4867   1.385   6.111  10.327 -0.0364 -0.0864 -0.0385
  668W        W 4868   0.946   0.848   1.890 -0.1704  0.0167 -0.0289
  669W        W 4869   8.884   1.814   0.682  0.0867 -0.2127 -0.1080
  670W        W 4870   6.311   3.958   0.524 -0.2794  0.1986 -0.0293
  671W        W 4871   5.436   4.359  11.986 -0.3059  0.0912 -0.0112
  672W        W 4872   2.980   2.837  12.373 -0.0881 -0.2218  0.1158
  673W        W 4873   1.973   7.121   1.944  0.2305 -0.2022 -0.2269
  674W        W 4874   7.454   4.705  10.176  0.1881  0.2643  0.0624
  675W        W 4875   1.982   8.008   4.280 -0.0565 -0.1054  0.0122
  676W        W 4876   4.612   8.874   2.624  0.0401  0.1780  0.3160
  677W        W 4877   7.176   4.756  12.660 -0.1965 -0.4729  0.1421
  678W        W 4878   4.623   5.947   2.637 -0.0940  0.0426 -0.1611
  679W        W 4879   9.616   3.899   9.981 -0.1323  0.1796 -0.2850
  680W        W 4880   5.652   4.817   8.683 -0.0304  0.1708 -0.2380
  681W        W 4881   7.737   9.195  10.060  0.0459  0.0720 -0.1139
  682W        W 4882   0.921   4.433   9.887  0.2093 -0.2530  0.0821
  683W        W 4883   3.241   4.202   3.870  0.1550  0.4541  0.0630
  684W        W 4884   4.595   7.798  13.181 -0.0760  0.2566  0.1512
  685W        W 4885   7.536   3.770   3.101 -0.0662 -0.2268  0.1563
  686W        W 4886   5.391  10.043   1.252  0.0109 -0.2908 -0.0395
  687W        W 4887   4.288   4.549   0.718 -0.0124  0.2520  0.0815
  688W        W 4888   3.494   7.758   0.230  0.1542 -0.1145  0.2574
  689W        W 4889   2.110   2.152   2.292  0.2665  0.0505  0.1167
  690W        W 4890   6.493   9.985  13.074 -0.3097 -0.2226 -0.0463
  691W        W 4891   8.311   5.265  12.803 -0.2435  0.0243 -0.0609
  692W        W 4892   7.903   9.547   1.534 -0.0987  0.4926 -0.0269
  693W        W 4893   0.399   7.718  12.525  0.1565  0.2765 -0.1509
  694W        W 4894   0.008   7.829  10.295  0.1099  0.0227 -0.1609
  695W        W 4895   5.838   4.179   0.440 -0.1535 -0.1343 -0.2723
  696W        W 4896   1.399   9.744   3.151  0.0471 -0.0148 -0.0357
  697W        W 4897   6.136   8.034  11.997 -0.0689 -0.1576  0.2780
  698W        W 4898   8.660   9.346  10.178 -0.0921 -0.1527 -0.1174
  699W        W 4899   2.777   5.071   1.028 -0.0393  0.2622  0.2338
  700W        W 4900   2.082   6.007   0.023  0.0197 -0.3990 -0.2584
  701W        W 4901   7.005   3.823  10.962 -0.0585 -0.1388  0.0027
  702W        W 4902   1.955   3.403   3.568 -0.3430 -0.0008  0.1535
  703W        W 4903   2.035   9.685   0.867  0.0445 -0.1293  0.3340
  704W        W 4904  10.330   3.980   3.319  0.1858  0.0206  0.0949
  705W        W 4905   0.252   3.446   2.862 -0.0719 -0.1884 -0.1424
  706W        W 4906   6.402   6.866   0.171 -0.0831  0.1236  0.0014
  707W        W 4907   3.562   4.435   1.384 -0.1509  0.0921 -0.1526
  708W        W 4908   3.099   9.872   9.616 -0.3789 -0.0901  0.1649
  709W        W 4909   8.173   5.018  13.368  0.0233 -0.1647  0.0142
  710W        W 4910   3.555   1.174   9.660 -0.1180  0.0550 -0.0079
  711W        W 4911   0.112   2.495   1.469 -0.1083  0.0234 -0.1110
  712W        W 4912   2.076   9.292   2.088 -0.0040  0.1261 -0.0504
  713W        W 4913   9.373   0.987   0.347  0.1992  0.1848 -0.1615
  714W        W 4914   2.027   7.850  11.291 -0.1620 -0.1157 -0.3072
  715W        W 4915   8.665   1.778   1.105 -0.0415  0.1540 -0.5328
  716W        W 4916   7.576   2.601   4.004  0.3085 -0.2083 -0.2174
  717W        W 4917   3.819   9.644   2.012  0.1347  0.1100  0.0284
  718W        W 4918   6.201   7.502   1.976 -0.0488  0.1548  0.1234
  719W        W 4919   7.053   4.543   8.548 -0.0362 -0.1975  0.2105
  720W        W 4920   3.507   7.997  10.642  0.3610  0.0002  0.0178
  721W        W 4921   8.938  10.417   9.834 -0.4063 -0.3662 -0.1440
  722W        W 4922   6.288   4.777  10.785 -0.0312 -0.0360 -0.0599
  723W        W 4923   7.693   0.201   0.735 -0.0972  0.0999  0.2935
  724W        W 4924   7.864   9.205   8.935  0.0647  0.1790 -0.1365
  725W        W 4925   0.119   7.881   9.493 -0.1508  0.1844  0.0118
  726W        W 4926   4.466   0.517   2.374  0.1381  0.1400 -0.2601
  727W        W 4927   4.085   6.788  12.713  0.2459  0.1706 -0.0317
  728W        W 4928   1.966   7.368  13.198  0.0526  0.0507  0.1945
  729W        W 4929   3.415   4.114   1.063  0.0357 -0.0797  0.1423
  730W        W 4930   8.985   2.620   1.008 -0.0325 -0.0780 -0.2153
  731W        W 4931   3.679   4.375  10.005  0.0111  0.1521 -0.2264
  732W        W 4932   0.582   5.987  11.784 -0.1179  0.0805  0.2254
  733W        W 4933   7.948  10.031   9.279 -0.0532  0.1069  0.4189
  734W        W 4934   7.949   2.122   0.355  0.0600  0.3558  0.1720
  735W        W 4935   8.227   8.346   5.116  0.1379 -0.3157  0.3068
  736W        W 4936   4.753   1.284  10.697 -0.0999 -0.1257 -0.0496
  737W        W 4937   2.771   4.393  10.626 -0.4161 -0.0128 -0.2220
  738W        W 4938   3.770   3.678   4.017  0.1273  0.0632  0.2850
  739W        W 4939   2.143   3.549   0.599  0.2065 -0.2187  0.2248
  740W        W 4940   4.621   6.535   9.981 -0.0133  0.0646 -0.2388
  741W        W 4941   2.540   8.717  10.299  0.0623  0.1127  0.1118
  742W        W 4942   1.271   5.195   1.945 -0.4486  0.1590 -0.0164
  743W        W 4943   3.201   2.962   1.932  0.1128 -0.0562 -0.1991
  744W        W 4944   4.523   9.508   1.465 -0.0948 -0.4529 -0.0993
  745W        W 4945   8.500   1.904  10.154 -0.3525  0.5744  0.1128
  746W        W 4946   4.336   0.642  10.608 -0.0843 -0.3635  0.0964
  747W        W 4947   6.523   2.897  10.101 -0.0097  0.0060 -0.0759
  748W        W 4948   0.411   9.509   3.347  0.0029 -0.1897  0.1809
  749W        W 4949   9.900   1.251   3.728 -0.5179 -0.2628 -0.2275
  750W        W 4950  10.208   7.312   1.218 -0.4889  0.1525  0.0364
  751W        W 4951   4.316   7.312   9.743  0.1611 -0.2943 -0.0164
  752W        W 4952   7.327   1.064   3.061  0.0543 -0.0962 -0.0903
  753W        W 4953   1.733   9.381  12.542  0.0895  0.1973 -0.0972
  754W        W 4954   1.783   0.860   2.944  0.2911 -0.1134  0.2680
  755W        W 4955   8.027   0.558  10.066 -0.2356 -0.0607  0.3457
  756W        W 4956   8.813   0.478   1.181 -0.2634 -0.0747  0.0412
  757W        W 4957   4.818   6.854  10.998  0.1946  0.0145  0.2621
  758W        W 4958   4.199   1.674  11.584 -0.2067 -0.0890 -0.0700
  759W        W 4959   7.252   3.354   9.675 -0.0543  0.0191 -0.1407
  760W        W 4960   2.923   7.901   0.936  0.2151 -0.1610 -0.2065
  761W        W 4961   7.497   1.949  13.150 -0.0015 -0.3439  0.1101
  762W        W 4962   8.123   7.161   3.664 -0.3942 -0.3356  0.3675
  763W        W 4963   6.676   9.570   2.737  0.1350 -0.0338  0.0769
  764W        W 4964   9.134   5.520   1.042  0.0117  0.3076  0.1970
  765W        W 4965   1.248   6.480   3.729 -0.2412  0.0662 -0.0553
  766W        W 4966   6.174   7.197  11.896  0.4001 -0.1129 -0.1415
  767W        W 4967   1.670   2.678   9.798 -0.0132 -0.2164 -0.0386
  768W        W 4968   1.605   0.855  13.254  0.2356  0.0623  0.0563
  769W        W 4969   3.956   7.462   8.628  0.0267  0.0755 -0.1723
  770W        W 4970   1.177   5.918   0.297  0.0043  0.3458 -0.1206
  771W        W 4971   1.777   0.072   0.935 -0.0497 -0.1948  0.1422
  772W        W 4972   1.310   6.596  13.091  0.2724 -0.1514 -0.0560
  773W        W 4973   2.520   5.576  10.838  0.0779  0.3353 -0.1771
  774W        W 4974   6.121   2.446   3.418 -0.2559  0.1584 -0.2968
  775W        W 4975   4.699   1.287  11.375  0.0040 -0.1756 -0.0002
  776W        W 4976   1.109   7.016  11.692 -0.0825 -0.0054 -0.0203
  777W        W 4977   8.238   6.474   4.446 -0.0821  0.0644  0.3836
  778W        W 4978   5.888   7.152   3.794 -0.0391  0.1612 -0.0521
  779W        W 4979   3.828   8.501   0.934 -0.2812 -0.0029 -0.2358
  780W        W 4980   7.558   5.558   5.072  0.0281  0.0607 -0.2396
  781W        W 4981   8.796   2.710   5.297 -0.1299  0.0392 -0.1328
  782W        W 4982   3.312   4.015   0.534 -0.1274 -0.0114  0.0210
  783W        W 4983   3.895   7.285  12.761 -0.0069 -0.3003 -0.1844
  784W        W 4984   6.936   4.246  11.349  0.2172  0.2469 -0.1930
  785W        W 4985   0.201   8.850   0.605  0.0588 -0.1607 -0.1254
  786W        W 4986   7.263   7.355   4.233 -0.0821 -0.0064  0.0032
  787W        W 4987   1.275   3.114   1.338  0.1576 -0.2700 -0.1535
  788W        W 4988   4.730   2.164   3.889 -0.3463  0.1809  0.1843
  789W        W 4989   6.318   0.038   9.189  0.0092 -0.1724  0.0317
  790W        W 4990   7.991   4.750   4.678  0.3959  0.1566  0.0384
  791W        W 4991  10.372   7.296  10.286  0.0743 -0.1933  0.2310
  792W        W 4992   2.398   7.358  11.885 -0.0151  0.1617 -0.0615
  793W        W 4993   7.094   5.072   2.468 -0.1250  0.0912 -0.1474
  794W        W 4994   6.351   7.993  11.467 -0.0928 -0.0523 -0.2894
  795W        W 4995   5.366   3.075  10.612  0.0112  0.1150 -0.2753
  796W        W 4996   4.679   6.823   9.222  0.3369  0.1999  0.2209
  797W        W 4997   8.396   1.670  13.374 -0.1066  0.0253 -0.0272
  798W        W 4998   7.176   2.340   9.213  0.3570  0.0354 -0.2824
  799W        W 4999   0.844   8.765  12.720  0.3973  0.1517 -0.2239
  800W        W 5000   1.913  10.418   1.484 -0.0686  0.0344 -0.0222
  801W        W 5001   6.922   7.751   2.396  0.0988  0.0672 -0.1686
  802W        W 5002   4.256   4.454  13.414 -0.0950  0.2166  0.3907
  803W        W 5003   2.459   3.783   1.978 -0.0694  0.1793  0.3239
  804W        W 5004   2.744   1.649  12.646  0.1239 -0.1145  0.0885
  805W        W 5005   9.224   0.819  12.706  0.1592  0.3937  0.1268
  806W        W 5006   1.272   8.573   4.005 -0.0175  0.2733  0.1247
  807W        W 5007   2.648   1.544   0.067 -0.2263 -0.0286 -0.1096
  808W        W 5008   1.180   4.510   2.984  0.0372 -0.0589 -0.1137
  809W        W 5009  10.062   4.445   1.340  0.2511 -0.3424  0.2645
  810W        W 5010   8.805   1.888   4.555  0.0359  0.2429 -0.3250
  811W        W 5011   8.868   0.458   1.722 -0.0284 -0.0529  0.3423
  812W        W 5012   2.785   4.241   4.950 -0.1153  0.3431 -0.0463
  813W        W 5013   3.149  10.213   3.075 -0.1953 -0.1074 -0.2405
  814W        W 5014   3.394   8.175  12.309 -0.1596 -0.0209  0.0069
  815W        W 5015   3.112   7.497   2.323 -0.0456 -0.1452  0.0286
  816W        W 5016   5.149   5.713   1.827  0.0213 -0.2501 -0.1952
  817W        W 5017   4.654   4.773  12.432 -0.2028  0.0949  0.2422
  818W        W 5018   3.668   5.094  10.954  0.1874  0.1502  0.0306
  819W        W 5019   4.914   9.493   2.094  0.0930 -0.0502 -0.0402
  820W        W 5020   5.088   4.947  11.149  0.0707  0.0765  0.1328
  821W        W 5021   9.955   4.361   3.127 -0.2235  0.1200  0.2094
  822W        W 5022   8.358   2.793   0.196  0.1177 -0.0054 -0.3392
  823W        W 5023   9.318   1.321  13.415  0.3008 -0.2454 -0.1761
  824W        W 5024   9.367   0.710   4.488 -0.1281 -0.0662 -0.3484
  825W        W 5025   0.467   8.916  13.297  0.0600  0.4277 -0.1192
  826W        W 5026  10.252   9.317  11.183 -0.0331 -0.1671  0.2976
  827W        W 5027   5.955   7.676  11.711 -0.0346  0.1788 -0.1133
  828W        W 5028   8.220   3.466  12.551 -0.3200 -0.0239 -0.2531
  829W        W 5029  10.029   7.529  12.187  0.1576 -0.1412 -0.2725
  830W        W 5030   1.768   1.290   2.413  0.3596  0.0391  0.2817
  831W        W 5031   7.090   7.486   1.620 -0.2900  0.0203 -0.1366
  832W        W 5032   4.668   7.777   1.935  0.1486 -0.0333  0.0284
  833W        W 5033   5.694   7.037   0.839  0.2254 -0.1332 -0.0594
  834W        W 5034   2.277   0.789   1.600  0.2657  0.1205  0.0327
  835W        W 5035   8.182   9.737  13.151  0.1976 -0.2287  0.1594
  836W        W 5036   3.476   1.362   0.800 -0.0294  0.1164 -0.2904
  837W        W 5037   9.679   0.082  10.913 -0.1929  0.1086 -0.4185
  838W        W 5038   1.239   4.810   4.391 -0.2222 -0.0495 -0.1280
  839W        W 5039   1.088   2.572  13.352  0.2833  0.0825 -0.0299
  840W        W 5040   0.045   7.927   2.439 -0.3013  0.0996  0.0800
  841W        W 5041   2.842   9.717   9.195 -0.2182 -0.2811  0.4082
  842W        W 5042   6.706   9.894   9.786 -0.2893 -0.1892  0.0121
  843W        W 5043  10.010   6.441  13.318  0.1449 -0.1240  0.1313
  844W        W 5044   9.504   4.365  12.006 -0.0367  0.0269  0.0329
  845W        W 5045   4.376   2.918  13.014 -0.0680  0.0036 -0.3328
  846W        W 5046   3.719   6.973  13.107 -0.1693  0.0811  0.1277
  847W        W 5047   4.310   8.688   1.762  0.1403  0.1788 -0.0605
  848W        W 5048   3.875   3.188   3.900 -0.1166  0.1135 -0.1375
  849W        W 5049   5.248   8.278  12.706 -0.1849  0.0397 -0.0549
  850W        W 5050   9.895   6.410  12.833 -0.3369 -0.2702  0.4163
  851W        W 5051   4.718   2.525   3.612  0.1738 -0.0826 -0.1466
  852W        W 5052  10.273  10.332   0.831 -0.0138  0.1420 -0.0396
  853W        W 5053   9.384   3.283  10.700 -0.0387  0.0506  0.2922
  854W        W 5054   9.072   3.211   4.047 -0.0652  0.0789  0.0965
  855W        W 5055   5.536   6.541   9.467 -0.2144 -0.0748  0.1296
  856W        W 5056   3.435   3.818   3.056 -0.0944 -0.0509 -0.0776
  857W        W 5057   1.539   1.356  13.473  0.2409  0.0719 -0.0338
  858W        W 5058   7.437   7.663  10.537 -0.1967 -0.2145  0.1041
  859W        W 5059   3.425   3.656   0.896  0.5377 -0.1558 -0.0988
  860W        W 5060   0.076   0.019   1.665 -0.0231 -0.2165 -0.0088
  861W        W 5061   8.532   5.364  13.263  0.2009 -0.0987 -0.2109
  862W        W 5062   3.850   3.261   9.079 -0.1131  0.2268 -0.2540
  863W        W 5063   6.755   6.426   0.385 -0.1789  0.4765 -0.0760
  864W        W 5064   6.030   3.333  13.343 -0.1872  0.0557 -0.2238
  865W        W 5065   3.326   9.989   0.687  0.1358  0.2181 -0.1581
  866W        W 5066   2.254  10.048   0.609  0.1838 -0.1252  0.1333
  867W        W 5067   9.065   2.121   1.150 -0.1046  0.0846  0.1657
  868W        W 5068   7.549   9.955   1.353 -0.1620  0.2397 -0.1416
  869W        W 5069   5.840   2.766   5.165 -0.0058  0.1120  0.2689
  870W        W 5070   4.054   4.605  10.289 -0.2369 -0.2273  0.1089
  871W        W 5071   6.298   4.103   9.769  0.1441  0.1217 -0.0100
  872W        W 5072   5.944   1.715   8.881  0.1246 -0.1214  0.0012
  873W        W 5073   4.993   6.000  10.122 -0.0339 -0.0460  0.0084
  874W        W 5074   0.218   8.365   0.410 -0.1224  0.2701 -0.1114
  875W        W 5075   6.556   6.660  10.340 -0.0707 -0.3518  0.0432
  876W        W 5076   3.108   1.608  12.296 -0.2568  0.3094  0.2730
  877W        W 5077   1.092   5.335   0.045  0.0698  0.2761  0.0489
  878W        W 5078   2.780  10.235  11.960  0.0355 -0.0778  0.2672
  879W        W 5079   9.251   5.821  12.763 -0.0995  0.1084  0.3054
  880W        W 5080   2.958   7.389   3.068  0.0649  0.2041  0.0327
  881W        W 5081   9.449   0.766   9.514  0.1107  0.1317 -0.2599
  882W        W 5082   6.450   0.534  11.832 -0.1240 -0.3642  0.2922
  883W        W 5083   0.638   2.069  13.405 -0.0222 -0.0178  0.2075
  884W        W 5084   7.050   4.427   0.230  0.1676  0.1704 -0.2691
  885W        W 5085   7.788   7.336   2.828  0.0321 -0.2261  0.0050
  886W        W 5086   4.194   9.793   2.813  0.1158 -0.2140 -0.1151
  887W        W 5087   1.042   2.317   9.905  0.0548 -0.0104  0.2373
  888W        W 5088   5.001   5.526   4.386  0.3041  0.2014 -0.4636
  889W        W 5089   6.747   7.445   9.351 -0.2697  0.3084 -0.1660
  890W        W 5090   8.722   4.331  12.631  0.2472  0.1618 -0.2062
  891W        W 5091   7.367  10.226  11.917 -0.1156  0.0065 -0.0057
  892W        W 5092   8.828   8.809  12.697 -0.2843  0.0072  0.0938
  893W        W 5093   0.953   4.748   2.315 -0.0174 -0.1850  0.0624
  894W        W 5094   8.817   4.895  10.117  0.0368 -0.1010 -0.0252
  895W        W 5095   3.844   4.139  10.540 -0.2447  0.0966  0.1898
  896W        W 5096   6.407   6.070   2.627 -0.2059 -0.0779  0.1340
  897W        W 5097   6.554   7.970  10.132 -0.0957  0.0085 -0.0369
  898W        W 5098   7.551   7.375   0.805 -0.2098  0.1167  0.0807
  899W        W 5099   9.926   7.116   2.579  0.1004 -0.1960 -0.0739
  900W        W 5100   9.926   9.936   9.234  0.3179  0.0192  0.2378
  901W        W 5101   9.748   1.785   1.704 -0.2516  0.1166  0.0139
  902W        W 5102   5.688   2.538   2.860 -0.0232 -0.4374  0.1023
  903W        W 5103   8.419   0.724   2.102  0.3352  0.0922  0.1914
  904W        W 5104   4.677   0.803   0.657  0.1569 -0.1165  0.0391
  905W        W 5105   1.490   2.624   9.306 -0.1885  0.0553 -0.0106
  906W        W 5106   3.817   2.103   2.720 -0.2060  0.2172 -0.0908
  907W        W 5107   0.086   8.783  11.939 -0.0800  0.6732 -0.0764
  908W        W 5108   8.729   7.447   1.235 -0.1079  0.1299  0.4230
  909W        W 5109   6.742  10.081   1.723 -0.1729  0.2160 -0.0562
  910W        W 5110   0.051   2.185   9.607 -0.1296  0.1960  0.1409
  911W        W 5111   7.438   8.980   3.501  0.0428 -0.0514  0.3793
  912W        W 5112   5.535   3.695   9.342  0.1715 -0.1552  0.0634
  913W        W 5113   5.058   9.661  12.824 -0.0174 -0.0887 -0.1332
  914W        W 5114   5.211   4.618  11.617 -0.0721  0.4124  0.0061
  915W        W 5115   2.606   2.693   3.625 -0.1619  0.2430  0.3989
  916W        W 5116   1.159   3.404   1.700 -0.1471  0.0026 -0.0702
  917W        W 5117   4.919   3.523  11.427 -0.0443  0.4082  0.1269
  918W        W 5118   3.109   8.498   0.172  0.1230  0.1149  0.2013
  919W        W 5119   9.897   1.945   1.193 -0.0861  0.0167  0.2098
  920W        W 5120   3.325   1.575  12.769  0.0519 -0.2208  0.0106
  921W        W 5121  10.037   3.307   3.834  0.3515  0.0601 -0.0691
  922W        W 5122   6.824   1.311   3.831  0.1974  0.0332 -0.1156
  923W        W 5123   5.129   3.252   3.052  0.1126 -0.1290 -0.0493
  924W        W 5124   7.645   8.428   4.156  0.2723 -0.1496 -0.0133
  925W        W 5125   6.618   5.697   3.966  0.1464 -0.1786  0.0793
  926W        W 5126   6.372   1.094   1.634 -0.0108  0.0665 -0.1102
  927W        W 5127   5.288   8.165   2.587  0.1678  0.0944  0.0929
  928W        W 5128   4.004   2.815  11.026 -0.0666 -0.0390  0.0308
  929W        W 5129   3.255   7.823   1.963 -0.1622 -0.2670 -0.0351
  930W        W 5130   0.888   5.846  12.770 -0.3527 -0.0745 -0.1151
  931W        W 5131  10.245   1.225   4.622 -0.1412  0.2920  0.1274
  932W        W 5132   7.770   4.343   0.436 -0.1618  0.0761  0.2445
  933W        W 5133   7.012   1.853   2.333  0.0984  0.0803 -0.3392
  934W        W 5134   6.220   6.412   8.675  0.1475  0.0248 -0.4033
  935W        W 5135   1.748   0.302  13.107 -0.2651 -0.3592  0.0300
  936W        W 5136   8.992   3.147  10.448  0.1344 -0.4100 -0.0123
  937W        W 5137   7.133  10.394   0.307  0.1236 -0.1149  0.0277
  938W        W 5138   2.353   0.384  10.802 -0.1496  0.1418  0.2994
  939W        W 5139   8.645   6.400   3.681 -0.0778 -0.1139  0.4163
  940W        W 5140   0.849  10.272   1.053  0.0843 -0.0382 -0.3389
  941W        W 5141   3.227   6.877   0.966  0.0079  0.0925  0.2332
  942W        W 5142   4.102   9.264   0.567 -0.1506 -0.0110 -0.2530
  943W        W 5143   4.799   9.115   1.769 -0.1777 -0.4038  0.2700
  944W        W 5144   7.037   8.698  11.847 -0.1255  0.0764 -0.2107
  945W        W 5145   8.793   5.842   4.536  0.3215 -0.1574  0.1874
  946W        W 5146   3.585   0.486  11.086 -0.1213 -0.1776  0.0443
  947W        W 5147   6.987   8.673  12.656 -0.0432 -0.1280 -0.1418
  948W        W 5148   5.611   5.590   9.326  0.2530 -0.0716 -0.1015
  949W        W 5149   7.420   8.293  11.082  0.0153 -0.0128 -0.0011
  950W        W 5150   7.199   3.062   1.709  0.1610  0.0072  0.0286
  951W        W 5151   5.153   3.881  12.533  0.1523  0.0727  0.0863
  952W        W 5152   6.963   1.368   2.927 -0.2208  0.0015  0.2647
  953W        W 5153   3.354   8.401   1.103 -0.2019  0.0408  0.1003
  954W        W 5154   5.646   3.103  12.358  0.0408 -0.0982  0.2801
  955W        W 5155   6.162   2.315   9.601  0.0934  0.1456 -0.1387
  956W        W 5156   7.113   2.644  10.129  0.1564 -0.3946 -0.3122
  957W        W 5157   2.179   3.509   4.036  0.0027 -0.2577  0.2467
  958W        W 5158   9.182   8.752  10.640 -0.3123 -0.1203  0.3057
  959W        W 5159   7.024   4.919   9.078 -0.1228  0.0787 -0.3025
  960W        W 5160   5.599   6.229   2.483  0.1753  0.0640 -0.0568
  961W        W 5161   0.641   9.473   2.809  0.0325 -0.0946 -0.2359
  962W        W 5162   4.122   9.697  10.641 -0.1990 -0.0808 -0.0753
  963W        W 5163   6.015   4.758   9.009 -0.1664  0.0025 -0.1200
  964W        W 5164   3.726  10.005  13.107  0.3086 -0.0517  0.4978
  965W        W 5165   7.813   2.171   2.235  0.1500  0.1237  0.0445
  966W        W 5166   1.412   0.294   1.366  0.0851  0.1329  0.1082
  967W        W 5167   1.469   4.961  13.304 -0.2485 -0.0117  0.1968
  968W        W 5168   8.832   7.118   4.214 -0.0318 -0.1726 -0.1672
  969W        W 5169   6.626   4.358  10.113 -0.0843 -0.4315 -0.3908
  970W        W 5170   8.676   0.237   3.450 -0.0293 -0.3356 -0.0182
  971W        W 5171   1.098   8.101   1.595 -0.2018 -0.2023 -0.0229
  972W        W 5172   3.844   2.576   1.074  0.0516 -0.3726 -0.2602
  973W        W 5173   5.910   4.815   1.233 -0.1074 -0.1707 -0.4495
  974W        W 5174   2.205   1.108   2.249 -0.0012 -0.0299  0.1419
  975W        W 5175   7.082   0.447   0.561  0.1929  0.0976 -0.0324
  976W        W 5176   1.896   2.606  10.453 -0.0250 -0.2035 -0.3033
  977W        W 5177   7.291   7.851   9.052 -0.2858 -0.1003  0.1537
  978W        W 5178   8.023   0.343   4.672  0.0820  0.0450  0.2288
  979W        W 5179   9.714   0.618  10.837 -0.1753 -0.1714 -0.1938
  980W        W 5180   4.514   8.953   4.815 -0.0960  0.2114 -0.3229
  981W        W 5181   7.094   4.069  10.393 -0.1997  0.2857 -0.1581
  982W        W 5182   6.276   6.876   3.472  0.3725 -0.1132 -0.0261
  983W        W 5183   3.863   3.326   8.505 -0.2436 -0.1482 -0.1511
  984W        W 5184  10.294   9.403   3.270 -0.1064 -0.1003 -0.0650
  985W        W 5185   0.294   2.929  12.948 -0.0433  0.0375  0.0497
  986W        W 5186   1.861   0.575   4.116  0.0144 -0.0308  0.0811
  987W        W 5187   9.358   1.751   0.811  0.1776 -0.2894  0.1926
  988W        W 5188   2.888   3.667  13.173  0.0123  0.2754 -0.0780
  989W        W 5189   5.544   2.938  11.249  0.3411 -0.0256 -0.2151
  990W        W 5190   6.080   4.902  12.738 -0.0930 -0.1417  0.2009
  991W        W 5191   3.229   9.230  12.333  0.1761 -0.3973 -0.0915
  992W        W 5192  10.132   7.961  13.114  0.1831 -0.0508 -0.0920
  993W        W 5193   2.590   9.570   3.395 -0.5002  0.3850  0.3315
  994W        W 5194   4.657   7.665  12.393 -0.0359 -0.1890 -0.3820
  995W        W 5195   8.825   5.823  11.902  0.1114 -0.3239 -0.1495
  996W        W 5196   6.832   0.648  12.169 -0.2869  0.1750 -0.2065
  997W        W 5197  10.436   0.022   8.948  0.1932  0.1907 -0.2652
  998W        W 5198   6.981   0.086   2.035 -0.1199  0.1770 -0.3821
  999W        W 5199   7.382   5.246   1.775  0.0932 -0.0549 -0.1043
 1000W        W 5200   5.741   0.605   2.814  0.1232 -0.0078 -0.0461
 1001W        W 5201   0.287   1.974   4.750  0.0955 -0.1983  0.0127
 1002W        W 5202   0.950   1.984   3.464 -0.1031  0.1518  0.0719
 1003W        W 5203   7.425   5.098  11.225  0.3116  0.2699 -0.0557
 1004W        W 5204   4.793   5.794   3.204 -0.2133 -0.0256  0.0268
 1005W        W 5205   4.286   1.193  10.784  0.0194 -0.0817  0.1987
 1006W        W 5206   2.375   6.971   9.821 -0.3729 -0.2830 -0.0944
 1007W        W 5207   7.355   4.293   8.187 -0.1188 -0.0392 -0.1106
 1008W        W 5208   3.899   3.557   0.044 -0.1018  0.0198 -0.0170
 1009W        W 5209   6.651   7.408  12.283  0.1849 -0.2767 -0.1574
 1010W        W 5210   0.162   1.416   4.901 -0.1788  0.0036 -0.1204
 1011W        W 5211   8.280   4.799   2.829  0.1969  0.0821  0.0441
 1012W        W 5212   9.504   8.610  11.587 -0.0539  0.0338 -0.0476
 1013W        W 5213   0.049   9.578   0.232  0.0102  0.0196 -0.2471
 1014W        W 5214   6.462   4.455   0.591 -0.2330  0.0825 -0.0088
 1015W        W 5215   3.902   8.670   0.475  0.0478  0.2975 -0.0878
 1016W        W 5216   5.720   1.037  11.226 -0.3668  0.1020  0.2098
 1017W        W 5217   5.904  10.380  10.517  0.1238  0.0031 -0.0394
 1018W        W 5218   1.528   5.882  11.549  0.1173  0.0193  0.1700
 1019W        W 5219   9.539   9.837   3.891 -0.0729 -0.3507 -0.1157
 1020W        W 5220   5.905   9.186   1.051 -0.3009 -0.0930 -0.0539
 1021W        W 5221   4.267   3.637   3.176 -0.0386 -0.2252 -0.4084
 1022W        W 5222   1.587   5.688   2.103  0.1129  0.2996  0.2426
 1023W        W 5223   0.867   3.828   3.978  0.0998  0.6520  0.2174
 1024W        W 5224   7.588   3.670   1.091  0.4140  0.0074 -0.0822
 1025W        W 5225   4.275   5.428   9.958 -0.2074  0.1008  0.2365
 1026W        W 5226   5.183   3.196   3.612  0.1319  0.4952 -0.0082
 1027W        W 5227   3.078   8.924   0.498  0.0742  0.0048 -0.1025
 1028W        W 5228   1.793  10.019   2.979  0.1213 -0.1000  0.0518
 1029W        W 5229   1.447   4.402   0.597  0.0319  0.1957 -0.3963
 1030W        W 5230   0.239   7.082   1.923 -0.0918 -0.3410  0.0539
 1031W        W 5231   9.979   2.704   4.472  0.0396  0.0182 -0.0851
 1032W        W 5232   8.473   7.641   0.501  0.1382 -0.0385 -0.0170
 1033W        W 5233   9.042   9.878   4.022 -0.0866 -0.0880 -0.4945
 1034W        W 5234   3.041   6.036   1.053  0.1340 -0.2423  0.0283
 1035W        W 5235   4.440   2.699  10.294  0.1613 -0.0424  0.0460
 1036W        W 5236   0.328   8.969  12.373 -0.0752  0.2647 -0.1464
 1037W        W 5237   5.945   7.576   9.418 -0.0239 -0.0749  0.3222
 1038W        W 5238   1.374   6.229  10.811 -0.0643  0.1836 -0.3317
 1039W        W 5239   8.558   9.495  12.375 -0.3585  0.1038 -0.1412
 1040W        W 5240   6.523   9.931  11.723  0.2101  0.2101 -0.2832
 1041W        W 5241   1.281   4.117   3.226 -0.1707  0.0176  0.0268
 1042W        W 5242   5.872   7.471   4.727 -0.0643 -0.0643  0.1733
 1043W        W 5243   9.775   5.913  11.483 -0.0829  0.0010  0.3540
 1044W        W 5244   3.064   2.826   0.885 -0.1703  0.3404  0.3538
 1045W        W 5245   6.633   4.470   3.077  0.0547 -0.3648  0.3577
 1046W        W 5246   6.441   5.117   4.255  0.1135 -0.0844 -0.2272
 1047W        W 5247   5.661   0.831   0.585  0.0403  0.1062  0.2264
 1048W        W 5248   6.666   9.149   9.319 -0.1176 -0.2019 -0.2498
 1049W        W 5249   0.873   4.273  10.399 -0.0557 -0.0410 -0.0612
 1050W        W 5250   8.184   6.073   4.815  0.0514  0.5677  0.1186
 1051W        W 5251   2.499   3.168   4.243 -0.1761  0.1275  0.0267
 1052W        W 5252   2.078   0.113   9.972  0.0746 -0.1008  0.1430
 1053W        W 5253   5.373   3.228   2.437 -0.0238 -0.0987  0.0434
 1054W        W 5254   8.647   5.318  10.331  0.2387 -0.0068 -0.0461
 1055W        W 5255   3.175  10.355  11.631  0.0804 -0.0352 -0.1827
 1056W        W 5256   4.722   4.022  10.110 -0.0944 -0.4959 -0.2766
 1057W        W 5257   7.556   6.317  10.311  0.0415  0.2036  0.1057
 1058W        W 5258   9.306   8.630  12.588 -0.1707 -0.2109  0.1178
 1059W        W 5259   1.964  10.251   0.236 -0.5541  0.1050 -0.1768
 1060W        W 5260   3.533   4.978   0.963  0.1156 -0.1444 -0.0782
 1061W        W 5261   4.665   8.584   9.173 -0.0234  0.1252 -0.0831
 1062W        W 5262   3.184   9.277  11.038 -0.0281 -0.4248 -0.2289
 1063W        W 5263   3.771   5.825  12.158  0.1692  0.3393 -0.0306
 1064W        W 5264   3.871   0.834   2.792 -0.0639  0.0496  0.0320
 1065W        W 5265   8.632   2.217   0.885  0.2354  0.2960  0.0088
 1066W        W 5266   2.486   6.131  12.946  0.1139 -0.1959 -0.1757
 1067W        W 5267   5.013   0.083  13.347  0.0330 -0.2210 -0.1318
 1068W        W 5268   1.972   0.444  11.634 -0.0780 -0.3145 -0.0257
 1069W        W 5269   4.643   3.045  11.179  0.1037  0.0527 -0.0815
 1070W        W 5270   9.064   0.843   2.133 -0.1343 -0.1198  0.2115
 1071W        W 5271   9.761   3.244  13.299 -0.0388  0.1640  0.0074
 1072W        W 5272   1.406   2.665   3.700 -0.3433 -0.0187  0.2039
 1073W        W 5273  10.103   8.456  10.609 -0.3347 -0.1615  0.0731
 1074W        W 5274   7.390   9.786   5.344  0.1847 -0.2164 -0.1024
 1075W        W 5275   2.908   3.757   0.718 -0.0676  0.1277 -0.1867
 1076W        W 5276   5.160   5.233   1.241  0.1927  0.0965  0.2996
 1077W        W 5277   4.920   9.426   1.098  0.4398  0.3954 -0.1750
 1078W        W 5278   3.899   0.477  12.455  0.1559 -0.0293  0.1475
 1079W        W 5279   7.512   5.716   3.487 -0.1130  0.2092  0.1305
 1080W        W 5280   1.917   5.430   3.349 -0.0313 -0.4020  0.3506
 1081W        W 5281   4.587   9.526  10.801  0.4095  0.0666 -0.0141
 1082W        W 5282   3.127   1.675   0.954  0.0285  0.0326 -0.0182
 1083W        W 5283   3.659   5.395   2.624  0.0785 -0.2599  0.0999
 1084W        W 5284   3.224   0.117  10.652  0.2367  0.3192 -0.0512
 1085W        W 5285   9.783   9.211  13.144 -0.0782  0.0981  0.1509
 1086W        W 5286   2.730   1.463  10.737  0.2608  0.0126 -0.0601
 1087W        W 5287   2.957   2.933   4.582 -0.0294 -0.0253 -0.1473
 1088W        W 5288   5.580   9.896  12.900  0.1535 -0.3076  0.1580
 1089W        W 5289   5.611   3.452   1.682  0.0464  0.1332  0.0939
 1090W        W 5290   9.888   4.552  12.997  0.2893  0.2176  0.0938
 1091W        W 5291   4.311   0.783   9.397 -0.1638  0.1005  0.0087
 1092W        W 5292   4.676   8.103   4.056  0.3387 -0.2832 -0.0039
 1093W        W 5293   9.534  10.392  10.327  0.0197  0.0375  0.0081
 1094W        W 5294   7.646   7.898   0.717 -0.0202  0.0165 -0.1595
 1095W        W 5295   7.944  10.411   1.828  0.1342 -0.0191  0.0666
 1096W        W 5296   4.967   9.494  11.157 -0.2093  0.0914 -0.2137
 1097W        W 5297   9.266   7.523   1.055  0.3667  0.0177 -0.0291
 1098W        W 5298   1.407   8.761   3.556 -0.1725 -0.0554 -0.2889
 1099W        W 5299   2.228   9.417   2.580 -0.1550 -0.0810 -0.1940
 1100W        W 5300   9.415   2.280   4.073 -0.3505  0.4213 -0.0556
 1101W        W 5301  10.447   1.581   3.150  0.1713  0.2493 -0.0074
 1102W        W 5302   3.798   2.977  10.564 -0.0815  0.0585 -0.1754
 1103W        W 5303   1.702   7.431  12.087 -0.1752  0.4188  0.0867
 1104W        W 5304   6.486   9.926   3.498 -0.0175 -0.0615  0.2582
 1105W        W 5305   4.667   7.670   9.852 -0.2414  0.3476 -0.2632
 1106W        W 5306   4.497   0.329  13.190  0.2673 -0.1943  0.0439
 1107W        W 5307   2.074   3.236   2.703 -0.0814 -0.0186  0.1508
 1108W        W 5308   2.504   3.943   0.402 -0.1446 -0.1248 -0.1544
 1109W        W 5309  10.354   0.580   1.365  0.1172 -0.1959 -0.0126
 1110W        W 5310   0.258   0.305   1.257 -0.3575  0.2949 -0.1498
 1111W        W 5311   8.947   6.511  10.139  0.2254 -0.0138 -0.1314
 1112W        W 5312   7.875   2.211   3.948  0.1598  0.1481  0.3719
 1113W        W 5313   2.081   4.140  10.546 -0.0484 -0.0180  0.0981
 1114W        W 5314   5.065   2.356   2.718 -0.1638  0.0197 -0.1489
 1115W        W 5315   5.193   4.781  13.229  0.2503  0.0489 -0.2692
 1116W        W 5316   2.480   4.175   2.265 -0.0197  0.2198  0.0854
 1117W        W 5317   3.924   9.588   1.506 -0.4519 -0.5093 -0.0455
 1118W        W 5318   2.236   2.039  11.374 -0.0337  0.4688  0.1317
 1119W        W 5319   3.956   5.336   0.404  0.0743  0.3660 -0.3293
 1120W        W 5320   0.666   6.775   2.784  0.1225  0.3310  0.0284
 1121W        W 5321   1.682   7.062   1.501  0.2523 -0.0286  0.0297
 1122W        W 5322   6.689   8.331   1.476 -0.3566  0.1705  0.0309
 1123W        W 5323   4.658   8.306   1.281 -0.1116 -0.2189 -0.0588
 1124W        W 5324   5.285   1.228  10.362  0.0615 -0.0751 -0.1221
 1125W        W 5325   8.706   0.471   3.916 -0.2343  0.1677  0.1593
 1126W        W 5326   1.888   3.825   4.372  0.3532 -0.2514  0.1232
 1127W        W 5327   5.904   3.762   1.299 -0.2669  0.0369  0.0054
 1128W        W 5328   6.898   2.264  11.993 -0.0709 -0.0600 -0.0739
 1129W        W 5329   9.006   0.413  12.502  0.1432 -0.1770 -0.1562
 1130W        W 5330   1.001   6.268  12.169 -0.2207 -0.1034 -0.0197
 1131W        W 5331   2.425   1.632  10.346 -0.2759  0.1669 -0.1210
 1132W        W 5332   3.761   8.866   3.265 -0.1051  0.0164  0.0221
 1133W        W 5333   3.788   1.558   1.179  0.3333  0.1995  0.1675
 1134W        W 5334   3.261   1.750   2.738 -0.2612 -0.1569  0.1540
 1135W        W 5335   4.693   7.189  10.075  0.1443 -0.1448 -0.0850
 1136W        W 5336   2.333  10.134   1.563  0.0974 -0.1082 -0.0078
 1137W        W 5337   9.760   1.218   2.282 -0.2705  0.0742 -0.0027
 1138W        W 5338   0.474   1.378  12.621  0.2318  0.2744  0.1314
 1139W        W 5339  10.102   5.285   2.160 -0.2400 -0.3333  0.2092
 1140W        W 5340   5.285   0.333   0.729  0.1091  0.3272 -0.1737
 1141W        W 5341   1.764   4.832   2.716 -0.1001 -0.1523  0.1132
 1142W        W 5342   4.850   3.266   8.913 -0.1163 -0.0908 -0.0424
 1143W        W 5343   0.937   5.742  12.264  0.3051  0.1419 -0.1606
 1144W        W 5344   3.849  10.415  12.874 -0.3347 -0.1058  0.1620
 1145W        W 5345   0.094   4.466   2.462  0.2658 -0.1116 -0.1378
 1146W        W 5346   8.212   9.436  10.920  0.0982 -0.0452 -0.1738
 1147W        W 5347   4.829   2.732   3.042 -0.1370 -0.0141  0.1000
 1148W        W 5348   8.201   4.998   5.096 -0.1140 -0.1284  0.0333
 1149W        W 5349   3.755   9.109   9.872  0.2092 -0.0347 -0.1073
 1150W        W 5350   0.609   6.760   0.988 -0.3672 -0.0445 -0.1441
 1151W        W 5351   3.291   1.503   4.047  0.0286  0.3093 -0.0811
 1152W        W 5352   3.903   7.709   9.420 -0.1210  0.3494 -0.1034
 1153W        W 5353   4.593   1.328  12.190  0.2418  0.2421 -0.0961
 1154W        W 5354   6.560  10.442   8.338 -0.0385  0.0024 -0.1345
 1155W        W 5355  10.428   9.683   2.260 -0.0322  0.0459  0.2483
 1156W        W 5356   5.138   2.925   9.090 -0.1756 -0.2492 -0.0300
 1157W        W 5357   9.007   2.928  11.002  0.3370 -0.2193  0.2171
 1158W        W 5358   1.239   3.424   2.173 -0.1264  0.1387  0.0690
 1159W        W 5359   8.103   7.444  10.029  0.1793  0.0152  0.3140
 1160W        W 5360   4.638   3.832   3.474 -0.2628  0.3015  0.2220
 1161W        W 5361   2.599   8.439  12.432  0.1226 -0.1289  0.2429
 1162W        W 5362   6.883   5.343  11.143  0.0935 -0.0615  0.1962
 1163W        W 5363   9.295   1.251  12.856  0.0480 -0.0385 -0.0160
 1164W        W 5364   8.381   7.202  11.842 -0.0559  0.2172  0.0852
 1165W        W 5365   5.165   3.885   9.780 -0.3658 -0.3075 -0.0434
 1166W        W 5366   8.841   1.708  10.478  0.4382  0.4384  0.0929
 1167W        W 5367   7.766   3.200   3.848 -0.2038  0.0023 -0.1098
 1168W        W 5368   6.269   2.979   2.326  0.1175 -0.0704  0.2877
 1169W        W 5369   2.888   7.992  10.726 -0.4389  0.1160 -0.0241
 1170W        W 5370   4.524   8.405   3.195 -0.3896 -0.0167  0.1037
 1171W        W 5371  10.234   8.152  11.215 -0.0157  0.0864 -0.0538
 1172W        W 5372   9.703   8.702   1.066  0.1150  0.0318  0.2567
 1173W        W 5373   2.313   0.490   4.243 -0.2280  0.0040  0.1997
 1174W        W 5374   7.406   4.999   9.746 -0.0091 -0.0678  0.0354
 1175W        W 5375   8.128   7.609   2.513  0.1288 -0.1956  0.0357
 1176W        W 5376   9.494   2.386  12.445  0.0838 -0.0044 -0.1829
 1177W        W 5377   2.045   4.477  10.180  0.1249  0.0594 -0.1119
 1178W        W 5378   7.966   4.961   3.333 -0.2045 -0.0601 -0.1666
 1179W        W 5379   2.782   2.825   0.408 -0.0648 -0.3906  0.0259
 1180W        W 5380   0.128   4.491   1.571  0.1086 -0.3185  0.0897
 1181W        W 5381   4.025  10.129  10.812 -0.1087 -0.0101  0.6603
 1182W        W 5382   3.206   2.504   9.329  0.2652  0.2100  0.0956
 1183W        W 5383   9.771   3.471  10.370 -0.0937  0.1597  0.0403
 1184W        W 5384   3.556   5.057  11.557 -0.2231 -0.1243 -0.1247
 1185W        W 5385   9.156   1.563   2.478 -0.1905 -0.1509 -0.2589
 1186W        W 5386   1.489   2.941  13.477  0.2760  0.4936  0.1869
 1187W        W 5387   4.606   5.074   5.011  0.4126  0.0344 -0.0360
 1188W        W 5388   7.780   4.797   2.885  0.1366  0.4013 -0.1821
 1189W        W 5389   4.781   1.593   2.584  0.1092  0.2798 -0.1477
 1190W        W 5390   0.381   3.166  10.394  0.0901  0.2670 -0.0896
 1191W        W 5391   6.540   8.676   2.695  0.4258 -0.0971 -0.1137
 1192W        W 5392   8.301  10.318   4.081 -0.2102  0.2222 -0.2234
 1193W        W 5393   8.415   6.239   2.697  0.1287  0.0611 -0.0810
 1194W        W 5394   9.218   9.428   0.824 -0.3088 -0.2252 -0.2170
 1195W        W 5395   6.447   5.328  10.885 -0.0242  0.0056 -0.1128
 1196W        W 5396   7.188   0.290  11.294  0.4890  0.1165 -0.1601
 1197W        W 5397   1.778   6.102   0.986 -0.1198  0.0519 -0.3162
 1198W        W 5398   1.382   8.195  11.960  0.2468  0.0523  0.1690
 1199W        W 5399   2.553   6.116   1.042  0.5271  0.0977 -0.0366
 1200W        W 5400   6.845   8.899   2.316  0.2449  0.1308 -0.2430
 1201W        W 5401   8.715   9.501   0.501  0.0399  0.1058 -0.0424
 1202W        W 5402   1.065   3.384   0.074  0.1228 -0.0833  0.0220
 1203W        W 5403   0.987   4.193   2.661 -0.0029 -0.0477  0.0807
 1204W        W 5404   1.583   0.372   4.523  0.4042  0.1125  0.1193
 1205W        W 5405   8.932   3.269   9.923  0.0770 -0.2196  0.3982
 1206W        W 5406   9.275   6.633  12.089 -0.0395 -0.2186 -0.1443
 1207W        W 5407   7.469   1.929   9.630 -0.2041 -0.0496 -0.0542
 1208W        W 5408   6.771   8.765   1.276 -0.2105  0.2790 -0.1724
 1209W        W 5409   3.164   6.231   3.329 -0.1055 -0.1378 -0.0737
 1210W        W 5410   0.498   0.917   2.060  0.0359 -0.1348  0.0579
 1211W        W 5411   1.363   1.776  11.276 -0.0981 -0.0162  0.1693
 1212W        W 5412   9.422   1.646   9.846 -0.0570 -0.0442  0.1843
 1213W        W 5413   7.398   7.939   5.138  0.0224  0.1667 -0.0716
 1214W        W 5414   6.292   8.247   2.998  0.0024  0.1755  0.4295
 1215W        W 5415   2.511   2.775   4.678  0.0723 -0.1372  0.0897
 1216W        W 5416   5.368   2.104   1.884  0.1970 -0.2317 -0.2986
 1217W        W 5417   0.693   3.521   1.873  0.3783 -0.0648 -0.2800
 1218W        W 5418   0.062   6.703  10.566 -0.3973 -0.0195 -0.0488
 1219W        W 5419   9.728   4.799   1.398 -0.1816  0.0562  0.0518
 1220W        W 5420   5.997   5.201  10.992 -0.2073  0.0554  0.1120
 1221W        W 5421   5.982   0.093  13.388 -0.3748  0.0405 -0.1524
 1222W        W 5422   1.701   2.028   1.996 -0.0667  0.3419 -0.2345
 1223W        W 5423   5.934   6.872   9.569  0.1406 -0.2114 -0.0458
 1224W        W 5424   0.864   6.276  10.798 -0.0887  0.0190  0.3035
 1225W        W 5425   1.182  10.157   3.013 -0.0387  0.0206 -0.3245
 1226W        W 5426   3.995   7.675   2.224 -0.0433  0.0826  0.0275
 1227W        W 5427   4.972   6.183   3.680  0.0609  0.3267 -0.3153
 1228W        W 5428   9.410   1.002   3.695 -0.0444  0.0803  0.0727
 1229W        W 5429   5.073   5.201  12.542 -0.0114  0.0976 -0.1235
 1230W        W 5430   6.131   5.115   9.546  0.0780  0.2557  0.0657
 1231W        W 5431   4.906   8.000   2.315 -0.0039 -0.3131  0.1926
 1232W        W 5432   3.716   2.249   1.982  0.0156  0.3439  0.0708
 1233W        W 5433   8.968   6.659  10.599 -0.0447 -0.1706  0.0322
 1234W        W 5434   8.360   2.370   0.494  0.0295 -0.3711  0.0027
 1235W        W 5435   0.883   5.668   3.547 -0.1320  0.0369  0.1139
 1236W        W 5436   2.308   1.867   1.878 -0.1398  0.1475 -0.1693
 1237W        W 5437   7.197   1.484   3.438 -0.3758  0.4039 -0.1882
 1238W        W 5438   3.186   6.440  11.782 -0.2929  0.2928 -0.0047
 1239W        W 5439   5.498   5.700   0.286 -0.0829 -0.1420  0.4069
 1240W        W 5440   2.673   1.085  11.096 -0.2668 -0.0626  0.0655
 1241W        W 5441   8.461   5.424   0.291  0.3517  0.4323  0.0273
 1242W        W 5442   2.338   6.230   1.953  0.0770  0.0564 -0.3381
 1243W        W 5443   5.612   2.162   9.556 -0.0370  0.2492 -0.1281
 1244W        W 5444   5.933   1.880   3.920 -0.0626 -0.1649 -0.0929
 1245W        W 5445   7.459   1.642   4.197 -0.0021 -0.1314 -0.0580
 1246W        W 5446   1.200   1.092  10.363 -0.1230  0.1884 -0.1721
 1247W        W 5447   6.889   9.816   3.121  0.2229 -0.0605  0.2399
 1248W        W 5448   8.489   7.976   3.802  0.0192 -0.3029  0.1933
 1249W        W 5449   5.664   5.273  10.270  0.1735 -0.0149 -0.0970
 1250W        W 5450   9.584   1.957  12.959  0.4357 -0.2581  0.0999
 1251W        W 5451   2.343   5.281   0.854 -0.0841 -0.3929  0.0472
 1252W        W 5452   4.893   9.717   8.311 -0.1097 -0.1752  0.0841
 1253W        W 5453   5.599   4.234  10.490  0.5614 -0.0077  0.0805
 1254W        W 5454   0.253   3.099   4.369  0.0897  0.1662 -0.1455
 1255W        W 5455   3.575   8.121  13.283  0.0983  0.0749  0.1001
 1256W        W 5456   0.156   7.615   1.034  0.1515 -0.2370  0.0642
 1257W        W 5457   6.128   0.307  12.161 -0.0644 -0.2306 -0.1407
 1258W        W 5458   8.200   8.356   1.197  0.2214 -0.0568  0.3661
 1259W        W 5459   8.136   6.071  10.824  0.0819  0.1837 -0.0830
 1260W        W 5460   9.705   6.743  12.425 -0.0185 -0.4490  0.1474
 1261W        W 5461   6.442   2.740   3.180 -0.1253  0.2820 -0.0373
 1262W        W 5462   8.892   6.165  12.796  0.1720 -0.1284  0.1020
 1263W        W 5463   0.302  10.002  11.424 -0.1734  0.2353  0.0353
 1264W        W 5464   8.578   8.839   3.652  0.1414  0.1913  0.0021
 1265W        W 5465   0.184  10.256   1.234  0.3236  0.0415  0.0329
 1266W        W 5466   7.001  10.040   8.999  0.1861 -0.0336  0.3093
 1267W        W 5467   6.505   7.470  12.845 -0.1163 -0.2047 -0.0880
 1268W        W 5468   2.299   7.677   2.115 -0.1156  0.1301  0.3125
 1269W        W 5469   6.104   3.987  12.337 -0.0817  0.1103  0.2105
 1270W        W 5470   0.610  10.408   1.547  0.2119 -0.2662 -0.2933
 1271W        W 5471   6.436   1.520  11.748  0.3153  0.0036  0.0431
 1272W        W 5472   9.407   3.757   0.572 -0.2347 -0.0814 -0.0066
 1273W        W 5473   6.333   1.786  11.295  0.1574  0.1926  0.1109
 1274W        W 5474   2.173   0.109   5.844  0.2700 -0.1682  0.2220
 1275W        W 5475   0.922   3.914  10.913 -0.1555  0.0759  0.2993
 1276W        W 5476   0.546   0.749  10.414 -0.1515  0.3359  0.0764
 1277W        W 5477   9.272   0.413   2.006  0.0787 -0.4058 -0.1292
 1278W        W 5478   2.908   9.865   4.075 -0.2074  0.0968 -0.2686
 1279W        W 5479   3.843   7.968  12.223  0.0008 -0.0225  0.0943
 1280W        W 5480   3.320   5.531   2.291  0.1020  0.0065 -0.3648
 1281W        W 5481   2.868   8.881   2.897 -0.3900  0.1404  0.3850
 1282W        W 5482   9.751   9.668   2.625 -0.3354 -0.2212  0.1433
 1283W        W 5483   8.095   1.108   0.594  0.0270 -0.1411  0.1467
 1284W        W 5484   1.769  10.220  12.774  0.1280  0.1381  0.1658
 1285W        W 5485   8.755   4.375  10.762 -0.2210 -0.1694  0.0936
 1286W        W 5486   0.550   8.366   0.773 -0.2524  0.0544  0.2917
 1287W        W 5487   0.872   3.070   2.092 -0.2390 -0.2411  0.0084
 1288W        W 5488   5.835   7.496  13.162 -0.0240  0.0787  0.0293
 1289W        W 5489   8.307   2.689  11.571  0.1590 -0.2060 -0.0485
 1290W        W 5490   5.644   5.977  11.018  0.0478  0.1121  0.0879
 1291W        W 5491   4.389   4.571   2.466  0.2477  0.3393 -0.1293
 1292W        W 5492   7.910   8.332  12.356 -0.0253  0.3246 -0.0396
 1293W        W 5493   7.981   3.391  10.865  0.0351 -0.0936 -0.3004
 1294W        W 5494   9.279   8.412  11.120 -0.1051  0.0051  0.3184
 1295W        W 5495   2.725   2.576   1.221 -0.1045  0.1273  0.1351
 1296W        W 5496   3.445   0.738  11.860 -0.2281  0.1947  0.2315
 1297W        W 5497   9.654   3.959  10.488 -0.1414 -0.0460 -0.1787
 1298W        W 5498   7.442   4.961  11.730  0.1161 -0.0699  0.1241
 1299W        W 5499   6.477   3.394  13.172 -0.0572 -0.2137 -0.0433
 1300W        W 5500   9.035   5.580  11.128  0.1635 -0.1419  0.2960
 1301W        W 5501   8.059   6.284   3.705  0.0399  0.1303 -0.0247
 1302W        W 5502   1.635   6.524  10.498 -0.0849 -0.0413  0.1724
 1303W        W 5503   8.287   2.085   4.226  0.0354  0.2594 -0.0651
 1304W        W 5504   1.286   1.498   2.363  0.1395 -0.0570  0.0237
 1305W        W 5505   4.962   7.726   1.541  0.2718 -0.1303  0.0929
 1306W        W 5506  10.423   3.010   3.824 -0.2786  0.1390  0.1452
 1307W        W 5507   6.991   6.772   0.873  0.1126  0.1131 -0.1149
 1308W        W 5508   5.165   0.517  13.024 -0.2337 -0.1498  0.2275
 1309W        W 5509   8.939   3.953   2.811  0.0141  0.0023  0.0149
 1310W        W 5510   4.006   2.117   4.134 -0.0240  0.1202  0.1066
 1311W        W 5511   6.242   5.879   1.209 -0.2331  0.0927 -0.1569
 1312W        W 5512   7.197   1.368   2.487 -0.2275  0.3426  0.2629
 1313W        W 5513   3.631   8.138  10.137 -0.1191  0.1446  0.1294
 1314W        W 5514   6.192   5.511   2.645 -0.0312 -0.0723  0.0285
 1315W        W 5515  10.333   2.547   4.171 -0.3708  0.4459 -0.1657
 1316W        W 5516   6.658   1.845   1.212 -0.2370  0.0526  0.1008
 1317W        W 5517   2.702   5.753  12.653  0.0360 -0.0540  0.1940
 1318W        W 5518   1.827   2.850  12.987 -0.1658  0.4827  0.2320
 1319W        W 5519   7.879   2.337  13.131  0.1778 -0.0663  0.2152
 1320W        W 5520   6.007   1.081   5.044  0.1234 -0.2330  0.1386
 1321W        W 5521  10.397   3.177  12.124  0.0779 -0.1581  0.1863
 1322W        W 5522   2.676   3.166   1.787 -0.0341 -0.1195  0.1165
 1323W        W 5523   1.851   2.532   3.973 -0.0472 -0.2582  0.2463
 1324W        W 5524   8.880  10.019  11.183  0.1098 -0.0081 -0.0043
 1325W        W 5525  10.060   2.199   1.555  0.0217 -0.2292  0.1936
 1326W        W 5526   1.281   9.805   0.774 -0.2972  0.4530 -0.0804
 1327W        W 5527   7.832   8.180   0.264 -0.1403  0.0335  0.0444
 1328W        W 5528   7.037   7.342   0.037  0.0318  0.2002  0.0628
 1329W        W 5529   5.420   0.848  13.445  0.0101 -0.2381  0.1493
 1330W        W 5530   7.660   7.469   0.071 -0.1378  0.2601  0.1343
 1331W        W 5531   1.784  10.288   4.654  0.2024 -0.1846 -0.0456
 1332W        W 5532   2.310  10.350  11.683 -0.1316  0.3337 -0.0421
 1333W        W 5533   7.621   6.521   4.148 -0.0334  0.0080  0.0808
 1334W        W 5534   0.507   9.312   0.124  0.1019 -0.4676 -0.0585
 1335W        W 5535  10.221  10.092  10.029  0.2920  0.0059 -0.2592
 1336W        W 5536   9.907   8.404   2.923  0.0043 -0.0294  0.3609
 1337W        W 5537   9.070   7.390  12.708  0.1723  0.1084 -0.1216
 1338W        W 5538   2.142   7.435   1.014 -0.0417  0.2793  0.1955
 1339W        W 5539  10.078   3.842  10.294 -0.1340  0.2739 -0.0135
 1340W        W 5540   9.288   8.388   1.085 -0.2322  0.0420 -0.0913
 1341W        W 5541   4.932   4.934  10.682 -0.1852 -0.0098 -0.2468
 1342W        W 5542   2.340  10.213  11.209  0.1695  0.0701  0.2192
 1343W        W 5543   8.465   4.030   1.232 -0.0073 -0.0098 -0.1896
 1344W        W 5544   8.526   5.698  11.476  0.0762  0.1113 -0.4814
 1345W        W 5545   1.304   9.023   0.632  0.2169  0.3087  0.2287
 1346W        W 5546   4.242  10.312   2.949  0.1909  0.0188  0.1872
 1347W        W 5547   8.080   8.763   8.916 -0.0535 -0.3143  0.0675
 1348W        W 5548   6.644   7.151  10.538 -0.3571 -0.3583 -0.1340
 1349W        W 5549   2.452   2.258   1.477 -0.2743 -0.1027  0.1895
 1350W        W 5550   5.627   8.084  10.308  0.0328  0.1144  0.1431
 1351W        W 5551   5.204   7.119   9.169 -0.0391  0.0734 -0.2733
 1352W        W 5552   8.005   7.145   1.650 -0.0081  0.3991  0.0628
 1353W        W 5553   9.036   7.940  11.332  0.0396 -0.2583  0.0290
 1354W        W 5554   4.670   4.091   2.299  0.0978  0.0144  0.1497
 1355W        W 5555   2.244   1.291   1.702  0.0106  0.0617 -0.0068
 1356W        W 5556   7.326   4.267   1.561  0.0490  0.2966  0.0351
 1357W        W 5557   0.101   0.486   5.021 -0.2604  0.0184 -0.1501
 1358W        W 5558   7.274   5.555  12.480  0.2706 -0.1945  0.0127
 1359W        W 5559   5.913   2.178   4.762  0.0078 -0.6215  0.0462
 1360W        W 5560   5.862   7.125  12.365 -0.0431 -0.1785  0.0572
 1361W        W 5561   2.063   3.355   0.131  0.0905 -0.0510 -0.0784
 1362W        W 5562   5.045  10.115  12.611  0.0243  0.0011  0.0031
 1363W        W 5563   8.615   5.723   3.952  0.0251  0.0067 -0.0377
 1364W        W 5564   2.254   6.523  13.372  0.0453  0.1852 -0.1128
 1365W        W 5565   2.680   4.537  11.941 -0.0981 -0.0273  0.0019
 1366W        W 5566   4.773   8.555   0.273 -0.0407 -0.2161  0.1416
 1367W        W 5567   3.127   0.123   9.172 -0.3560  0.0109  0.1314
 1368W        W 5568   1.454   9.591   4.757 -0.1953 -0.1188 -0.1936
 1369W        W 5569   9.494   9.708  10.579  0.2089  0.1266 -0.4343
 1370W        W 5570   7.792   8.658  10.260  0.0387 -0.0366  0.1407
 1371W        W 5571   3.918   3.042   1.921 -0.1391 -0.3377  0.2059
 1372W        W 5572   9.442   5.038   0.143  0.1014 -0.2968 -0.1079
 1373W        W 5573   6.510   5.503   3.472 -0.0263 -0.0405 -0.0128
 1374W        W 5574   4.957   8.198   9.065  0.1259  0.4422 -0.2050
 1375W        W 5575   1.408   5.057   1.337  0.0620 -0.0017  0.2288
 1376W        W 5576   8.480   3.483   2.165 -0.2223 -0.3242 -0.3692
 1377W        W 5577   1.984   7.399   3.448 -0.0373  0.4699  0.0494
 1378W        W 5578   7.170   7.272   9.167  0.0577  0.0026 -0.1691
 1379W        W 5579   3.103   7.596  10.588 -0.0091 -0.1945  0.1080
 1380W        W 5580   5.821   6.085   0.272  0.3343 -0.1953  0.0832
 1381W        W 5581   2.711   5.567   1.177  0.0200 -0.0814  0.0731
 1382W        W 5582   6.861   2.970  10.462 -0.2461  0.0661  0.1333
 1383W        W 5583   5.615   7.523  10.105  0.2269 -0.2759 -0.1259
 1384W        W 5584   1.360   0.292   0.869 -0.1417 -0.0699  0.2558
 1385W        W 5585   4.595   3.243  10.695 -0.1282 -0.1871  0.0852
 1386W        W 5586   0.138   8.073   1.305 -0.0927  0.0236 -0.2062
 1387W        W 5587   0.635   2.023  11.980 -0.1656 -0.0836 -0.1078
 1388W        W 5588   5.681   5.307   3.369 -0.1145 -0.0440 -0.5127
 1389W        W 5589   1.956   6.247  11.292 -0.2631  0.0200  0.3014
 1390W        W 5590   1.555   2.429   4.638  0.0095  0.1714  0.1811
 1391W        W 5591   6.338  10.193   0.033 -0.1671  0.0765  0.0333
 1392W        W 5592   4.551   5.851   9.294 -0.0707  0.1325  0.1252
 1393W        W 5593   0.748   6.620   3.795  0.4008  0.0909  0.1044
 1394W        W 5594   5.330   9.227   0.191 -0.0608 -0.1355 -0.0541
 1395W        W 5595   0.522   4.188   0.927  0.0729  0.0244 -0.0432
 1396W        W 5596   7.106   0.586   1.877 -0.3231 -0.0328 -0.1096
 1397W        W 5597   3.790   9.889   9.830  0.2976 -0.1223  0.1742
 1398W        W 5598   1.893  10.094   1.100 -0.0025 -0.0804 -0.2238
 1399W        W 5599   4.675   0.626   1.518  0.2421 -0.2165 -0.0658
 1400W        W 5600   7.742   8.645   0.108  0.1118 -0.1444 -0.1346
 1401W        W 5601   1.232   5.297   3.386  0.0692 -0.4804  0.1585
 1402W        W 5602   8.905   6.059  10.311  0.1395 -0.0895 -0.0012
 1403W        W 5603   0.787   6.237   0.928 -0.0349 -0.1350  0.2804
 1404W        W 5604  10.035   0.182   0.555  0.1247  0.0267 -0.2710
 1405W        W 5605   6.247   1.539   2.086 -0.0801  0.1394  0.0832
 1406W        W 5606  10.073   0.865  12.441 -0.1773  0.0745 -0.0529
 1407W        W 5607   2.237   5.580  10.096 -0.0091  0.0655 -0.0917
 1408W        W 5608   6.188   3.258  10.202 -0.0067  0.1816 -0.1291
 1409W        W 5609   5.773   6.890  11.938  0.2178  0.2356 -0.0892
 1410W        W 5610  10.005   4.768  10.556  0.0311 -0.0568  0.2510
 1411W        W 5611   9.993   9.659  10.218 -0.1572  0.1360 -0.3575
 1412W        W 5612   3.201   4.889  10.883 -0.4093  0.0081  0.1489
 1413W        W 5613   7.364   7.872   2.716  0.2071 -0.1562  0.2097
 1414W        W 5614   7.304  10.313   9.376 -0.0973  0.0728  0.2007
 1415W        W 5615   8.067   6.909   5.444 -0.1364 -0.0296  0.1051
 1416W        W 5616   9.961   7.022   0.652 -0.0055  0.2937  0.0102
 1417W        W 5617   8.299   1.025  13.443 -0.1070  0.0640  0.3242
 1418W        W 5618   9.471   2.721   4.250  0.0155 -0.1863 -0.1377
 1419W        W 5619   3.954   3.728  11.707  0.0381 -0.0001  0.5330
 1420W        W 5620   6.645   4.251   8.538  0.2166 -0.2073 -0.4906
 1421W        W 5621   2.903   2.520   4.944  0.2372 -0.1032 -0.0287
 1422W        W 5622   7.002   1.898   9.499 -0.2488 -0.1665  0.0543
 1423W        W 5623   6.925   5.397   2.074  0.0304 -0.4257 -0.0811
 1424W        W 5624  10.120   3.778   1.940  0.0689  0.1741  0.1152
 1425W        W 5625   4.609   2.054   0.220 -0.0684  0.0129 -0.0625
 1426W        W 5626   9.423   3.347   9.273  0.0658 -0.1945  0.0593
 1427W        W 5627   9.985   8.814  12.728 -0.1191 -0.1867 -0.1966
 1428W        W 5628   5.532   7.899   0.010  0.0654 -0.3520  0.1312
 1429W        W 5629   7.156   9.812   2.002  0.4490 -0.2170 -0.0959
 1430W        W 5630   5.836   5.811   9.849 -0.1289  0.1403 -0.0323
 1431W        W 5631   2.672   3.539   1.438  0.1112  0.1306 -0.1720
 1432W        W 5632   7.778   5.098   4.132 -0.0522 -0.0389 -0.0346
 1433W        W 5633   0.682   5.616   0.322 -0.4287 -0.1921  0.0880
 1434W        W 5634   9.333   2.419  10.173 -0.2009  0.1515  0.1326
 1435W        W 5635   9.781   2.260   3.694  0.1743 -0.1384  0.2127
 1436W        W 5636   9.140   4.178   0.585  0.2152  0.3219 -0.1853
 1437W        W 5637   0.605   2.327   3.165 -0.3620 -0.0508 -0.1530
 1438W        W 5638   3.239   4.091  10.051  0.3208  0.0897  0.1005
 1439W        W 5639   9.818   8.927   0.145  0.2537  0.1917  0.0219
 1440W        W 5640   0.136   0.628   2.421  0.0747 -0.3089 -0.0372
 1441W        W 5641   2.700   5.015  10.826  0.1035 -0.1650 -0.2817
 1442W        W 5642   1.482   6.616   1.694  0.0979  0.0771  0.0689
 1443W        W 5643   9.568   2.493   4.688 -0.1920  0.1940  0.1462
 1444W        W 5644   5.784   5.509   2.025 -0.1048  0.0775  0.0429
 1445W        W 5645   7.268   0.093  13.277 -0.1999 -0.1739  0.0438
 1446W        W 5646   0.068   2.752  12.279  0.1517 -0.0953  0.3591
 1447W        W 5647   2.432   3.574   2.874 -0.2345 -0.1350 -0.0462
 1448W        W 5648   6.980   4.897   1.952  0.0082  0.1255 -0.0149
 1449W        W 5649   1.809   6.082  12.289 -0.1363 -0.0515 -0.0764
 1450W        W 5650   2.156   6.540   0.850 -0.1540  0.2128 -0.2201
 1451W        W 5651   7.249   4.047   8.917  0.0880  0.1809  0.0949
 1452W        W 5652   4.389   2.157  12.527  0.1416 -0.0682 -0.2582
 1453W        W 5653   7.795   3.320   8.948  0.1722  0.0644 -0.0158
 1454W        W 5654   6.109   9.421   0.371  0.0045 -0.1729  0.1279
 1455W        W 5655   8.090   0.067  11.523 -0.4224  0.0049  0.0992
 1456W        W 5656   7.881   5.319   3.681 -0.2605  0.3239  0.2622
 1457W        W 5657   0.583   8.053   4.375  0.0194 -0.1088 -0.1303
 1458W        W 5658   8.558   3.261   9.561  0.1079  0.0087 -0.1258
 1459W        W 5659   5.785   8.986   0.151  0.2615  0.1632 -0.0109
 1460W        W 5660   7.256  10.198  11.364  0.2102 -0.3445  0.1551
 1461W        W 5661   7.556   9.917  11.605 -0.1531  0.0319 -0.1343
 1462W        W 5662   9.221   9.796   1.987 -0.0665 -0.5560 -0.0745
 1463W        W 5663   9.757   2.043  12.149 -0.1400 -0.0538 -0.0503
 1464W        W 5664   9.643   1.266  11.336 -0.2234 -0.0775  0.0879
 1465W        W 5665   3.878   4.503   2.358  0.0488  0.1389  0.1593
 1466W        W 5666   6.547   0.946   1.104 -0.0190 -0.0359  0.2073
 1467W        W 5667   7.580   7.587   3.940 -0.0079 -0.2095 -0.1677
 1468W        W 5668   8.249   0.153   1.225  0.1873 -0.2462  0.2059
 1469W        W 5669   4.149   2.719  12.632 -0.4093  0.2226  0.2061
 1470W        W 5670   9.959   2.064   9.688  0.0334 -0.0271 -0.1682
 1471W        W 5671   1.856   2.226   2.771  0.2157 -0.0007  0.0336
 1472W        W 5672   6.587   7.923   0.189 -0.1635  0.3292 -0.2594
 1473W        W 5673   7.811   4.832  12.128 -0.1186  0.1787  0.1959
 1474W        W 5674   2.004   5.714   2.389 -0.0284  0.3468  0.2398
 1475W        W 5675   2.848   0.943   3.282  0.0351 -0.1198  0.0318
 1476W        W 5676   2.385   4.964   3.687 -0.2721 -0.1069  0.1251
 1477W        W 5677   9.470  10.113   1.223  0.0335 -0.1629  0.2597
 1478W        W 5678   0.752   6.688  12.470 -0.1627 -0.2059  0.0360
 1479W        W 5679   5.983   0.833   2.378  0.0469  0.2212  0.0206
 1480W        W 5680   4.675   2.131   9.825 -0.1336 -0.4278  0.1255
 1481W        W 5681   8.771   0.390  10.132  0.2116  0.1686  0.1179
 1482W        W 5682   0.204   4.227   1.998 -0.2737 -0.1945  0.0694
 1483W        W 5683   3.097   3.696  12.171 -0.0231 -0.0412 -0.3661
 1484W        W 5684   3.146   0.730   1.976 -0.0293  0.2371 -0.2380
 1485W        W 5685   1.324   5.984   3.498 -0.1631 -0.0016 -0.0238
 1486W        W 5686   7.253   5.059  10.685 -0.0572  0.1081 -0.2998
 1487W        W 5687   5.910   6.262   4.014  0.2044  0.0480  0.5400
 1488W        W 5688   3.031   0.957   2.394 -0.0863 -0.2124  0.0642
 1489W        W 5689   3.732   9.012  12.180 -0.0376 -0.1596 -0.1276
 1490W        W 5690   1.240   1.816   9.776  0.0810 -0.3757 -0.1491
 1491W        W 5691   4.083   6.642  10.556 -0.0900  0.3637 -0.0238
 1492W        W 5692   4.258   1.086  11.858 -0.2692 -0.2811 -0.3205
 1493W        W 5693   3.147   0.476   4.011 -0.1694 -0.1000  0.2001
 1494W        W 5694   0.887   2.705   4.193  0.3476  0.0408 -0.2376
 1495W        W 5695   5.734   6.788  11.085 -0.0942 -0.0197  0.3672
 1496W        W 5696   7.292   9.748  11.177  0.0823  0.0854  0.2371
 1497W        W 5697   5.695   2.641   1.707 -0.2865  0.3058 -0.2330
 1498W        W 5698   6.629   8.613   9.278 -0.3099 -0.0338 -0.0919
 1499W        W 5699   2.184   2.096   0.551  0.1591  0.1080  0.1324
 1500W        W 5700   8.702   2.509  12.810 -0.1160 -0.3593 -0.1410
 1501W        W 5701   0.709   8.495   1.312 -0.1446  0.3255  0.2683
 1502W        W 5702   9.349   3.321   1.810 -0.0731 -0.4262 -0.0634
 1503W        W 5703   5.138  10.240   4.315 -0.2745 -0.0163  0.2160
 1504W        W 5704   8.464   6.207   0.432  0.0242  0.1437  0.0636
 1505W        W 5705   9.073   3.468  11.124 -0.0452 -0.0184 -0.0913
 1506W        W 5706   4.075   0.963   4.174  0.1632  0.2051  0.0834
 1507W        W 5707   5.718   3.429  11.080  0.0910 -0.0885  0.2882
 1508W        W 5708   2.394   7.082   3.802 -0.1738  0.1340 -0.3858
 1509W        W 5709   3.651   1.476   3.532 -0.1755 -0.2418  0.2816
 1510W        W 5710   8.480   4.628   2.442 -0.2290  0.1820  0.0431
 1511W        W 5711   2.089   9.021  11.782  0.0055  0.0167  0.0817
 1512W        W 5712   5.730   6.890   9.133 -0.2405  0.1727 -0.0445
 1513W        W 5713   1.217   2.630   1.061  0.1338  0.3804 -0.2757
 1514W        W 5714   6.466   5.648  10.500  0.1935 -0.1632  0.0103
 1515W        W 5715   6.591   1.093   9.215 -0.0240 -0.0291  0.0849
 1516W        W 5716   7.491   7.433  12.052  0.1351  0.0278  0.4919
 1517W        W 5717   8.987   6.827   0.050 -0.0437  0.3605  0.2974
 1518W        W 5718   1.430   0.613   1.695 -0.0913  0.1727 -0.0871
 1519W        W 5719   0.219   2.459   0.997 -0.0952  0.2894 -0.0602
 1520W        W 5720   2.907   3.845   2.912  0.2704 -0.1184 -0.0125
 1521W        W 5721   4.031   5.757  11.729 -0.0964 -0.0071  0.0686
 1522W        W 5722   6.965   9.056   3.381  0.0066 -0.0028 -0.1654
 1523W        W 5723   8.076   2.856   4.742 -0.1454  0.1070 -0.0326
 1524W        W 5724   9.667   1.655  12.578 -0.0131  0.1364 -0.2287
 1525W        W 5725   1.765   3.442   9.992 -0.2102  0.1767  0.0808
 1526W        W 5726   0.882   0.751   0.923  0.0392  0.0452  0.0928
 1527W        W 5727   2.300   1.888   0.094 -0.1890  0.1454 -0.2327
 1528W        W 5728   6.735   3.654   4.219 -0.0775 -0.1329 -0.0617
 1529W        W 5729   0.777   0.758   0.332 -0.0074 -0.3815 -0.0054
 1530W        W 5730  10.130   3.575  10.705 -0.2125  0.1197 -0.0300
 1531W        W 5731   8.473   7.725   9.140  0.0212 -0.2336 -0.2691
 1532W        W 5732   7.738   5.729  10.029 -0.0435 -0.2037 -0.1403
 1533W        W 5733   2.653   1.073   4.903  0.2465 -0.0414 -0.0454
 1534W        W 5734   5.525   3.528   1.056  0.0208  0.1126  0.0771
 1535W        W 5735   4.261   1.761  10.055 -0.0212 -0.0925  0.2636
 1536W        W 5736   9.936   1.574   9.909 -0.5264 -0.0146 -0.0438
 1537W        W 5737   1.901   1.613  11.102 -0.2008 -0.1252  0.2804
 1538W        W 5738   0.682   3.632  12.503 -0.2099 -0.0225  0.0585
 1539W        W 5739   9.234   4.620   1.810 -0.2045 -0.1325 -0.4452
 1540W        W 5740   6.123   8.414  11.511 -0.0657 -0.2266  0.0134
 1541W        W 5741   3.516   2.000  12.392 -0.2125  0.2396 -0.1422
 1542W        W 5742   9.389   6.472   0.656  0.1846  0.1865 -0.0748
 1543W        W 5743   1.345   3.484  10.327  0.0345  0.3617  0.1523
 1544W        W 5744   8.226   9.349   8.601  0.1413 -0.1529 -0.2903
 1545W        W 5745   7.579   1.216   3.870  0.3473 -0.0164 -0.0810
 1546W        W 5746   2.278   4.045  12.307  0.0747  0.0408  0.4353
 1547W        W 5747   7.223   8.631   3.166 -0.0819  0.0655  0.1062
 1548W        W 5748   8.036   8.920   0.566  0.1479  0.0115 -0.2740
 1549W        W 5749   1.842   5.015  11.115 -0.3087  0.1664 -0.1513
 1550W        W 5750  10.236   3.438   1.531 -0.0475 -0.1149 -0.3746
 1551W        W 5751   0.658   7.988   1.415  0.1979 -0.3226  0.3435
 1552W        W 5752   6.230   8.461  12.886 -0.0639  0.1313 -0.1723
 1553W        W 5753   9.485   5.741   9.881 -0.1592  0.0965 -0.0231
 1554W        W 5754   3.655   3.737   2.573  0.1509 -0.0538  0.1152
 1555W        W 5755   3.283   6.436  13.370  0.2288  0.2483 -0.2207
 1556W        W 5756   6.705   7.608  11.425 -0.0694 -0.0406  0.6265
 1557W        W 5757   6.115   2.836   3.819 -0.0220 -0.1148 -0.0229
 1558W        W 5758   6.767   3.404  11.824 -0.2817 -0.0350  0.2423
 1559W        W 5759   8.588   1.788   1.991 -0.1370  0.3933  0.2375
 1560W        W 5760  10.071  10.052   2.439  0.0646 -0.0020  0.2432
 1561W        W 5761   3.548   2.849   1.599  0.1891 -0.0556  0.1506
 1562W        W 5762   4.919   4.149   2.744  0.3363  0.0251 -0.1835
 1563W        W 5763   6.077   7.289   4.264  0.1272  0.1492 -0.0289
 1564W        W 5764   3.561   0.253   0.755  0.0988  0.0305  0.1300
 1565W        W 5765   9.745   7.321   9.712  0.3062  0.1559  0.2670
 1566W        W 5766   0.069   8.730   3.715  0.1484  0.3073  0.1372
 1567W        W 5767   3.593   9.056  13.198  0.0090 -0.1590 -0.0459
 1568W        W 5768   4.762   8.137  11.410  0.3163  0.0970 -0.0603
 1569W        W 5769  10.224   6.360   1.199 -0.0031 -0.0215  0.2578
 1570W        W 5770   2.663  10.356   3.429 -0.1034  0.0193 -0.0269
 1571W        W 5771   2.130   2.536   0.291 -0.0537  0.1984  0.1998
 1572W        W 5772   5.128   2.041  12.938  0.2860  0.2811  0.2123
 1573W        W 5773   3.098   1.473   9.531 -0.1404  0.5127 -0.3137
 1574W        W 5774   8.916   5.272  11.562  0.0460 -0.1343 -0.1393
 1575W        W 5775   0.059   0.928   0.678 -0.1527  0.3329 -0.0548
 1576W        W 5776   1.098   1.533   3.312  0.1241 -0.1701  0.2680
 1577W        W 5777   5.803   3.273   4.065  0.1136  0.1043  0.0013
 1578W        W 5778   9.830   1.648  11.630  0.0995  0.3732 -0.0971
 1579W        W 5779   7.556   0.471  10.198  0.3190 -0.0808  0.0152
 1580W        W 5780  10.207   9.059   9.088  0.1348  0.0516 -0.0212
 1581W        W 5781   8.690   4.891  10.600  0.1815 -0.3078  0.1104
 1582W        W 5782  10.087   5.173  11.375 -0.0015 -0.0641 -0.1350
 1583W        W 5783   6.260   7.037   2.960 -0.0885  0.1785  0.2475
 1584W        W 5784   0.067   6.835   1.452  0.1475 -0.0841  0.1397
 1585W        W 5785   0.061   9.871   3.705 -0.0952 -0.1379  0.1051
 1586W        W 5786   9.654   1.955   3.062 -0.0766 -0.2975 -0.1584
 1587W        W 5787   8.350   0.025   4.530 -0.1472  0.0686 -0.1056
 1588W        W 5788   2.995   9.127  10.601 -0.0459  0.1677 -0.0437
 1589W        W 5789   4.383   0.205  12.652  0.2008  0.1654 -0.0484
 1590W        W 5790   6.018   5.401  13.034  0.1703  0.0717 -0.0363
 1591W        W 5791   7.783   5.666   4.638 -0.0292 -0.1383 -0.1744
 1592W        W 5792   5.383   1.884  11.111 -0.1024 -0.0684 -0.1183
 1593W        W 5793   6.032   6.621  12.661  0.0225 -0.1084  0.0542
 1594W        W 5794   4.137   6.617  13.225 -0.0538 -0.2186  0.0608
 1595W        W 5795   8.508   9.378  13.258 -0.4953  0.0140  0.0183
 1596W        W 5796   4.421   1.341   9.781  0.0844  0.1849  0.0461
 1597W        W 5797   1.284   0.030   3.843  0.1602 -0.2534  0.1861
 1598W        W 5798   7.027   6.580  11.350 -0.0421 -0.1487  0.1147
 1599W        W 5799   6.512   1.283  10.577  0.1521  0.0224 -0.3324
 1600W        W 5800   5.015   7.670  13.414 -0.0166 -0.0532 -0.3220
 1601W        W 5801   6.581   9.548   4.019 -0.0021 -0.1169  0.1925
 1602W        W 5802   7.231   5.831  10.235 -0.0722 -0.1412 -0.0691
 1603W        W 5803   6.878   1.079   9.631 -0.0365 -0.1789  0.1915
 1604W        W 5804  10.401   9.900  10.464  0.0415 -0.0497  0.0818
 1605W        W 5805   5.688   9.317   9.609  0.0948  0.1476 -0.0474
 1606W        W 5806   0.926   0.893   1.387 -0.1656 -0.1009  0.1525
 1607W        W 5807   6.267   6.509   4.344  0.0203  0.1349  0.3372
 1608W        W 5808   5.197   3.840  13.116  0.2830  0.0524  0.0840
 1609W        W 5809   2.124   9.146  11.001 -0.1638 -0.2807 -0.1409
 1610W        W 5810   4.851   9.978   1.449 -0.1107  0.1108  0.0804
 1611W        W 5811   8.794   2.613  11.490 -0.0001  0.1044 -0.0856
 1612W        W 5812   3.188   1.081   8.511  0.0026  0.2428 -0.0023
 1613W        W 5813   6.609   6.293   3.957  0.1976 -0.0002 -0.0010
 1614W        W 5814   6.781   7.443  10.943 -0.2434 -0.1100 -0.0159
 1615W        W 5815   4.178   5.955  10.229  0.1738 -0.1023  0.1863
 1616W        W 5816   5.934   0.997  13.220 -0.0864  0.0348  0.0386
 1617W        W 5817   5.617  10.178   4.322  0.2774 -0.0162  0.1145
 1618W        W 5818   1.540   2.629  11.256  0.1493 -0.5367  0.0756
 1619W        W 5819   7.520   4.519   9.701  0.0370 -0.0962  0.0814
 1620W        W 5820  10.033   5.402   0.580 -0.2028 -0.0532 -0.0259
 1621W        W 5821   5.829  10.228   0.266  0.0202  0.3412 -0.0944
 1622W        W 5822   5.213   0.191  12.469 -0.0767 -0.1436  0.0665
 1623W        W 5823   1.722   9.391   9.445 -0.0655 -0.2664  0.0566
 1624W        W 5824   4.448   8.254  10.960  0.1111  0.0162  0.3072
 1625W        W 5825   7.292   4.794   8.068  0.0073 -0.0111  0.0394
 1626W        W 5826   4.304   0.047  11.967 -0.2875 -0.1460 -0.0593
 1627W        W 5827   4.447   1.871   3.001 -0.2864  0.0637  0.1780
 1628W        W 5828   0.038   5.807   1.874 -0.1676 -0.1508  0.1902
 1629W        W 5829   2.677   2.805   2.169 -0.0066  0.0511 -0.0785
 1630W        W 5830  10.083   5.196  10.211  0.2349 -0.1391 -0.0485
 1631W        W 5831   1.687   7.802  11.707  0.0053 -0.2148 -0.1465
 1632W        W 5832   7.949   4.156  12.746 -0.1784  0.2258 -0.2295
 1633W        W 5833   4.912   5.869   2.210  0.0449  0.0805 -0.0531
 1634W        W 5834   1.275  10.072   4.583  0.1708 -0.2366 -0.1227
 1635W        W 5835   2.003   3.750   1.086 -0.1529  0.1514 -0.2376
 1636W        W 5836   5.071   0.628   3.970  0.1602  0.0353  0.3961
 1637W        W 5837   3.039   2.053   9.534  0.0224 -0.0773  0.2939
 1638W        W 5838   8.781   7.994  12.156  0.2577 -0.2094 -0.2885
 1639W        W 5839   8.161   6.946  10.181 -0.1756  0.0106 -0.1230
 1640W        W 5840   7.072  10.324   4.052 -0.3991  0.1254 -0.3458
 1641W        W 5841   5.299   7.635   1.990  0.2287 -0.2122  0.0231
 1642W        W 5842   0.949   6.749   0.009 -0.0437 -0.0811  0.0398
 1643W        W 5843   8.966   5.671  10.657 -0.1215 -0.5338  0.0428
 1644W        W 5844   8.832   4.336   3.157 -0.2412 -0.5520  0.0011
 1645W        W 5845   2.585   0.233   9.911 -0.1478  0.0292 -0.1706
 1646W        W 5846   9.389  10.249   0.480 -0.2016  0.1926  0.0279
 1647W        W 5847  10.254   0.145  12.918 -0.1046 -0.0495 -0.0890
 1648W        W 5848   5.320   8.296  12.180  0.2658  0.0821  0.1025
 1649W        W 5849   0.293   1.256   3.411  0.2104 -0.3900  0.0853
 1650W        W 5850   5.481   9.130   3.889 -0.3201 -0.1082 -0.0078
 1651W        W 5851   3.279   8.557   4.555 -0.3560  0.1693 -0.1146
 1652W        W 5852   6.266   2.885  13.191  0.0920 -0.1720 -0.2423
 1653W        W 5853   2.762   2.134   1.894  0.1264  0.5273  0.0119
 1654W        W 5854   2.853   8.357   2.940 -0.1610 -0.2632  0.1261
 1655W        W 5855   6.979   5.545  10.600 -0.1837 -0.1177 -0.2610
 1656W        W 5856   1.715   2.235   9.596  0.0122  0.0840 -0.0259
 1657W        W 5857   3.968   8.157   2.412 -0.1282 -0.0154  0.1868
 1658W        W 5858   7.919   2.569   0.089 -0.2319  0.4396 -0.0569
 1659W        W 5859   1.948   4.095   2.456 -0.0840 -0.0080 -0.0550
 1660W        W 5860   4.535   4.389   4.251  0.0462  0.1348  0.0287
 1661W        W 5861   0.004   4.439  10.624  0.0747 -0.2092 -0.1291
 1662W        W 5862   6.462   0.282   9.583  0.0060  0.0389  0.4609
 1663W        W 5863   9.589   9.190   9.755 -0.2280 -0.4611  0.2330
 1664W        W 5864   6.002   8.112   3.813  0.2811  0.2078  0.1074
 1665W        W 5865   7.331   6.584   0.433 -0.1111 -0.0301 -0.0096
 1666W        W 5866   9.251   1.789   3.200  0.4853  0.0881 -0.0131
 1667W        W 5867   6.889   1.054  12.823  0.0693  0.1512 -0.3337
 1668W        W 5868   8.391   9.360  11.873 -0.1106 -0.1958 -0.0145
 1669W        W 5869   8.299   2.348   8.561  0.2156  0.0658 -0.0261
 1670W        W 5870   4.679   2.564  11.357  0.0889 -0.3314 -0.0349
 1671W        W 5871   6.406   1.014  12.883  0.2001 -0.0119 -0.0282
 1672W        W 5872   9.327   6.329   2.648 -0.0696  0.0606  0.3071
 1673W        W 5873   0.680   1.034  13.290  0.1448  0.4809 -0.3835
 1674W        W 5874   6.627  10.058   3.954  0.4081 -0.0331 -0.4273
 1675W        W 5875   3.568   2.432  10.590 -0.0580 -0.2019 -0.1599
 1676W        W 5876   7.023   8.828  11.128 -0.1369  0.0835  0.1689
 1677W        W 5877   4.653   7.022   2.494 -0.3078 -0.0936 -0.1244
 1678W        W 5878   4.753   9.982   0.467 -0.0770 -0.2014 -0.1748
 1679W        W 5879   1.521   5.370  10.884  0.4158 -0.0202  0.2217
 1680W        W 5880   8.234   3.532  12.039  0.1152  0.3502 -0.0275
 1681W        W 5881   1.526   2.599  10.731  0.3086  0.0429  0.1018
 1682W        W 5882   2.594   1.749  11.614 -0.0927  0.1141  0.2171
 1683W        W 5883   0.611   1.596   4.562 -0.0520 -0.3135  0.2575
 1684W        W 5884   4.455   0.626   4.250  0.1465  0.2110  0.4988
 1685W        W 5885   5.585   4.875  12.831  0.0404  0.0119 -0.1465
 1686W        W 5886   7.618   6.824   2.622  0.1822 -0.3384 -0.2027
 1687W        W 5887   7.548   6.373   2.776  0.1329  0.2565  0.3874
 1688W        W 5888   3.565   5.636  12.617  0.0926  0.0295  0.0739
 1689W        W 5889   3.609   0.683   3.879  0.2651 -0.1573 -0.0842
 1690W        W 5890   6.106   4.158  12.991 -0.1917 -0.0555  0.0541
 1691W        W 5891   8.957   2.670   4.126 -0.0867  0.1281  0.1271
 1692W        W 5892  10.423   4.702  11.595 -0.0900 -0.1889  0.1993
 1693W        W 5893   3.328  10.268   1.479  0.1380  0.0024 -0.0628
 1694W        W 5894   8.164   3.289   0.322 -0.3022 -0.2838  0.0282
 1695W        W 5895   4.070   6.313   2.097 -0.1812  0.0529 -0.0713
 1696W        W 5896   1.682   7.866  10.483  0.0313 -0.2427  0.4899
 1697W        W 5897   7.046   1.745   3.922  0.1396  0.1289  0.1974
 1698W        W 5898   9.658   0.380  11.287 -0.3047 -0.0942 -0.2853
 1699W        W 5899   8.883   3.680   1.891 -0.2465 -0.2706 -0.3065
 1700W        W 5900   2.769   6.337   0.024 -0.0826 -0.0639  0.1577
 1701W        W 5901   7.639   7.467   9.685  0.1761 -0.1320  0.0507
 1702W        W 5902   6.087   9.693   9.813 -0.0106  0.1332 -0.1620
 1703W        W 5903   6.142   2.481  10.653 -0.0939 -0.2713  0.2226
 1704W        W 5904   3.402   6.233  10.856 -0.3182  0.1469  0.2333
 1705W        W 5905   2.570   3.379   0.313 -0.1097  0.2914 -0.2516
 1706W        W 5906   1.934   1.650   5.585  0.1569  0.1452  0.3679
 1707W        W 5907   4.111   2.963  11.922 -0.1384 -0.2808 -0.0211
 1708W        W 5908   8.225   0.314   3.796  0.2252  0.2457  0.0944
 1709W        W 5909   2.212   1.851   3.463  0.2505  0.0156 -0.0311
 1710W        W 5910   2.810   6.149   2.701 -0.0237  0.0865 -0.2200
 1711W        W 5911   1.138   2.537  11.600  0.0284 -0.0592 -0.2155
 1712W        W 5912   5.135   5.122   0.711  0.0108  0.1344 -0.2599
 1713W        W 5913   7.981   3.463  11.338  0.0726  0.3303 -0.0736
 1714W        W 5914   8.988   4.702   3.662 -0.0594  0.2053  0.2283
 1715W        W 5915   8.435   8.104  12.549  0.0054  0.3976  0.2836
 1716W        W 5916   1.635   4.282  10.841 -0.1008 -0.3433  0.1896
 1717W        W 5917   5.205   2.641   4.360 -0.1412  0.1550 -0.0307
 1718W        W 5918   3.826   1.026   9.211  0.1691 -0.4156 -0.1467
 1719W        W 5919   9.122   0.925   0.828  0.1065 -0.0158  0.0413
 1720W        W 5920   6.480   8.869  10.989  0.1312 -0.3846  0.2618
 1721W        W 5921   1.539   7.873  11.160  0.1788 -0.1300  0.2119
 1722W        W 5922   9.556   5.747   2.062  0.1497 -0.2461 -0.1605
 1723W        W 5923   5.282   1.704   4.237 -0.0555  0.0260 -0.0967
 1724W        W 5924   8.591   3.496   3.537 -0.2724 -0.0784 -0.0309
 1725W        W 5925  10.050   8.642   3.810 -0.0856  0.0007  0.1399
 1726W        W 5926   8.441   6.414  10.222 -0.3889  0.3379 -0.3250
 1727W        W 5927   1.363   6.944  11.238 -0.1503 -0.2997 -0.1344
 1728W        W 5928   6.770   2.646  12.394  0.2252  0.0413 -0.2606
 1729W        W 5929   1.390   8.183   3.072  0.1918 -0.0765  0.0444
 1730W        W 5930   5.154   6.890   2.434 -0.3042 -0.1157 -0.0889
 1731W        W 5931   4.218   5.678  10.683 -0.0244  0.0936 -0.1568
 1732W        W 5932   8.780   5.199   3.899  0.3235  0.0316  0.3805
 1733W        W 5933   4.230   1.238   1.930 -0.2241 -0.0376 -0.0557
 1734W        W 5934   1.068   0.299  11.994  0.0838  0.0066 -0.0504
 1735W        W 5935   7.727   8.866   2.942  0.3747 -0.0712 -0.1928
 1736W        W 5936   2.783   0.599  10.993  0.4637 -0.0261 -0.1263
 1737W        W 5937   8.280   9.452  11.416  0.0944 -0.0333 -0.1353
 1738W        W 5938   9.393   5.605   0.158  0.0162 -0.1217  0.0665
 1739W        W 5939   6.889   6.836   0.084 -0.1744 -0.1601 -0.2386
 1740W        W 5940   3.950   6.487  12.341  0.1206 -0.1203 -0.1302
 1741W        W 5941   7.926   1.623  13.022  0.3684  0.0764  0.2943
 1742W        W 5942   0.499   8.033  10.517  0.2253  0.2397  0.0027
 1743W        W 5943   4.574   3.623  11.018  0.0868 -0.1769  0.0042
 1744W        W 5944   8.082   9.693  10.151  0.2548 -0.0216  0.0983
 1745W        W 5945   8.328   7.993   0.101  0.0575  0.2441 -0.0183
 1746W        W 5946   7.879   0.109   4.242 -0.1842 -0.1268  0.1536
 1747W        W 5947   8.523   7.797  13.118  0.2837 -0.0384  0.0311
 1748W        W 5948   8.864   8.190  13.175  0.1087  0.1938 -0.1097
 1749W        W 5949   2.945   0.811  11.940  0.0932 -0.0793 -0.1558
 1750W        W 5950   6.410   3.611   3.241 -0.1953  0.1561 -0.1802
 1751W        W 5951   3.402   1.431   2.303  0.1363  0.2250 -0.2624
 1752W        W 5952  10.333   6.642  12.589  0.0627  0.2353  0.2196
 1753W        W 5953   7.343   9.430   1.192  0.2349 -0.2487 -0.0988
 1754W        W 5954   9.413   3.464   4.288 -0.0461 -0.2597  0.0560
 1755W        W 5955   2.863  10.342   3.923 -0.3671 -0.0395 -0.2675
 1756W        W 5956   6.147   7.530  12.331  0.0315  0.0913 -0.0975
 1757W        W 5957   5.435   9.518   1.144  0.1732  0.1831  0.0913
 1758W        W 5958   7.523   5.189   3.228 -0.2351  0.0218 -0.2545
 1759W        W 5959   7.554   5.632   2.908  0.1708 -0.1855  0.1008
 1760W        W 5960  10.373   4.966   2.471  0.0717 -0.3867  0.0062
 1761W        W 5961   7.167   8.213  11.860 -0.1125  0.2163 -0.0472
 1762W        W 5962   5.403   2.423   0.866  0.0917 -0.1375 -0.2244
 1763W        W 5963   1.468   6.170  12.946 -0.0954 -0.2557  0.0881
 1764W        W 5964   1.690   7.918  13.370 -0.0670 -0.1064 -0.0842
 1765W        W 5965   4.079   0.662   8.991 -0.0808 -0.1925 -0.0165
 1766W        W 5966   0.182   1.068  10.426  0.0187 -0.1319 -0.1099
 1767W        W 5967   6.755   5.143   0.004  0.0964 -0.0360  0.1456
 1768W        W 5968   1.616   8.408  13.282  0.1137 -0.3238  0.2715
 1769W        W 5969   3.102   4.963  12.481  0.2069  0.2716  0.1664
 1770W        W 5970   0.562   1.206   1.192  0.0604 -0.3559 -0.1057
 1771W        W 5971  10.093   7.292  13.324 -0.0734 -0.0838 -0.0141
 1772W        W 5972   0.365   3.099   9.879  0.1448  0.2114 -0.0907
 1773W        W 5973   4.366   7.631   3.723  0.0569  0.1721  0.1718
 1774W        W 5974   4.340   8.228   1.890 -0.0751 -0.0124 -0.1348
 1775W        W 5975   4.025   8.392  10.106  0.0907  0.3037 -0.0374
 1776W        W 5976   0.566   5.596   3.167 -0.2176  0.3650 -0.2696
 1777W        W 5977   2.450   3.639   9.672  0.0013 -0.0378  0.3033
 1778W        W 5978   0.702   0.388   9.994  0.0636 -0.1104 -0.0963
 1779W        W 5979   3.273   3.091   0.247  0.0821 -0.0755 -0.4822
 1780W        W 5980   4.516   0.013   9.568  0.2866  0.1595  0.0911
 1781W        W 5981   0.698   6.938  11.977  0.3337  0.3659 -0.0317
 1782W        W 5982   3.935   0.479   4.249 -0.0747  0.2598 -0.2312
 1783W        W 5983   1.860   9.964  11.028 -0.4001  0.0162 -0.1082
 1784W        W 5984   4.016   8.829   4.428 -0.1202 -0.0792 -0.0495
 1785W        W 5985   2.066   0.831  10.646  0.1098 -0.0330  0.0477
 1786W        W 5986   1.132   8.277   2.152 -0.2991 -0.0290  0.1272
 1787W        W 5987   3.226   6.817  11.413 -0.0540  0.2100 -0.1430
 1788W        W 5988   2.990   9.779   1.010  0.3210  0.3218 -0.0373
 1789W        W 5989   2.324   4.022   4.152 -0.3143 -0.1367  0.1350
 1790W        W 5990   9.313   6.436  12.746 -0.0272  0.1604  0.0511
 1791W        W 5991   5.459   2.012   2.447  0.1299  0.2195  0.0587
 1792W        W 5992   0.748   9.754   0.724  0.1359  0.2473  0.3102
 1793W        W 5993   7.338   3.106   2.448  0.1060  0.1227  0.2031
 1794W        W 5994   6.669   3.532   4.899 -0.0737  0.1519 -0.1980
 1795W        W 5995   3.141   3.519  11.282 -0.4204  0.1197  0.1689
 1796W        W 5996   5.087   4.909  10.001 -0.3537  0.3820 -0.0377
 1797W        W 5997   5.519   6.428   8.993  0.2005 -0.3530 -0.0475
 1798W        W 5998   7.699   9.265   0.264  0.1371  0.1162 -0.0043
 1799W        W 5999  10.082   7.842   0.083 -0.3116 -0.0386  0.2428
 1800W        W 6000   6.006  10.355   2.371  0.0301  0.1197 -0.0603
 1801W        W 6001   0.077   8.793   2.886 -0.0404 -0.1576  0.1842
 1802W        W 6002   7.379  10.445   1.085 -0.1664 -0.0911  0.1939
 1803W        W 6003   3.200   3.271   0.683 -0.2227  0.0243 -0.0926
 1804W        W 6004   8.007   7.561   0.801 -0.1119  0.0468 -0.2999
 1805W        W 6005   3.964   0.328  13.201  0.2742 -0.2649 -0.1813
 1806W        W 6006   8.993   9.819  12.459 -0.1836  0.3008  0.0514
 1807W        W 6007   8.864   7.859   4.777 -0.1660  0.0444  0.1191
 1808W        W 6008   5.016   4.599   1.438 -0.1200 -0.1233 -0.0617
 1809W        W 6009   7.849   7.143  11.766  0.0376  0.0351 -0.1712
 1810W        W 6010  10.290   4.004   2.348 -0.0960  0.1472 -0.1645
 1811W        W 6011   7.551   2.471   9.532 -0.2107  0.3345  0.0129
 1812W        W 6012   8.206   0.856   3.261 -0.1204  0.0608 -0.0651
 1813W        W 6013   0.999   2.660   1.483  0.2347  0.2197  0.0902
 1814W        W 6014   4.979   1.666  11.333  0.0307  0.1533  0.0485
 1815W        W 6015   3.355  10.164   3.719 -0.1743 -0.1256  0.4012
 1816W        W 6016   7.632   2.605   4.496 -0.4746  0.0637  0.1185
 1817W        W 6017   8.415   1.247   8.630 -0.0663  0.0350 -0.1741
 1818W        W 6018   1.884   0.254  12.114  0.0314 -0.1889 -0.2562
 1819W        W 6019   3.833   8.731   1.418 -0.3792 -0.0368  0.0028
 1820W        W 6020   0.414   6.162   0.069  0.1762  0.2114 -0.0946
 1821W        W 6021   9.573   4.649   3.774 -0.2843 -0.0431  0.0257
 1822W        W 6022   0.240   5.338   2.180  0.0898 -0.1300  0.1572
 1823W        W 6023   8.638   6.776   9.330 -0.1938 -0.1408  0.0274
 1824W        W 6024   0.438   4.676   1.219 -0.1008 -0.1675 -0.4265
 1825W        W 6025   4.275   2.846   2.380 -0.3410  0.0330  0.2306
 1826W        W 6026  10.407   9.415   4.288  0.3630 -0.0258  0.0355
 1827W        W 6027   6.665  10.160   4.940  0.1920  0.0661 -0.1587
 1828W        W 6028   6.399   3.447   0.562  0.0056  0.0803  0.0057
 1829W        W 6029   4.504   5.089  11.282  0.1295  0.2352  0.1241
 1830W        W 6030   3.957   7.682   0.997 -0.1010 -0.0434 -0.0651
 1831W        W 6031   1.954   8.441   2.476  0.0228  0.1515 -0.0821
 1832W        W 6032   5.841   0.133   3.428  0.0467  0.3406  0.1824
 1833W        W 6033   5.301   9.750   3.315  0.1174 -0.0812 -0.0902
 1834W        W 6034   9.515   6.992  10.730 -0.1035 -0.2731 -0.0189
 1835W        W 6035   9.907   2.549  10.064  0.0640 -0.1738 -0.1041
 1836W        W 6036   0.285   9.951   0.620  0.2559 -0.0569 -0.2192
 1837W        W 6037   0.861   4.896  12.003 -0.2660 -0.1345  0.3367
 1838W        W 6038   5.622   3.043   2.921 -0.1665  0.1417  0.0759
 1839W        W 6039   0.004  10.203  13.032 -0.1021 -0.3043 -0.1611
 1840W        W 6040   0.704   2.321  10.534  0.2281  0.1929  0.0016
 1841W        W 6041   6.027   1.285   9.348  0.3081  0.1144  0.1060
 1842W        W 6042   2.244  10.425   3.853  0.3244 -0.0732  0.0550
 1843W        W 6043  10.014   3.032   3.412  0.1297 -0.3010 -0.2607
 1844W        W 6044   3.892   5.349  13.317  0.0572  0.1080 -0.0805
 1845W        W 6045  10.074   1.213   2.822  0.0709  0.1728 -0.0250
 1846W        W 6046   0.988   4.490   1.246 -0.0082 -0.1349  0.1271
 1847W        W 6047  10.370   7.545   1.690  0.1163  0.1025  0.0683
 1848W        W 6048   5.467   4.542   2.421  0.0441  0.0943  0.1830
 1849W        W 6049   5.217   0.136  11.717  0.0055  0.2089 -0.4072
 1850W        W 6050  10.205   5.721  12.517  0.2643 -0.2241  0.0179
 1851W        W 6051   2.137   1.175   5.580  0.1303 -0.0890 -0.0664
 1852W        W 6052   2.863   8.013  12.461 -0.2577 -0.2997  0.2881
 1853W        W 6053   9.930   5.901  11.927 -0.1789 -0.1375 -0.0255
 1854W        W 6054   7.863   9.146  11.346  0.1117 -0.0802 -0.2141
 1855W        W 6055   4.429  10.373  11.133  0.2339 -0.0556  0.0457
 1856W        W 6056   7.345   8.348   8.888 -0.1785  0.2237  0.4151
 1857W        W 6057   7.671   3.739   4.100  0.0107 -0.1749 -0.0197
 1858W        W 6058   7.559   3.881  12.887  0.0067  0.3194 -0.2061
 1859W        W 6059   1.983   5.261  11.980  0.1363 -0.2024  0.0506
 1860W        W 6060   7.585   2.973   0.498  0.2364 -0.4218 -0.0095
 1861W        W 6061   6.905   1.483   9.251  0.0900  0.3358  0.0224
 1862W        W 6062   2.776   0.404   1.658  0.0607  0.1985 -0.1740
 1863W        W 6063   6.144   5.874   3.633  0.1977  0.1655 -0.1161
 1864W        W 6064  10.321   6.141   0.597  0.1970 -0.1474  0.2131
 1865W        W 6065   0.850   0.206   0.792 -0.0694  0.2253  0.1731
 1866W        W 6066   0.413  10.208   3.950  0.3123 -0.1587 -0.1496
 1867W        W 6067   5.254   6.469   3.252 -0.3942  0.3036 -0.3288
 1868W        W 6068   3.461   1.038   1.242  0.2093  0.0984  0.1183
 1869W        W 6069   4.011   0.735   0.060 -0.0897  0.3856 -0.2365
 1870W        W 6070   0.097   4.224   4.135  0.1330  0.1130  0.0423
 1871W        W 6071   9.936   0.067  12.364  0.0385 -0.0481 -0.0524
 1872W        W 6072   4.614   6.501   0.918 -0.2384 -0.0706 -0.0820
 1873W        W 6073   7.478   4.281   3.732  0.2733 -0.2300  0.0139
 1874W        W 6074   5.952   3.320  10.690  0.0645  0.3441 -0.0740
 1875W        W 6075   6.982   4.643  10.350  0.3208  0.1562  0.0258
 1876W        W 6076   1.346   2.487   2.833 -0.1696 -0.2022 -0.2162
 1877W        W 6077   5.895   5.782   4.076 -0.1502  0.0485 -0.2632
 1878W        W 6078   2.447   9.989   3.819 -0.1362  0.3748  0.2627
 1879W        W 6079   0.980   3.798  11.495 -0.1026 -0.4904 -0.3852
 1880W        W 6080   3.717   0.960  13.212  0.0853  0.2669 -0.1738
 1881W        W 6081   9.631   0.562   1.658  0.2531 -0.0264 -0.1203
 1882W        W 6082   2.491   9.864  11.594 -0.0603 -0.3219 -0.0959
 1883W        W 6083   1.176   3.449  10.981 -0.1722  0.0638 -0.1331
 1884W        W 6084   5.720   5.331   9.775  0.0892  0.1350  0.0525
 1885W        W 6085   6.068   5.392   1.166 -0.0792 -0.1851  0.3787
 1886W        W 6086   8.567   7.593   9.771  0.3704  0.0627 -0.2448
 1887W        W 6087   1.420  10.441   1.923 -0.3943  0.1219  0.1991
 1888W        W 6088   5.465   2.892  12.810  0.6043 -0.2487 -0.5071
 1889W        W 6089   9.123   7.744  11.857  0.1582 -0.2479 -0.0443
 1890W        W 6090   4.874   2.944  12.742  0.2490 -0.1343 -0.0997
 1891W        W 6091   5.844   8.508   0.669  0.2504  0.1526  0.1594
 1892W        W 6092  10.028   6.619   2.685  0.2654  0.1161  0.1466
 1893W        W 6093   9.500   6.241   9.561 -0.2056  0.0944 -0.0638
 1894W        W 6094   7.067   6.347  12.802  0.2786 -0.0409 -0.1123
 1895W        W 6095   6.919   8.623   0.689  0.0051 -0.0302 -0.2376
 1896W        W 6096   6.741   8.652   3.574  0.0331  0.1652 -0.2311
 1897W        W 6097   3.215   9.786  12.744  0.0418  0.3941 -0.5080
 1898W        W 6098   8.261   4.543   0.000  0.0687 -0.0002  0.1507
 1899W        W 6099   8.832   5.097  12.020  0.0903 -0.3604  0.1450
 1900W        W 6100   6.938   5.156   1.534  0.0015  0.1578  0.2068
 1901W        W 6101   0.948   9.559  10.883  0.0698 -0.0212 -0.0020
 1902W        W 6102   6.761   3.443   1.575 -0.1779 -0.1305  0.1249
 1903W        W 6103   5.707   7.354   1.714  0.0782 -0.0329 -0.1800
 1904W        W 6104   9.594   7.339  10.282 -0.0802 -0.2676 -0.3699
 1905W        W 6105   5.967   4.626  13.137  0.0687 -0.1848 -0.0585
 1906W        W 6106   6.756   3.996  12.367  0.0756  0.2327  0.1403
 1907W        W 6107   8.981   7.742   3.493 -0.1432 -0.0821 -0.4575
 1908W        W 6108   1.869   4.155  11.429  0.1432 -0.1177 -0.2296
 1909W        W 6109   3.809  10.316   0.567  0.3605  0.1905 -0.1755
 1910W        W 6110   7.829   0.559  10.608  0.0934  0.1901  0.1877
 1911W        W 6111   8.801   1.174   2.954  0.3776  0.0578 -0.0500
 1912W        W 6112   0.247   0.244   3.812  0.1034 -0.2216  0.3531
 1913W        W 6113   9.174   7.494   2.596 -0.4073  0.2695 -0.3216
 1914W        W 6114   7.718   3.016  11.153  0.0471 -0.2258 -0.0122
 1915W        W 6115   4.340  10.032   3.668  0.1977  0.1357  0.0968
 1916W        W 6116  10.243   6.191   2.826 -0.0734  0.2668  0.2779
 1917W        W 6117  10.278   4.890   3.032  0.2171  0.0264 -0.3207
 1918W        W 6118   4.305   1.582   1.334  0.4522  0.2684 -0.1342
 1919W        W 6119   4.323   2.911   2.895 -0.0100 -0.2982  0.1709
 1920W        W 6120   4.155   7.745  11.846  0.0425  0.0886  0.1176
 1921W        W 6121   9.696   5.421  11.631 -0.0106 -0.1969 -0.1220
 1922W        W 6122   0.267   9.913  12.671  0.1448  0.2860  0.0836
 1923W        W 6123   1.202   4.639   3.509  0.2248  0.1564  0.2087
 1924W        W 6124   1.051   0.290   2.795  0.3532  0.1419  0.0386
 1925W        W 6125   3.424   7.449   3.722  0.3971 -0.3444  0.0457
 1926W        W 6126   6.418   3.003   5.131 -0.0451  0.4174  0.2190
 1927W        W 6127   6.303   6.887  13.132  0.0430  0.1113  0.0010
 1928W        W 6128   2.256   6.526  11.622 -0.3100  0.2678 -0.2586
 1929W        W 6129   7.771   2.632  11.562  0.0364  0.1475  0.1656
 1930W        W 6130   8.879   7.969   9.542  0.4710  0.0844 -0.1678
 1931W        W 6131  10.210   5.742   2.960  0.0796  0.0634 -0.1179
 1932W        W 6132   4.116   9.100   3.492  0.0054  0.1123 -0.1018
 1933W        W 6133   7.581   7.709   1.207 -0.0295 -0.0079  0.1302
 1934W        W 6134   2.258   1.472   3.125  0.1719 -0.3251 -0.0597
 1935W        W 6135   1.162  10.026   3.540 -0.1046 -0.0845  0.4504
 1936W        W 6136   6.845   8.389  13.093  0.0261 -0.0002 -0.0005
 1937W        W 6137   9.803   5.976   2.896  0.3551 -0.1389  0.0449
 1938W        W 6138   2.821   7.599  10.996  0.0683  0.1335  0.1651
 1939W        W 6139   5.809   8.151  11.250 -0.2795  0.3310  0.2161
 1940W        W 6140   5.299   0.001  11.261 -0.1411  0.2813 -0.2003
 1941W        W 6141   1.980  10.265  13.210  0.1057  0.2365 -0.0526
 1942W        W 6142   0.742   3.488  11.216 -0.1611  0.2349 -0.0435
 1943W        W 6143  10.278   2.783  12.996  0.0717 -0.1894  0.0137
 1944W        W 6144   0.328   2.135   1.748 -0.1141 -0.2314 -0.1661
 1945W        W 6145   1.974   8.043   2.945  0.1011 -0.2014 -0.0789
 1946W        W 6146   9.887   3.039  12.138 -0.0397 -0.2682  0.2949
 1947W        W 6147   8.061   2.632   9.385 -0.2420  0.2903 -0.0106
 1948W        W 6148   5.964   0.318  11.153  0.1719  0.2934  0.0796
 1949W        W 6149   6.544   7.711   3.661 -0.0278 -0.0285  0.0521
 1950W        W 6150   1.285  10.376   5.373  0.0623  0.1310  0.2502
 1951W        W 6151   2.730   1.488   8.680 -0.3022 -0.4226 -0.0762
 1952W        W 6152   7.041   0.431   2.551  0.1009  0.2296 -0.1262
 1953W        W 6153   7.539   6.228  13.178 -0.0596  0.0827  0.0239
 1954W        W 6154  10.447   3.950   0.719 -0.1228 -0.0542  0.1751
 1955W        W 6155   8.068   7.629  10.957 -0.0640 -0.2457 -0.0702
 1956W        W 6156  10.449   5.609   0.890  0.0582  0.1524 -0.1238
 1957W        W 6157  10.127   2.441   1.965  0.0097 -0.4101  0.0974
 1958W        W 6158   7.278   9.223  12.974  0.2336  0.1833 -0.0517
 1959W        W 6159   2.787   7.900   3.147  0.1857  0.5292 -0.2047
 1960W        W 6160   1.467   2.480   0.280 -0.1374 -0.0446 -0.1113
 1961W        W 6161   1.415   7.670   0.328  0.0928 -0.1761  0.2235
 1962W        W 6162   9.155   4.142  10.364  0.1428 -0.3742  0.1227
 1963W        W 6163   9.369  10.210  11.286 -0.0209 -0.0892  0.1882
 1964W        W 6164   9.736   0.241   2.091  0.2361 -0.0052  0.1802
 1965W        W 6165   1.789   9.088   0.334 -0.3326 -0.1610 -0.0287
 1966W        W 6166   4.887  10.358   0.886  0.3067  0.2284  0.1378
 1967W        W 6167   3.216   8.896  12.902 -0.0062 -0.1663  0.0179
 1968W        W 6168   4.515   1.037   0.183  0.2344 -0.1183  0.1251
 1969W        W 6169   0.662   2.578  12.116  0.1248  0.1023 -0.1069
 1970W        W 6170   7.317   0.560   2.914  0.0059 -0.1500 -0.1994
 1971W        W 6171   5.667   3.178   9.383 -0.0145  0.0296  0.1464
 1972W        W 6172   5.606   1.604   9.223 -0.2334  0.0673  0.3113
 1973W        W 6173   6.827   2.609   0.588  0.0159 -0.1141  0.0428
 1974W        W 6174   1.689   9.709  12.952 -0.2319  0.3199  0.1704
 1975W        W 6175   6.619   9.620   0.510 -0.0340  0.1364 -0.3800
 1976W        W 6176   3.896   3.174  11.471  0.0599  0.3406  0.0341
 1977W        W 6177   0.258   7.266   1.392 -0.0248 -0.2842 -0.1262
 1978W        W 6178   4.188   6.153   0.573 -0.1618  0.1276  0.0306
 1979W        W 6179   4.223   9.356   9.677 -0.0361 -0.1905  0.2481
 1980W        W 6180   2.969   8.217   3.548 -0.1248 -0.2204 -0.0382
 1981W        W 6181   8.035   8.187   3.281  0.0886 -0.3909  0.3288
 1982W        W 6182   3.746   1.877   8.825  0.0492 -0.5169  0.0574
 1983W        W 6183   6.988   9.204   0.506  0.0013 -0.0776 -0.2939
 1984W        W 6184   6.735   5.805  10.941  0.1726 -0.0768  0.2067
 1985W        W 6185   2.323   8.256   3.259 -0.2972 -0.2154 -0.1697
 1986W        W 6186   9.088   7.945   1.298  0.0742 -0.1458  0.2629
 1987W        W 6187   4.024   3.744  12.789 -0.1069  0.1627 -0.2099
 1988W        W 6188   0.167   3.740   1.941  0.2333 -0.1137 -0.0535
 1989W        W 6189   5.093   8.447  10.080 -0.0666  0.1743  0.0216
 1990W        W 6190   9.660   6.952   1.903  0.0049 -0.2570 -0.1463
 1991W        W 6191   2.407   7.246  13.380 -0.0175 -0.2041  0.0113
 1992W        W 6192   3.779   3.101   2.411  0.1876 -0.1368 -0.0532
 1993W        W 6193   5.329   4.425  12.511 -0.3638  0.0439 -0.0214
 1994W        W 6194   7.141   7.148   0.495 -0.0587  0.2049  0.1620
 1995W        W 6195   8.575   6.964   3.803 -0.2840  0.0787 -0.2064
 1996W        W 6196   8.946   9.775   1.180 -0.1508 -0.1331  0.0576
 1997W        W 6197   0.608   7.664   2.220 -0.2607 -0.1896  0.1324
 1998W        W 6198   9.010  10.054  12.896 -0.1869  0.3112 -0.1743
 1999W        W 6199   6.224   3.179  12.004 -0.0547 -0.0525  0.3329
 2000W        W 6200   3.565   8.625   4.124  0.4012 -0.1048  0.2148
 2001W        W 6201   4.369   1.001   8.960  0.0732 -0.1836  0.4668
 2002W        W 6202   6.880   9.140   3.856  0.1985  0.3617 -0.0449
 2003W        W 6203   3.800   7.327   9.126  0.1505  0.0256  0.0438
 2004W        W 6204   9.588   1.872   9.256 -0.4587  0.1513  0.1497
 2005W        W 6205   1.039   2.555   0.621 -0.2510  0.1428  0.1223
 2006W        W 6206   3.656   4.247   2.695 -0.0441 -0.2563 -0.0036
 2007W        W 6207   0.956   3.533  13.075 -0.1607  0.0166  0.1075
 2008W        W 6208   3.232   1.382  10.000 -0.1255 -0.4587 -0.2587
 2009W        W 6209   8.277   5.816  12.062  0.2622  0.1343 -0.2914
 2010W        W 6210   9.821   9.541   0.437 -0.1089 -0.0829 -0.3089
 2011W        W 6211   3.806   5.016  10.424  0.1053 -0.1056  0.0368
 2012W        W 6212   2.611   4.108  12.690  0.1676 -0.4570 -0.1960
 2013W        W 6213   9.070   2.284   1.636  0.1388 -0.0726 -0.1073
 2014W        W 6214   2.171   9.260   0.649 -0.1511 -0.0596 -0.1428
 2015W        W 6215   9.792   8.220   0.841 -0.0789  0.0746  0.2537
 2016W        W 6216   7.924   8.257  11.205 -0.0191  0.3359 -0.0804
 2017W        W 6217   2.631   9.186  10.247 -0.4537 -0.1136  0.0262
 2018W        W 6218   2.833   1.163  12.297  0.0383  0.0529 -0.2245
 2019W        W 6219   1.255   9.150   4.932 -0.0656 -0.0006  0.1012
 2020W        W 6220   7.877   8.846  12.324 -0.2700 -0.0386  0.2792
 2021W        W 6221   5.060   6.887   9.688 -0.0749 -0.1195 -0.1546
 2022W        W 6222   1.248   0.853   0.602 -0.0312 -0.0080  0.0327
 2023W        W 6223   8.283   9.129   3.402  0.0260  0.1305  0.0214
 2024W        W 6224   2.696   9.859  10.966 -0.2490  0.1533  0.2160
 2025W        W 6225   3.948   7.524   2.806  0.0747  0.2957  0.0372
 2026W        W 6226   9.287   4.697   4.930 -0.3068 -0.2935  0.1311
 2027W        W 6227   3.794   9.572   4.190 -0.1714 -0.1120  0.3189
 2028W        W 6228   7.314   9.540  12.527  0.1900  0.0786 -0.0478
 2029W        W 6229   1.605   9.912  10.622 -0.1711  0.1233 -0.1296
 2030W        W 6230   4.310   8.645   1.063  0.0081 -0.1095  0.0863
 2031W        W 6231   6.211   8.293  12.423 -0.0140 -0.1381 -0.2082
 2032W        W 6232   4.261   6.752   1.155  0.1971  0.0211  0.1610
 2033W        W 6233   7.843   6.636   1.825  0.2223 -0.0907 -0.1610
 2034W        W 6234   6.431   3.717  12.024 -0.0574  0.0996 -0.0175
 2035W        W 6235   1.933   6.896  12.395 -0.0852 -0.0896 -0.1002
 2036W        W 6236   4.064   7.997   0.199  0.0151  0.0090  0.2464
 2037W        W 6237   5.505   3.534   2.840 -0.0250  0.1449  0.0008
 2038W        W 6238   0.434   0.352   4.601  0.2638 -0.1539  0.0727
 2039W        W 6239   1.895   4.597   3.744  0.1509  0.0453 -0.0379
 2040W        W 6240   9.907   3.785   0.667 -0.0246  0.0327 -0.0558
 2041W        W 6241   9.296   9.404   2.625  0.0504  0.0856 -0.4650
 2042W        W 6242   9.052   1.474   1.051  0.3918  0.1441 -0.0768
 2043W        W 6243   9.813   1.655   0.640 -0.0947  0.0301 -0.2693
 2044W        W 6244   4.022   7.405  11.098 -0.1082  0.1087 -0.0477
 2045W        W 6245   3.833   2.025  11.509  0.3496  0.1182  0.1044
 2046W        W 6246   2.326   2.299   2.724 -0.3422  0.0113  0.0572
 2047W        W 6247   5.211   2.011   8.405  0.0758  0.0605  0.0713
 2048W        W 6248   2.671   5.819   0.118  0.0716  0.0391  0.1519
 2049W        W 6249   8.661   2.018   1.582  0.5141  0.0545  0.1846
 2050W        W 6250   9.506   7.989  11.396 -0.1915  0.1544  0.2226
 2051W        W 6251   9.090   1.726   4.921  0.0733  0.1553  0.1499
 2052W        W 6252   3.998   4.360  12.997  0.0423 -0.0336 -0.3435
 2053W        W 6253   6.529   7.666  11.876 -0.0269  0.1603 -0.1057
 2054W        W 6254   8.141   3.185   9.237 -0.0982 -0.1717 -0.1349
 2055W        W 6255   8.370   4.540  10.374 -0.0869 -0.1073 -0.1676
 2056W        W 6256   8.529   2.619   3.412 -0.2546  0.1918  0.0541
 2057W        W 6257   4.811   5.582   5.362  0.0518  0.0756  0.3791
 2058W        W 6258   1.460   0.681  12.193  0.4082 -0.1025 -0.0501
 2059W        W 6259   7.732   1.294  11.446  0.2553 -0.0284  0.0501
 2060W        W 6260   8.965   0.925   9.705 -0.0785 -0.0794  0.0759
 2061W        W 6261   3.678   9.489  12.371 -0.0108 -0.2956  0.1223
 2062W        W 6262   9.530   9.267   3.963  0.2022  0.0374 -0.3745
 2063W        W 6263   5.442   2.285  12.041 -0.0672  0.0612 -0.1007
 2064W        W 6264   4.356   7.655  10.257  0.0287 -0.0129 -0.1963
 2065W        W 6265   6.162   0.016   0.472 -0.1927  0.2684 -0.2798
 2066W        W 6266   9.056   4.034   9.353 -0.2799 -0.1579  0.3521
 2067W        W 6267  10.057   4.065   4.884 -0.2854  0.2830  0.3046
 2068W        W 6268   8.940   9.214  12.999  0.0464  0.5313 -0.3528
 2069W        W 6269   0.472   6.706  11.095 -0.0399 -0.0539  0.2206
 2070W        W 6270   0.235   1.816  11.007 -0.0376  0.0696 -0.1511
 2071W        W 6271   9.888   2.069  11.347 -0.0791  0.1861  0.1425
 2072W        W 6272   3.155   0.163   5.554 -0.1980  0.0361 -0.0681
 2073W        W 6273   7.867   0.825   0.181 -0.0611  0.2366 -0.3632
 2074W        W 6274   7.377   2.636   2.592 -0.1505  0.0257  0.1760
 2075W        W 6275   5.157   0.593   9.781  0.1447 -0.0453  0.2831
 2076W        W 6276   4.096   1.482  12.069 -0.3462  0.0169  0.2620
 2077W        W 6277   1.382   7.435  11.726 -0.0503  0.0987 -0.0037
 2078W        W 6278   6.024   1.046   3.222  0.0781  0.2599  0.1015
 2079W        W 6279   7.473   9.187   2.199  0.1402 -0.1878 -0.0759
 2080W        W 6280   1.709   1.260  10.807  0.0379 -0.0892 -0.0807
 2081W        W 6281   7.522   8.679   0.950  0.0857  0.0916 -0.1693
 2082W        W 6282  10.445   9.941   3.166 -0.0269  0.0997  0.0266
 2083W        W 6283   3.314   0.479   0.319  0.3892  0.3825  0.2259
 2084W        W 6284   0.227   5.474   0.437 -0.2777 -0.0281  0.2684
 2085W        W 6285   5.897   4.636  10.463 -0.1554 -0.0031  0.2626
 2086W        W 6286   4.524   2.645   1.073 -0.1786 -0.0302  0.0862
 2087W        W 6287   3.511   2.318   3.532  0.0990 -0.2775  0.0607
 2088W        W 6288   9.494   1.594   1.302 -0.0504  0.0625  0.0195
 2089W        W 6289   2.658   3.120   0.789  0.3440 -0.0469  0.2078
 2090W        W 6290   0.178   9.352   2.925  0.1099  0.2258 -0.2585
 2091W        W 6291   9.434   2.802   9.293  0.2290 -0.1110  0.0394
 2092W        W 6292   7.186   7.113   2.685 -0.3676 -0.0754 -0.1400
 2093W        W 6293   9.209   6.848  13.054  0.1392 -0.2414  0.3426
 2094W        W 6294   0.379   0.373  13.237  0.5192 -0.1747 -0.2864
 2095W        W 6295   1.382   7.862   2.124 -0.1016  0.2582 -0.1154
 2096W        W 6296   3.441  10.214   4.670  0.1187  0.0572  0.0019
 2097W        W 6297   1.590   9.402  10.372  0.0378  0.3080 -0.0470
 2098W        W 6298   7.383   8.991  13.430 -0.0754 -0.0186 -0.0517
 2099W        W 6299   6.866   8.927  13.137 -0.2051 -0.0391 -0.4912
 2100W        W 6300   7.570   7.635  11.018  0.1467  0.0071 -0.1733
 2101W        W 6301   7.145   2.687   4.394  0.0027  0.3639 -0.0324
 2102W        W 6302   4.305   1.145   3.303 -0.0697  0.0125  0.0371
 2103W        W 6303   0.987   2.180   0.269  0.0044  0.1110 -0.0287
 2104W        W 6304   3.521   4.253  12.934 -0.0125  0.0466  0.1802
 2105W        W 6305   2.299   2.326   3.665  0.0420 -0.0781 -0.1438
 2106W        W 6306   6.723   0.068   2.520 -0.3604  0.0599  0.0398
 2107W        W 6307  10.315   2.239  12.233 -0.3089 -0.1316  0.1060
 2108W        W 6308   2.015   9.776   1.908 -0.0121 -0.0165  0.0697
 2109W        W 6309   8.448   0.465  12.491 -0.0033 -0.0162 -0.0724
 2110W        W 6310   5.819   8.681   9.708 -0.0924 -0.0367 -0.2929
 2111W        W 6311   7.406   1.903  10.509 -0.0769  0.1712  0.1085
 2112W        W 6312   6.490   2.271  12.259 -0.2345 -0.1209  0.0549
 2113W        W 6313  10.298   1.393  10.173 -0.1083 -0.3592 -0.0257
 2114W        W 6314   5.504   7.556   5.139 -0.1162 -0.0350 -0.0337
 2115W        W 6315   7.144   7.821  10.072 -0.1746 -0.0254 -0.2094
 2116W        W 6316  10.092   1.412  10.652 -0.2988 -0.1024  0.2476
 2117W        W 6317   3.130   1.636  10.437  0.0034 -0.0130  0.1446
 2118W        W 6318   7.238   3.964  12.507  0.0934 -0.0206  0.0106
 2119W        W 6319   4.553   6.338   2.303  0.2323  0.3046  0.1686
 2120W        W 6320   7.142   1.531  11.299  0.2112  0.2581 -0.1013
 2121W        W 6321   0.587   7.792  12.072 -0.0475  0.1926 -0.0217
 2122W        W 6322   9.634   9.815   4.654 -0.3097  0.1503 -0.0094
 2123W        W 6323   3.021   4.279   0.859  0.0554 -0.1840  0.3003
 2124W        W 6324   4.626   7.911  11.827  0.2327  0.0245  0.1146
 2125W        W 6325   3.758   7.726  13.027  0.1632 -0.2403 -0.0146
 2126W        W 6326   1.906   0.352  10.517 -0.2203  0.2600  0.0641
 2127W        W 6327   3.748   9.534  10.153 -0.4832  0.2579 -0.0409
 2128W        W 6328   8.583   2.088   3.172  0.1903  0.2037 -0.3287
 2129W        W 6329   8.124   7.438   5.335 -0.0235 -0.2525 -0.2589
 2130W        W 6330   5.051   6.395   2.381  0.4197  0.3908 -0.3294
 2131W        W 6331   0.496   7.558   1.709  0.1402 -0.0182  0.0871
 2132W        W 6332   7.726   7.205  10.243  0.2943 -0.0292  0.0519
 2133W        W 6333   4.566   7.331  11.079  0.1042  0.0654 -0.1185
 2134W        W 6334   4.994   3.536  10.679 -0.2594  0.0678  0.2123
 2135W        W 6335   2.291   3.772  13.440 -0.0561 -0.1888  0.0361
 2136W        W 6336   4.721   9.666  12.401  0.2254  0.3739 -0.1523
 2137W        W 6337   9.810   8.856   2.117 -0.1249  0.0314  0.2788
 2138W        W 6338   2.435   2.871  12.355 -0.1338 -0.2188  0.3385
 2139W        W 6339   5.568   6.546   0.001  0.1244 -0.0057  0.1333
 2140W        W 6340   5.834   9.976   4.755 -0.1211 -0.2137 -0.1416
 2141W        W 6341   4.732   0.061   2.981  0.0047  0.0669 -0.2194
 2142W        W 6342   1.185   5.483  11.346  0.4326 -0.3176  0.1778
 2143W        W 6343   3.267   7.118  12.325  0.1997 -0.2207 -0.1026
 2144W        W 6344   6.429   0.609   1.427 -0.2963  0.4709 -0.2384
 2145W        W 6345   4.218   7.343   3.234 -0.0917  0.0577 -0.0438
 2146W        W 6346   5.248  10.064   3.724  0.1461  0.0053  0.0328
 2147W        W 6347   7.902   3.695   0.688  0.1318  0.1635 -0.0380
 2148W        W 6348   3.411   9.322  11.886 -0.2964  0.0887 -0.0451
 2149W        W 6349   1.439   8.143   3.732  0.0867 -0.3444 -0.0028
 2150W        W 6350   9.287   9.104  11.577 -0.0217  0.1017 -0.1988
 2151W        W 6351   2.619   7.522   0.745  0.1198  0.1432  0.0352
 2152W        W 6352   2.787   6.695   2.191  0.0165  0.0873  0.2756
 2153W        W 6353   7.612   8.454   8.300  0.1475 -0.1823 -0.1764
 2154W        W 6354   1.368   9.234   3.968  0.1218 -0.0606  0.1199
 2155W        W 6355   3.999   3.737  12.243 -0.2998 -0.0855 -0.3474
 2156W        W 6356   7.085   9.741   1.501  0.0915 -0.0395 -0.2837
 2157W        W 6357   4.176   9.364  10.997  0.0804 -0.0565 -0.2969
 2158W        W 6358   0.414   5.398  10.947  0.2236 -0.1947  0.0909
 2159W        W 6359   0.150   1.826   3.841 -0.0069 -0.1827  0.0933
 2160W        W 6360   8.304  10.322   3.469 -0.2528 -0.0448 -0.1254
 2161W        W 6361   3.114   5.541   2.729  0.3506  0.0438 -0.1310
 2162W        W 6362   1.466   0.456  11.732  0.0483  0.0568 -0.3087
 2163W        W 6363   0.284   7.120   9.971 -0.0310 -0.1406 -0.0341
 2164W        W 6364   6.327   7.041  12.428 -0.3395 -0.0604 -0.3015
 2165W        W 6365   1.861   4.063   5.035 -0.1646 -0.1084  0.1473
 2166W        W 6366   1.104   9.880   0.279  0.0704 -0.0442  0.0648
 2167W        W 6367   3.854   2.662   9.732  0.0591 -0.1751  0.0528
 2168W        W 6368   9.268   1.615   4.421 -0.0255 -0.4403  0.2345
 2169W        W 6369   0.376   3.892   3.915  0.1425  0.0566 -0.3751
 2170W        W 6370   8.078   1.268   3.651  0.0962  0.0808  0.0035
 2171W        W 6371   0.705   9.909   4.678  0.1548 -0.0815  0.0265
 2172W        W 6372   8.811   1.660   2.994 -0.0283 -0.2512 -0.1299
 2173W        W 6373   5.861   4.862   0.237 -0.0587 -0.2697  0.0826
 2174W        W 6374   2.259   0.436   1.061  0.1748 -0.0342 -0.0976
 2175W        W 6375   8.668   3.017   3.181  0.2401 -0.7183 -0.3667
 2176W        W 6376   5.888   4.388   2.804  0.0460  0.4334  0.1643
 2177W        W 6377   2.752   2.058  10.274  0.1924 -0.0236  0.2448
 2178W        W 6378   8.903   8.068   2.150 -0.2169  0.0580 -0.0128
 2179W        W 6379   2.645   3.206  12.012 -0.1385 -0.0133  0.2348
 2180W        W 6380   3.000   1.580   5.552 -0.2170 -0.0189  0.0854
 2181W        W 6381   5.249   0.842   3.567  0.1217  0.0280 -0.1037
 2182W        W 6382   7.762   8.336  11.866 -0.4811  0.2888 -0.0248
 2183W        W 6383   9.352   2.697   0.724 -0.0387 -0.0173  0.2812
 2184W        W 6384   9.589   5.484   3.338 -0.1255 -0.0478  0.0629
 2185W        W 6385   0.941   2.239   4.019 -0.2454  0.0941 -0.0466
 2186W        W 6386   7.303   1.152  11.640 -0.2094  0.5322  0.1114
 2187W        W 6387   5.752   2.736   4.223  0.0287  0.0588 -0.0738
 2188W        W 6388   4.273   9.676  10.013 -0.1072  0.0066  0.1403
 2189W        W 6389  10.053  10.363   1.879 -0.2733 -0.0137 -0.1726
 2190W        W 6390   7.291   0.776  11.938 -0.0321  0.3878 -0.0578
 2191W        W 6391   0.328   3.923  12.643  0.1200  0.1393  0.0784
 2192W        W 6392   3.087   0.016   2.653  0.3037 -0.0563  0.1528
 2193W        W 6393   2.465   0.838  12.117  0.0177 -0.0659 -0.0709
 2194W        W 6394   1.311   3.942   1.404 -0.0798 -0.0324  0.2000
 2195W        W 6395   8.624   1.910  12.210 -0.2202  0.1920 -0.2595
 2196W        W 6396   7.868  10.182  11.912  0.1704  0.4232  0.3466
 2197W        W 6397   0.357   0.747   3.181 -0.1713  0.1982  0.0399
 2198W        W 6398   5.444  10.133  10.294 -0.1157  0.1537 -0.1817
 2199W        W 6399   7.572   3.278   5.616  0.0557  0.2228  0.0712
 2200W        W 6400   6.144   8.986  11.460 -0.2090 -0.1558  0.1321
 2201W        W 6401   8.494   5.412  12.287 -0.0248  0.0525 -0.1758
 2202W        W 6402   4.094   5.254   4.158 -0.0855  0.0195 -0.2917
 2203W        W 6403   0.223   0.896  13.078 -0.3534 -0.3782 -0.1625
 2204W        W 6404   8.817   3.988   2.315 -0.2976 -0.0006 -0.0621
 2205W        W 6405   3.788   5.565   1.358  0.1186 -0.3267  0.3425
 2206W        W 6406   5.491   3.578  10.683 -0.0709  0.1751 -0.1134
 2207W        W 6407   7.225  10.361   2.606 -0.1938 -0.4820  0.0370
 2208W        W 6408   2.681   7.923   1.405 -0.2733 -0.3273  0.0812
 2209W        W 6409   7.183   3.940   5.150 -0.3394  0.0491 -0.0190
 2210W        W 6410  10.029   4.338  10.275 -0.2523  0.0888  0.2107
 2211W        W 6411   9.506   2.947   2.069 -0.2145  0.0349  0.1244
 2212W        W 6412   0.585   3.098   0.241 -0.1630  0.2249 -0.1143
 2213W        W 6413   6.090   2.859   9.822  0.1529 -0.0275 -0.0389
 2214W        W 6414   3.407  10.364   0.284 -0.0052  0.0389  0.1107
 2215W        W 6415   5.652   8.673   3.459  0.0705 -0.1516 -0.2852
 2216W        W 6416   5.122   9.457   3.692  0.1628 -0.2428  0.1004
 2217W        W 6417   5.126   2.586   4.839 -0.1046  0.2807 -0.0756
 2218W        W 6418   0.892   9.129  11.582 -0.1412 -0.0438  0.0214
 2219W        W 6419   9.870   9.531  10.839  0.2084  0.0081 -0.1024
 2220W        W 6420   2.861   4.799   3.814  0.4842 -0.1386 -0.1167
 2221W        W 6421   5.623   2.944   3.714 -0.1603  0.0389  0.0511
 2222W        W 6422   9.093   4.004  13.080  0.0117 -0.1626 -0.0809
 2223W        W 6423   0.453   1.777   2.795 -0.0578 -0.1375 -0.0972
 2224W        W 6424   6.399   6.544  11.113 -0.0819  0.0648 -0.1034
 2225W        W 6425  10.417   5.917  12.027 -0.0992  0.2534 -0.1608
 2226W        W 6426   0.981   5.361   1.590 -0.3315 -0.0379  0.0285
 2227W        W 6427   7.914   3.850  11.000  0.0021 -0.2972  0.2314
 2228W        W 6428   0.575   6.934   4.183  0.0449 -0.2430  0.3629
 2229W        W 6429   4.648   4.263   0.241  0.2348  0.2510 -0.0398
 2230W        W 6430   9.367   8.186  11.825  0.0170 -0.1460  0.0819
 2231W        W 6431   1.055   9.399   1.007  0.0665 -0.1473 -0.0705
 2232W        W 6432   3.925   6.631   1.709  0.0559 -0.0245 -0.0769
 2233W        W 6433   1.701   0.375   2.673  0.1238 -0.0170 -0.3985
 2234W        W 6434   7.104   5.415   0.240 -0.2551 -0.0451 -0.0406
 2235W        W 6435   8.429   5.134   0.683 -0.2837 -0.2081 -0.2761
 2236W        W 6436  10.261   3.213   4.270  0.1750  0.2530  0.1119
 2237W        W 6437   8.418   7.863   0.924 -0.6288 -0.2190  0.1127
 2238W        W 6438   7.721   7.304  10.708  0.2684 -0.1272  0.1826
 2239W        W 6439   8.853   0.219   2.827  0.2209 -0.1183  0.0196
 2240W        W 6440   0.577   5.194   1.277 -0.0128  0.4993  0.1362
 2241W        W 6441   1.265   9.625  13.295  0.1655  0.2535 -0.0602
 2242W        W 6442   4.680  10.317   1.831 -0.0870 -0.3201 -0.2458
 2243W        W 6443   1.576   5.395   2.639  0.2052  0.1340 -0.0918
 2244W        W 6444   9.277   0.353  10.964 -0.1190  0.0341  0.1765
 2245W        W 6445   9.844   5.482  12.742  0.1626  0.5762 -0.1600
 2246W        W 6446   1.047   1.570  12.807  0.2220  0.2235 -0.0603
 2247W        W 6447   8.416   5.442   3.554  0.3692 -0.0278  0.1527
 2248W        W 6448   6.059   6.451  13.446  0.0713 -0.1174 -0.0539
 2249W        W 6449   3.879   8.446   1.833 -0.0563 -0.3995  0.3901
 2250W        W 6450   8.920   6.992  11.961 -0.2455 -0.0165 -0.0877
 2251W        W 6451   0.153   5.919  11.558 -0.1563  0.0451  0.0220
 2252W        W 6452   5.209   5.087   4.357 -0.0487 -0.4251 -0.1311
 2253W        W 6453   0.794   7.536  10.647 -0.2175 -0.1391  0.1448
 2254W        W 6454   4.818   1.577   1.190  0.0965  0.0033 -0.1270
 2255W        W 6455   1.073   8.401   2.704 -0.1650  0.0063 -0.1729
 2256W        W 6456   7.940   5.969   3.381  0.0186 -0.1150  0.0807
 2257W        W 6457   4.664   5.849   4.678  0.3154 -0.2406 -0.2456
 2258W        W 6458   1.369   5.050  11.326 -0.0923  0.2396  0.0885
 2259W        W 6459   6.483   6.570   2.640 -0.0454 -0.1959 -0.1873
 2260W        W 6460   4.081   1.562   8.956  0.1442  0.0124 -0.1632
 2261W        W 6461   6.373   3.186   1.370 -0.0216  0.4563 -0.2805
 2262W        W 6462   8.362   8.792   9.325 -0.0995  0.4140 -0.0930
 2263W        W 6463   4.381   0.250   9.961 -0.0964  0.1034 -0.2519
 2264W        W 6464   2.200   6.952  12.987  0.0083 -0.3087  0.5970
 2265W        W 6465   7.943   4.951  11.127 -0.1305 -0.0549 -0.2138
 2266W        W 6466   3.082   2.973   1.423  0.0861 -0.1476 -0.0251
 2267W        W 6467   4.642   5.594   3.602 -0.1282  0.1608 -0.2357
 2268W        W 6468   7.558   6.144   1.417 -0.1737 -0.0219  0.0249
 2269W        W 6469   3.244   8.305  10.936  0.3935  0.3671 -0.0419
 2270W        W 6470   4.061   6.284  11.489  0.0699 -0.1519 -0.1144
 2271W        W 6471   6.241   0.306  12.691  0.2180  0.0248  0.1921
 2272W        W 6472  10.424   0.081   3.344  0.0440 -0.2542  0.0111
 2273W        W 6473   5.413   4.099   9.125 -0.0573  0.2909 -0.1152
 2274W        W 6474   4.881   9.082   9.039 -0.1071  0.1067  0.2473
 2275W        W 6475   9.201   2.749  10.571 -0.0394 -0.2957 -0.1619
 2276W        W 6476   4.093   2.418  10.053 -0.1156 -0.0043  0.0181
 2277W        W 6477   3.247   4.091   0.051 -0.1626  0.2670 -0.1664
 2278W        W 6478   2.461   4.880  13.285 -0.1220 -0.0299  0.3288
 2279W        W 6479  10.093   9.023  10.255  0.2724 -0.1170  0.1388
 2280W        W 6480   2.799   8.593   4.408  0.1523 -0.0919 -0.1487
 2281W        W 6481   6.457   5.293  12.260  0.0226  0.1508 -0.1623
 2282W        W 6482   3.759   5.383   0.840 -0.1491  0.1847 -0.1024
 2283W        W 6483   2.464   5.483   2.623 -0.2179 -0.1820 -0.2514
 2284W        W 6484   6.186   2.654   1.881  0.0476  0.1078  0.0468
 2285W        W 6485   4.344   4.581   8.615 -0.0758  0.0783  0.1958
 2286W        W 6486   9.978   4.172  10.753  0.2038  0.0236  0.0466
 2287W        W 6487   5.040   9.562   1.584  0.1854  0.0786 -0.0944
 2288W        W 6488   1.552   6.788  11.851  0.3339 -0.3346  0.2237
 2289W        W 6489   7.897   7.956   9.391 -0.0288  0.1035 -0.1195
 2290W        W 6490   7.313   6.570   1.203 -0.0545 -0.2350  0.2351
 2291W        W 6491   0.112   6.649   9.805  0.0249  0.3988 -0.2013
 2292W        W 6492   7.465   4.404  12.918  0.1411  0.0055 -0.0069
 2293W        W 6493   5.016   0.510  11.437  0.0357 -0.1915  0.1839
 2294W        W 6494   5.719   9.916   1.642 -0.0320 -0.2576  0.0649
 2295W        W 6495   0.630   1.202   1.707  0.0942  0.1855  0.4058
 2296W        W 6496   3.518  10.030   2.243 -0.0954  0.1549 -0.0465
 2297W        W 6497   2.208   0.928   3.931 -0.0739  0.2573  0.0355
 2298W        W 6498   7.010  10.312   0.742  0.0889  0.0786 -0.1119
 2299W        W 6499   2.356   0.812  11.634  0.0801 -0.2562 -0.0832
 2300W        W 6500   8.482   1.365   0.292  0.0502 -0.1748 -0.0161
 2301W        W 6501   7.358   6.850   3.874 -0.3668 -0.0015  0.0453
 2302W        W 6502   6.143   5.617   1.735 -0.0573 -0.1718  0.1510
 2303W        W 6503   7.551   9.783   3.956  0.4406 -0.1115 -0.0579
 2304W        W 6504   8.380   4.514   9.884 -0.0202 -0.1283  0.0138
 2305W        W 6505   5.868   9.965   2.646 -0.3050  0.2768  0.0011
 2306W        W 6506   0.975   9.485   4.699  0.0786 -0.2258 -0.2312
 2307W        W 6507   6.491   9.106  10.542  0.2714  0.1972  0.0374
 2308W        W 6508   5.175   9.114  12.006 -0.1522  0.1612 -0.4286
 2309W        W 6509   6.732   2.168   0.851 -0.1094  0.1173  0.0101
 2310W        W 6510   0.214   8.028   4.080  0.3881 -0.0345 -0.2755
 2311W        W 6511   2.638   7.602  11.459  0.0794 -0.2769  0.0297
 2312W        W 6512   2.436   1.992   9.864  0.0900 -0.3391  0.2557
 2313W        W 6513   1.231   2.126   5.057 -0.0317  0.1544 -0.0954
 2314W        W 6514   4.823   9.810   3.582 -0.2338  0.2341 -0.1297
 2315W        W 6515   5.866   6.793   0.286 -0.3887 -0.3319 -0.1602
 2316W        W 6516   7.076   9.744   4.180 -0.2527  0.3175 -0.2252
 2317W        W 6517   0.749   1.182   0.684 -0.1737 -0.0853  0.1077
 2318W        W 6518   2.734   1.596   1.654 -0.0792 -0.0382  0.0710
 2319W        W 6519   3.567   7.274   9.555  0.1853 -0.1095  0.1079
 2320W        W 6520   7.096   2.847   9.383 -0.2301  0.0239  0.1486
 2321W        W 6521   4.902   9.082   0.360 -0.0584 -0.2193 -0.2938
 2322W        W 6522   6.978   3.578  10.513 -0.0847 -0.2281  0.3350
 2323W        W 6523   2.763   9.186   1.799  0.0217 -0.1075 -0.2134
 2324W        W 6524   1.148   0.417   0.378  0.0842  0.0092  0.3166
 2325W        W 6525   9.573   1.988   4.496  0.0050 -0.0430 -0.0905
 2326W        W 6526   7.127   6.419   3.893  0.2568  0.2040 -0.2002
 2327W        W 6527   6.744   1.781  12.260  0.2534 -0.0412  0.0197
 2328W        W 6528   5.051   0.869   1.849  0.1421  0.0167 -0.0750
 2329W        W 6529  10.145   7.740   2.078  0.0483 -0.0832 -0.1762
 2330W        W 6530   6.893   3.629   2.485 -0.4493  0.1005 -0.0155
 2331W        W 6531   7.681   6.995   2.205  0.0077 -0.3293 -0.0178
 2332W        W 6532   9.427   3.144  11.252 -0.0817 -0.0243 -0.0930
 2333W        W 6533   1.784   2.610  12.111 -0.1400 -0.0709  0.1650
 2334W        W 6534   5.994   8.599  10.987  0.0502 -0.0701 -0.1527
 2335W        W 6535  10.126   3.121  10.415 -0.1581  0.1306 -0.2262
 2336W        W 6536   2.178   1.556   0.702 -0.2462  0.0975 -0.3414
 2337W        W 6537   5.667   5.559   2.524 -0.0284  0.0887 -0.0690
 2338W        W 6538   5.885   6.751   2.914 -0.1473  0.0693 -0.0608
 2339W        W 6539   0.107   5.693  12.849  0.0431 -0.1208  0.2305
 2340W        W 6540   3.614   1.664  10.231 -0.1533  0.1063  0.0858
 2341W        W 6541  10.367   0.173   9.996 -0.2550 -0.1249  0.0764
 2342W        W 6542   6.144   2.734   4.767 -0.2515 -0.0553 -0.0611
 2343W        W 6543   3.548   0.033   2.419 -0.1323  0.1653  0.1168
 2344W        W 6544   1.021   8.515   0.571  0.0793 -0.0947 -0.1316
 2345W        W 6545   6.768   4.885   2.799 -0.0632 -0.3104 -0.3186
 2346W        W 6546  10.158   8.903  12.282 -0.3134  0.2868 -0.0064
 2347W        W 6547   5.425   6.116   1.626  0.2586  0.1383 -0.1542
 2348W        W 6548   8.223   2.222   1.809  0.3804  0.1918 -0.2788
 2349W        W 6549   3.851  10.193   5.007  0.0398 -0.1196  0.0797
 2350W        W 6550   6.747   8.888  10.170  0.0828 -0.0161  0.3175
 2351W        W 6551   1.963   2.738   9.406  0.1951  0.2110 -0.0661
 2352W        W 6552   5.712   3.767   8.836  0.0321  0.3339  0.0242
 2353W        W 6553   6.620   8.519  12.325  0.0189 -0.2724 -0.0014
 2354W        W 6554   2.870   1.167   4.337 -0.2783  0.1889  0.0055
 2355W        W 6555   4.867   9.170  11.561 -0.1913  0.1539 -0.0507
 2356W        W 6556  10.166   2.023  11.778  0.4220 -0.1641 -0.0292
 2357W        W 6557   2.622   3.649  12.393  0.1659 -0.1132  0.0389
 2358W        W 6558   9.532   5.663  13.150  0.0189  0.0871  0.2680
 2359W        W 6559   9.202   9.918  12.016  0.1363 -0.0954  0.2091
 2360W        W 6560   4.981   7.756   2.789 -0.1246  0.2219  0.0963
 2361W        W 6561   3.917   4.297   1.052 -0.0966  0.1525  0.2844
 2362W        W 6562   7.451   8.558  12.360 -0.2390 -0.2786 -0.0061
 2363W        W 6563   6.528  10.455   0.851  0.0210  0.0273 -0.0752
 2364W        W 6564   5.000   0.403   3.485 -0.1122 -0.0729  0.0204
 2365W        W 6565   2.723   9.917  12.911 -0.2895  0.1698  0.2525
 2366W        W 6566   7.975   7.903   2.014 -0.1676  0.0051  0.0109
 2367W        W 6567   8.308   3.137   2.578 -0.0968  0.0825  0.0936
 2368W        W 6568   4.828   2.757  13.227 -0.2212 -0.1597  0.1898
 2369W        W 6569   0.625   8.169   2.266  0.0788  0.0121  0.0607
 2370W        W 6570   1.545   1.314  12.939 -0.1297  0.0576  0.1062
 2371W        W 6571   9.273  10.237  10.746 -0.0075  0.0021 -0.1607
 2372W        W 6572   2.110   0.775   0.132  0.3389 -0.0720 -0.1106
 2373W        W 6573   6.863   4.304   1.899 -0.0681 -0.0271  0.0795
 2374W        W 6574   3.595   6.228   1.861 -0.1281 -0.1100 -0.2833
 2375W        W 6575   7.499   8.967  12.639 -0.3068 -0.1192 -0.0869
 2376W        W 6576   3.018   3.981   1.885  0.1766 -0.0472  0.1998
 2377W        W 6577   7.698   3.987  10.579 -0.2262  0.2295 -0.0126
 2378W        W 6578   3.506   6.657  12.181 -0.0105  0.1408  0.1205
 2379W        W 6579   2.376  10.329   9.592  0.1728  0.0960  0.1952
 2380W        W 6580   4.013   1.309   4.486  0.0637 -0.1820 -0.2094
 2381W        W 6581   4.858   9.334   2.649 -0.2538 -0.0863  0.1822
 2382W        W 6582   0.676   7.726   3.087 -0.1891 -0.0878 -0.0411
 2383W        W 6583   6.133   0.734  11.428  0.4321 -0.1143 -0.1567
 2384W        W 6584   1.813   2.145  12.275  0.0081 -0.0459  0.0099
 2385W        W 6585   6.564   3.971  11.155  0.1420  0.1453 -0.0828
 2386W        W 6586   6.887   1.998   1.875  0.1266 -0.0459  0.0461
 2387W        W 6587   0.745   1.543  11.909  0.2780 -0.1475  0.2512
 2388W        W 6588   6.564   4.499  11.626 -0.1297 -0.1241  0.1461
 2389W        W 6589   3.816   2.841  12.325 -0.0364 -0.4721  0.1945
 2390W        W 6590   4.040   7.242  11.619  0.1407  0.4045 -0.1363
 2391W        W 6591   6.689   6.981   9.059  0.0277  0.2334 -0.1900
 2392W        W 6592   3.893   1.316   2.274  0.1086 -0.2110 -0.2870
 2393W        W 6593   2.794   6.206   2.105  0.0511  0.3756  0.0128
 2394W        W 6594   3.672   6.708  11.735  0.1827  0.0793 -0.0942
 2395W        W 6595   6.738   1.728   3.268 -0.2251  0.2139 -0.3317
 2396W        W 6596   4.217   0.179  10.532  0.2725  0.1764 -0.0241
 2397W        W 6597   8.368   2.668   2.578  0.0740  0.2692 -0.0263
 2398W        W 6598   5.652   1.444   0.099  0.3321 -0.0091 -0.0668
 2399W        W 6599   6.915   4.052   4.731  0.0742 -0.2600  0.0888
 2400W        W 6600   6.309   4.025   2.948 -0.0829 -0.1708  0.1201
 2401W        W 6601   0.644   2.268   2.203  0.0550  0.0921  0.0176
 2402W        W 6602   9.836   5.984   0.052 -0.1160  0.0444 -0.3030
 2403W        W 6603   7.886   5.653   0.765  0.0985 -0.2312 -0.4129
 2404W        W 6604   9.186   1.256   1.574 -0.1482  0.1320 -0.0401
 2405W        W 6605   4.737   0.379  11.850 -0.1484  0.0714  0.4111
 2406W        W 6606   5.408   2.528   5.219  0.0467  0.4498  0.2012
 2407W        W 6607   5.232   7.871  12.375 -0.3984 -0.0753 -0.1013
 2408W        W 6608   8.935  10.433   1.913 -0.1779  0.3021  0.1836
 2409W        W 6609   7.779   3.664  11.821  0.2324  0.0782  0.0400
 2410W        W 6610   3.584   1.892   2.303 -0.1402  0.3667 -0.2219
 2411W        W 6611   0.371   3.107   8.889 -0.2330 -0.2990  0.1277
 2412W        W 6612   5.068   0.273  10.983  0.1314  0.1214 -0.0854
 2413W        W 6613   1.064   4.276  11.389  0.2454 -0.2037 -0.2365
 2414W        W 6614   4.269   7.122  13.048  0.2327 -0.0224 -0.3670
 2415W        W 6615   5.245   8.749  12.941  0.0298 -0.0445  0.0570
 2416W        W 6616   1.243   8.732  13.094 -0.1842  0.0234 -0.3719
 2417W        W 6617   7.854   3.753  12.413 -0.2778 -0.0085 -0.2821
 2418W        W 6618   3.536   3.599   9.724  0.1702 -0.1285  0.0361
 2419W        W 6619   7.955   0.422   2.730  0.0217 -0.0630  0.1740
 2420W        W 6620   6.801   9.807  10.711  0.1245 -0.1210 -0.0509
 2421W        W 6621   9.950   7.458   2.918  0.1555 -0.1483  0.3496
 2422W        W 6622   2.286   9.546   9.981  0.1167  0.1949 -0.2532
 2423W        W 6623   4.390   5.215   1.593 -0.3419  0.0032 -0.3181
 2424W        W 6624   6.915   3.028   9.826  0.0984 -0.1881 -0.1177
 2425W        W 6625   6.709   1.168   2.526 -0.0484  0.2849 -0.1060
 2426W        W 6626   4.963   0.257   0.383  0.4683 -0.1498 -0.1241
 2427W        W 6627   1.260   6.180   0.812 -0.1821  0.4576  0.0926
 2428W        W 6628   8.985   2.974   9.507 -0.0907 -0.0877 -0.0708
 2429W        W 6629   7.474   5.400  10.404  0.0654 -0.3760 -0.1642
 2430W        W 6630   6.342   2.903  10.573 -0.1333 -0.5009  0.0015
 2431W        W 6631   1.677   3.604  10.904  0.1115  0.1449  0.1605
 2432W        W 6632   4.577   5.007  12.863 -0.1794  0.0776 -0.0572
 2433W        W 6633   4.919   8.175  13.097  0.0978  0.1347  0.0406
 2434W        W 6634   7.883   0.969   1.394  0.1202  0.0025  0.3113
 2435W        W 6635   5.431   1.663   3.271 -0.0112 -0.2680  0.2116
 2436W        W 6636   0.112   5.237   1.175  0.0270  0.1434  0.2458
 2437W        W 6637   2.263   8.413  11.121  0.1099  0.0911 -0.0489
 2438W        W 6638   0.536   3.078   3.897  0.2243  0.1946 -0.0128
 2439W        W 6639   3.236   1.398   1.496  0.5089  0.0424  0.2448
 2440W        W 6640   3.184   5.681   1.381 -0.3180  0.0075  0.3330
 2441W        W 6641   0.128   7.888  13.411  0.2264  0.0211  0.1305
 2442W        W 6642   3.425   2.775   4.644 -0.4319  0.0999 -0.1671
 2443W        W 6643   5.451   9.916   0.028  0.1861 -0.0458 -0.2351
 2444W        W 6644   8.221   5.020  10.214 -0.0912  0.2361  0.0456
 2445W        W 6645   8.402   1.381   4.715  0.2137 -0.2747 -0.0733
 2446W        W 6646   6.665   1.044  12.392  0.0986  0.0634  0.4666
 2447W        W 6647   8.708   0.011  12.802 -0.2203  0.0084  0.0632
 2448W        W 6648   3.049   7.769   2.732 -0.0726 -0.0053 -0.0888
 2449W        W 6649   6.115   5.234   2.225 -0.0125  0.0026  0.1107
 2450W        W 6650   5.570   6.626  11.536 -0.2624  0.1100  0.0507
 2451W        W 6651   1.921   0.479  11.074 -0.0346  0.0228 -0.0759
 2452W        W 6652   7.735   4.596   1.621  0.2081  0.1093 -0.0786
 2453W        W 6653   6.813  10.343  13.351  0.0689 -0.3246 -0.1656
 2454W        W 6654   4.247   3.460   1.042 -0.2769 -0.0676 -0.0087
 2455W        W 6655   1.814   2.929   0.387  0.2797 -0.0890  0.0097
 2456W        W 6656   0.009   8.051  12.561 -0.0917 -0.0127 -0.1655
 2457W        W 6657   3.928   0.480   8.446 -0.2673  0.0860  0.1210
 2458W        W 6658   1.699   9.414   2.804 -0.1065 -0.1017 -0.1975
 2459W        W 6659   8.030   3.034  12.237 -0.2022 -0.0399  0.1204
 2460W        W 6660   8.792  10.370   4.760 -0.0007  0.0172  0.0926
 2461W        W 6661   4.492   7.917   1.470  0.2080  0.0301 -0.1168
 2462W        W 6662   7.724   6.000  11.121 -0.2267  0.0723 -0.0434
 2463W        W 6663   9.690   1.769  13.439  0.1063 -0.1849  0.0284
 2464W        W 6664   8.331   1.127   2.783  0.0725  0.1158 -0.1595
 2465W        W 6665  10.028   3.701   2.950 -0.1322  0.0707  0.1794
 2466W        W 6666   2.642   3.439  11.206  0.2063 -0.0757  0.1912
 2467W        W 6667  10.247   8.046   1.643  0.2205 -0.1096  0.1842
 2468W        W 6668   1.077   6.533   3.140  0.1402  0.2259  0.2399
 2469W        W 6669   2.575   4.395  13.144  0.2275 -0.2855 -0.2905
 2470W        W 6670   0.560   7.750   0.263  0.1763 -0.2326 -0.3515
 2471W        W 6671   0.414   1.277   5.361  0.1119  0.3454 -0.1601
 2472W        W 6672   8.143   3.714  10.534  0.0109 -0.1988  0.2287
 2473W        W 6673   3.255   6.057   2.245  0.1919 -0.0228  0.2397
 2474W        W 6674   9.463   9.214  10.674 -0.0692  0.1782 -0.3129
 2475W        W 6675   7.895   0.439  11.193 -0.1034  0.0244 -0.0944
 2476W        W 6676   3.385   2.550   1.202  0.2642 -0.0286  0.3686
 2477W        W 6677   0.249   9.043   3.312  0.0341  0.1309 -0.1879
 2478W        W 6678   1.769   1.076   1.445 -0.3879  0.2403 -0.0377
 2479W        W 6679   2.817   8.866   9.735  0.1115  0.1056  0.0193
 2480W        W 6680   5.381   1.286   4.518  0.2127  0.0667 -0.1861
 2481W        W 6681   1.085   3.260   2.806  0.1064 -0.1118 -0.2984
 2482W        W 6682   9.757   3.979   0.150 -0.0857 -0.0155 -0.0982
 2483W        W 6683   8.555   3.718   4.828  0.0295  0.2673  0.2021
 2484W        W 6684   9.822   8.621   0.567  0.0242  0.0739 -0.1044
 2485W        W 6685   8.428   4.874   4.260  0.1139 -0.0666 -0.0087
 2486W        W 6686   3.236   7.654  13.168 -0.1845  0.3035 -0.2869
 2487W        W 6687   0.393   9.801  10.727  0.0928 -0.2547  0.1406
 2488W        W 6688  10.235   7.610  11.665  0.1069 -0.0469 -0.0415
 2489W        W 6689   5.665   7.831  12.101  0.4171 -0.0235  0.2740
 2490W        W 6690   2.136   3.195   9.678 -0.0058 -0.5502 -0.5786
 2491W        W 6691   0.107   3.467   3.879 -0.0942 -0.1393 -0.0179
 2492W        W 6692   4.060   8.868  13.086 -0.0230 -0.1727 -0.3377
 2493W        W 6693   3.123   1.502   3.130  0.0512 -0.0071 -0.1659
 2494W        W 6694   8.658   0.629  13.447  0.3243 -0.0764 -0.2342
 2495W        W 6695   2.570   0.870  10.630  0.0072 -0.0934  0.1447
 2496W        W 6696   9.528   0.939   1.968  0.1027  0.0778 -0.0775
 2497W        W 6697   5.410   3.542   4.328 -0.0859 -0.0615 -0.2240
 2498W        W 6698  10.087   0.894   0.902  0.0518  0.0047 -0.2356
 2499W        W 6699   1.046   9.608  11.413 -0.0299  0.2084  0.1792
 2500W        W 6700   5.464   4.348   1.933  0.0677  0.1353  0.2067
 2501W        W 6701   5.944   9.076   3.654  0.0616 -0.0916 -0.1544
 2502W        W 6702   8.520   3.036  12.526  0.1496 -0.1689 -0.1284
 2503W        W 6703   6.525   7.579   1.030 -0.0413 -0.0119 -0.1198
 2504W        W 6704   0.877   2.607   3.712  0.1368 -0.0020 -0.0329
 2505W        W 6705   6.984   6.816  13.071 -0.1995 -0.1434  0.2367
 2506W        W 6706   0.662  10.321   4.450 -0.2439  0.0074 -0.2847
 2507W        W 6707   4.430   0.055   4.488 -0.2644  0.2007  0.4566
 2508W        W 6708   9.217   2.484   2.105 -0.2713  0.2261  0.1517
 2509W        W 6709   8.930   2.822   1.810 -0.1931  0.0377  0.3530
 2510W        W 6710   1.246   9.586  12.745 -0.1126  0.4667 -0.0593
 2511W        W 6711   1.224   9.981  11.013 -0.0972  0.0447  0.1274
 2512W        W 6712   0.405   8.682   2.060  0.0051 -0.1328 -0.0380
 2513W        W 6713   8.240   0.007  12.340  0.2318  0.1755  0.2832
 2514W        W 6714   1.249   1.996  12.201 -0.3396  0.1606  0.0240
 2515W        W 6715   9.371   1.836  11.719 -0.2540  0.1236 -0.3055
 2516W        W 6716   2.016   2.673   2.458 -0.1474 -0.0458  0.1228
 2517W        W 6717   2.696   4.323   2.723  0.0318  0.2604  0.2567
 2518W        W 6718   7.092   8.990  10.611  0.2307 -0.0887 -0.0927
 2519W        W 6719   7.359   6.578   3.461  0.0970 -0.0154 -0.3369
 2520W        W 6720   7.097   9.879   0.381  0.2267 -0.0399  0.2246
 2521W        W 6721   6.994   2.840   2.878  0.0020 -0.1080 -0.0049
 2522W        W 6722   6.140   1.419   2.649  0.3035  0.4637  0.0652
 2523W        W 6723   0.204   5.908  10.205  0.0170 -0.1234  0.0382
 2524W        W 6724   0.523   4.189   1.513  0.1521 -0.1311  0.1364
 2525W        W 6725   0.047   3.772   4.348 -0.1436 -0.3307 -0.0018
 2526W        W 6726   5.203   8.734   9.214 -0.1241 -0.1061  0.1905
 2527W        W 6727   9.192   4.896  12.841 -0.2506 -0.1725 -0.4602
 2528W        W 6728   6.261   7.887   9.180  0.5198 -0.1727 -0.0751
 2529W        W 6729   3.209   3.835   1.394  0.3045 -0.0330  0.1419
 2530W        W 6730   7.043   9.556   9.835 -0.1882 -0.0703  0.1264
 2531W        W 6731   6.912   1.685   0.501  0.2903  0.1873 -0.1697
 2532W        W 6732   8.886   3.532   4.439  0.3166 -0.1896 -0.1036
 2533W        W 6733   1.691   8.240  12.795 -0.0705 -0.1214 -0.2449
 2534W        W 6734   8.608   9.005   4.184 -0.3853  0.0852  0.0157
 2535W        W 6735  10.011   5.888   3.376  0.2610 -0.1550  0.2990
 2536W        W 6736   9.349   4.409  12.802 -0.4435 -0.0128  0.0113
 2537W        W 6737   2.011   0.760  12.319  0.0373 -0.0158 -0.1332
 2538W        W 6738   8.074   4.853   2.374  0.1782 -0.1361  0.0589
 2539W        W 6739   5.680   8.248   4.225  0.0468 -0.2672  0.0191
 2540W        W 6740   9.919   3.556   9.832  0.2940 -0.0350 -0.2249
 2541W        W 6741   2.974   1.109   0.989  0.0527 -0.0526  0.1601
 2542W        W 6742   0.520   1.350  10.842  0.3327 -0.1105  0.0565
 2543W        W 6743   6.991   0.252   9.393  0.1062  0.0096 -0.1557
 2544W        W 6744   8.963   5.537   1.619 -0.1149 -0.1217 -0.2092
 2545W        W 6745   5.619   9.096  13.162  0.2359 -0.4560 -0.1278
 2546W        W 6746   5.013   9.037   2.213 -0.3252 -0.0439  0.3889
 2547W        W 6747   0.803   1.177  12.310 -0.2322  0.4482  0.1735
 2548W        W 6748   0.127   6.345  11.853 -0.0036 -0.1379  0.1762
 2549W        W 6749   2.542   1.125   0.776  0.2051 -0.2103 -0.0614
 2550W        W 6750   7.007   7.346   1.045  0.2104 -0.1417 -0.1107
 2551W        W 6751   2.369   3.848  11.429 -0.0617  0.2332  0.0372
 2552W        W 6752   1.368   4.473   2.495 -0.0004 -0.1205 -0.0536
 2553W        W 6753   9.343   7.532   3.130 -0.0310 -0.1482  0.1515
 2554W        W 6754   3.940  10.049   0.096  0.1999  0.3016 -0.0720
 2555W        W 6755   1.774   8.857   3.228  0.1772  0.0356 -0.1730
 2556W        W 6756   1.676   6.598   0.744 -0.1477 -0.1339 -0.1592
 2557W        W 6757   6.322   8.692   2.233 -0.0037  0.0726 -0.1145
 2558W        W 6758   5.437   7.385  10.590  0.1954  0.1012 -0.4019
 2559W        W 6759  10.308   9.742  12.388 -0.0767 -0.0639 -0.0993
 2560W        W 6760   7.907   0.468   3.270 -0.1779 -0.0922 -0.5227
 2561W        W 6761   5.060   8.381   3.440 -0.0099 -0.3275  0.2487
 2562W        W 6762   3.880   0.528  10.082 -0.0525  0.0659  0.0013
 2563W        W 6763   5.774   7.210  11.470 -0.3132 -0.1435 -0.1224
 2564W        W 6764   6.155   9.379   9.282 -0.0585  0.1194 -0.2833
 2565W        W 6765   8.695   2.075   9.293  0.0951  0.0348 -0.0064
 2566W        W 6766  10.114   5.960  11.106 -0.1405 -0.0493  0.2097
 2567W        W 6767   4.684   0.727   9.888  0.1105  0.2338  0.2571
 2568W        W 6768   8.192   9.685   3.395  0.2124  0.2299  0.0820
 2569W        W 6769   4.687  10.108  13.458 -0.0160  0.0192 -0.0435
 2570W        W 6770   4.194   1.184  11.270  0.3703  0.0295 -0.0781
 2571W        W 6771   6.494   5.581   9.172 -0.1638 -0.2556  0.0904
 2572W        W 6772   4.295   9.584   3.442  0.1224  0.1110  0.4087
 2573W        W 6773   6.997   4.243   0.706  0.1525  0.3985  0.0677
 2574W        W 6774   0.761   0.904   9.527  0.1229  0.0133 -0.1279
 2575W        W 6775   8.426   0.443  11.364 -0.3840 -0.2195 -0.4461
 2576W        W 6776   6.069   2.748  11.475  0.0902 -0.1741 -0.1260
 2577W        W 6777   3.605   5.716   0.051  0.1280 -0.1120  0.0420
 2578W        W 6778   8.484   2.440   3.936  0.0307 -0.0533 -0.0496
 2579W        W 6779   3.912   2.751   4.419 -0.0166 -0.0151 -0.0219
 2580W        W 6780   8.334   3.982  12.375  0.1093  0.1550  0.2551
 2581W        W 6781   8.258   8.110  12.054  0.3216  0.3560  0.2258
 2582W        W 6782   8.770   4.972   2.876 -0.0868 -0.1633 -0.0083
 2583W        W 6783   8.958   2.200  10.533  0.0518  0.0150  0.0287
 2584W        W 6784   2.763   7.618   1.870 -0.1500  0.2920 -0.0850
 2585W        W 6785   6.881   4.418   3.560 -0.3910  0.1279 -0.0922
 2586W        W 6786   9.107   1.329  10.496 -0.0308  0.0595  0.3931
 2587W        W 6787   8.487   5.829   9.522  0.1516  0.0587 -0.0836
 2588W        W 6788   8.053   5.774  11.624  0.0807  0.3273  0.0542
 2589W        W 6789   5.226   4.307   0.526  0.0415 -0.1581 -0.1445
 2590W        W 6790   5.544   7.609   2.981 -0.5742 -0.2282 -0.2903
 2591W        W 6791   0.423   1.029  11.247  0.0369  0.0582  0.3890
 2592W        W 6792   5.686   5.520  11.222  0.0078 -0.2439  0.0825
 2593W        W 6793   3.079   7.338   1.053  0.0511 -0.0275 -0.1549
 2594W        W 6794   5.833   2.623   0.659 -0.0951  0.0237 -0.0342
 2595W        W 6795   1.987   0.007   2.880 -0.0003 -0.3171 -0.4505
 2596W        W 6796   3.367   1.448  10.970  0.3419 -0.1902 -0.0070
 2597W        W 6797   3.832   7.072   3.071  0.1685  0.2324 -0.0854
 2598W        W 6798   2.804  10.214   1.212  0.0788 -0.2613  0.1171
 2599W        W 6799   4.638   6.882  11.824 -0.0239 -0.1979 -0.1594
 2600W        W 6800   8.159   3.791  12.961 -0.0460  0.0531 -0.1427
 2601W        W 6801   9.178   4.636  10.403  0.3891 -0.1997  0.1526
 2602W        W 6802   5.903   5.494   5.176  0.0862 -0.1883  0.3306
 2603W        W 6803   6.341   0.817   0.055 -0.0059  0.0868 -0.1089
 2604W        W 6804   9.044   9.872   9.781 -0.0537  0.1667  0.2594
 2605W        W 6805   3.153   6.742  10.843 -0.2784  0.0636  0.0354
 2606W        W 6806   6.335   4.438   9.163 -0.1654 -0.0786 -0.1148
 2607W        W 6807   2.470   4.620   2.046  0.2484  0.2752 -0.1255
 2608W        W 6808   3.838   2.715  13.043  0.0433  0.4317  0.0016
 2609W        W 6809   6.268   4.800  12.247  0.3131 -0.0275 -0.4966
 2610W        W 6810   7.402   8.001   1.582 -0.0360 -0.0981 -0.0226
 2611W        W 6811   2.136   1.595  11.706  0.0291 -0.0327  0.0068
 2612W        W 6812   7.079   3.462   2.013 -0.0409 -0.0819  0.1502
 2613W        W 6813  10.318   5.865   1.415  0.0856  0.1925  0.0203
 2614W        W 6814   2.217   4.233   1.159 -0.0053 -0.0154 -0.0894
 2615W        W 6815   4.730   3.559   1.145  0.2034 -0.0420 -0.1664
 2616W        W 6816   4.927   2.591   0.185 -0.0015 -0.0784 -0.0175
 2617W        W 6817   3.021   6.275  11.224 -0.0601  0.2790  0.0132
 2618W        W 6818   7.080   4.343  12.203  0.1055  0.0055  0.3614
 2619W        W 6819   3.326   8.854   9.664  0.3446 -0.0713 -0.0181
 2620W        W 6820   3.092   8.438   4.001  0.1911 -0.1613 -0.0369
 2621W        W 6821   2.657   6.027   1.505 -0.3075  0.0403 -0.2595
 2622W        W 6822   3.172   9.617   0.409 -0.1838 -0.1422 -0.1370
 2623W        W 6823   2.773   6.346   3.649  0.1146 -0.1520 -0.0035
 2624W        W 6824   8.776   1.578   8.627 -0.0397  0.1758  0.0484
 2625W        W 6825   0.412   9.508   9.820  0.1599 -0.0032 -0.0027
 2626W        W 6826   9.971   9.709  11.369  0.2206 -0.1836 -0.3024
 2627W        W 6827   9.175   7.790  12.367 -0.1340  0.2282  0.0309
 2628W        W 6828   2.571   3.054   1.279  0.1675  0.1700 -0.0849
 2629W        W 6829   4.755   1.494   5.104 -0.1732 -0.0055  0.0856
 2630W        W 6830   3.015   3.417   1.107  0.3350  0.2883  0.1933
 2631W        W 6831   4.616   1.453   9.120  0.0174  0.1038 -0.0435
 2632W        W 6832   3.357   9.383   9.700 -0.1174 -0.1018 -0.2592
 2633W        W 6833   9.492   6.515  13.434  0.3791 -0.0886 -0.3699
 2634W        W 6834   9.371   8.579   1.504 -0.1905 -0.1935 -0.0688
 2635W        W 6835   3.153   2.025  13.130  0.0582 -0.0935  0.1089
 2636W        W 6836   9.928   2.831   3.949  0.2539 -0.6727 -0.0974
 2637W        W 6837   3.919   3.260  12.527  0.0479  0.0771  0.1954
 2638W        W 6838   4.916   6.717   4.995 -0.2178 -0.1012  0.0815
 2639W        W 6839   3.434   7.683   1.023  0.0407 -0.0399 -0.1384
 2640W        W 6840   1.408   9.232   0.017 -0.1772  0.0183  0.1502
 2641W        W 6841   3.004   7.372   0.033 -0.2286 -0.1198  0.0160
 2642W        W 6842   0.398   9.245  10.639  0.0303 -0.1464 -0.1400
 2643W        W 6843   0.451   8.209  12.277  0.0862 -0.0478 -0.1549
 2644W        W 6844   8.193   9.995  11.517  0.2953 -0.2584 -0.3061
 2645W        W 6845   3.378   3.477  13.420  0.2405 -0.2575 -0.1123
 2646W        W 6846   5.579   4.024   3.685  0.0811  0.3474 -0.1177
 2647W        W 6847   2.752   2.412   2.517 -0.1380  0.0863  0.0283
 2648W        W 6848   4.396   0.857   2.805 -0.2104  0.1415 -0.1067
 2649W        W 6849   3.666  10.003   1.036  0.0765 -0.2683 -0.1007
 2650W        W 6850   7.885   6.213  11.563 -0.1239 -0.5774  0.1286
 2651W        W 6851   1.612   1.269  12.009 -0.0785  0.0960  0.1540
 2652W        W 6852   8.575   9.779   0.073 -0.2595 -0.0306  0.1218
 2653W        W 6853   2.897   8.232   1.840  0.1466  0.1851  0.1020
 2654W        W 6854   0.855   2.726   8.675  0.0061  0.0532 -0.1999
 2655W        W 6855   1.719   5.397  11.453 -0.0675 -0.1314  0.1032
 2656W        W 6856  10.352   1.303  12.075  0.1558  0.4256  0.2403
 2657W        W 6857   2.815   6.037  12.236  0.3696  0.0064  0.2522
 2658W        W 6858   5.840   0.720  11.903 -0.1246  0.0894 -0.1159
 2659W        W 6859   9.579   0.367   0.492  0.0404 -0.2380 -0.4039
 2660W        W 6860   3.183   7.201  11.022 -0.1225  0.2182  0.0898
 2661W        W 6861  10.296   4.718  12.443  0.0638  0.1865 -0.2536
 2662W        W 6862   4.415   6.928  11.326  0.1043  0.0173 -0.0499
 2663W        W 6863   8.439   9.160   0.743  0.0568  0.1493  0.1178
 2664W        W 6864   1.977   2.950  10.047 -0.1606 -0.1262 -0.2361
 2665W        W 6865   4.725   5.832  10.839 -0.1402 -0.3277  0.0112
 2666W        W 6866   3.814   1.377  12.830 -0.1603 -0.2104  0.2859
 2667W        W 6867   9.183   0.679   8.613  0.3378  0.2455 -0.2501
 2668W        W 6868   5.310   9.507  13.261 -0.2458  0.0872  0.2924
 2669W        W 6869   6.103   6.290   3.078  0.4395 -0.1976 -0.4052
 2670W        W 6870   6.599   8.976   0.849  0.4016 -0.0659 -0.1395
 2671W        W 6871   5.118   7.332   4.310  0.1242  0.0390 -0.3171
 2672W        W 6872   7.191   1.996   3.298 -0.1169  0.0836 -0.0884
 2673W        W 6873   9.409   3.265   2.498 -0.1463  0.2012  0.1647
 2674W        W 6874   9.136   3.042  13.327 -0.1409  0.2062  0.0977
 2675W        W 6875  10.145   4.652   3.486  0.0898  0.1324  0.2101
 2676W        W 6876   8.902   0.713   4.446 -0.1696  0.0787 -0.2118
 2677W        W 6877   1.578   9.916  12.415  0.0231 -0.0879  0.1784
 2678W        W 6878   3.761   1.042  10.971  0.2054 -0.1247  0.0445
 2679W        W 6879   8.152   7.468  11.442  0.1216  0.1812  0.0894
 2680W        W 6880   6.759   5.805   0.104 -0.0118 -0.1511  0.1514
 2681W        W 6881   7.484   8.020  11.475 -0.0469 -0.3365 -0.3830
 2682W        W 6882   4.901   9.347  10.405  0.2200  0.0423 -0.0753
 2683W        W 6883   4.736   3.642  12.423  0.0463 -0.0340  0.0982
 2684W        W 6884   7.689   0.867  12.290 -0.1543 -0.2154 -0.1558
 2685W        W 6885   7.546   1.861   8.607  0.0962 -0.1922  0.0181
 2686W        W 6886   4.490   0.029   2.273 -0.0243  0.1952 -0.0779
 2687W        W 6887   1.037   5.401  13.036  0.1268  0.0376 -0.2383
 2688W        W 6888   2.978   5.031   0.155  0.0444  0.1833 -0.3162
 2689W        W 6889   9.148   4.670   1.328  0.2509  0.0458  0.0287
 2690W        W 6890   3.338   7.257  12.836 -0.4164 -0.2128 -0.2465
 2691W        W 6891   5.272   8.773   0.033  0.1092 -0.0322  0.1475
 2692W        W 6892   0.989   6.239   2.700  0.0674 -0.0533 -0.2168
 2693W        W 6893   9.718   0.046   1.538 -0.2077  0.0105  0.0310
 2694W        W 6894   5.589   5.590  10.691 -0.1268 -0.0765  0.0577
 2695W        W 6895   2.633   5.249  11.258 -0.0992  0.1977 -0.2295
 2696W        W 6896   5.596   2.641   4.715 -0.0379 -0.2424 -0.0746
 2697W        W 6897   1.257   4.950  12.829 -0.5024  0.1319  0.2695
 2698W        W 6898   5.714   6.284  10.637  0.0124  0.0099  0.2108
 2699W        W 6899   1.538   3.092  11.012  0.0946  0.1081 -0.2273
 2700W        W 6900   5.253   1.581  10.019  0.1516  0.1102 -0.2489
 2701W        W 6901   3.261   0.216   1.716  0.2020  0.0339  0.4818
 2702W        W 6902   0.687   4.055   1.956  0.1269 -0.0167 -0.1814
 2703W        W 6903   7.862   5.264  13.069  0.1242 -0.0103 -0.0603
 2704W        W 6904   1.009   6.495  11.698 -0.2668 -0.1013  0.2384
 2705W        W 6905   6.142   1.836   4.465 -0.0884 -0.1829 -0.0555
 2706W        W 6906   7.755   5.388  11.901 -0.1370  0.0466  0.1957
 2707W        W 6907   7.215   8.483  11.446 -0.2756 -0.1601  0.1456
 2708W        W 6908   3.104   8.825  11.938 -0.2220  0.0441 -0.0434
 2709W        W 6909   0.523   9.013   2.463  0.0425  0.0178 -0.1149
 2710W        W 6910   5.620   7.483   4.319 -0.2102  0.2312  0.2705
 2711W        W 6911   5.921   5.778  13.380 -0.1328 -0.1333  0.2030
 2712W        W 6912  10.428   0.512   0.403  0.2239 -0.4232 -0.2165
 2713W        W 6913   5.798   7.245   2.205  0.2783 -0.0249  0.0532
 2714W        W 6914   8.038   4.095   3.997 -0.0030  0.1592  0.5593
 2715W        W 6915   1.947   2.231   1.536 -0.0572 -0.0217  0.2661
 2716W        W 6916   7.614   5.875   0.052  0.1467  0.0741 -0.1333
 2717W        W 6917   0.548   7.048   3.707 -0.0562 -0.0437 -0.0570
 2718W        W 6918  10.235   8.632   0.344 -0.1169 -0.0190  0.2460
 2719W        W 6919   2.841   9.355  11.397 -0.1446  0.0477 -0.2780
 2720W        W 6920   0.413  10.329  13.383  0.2935 -0.1196  0.1193
 2721W        W 6921   3.238   3.366  12.932 -0.2572 -0.1923 -0.6140
 2722W        W 6922   2.935   0.696   9.603 -0.2333  0.2156 -0.0215
 2723W        W 6923   7.552   1.747   2.326  0.2404 -0.1063 -0.0369
 2724W        W 6924   7.672   3.237  10.019 -0.2336 -0.1517 -0.0135
 2725W        W 6925   8.439   4.388   4.787  0.1289 -0.3714  0.3545
 2726W        W 6926  10.417   4.881   1.969  0.1215 -0.0488 -0.0242
 2727W        W 6927  10.010   2.881   2.332  0.1241  0.1780  0.1911
 2728W        W 6928   9.266   4.638  11.077 -0.0044  0.0361  0.0785
 2729W        W 6929   5.378   6.879  12.290  0.3118 -0.0318  0.1263
 2730W        W 6930   6.090   0.582   3.658 -0.0348 -0.0528  0.2662
 2731W        W 6931   4.062   0.985   8.569  0.1480  0.0155  0.0667
 2732W        W 6932   8.904   1.016   3.910 -0.1259 -0.1472 -0.1954
 2733W        W 6933   6.563   5.076   9.905  0.1202 -0.2149 -0.3698
 2734W        W 6934   8.640   5.489   1.108 -0.0941 -0.2485  0.1293
 2735W        W 6935   4.309   3.442   8.782 -0.1178 -0.0653  0.0844
 2736W        W 6936   2.710   8.180   4.082 -0.2177 -0.1524 -0.1506
 2737W        W 6937   0.795   2.951   1.117 -0.0019 -0.0253  0.1327
 2738W        W 6938   5.516   8.408   0.243 -0.3192  0.0704 -0.5612
 2739W        W 6939   4.436   9.359  11.485 -0.2440  0.1266 -0.2213
 2740W        W 6940   8.847   6.583   2.894  0.0324  0.1684  0.2577
 2741W        W 6941   5.527   2.105  12.539 -0.0069 -0.2617  0.2026
 2742W        W 6942   2.893   5.050  11.907 -0.3716  0.0464  0.0314
 2743W        W 6943   4.623   6.356   0.377 -0.2064  0.4823 -0.1616
 2744W        W 6944   1.413   2.496  13.026  0.0610 -0.1171 -0.0185
 2745W        W 6945   9.572   4.930  10.290  0.1835 -0.0373  0.5128
 2746W        W 6946   8.404   5.729   0.681 -0.0116 -0.1605  0.2563
 2747W        W 6947   5.324   5.098   3.080  0.0095  0.3655 -0.1217
 2748W        W 6948   4.351   8.124  10.405 -0.3183  0.0128 -0.0240
 2749W        W 6949   5.426   8.675  11.859  0.6030  0.2057 -0.0417
 2750W        W 6950  10.382  10.415   5.019  0.4825 -0.0126 -0.0380
 2751W        W 6951   3.982   3.045  13.357 -0.2103 -0.1362 -0.2258
 2752W        W 6952   3.170   0.626   3.517  0.3677  0.2601  0.1364
 2753W        W 6953   1.030   0.657  12.489 -0.4160 -0.1443  0.2957
 2754W        W 6954   6.944   2.326   2.544 -0.0600  0.1786  0.0154
 2755W        W 6955   3.860  10.214   3.678 -0.4616  0.0598  0.0539
 2756W        W 6956   2.938   5.630   1.887  0.3062 -0.0505  0.0843
 2757W        W 6957   1.641   4.224   2.089  0.0220 -0.1013  0.0294
 2758W        W 6958   0.677   3.340   2.429 -0.0087 -0.2352  0.0448
 2759W        W 6959   5.856   5.925  11.508  0.0349  0.0795 -0.1227
 2760W        W 6960   4.538   4.045   9.532 -0.0575  0.2029  0.0747
 2761W        W 6961   3.681   1.860   0.137  0.0967  0.0057 -0.0119
 2762W        W 6962   7.542   2.209   1.188 -0.0784 -0.0153  0.1553
 2763W        W 6963   3.613   4.480   3.629  0.0441 -0.3861  0.0170
 2764W        W 6964   3.741   0.223  10.566  0.0574  0.0678  0.0004
 2765W        W 6965   3.848   3.712   1.233 -0.1074 -0.0371 -0.0032
 2766W        W 6966   9.206   0.379   3.188 -0.1880 -0.1446 -0.3266
 2767W        W 6967   3.150   7.602   0.575 -0.1426 -0.0013 -0.1257
 2768W        W 6968   4.677   3.522   1.875 -0.1647  0.2113  0.0870
 2769W        W 6969   8.269   9.939   0.621  0.0364 -0.0497 -0.3284
 2770W        W 6970   1.409   3.752  12.262 -0.0761  0.0362  0.2668
 2771W        W 6971   6.560   8.016  12.825  0.1652  0.1321 -0.1569
 2772W        W 6972   0.775   3.324   9.110  0.1319 -0.0930 -0.1363
 2773W        W 6973   0.234  10.002   2.618 -0.1170 -0.1372 -0.1034
 2774W        W 6974   0.827   1.724  11.046 -0.2831  0.2629  0.3792
 2775W        W 6975   2.312   0.776  11.162  0.2608 -0.2830 -0.0312
 2776W        W 6976   7.153   3.084  12.138  0.1048 -0.0902 -0.1514
 2777W        W 6977   7.055   2.697   3.899 -0.0260 -0.1455 -0.0902
 2778W        W 6978   7.708   6.556   0.044  0.0809 -0.3168  0.3648
 2779W        W 6979   2.351   3.300  11.607  0.1856 -0.0146 -0.1492
 2780W        W 6980   8.117   7.662   3.842  0.0598 -0.2058 -0.0753
 2781W        W 6981   8.904   1.838  11.292 -0.0809  0.0079  0.2006
 2782W        W 6982   0.909   3.144   0.620  0.0252  0.0730  0.0477
 2783W        W 6983   0.658   9.609  12.761 -0.0012  0.0925 -0.0997
 2784W        W 6984   7.683   1.249   4.904 -0.2080  0.0654  0.1297
 2785W        W 6985   4.374   8.479  13.088 -0.1236  0.0970  0.1321
 2786W        W 6986   6.313   1.149   3.610 -0.0304  0.1989 -0.0387
 2787W        W 6987   2.514   1.147  13.276 -0.2371  0.0831 -0.3177
 2788W        W 6988   7.282   2.087  11.117  0.0254  0.2665  0.3393
 2789W        W 6989   9.560   0.468  10.361  0.0115  0.0182 -0.0642
 2790W        W 6990   4.600   3.566  10.347 -0.1740 -0.2343  0.2673
 2791W        W 6991  10.206   1.322   8.661  0.3190 -0.2714  0.0329
 2792W        W 6992   0.634   9.927  11.830 -0.3123 -0.0931 -0.0654
 2793W        W 6993  10.359   9.726  13.046 -0.2769  0.1206 -0.0392
 2794W        W 6994   6.901   8.807   0.135  0.3785  0.1114 -0.0396
 2795W        W 6995   4.524   0.467   3.403 -0.3110  0.2093  0.0584
 2796W        W 6996   0.667   6.217  12.509  0.1651  0.1021 -0.1055
 2797W        W 6997   6.288  10.437  11.133  0.0379  0.0078  0.0051
 2798W        W 6998   4.164   0.043   3.394  0.1416  0.2241  0.0194
 2799W        W 6999   5.452   7.367   3.821 -0.0496  0.0261  0.2456
 2800W        W 7000   6.668   2.080   0.350 -0.0877 -0.2424  0.0115
 2801W        W 7001   3.228   7.093   9.173 -0.1354 -0.0322 -0.1003
 2802W        W 7002   9.277   0.651  10.003 -0.3587 -0.1988 -0.3253
 2803W        W 7003   1.827   3.914  11.995  0.3158 -0.4593 -0.0120
 2804W        W 7004   6.791   9.862   0.003 -0.0389  0.2956  0.0757
 2805W        W 7005   6.243   0.291   4.527 -0.0959 -0.3717  0.4176
 2806W        W 7006   6.454   1.351   3.049  0.0337 -0.1314  0.0439
 2807W        W 7007   0.035   5.450  10.154  0.1432 -0.1772 -0.0540
 2808W        W 7008   3.377   0.610  12.380  0.1373 -0.1267  0.2912
 2809W        W 7009   6.506   9.674   1.469 -0.1874  0.1509  0.4015
 2810W        W 7010   6.166   8.689   1.059  0.0111  0.3474  0.0596
 2811W        W 7011   6.449   2.585   0.277 -0.0264 -0.1081  0.0173
 2812W        W 7012   6.723   4.601   1.546  0.2764  0.1822  0.2644
 2813W        W 7013   9.153   5.140  10.431 -0.0751  0.0353  0.2798
 2814W        W 7014   8.499   3.428  12.952 -0.0582 -0.0537 -0.0475
 2815W        W 7015   2.017   9.880  11.561 -0.1039  0.0509  0.2130
 2816W        W 7016   4.535   6.287   9.519  0.0746  0.1783 -0.1122
 2817W        W 7017   9.685   3.350   1.470 -0.0030 -0.2089  0.2349
 2818W        W 7018   9.312   7.258  12.146  0.0625  0.0668 -0.0397
 2819W        W 7019   6.369   9.448   0.913  0.1930  0.1669  0.0405
 2820W        W 7020   9.891   6.702  10.898  0.1476  0.1846 -0.0561
 2821W        W 7021   3.658   6.696   0.092  0.0578  0.0717  0.2504
 2822W        W 7022   2.887   8.414   1.223 -0.0393 -0.2317  0.2347
 2823W        W 7023   4.070   0.645  11.862 -0.1228 -0.0366 -0.0481
 2824W        W 7024   9.825   3.498   3.455  0.2407 -0.0042  0.3605
 2825W        W 7025   7.263   8.268   4.400  0.1493  0.0279 -0.2058
 2826W        W 7026   6.447   4.372  12.586 -0.0470 -0.0723  0.4324
 2827W        W 7027   2.124   3.895  11.009 -0.3533  0.0090 -0.1551
 2828W        W 7028   6.178   4.817   4.002 -0.4012 -0.0552  0.3829
 2829W        W 7029   1.357   9.077   9.741  0.1579  0.3999  0.0497
 2830W        W 7030   2.474   8.485  12.899 -0.1055 -0.1400  0.0259
 2831W        W 7031   7.960   5.357   0.333  0.3666 -0.0853  0.1097
 2832W        W 7032   8.682   4.804  11.112  0.1591  0.3261  0.1510
 2833W        W 7033   0.010   3.987  10.859 -0.0288  0.2632 -0.0211
 2834W        W 7034   8.581   3.618   0.914 -0.1779 -0.2724 -0.0742
 2835W        W 7035   9.571   9.421  11.222 -0.4614  0.1463  0.2739
 2836W        W 7036   8.615   7.379  10.291 -0.4033 -0.0354 -0.4152
 2837W        W 7037   1.543  10.056   4.138  0.1604  0.0677 -0.0858
 2838W        W 7038  10.020   5.661   1.816  0.2089 -0.0492 -0.0621
 2839W        W 7039   9.585   2.630   9.716 -0.3580 -0.0348  0.1421
 2840W        W 7040   0.218   7.971  11.659 -0.0107  0.2481 -0.0904
 2841W        W 7041   4.521   5.126   0.813 -0.0341 -0.4208 -0.1539
 2842W        W 7042   5.956   8.944  12.855  0.0424  0.2602  0.3149
 2843W        W 7043   3.259   2.192   0.086 -0.2436 -0.1633 -0.1431
 2844W        W 7044   5.605   7.539  12.594  0.2640  0.1091  0.1593
 2845W        W 7045   8.671   7.674  12.603 -0.1943  0.1363  0.1170
 2846W        W 7046   6.052   5.553   3.201 -0.1425 -0.1203  0.1435
 2847W        W 7047   7.232   2.584  12.257 -0.0090 -0.2492  0.0600
 2848W        W 7048   6.884   4.327  12.763 -0.1778 -0.0514 -0.1124
 2849W        W 7049   6.752   1.580   9.860 -0.1242 -0.1123 -0.1196
 2850W        W 7050   3.919   1.255   1.557 -0.1186  0.0417 -0.0206
 2851W        W 7051   8.474   0.166  13.429  0.1607 -0.2184 -0.0674
 2852W        W 7052   7.481   6.789  13.008  0.0457  0.1446 -0.1816
 2853W        W 7053   9.012   8.812   3.971 -0.1046 -0.2045 -0.0350
 2854W        W 7054   6.363   9.417  11.602  0.0425  0.0166  0.2670
 2855W        W 7055   9.838   1.362   4.204 -0.0186  0.2372 -0.3629
 2856W        W 7056   8.436   7.789   3.349 -0.0116  0.0894  0.0060
 2857W        W 7057   3.247   6.738  10.126 -0.1537  0.1258 -0.0245
 2858W        W 7058   1.742   0.625   0.675  0.1026 -0.1271  0.0811
 2859W        W 7059   1.323   1.168  12.467  0.1094  0.2239  0.2295
 2860W        W 7060   4.360   0.806   1.078 -0.1852  0.0378 -0.0417
 2861W        W 7061   2.478   7.946  10.941 -0.0987 -0.4287 -0.1652
 2862W        W 7062   5.050   1.245  13.454 -0.4901 -0.1241  0.1389
 2863W        W 7063   7.940   0.985   1.913  0.2473 -0.3518 -0.1128
 2864W        W 7064   5.296   6.240  11.338 -0.0597  0.1367  0.0135
 2865W        W 7065   6.816   5.750  12.626  0.0172  0.0590 -0.0096
 2866W        W 7066   7.470   6.521  12.573  0.1190 -0.2298  0.1525
 2867W        W 7067   7.577   2.746   2.140 -0.1204  0.3337 -0.0187
 2868W        W 7068   0.425   4.839   0.761  0.0050  0.2109 -0.1435
 2869W        W 7069   1.130   7.093  10.451  0.1622 -0.0175 -0.0383
 2870W        W 7070   2.589   9.827   9.618 -0.0266  0.4816  0.1703
 2871W        W 7071   9.737   9.218   4.688 -0.3860 -0.1994  0.1080
 2872W        W 7072   2.643   3.302   5.382 -0.1638  0.0756 -0.0773
 2873W        W 7073   2.989   3.781  12.696  0.1645 -0.0438  0.0824
 2874W        W 7074   9.805   9.778  13.017 -0.1004 -0.2703 -0.1114
 2875W        W 7075   6.118   8.615   0.232 -0.0409  0.2641 -0.3542
 2876W        W 7076   2.449   4.650   2.992 -0.1587  0.1861 -0.1074
 2877W        W 7077   9.031   8.603   1.983 -0.2488 -0.2551  0.1419
 2878W        W 7078   0.946   9.428   5.228 -0.0476 -0.3222 -0.0383
 2879W        W 7079   9.917   3.598   4.212 -0.0347  0.2151 -0.0283
 2880W        W 7080  10.148   1.744  12.409  0.1539  0.1775 -0.0246
 2881W        W 7081   3.449   5.130   0.352  0.1587 -0.0425 -0.0365
 2882W        W 7082   0.843   8.253  10.090 -0.1712  0.4460  0.1028
 2883W        W 7083   4.022   7.215   4.010 -0.0357 -0.0661  0.1190
 2884W        W 7084   5.923   1.175   9.822  0.3431  0.2575  0.3808
 2885W        W 7085  10.371   3.365  10.041  0.3791  0.0065  0.0839
 2886W        W 7086   9.228   8.996  10.093 -0.4809  0.1077  0.0080
 2887W        W 7087   2.507   8.083  11.460 -0.0802 -0.2313 -0.0729
 2888W        W 7088   8.070   4.107  10.138  0.2460  0.1363  0.1197
 2889W        W 7089   0.539   2.739  12.559  0.0266  0.3963 -0.1607
 2890W        W 7090   7.950   7.729  10.481  0.0115  0.1315  0.0345
 2891W        W 7091   7.443   0.754   1.462 -0.0213  0.2628  0.2838
 2892W        W 7092   1.480   8.637  11.241  0.0476 -0.1562  0.0136
 2893W        W 7093  10.398   6.456   0.205  0.4020 -0.0802  0.0739
 2894W        W 7094   5.995   9.098   3.154 -0.1678 -0.0373 -0.3212
 2895W        W 7095  10.242   1.931   5.645  0.0179 -0.3065 -0.0140
 2896W        W 7096   9.759   0.973  12.883  0.3004 -0.2310  0.2568
 2897W        W 7097   6.533   5.166   1.906  0.0495  0.1247 -0.0851
 2898W        W 7098   4.048   9.221  10.441  0.0424  0.1566  0.1164
 2899W        W 7099   8.621   6.261  10.677  0.1586 -0.0043 -0.0432
 2900W        W 7100   6.424   4.943   0.348  0.1209 -0.0433  0.2400
 2901W        W 7101   4.459   5.991  12.983  0.0113  0.1318  0.1591
 2902W        W 7102   3.321   7.105  10.511  0.3059 -0.0844  0.0999
 2903W        W 7103   7.604   0.111  11.577  0.1042 -0.3814 -0.1029
 2904W        W 7104   8.008  10.311   3.051  0.2564 -0.4322  0.2662
 2905W        W 7105   6.758   9.284   1.249  0.2248  0.1781 -0.2822
 2906W        W 7106   6.590   0.450  10.075 -0.0939 -0.0519  0.0840
 2907W        W 7107   0.087   4.068   9.751 -0.2267  0.0001  0.2843
 2908W        W 7108   3.422   5.035  12.102 -0.1392 -0.1864 -0.0857
 2909W        W 7109   6.455   8.716  13.296  0.3391  0.1902 -0.2446
 2910W        W 7110   1.619   9.101  11.083  0.0133 -0.2213 -0.1152
 2911W        W 7111   1.450   4.236  11.734  0.3412 -0.1708 -0.2729
 2912W        W 7112   6.394   5.472   8.698 -0.1727 -0.2243  0.1358
 2913W        W 7113   8.769   7.025   1.552  0.2372  0.0952 -0.2543
 2914W        W 7114   4.072   4.689  11.704  0.0772  0.0557 -0.1237
 2915W        W 7115   9.969   7.097  10.513  0.1048  0.3254 -0.1583
 2916W        W 7116   5.879   1.947  11.071  0.1206 -0.0257 -0.0130
 2917W        W 7117  10.180   1.293   0.530 -0.1512 -0.0392  0.0798
 2918W        W 7118   3.790   1.174  11.743  0.2233 -0.2236  0.3061
 2919W        W 7119   2.707   6.661  13.089 -0.1454  0.0507  0.3381
 2920W        W 7120   8.968  10.193  11.652 -0.1296  0.0798  0.1757
 2921W        W 7121   8.564   8.866   9.821  0.1350 -0.2129 -0.0482
 2922W        W 7122   9.499   0.944  10.419 -0.1508  0.0343  0.1868
 2923W        W 7123   5.776   1.282   2.341  0.0062  0.0024  0.2308
 2924W        W 7124   6.546   3.869  12.841  0.3472 -0.1339  0.0445
 2925W        W 7125   5.110   1.382   2.983 -0.5944  0.3897 -0.1694
 2926W        W 7126   2.209   9.037   3.953 -0.0286  0.0178  0.0613
 2927W        W 7127   7.961   0.350   2.181  0.0467  0.2599 -0.0063
 2928W        W 7128   4.075   7.221   0.853  0.0568 -0.1255  0.0909
 2929W        W 7129   9.430   8.830   0.371  0.1161 -0.0739 -0.2135
 2930W        W 7130   5.759   8.105   2.256  0.3019 -0.1230  0.1006
 2931W        W 7131   5.225   1.454   2.410 -0.2972 -0.2265 -0.2309
 2932W        W 7132   7.290   3.025  10.746  0.1501  0.0970  0.1445
 2933W        W 7133   8.029   9.335  10.466 -0.2472 -0.0773 -0.0632
 2934W        W 7134   5.347   9.652   2.432 -0.3443  0.2838 -0.0381
 2935W        W 7135   6.714   4.652   4.448  0.1426  0.1161 -0.1385
 2936W        W 7136   3.721   8.021   1.936  0.1285  0.0245  0.0041
 2937W        W 7137   2.510   6.870  12.037 -0.0566 -0.0185  0.3033
 2938W        W 7138   5.437   3.120   0.518 -0.0054  0.0096 -0.4677
 2939W        W 7139   8.362   1.130  12.499  0.2555 -0.5757 -0.5556
 2940W        W 7140   4.154   7.549  13.320 -0.1874 -0.0857 -0.0035
 2941W        W 7141   4.802   7.095   1.369  0.0099 -0.1797 -0.2657
 2942W        W 7142   8.295   1.385   9.429 -0.0502 -0.3439 -0.1386
 2943W        W 7143   6.671   9.323  10.942  0.0794 -0.2044  0.0701
 2944W        W 7144   6.878   1.727  11.799 -0.0581  0.3990  0.2257
 2945W        W 7145   8.118   2.824   4.072 -0.1591 -0.1899 -0.2941
 2946W        W 7146   6.484   9.058   4.170  0.0699 -0.0803  0.2924
 2947W        W 7147   3.270   5.088   2.510  0.1207  0.1831 -0.0191
 2948W        W 7148   1.622   3.816  12.762  0.1044  0.1356 -0.0591
 2949W        W 7149   2.817   0.538   2.737  0.1953  0.0146 -0.1422
 2950W        W 7150   3.480   8.611  10.591  0.1316  0.4419 -0.0306
 2951W        W 7151   6.224   1.652   3.512  0.0094 -0.3637 -0.0091
 2952W        W 7152   8.884   2.132   4.070 -0.0776 -0.1676 -0.0142
 2953W        W 7153   7.110   0.572  13.006 -0.0336 -0.1162 -0.1244
 2954W        W 7154   3.109   9.096  13.399  0.2271 -0.0100 -0.0183
 2955W        W 7155  10.123   0.896   4.977 -0.0205  0.1437  0.2484
 2956W        W 7156   7.011   6.264   0.808 -0.0271 -0.1780  0.0266
 2957W        W 7157   8.745   6.635   4.151 -0.0366  0.2012 -0.0185
 2958W        W 7158   0.494   0.700   1.552  0.3613  0.1029 -0.3005
 2959W        W 7159   3.228   9.447  10.202  0.2395 -0.1245  0.1294
 2960W        W 7160   0.213   6.964   3.244 -0.1792 -0.2353 -0.1228
 2961W        W 7161   3.745   0.775  11.433  0.0788 -0.2031 -0.2491
 2962W        W 7162   2.391   5.704   0.532  0.3101  0.4963  0.0825
 2963W        W 7163   2.294   6.049  10.945 -0.1211  0.1214  0.0726
 2964W        W 7164   6.087   3.642  12.936  0.2117  0.1481  0.1424
 2965W        W 7165   6.604   4.207   1.060 -0.0222 -0.0217  0.0447
 2966W        W 7166   1.386   1.451   0.499  0.0209  0.0155  0.0710
 2967W        W 7167   7.072   6.118   1.382  0.3652 -0.0908 -0.0405
 2968W        W 7168   6.809   0.973  10.150  0.1938  0.0216 -0.1556
 2969W        W 7169   9.679   2.094  10.206  0.2474  0.0385  0.1025
 2970W        W 7170   5.003   2.691   1.278 -0.0453  0.0424  0.0187
 2971W        W 7171   9.157   8.613  13.096  0.0099 -0.1158 -0.2739
 2972W        W 7172   8.971   8.510   0.587 -0.3478 -0.1173 -0.2643
 2973W        W 7173   4.741   9.393  11.984  0.0525  0.1820  0.1459
 2974W        W 7174   5.962   5.136  12.028  0.0093 -0.0897 -0.0639
 2975W        W 7175  10.374   2.672  10.611 -0.1911  0.0811  0.1841
 2976W        W 7176   4.233   7.960   9.152 -0.3510  0.1787 -0.3855
 2977W        W 7177   1.037   9.201  12.994  0.0170 -0.1042 -0.1498
 2978W        W 7178   5.929  10.379   9.454  0.1237  0.0942 -0.1037
 2979W        W 7179   8.374   7.093   2.043 -0.0001  0.1050  0.0756
 2980W        W 7180   3.936   5.795   4.725  0.2554 -0.0356  0.3185
 2981W        W 7181   0.464   7.990  11.028  0.0274 -0.0463  0.0616
 2982W        W 7182   3.366   3.363   2.823 -0.0381  0.1556  0.0326
 2983W        W 7183   8.172   8.961  10.202 -0.2104  0.2695 -0.1056
 2984W        W 7184   6.245   0.832  12.204 -0.0232  0.0555 -0.0070
 2985W        W 7185  10.232   6.667   3.242  0.1761  0.1386 -0.0252
 2986W        W 7186   3.401   5.539  13.128  0.1294 -0.0631 -0.1224
 2987W        W 7187   9.588   3.562   1.021 -0.0844  0.2927  0.1755
 2988W        W 7188   6.421   1.262   9.687 -0.0261 -0.0820  0.1070
 2989W        W 7189   7.238   5.456  11.583 -0.2606  0.0589 -0.1568
 2990W        W 7190   6.004   5.359   9.102 -0.1166 -0.0141 -0.3292
 2991W        W 7191   6.124   8.760  12.378  0.1605 -0.2168  0.2342
 2992W        W 7192   3.785   7.720  11.464 -0.2184 -0.1272  0.1290
 2993W        W 7193   4.801  10.205  12.138 -0.4308  0.2360  0.0681
 2994W        W 7194   5.916   3.305   0.484 -0.2945 -0.0128  0.1803
 2995W        W 7195   6.218   8.405   4.362  0.0523 -0.0462  0.2013
 2996W        W 7196   2.201   8.233   3.873 -0.2018 -0.0432 -0.0750
 2997W        W 7197   1.701   8.476   1.196  0.0069 -0.0768  0.3974
 2998W        W 7198   0.077   2.831   1.845 -0.0337 -0.0735 -0.2456
 2999W        W 7199   7.771   6.335   4.636 -0.0807  0.1201  0.0774
 3000W        W 7200   4.431   6.232   1.287 -0.1972 -0.0442  0.0342
 3001W        W 7201   6.806   6.915   2.373  0.0618  0.2164 -0.1820
 3002W        W 7202   8.826   1.033   1.210 -0.2885  0.0316 -0.1874
 3003W        W 7203   4.721   1.078   9.395 -0.1730  0.0423 -0.1554
 3004W        W 7204   8.140   5.844   2.051  0.0075 -0.1747 -0.0920
 3005W        W 7205   3.768   7.798   8.964  0.1271 -0.0549  0.0378
 3006W        W 7206   9.085   4.824  11.461  0.3082 -0.0035  0.3252
 3007W        W 7207   9.680   5.987  12.634 -0.0690 -0.3419 -0.2505
 3008W        W 7208   4.484   7.468   1.594 -0.2359  0.1861  0.1724
 3009W        W 7209   2.261   4.071   9.385 -0.0825 -0.1497 -0.0716
 3010W        W 7210   8.483   4.831  12.551 -0.2179  0.2352 -0.2846
 3011W        W 7211   0.895   2.232  12.531  0.3058  0.1993 -0.3466
 3012W        W 7212   3.146   8.703   2.535  0.2126 -0.1992 -0.1429
 3013W        W 7213   4.730   2.257  13.249 -0.1915  0.1411 -0.0279
 3014W        W 7214   5.427   1.817   3.752  0.1898 -0.3216  0.0293
 3015W        W 7215   0.279   4.003  12.138  0.1041 -0.0655 -0.2850
 3016W        W 7216   6.033   6.165   0.887 -0.0576  0.0932 -0.1535
 3017W        W 7217   7.533   6.048   2.313 -0.3598  0.1621 -0.0248
 3018W        W 7218   4.067   8.979   9.316 -0.2532  0.0782 -0.0883
 3019W        W 7219   3.211   3.445   3.297  0.3242 -0.0629  0.1194
 3020W        W 7220   3.349   3.992  11.353 -0.0498 -0.1841  0.0636
 3021W        W 7221   3.510   9.000   2.315  0.0761  0.0719  0.1388
 3022W        W 7222   2.802   3.369   9.476 -0.2691  0.0148 -0.2215
 3023W        W 7223   6.712   3.763   1.972 -0.1001 -0.1351  0.0929
 3024W        W 7224   4.128   5.770   0.179  0.3535  0.0805  0.2110
 3025W        W 7225   8.242  10.133  10.384 -0.0551  0.1282 -0.3473
 3026W        W 7226   9.053  10.323  12.365  0.1613 -0.0228  0.0943
 3027W        W 7227   7.146   9.929   1.065  0.1413  0.0322  0.1556
 3028W        W 7228   2.235   3.765   3.327 -0.3297 -0.2389 -0.0250
 3029W        W 7229   8.003   9.783   1.061 -0.0048  0.0383 -0.0664
 3030W        W 7230   4.382   7.733   0.610  0.1919  0.2941  0.0942
 3031W        W 7231   4.664   5.598   8.837 -0.2487  0.3331 -0.2053
 3032W        W 7232   9.232   5.910   9.265  0.1593  0.4179  0.1955
 3033W        W 7233   2.349   6.065   2.459 -0.0668 -0.2474  0.0383
 3034W        W 7234   7.909   2.502   1.400 -0.1454  0.0630  0.0578
 3035W        W 7235   3.032   2.576  11.352  0.0080  0.0958 -0.0115
 3036W        W 7236   4.336  10.333  13.080 -0.2041  0.2213  0.1038
 3037W        W 7237   8.578  10.075  12.488 -0.0215  0.1961  0.0341
 3038W        W 7238   1.103   7.824  13.441 -0.0230  0.1330  0.1938
 3039W        W 7239   8.962   4.535   2.622  0.1549 -0.1398 -0.2344
 3040W        W 7240   4.460   4.140   2.986  0.0633 -0.0187 -0.1013
 3041W        W 7241   2.999   7.486  11.879 -0.1093 -0.1174 -0.2264
 3042W        W 7242   4.588   0.384  11.071  0.2827 -0.1520  0.0024
 3043W        W 7243   9.548   8.561  12.117  0.0916 -0.1063  0.1536
 3044W        W 7244   3.935   2.906   8.755  0.0028  0.0462  0.0857
 3045W        W 7245   0.464   0.939   4.712  0.0510  0.4171 -0.0136
 3046W        W 7246   4.357   5.306   0.167 -0.2254  0.1616  0.0843
 3047W        W 7247   1.450   1.356   4.671 -0.0701 -0.3102  0.2122
 3048W        W 7248   2.830   4.775   1.572  0.4963  0.0206  0.1086
 3049W        W 7249   2.249   1.282  10.761 -0.0580 -0.0439  0.3768
 3050W        W 7250   6.488  10.434  11.793 -0.1178 -0.0767 -0.2011
 3051W        W 7251   8.395   4.054   9.177  0.1958 -0.2251 -0.2024
 3052W        W 7252   7.726   4.955   0.095 -0.2597 -0.1380 -0.1565
 3053W        W 7253   9.961   3.381   2.544  0.1355  0.2002 -0.0114
 3054W        W 7254   3.964   1.905  12.645  0.1649 -0.0685  0.3019
 3055W        W 7255   5.171   2.845   2.669  0.1611  0.2924 -0.2365
 3056W        W 7256   6.020   6.140   1.547 -0.2289  0.2814  0.0068
 3057W        W 7257   8.665   8.389  11.804 -0.1341  0.0202 -0.2715
 3058W        W 7258   6.213   2.006   1.236 -0.2571  0.0134  0.0350
 3059W        W 7259   7.565   5.036  12.549 -0.2344 -0.2430 -0.1498
 3060W        W 7260   0.272   0.394   1.954 -0.1504 -0.4283  0.2074
 3061W        W 7261   4.728   3.129   2.689 -0.0597  0.1422 -0.0240
 3062W        W 7262   3.129   0.727   1.477 -0.0431  0.3119  0.1757
 3063W        W 7263   1.303   4.681  12.171  0.0383  0.0927 -0.2612
 3064W        W 7264   8.192   1.531  10.044  0.0427 -0.1225 -0.1431
 3065W        W 7265   4.089   4.860   2.012  0.1563 -0.1180 -0.1389
 3066W        W 7266   4.600  10.126   2.642  0.4820  0.0963  0.0397
 3067W        W 7267   2.201   2.503   9.935  0.3550  0.1754 -0.0942
 3068W        W 7268   6.409   7.818   2.797 -0.0115  0.1189  0.4936
 3069W        W 7269   2.764   4.074  13.443 -0.1878  0.2211  0.1464
 3070W        W 7270   2.249  10.240   2.436  0.1144  0.2935  0.1824
 3071W        W 7271   6.610   5.265   2.503  0.2206 -0.3428 -0.1534
 3072W        W 7272   1.253   0.598   4.795 -0.1438 -0.3723 -0.0665
 3073W        W 7273   1.919   4.694   2.111  0.0959  0.0782 -0.2268
 3074W        W 7274   7.596   0.029   3.463  0.0480  0.4967  0.0713
 3075W        W 7275   4.315   8.809   3.015  0.2795 -0.2773 -0.0927
 3076W        W 7276   3.863   3.510  10.651  0.3331 -0.2011 -0.4867
 3077W        W 7277   5.975   2.794   0.192 -0.2141  0.1036  0.0171
 3078W        W 7278   4.073   7.212  10.373  0.1352  0.2014 -0.3719
 3079W        W 7279   8.019  10.053   1.506 -0.0707 -0.3132 -0.3610
 3080W        W 7280   3.933   9.525  12.919 -0.0542 -0.3053  0.6519
 3081W        W 7281   1.116   3.881  12.711 -0.0892  0.1065  0.1441
 3082W        W 7282   4.377   2.984   4.219  0.0091  0.4139 -0.0152
 3083W        W 7283  10.181   6.119   2.013  0.1827  0.1004 -0.2849
 3084W        W 7284   9.731   7.421   1.900  0.0042  0.2210  0.1379
 3085W        W 7285   4.196   3.291  10.414 -0.1474  0.1275 -0.3030
 3086W        W 7286   7.950   3.075   8.453  0.1235  0.0360 -0.1015
 3087W        W 7287   9.741   3.464  11.386 -0.3096  0.3748  0.1067
 3088W        W 7288   9.865   5.570   3.819  0.0632 -0.0262 -0.2312
 3089W        W 7289  10.432   8.924   4.131 -0.1409  0.1001 -0.2339
 3090W        W 7290   7.899   7.959   8.364 -0.0604  0.0239 -0.0681
 3091W        W 7291   9.868   9.869   9.746  0.1397 -0.2565 -0.0203
 3092W        W 7292   9.026   7.265   3.433  0.0276 -0.1475  0.0654
 3093W        W 7293   5.264   7.232   0.698 -0.1207  0.0554  0.0201
 3094W        W 7294   2.907   0.606  10.095  0.0933  0.1507  0.1386
 3095W        W 7295   9.234   3.990   0.136 -0.3309 -0.0231  0.2644
 3096W        W 7296  10.217   3.807  11.562 -0.1306 -0.4044  0.0712
 3097W        W 7297   7.226   9.945   4.759 -0.1056 -0.0436 -0.1486
 3098W        W 7298   6.074   4.216  11.267  0.0482 -0.0297 -0.4943
 3099W        W 7299   9.870   8.929  11.404 -0.2182 -0.1949  0.0460
 3100W        W 7300   1.039   8.414   3.594  0.0854  0.1440 -0.1370
 3101W        W 7301   1.518   5.200  12.291 -0.1813  0.2708  0.0785
 3102W        W 7302   3.766   5.268  12.411 -0.0937  0.1149  0.1165
 3103W        W 7303   5.226   9.232   9.478 -0.2113  0.3825 -0.6023
 3104W        W 7304   5.790   8.679   3.971 -0.0522 -0.2094 -0.2601
 3105W        W 7305   7.373   9.317   3.972 -0.1418 -0.1442  0.3268
 3106W        W 7306   5.480   1.995   8.996 -0.2176  0.0723  0.0018
 3107W        W 7307   5.613   3.360   0.112  0.2958  0.0105  0.0305
 3108W        W 7308   1.157   8.234  11.190 -0.3021 -0.0230 -0.2059
 3109W        W 7309   0.741   8.678   4.284 -0.2948  0.0472 -0.1034
 3110W        W 7310   3.409   2.528  12.199 -0.0358  0.0795 -0.1095
 3111W        W 7311   9.309  10.350   2.837  0.1836  0.2838 -0.1370
 3112W        W 7312   6.488   5.724   3.005  0.0194 -0.1883 -0.1476
 3113W        W 7313   3.409   3.063  11.466  0.2269 -0.0982  0.1865
 3114W        W 7314   4.355   8.085  12.267 -0.0889 -0.2907  0.1738
 3115W        W 7315   4.827   1.039   4.001  0.0416  0.1743 -0.1407
 3116W        W 7316   1.967   6.274   2.264  0.1743  0.2008  0.2382
 3117W        W 7317   4.923   3.326  13.194 -0.2731 -0.5068  0.4651
 3118W        W 7318   5.054   2.824  10.933  0.0025 -0.0489 -0.0075
 3119W        W 7319   5.709   6.530   1.512 -0.0992 -0.0582 -0.0300
 3120W        W 7320   7.636   7.522   2.366 -0.4066  0.1780  0.0213
 3121W        W 7321   5.928   2.353  12.075 -0.2184 -0.0052 -0.0115
 3122W        W 7322   8.150   7.070   2.543  0.1383 -0.1620  0.2018
 3123W        W 7323   8.438   0.859   3.823  0.3402 -0.3018  0.0563
 3124W        W 7324   8.733   1.042   2.485  0.2530 -0.1232 -0.1414
 3125W        W 7325   5.069   9.782  12.043 -0.0253 -0.0291  0.1025
 3126W        W 7326   6.358   2.681  11.951  0.0537 -0.1212  0.0521
 3127W        W 7327   0.995  10.131  11.496 -0.3227 -0.1352  0.0344
 3128W        W 7328   6.851   8.091   2.761  0.0199  0.0036  0.1024
 3129W        W 7329   3.125   0.095   3.579  0.2768 -0.1182  0.0525
 3130W        W 7330   8.053   2.618  11.987  0.0406  0.1176 -0.1873
 3131W        W 7331   1.505   3.576   1.138 -0.1104 -0.0741  0.0656
 3132W        W 7332   9.625   2.431   1.766 -0.0293 -0.0295  0.4244
 3133W        W 7333   7.870   1.091   5.557 -0.1176  0.0212  0.0244
 3134W        W 7334   8.319   6.308   2.052 -0.2132  0.1804  0.0797
 3135W        W 7335   9.450   9.526  12.261 -0.1821  0.1518  0.0552
 3136W        W 7336   2.991   4.512   9.967 -0.0007  0.3612 -0.3052
 3137W        W 7337   7.187   6.089   2.665 -0.0731  0.1742 -0.1577
 3138W        W 7338   6.941   3.172  12.578 -0.0171 -0.1111  0.2595
 3139W        W 7339   3.185   9.858   2.719  0.0528  0.0331 -0.2212
 3140W        W 7340   1.179   0.584   9.542  0.0088 -0.1670  0.5322
 3141W        W 7341   4.707   0.024  11.497  0.0619  0.0788 -0.1155
 3142W        W 7342   6.835   7.927   4.351 -0.1114 -0.0659  0.2547
 3143W        W 7343   9.568   6.834   0.356  0.2712 -0.1840 -0.0520
 3144W        W 7344   7.351   9.752   2.905  0.1120  0.1851 -0.2908
 3145W        W 7345   6.561   7.069   0.610 -0.1312  0.0668  0.0553
 3146W        W 7346   2.154   5.497  12.745 -0.2320 -0.0620  0.0159
 3147W        W 7347   5.067   4.054  11.536  0.2247 -0.0054 -0.0643
 3148W        W 7348   9.517   4.516   3.311 -0.2518  0.0135 -0.0117
 3149W        W 7349   1.713   6.322   3.743 -0.1093  0.2233  0.2331
 3150W        W 7350   0.685   3.527   0.420 -0.2066 -0.0854 -0.2865
 3151W        W 7351   6.789   0.827   3.814  0.0803  0.1089 -0.3004
 3152W        W 7352   4.326   2.857   3.721 -0.0560 -0.0724  0.1696
 3153W        W 7353   2.950   2.373  12.173 -0.1576  0.1387  0.2674
 3154W        W 7354   1.628   1.932   1.252 -0.1338 -0.3365 -0.0370
 3155W        W 7355   1.327   9.282  10.756 -0.0243  0.1127 -0.0707
 3156W        W 7356   6.147   4.451   0.101 -0.1231 -0.1629  0.0596
 3157W        W 7357   7.924   0.788   3.724  0.1407 -0.0849  0.1363
 3158W        W 7358   2.362   6.529   3.935 -0.0940 -0.0422  0.0284
 3159W        W 7359   8.674   0.718   3.214 -0.2335  0.0506 -0.0493
 3160W        W 7360   3.731   2.291  13.323 -0.2792 -0.1094  0.0754
 3161W        W 7361   6.815   9.086   2.793  0.1163  0.2136 -0.1913
 3162W        W 7362   2.652   0.354   3.753  0.2403 -0.1968  0.1292
 3163W        W 7363   1.335   7.591  10.745  0.4068  0.0185  0.1711
 3164W        W 7364   5.342   8.255  11.225 -0.3458 -0.1113  0.2842
 3165W        W 7365   6.526   7.864  12.343 -0.0148 -0.3339 -0.2183
 3166W        W 7366   1.045   5.367   2.898  0.1390  0.3194  0.0536
 3167W        W 7367   2.683   4.182   4.492  0.2598  0.1443  0.0081
 3168W        W 7368   5.792   9.237  10.115  0.1433 -0.1029 -0.0538
 3169W        W 7369   6.778   9.839  11.266  0.2891  0.1949 -0.0680
 3170W        W 7370   1.855   7.293  12.702 -0.1411  0.0150 -0.1847
 3171W        W 7371  10.147   9.277  12.849 -0.0056 -0.3686  0.2083
 3172W        W 7372   2.424   4.338  11.347  0.0492 -0.0227 -0.0306
 3173W        W 7373  10.093   6.630  12.090  0.3288  0.1777  0.0696
 3174W        W 7374   9.200   7.419  13.224 -0.2986 -0.0219  0.2330
 3175W        W 7375   1.955   7.952   2.445  0.1721 -0.2916  0.0592
 3176W        W 7376   6.580   2.547  11.531 -0.3061 -0.0928  0.0004
 3177W        W 7377   5.097   2.657  11.904 -0.0267 -0.0054 -0.0692
 3178W        W 7378   7.770   4.954   1.939 -0.1965 -0.1771  0.1499
 3179W        W 7379   7.656  10.135   9.684 -0.0051  0.0029  0.1608
 3180W        W 7380  10.355   1.779   9.842 -0.0593 -0.1419  0.2902
 3181W        W 7381   3.736   1.558   2.775 -0.1489 -0.1325  0.0621
 3182W        W 7382   4.132   0.530   3.772 -0.2608 -0.1980  0.1825
 3183W        W 7383   7.454   0.025  11.006 -0.0437 -0.0693  0.1889
 3184W        W 7384   4.662   6.331  12.061 -0.0322  0.2175  0.0560
 3185W        W 7385   8.585   7.292   2.577 -0.2237  0.0138 -0.2548
 3186W        W 7386   6.539   9.415   9.766  0.0887  0.0289 -0.2204
 3187W        W 7387   6.212   7.034   2.007 -0.1683  0.1807  0.0451
 3188W        W 7388   9.719   3.237   3.004 -0.0190  0.1061 -0.1176
 3189W        W 7389   8.050   0.730  12.704 -0.2264  0.3203  0.0157
 3190W        W 7390   8.938   5.409   0.089  0.3383 -0.0456 -0.1337
 3191W        W 7391   4.330   9.355   0.997 -0.2452 -0.3674 -0.0345
 3192W        W 7392   0.577   6.297   1.350  0.1002 -0.0040  0.1286
 3193W        W 7393   5.843   2.852  10.339 -0.1999  0.3032 -0.2219
 3194W        W 7394   1.176   1.307  10.998 -0.2992  0.2212  0.1825
 3195W        W 7395   8.211   3.850  11.682  0.3378  0.1029  0.2914
 3196W        W 7396   8.118   9.086  13.301  0.1319 -0.0633 -0.0251
 3197W        W 7397   6.618   2.553   4.129  0.0602 -0.0588  0.1822
 3198W        W 7398   6.151   2.406   4.320  0.0822 -0.1754  0.2210
 3199W        W 7399   9.776   3.389   2.040 -0.1142  0.1948  0.2214
 3200W        W 7400   2.245   7.608   3.888  0.0837 -0.1570 -0.1914
 3201W        W 7401   6.279   4.582   9.819 -0.2235  0.0466 -0.3783
 3202W        W 7402   6.559   4.992  11.306 -0.0313  0.2426  0.1169
 3203W        W 7403   8.065   5.170  12.370 -0.1252  0.2221 -0.2956
 3204W        W 7404   5.639   5.190  13.271 -0.0107  0.0795 -0.1666
 3205W        W 7405   7.641   7.262   3.496  0.0797 -0.1423 -0.1927
 3206W        W 7406   3.442   5.749   0.966  0.2466 -0.1035  0.0796
 3207W        W 7407   5.771   9.599   3.160  0.2585 -0.2178  0.5417
 3208W        W 7408   4.905   1.148   9.878 -0.0664 -0.1097  0.0324
 3209W        W 7409   4.835   3.657   3.016 -0.2117 -0.0529  0.0758
 3210W        W 7410   5.414   5.984  12.786 -0.3340  0.0262  0.0959
 3211W        W 7411   0.076   0.364  10.750 -0.2635 -0.2064  0.0073
 3212W        W 7412   0.197   2.444   2.182  0.0201  0.3511  0.0434
 3213W        W 7413   1.456   4.022   0.273  0.4397 -0.1018  0.2403
 3214W        W 7414   8.493   9.110  10.663  0.0821  0.1863  0.2024
 3215W        W 7415   1.446   1.982   0.425 -0.0066 -0.0902  0.4360
 3216W        W 7416   4.528   6.508   2.784  0.1750 -0.3877 -0.0233
 3217W        W 7417   1.975   6.954   0.012 -0.1065  0.1998 -0.1746
 3218W        W 7418   4.024   0.195   8.861 -0.1508  0.2323  0.0427
 3219W        W 7419   7.612   8.203   1.198 -0.0580  0.1614  0.0255
 3220W        W 7420   5.416   0.377   2.087  0.3876  0.0614  0.0452
 3221W        W 7421   1.906   9.825   2.460  0.1637 -0.0999 -0.0847
 3222W        W 7422   4.707   2.639  12.372  0.0471  0.1259 -0.2222
 3223W        W 7423   8.456   6.758   0.602 -0.2838  0.1366  0.1454
 3224W        W 7424   2.592   0.157   0.785 -0.1881 -0.1631 -0.0996
 3225W        W 7425   4.240   3.185   9.587 -0.0695 -0.1731 -0.3330
 3226W        W 7426  10.122   5.390  11.888  0.0824  0.4088 -0.1923
 3227W        W 7427   9.193   5.458   3.648 -0.0739  0.1163 -0.1635
 3228W        W 7428   8.258   9.997   2.653  0.0797  0.4038  0.2257
 3229W        W 7429   6.291   6.597   1.684 -0.0362 -0.1082  0.0013
 3230W        W 7430   1.966   1.314   2.804 -0.2470 -0.3913  0.0042
 3231W        W 7431   8.590   5.391   4.352 -0.1828 -0.1138 -0.1143
 3232W        W 7432   1.594   1.499   4.131 -0.0972  0.3081 -0.0928
 3233W        W 7433   1.219  10.314   2.533  0.2271 -0.1626 -0.0346
 3234W        W 7434   0.885   7.354  12.334 -0.2452 -0.0082 -0.0799
 3235W        W 7435   3.865   4.124  12.525  0.3067 -0.2793  0.0871
 3236W        W 7436   1.750   2.286   0.608  0.3269  0.0415  0.0707
 3237W        W 7437   9.147   3.099   5.139  0.0483  0.0433 -0.1627
 3238W        W 7438   5.924   5.161  11.546  0.2464  0.0781  0.1953
 3239W        W 7439   5.220   6.626   3.921  0.1376  0.2461  0.1693
 3240W        W 7440   0.843   7.112  10.917  0.1622 -0.3517  0.0652
 3241W        W 7441  10.084   8.077  11.670  0.0289 -0.1550  0.1203
 3242W        W 7442   7.908   6.262  12.817 -0.1156  0.0335  0.1203
 3243W        W 7443   2.080   8.194  13.426 -0.0248 -0.4301 -0.0657
 3244W        W 7444   1.591   0.815  12.703 -0.2485  0.0463 -0.0015
 3245W        W 7445   2.532   3.280  12.687 -0.2093  0.1416 -0.0991
 3246W        W 7446   8.548   4.107   0.754  0.0775  0.0010  0.3012
 3247W        W 7447   6.345   4.491   3.553 -0.1818  0.2542 -0.1956
 3248W        W 7448   8.039   0.755  11.597  0.2419 -0.3381 -0.0409
 3249W        W 7449   8.386   8.865   8.529  0.0852  0.1747  0.0368
 3250W        W 7450   9.358   1.636   0.339  0.0882 -0.1450  0.4058
 3251W        W 7451   7.183   2.935   0.807  0.4446  0.0992 -0.0307
 3252W        W 7452   1.167   7.860  11.545  0.2116 -0.0628 -0.1769
 3253W        W 7453   1.345   3.900  10.655  0.0279  0.0741 -0.0459
 3254W        W 7454   3.537   7.805   9.734  0.3191  0.0360 -0.2533
 3255W        W 7455   0.665   4.447  10.913  0.2053  0.1670 -0.0010
 3256W        W 7456   7.169   9.299  11.184  0.0048 -0.2042 -0.0713
 3257W        W 7457   1.362   2.475   4.171 -0.1457  0.4553 -0.1014
 3258W        W 7458   3.251   7.617  11.477  0.1099  0.3451  0.1373
 3259W        W 7459   4.942   4.000   1.357  0.0931  0.2777  0.0403
 3260W        W 7460   4.200   2.332   9.444  0.2357 -0.1628 -0.0770
 3261W        W 7461   1.437   3.971  11.199  0.1885 -0.3566  0.1367
 3262W        W 7462   3.269   3.239   9.757  0.3199  0.2831  0.0571
 3263W        W 7463   1.730   7.479   2.224 -0.2331  0.2254 -0.1288
 3264W        W 7464   7.415   2.998  11.527  0.0060  0.2104 -0.4327
 3265W        W 7465   4.753   7.953   3.429  0.2264 -0.2089 -0.0462
 3266W        W 7466   0.786   1.173   9.045  0.1642 -0.0087  0.2229
 3267W        W 7467   3.943   1.948  12.109  0.0968  0.1140 -0.3434
 3268W        W 7468   0.502   4.212  10.043 -0.0416 -0.2029 -0.2381
 3269W        W 7469   0.694   2.889   9.558  0.0849 -0.0500  0.7035
 3270W        W 7470   8.610   9.507   4.355 -0.0888  0.0541 -0.0023
 3271W        W 7471   0.538   4.704  13.279  0.1286 -0.0273  0.1309
 3272W        W 7472   8.648   3.907  13.067  0.0641 -0.0540  0.0288
 3273W        W 7473   8.911   4.735  12.397  0.0227 -0.3335 -0.2427
 3274W        W 7474   2.941  10.457  10.264 -0.1602  0.0170  0.0108
 3275W        W 7475   6.430   6.057   9.576 -0.3781 -0.2865 -0.2813
 3276W        W 7476   6.403   0.696  10.990  0.1953  0.0649  0.0238
 3277W        W 7477   9.312   5.849   4.412  0.0853  0.0912 -0.0217
 3278W        W 7478   3.029   9.812  11.717 -0.3239 -0.0750  0.0824
 3279W        W 7479   3.074   9.606   3.128  0.3777  0.0085  0.0551
 3280W        W 7480   1.464   4.440   4.030 -0.0097 -0.0765 -0.2824
 3281W        W 7481   5.722   4.945   2.061 -0.0126  0.0600  0.0876
 3282W        W 7482   9.986   1.549  11.115  0.0360  0.0457  0.0467
 3283W        W 7483   2.412   5.633   2.098 -0.1695  0.0450  0.0455
 3284W        W 7484   7.905   2.407  10.588  0.1523 -0.0260  0.1763
 3285W        W 7485   5.718   8.605   5.118  0.0132 -0.0653  0.0021
 3286W        W 7486   9.245   8.971  12.139  0.1629 -0.0205 -0.2199
 3287W        W 7487   4.169   4.257   1.487 -0.0201 -0.0694 -0.1006
 3288W        W 7488   6.096  10.158  11.695  0.2217  0.0741 -0.1200
 3289W        W 7489   5.273   7.880  10.586 -0.2846 -0.0140 -0.1354
 3290W        W 7490  10.297   9.435  10.645  0.0898 -0.0967 -0.3703
 3291W        W 7491   8.109   8.456   3.749 -0.5029 -0.0496 -0.0734
 3292W        W 7492   4.432   7.367   2.120  0.0327 -0.1816 -0.1333
 3293W        W 7493   0.679   7.507   1.053 -0.0527  0.0204  0.1165
 3294W        W 7494   5.352   9.907  11.208  0.0688  0.3998  0.1489
 3295W        W 7495   4.377   2.453   4.176 -0.0456 -0.1465  0.2879
 3296W        W 7496   3.425   8.108   4.190 -0.1900 -0.1062  0.0888
 3297W        W 7497   3.303   5.829  10.606  0.0748  0.7617 -0.0063
 3298W        W 7498   1.271   9.356   3.466  0.0258  0.0130 -0.1437
 3299W        W 7499   3.924   7.738  10.438 -0.0592  0.0891  0.0266
 3300W        W 7500   2.089   2.101   1.052  0.0008  0.1063 -0.2083
 3301W        W 7501   2.348   0.163   1.535  0.1508 -0.0130  0.2043
 3302W        W 7502   4.285   7.971   9.875  0.2629  0.0479 -0.0005
 3303W        W 7503  10.033   2.718  13.464  0.0145 -0.0439 -0.0432
 3304W        W 7504   7.403   0.208   4.311 -0.2508  0.2880 -0.1522
 3305W        W 7505   1.538   2.935   2.817  0.2606  0.0334  0.2777
 3306W        W 7506   8.707   9.822   1.953  0.0425  0.1583  0.1817
 3307W        W 7507   9.105   9.274   3.687 -0.1862 -0.5815  0.0504
 3308W        W 7508   7.320   4.104   9.444 -0.2453  0.2353 -0.0080
 3309W        W 7509   1.858   1.965   3.880 -0.2246 -0.5435  0.1145
 3310W        W 7510   4.173   5.592   2.650 -0.0984  0.2318  0.0715
 3311W        W 7511   5.792   1.457   3.637  0.0648  0.1513  0.0286
 3312W        W 7512   5.895   3.168  12.888 -0.1862  0.0696 -0.1552
 3313W        W 7513   7.402   0.057   9.938  0.1787  0.2276  0.0931
 3314W        W 7514   2.245   6.630  11.120 -0.0171  0.0822  0.1496
 3315W        W 7515   2.715   7.792   2.334 -0.0163 -0.0361 -0.1216
 3316W        W 7516   7.654   1.024  10.684 -0.0338  0.0214  0.4815
 3317W        W 7517   7.875  10.259   0.985 -0.0777 -0.1491  0.2029
 3318W        W 7518   6.600   5.542   4.477 -0.1560 -0.1109  0.0106
 3319W        W 7519   2.188   6.289   3.483 -0.1981  0.2183  0.3668
 3320W        W 7520   7.524   5.361  13.428 -0.0733  0.3568 -0.2873
 3321W        W 7521   5.334   9.227   4.347  0.0483  0.0066 -0.0326
 3322W        W 7522  10.257   5.731   0.326 -0.1817  0.1421  0.2963
 3323W        W 7523   3.162   9.406   3.572  0.0560  0.1271  0.2504
 3324W        W 7524   2.059   8.341   0.832 -0.1290  0.0708  0.1657
 3325W        W 7525   3.514   7.880  11.859 -0.2011 -0.3222  0.4254
 3326W        W 7526   4.957   7.289   2.823 -0.1963  0.0296 -0.1792
 3327W        W 7527   3.952   5.014   9.901 -0.0912 -0.1659 -0.4274
 3328W        W 7528   5.081   9.649   0.284  0.0321 -0.3114  0.3174
 3329W        W 7529   4.745   7.021   0.865  0.2238 -0.2543 -0.0828
 3330W        W 7530   2.003   9.725  10.352  0.0086 -0.3764 -0.1416
 3331W        W 7531   1.226   9.941  11.921  0.5217  0.0431 -0.1961
 3332W        W 7532   4.221   5.686   3.924  0.1248 -0.0292 -0.0326
 3333W        W 7533   9.081   0.768   4.906 -0.3112  0.0688 -0.2697
 3334W        W 7534   5.157   4.365   1.060 -0.0702  0.3210 -0.0038
 3335W        W 7535   8.948   8.487  10.132  0.1561 -0.0994 -0.0852
 3336W        W 7536   9.387   0.187   9.847  0.3250  0.1371  0.0913
 3337W        W 7537   6.774   3.386  10.990  0.0566 -0.1504 -0.2904
 3338W        W 7538  10.170   8.855  13.284  0.1655 -0.1810  0.0340
 3339W        W 7539   4.778   4.503  10.027  0.0838 -0.0454  0.0544
 3340W        W 7540   9.359   6.367  10.432  0.0322 -0.0386  0.1207
 3341W        W 7541   7.058   7.291  11.301 -0.1300  0.2820 -0.2417
 3342W        W 7542   0.667   9.869   1.580  0.1557  0.2203  0.2490
 3343W        W 7543   0.258   2.083   9.146  0.2170 -0.0896 -0.1646
 3344W        W 7544   1.024   7.434   3.406  0.1647  0.0071 -0.1515
 3345W        W 7545   4.456   3.971   4.540  0.0052 -0.1018  0.2100
 3346W        W 7546   7.075   6.980   3.297  0.1821 -0.2294 -0.0238
 3347W        W 7547   0.335   7.099   2.816  0.2189 -0.1609  0.0132
 3348W        W 7548   4.305   0.325   1.320 -0.0419  0.1367  0.0908
 3349W        W 7549   1.531   3.481   0.172 -0.2116  0.0843  0.2968
 3350W        W 7550   3.749   3.142   0.331  0.0185  0.0815 -0.1708
 3351W        W 7551   9.013   2.029   2.186  0.1402  0.3745  0.1707
 3352W        W 7552   8.579   3.312   4.072  0.2423  0.1404  0.2343
 3353W        W 7553   4.116   3.646   0.469 -0.0272 -0.1359 -0.0511
 3354W        W 7554   1.605   8.563  12.384  0.0263  0.0556 -0.1222
 3355W        W 7555  10.085   8.494   4.665 -0.0992 -0.0052  0.1253
 3356W        W 7556   2.946   5.449  10.670 -0.1637  0.0342  0.0051
 3357W        W 7557   2.782   5.319  12.415  0.0348 -0.0520  0.3937
 3358W        W 7558   2.824  10.453   5.185 -0.0756 -0.0722 -0.0247
 3359W        W 7559   6.364   4.980   1.443 -0.2621 -0.0217 -0.0132
 3360W        W 7560   4.919   6.112  12.772 -0.0467  0.4141  0.4706
 3361W        W 7561   4.422   9.174   4.345 -0.1159 -0.1036  0.0696
 3362W        W 7562   2.335   3.710  11.889  0.1499  0.0704 -0.0117
 3363W        W 7563   1.870   4.711  10.649  0.1032 -0.0625 -0.0125
 3364W        W 7564   3.103   4.209  10.938  0.1400 -0.1989 -0.2082
 3365W        W 7565   5.193   2.805  12.402 -0.0804 -0.1212  0.3172
 3366W        W 7566   3.715   9.808  11.006 -0.3145  0.2078  0.1069
 3367W        W 7567   9.277   4.615   9.169  0.0302 -0.0181  0.0095
 3368W        W 7568   7.524   0.300   2.447 -0.0879  0.0677 -0.2647
 3369W        W 7569  10.215   0.242   3.745  0.0907  0.1192  0.0350
 3370W        W 7570   5.471   6.421   4.320  0.2122  0.2516 -0.1545
 3371W        W 7571   0.723   0.669  12.100 -0.0846 -0.3669  0.3080
 3372W        W 7572   9.319   6.075  11.854 -0.2141 -0.2139 -0.1705
 3373W        W 7573   2.545   9.809   0.272  0.0485  0.1430  0.0472
 3374W        W 7574   2.025  10.028   9.901  0.1557  0.1954  0.1672
 3375W        W 7575   0.064   8.465   1.612 -0.1943  0.3069 -0.0672
 3376W        W 7576   2.890   5.719  13.141 -0.3315 -0.2037  0.1764
 3377W        W 7577   5.895   9.299   2.178  0.3519 -0.1822 -0.3656
 3378W        W 7578   6.216   7.895   3.381  0.1767  0.2448 -0.0084
 3379W        W 7579   0.372   5.041  10.275  0.2307 -0.0709  0.1857
 3380W        W 7580   1.015   4.318  13.142  0.0536  0.1844 -0.1859
 3381W        W 7581   3.265   6.949  13.275  0.1800  0.0033 -0.2734
 3382W        W 7582   2.273   9.319   1.142  0.3153  0.0696 -0.0873
 3383W        W 7583   0.320   1.770  10.138 -0.1162 -0.1306  0.6609
 3384W        W 7584   4.772   6.706   2.086  0.0329  0.0182 -0.2101
 3385W        W 7585   0.964   8.928   1.283  0.1865  0.2787  0.1883
 3386W        W 7586   6.076   4.776  11.232  0.2090 -0.0643 -0.1832
 3387W        W 7587   6.449   5.518   0.819  0.5361 -0.1984 -0.3601
 3388W        W 7588   9.794   8.164   3.424  0.0923  0.2147  0.2177
 3389W        W 7589   7.221   2.151   0.415  0.1817 -0.2307  0.1027
 3390W        W 7590   4.008   8.601  12.054 -0.0218  0.2209  0.0783
 3391W        W 7591   0.537   9.091  11.972 -0.3428 -0.1838 -0.0521
 3392W        W 7592   4.607   8.878   3.445  0.2494 -0.0148 -0.0157
 3393W        W 7593   0.401   8.775  11.144 -0.2652 -0.0172 -0.0852
 3394W        W 7594   8.747   0.296  11.708 -0.0375 -0.2530  0.0189
 3395W        W 7595   2.297  10.008   3.290 -0.1255 -0.0247  0.3030
 3396W        W 7596   7.399   5.341  12.897  0.0524  0.1392  0.0282
 3397W        W 7597   7.019   7.785  12.127  0.1418  0.0376  0.1235
 3398W        W 7598   7.304   0.032   8.892  0.2236 -0.3389  0.0944
 3399W        W 7599   6.161   7.557   8.822  0.0880 -0.1151 -0.3327
 3400W        W 7600   8.124   2.234   3.487  0.0339 -0.0091 -0.4090
 3401W        W 7601   5.758   7.650   3.487  0.1541  0.1337 -0.0432
 3402W        W 7602   3.474   7.625  10.215 -0.1458  0.0078  0.0046
 3403W        W 7603   7.001   5.477   4.187 -0.1459 -0.0601 -0.3927
 3404W        W 7604   5.482   5.386  12.290 -0.1538  0.0699 -0.2173
 3405W        W 7605   9.369  10.037   8.608  0.1221  0.1279  0.0860
 3406W        W 7606   1.934   3.704   2.879  0.0287 -0.1787 -0.0501
 3407W        W 7607   0.572   9.837   0.181 -0.1161  0.0692 -0.1320
 3408W        W 7608   7.863   1.322   2.568 -0.0642  0.1747 -0.0558
 3409W        W 7609   4.463   1.995  12.071 -0.0820 -0.3401 -0.0130
 3410W        W 7610   4.596   6.818  12.742 -0.1066 -0.1900 -0.0891
 3411W        W 7611   2.575   2.078  12.977  0.2488  0.1679  0.2544
 3412W        W 7612   8.835   1.685   0.178 -0.0816 -0.2382 -0.0807
 3413W        W 7613   7.595   0.049   1.524  0.0645 -0.1418  0.0106
 3414W        W 7614   7.210   0.990   8.941  0.3067 -0.0785  0.0913
 3415W        W 7615   0.605   4.981  11.154 -0.0740 -0.0904 -0.0964
 3416W        W 7616   3.722   0.329  11.980  0.2696 -0.0843  0.1259
 3417W        W 7617   5.402   8.998   1.702 -0.3177  0.1817  0.0950
 3418W        W 7618   6.714   3.525   3.643  0.2202 -0.0560  0.1813
 3419W        W 7619   1.043   4.711  11.142  0.1133 -0.0990  0.5188
 3420W        W 7620   4.825   1.684   3.276  0.3253  0.1008  0.0086
 3421W        W 7621   2.993   3.980  10.472  0.2382  0.0384 -0.0096
 3422W        W 7622   0.536   8.698  11.655 -0.0502  0.0772  0.1859
 3423W        W 7623   1.225   2.799   4.675  0.1234  0.0098 -0.0980
 3424W        W 7624   9.394   3.157   9.703 -0.0124  0.0326  0.1888
 3425W        W 7625   0.670   4.593  11.493  0.0737  0.1559  0.1125
 3426W        W 7626   7.179   5.700  13.280  0.0136  0.4659  0.0518
 3427W        W 7627   0.005  10.398  10.416 -0.0244 -0.1240 -0.1272
 3428W        W 7628   3.064   0.200  13.099 -0.2904 -0.0518 -0.0985
 3429W        W 7629   3.991   7.204   1.372  0.1169 -0.2592 -0.0645
 3430W        W 7630   2.624   4.825  12.387 -0.4855 -0.0392 -0.1971
 3431W        W 7631   2.774   4.812  12.920 -0.1495  0.3311  0.0653
 3432W        W 7632   6.282   6.598  12.180  0.1600  0.2354  0.1808
 3433W        W 7633   6.270   7.634   0.602 -0.0801 -0.0819  0.0350
 3434W        W 7634   6.450   8.200   9.544 -0.0424  0.0271 -0.0936
 3435W        W 7635   9.369   2.563   5.153 -0.1052 -0.1274 -0.1797
 3436W        W 7636   5.656  10.359  11.758 -0.0469 -0.3103 -0.3503
 3437W        W 7637   2.433   9.634   1.667  0.0539 -0.0860  0.0947
 3438W        W 7638   8.022   5.040   9.666 -0.1183 -0.1460 -0.1647
 3439W        W 7639   3.312   5.984  12.165  0.0735 -0.2486  0.0066
 3440W        W 7640   3.670   1.042  10.108  0.0275 -0.4527 -0.0087
 3441W        W 7641   7.761   1.121   9.327  0.0406  0.0546 -0.0029
 3442W        W 7642   9.224   0.155   1.502 -0.2710 -0.4932 -0.1824
 3443W        W 7643   2.419   0.525  10.287  0.2184 -0.0663  0.1418
 3444W        W 7644   5.203   7.408  13.072  0.2429 -0.3695  0.1425
 3445W        W 7645   1.464  10.343   0.159  0.1354 -0.2381 -0.1718
 3446W        W 7646   1.938   1.468   1.211 -0.0482 -0.2282  0.0444
 3447W        W 7647  10.271   4.059  12.415 -0.4253 -0.1833  0.0518
 3448W        W 7648   9.053  10.324   1.080 -0.0992 -0.0893 -0.0910
 3449W        W 7649   5.836   7.182   8.683 -0.0345  0.2967 -0.0744
 3450W        W 7650   9.172   0.160   0.738 -0.0936 -0.2337  0.0995
 3451W        W 7651   0.170   5.114  13.262  0.1692 -0.0586 -0.0600
 3452W        W 7652   4.880   3.093   0.356 -0.1007  0.1972  0.2009
 3453W        W 7653   8.413   2.184   0.041 -0.2583 -0.1141  0.3822
 3454W        W 7654   6.460   1.595  13.093  0.1528  0.0100  0.1690
 3455W        W 7655   0.845   3.809   1.425  0.1685 -0.0978 -0.0047
 3456W        W 7656   2.184   5.100  11.483  0.2448 -0.0253 -0.0028
 3457W        W 7657   9.332   0.852  11.395 -0.1135  0.3823 -0.0468
 3458W        W 7658   4.184   9.104  12.654 -0.3139 -0.1327 -0.1922
 3459W        W 7659   3.800   4.866   1.454  0.1045  0.0459 -0.1596
 3460W        W 7660   2.608   7.820  12.064  0.0930 -0.3229 -0.0216
 3461W        W 7661   6.315   5.938   4.325  0.0387  0.0990 -0.0272
 3462W        W 7662   7.828   3.558   1.624  0.2096  0.2184 -0.2528
 3463W        W 7663   2.872   2.832   9.743  0.1577 -0.2506  0.0253
 3464W        W 7664   2.673   2.430  12.574  0.1013  0.0043  0.0143
 3465W        W 7665   7.897   7.044  13.317  0.3422  0.1458  0.1334
 3466W        W 7666   0.870   7.461  11.673  0.0151  0.1411 -0.0237
 3467W        W 7667   6.127   5.656   9.479 -0.0378  0.0826  0.0520
 3468W        W 7668   4.362   8.742   0.018  0.3300 -0.1542 -0.0300
 3469W        W 7669   2.815   3.776   8.798  0.0015  0.0122  0.4210
 3470W        W 7670   5.307   1.247   0.432 -0.1477  0.0402  0.2374
 3471W        W 7671   5.915   9.656   8.927  0.2533 -0.0151 -0.1252
 3472W        W 7672   8.418   4.936   1.177 -0.2151 -0.2496 -0.0702
 3473W        W 7673   4.551  10.212  12.544  0.1073 -0.1234  0.3702
 3474W        W 7674   3.345   4.505   0.297 -0.1147 -0.0944  0.0344
 3475W        W 7675   3.932   8.276  10.643  0.1845 -0.0776  0.0143
 3476W        W 7676   6.156   1.805   8.136  0.3750 -0.3567 -0.1669
 3477W        W 7677   2.339   7.064   3.083  0.0902  0.1116  0.1051
 3478W        W 7678   1.521   8.178   2.588 -0.3443  0.1627 -0.2846
 3479W        W 7679   4.961   2.812   0.773  0.0877  0.1292 -0.0722
 3480W        W 7680   8.554   4.215  11.682  0.1803  0.0546 -0.1682
 3481W        W 7681   2.458   0.768   9.745  0.2378  0.1436  0.0740
 3482W        W 7682   6.882   9.002  12.253 -0.2599  0.0802 -0.5652
 3483W        W 7683   4.952   3.577   3.879 -0.0678 -0.1999  0.1625
 3484W        W 7684   6.565  10.229  10.714  0.1429  0.0818  0.0424
 3485W        W 7685   1.457   2.328  11.887  0.2460  0.0225  0.0998
 3486W        W 7686   2.635   1.656   0.883 -0.1392  0.0037 -0.2209
 3487W        W 7687   8.848   8.718   4.496  0.1083  0.0253  0.1452
 3488W        W 7688   4.980   7.482   1.107  0.1325 -0.4795  0.0949
 3489W        W 7689   6.211   9.637  13.396 -0.1865  0.0942  0.3087
 3490W        W 7690  10.046   1.313  12.656  0.0959 -0.1593  0.0404
 3491W        W 7691   4.604   7.664   3.066  0.0001  0.3078 -0.1332
 3492W        W 7692   6.005   5.664   0.741  0.0881  0.0040  0.2141
 3493W        W 7693   2.408   1.232   3.550 -0.2419  0.0368 -0.0378
 3494W        W 7694   8.715   5.431   2.068 -0.0023 -0.3388  0.0081
 3495W        W 7695   0.579   2.686   9.072  0.1104 -0.3121 -0.0585
 3496W        W 7696   0.356   8.493   4.028 -0.0247 -0.3145 -0.1085
 3497W        W 7697   9.410   5.023   3.537  0.1707 -0.0844  0.2584
 3498W        W 7698   0.225   2.467  11.880  0.2837 -0.2773  0.2246
 3499W        W 7699   1.122   3.236   9.544 -0.0238  0.2793 -0.1518
 3500W        W 7700   1.276   5.826   2.633  0.1031  0.0897  0.0245
 3501W        W 7701   0.960   0.837  11.273  0.0961 -0.1923  0.4208
 3502W        W 7702   4.753   3.713  12.931 -0.1131 -0.0766 -0.0898
 3503W        W 7703   8.953   9.902   2.923  0.0780  0.0809  0.3183
 3504W        W 7704   9.682   7.173   1.389 -0.0573 -0.2431 -0.2742
 3505W        W 7705   0.360   6.253  10.668 -0.1006 -0.0367 -0.0229
 3506W        W 7706   4.786   2.494   9.445  0.0916  0.2848  0.2115
 3507W        W 7707   6.117   4.650  11.733  0.1917  0.0808 -0.1169
 3508W        W 7708   3.754   3.381  12.018  0.1213  0.1395  0.1432
 3509W        W 7709   6.304   1.286   8.864  0.1873 -0.1786  0.0407
 3510W        W 7710   5.904   6.352  11.211  0.3262 -0.0469  0.1918
 3511W        W 7711   7.892   3.592   2.288  0.1768 -0.2092  0.1599
 3512W        W 7712  10.391   5.153  10.599 -0.5235  0.1636  0.1512
 3513W        W 7713   4.716  10.138   4.013  0.0528  0.1117 -0.3558
 3514W        W 7714   9.462   0.043   0.088  0.2095  0.0819  0.1701
 3515W        W 7715   9.813   9.391   1.649 -0.1179  0.1472  0.1739
 3516W        W 7716   6.588   7.478   1.554  0.2035 -0.1520 -0.1378
 3517W        W 7717   6.294   9.083   1.393  0.5168 -0.0305  0.0069
 3518W        W 7718   2.624   7.502   2.728 -0.0567  0.0484  0.0753
 3519W        W 7719   8.595   3.170   1.800  0.2284  0.0546 -0.0933
 3520W        W 7720   9.692   4.215  11.153  0.0279  0.1072  0.0095
 3521W        W 7721   7.518   9.998   9.022  0.1002 -0.0808  0.1919
 3522W        W 7722   7.752   8.634  11.424 -0.1392 -0.2765 -0.3367
 3523W        W 7723   7.850   2.180   9.311  0.2259  0.1913  0.1660
 3524W        W 7724   3.156   3.357   4.752 -0.1452  0.1766 -0.3362
 3525W        W 7725   3.379   8.832  11.014  0.0471  0.0143 -0.1872
 3526W        W 7726   3.241   5.518  12.250  0.1357  0.0932 -0.0291
 3527W        W 7727   5.133   0.749  10.217 -0.0106  0.0756 -0.4845
 3528W        W 7728   5.995   8.669   8.784  0.3085 -0.0923  0.2456
 3529W        W 7729   8.916   4.186   1.622 -0.1505  0.2834  0.2679
 3530W        W 7730   7.452   5.375   4.424 -0.0026  0.2404 -0.2385
 3531W        W 7731   0.651   9.852   3.669  0.2451 -0.0398  0.3631
 3532W        W 7732   2.803   6.808  10.444 -0.1103 -0.0015 -0.1384
 3533W        W 7733   1.533   8.247  11.503  0.0972  0.2352 -0.2085
 3534W        W 7734   5.902   2.588  12.931 -0.1108  0.0523 -0.1768
 3535W        W 7735   8.465   2.216   5.248 -0.1645 -0.2725 -0.0495
 3536W        W 7736   5.298   2.224  10.789  0.1100 -0.0402  0.3775
 3537W        W 7737   3.885   4.846   0.133 -0.1954 -0.0055 -0.2773
 3538W        W 7738   3.796   0.651   9.552  0.1406 -0.0969 -0.1560
 3539W        W 7739   3.125   1.575  11.766 -0.1413 -0.4102  0.4020
 3540W        W 7740   1.030   1.230   0.183  0.1132 -0.1483  0.1390
 3541W        W 7741   3.836   9.467   0.953 -0.1269  0.1478 -0.0566
 3542W        W 7742   8.536   5.976   1.685 -0.0100  0.1409  0.0035
 3543W        W 7743   2.937   6.033  11.710  0.2581  0.0761  0.1654
 3544W        W 7744   2.779   1.554   3.836 -0.0247  0.5339 -0.1426
 3545W        W 7745   1.827   1.250  12.537  0.0694 -0.3404 -0.0315
 3546W        W 7746   9.822   4.097   2.766 -0.2019 -0.2124  0.1116
 3547W        W 7747   5.568   1.674  12.878 -0.0930 -0.0984 -0.0642
 3548W        W 7748   2.180   2.900  11.914 -0.4370  0.3013 -0.1148
 3549W        W 7749   4.378   5.730   1.379 -0.2753 -0.3310  0.4699
 3550W        W 7750   5.478   0.231   9.507  0.0275  0.0070 -0.1938
 3551W        W 7751   1.323   0.547   4.081  0.0934  0.0958  0.2426
 3552W        W 7752   9.408   5.260  11.303 -0.0291  0.0283 -0.0782
 3553W        W 7753   6.989   0.737   1.334  0.0009 -0.2965 -0.3326
 3554W        W 7754   0.586   4.160  13.440 -0.1087  0.0696  0.1344
 3555W        W 7755   1.825   1.333   5.240  0.0776  0.0389  0.1954
 3556W        W 7756   9.785   4.000  12.866  0.1708  0.1176  0.0866
 3557W        W 7757   6.486   7.659  10.595  0.1519 -0.1944 -0.0957
 3558W        W 7758   1.599   8.828   4.250  0.2085  0.1303 -0.0079
 3559W        W 7759   9.609   1.044  11.795  0.0973  0.2176  0.0342
 3560W        W 7760   9.895   1.505   3.171  0.1180  0.0070 -0.0244
 3561W        W 7761   6.585   5.980   1.581 -0.3429 -0.2316  0.1275
 3562W        W 7762   7.437   7.052  12.533 -0.2673  0.2755  0.0565
 3563W        W 7763   6.247   5.775   0.324  0.3630 -0.1525 -0.2669
 3564W        W 7764   7.871   9.667  11.182  0.2158  0.0934 -0.2142
 3565W        W 7765   8.826  10.017   0.625 -0.1245 -0.1305 -0.3001
 3566W        W 7766   1.070   1.568   9.327  0.2037 -0.4027  0.0482
 3567W        W 7767   6.358   1.665   0.490  0.2409  0.1869 -0.2558
 3568W        W 7768   3.951   7.517   0.355 -0.1299 -0.1511  0.0423
 3569W        W 7769   5.822   1.191  12.247 -0.3517 -0.3033  0.2133
 3570W        W 7770   5.062   4.072  12.057 -0.0058  0.0857  0.1133
 3571W        W 7771   1.708   7.470   0.733  0.0462 -0.2908 -0.6420
 3572W        W 7772   0.245   2.660  11.370  0.1071 -0.2695  0.0431
 3573W        W 7773   3.023   5.006   9.960  0.0119 -0.1607  0.1113
 3574W        W 7774   3.612   2.893  11.876  0.1365  0.3308  0.1371
 3575W        W 7775   8.281   9.529   4.822 -0.4170  0.2241  0.0032
 3576W        W 7776   1.393   1.074   2.671  0.0118  0.2151 -0.0392
 3577W        W 7777   9.177   5.394   2.032  0.2385 -0.0373  0.1046
 3578W        W 7778   1.635   9.960   1.559  0.0003 -0.0609 -0.1852
 3579W        W 7779   4.593   5.786   0.458  0.0164  0.1929 -0.0464
 3580W        W 7780   8.130   5.373   1.203 -0.0999 -0.0809  0.2666
 3581W        W 7781   3.146   1.826   1.803 -0.1210  0.1728  0.0743
 3582W        W 7782   0.200  10.354   2.950  0.2997  0.0806  0.1658
 3583W        W 7783   6.289   2.596   9.102  0.0431 -0.0458  0.1250
 3584W        W 7784   8.160   8.705  11.162  0.1447  0.1294  0.2015
 3585W        W 7785   6.384   9.435  12.949 -0.1108 -0.2021 -0.1244
 3586W        W 7786   6.709   2.687   8.465  0.0308  0.0338  0.0725
 3587W        W 7787  10.056   3.004   0.462 -0.0824 -0.1972  0.1251
 3588W        W 7788   0.146   5.236  12.644 -0.2328 -0.3024  0.0599
 3589W        W 7789   0.829   1.635   0.483 -0.0212 -0.0446  0.0928
 3590W        W 7790   2.621   7.034   1.745 -0.2043  0.0876  0.0761
 3591W        W 7791   1.606   1.183   0.907 -0.0774 -0.2180 -0.1866
 3592W        W 7792   2.251   7.588   1.572 -0.1538  0.0016 -0.2279
 3593W        W 7793   7.510   6.552  11.575 -0.3165 -0.0506  0.2286
 3594W        W 7794   8.682   6.071   4.951 -0.0470  0.1429 -0.0745
 3595W        W 7795   5.833   9.702   0.953  0.1501 -0.0708 -0.0081
 3596W        W 7796   6.100   3.846   3.566 -0.0798  0.0023  0.0354
 3597W        W 7797   5.600   5.629   3.025 -0.1983 -0.2864  0.0103
 3598W        W 7798   8.434   2.556   4.905  0.0740  0.1165  0.0162
 3599W        W 7799   0.303   9.224   2.064  0.1433 -0.4052 -0.0138
 3600W        W 7800   3.193   4.135  11.824 -0.2449 -0.0783 -0.2580
 3601W        W 7801   0.761   0.164   4.026  0.1526  0.2080 -0.1024
 3602W        W 7802   6.971   7.639   3.945  0.1176  0.0948  0.0694
 3603W        W 7803   3.342   3.378  10.609 -0.6398  0.3032 -0.0597
 3604W        W 7804   9.716   8.338  10.139  0.1226  0.1613  0.0471
 3605W        W 7805   1.341   9.052  12.490 -0.2395 -0.1717 -0.2805
 3606W        W 7806   8.845   0.552  11.037 -0.0921  0.1657 -0.1333
 3607W        W 7807   1.707   9.266   0.828 -0.0706  0.1344 -0.1300
 3608W        W 7808   2.036   1.117   0.623  0.0477 -0.2506  0.3490
 3609W        W 7809   6.679   9.312  13.354  0.1956  0.1383 -0.0127
 3610W        W 7810   1.022   2.876  11.928  0.0371 -0.1292 -0.1471
 3611W        W 7811   1.910  10.261  10.378  0.1381 -0.2992  0.3578
 3612W        W 7812   6.394   5.511  13.393  0.4137  0.1147 -0.0592
 3613W        W 7813   1.370   0.623   3.075  0.1239  0.2030  0.2645
 3614W        W 7814   5.645   0.945   9.486 -0.0543  0.0018 -0.1174
 3615W        W 7815   5.732   3.985  10.914  0.0765  0.2289 -0.1661
 3616W        W 7816   7.467   5.681   0.492  0.0401 -0.0017 -0.1543
 3617W        W 7817   3.972   8.817   3.920  0.1073 -0.1621  0.0508
 3618W        W 7818   3.639   2.278  12.836  0.1997  0.3826 -0.2831
 3619W        W 7819   0.803   3.774  12.038  0.1691 -0.0411  0.3155
 3620W        W 7820   7.851   5.908   5.365  0.0551  0.1424  0.1771
 3621W        W 7821   9.002   3.205   3.533  0.0719  0.1300  0.2094
 3622W        W 7822   7.775   2.680  12.459  0.2205  0.0198  0.2738
 3623W        W 7823   5.416   9.429  10.915  0.0813 -0.0903  0.3850
 3624W        W 7824   1.724   3.351   4.383 -0.0044  0.0512  0.1494
 3625W        W 7825   7.503   5.186   9.262 -0.0549 -0.1798 -0.2585
 3626W        W 7826   3.538   1.879  10.739 -0.0237  0.0370 -0.0540
 3627W        W 7827   5.674   2.480   9.932  0.2943  0.0946 -0.2900
 3628W        W 7828   9.598   0.580   3.491 -0.1027 -0.0994  0.0104
 3629W        W 7829   4.500   4.766  10.433  0.1601 -0.0673  0.1238
 3630W        W 7830   0.541   1.770  12.962 -0.1804 -0.1987 -0.1111
 3631W        W 7831   1.314   1.749   1.681 -0.0513 -0.1030 -0.0517
 3632W        W 7832   1.000   8.172   4.078 -0.0376  0.1771  0.0664
 3633W        W 7833   2.855   4.827  10.393 -0.2044 -0.3012  0.1133
 3634W        W 7834   9.053   5.096  10.965  0.1639  0.3136 -0.1430
 3635W        W 7835   2.798   5.788   2.364  0.1320  0.2774  0.1392
 3636W        W 7836   7.426   1.336  12.846 -0.2125 -0.3069  0.2515
 3637W        W 7837   6.646   2.529  10.418 -0.1517 -0.1964  0.1335
 3638W        W 7838   8.646   4.440  12.145  0.2494 -0.1927  0.3268
 3639W        W 7839   0.662   2.810   3.378 -0.2470 -0.1009  0.0473
 3640W        W 7840   3.929   2.005   9.808 -0.1206  0.0837 -0.1617
 3641W        W 7841   3.791   8.773  10.250  0.1221 -0.2168 -0.0241
 3642W        W 7842   2.802   6.965  13.461  0.4169  0.3458  0.0924
 3643W        W 7843   4.110   0.666   4.689 -0.0094  0.1691 -0.0266
 3644W        W 7844   2.325   2.427   1.938 -0.6195 -0.1033 -0.1608
 3645W        W 7845   0.582   6.690   3.283  0.1352  0.0214 -0.0750
 3646W        W 7846   7.604   2.744  10.166 -0.0934 -0.1520  0.1717
 3647W        W 7847   2.099   2.854   3.505  0.1938  0.1393 -0.1145
 3648W        W 7848   3.802   7.714   4.049 -0.1659  0.3859  0.0048
 3649W        W 7849   2.038   9.697   0.295  0.0379  0.2762 -0.2636
 3650W        W 7850   2.946   4.303   9.498  0.0578 -0.0516 -0.0362
 3651W        W 7851   7.018   5.200   0.662  0.1162  0.0088  0.1742
 3652W        W 7852   4.266  10.243   9.184  0.1397 -0.0688  0.2557
 3653W        W 7853   7.986   2.710   3.557  0.0408  0.0069 -0.1738
 3654W        W 7854   7.037   6.065  11.801 -0.1709 -0.1505 -0.1344
 3655W        W 7855   9.913   7.287  11.615  0.0910  0.3491  0.1260
 3656W        W 7856   0.315   3.545  12.077  0.1850  0.1013  0.0499
 3657W        W 7857   0.884  10.077  13.330  0.1266 -0.2143  0.1849
 3658W        W 7858   1.209   1.972   2.104 -0.0223  0.0396 -0.1749
 3659W        W 7859   9.383   2.243  11.361  0.1672 -0.3089  0.1749
 3660W        W 7860   4.124   1.418   8.444 -0.0662 -0.1836 -0.2205
 3661W        W 7861   7.669   5.639   2.017  0.1473 -0.0969  0.0111
 3662W        W 7862   6.486   7.005   4.509 -0.0166 -0.1569  0.1468
 3663W        W 7863   5.317   2.423   9.254 -0.0449 -0.1150  0.1600
 3664W        W 7864   3.162   1.914  10.003  0.3838 -0.2965 -0.5388
 3665W        W 7865   7.119   7.139  12.196 -0.2348  0.3054  0.3027
 3666W        W 7866   5.616   7.818   5.548 -0.0666 -0.0053 -0.1118
 3667W        W 7867   1.060   2.080  11.754  0.3399  0.0440  0.2762
 3668W        W 7868   5.807   4.099   2.308 -0.2682  0.1574 -0.1183
 3669W        W 7869   4.942   1.016   1.294  0.1420  0.0937 -0.1845
 3670W        W 7870   2.148   0.968   1.073  0.0016  0.2473  0.1611
 3671W        W 7871   9.715   9.626   1.133 -0.1083 -0.0710  0.0821
 3672W        W 7872   7.360   4.421   1.058  0.1092  0.0787  0.1693
 3673W        W 7873   3.791   6.243  13.422 -0.2123  0.0787  0.0726
 3674W        W 7874  10.167   0.968   4.171  0.0269  0.2460  0.0280
 3675W        W 7875   2.814   6.405   9.522 -0.1364 -0.0319  0.1435
 3676W        W 7876   1.255  10.187  12.673  0.3330  0.2399  0.1589
 3677W        W 7877   1.101   3.411   3.285  0.1231  0.1405 -0.3633
 3678W        W 7878   2.732   5.664   4.214  0.1873 -0.0977 -0.1230
 3679W        W 7879   8.011   9.614   4.436  0.1547 -0.2502  0.1899
 3680W        W 7880   5.350   8.691   9.697 -0.0504  0.0971  0.2981
 3681W        W 7881   0.954   9.862  12.388 -0.3768 -0.1061 -0.0650
 3682W        W 7882   7.001   8.789   4.226 -0.2887 -0.0996 -0.2428
 3683W        W 7883   0.588   2.255  10.989  0.1249  0.1727  0.1605
 3684W        W 7884   3.925   7.586   3.540  0.1798  0.0917  0.1067
 3685W        W 7885   3.304   6.829   9.636  0.0752 -0.2904 -0.0883
 3686W        W 7886   9.560   7.245   4.089 -0.4616 -0.1490 -0.0106
 3687W        W 7887  10.439   9.197   1.140 -0.1849 -0.1858 -0.1258
 3688W        W 7888   3.684   5.598  10.861  0.2758 -0.1360 -0.0709
 3689W        W 7889   5.138   8.323   0.589  0.1383 -0.0697 -0.1287
 3690W        W 7890   3.739   0.866  12.734 -0.0744  0.1695 -0.0618
 3691W        W 7891   2.597   5.303  13.449  0.0795  0.0244  0.0784
 3692W        W 7892   9.414   5.716  12.283 -0.2636  0.3009  0.1228
 3693W        W 7893   1.361   6.200  11.866 -0.3237 -0.1015 -0.3409
 3694W        W 7894   4.807   8.358  10.485 -0.1641  0.0445 -0.0802
 3695W        W 7895   7.700   9.364  13.246 -0.2008  0.1294 -0.0020
 3696W        W 7896   8.792   3.711   1.406  0.2513  0.2365 -0.1659
 3697W        W 7897   1.170   4.393  12.655  0.3045  0.0913  0.2539
 3698W        W 7898   7.714   7.311  12.840  0.1185 -0.1207 -0.0613
 3699W        W 7899   1.252   3.095   5.101 -0.0109  0.1696 -0.0531
 3700W        W 7900   6.140   8.888  10.207  0.3658 -0.1197  0.2739
 3701W        W 7901   4.110   1.443   3.624 -0.3083 -0.2038 -0.3467
 3702W        W 7902   7.320   8.087   3.910 -0.2213 -0.1121  0.1533
 3703W        W 7903   8.668   9.818  12.027 -0.0446  0.4491  0.0952
 3704W        W 7904   5.877   8.430   1.785  0.1347  0.0220 -0.0318
 3705W        W 7905   9.169   3.725  10.643  0.2355  0.0120 -0.3396
 3706W        W 7906   9.093   2.470   9.733 -0.2215 -0.1132 -0.1472
 3707W        W 7907   5.481   3.512   9.778 -0.0321  0.0186 -0.0761
 3708W        W 7908   3.687   0.172  11.459  0.1331 -0.1033 -0.3822
 3709W        W 7909   1.361   0.943   2.119 -0.0414 -0.3436  0.1821
 3710W        W 7910   6.115   7.287   1.007  0.1288  0.1105  0.2428
 3711W        W 7911   5.233   7.321   1.535 -0.1198 -0.0476  0.1005
 3712W        W 7912   7.205   0.326   1.496  0.1999  0.1739  0.3429
 3713W        W 7913   9.683   2.777  10.525 -0.1310 -0.0182  0.0471
 3714W        W 7914   4.896   1.366   4.480 -0.0777  0.1024 -0.3376
 3715W        W 7915   8.849   6.745   3.338  0.3176 -0.0887  0.1976
 3716W        W 7916   5.653   4.720   3.062 -0.0868  0.1126  0.0874
 3717W        W 7917   8.645  10.359  10.216  0.1328 -0.1501  0.3204
 3718W        W 7918   5.632   5.260   3.886  0.0820  0.0543  0.0450
 3719W        W 7919   1.118   0.254   2.235  0.2085 -0.0338  0.0945
 3720W        W 7920  10.177   7.129   9.875 -0.0612  0.0379 -0.1309
 3721W        W 7921   8.334   1.205   1.796 -0.0285 -0.0606  0.0838
 3722W        W 7922   2.865   2.466  13.058  0.0551 -0.2140 -0.1211
 3723W        W 7923   9.127   3.689  12.235  0.0009  0.0285 -0.1095
 3724W        W 7924   9.058   6.868   0.687 -0.1342  0.0427 -0.0084
 3725W        W 7925   0.268   7.449  11.613 -0.0648 -0.3495 -0.0959
 3726W        W 7926   3.944   4.511   5.269 -0.0815  0.1637 -0.1689
 3727W        W 7927   0.486   9.949   3.055  0.0569 -0.0439  0.2708
 3728W        W 7928   2.526   2.249   4.651 -0.0147 -0.3195  0.2254
 3729W        W 7929   3.140   5.460   0.054  0.1674  0.0525 -0.0933
 3730W        W 7930   8.008   7.007   3.172 -0.0009 -0.0969 -0.2013
 3731W        W 7931   5.122   8.147   1.362 -0.1132 -0.2856  0.0185
 3732W        W 7932   3.819   8.016   2.923  0.4850 -0.2199 -0.0699
 3733W        W 7933   7.508   6.589   8.703  0.3173  0.0492  0.0442
 3734W        W 7934   7.400   3.017  12.580  0.1461  0.1883  0.1624
 3735W        W 7935   9.885   3.460  12.826 -0.0233 -0.1412  0.1159
 3736W        W 7936   9.895   4.500   4.697  0.0852 -0.0048  0.3451
 3737W        W 7937   6.336   2.940   0.578  0.3321  0.2596  0.2152
 3738W        W 7938   8.675   0.153  12.167 -0.0985 -0.1596 -0.2233
 3739W        W 7939   8.401   4.194   3.500 -0.1498  0.1606 -0.3391
 3740W        W 7940   5.040  10.404   2.203  0.2593 -0.4658  0.2676
 3741W        W 7941   0.996   4.413   0.169  0.0015  0.0226  0.0173
 3742W        W 7942   9.932   3.053   9.916  0.0468  0.0308 -0.1197
 3743W        W 7943   8.066   8.423   2.196  0.1514 -0.1156 -0.0155
 3744W        W 7944   2.421   2.790   9.545 -0.1056 -0.1066 -0.0924
 3745W        W 7945   1.931   7.572  10.842 -0.0765  0.1134 -0.1278
 3746W        W 7946   4.443   3.429  11.504 -0.0775 -0.3920  0.3035
 3747W        W 7947   4.815   0.589   2.935 -0.1138  0.0417 -0.3651
 3748W        W 7948   6.958   7.544  10.503 -0.0405  0.1251 -0.0596
 3749W        W 7949   4.909   5.133   3.661  0.2905 -0.0284 -0.0648
 3750W        W 7950   7.576  10.108  10.259  0.1268  0.1329 -0.1280
 3751W        W 7951   3.157   6.144   1.644  0.3283  0.0118  0.2767
 3752W        W 7952   1.469   1.546  10.311 -0.1230 -0.0364  0.1212
 3753W        W 7953   9.556   6.171  13.094  0.0035  0.1230 -0.0794
 3754W        W 7954   3.807  10.248  11.852  0.3529 -0.2355 -0.0931
 3755W        W 7955   0.778   1.040   3.393  0.0008 -0.0026 -0.0487
 3756W        W 7956   2.456   7.545  10.676  0.0350 -0.3847 -0.2732
 3757W        W 7957   7.924   4.686  10.010  0.0240  0.0210 -0.1996
 3758W        W 7958   6.954   9.057   9.745 -0.2240 -0.2908  0.1275
 3759W        W 7959   1.885   1.721   1.626  0.1356  0.2127 -0.2653
 3760W        W 7960   0.980   5.057  12.441 -0.0651  0.0919 -0.0074
 3761W        W 7961   8.620   4.882   9.584  0.1023 -0.0047  0.0800
 3762W        W 7962   0.827   0.892  10.750 -0.0360 -0.2746 -0.1875
 3763W        W 7963   0.233   1.654   1.826  0.0444 -0.0602  0.1596
 3764W        W 7964   8.353   8.692   4.655  0.0937 -0.1639  0.1259
 3765W        W 7965   0.605   2.634   1.795 -0.1452 -0.2084 -0.1517
 3766W        W 7966   6.721   1.659   0.050  0.4090 -0.1261  0.0640
 3767W        W 7967   5.972   7.666   2.464  0.2440 -0.0131 -0.2440
 3768W        W 7968  10.004   9.603   3.686  0.1291 -0.0001  0.0484
 3769W        W 7969   5.983   7.287   9.857 -0.0336 -0.0756 -0.1832
 3770W        W 7970   5.030   7.741  11.320 -0.3383 -0.0102  0.1355
 3771W        W 7971   0.216   3.420   0.384 -0.1333  0.2636  0.2454
 3772W        W 7972   8.591   2.440  11.893 -0.0471  0.3279  0.2112
 3773W        W 7973   2.132   0.657  13.052  0.0404  0.0833  0.2019
 3774W        W 7974   9.689   7.945   2.998  0.1563  0.3324  0.1569
 3775W        W 7975   4.595   1.911   2.209  0.3350 -0.1533  0.1358
 3776W        W 7976   9.860   7.768   0.602 -0.2943 -0.1187 -0.0235
 3777W        W 7977   4.431   4.581   9.528  0.1004  0.0159  0.3680
 3778W        W 7978   7.290   9.723  13.024  0.0285  0.0841 -0.0974
 3779W        W 7979   7.995   7.723   0.334  0.2463 -0.2802  0.0673
 3780W        W 7980   8.897   3.359   9.170 -0.1547 -0.0724  0.0582
 3781W        W 7981   6.333   3.062   8.724  0.1871  0.0590 -0.3038
 3782W        W 7982   9.752   9.377   3.033 -0.2440 -0.2936 -0.1641
 3783W        W 7983   9.132   6.658   9.660  0.0419  0.0585  0.0904
 3784W        W 7984   5.819   8.542   4.653 -0.0161 -0.0961  0.1443
 3785W        W 7985   3.496   0.399   4.378  0.0006  0.1223 -0.1540
 3786W        W 7986   4.155   4.918  10.825 -0.0424  0.3181 -0.2902
 3787W        W 7987   3.226   4.755   1.244  0.1213 -0.3652  0.0728
 3788W        W 7988   2.097   0.310  13.465 -0.0259  0.2854 -0.1235
 3789W        W 7989   4.179   8.934  11.454  0.0834 -0.1667 -0.0558
 3790W        W 7990   3.390   3.055  12.294  0.0580  0.2526  0.0171
 3791W        W 7991   7.793   7.978   2.462  0.1226  0.0917 -0.1070
 3792W        W 7992   4.838   3.990   4.113  0.0988  0.0373  0.0619
 3793W        W 7993   7.525   0.679  11.468 -0.0425  0.1602  0.0925
 3794W        W 7994   5.733   6.693  13.071  0.1185 -0.2074  0.0219
 3795W        W 7995   7.623   2.392   3.105  0.0218 -0.0902  0.0224
 3796W        W 7996   0.735   1.429   9.648  0.1038  0.1075 -0.0201
 3797W        W 7997   8.405   1.450   0.798 -0.0214 -0.1224  0.0932
 3798W        W 7998   4.624   9.647   4.080 -0.0382  0.2264 -0.2168
 3799W        W 7999   8.259   5.162  10.665 -0.2732  0.2233  0.1907
 3800W        W 8000   6.197  10.204  12.348  0.2148 -0.0997 -0.0965
 3801W        W 8001   1.456   8.255   0.793 -0.0666  0.1188 -0.1186
 3802W        W 8002   1.570   4.608   1.244  0.0516 -0.1978  0.1352
 3803W        W 8003   9.055   7.673   9.176 -0.0084  0.0299 -0.0357
 3804W        W 8004   4.368   6.115   3.117 -0.1157  0.0079  0.1354
 3805W        W 8005   1.901   0.431   1.674  0.0502  0.0329 -0.0691
 3806W        W 8006   7.390   3.042   4.739 -0.0242 -0.3263 -0.0807
 3807W        W 8007   4.164   2.331  12.930  0.2455  0.0069  0.4116
 3808W        W 8008   0.937   2.172   1.728  0.3617 -0.0353 -0.2569
 3809W        W 8009   5.069   4.336  13.441  0.1122  0.1504  0.2675
 3810W        W 8010   5.353   2.386   1.486 -0.2614 -0.0343  0.2908
 3811W        W 8011   0.290   3.160   9.387  0.0648  0.1010 -0.0626
 3812W        W 8012   7.529   1.540  11.816  0.1585 -0.1767 -0.0954
 3813W        W 8013   9.533   1.378  10.804 -0.0678 -0.0897  0.0172
 3814W        W 8014   0.872   0.099  12.471  0.4130  0.4749  0.3163
 3815W        W 8015   4.867   0.085  12.907 -0.0130  0.1510  0.0468
 3816W        W 8016   5.400   6.539   2.794  0.3902  0.1620  0.0323
 3817W        W 8017   7.778   5.697   9.101 -0.1124  0.0433  0.3936
 3818W        W 8018   6.407   3.145   0.117  0.3815 -0.0526 -0.2189
 3819W        W 8019   7.760   1.962  11.841  0.3241 -0.0588 -0.3087
 3820W        W 8020   7.337   1.912  11.607 -0.0275 -0.0505  0.1531
 3821W        W 8021   5.075   1.037  12.978 -0.2784 -0.0838 -0.3082
 3822W        W 8022   2.664   2.676  11.921 -0.0756 -0.4705 -0.0178
 3823W        W 8023   9.820   2.874  11.406 -0.3038  0.2049  0.0678
 3824W        W 8024   8.092   9.803   0.204  0.3051  0.0741  0.1961
 3825W        W 8025   8.056   8.204  10.322  0.0794  0.1183 -0.0404
 3826W        W 8026   2.825   3.948   4.114  0.0717  0.1248  0.0770
 3827W        W 8027   5.538   2.677  10.828  0.1123  0.1610  0.1350
 3828W        W 8028   4.262   9.406   1.918 -0.0001 -0.0036 -0.1187
 3829W        W 8029   1.018   6.253  13.343 -0.1326 -0.2921 -0.1007
 3830W        W 8030   6.702   7.186  13.226  0.3501 -0.1554  0.1911
 3831W        W 8031   0.559   9.358   1.056 -0.0733  0.2027  0.0623
 3832W        W 8032   3.129   4.554  12.174 -0.0048  0.1836  0.1514
 3833W        W 8033  10.103   7.027   1.668  0.0998 -0.0195  0.2704
 3834W        W 8034   4.347   1.833   3.988 -0.0417  0.1481 -0.1119
 3835W        W 8035   8.654   5.672  12.832 -0.0338 -0.1153 -0.1200
 3836W        W 8036   4.595   3.991  12.066  0.0395 -0.0419 -0.2025
 3837W        W 8037   7.243   9.254   3.036 -0.1370 -0.3137 -0.1462
 3838W        W 8038   9.859   0.568   5.267 -0.1637 -0.2264  0.0095
 3839W        W 8039   1.478   2.435   2.246 -0.1863 -0.3010 -0.2095
 3840W        W 8040   2.194   7.514   0.487  0.3008  0.2123  0.2071
 3841W        W 8041   5.683   3.376  10.245  0.1255  0.0527 -0.0725
 3842W        W 8042   7.217   0.959   3.597 -0.2514 -0.2538 -0.1012
 3843W        W 8043   1.781   2.152  13.085  0.1792 -0.0264  0.2745
 3844W        W 8044   1.742   2.832   4.385  0.2106  0.0101 -0.0701
 3845W        W 8045   5.927   0.446   9.456  0.0165  0.0544  0.2863
 3846W        W 8046   7.669  10.060  13.099 -0.0335  0.0540  0.1221
 3847W        W 8047   7.774   2.916  10.658 -0.2926  0.0078  0.0186
 3848W        W 8048   4.933   4.358   9.584  0.1310 -0.0299  0.0211
 3849W        W 8049   3.177   0.747  12.959 -0.2244  0.1214 -0.0624
 3850W        W 8050   6.139   6.617   1.236  0.1968  0.0539  0.1164
 3851W        W 8051   3.412   9.618   1.276 -0.1401  0.0528  0.1543
 3852W        W 8052   8.268   7.375  13.423 -0.1526 -0.0215  0.1888
 3853W        W 8053   7.300   7.875   2.040  0.1184 -0.3384  0.0999
 3854W        W 8054  10.278   3.228   2.989 -0.1538  0.0798 -0.1468
 3855W        W 8055   4.302   8.359   0.447 -0.1463  0.2069 -0.2149
 3856W        W 8056   6.492   3.053  11.605 -0.0451  0.0463 -0.2316
 3857W        W 8057   2.075   8.578   2.932 -0.1561  0.1240 -0.1159
 3858W        W 8058   4.484   2.697   9.741  0.2465 -0.2086  0.1615
 3859W        W 8059   5.490   1.648   0.749 -0.1753  0.1400  0.1155
 3860W        W 8060   5.171   6.965   1.112  0.1065 -0.1694  0.3337
 3861W        W 8061   0.370   6.461   0.587  0.2643 -0.0824 -0.0276
 3862W        W 8062  10.151   1.705   3.584  0.0473  0.1866 -0.1436
 3863W        W 8063   2.430   5.154   1.375  0.1256  0.4735  0.2180
 3864W        W 8064   9.295   2.717  11.542 -0.2338  0.5391  0.0303
 3865W        W 8065   6.597   5.423   0.374 -0.3421 -0.3890 -0.2695
 3866W        W 8066   6.029   8.980  10.661 -0.0582 -0.0318 -0.3229
 3867W        W 8067   6.107   6.334  10.263 -0.0033  0.0410  0.1486
 3868W        W 8068   8.421   5.887   1.202 -0.2480 -0.3812  0.1034
 3869W        W 8069   8.286   4.934   3.718  0.0050  0.2287 -0.2598
 3870W        W 8070   9.349   8.370   0.006  0.0188  0.1958 -0.0342
 3871W        W 8071   0.436   3.133   0.756  0.1913 -0.0246 -0.1445
 3872W        W 8072   1.107   7.540  12.974  0.0095 -0.1099 -0.0541
 3873W        W 8073   7.503   3.152   1.330  0.1915 -0.0641  0.0725
 3874W        W 8074   5.628  10.374   3.886  0.0282  0.1929  0.0108
 3875W        W 8075   7.088   6.094  12.313 -0.2840 -0.2861  0.0677
 3876W        W 8076   4.901   6.871   3.417 -0.3177  0.0419  0.0306
 3877W        W 8077   9.541   3.729   3.854 -0.1217  0.2550  0.0658
 3878W        W 8078   1.595   4.540  11.320  0.2173  0.1943 -0.1649
 3879W        W 8079   8.373   5.229   3.094 -0.4165  0.2667 -0.1631
 3880W        W 8080   4.584   2.508   2.114  0.0016 -0.2842  0.2012
 3881W        W 8081   9.416   7.750   1.603  0.1378  0.1738  0.0059
 3882W        W 8082   1.322   0.845  10.838  0.2469 -0.0800 -0.1171
 3883W        W 8083   1.780   0.763   2.395  0.3700 -0.1457 -0.0080
 3884W        W 8084   5.099   5.641   0.829  0.3987  0.3320 -0.1435
 3885W        W 8085   0.868   0.626   4.336 -0.1545 -0.1110 -0.4300
 3886W        W 8086   6.462   9.701  12.546 -0.0277 -0.0935  0.0115
 3887W        W 8087   4.476   7.471   1.087 -0.1088  0.1696 -0.1073
 3888W        W 8088   8.597   7.432   3.742  0.0030  0.0065  0.1801
 3889W        W 8089   9.214   0.605   4.027 -0.0110  0.2560 -0.2728
 3890W        W 8090   1.406  10.408  11.729 -0.0438 -0.0047  0.1395
 3891W        W 8091   1.753   6.004   2.682  0.0350  0.0426  0.0198
 3892W        W 8092   7.638   7.798  12.860 -0.0728 -0.2873 -0.0054
 3893W        W 8093   9.742   0.353   9.490 -0.0184  0.1905  0.1390
 3894W        W 8094   8.582   2.413  10.143  0.0888  0.4941  0.0198
 3895W        W 8095   8.872   4.243   3.722 -0.0135  0.0092  0.0269
 3896W        W 8096   9.751  10.097   2.874  0.0092  0.3180  0.0983
 3897W        W 8097   0.893  10.020  10.133 -0.1804  0.1098  0.3006
 3898W        W 8098   3.186   5.039   3.505  0.0405  0.0394 -0.0793
 3899W        W 8099   3.076   9.722  11.216  0.2998 -0.1318  0.0165
 3900W        W 8100   3.071   6.016  10.219 -0.1905  0.2007  0.0944
 3901W        W 8101   6.068   6.162  12.452 -0.1750 -0.3156  0.0764
 3902W        W 8102   8.779   0.143   4.312 -0.0943 -0.0234 -0.2131
 3903W        W 8103   3.362   8.184   4.876  0.0678 -0.2367  0.1055
 3904W        W 8104   1.498   7.307   3.152  0.0890 -0.2381 -0.1574
 3905W        W 8105   0.193   0.124   2.504 -0.1082 -0.0523 -0.0682
 3906W        W 8106   4.993   7.500  10.822  0.1635 -0.0994 -0.2308
 3907W        W 8107   8.905   2.308  12.355  0.0210 -0.0051  0.0324
 3908W        W 8108   8.869   0.557   0.628  0.1182 -0.1823  0.3211
 3909W        W 8109   6.136   9.151  13.274  0.1472  0.1572  0.0926
 3910W        W 8110   4.713   0.212  12.307 -0.2867  0.0841  0.1834
 3911W        W 8111   7.806   9.401   3.236  0.1422  0.2030 -0.0589
 3912W        W 8112   3.761   3.480   3.220 -0.1330  0.0103  0.3003
 3913W        W 8113   2.455   4.403   0.722 -0.0293  0.1481 -0.0415
 3914W        W 8114   2.605   9.312   2.952  0.0286 -0.0018  0.0154
 3915W        W 8115   6.658   6.763   8.588  0.0228  0.0744  0.2258
 3916W        W 8116   0.180   6.901  11.652 -0.1710 -0.2267 -0.1931
 3917W        W 8117   5.764   9.150  11.079  0.1792  0.1806  0.0480
 3918W        W 8118   9.348   1.179  10.002 -0.1365 -0.1219  0.4025
 3919W        W 8119   0.399   4.991  11.734 -0.1622  0.0990  0.1050
 3920W        W 8120   8.042   6.170  13.405 -0.2563  0.2178 -0.1673
 3921W        W 8121   8.251   1.655   2.805 -0.0259 -0.1879  0.1426
 3922W        W 8122   5.448   7.615   2.485  0.1383 -0.1278  0.1524
 3923W        W 8123   4.411   6.201  10.592  0.0928  0.2642 -0.4340
 3924W        W 8124   2.495   4.208  10.244 -0.0579 -0.0131  0.3529
 3925W        W 8125   4.347   6.012  11.041  0.0852  0.1226 -0.0266
 3926W        W 8126   9.634   3.645  11.978  0.0844  0.0574 -0.2569
 3927W        W 8127   6.658   8.410   0.230  0.1397 -0.1082  0.0129
 3928W        W 8128   5.562   5.714   3.638  0.0099 -0.2155  0.1403
 3929W        W 8129   4.943   4.613  12.036  0.3523  0.1084  0.0184
 3930W        W 8130   8.577   9.003   2.860  0.1975 -0.3421 -0.2117
 3931W        W 8131   0.876   4.844  10.670 -0.2808  0.0134 -0.0799
 3932W        W 8132   3.984   2.271   3.200  0.0536 -0.1419  0.0728
 3933W        W 8133   5.035   1.336   1.669 -0.3738  0.3309 -0.0005
 3934W        W 8134   9.141   2.329   9.211 -0.1245  0.2398  0.2735
 3935W        W 8135  10.197   1.125  13.095  0.0812 -0.1071  0.0002
 3936W        W 8136   4.172   9.943   1.780 -0.0374 -0.0721  0.0496
 3937W        W 8137   0.927   6.631  11.175  0.1919  0.0424 -0.4896
 3938W        W 8138   4.575   8.616  10.082  0.1715 -0.0604  0.0333
 3939W        W 8139   6.787  10.387  11.237 -0.1965 -0.1408  0.1641
 3940W        W 8140   6.518  10.091   8.945 -0.0576  0.1455 -0.1850
 3941W        W 8141   0.355   1.748   0.234  0.2085  0.1128  0.0096
 3942W        W 8142   4.657   1.599  11.766 -0.0591 -0.2356  0.2179
 3943W        W 8143   9.354   6.845   3.297  0.1769  0.1943  0.0538
 3944W        W 8144   8.439   2.590  12.305 -0.0635  0.2840 -0.0070
 3945W        W 8145   4.665   8.618  12.223 -0.0015  0.1407 -0.2176
 3946W        W 8146   9.295   9.220   1.257  0.0419  0.1638  0.0751
 3947W        W 8147   9.108   1.623  12.521 -0.2088  0.1064  0.2879
 3948W        W 8148   2.904   0.075   2.160  0.1223 -0.0105  0.1104
 3949W        W 8149   0.684   6.977   1.506  0.2666 -0.1367  0.0297
 3950W        W 8150   4.676  10.090   9.890 -0.0298 -0.1951  0.0018
 3951W        W 8151   9.625   6.860  11.339 -0.0763 -0.0713  0.2419
 3952W        W 8152   6.042   9.562   1.385  0.0044 -0.4015  0.0349
 3953W        W 8153   8.255   1.748  10.657  0.0634  0.0043 -0.0631
 3954W        W 8154  10.353   9.255   1.717  0.0452 -0.1144 -0.2518
 3955W        W 8155   9.478   6.041   3.503  0.1847 -0.0287  0.0250
 3956W        W 8156   7.805   2.144  11.374  0.2712 -0.0886 -0.0094
 3957W        W 8157   0.008   1.996  12.776 -0.1796  0.3802 -0.0291
 3958W        W 8158   5.821   0.332   4.068 -0.2391  0.0895 -0.0896
 3959W        W 8159   9.922   8.917  10.885  0.1982 -0.0702  0.3007
 3960W        W 8160   8.533   4.106  10.351  0.0081  0.1376 -0.0269
 3961W        W 8161   4.650   1.301   2.968  0.0568  0.4157 -0.1856
 3962W        W 8162   7.193  10.256   1.695  0.0801  0.0593 -0.5257
 3963W        W 8163   8.010   8.800   1.140  0.1447  0.1901  0.0382
 3964W        W 8164   7.755   8.513   1.567 -0.2129  0.0061  0.0465
 3965W        W 8165   3.388   3.146   4.142  0.2593 -0.1958 -0.1580
 3966W        W 8166   4.137   9.995  12.816 -0.4069  0.0408 -0.1696
 3967W        W 8167  10.032   3.795  11.120  0.3571 -0.1599 -0.0359
 3968W        W 8168   6.992   2.163  10.444  0.0139  0.0146  0.0894
 3969W        W 8169   0.331   7.279  11.098 -0.0046  0.0383 -0.0734
 3970W        W 8170   7.285   4.082  13.238  0.0060  0.1020 -0.1261
 3971W        W 8171   0.654   1.791   2.050  0.4170  0.3218  0.1649
 3972W        W 8172   0.617   7.622  11.288 -0.0542  0.3962 -0.1495
 3973W        W 8173   8.709   2.362   1.949 -0.3094 -0.1450 -0.0751
 3974W        W 8174   8.782   4.452   9.137 -0.0917  0.0095  0.2669
 3975W        W 8175   0.536   1.300   2.996 -0.0396  0.0742 -0.1903
 3976W        W 8176   7.339   5.742  12.014  0.1089 -0.2903 -0.5675
 3977W        W 8177   4.134   9.116   1.529  0.0343  0.1654 -0.3032
 3978W        W 8178   7.648   2.408   1.796 -0.2773 -0.0893  0.0579
 3979W        W 8179   3.454   4.761   9.790  0.2155 -0.2098 -0.1139
 3980W        W 8180   1.098   3.365  11.872 -0.0751  0.2023 -0.2069
 3981W        W 8181   1.874   5.263   2.251  0.0914  0.1885 -0.0960
 3982W        W 8182   9.675   7.827   1.112 -0.3941  0.1682  0.0634
 3983W        W 8183   5.436   3.954   1.385  0.0528  0.2129 -0.0802
 3984W        W 8184   0.213   4.191  13.036  0.1347 -0.2485 -0.0364
 3985W        W 8185   1.696   9.440   1.693 -0.0200  0.0931  0.2873
 3986W        W 8186   6.705   5.104   1.087 -0.3232  0.2268 -0.0971
 3987W        W 8187   5.309   1.281   3.956  0.0227 -0.2357  0.0556
 3988W        W 8188   7.303   2.090   1.605  0.3005  0.1834  0.0166
 3989W        W 8189  10.042   2.080   0.619 -0.2279  0.0325  0.0088
 3990W        W 8190  10.341   0.748  10.179 -0.0817  0.2051 -0.3215
 3991W        W 8191   2.131   8.352  12.532  0.1537 -0.2266 -0.2027
 3992W        W 8192   2.392   2.725  12.949  0.0571  0.0405  0.2103
 3993W        W 8193   7.907  10.332   2.378 -0.2187 -0.1170  0.3440
 3994W        W 8194   6.265   9.875   9.321 -0.0385 -0.0087 -0.1500
 3995W        W 8195   2.691   3.394   2.318  0.2397 -0.0874 -0.1764
 3996W        W 8196   3.599   4.268   3.181 -0.0248  0.1103 -0.0365
 3997W        W 8197   5.606   9.969  10.772  0.0351 -0.0704  0.0670
 3998W        W 8198   3.390   1.166  11.462  0.0457  0.0716  0.0354
 3999W        W 8199   7.014   4.747   9.534  0.0922 -0.0275 -0.1107
 4000W        W 8200   7.612   1.316   1.606 -0.3400 -0.0723  0.1458
 4001W        W 8201   7.887   7.026   9.746  0.0663 -0.2148 -0.3016
 4002W        W 8202   3.526   5.053   4.688 -0.0655 -0.3204 -0.1362
 4003W        W 8203   8.972  10.168   9.308  0.1399 -0.0971 -0.0939
 4004W        W 8204   1.172   2.607  10.321  0.1705 -0.0683  0.0346
 4005W        W 8205   3.353   2.747   9.757 -0.0141 -0.0872  0.1697
 4006W        W 8206   0.087   7.383  13.121 -0.3190 -0.1130  0.0543
 4007W        W 8207   0.645   8.871   0.894 -0.0725 -0.0725  0.0278
 4008W        W 8208   5.529   5.904  10.238  0.0275 -0.3357 -0.1205
 4009W        W 8209   4.540   5.971   9.894 -0.1154 -0.3142 -0.1373
 4010W        W 8210   8.643   6.380   0.876 -0.0218 -0.0652  0.2466
 4011W        W 8211   8.684   4.480   1.100  0.0017 -0.0609 -0.0778
 4012W        W 8212   4.422   0.504   8.630 -0.2736  0.1471  0.2641
 4013W        W 8213   0.883   3.764  10.293  0.1196 -0.0109  0.0093
 4014W        W 8214  10.002   8.328   2.211  0.2904  0.0800  0.0953
 4015W        W 8215   9.560   7.868  10.354 -0.0007  0.1810 -0.1057
 4016W        W 8216   7.940   1.427   4.461  0.0494  0.2378 -0.3352
 4017W        W 8217   4.248  10.377   1.566  0.4597 -0.0738  0.1486
 4018W        W 8218   7.451   0.576  10.925  0.1110  0.2034  0.1095
 4019W        W 8219   1.156   7.227   9.969  0.0686  0.1117 -0.2504
 4020W        W 8220   4.187   2.234   2.313 -0.0894 -0.2235  0.0753
 4021W        W 8221   3.881   8.084   0.691  0.1128  0.0405  0.0618
 4022W        W 8222   7.194   4.767   3.360  0.0823 -0.4686  0.0071
 4023W        W 8223   8.969   6.256   1.869 -0.2989 -0.1404 -0.2693
 4024W        W 8224   4.530   8.188  13.476  0.0103  0.1183  0.1612
 4025W        W 8225   0.737   1.297   4.967 -0.1706 -0.4428 -0.0442
 4026W        W 8226   2.812   2.466  10.817 -0.0860 -0.0093  0.1659
 4027W        W 8227   9.031   9.219  12.511 -0.3505 -0.2432 -0.3180
 4028W        W 8228   6.359   1.592   9.232 -0.2628 -0.1095  0.4674
 4029W        W 8229  10.380   2.850  10.124  0.0394 -0.3760 -0.2165
 4030W        W 8230   3.731   5.152   9.503  0.1875  0.0150 -0.0010
 4031W        W 8231   6.944   2.226   3.829  0.4118  0.2305 -0.0724
 4032W        W 8232   1.138   2.422   3.285  0.2586 -0.5580  0.2406
 4033W        W 8233   4.511   5.075   2.804 -0.1521 -0.3644  0.2550
 4034W        W 8234   2.114   4.302   1.867 -0.2360  0.0188  0.2740
 4035W        W 8235   7.655  10.419  12.297  0.2574 -0.0598  0.0553
 4036W        W 8236   7.744   3.374   9.540  0.0285  0.2139  0.0521
 4037W        W 8237   7.618   5.809  10.669  0.0150 -0.2482 -0.0030
 4038W        W 8238   8.015   1.296   3.077 -0.1024 -0.3179 -0.0319
 4039W        W 8239   1.489   3.766  11.697 -0.2997  0.2775  0.1868
 4040W        W 8240   7.691   5.203  10.053 -0.0093 -0.0845  0.0534
 4041W        W 8241   1.152   1.511  12.153  0.0618  0.0025  0.2545
 4042W        W 8242   4.624   2.631   1.584  0.3405 -0.0240 -0.1663
 4043W        W 8243   9.447   0.618   2.453  0.1279 -0.3479 -0.1117
 4044W        W 8244   1.831   0.952  11.178  0.1619  0.1577  0.3662
 4045W        W 8245   7.056  10.329  10.712 -0.2613  0.0586 -0.0547
 4046W        W 8246   8.897   5.936   1.311  0.1050 -0.4582  0.1675
 4047W        W 8247   9.619   0.774  12.207  0.0171  0.1856  0.2547
 4048W        W 8248   6.730   2.879   9.066  0.1603  0.0616  0.3965
 4049W        W 8249   4.129   7.005   0.019  0.2792 -0.0612 -0.2731
 4050W        W 8250   5.768   9.762   9.419  0.1409 -0.0482  0.1135
 4051W        W 8251   6.083   1.937   9.983  0.0031  0.2406  0.0221
 4052W        W 8252   7.857   3.081   0.031 -0.1786 -0.2424  0.1363
 4053W        W 8253   5.676   1.490  10.943 -0.2179  0.1144  0.0964
 4054W        W 8254   4.394   6.319  12.487  0.0255 -0.0101 -0.0925
 4055W        W 8255   8.479   0.707   1.461  0.1419  0.1063 -0.0282
 4056W        W 8256   7.288   6.877   4.341  0.1461 -0.2115  0.0140
 4057W        W 8257   0.331   3.186  11.280  0.0765 -0.3611 -0.0731
 4058W        W 8258   5.454   8.322   0.968  0.2045 -0.3132 -0.0312
 4059W        W 8259   5.919   5.946   2.778  0.1901  0.1697  0.1139
 4060W        W 8260   2.238   5.194  10.687 -0.0923 -0.0638  0.2419
 4061W        W 8261   4.757   3.782  13.397  0.1309  0.2282  0.0062
 4062W        W 8262   7.600   4.921   3.670 -0.1551 -0.0540 -0.0212
 4063W        W 8263   0.889   0.596   3.260  0.0982 -0.0979  0.0222
 4064W        W 8264   1.420  10.421  12.245 -0.0038  0.0207  0.0359
 4065W        W 8265   5.055   6.531   0.169 -0.0323 -0.0371 -0.2399
 4066W        W 8266   2.986   3.692   0.233 -0.0329 -0.0126  0.1558
 4067W        W 8267   9.675   7.061   3.627 -0.1022 -0.0859 -0.4266
 4068W        W 8268   1.046   9.349   0.326 -0.3653 -0.1374 -0.5019
 4069W        W 8269   1.669   6.108   0.482  0.1902  0.0953 -0.2262
 4070W        W 8270   9.531   3.695  13.173 -0.1952  0.0513 -0.2635
 4071W        W 8271   6.031   1.405  11.277 -0.2342  0.0726  0.1426
 4072W        W 8272   3.934   3.824   4.461  0.0483 -0.1218 -0.2570
 4073W        W 8273   4.089   1.355  10.273  0.2068 -0.0552 -0.1784
 4074W        W 8274   1.626   4.609   3.208 -0.2108  0.1209 -0.0340
 4075W        W 8275   6.713   8.658  11.489 -0.0307 -0.0359  0.0760
 4076W        W 8276   0.039   7.033   0.937 -0.3088 -0.2049  0.0101
 4077W        W 8277   3.674   0.449   3.397  0.1970 -0.1782  0.1913
 4078W        W 8278   7.033   0.866   2.281 -0.1749 -0.1459  0.2806
 4079W        W 8279   1.848   8.231  12.124  0.0400 -0.2419 -0.0795
 4080W        W 8280   9.835   6.886  13.125  0.1052 -0.1397 -0.6249
 4081W        W 8281   7.304   4.035  11.582  0.2636 -0.3034 -0.1229
 4082W        W 8282   3.556   2.276   9.566 -0.0421  0.0841  0.0582
 4083W        W 8283  10.377   6.976  12.931  0.1333  0.2179  0.0936
 4084W        W 8284   9.193   1.271  11.680 -0.2554  0.3718 -0.0508
 4085W        W 8285   4.654   6.599   3.782 -0.1868  0.2026  0.4381
 4086W        W 8286   6.820   5.722  11.492 -0.0022 -0.0584  0.0209
 4087W        W 8287   5.174   5.485   3.398  0.1049  0.1868 -0.1723
 4088W        W 8288   6.119   5.207  10.462 -0.0897  0.0201 -0.0571
 4089W        W 8289   1.102   3.053  11.404 -0.0039 -0.0528 -0.0254
 4090W        W 8290   6.937   1.838  10.795 -0.1683 -0.0489 -0.1704
 4091W        W 8291   3.665   1.658  11.783 -0.0055  0.0251 -0.0588
 4092W        W 8292   3.849   4.701   4.070 -0.1672  0.0931 -0.1932
 4093W        W 8293   5.859   9.461  10.657 -0.1308  0.1215  0.0136
 4094W        W 8294   3.712   4.000   0.238 -0.0440 -0.1603  0.1374
 4095W        W 8295   6.650   6.218  12.629 -0.0737  0.1468  0.2922
 4096W        W 8296   1.155   4.340  10.891  0.1165  0.1704 -0.1660
 4097W        W 8297   6.547   3.203   2.801 -0.0698  0.2694 -0.2867
 4098W        W 8298   8.243   9.306   9.825  0.0650 -0.0180 -0.1236
 4099W        W 8299   1.303   0.226  12.807 -0.2481 -0.1693  0.0497
 4100W        W 8300   3.759   5.532   3.318  0.2221  0.1221  0.0960
 4101W        W 8301   7.228   8.078  13.029 -0.1618  0.3397 -0.2730
 4102W        W 8302  10.056   1.836  12.967  0.1107 -0.0775 -0.0178
 4103W        W 8303   6.782   2.912   0.057 -0.0173  0.2440  0.0651
 4104W        W 8304   7.283   3.614  13.374 -0.1677  0.1243 -0.2521
 4105W        W 8305   6.157   8.139   0.488 -0.1175  0.1717  0.3598
 4106W        W 8306   6.777   5.492  10.085 -0.2095 -0.2943 -0.2534
 4107W        W 8307   6.050   9.899  12.756  0.1618  0.0379  0.3605
 4108W        W 8308   9.167   7.968   9.951 -0.0142  0.2545  0.3412
 4109W        W 8309   1.974  10.070   3.724 -0.0041 -0.3605 -0.0063
 4110W        W 8310  10.362   3.224   0.078 -0.0389  0.2499 -0.0611
 4111W        W 8311   7.529   4.002   0.741 -0.0270  0.0931 -0.1090
 4112W        W 8312   3.522   3.413   3.684 -0.0529 -0.1434 -0.0146
 4113W        W 8313   5.814   7.742  10.583  0.0921 -0.1780  0.1039
 4114W        W 8314   1.064   5.808  11.713  0.0697  0.3784 -0.1347
 4115W        W 8315   7.089   6.432  10.357 -0.1056  0.1704  0.0040
 4116W        W 8316   1.120   2.116   1.290 -0.1895  0.0435 -0.0234
 4117W        W 8317   7.812   4.752   9.238  0.2222  0.0839  0.0141
 4118W        W 8318   2.467   9.615  10.505 -0.0159 -0.1386  0.0277
 4119W        W 8319   6.496   6.092   3.383 -0.3861 -0.1662  0.0334
 4120W        W 8320   0.522   5.405   0.842 -0.2109  0.2882 -0.0059
 4121W        W 8321   1.339   4.623   1.960  0.0463  0.1923  0.0047
 4122W        W 8322   7.666   1.032   3.408 -0.1593  0.1052  0.0204
 4123W        W 8323   3.488   2.652   0.138 -0.2885 -0.2015  0.2476
 4124W        W 8324   1.904   8.846  12.617 -0.1662  0.0650  0.0625
 4125W        W 8325   8.822  10.310   3.743  0.1340 -0.1637  0.1244
 4126W        W 8326   0.621   7.236   3.218 -0.1116  0.1411 -0.0581
 4127W        W 8327   5.546   0.457  11.569 -0.0228 -0.2515  0.1209
 4128W        W 8328   6.383   0.137   3.297  0.0537  0.1094 -0.1484
 4129W        W 8329   4.234   2.311  11.187 -0.1357 -0.1783  0.0056
 4130W        W 8330   3.422   3.329   1.438  0.1087 -0.0736  0.3028
 4131W        W 8331   3.127  10.144   1.945  0.1475 -0.4208 -0.5004
 4132W        W 8332   6.759   9.136  11.435 -0.3997  0.0776  0.0989
 4133W        W 8333   4.986   9.818   2.802 -0.0721  0.0610 -0.0695
 4134W        W 8334   5.187   0.780   0.423 -0.1137 -0.0726 -0.3018
 4135W        W 8335  10.090   8.026   2.665  0.3383 -0.2718 -0.0344
 4136W        W 8336   8.979   3.476  13.010 -0.3095  0.0944 -0.0479
 4137W        W 8337  10.180   7.871   1.108  0.2105  0.3942  0.2581
 4138W        W 8338   2.875   1.082   1.633 -0.2284  0.2421 -0.3262
 4139W        W 8339   6.037   9.930   3.969  0.2950  0.0228  0.5772
 4140W        W 8340   4.100   7.757   1.755 -0.0336  0.1063  0.0231
 4141W        W 8341   0.243   1.959   2.354 -0.0149 -0.0916 -0.1058
 4142W        W 8342   1.940   4.657  13.132  0.0361  0.1036  0.2365
 4143W        W 8343   6.136   4.201   0.921  0.1929  0.0163 -0.1774
 4144W        W 8344   7.274   2.644   0.269 -0.1827 -0.3513 -0.1860
 4145W        W 8345   4.940   6.765   2.851 -0.2095  0.1503 -0.5097
 4146W        W 8346   5.181   6.824   1.670 -0.0131  0.2958  0.0070
 4147W        W 8347   6.393   1.425   1.239 -0.0720  0.2254 -0.0602
 4148W        W 8348   2.513  10.192  10.064 -0.0313 -0.2656 -0.0509
 4149W        W 8349  10.197   9.174   0.461  0.0483  0.0741  0.1950
 4150W        W 8350   4.058   6.596   3.014 -0.0512  0.2464  0.0841
 4151W        W 8351  10.184   1.363   5.118  0.0700  0.0780 -0.1258
 4152W        W 8352   7.915   7.731  13.270  0.5128  0.0538 -0.1271
 4153W        W 8353   7.896   5.891   1.168 -0.0114  0.2002  0.0151
 4154W        W 8354   6.985   3.657  12.864 -0.0698 -0.0067 -0.1587
 4155W        W 8355   1.718   3.201   1.774  0.2908  0.0745 -0.4442
 4156W        W 8356   0.496  10.316  10.264 -0.2277  0.1540 -0.1112
 4157W        W 8357   4.497   2.164  10.293  0.1049  0.0645  0.1657
 4158W        W 8358   8.390   2.185  12.585 -0.0565 -0.3027 -0.1004
 4159W        W 8359   6.436   9.023   0.213  0.0210  0.1767  0.0877
 4160W        W 8360   7.693   9.046   1.423  0.0201 -0.5282 -0.1096
 4161W        W 8361   6.623   2.840   4.563 -0.0214  0.2337 -0.2385
 4162W        W 8362   3.765   3.415  13.061  0.0788 -0.2538 -0.0096
 4163W        W 8363   3.588   3.196  10.169  0.2704  0.0861  0.1949
 4164W        W 8364  10.332   8.426   4.188 -0.0113  0.0591  0.1384
 4165W        W 8365   3.773   9.418   3.305 -0.2676 -0.3285 -0.0511
 4166W        W 8366   4.443   7.041   3.836  0.2717  0.1665  0.0961
 4167W        W 8367   1.910   3.877   3.760 -0.1904  0.5427  0.2015
 4168W        W 8368  10.158   2.057   3.237  0.1154 -0.2440  0.0075
 4169W        W 8369   4.166   1.632  13.107 -0.1328 -0.5577 -0.1465
 4170W        W 8370   2.889   3.950  11.351  0.1037 -0.0161  0.1306
 4171W        W 8371   7.190   8.205   2.358 -0.2083 -0.1485 -0.0128
 4172W        W 8372   1.065   2.114  12.973  0.1201 -0.1370 -0.1402
 4173W        W 8373   2.153   2.317   3.157  0.1738  0.0550  0.2261
 4174W        W 8374   7.209   3.900   2.750  0.1288  0.0081 -0.3576
 4175W        W 8375   4.096   2.935  10.051  0.0396 -0.0568 -0.0130
 4176W        W 8376   6.838   1.273  11.558  0.1782  0.2986  0.1695
 4177W        W 8377   1.115   6.960  12.727  0.0185  0.0649  0.0838
 4178W        W 8378   0.759   5.815   2.721  0.0243  0.1899 -0.2779
 4179W        W 8379   0.144   2.122   3.465 -0.2657  0.2402  0.0384
 4180W        W 8380   2.670   6.251   3.194 -0.0934  0.2465 -0.0899
 4181W        W 8381   3.302   4.137  12.488 -0.2044 -0.0603  0.2919
 4182W        W 8382   8.203   4.917   1.647  0.0947  0.0342 -0.1036
 4183W        W 8383   1.520   2.719   0.700  0.0189  0.3956  0.1152
 4184W        W 8384  10.284   3.788   0.278 -0.1864  0.2184 -0.0465
 4185W        W 8385   8.723   2.688  10.552  0.5094  0.1647 -0.0412
 4186W        W 8386   8.130   6.629  13.162 -0.0119  0.1849  0.0575
 4187W        W 8387   8.576  10.387   5.250 -0.1649  0.5677  0.0804
 4188W        W 8388   8.406   7.258   9.018  0.1738  0.0063 -0.0913
 4189W        W 8389   2.491   2.692   3.123  0.0559 -0.1812 -0.1422
 4190W        W 8390   8.036   3.101  11.707  0.0199 -0.2940  0.0924
 4191W        W 8391   8.262   4.665  11.382 -0.0629  0.0423 -0.1256
 4192W        W 8392   7.524   3.725  11.294 -0.2077 -0.1435  0.1130
 4193W        W 8393   1.588  10.224   3.418 -0.1288 -0.1965 -0.2981
 4194W        W 8394   5.434   4.278   4.707  0.0169 -0.0970 -0.4850
 4195W        W 8395   7.970   9.300  12.840 -0.1924  0.2731  0.3280
 4196W        W 8396   6.853   5.487   8.478 -0.1870  0.0526  0.1412
 4197W        W 8397   7.038   4.577  11.751 -0.1943  0.1918 -0.0532
 4198W        W 8398   0.499   0.246   3.354 -0.1734 -0.0127  0.3534
 4199W        W 8399   3.536   3.591   0.430  0.1389  0.0162  0.1575
 4200W        W 8400  10.003   0.051   4.336 -0.1545  0.3151  0.1545
 4201W        W 8401   5.258   5.103  11.940  0.1968 -0.2270  0.2004
 4202W        W 8402   5.192   5.490   3.914  0.4466 -0.0579  0.0775
 4203W        W 8403   4.720   7.380  12.947 -0.0126 -0.2228 -0.0062
 4204W        W 8404   1.456   9.871   2.638 -0.0357  0.2058 -0.0887
 4205W        W 8405   3.087   2.491   2.083  0.0852  0.0711 -0.1055
 4206W        W 8406   7.170   1.893  10.029 -0.1417  0.0463  0.0192
 4207W        W 8407   9.537   2.014   2.536  0.3225 -0.2890 -0.2576
 4208W        W 8408   8.113   3.702   1.159 -0.1474 -0.1549 -0.0508
 4209W        W 8409   0.916   7.090   1.929  0.1002 -0.1374 -0.0590
 4210W        W 8410   1.616   3.725   0.678 -0.0361  0.2399 -0.2330
 4211W        W 8411   2.931   7.579  12.753  0.0182 -0.2507  0.2074
 4212W        W 8412   5.530   7.961   4.607  0.3429  0.2160  0.1493
 4213W        W 8413   1.924   9.382  11.425  0.2005  0.0076 -0.2338
 4214W        W 8414   6.184   1.938  12.069  0.4709  0.0489 -0.1627
 4215W        W 8415   9.168   4.033   4.179 -0.0509  0.0653 -0.1560
 4216W        W 8416   2.014   2.793   2.921  0.2438  0.1982  0.1738
 4217W        W 8417   5.690   8.527  12.742  0.0592 -0.0066 -0.0476
 4218W        W 8418   7.839   9.327   3.709  0.2156 -0.0215 -0.2195
 4219W        W 8419   1.557   0.154  10.200  0.0282 -0.5159 -0.2497
 4220W        W 8420   2.354   5.653   1.584  0.1688  0.1178  0.1836
 4221W        W 8421   2.326   9.869   2.750 -0.0230  0.1303 -0.0118
 4222W        W 8422   4.953   4.976   2.621  0.2464 -0.0160  0.0122
 4223W        W 8423   5.593   5.939   0.680 -0.1512 -0.1434  0.0063
 4224W        W 8424   4.353   2.545  13.424  0.0556  0.0830  0.1531
 4225W        W 8425   5.573   2.005  10.051  0.0684  0.1201  0.0600
 4226W        W 8426   3.769   2.399   9.080  0.1006 -0.1215 -0.2670
 4227W        W 8427   8.960   9.419  12.045 -0.0774 -0.0508  0.1292
 4228W        W 8428   4.315   8.441   4.133  0.1489  0.1473  0.2420
 4229W        W 8429   8.805   4.394  10.094 -0.2021  0.0390 -0.1270
 4230W        W 8430   0.648   7.443  12.827 -0.2525  0.0938  0.0247
 4231W        W 8431   9.043   4.652  11.933  0.0238 -0.2118 -0.0349
 4232W        W 8432   7.183   2.718  13.256  0.2008 -0.1131  0.1378
 4233W        W 8433   1.662   2.236  10.174 -0.1742  0.0903  0.0775
 4234W        W 8434   1.676   3.049   2.326 -0.0879 -0.0727  0.1909
 4235W        W 8435   4.521   2.674  10.883  0.0376 -0.0895  0.0181
 4236W        W 8436   0.050   3.052   2.470  0.3414 -0.0244 -0.1030
 4237W        W 8437   6.171   3.665  11.000 -0.1290 -0.2725 -0.1050
 4238W        W 8438   4.412   1.700  10.540  0.2055  0.1048  0.1588
 4239W        W 8439   8.127   4.397   3.118 -0.0446 -0.0673 -0.0523
 4240W        W 8440   0.750   6.634  13.040 -0.1577  0.0324  0.0726
 4241W        W 8441   2.764   0.657   0.802  0.1270 -0.1033  0.0418
 4242W        W 8442   5.886   8.230   1.253 -0.2180  0.1837 -0.0992
 4243W        W 8443   8.265   5.772   4.418 -0.1089 -0.0215  0.1404
 4244W        W 8444   7.643   2.445   0.541 -0.1528 -0.1793  0.0489
 4245W        W 8445   6.692  10.251   3.056 -0.0387 -0.0124  0.3165
 4246W        W 8446   3.194   0.817  11.167  0.2279 -0.0778  0.0722
 4247W        W 8447   9.869   1.343  12.076  0.2213 -0.0526  0.5903
 4248W        W 8448   6.051   2.541   2.450  0.0098  0.3178 -0.0203
 4249W        W 8449   4.287   4.439  12.272 -0.4746  0.0081  0.0947
 4250W        W 8450   8.775   1.205  13.325  0.0086  0.0412 -0.0219
 4251W        W 8451   3.516   0.945   0.179 -0.4991 -0.0632  0.0924
 4252W        W 8452   7.955   9.325   2.001 -0.2056  0.0353  0.1003
 4253W        W 8453   4.114   6.270   9.824 -0.1409  0.3881 -0.1014
 4254W        W 8454   7.526   5.139   0.499  0.3576 -0.0521  0.2205
 4255W        W 8455   9.636   2.251   0.859 -0.2662 -0.2023  0.0850
 4256W        W 8456   6.817   3.246   9.354  0.2467  0.0207 -0.0408
 4257W        W 8457   4.130   4.215  11.832  0.0928 -0.1975  0.0033
 4258W        W 8458   0.983  10.202   2.007  0.2223  0.0283  0.0327
 4259W        W 8459   2.213   4.794   0.945  0.3353 -0.0359 -0.0451
 4260W        W 8460   9.801   6.981   3.117  0.3868 -0.3176 -0.0611
 4261W        W 8461   4.242   1.576   0.138 -0.1307 -0.1818 -0.0304
 4262W        W 8462   4.422   3.038   9.077 -0.1540 -0.0764  0.2913
 4263W        W 8463   0.285   8.043  12.961  0.1102  0.0003  0.3102
 4264W        W 8464   0.323   3.700   3.355  0.1970 -0.0692  0.3906
 4265W        W 8465  10.373   2.397   0.504 -0.0348  0.1278  0.1480
 4266W        W 8466   8.157   7.541   9.475  0.1401 -0.1021 -0.0641
 4267W        W 8467   6.945   8.190  12.443  0.0084 -0.3213  0.0765
 4268W        W 8468   3.454   2.687  11.092 -0.0358 -0.0677  0.1574
 4269W        W 8469   6.980   1.184  10.743 -0.0705  0.2165  0.0975
 4270W        W 8470   7.071   1.779   8.520  0.2696 -0.0495 -0.2781
 4271W        W 8471   8.495   5.762  10.577 -0.0074 -0.0658  0.0593
 4272W        W 8472   8.106   7.943   9.889 -0.2765 -0.5049 -0.1205
 4273W        W 8473   4.688  10.018   4.498  0.2355 -0.1363  0.1705
 4274W        W 8474  10.424   7.132  10.780 -0.0460  0.2668 -0.4608
 4275W        W 8475   6.413   3.578  11.498  0.1363  0.0292 -0.0726
 4276W        W 8476   7.002   3.808   0.428 -0.0149 -0.0072 -0.2132
 4277W        W 8477   8.092   5.846   0.307 -0.0386 -0.1926  0.0127
 4278W        W 8478   3.961   3.867   1.750 -0.0378  0.0968  0.0833
 4279W        W 8479   0.652   4.498   4.541 -0.0092  0.0220  0.3858
 4280W        W 8480   5.087   9.751   4.150  0.0563  0.0917 -0.1931
 4281W        W 8481   5.610   2.438   3.387  0.0742  0.2041  0.1319
 4282W        W 8482   2.628   9.428  13.266 -0.0624 -0.1862  0.1625
 4283W        W 8483  10.319   3.708  12.055 -0.2918 -0.0243  0.0719
 4284W        W 8484   0.991   8.887   3.789 -0.0934 -0.0947 -0.3089
 4285W        W 8485   0.889   9.283  12.423 -0.0097 -0.0528  0.3025
 4286W        W 8486   3.656   5.424  11.858  0.1330  0.3175  0.1523
 4287W        W 8487   8.267   0.323  11.892  0.1012 -0.1166  0.1820
 4288W        W 8488   2.851   0.657   5.588 -0.1727 -0.5286  0.2970
 4289W        W 8489   7.884   3.176  12.783  0.1459  0.1860  0.4023
 4290W        W 8490   7.966   1.114  10.254 -0.3124  0.1998  0.0994
 4291W        W 8491   2.170   7.858  10.383  0.0813  0.3309  0.0037
 4292W        W 8492   1.824   6.300  11.804 -0.0457 -0.0393  0.0471
 4293W        W 8493   8.289   4.259   0.405 -0.0210 -0.1041 -0.1512
 4294W        W 8494   4.010   6.085   1.586 -0.1643  0.1689  0.0486
 4295W        W 8495   6.686   7.444   2.093  0.3341  0.0403 -0.2055
 4296W        W 8496   7.469   1.668   2.916  0.0409 -0.1461  0.3436
 4297W        W 8497   8.916   0.692   9.178 -0.1511 -0.0983  0.1408
 4298W        W 8498   4.101   4.164  11.363  0.1316  0.1538 -0.2551
 4299W        W 8499   6.636   0.522   2.218  0.1520  0.1690  0.0102
 4300W        W 8500   3.213   5.549   3.624 -0.1830 -0.0612  0.0579
 4301W        W 8501   8.243   0.321   5.116 -0.0905  0.0979 -0.1208
 4302W        W 8502   5.187   1.791   1.516 -0.0445  0.3006  0.2309
 4303W        W 8503   1.914   1.695  13.321  0.1931  0.0438  0.0879
 4304W        W 8504   1.090   9.851   1.249 -0.4158  0.0719  0.0149
 4305W        W 8505   1.173   7.181   1.532  0.1839  0.1114 -0.0261
 4306W        W 8506   3.111   8.992  10.097  0.2263 -0.1853 -0.0364
 4307W        W 8507   7.500   0.210   1.935  0.4400 -0.0292 -0.3839
 4308W        W 8508   8.588   8.312  10.452 -0.2697  0.1297 -0.0183
 4309W        W 8509   0.231   8.656   1.157  0.2394 -0.3174 -0.0838
 4310W        W 8510   7.399   0.553   3.399 -0.2532  0.0836 -0.0933
 4311W        W 8511   4.152   4.411   3.807  0.0227 -0.0301  0.1092
 4312W        W 8512   0.235   8.783   9.279  0.2362 -0.3298  0.2065
 4313W        W 8513  10.192   5.237  12.388  0.2510  0.1696 -0.1169
 4314W        W 8514   9.528   7.435  11.317 -0.2094 -0.0146 -0.2192
 4315W        W 8515   7.151   4.972   3.833  0.0851 -0.1571  0.2162
 4316W        W 8516   2.889   3.743  10.894  0.1508 -0.0785  0.1502
 4317W        W 8517   5.063   1.878   2.908 -0.4225 -0.0073  0.4506
 4318W        W 8518   2.090   7.829  11.985 -0.1853 -0.1099 -0.1826
 4319W        W 8519   4.987   4.490   1.924  0.0837 -0.2729  0.2005
 4320W        W 8520   5.150   7.488   9.760 -0.2077 -0.4203  0.3574
 4321W        W 8521   2.074   4.076   0.663  0.0719  0.2312 -0.1916
 4322W        W 8522   1.804   1.856   8.912  0.0346  0.0166 -0.1811
 4323W        W 8523   6.205   6.519   9.728 -0.2030 -0.0116 -0.0140
 4324W        W 8524   7.699   9.515   8.482 -0.1082 -0.0048  0.4484
 4325W        W 8525   9.029   2.060  10.002  0.2686  0.3677 -0.0020
 4326W        W 8526  10.154   9.895   4.123 -0.2635 -0.0025  0.0298
 4327W        W 8527   8.817   9.315  11.570 -0.1591 -0.0946  0.0226
 4328W        W 8528   4.737   5.868  12.287 -0.2746  0.1939 -0.0812
 4329W        W 8529   9.762   1.290   0.290 -0.0740 -0.1041  0.0431
 4330W        W 8530   8.419  10.049   4.781  0.1084 -0.2656  0.2472
 4331W        W 8531   5.749   1.118   2.816 -0.2560  0.0012  0.0086
 4332W        W 8532   1.509   5.424  13.119 -0.0104  0.0426  0.0060
 4333W        W 8533   6.640   6.978  11.373 -0.2611  0.1701  0.0079
 4334W        W 8534   7.362   8.980  11.509  0.3290 -0.0726  0.0283
 4335W        W 8535  10.142   8.375   1.261  0.0087 -0.0121  0.0603
 4336W        W 8536   1.628   7.132  10.801  0.3508  0.1943 -0.2361
 4337W        W 8537   5.908   4.667   9.507 -0.0726  0.1826  0.2150
 4338W        W 8538   5.131   5.253  13.060 -0.0608 -0.1419 -0.5632
 4339W        W 8539   9.734   2.286  13.419  0.0784  0.1521 -0.0897
 4340W        W 8540   6.933   6.389   3.331  0.3776  0.0477  0.2372
 4341W        W 8541   2.782   8.867   3.900  0.1696 -0.2411  0.0441
 4342W        W 8542   8.523   1.016   9.276 -0.2672  0.0421  0.0714
 4343W        W 8543   5.424   2.647   0.276 -0.0491  0.0898 -0.1916
 4344W        W 8544   1.803   6.549   0.233  0.1204  0.1104  0.4743
 4345W        W 8545   7.398   7.805   3.457 -0.3161  0.2088  0.3131
 4346W        W 8546   9.148   4.567   0.238 -0.1903 -0.2666 -0.1741
 4347W        W 8547   2.523   8.894  10.814 -0.1495  0.2128  0.0333
 4348W        W 8548   7.531   8.788  11.896 -0.0651  0.0420 -0.1731
 4349W        W 8549   6.283   0.856   4.622 -0.0687  0.1806 -0.0755
 4350W        W 8550   8.557   7.900   1.414 -0.1976  0.1914  0.0488
 4351W        W 8551   7.354   2.131   4.186 -0.0766  0.1510 -0.1444
 4352W        W 8552   2.074  10.427   3.369  0.0071 -0.3938  0.0104
 4353W        W 8553   8.779   2.396   2.445  0.0479 -0.2040  0.2099
 4354W        W 8554   1.151   8.619  11.803 -0.5165 -0.0534 -0.0876
 4355W        W 8555   2.942   3.169  13.401 -0.2380 -0.1704  0.1226
 4356W        W 8556   7.983   0.617   9.034  0.0684  0.1129 -0.2212
 4357W        W 8557   4.653   4.941   2.219  0.1532 -0.1510 -0.3598
 4358W        W 8558   3.518   6.193  10.331 -0.1582 -0.2296  0.2441
 4359W        W 8559   9.945   0.677   0.421 -0.2016 -0.0660 -0.0566
 4360W        W 8560   4.806   9.408   9.683 -0.1953  0.1726  0.1289
 4361W        W 8561   6.471   6.623   2.161  0.0073  0.0348 -0.0411
 4362W        W 8562   6.533   8.221   3.567 -0.0109  0.0116  0.0112
 4363W        W 8563   3.045   1.910   2.302 -0.0155  0.2716  0.0003
 4364W        W 8564   7.899   7.259  12.387 -0.1064  0.2352  0.0734
 4365W        W 8565   6.700   8.006   0.677 -0.4339  0.2159  0.0442
 4366W        W 8566   4.482   9.065  10.622 -0.1613 -0.0197 -0.1216
 4367W        W 8567   9.651   9.309  10.230 -0.0611  0.0024  0.0946
 4368W        W 8568   8.859   8.142  10.857  0.1570  0.0733  0.0920
 4369W        W 8569   0.346   1.302  12.113 -0.1717  0.1008  0.2512
 4370W        W 8570   5.032   5.961   5.072  0.3601 -0.0296 -0.1481
 4371W        W 8571   2.324  10.358   1.065  0.1047 -0.1314 -0.3071
 4372W        W 8572   2.293   0.941   8.682 -0.0228  0.1089 -0.0854
 4373W        W 8573   9.214   1.962   3.721 -0.3576 -0.0900  0.2700
 4374W        W 8574   6.315   3.442   3.972  0.0091 -0.0899 -0.0083
 4375W        W 8575   4.114   2.346   1.421 -0.0821 -0.0520  0.1306
 4376W        W 8576   9.496   0.227   4.385  0.1841  0.0501  0.1569
 4377W        W 8577   2.850   0.248   1.211 -0.0667  0.4078  0.0260
 4378W        W 8578   8.074   3.826   2.883 -0.1527 -0.2734  0.0088
 4379W        W 8579   7.853   0.042  10.223 -0.4685 -0.0483  0.1170
 4380W        W 8580   9.832   7.665   2.451 -0.0562  0.1791 -0.2604
 4381W        W 8581  10.392  10.366   4.076  0.0455  0.3985 -0.1526
 4382W        W 8582   4.762   4.156   0.812  0.2668 -0.1018  0.0887
 4383W        W 8583   5.382   5.230   1.735  0.1479 -0.1119 -0.1828
 4384W        W 8584   1.720   1.793   0.799  0.0169  0.0350  0.0750
 4385W        W 8585   4.003   6.252  12.878 -0.2651  0.1907 -0.0585
 4386W        W 8586   0.586   8.758   2.924 -0.0687 -0.0661 -0.1032
 4387W        W 8587   6.503   6.639   3.120  0.3300  0.0978 -0.0352
 4388W        W 8588   3.771   4.812  13.015  0.0403 -0.1619  0.3495
 4389W        W 8589   8.103   1.054   9.800 -0.2400  0.2967 -0.1143
 4390W        W 8590   5.428   8.895   2.907 -0.2622  0.3262 -0.2418
 4391W        W 8591   4.146   0.024   0.064 -0.4056  0.1253  0.2464
 4392W        W 8592   5.015   6.463   9.360 -0.1296  0.0428  0.1251
 4393W        W 8593   3.059   2.027  11.438 -0.0874 -0.0038  0.0555
 4394W        W 8594   8.563   7.596   4.147 -0.3150 -0.0104 -0.1600
 4395W        W 8595   8.782   7.243   9.421 -0.0833  0.3508 -0.3384
 4396W        W 8596   9.369   3.671   2.878 -0.1175  0.1910  0.0263
 4397W        W 8597   4.827   8.623  13.296  0.0184 -0.1494  0.1762
 4398W        W 8598   3.152   0.234  12.611 -0.3291 -0.0549  0.0410
 4399W        W 8599   3.401   7.175  11.787 -0.2410  0.0865  0.0018
 4400W        W 8600   9.035   0.418   9.600  0.1631 -0.2953  0.0099
 4401W        W 8601   3.843   1.977   3.672  0.0369  0.0220 -0.2840
 4402W        W 8602   3.132   2.404   3.856 -0.0700 -0.0624 -0.0279
 4403W        W 8603   4.921   0.556   1.076 -0.3404  0.2533  0.1807
 4404W        W 8604   1.750   8.987   3.771 -0.1658 -0.0587  0.2021
 4405W        W 8605  10.240   3.423   0.659  0.0859 -0.1883  0.1396
 4406W        W 8606   6.441   9.617   8.905 -0.3026  0.0319  0.1187
 4407W        W 8607   8.447   9.676  10.554 -0.0852  0.1639  0.2526
 4408W        W 8608   5.438   9.789  12.389  0.1562 -0.0049  0.0156
 4409W        W 8609   0.498   6.132  13.039 -0.2529 -0.0958  0.2101
 4410W        W 8610   4.955   9.953   2.342 -0.1915  0.2017 -0.0081
 4411W        W 8611   2.878   6.033  10.726  0.0874  0.1980  0.1210
 4412W        W 8612   6.835   7.794  13.191 -0.2357  0.3042 -0.0970
 4413W        W 8613   9.571   5.415  10.283 -0.4604  0.2979  0.2470
 4414W        W 8614   7.976   4.522   3.679  0.0096 -0.0129 -0.0287
 4415W        W 8615   9.274   2.016   0.020  0.1558 -0.1942  0.1573
 4416W        W 8616   6.318   1.099  10.135 -0.0417 -0.0027  0.3805
 4417W        W 8617   2.909   0.629   0.021  0.1938 -0.1849 -0.1935
 4418W        W 8618   5.438   4.254  11.236  0.0312  0.3096  0.1178
 4419W        W 8619   1.817   6.571   1.218 -0.1189 -0.1219 -0.3384
 4420W        W 8620   0.823   9.388   1.493  0.3366 -0.1160  0.0797
 4421W        W 8621   0.461   9.478   4.523  0.0984  0.0264  0.1651
 4422W        W 8622   7.599   5.647   1.498  0.1758 -0.1186  0.1360
 4423W        W 8623   2.203   4.544  12.233 -0.1915 -0.1340  0.1578
 4424W        W 8624   8.929   4.003   8.426  0.0017  0.2965  0.2134
 4425W        W 8625   3.985   8.993   1.007 -0.0787 -0.4118 -0.1561
 4426W        W 8626   3.669   4.367  11.604 -0.0397  0.3107  0.0877
 4427W        W 8627   3.246   4.612   2.537  0.0978  0.0361 -0.0733
 4428W        W 8628   7.395   6.107   3.171 -0.3480 -0.1676 -0.1261
 4429W        W 8629   6.131   2.444  10.082 -0.3581 -0.0275  0.2248
 4430W        W 8630   7.170   0.966  12.438  0.1371  0.0079  0.1190
 4431W        W 8631   1.505   5.502   3.704  0.1195  0.1066  0.0329
 4432W        W 8632   1.733   3.012   1.036 -0.0730 -0.1483 -0.3304
 4433W        W 8633   3.872   4.708  11.277  0.0797  0.1213  0.1509
 4434W        W 8634   4.695   7.770   9.210 -0.1674  0.3179 -0.0611
 4435W        W 8635   2.387   4.676  10.562  0.2419 -0.0181  0.0417
 4436W        W 8636   9.943   7.676  11.249 -0.0168 -0.2029  0.2799
 4437W        W 8637   8.945   1.600  11.933 -0.1998  0.3920 -0.0760
 4438W        W 8638   6.800  10.226   9.418  0.0711 -0.2363  0.1569
 4439W        W 8639   5.320   2.582   3.798 -0.0120  0.1058  0.0216
 4440W        W 8640   2.227   1.989   9.070 -0.2763  0.0321 -0.0277
 4441W        W 8641   6.638   4.636   0.001  0.0529  0.1191 -0.1906
 4442W        W 8642   7.586   4.397  12.404 -0.3322  0.0589  0.1213
 4443W        W 8643   8.504   8.435  12.864 -0.2534 -0.3062  0.1878
 4444W        W 8644   6.613   9.355   3.242 -0.0603  0.2252  0.3179
 4445W        W 8645   6.556   3.967   3.696  0.1690  0.0070  0.2238
 4446W        W 8646   1.678   0.437   5.092  0.3768  0.0160  0.2576
 4447W        W 8647   6.238   1.852   3.030  0.0835  0.4327  0.2180
 4448W        W 8648   6.559   7.097   9.682  0.0059  0.2080 -0.3484
 4449W        W 8649   6.314   1.360   0.073 -0.0324  0.0768 -0.1119
 4450W        W 8650   1.702  10.322   2.437  0.2875  0.1851 -0.1202
 4451W        W 8651   4.890   3.169  12.183  0.0480 -0.1509 -0.3782
 4452W        W 8652   3.108   8.631   3.321 -0.0142 -0.0174 -0.0198
 4453W        W 8653   8.130   9.464   5.285 -0.3365  0.2349 -0.0759
 4454W        W 8654   5.945   4.261   3.313 -0.1438  0.1488  0.2697
 4455W        W 8655   2.520   8.295  10.553 -0.0707 -0.0658 -0.0733
 4456W        W 8656   3.208   1.666   0.007 -0.2211  0.1394  0.3507
 4457W        W 8657   7.918  10.262   8.768 -0.0320 -0.2915 -0.0072
 4458W        W 8658   5.052   0.036   3.858  0.0268 -0.0777  0.1332
 4459W        W 8659   7.289   2.255   8.728  0.0332 -0.1125  0.0607
 4460W        W 8660   6.575   1.893   3.823 -0.2523  0.3746 -0.0455
 4461W        W 8661   7.868   1.531   9.635  0.1307  0.1324  0.0073
 4462W        W 8662   9.582   5.340   2.363  0.3168  0.1487  0.3703
 4463W        W 8663   6.916   6.047   3.678  0.0965  0.0453  0.1320
 4464W        W 8664   0.171   5.427  11.635 -0.0370  0.0234 -0.0380
 4465W        W 8665   5.067   1.528  12.876  0.2814 -0.5143 -0.1769
 4466W        W 8666   8.610   3.439  11.720  0.0823 -0.0450 -0.0801
 4467W        W 8667   1.458   7.247   2.657  0.4106  0.2990  0.1747
 4468W        W 8668   9.349   8.437   2.962  0.0440 -0.0733 -0.1425
 4469W        W 8669   5.073   1.193   8.913 -0.0846 -0.0138 -0.0901
 4470W        W 8670   3.870   6.440   1.255  0.1592 -0.2208 -0.1053
 4471W        W 8671  10.380   1.180   9.689 -0.3197 -0.0640 -0.2054
 4472W        W 8672   6.813   6.025  10.292 -0.2612  0.0088  0.0295
 4473W        W 8673   4.502   6.744   8.709 -0.2123 -0.1358  0.1116
 4474W        W 8674   0.808   9.516  13.290  0.0150  0.0776  0.1371
 4475W        W 8675   5.183   2.272   9.790  0.1920 -0.4038  0.0666
 4476W        W 8676  10.453   6.156   3.239  0.2101  0.2894 -0.3095
 4477W        W 8677  10.170   9.571   1.377  0.1291 -0.1775 -0.0847
 4478W        W 8678   0.068   4.108  10.252  0.1212  0.0688  0.0856
 4479W        W 8679   5.469   7.837  12.960  0.0388  0.0013 -0.3946
 4480W        W 8680   3.602   4.823   2.195 -0.2460 -0.4240  0.1407
 4481W        W 8681   2.860   3.734   4.618 -0.0934  0.1584  0.1123
 4482W        W 8682   1.484   5.605   3.076  0.1400 -0.1533  0.1063
 4483W        W 8683   9.595   9.494  11.774  0.0314  0.1615  0.2688
 4484W        W 8684   6.095   3.993  11.806  0.2440 -0.2718 -0.0516
 4485W        W 8685   2.931   8.399  12.047  0.3775 -0.1301 -0.1976
 4486W        W 8686   6.375   8.565  11.900 -0.3209  0.0434 -0.0339
 4487W        W 8687   9.482   3.504   0.139  0.0589  0.0328  0.4121
 4488W        W 8688   8.156   7.441   4.815 -0.0949  0.0679 -0.4086
 4489W        W 8689   8.765   8.727  10.907 -0.1187 -0.2122  0.1251
 4490W        W 8690   6.879   2.315   4.557  0.0024  0.1327  0.0691
 4491W        W 8691   6.984   2.499   1.768 -0.0208  0.1604 -0.0748
 4492W        W 8692   1.423   0.817   3.541 -0.0231 -0.0633 -0.1588
 4493W        W 8693   4.288   2.859  11.449  0.0296  0.2898  0.0944
 4494W        W 8694   1.732   1.064   3.892 -0.0631 -0.0640  0.0014
 4495W        W 8695   7.625   9.025  10.488 -0.1231 -0.1206  0.2121
 4496W        W 8696   8.061   4.180   1.726  0.0861  0.0462  0.0422
 4497W        W 8697   5.506   6.435   0.490  0.0522  0.1334  0.1151
 4498W        W 8698   7.239   5.464   9.740 -0.1766 -0.2332  0.1682
 4499W        W 8699   4.722   4.993   1.255  0.1449  0.4328  0.2148
 4500W        W 8700   2.652   6.485   1.677 -0.0314  0.0359  0.0432
 4501W        W 8701   6.625   0.170  12.349 -0.0916  0.2661 -0.1230
 4502W        W 8702   7.476   6.894   0.846  0.0225  0.1765  0.1278
 4503W        W 8703   6.578   1.592   1.700  0.0026  0.1288 -0.0263
 4504W        W 8704   8.474   5.872  13.377 -0.0119  0.0753 -0.0325
 4505W        W 8705  10.260   7.712   4.823 -0.0005  0.0055  0.2679
 4506W        W 8706   3.459   8.557   3.029 -0.0192 -0.0645  0.0175
 4507W        W 8707   1.812   2.188   8.315 -0.1349 -0.0590 -0.2728
 4508W        W 8708   6.947   0.215   3.043  0.1881  0.1492  0.1644
 4509W        W 8709   9.954   3.551  12.377 -0.4103 -0.3621  0.1108
 4510W        W 8710   9.439   3.010  10.169 -0.0073 -0.2165 -0.0700
 4511W        W 8711   1.931   6.009  12.763  0.0109  0.0024  0.2169
 4512W        W 8712   1.714   7.742   3.877  0.0705 -0.2029  0.0295
 4513W        W 8713   7.763   4.049  13.297 -0.1750  0.1067 -0.1054
 4514W        W 8714   2.472   8.808   9.383 -0.1333 -0.1673  0.3570
 4515W        W 8715   9.874   4.673   9.957 -0.2912 -0.4259 -0.0645
 4516W        W 8716   5.942   0.628  10.785  0.1270 -0.1750 -0.0747
 4517W        W 8717   0.586   3.423   1.230 -0.0900  0.2138 -0.0881
 4518W        W 8718   0.054   7.697   3.767  0.1695 -0.2897  0.1981
 4519W        W 8719   7.675   8.230  13.255 -0.0305  0.1168  0.3406
 4520W        W 8720  10.387   7.206  11.949 -0.1176 -0.0785 -0.0696
 4521W        W 8721   0.375   0.812   9.908  0.2848  0.0048  0.0063
 4522W        W 8722   9.362   8.465   9.839  0.2123 -0.1564 -0.2417
 4523W        W 8723   3.372   4.754  10.270 -0.2452 -0.0564 -0.0172
 4524W        W 8724   3.082   0.184  11.163 -0.0025  0.0401 -0.2090
 4525W        W 8725   2.002   5.606  10.973  0.1188 -0.1969  0.1179
 4526W        W 8726   3.483   9.305   1.922  0.2091 -0.2794 -0.1445
 4527W        W 8727   4.701   0.459  10.328  0.0444 -0.0997  0.2739
 4528W        W 8728   8.618   8.542   8.901 -0.2523 -0.2283  0.1194
 4529W        W 8729   2.638   5.783   2.985  0.0754  0.0466  0.0855
 4530W        W 8730   1.847   9.401  13.349  0.0783 -0.1208 -0.1047
 4531W        W 8731  10.237   0.982   0.181  0.0206  0.3311  0.0394
 4532W        W 8732   2.271   2.292   9.458  0.0295  0.1392 -0.1093
 4533W        W 8733   2.107   0.441   9.521  0.2632 -0.0992 -0.1415
 4534W        W 8734   2.179   5.719   1.104 -0.0244  0.0962  0.0811
 4535W        W 8735   2.721   0.254   9.426  0.0877 -0.2106 -0.0818
 4536W        W 8736   5.090   6.787  12.827 -0.0714 -0.0399 -0.2647
 4537W        W 8737   2.754   2.662   1.695 -0.0999 -0.0698 -0.4043
 4538W        W 8738   0.163   9.097  11.495 -0.2469  0.0179  0.1103
 4539W        W 8739   1.131   6.413  12.622  0.0808 -0.0840  0.0616
 4540W        W 8740   0.750  10.096  12.821  0.2654 -0.1513  0.3166
 4541W        W 8741   5.173   2.191  10.266  0.2719  0.0242  0.0051
 4542W        W 8742   4.205   9.360   3.930 -0.1501  0.0442  0.0926
 4543W        W 8743   7.404   5.876   0.990 -0.2169 -0.1393  0.1343
 4544W        W 8744   8.308   8.662   3.083 -0.0002 -0.0903 -0.2753
 4545W        W 8745   4.442   4.482  12.795 -0.0457 -0.1379  0.2023
 4546W        W 8746   8.542   2.543  11.066  0.0336 -0.0127  0.1072
 4547W        W 8747   9.294   8.857   0.898 -0.0109 -0.1185  0.0629
 4548W        W 8748   7.557   2.247   0.087  0.4245 -0.2332 -0.0642
 4549W        W 8749   6.106   7.618   3.885 -0.1329 -0.0660 -0.0529
 4550W        W 8750   1.020  10.151   4.116 -0.0663  0.1842 -0.0420
 4551W        W 8751   8.280   6.279  11.990 -0.0546  0.0502  0.2606
 4552W        W 8752  10.023   9.120   3.989  0.0628  0.0673  0.2400
 4553W        W 8753   9.389   6.315  11.363  0.1105 -0.1519 -0.0832
 4554W        W 8754   8.837   0.155   9.202  0.0193 -0.3951 -0.0761
 4555W        W 8755   9.137   7.860  12.896 -0.2353 -0.1827 -0.1573
 4556W        W 8756   2.513   9.609  12.158 -0.4832  0.0069 -0.0029
 4557W        W 8757   3.549   6.279  12.584  0.0536 -0.1978 -0.1220
 4558W        W 8758   4.319   8.114   3.716  0.0907 -0.0657  0.0094
 4559W        W 8759   8.526   3.005  11.983 -0.1264 -0.1048 -0.1778
 4560W        W 8760   2.381   6.684   1.280 -0.3599 -0.0987 -0.0315
 4561W        W 8761   3.679   9.189   3.736 -0.0506  0.0991 -0.0150
 4562W        W 8762   7.858   2.013   3.129 -0.0565 -0.0645 -0.1378
 4563W        W 8763   0.917   9.515  11.967 -0.0610 -0.0001 -0.1988
 4564W        W 8764   5.383   4.690   9.340  0.3411 -0.0918  0.1242
 4565W        W 8765   2.978   9.203   2.286  0.0013  0.2569 -0.2929
 4566W        W 8766   4.608   0.110   0.137  0.1599  0.1404 -0.2554
 4567W        W 8767   8.536   4.256   2.768 -0.0156  0.2449  0.0701
 4568W        W 8768  10.418  10.247  12.323 -0.0490 -0.2147 -0.2042
 4569W        W 8769   5.891   9.999  13.364 -0.1013 -0.2697  0.2310
 4570W        W 8770   3.613   7.151  10.065  0.1082  0.0193 -0.0576
 4571W        W 8771   7.592   0.160   2.944 -0.1930  0.0471 -0.1177
 4572W        W 8772   6.957   9.838  12.544  0.3184  0.3912 -0.2932
 4573W        W 8773   0.574   1.559   9.200  0.2808 -0.2861 -0.0167
 4574W        W 8774   6.506   8.883   3.124 -0.1914 -0.2442  0.0299
 4575W        W 8775   9.972   2.560  12.307  0.0239 -0.6136  0.0363
 4576W        W 8776   7.382   4.424  10.581 -0.1530  0.0283  0.1116
 4577W        W 8777   7.809   6.791   1.367  0.1141  0.2138  0.1739
 4578W        W 8778   0.342   9.036   1.472 -0.0007  0.3005 -0.1921
 4579W        W 8779   4.002   9.255   2.906 -0.2723  0.0319 -0.1407
 4580W        W 8780   1.201   3.762   3.632  0.1587  0.2127  0.0261
 4581W        W 8781   7.074   6.628  11.879 -0.0268 -0.5217  0.0249
 4582W        W 8782   6.794   1.864  12.763  0.0683  0.2026 -0.1606
 4583W        W 8783   1.207   8.691  10.843  0.0490 -0.2918 -0.0739
 4584W        W 8784   6.167   9.835   4.421 -0.0056  0.0632 -0.0684
 4585W        W 8785  10.446   1.491  12.861  0.0267  0.1488  0.2304
 4586W        W 8786   1.594   4.054   2.815 -0.1244 -0.1615 -0.2064
 4587W        W 8787   5.075   1.297   3.512 -0.0404 -0.1604  0.0960
 4588W        W 8788   9.846   2.504   0.418 -0.0008  0.0885  0.2263
 4589W        W 8789   7.932   2.363   4.879  0.3606 -0.0084 -0.0948
 4590W        W 8790   5.054   7.828   4.364  0.1042 -0.0934  0.0218
 4591W        W 8791   4.587   3.919  11.559 -0.1915 -0.2461 -0.1429
 4592W        W 8792   4.605   1.044  12.631  0.1427  0.3360 -0.0995
 4593W        W 8793   9.978   4.057  11.983 -0.2433  0.0493  0.0186
 4594W        W 8794   4.341   9.698  13.180  0.0499  0.0106 -0.0938
 4595W        W 8795   4.768   5.262  10.165  0.0307 -0.1044  0.2399
 4596W        W 8796   5.392   3.990   0.130 -0.3260 -0.0407 -0.4122
 4597W        W 8797   3.015   2.030  12.620  0.0706  0.0905 -0.1501
 4598W        W 8798   1.814   6.473  13.187  0.0036 -0.1014 -0.1699
 4599W        W 8799   7.971   6.130   4.201  0.0403 -0.0339  0.3257
 4600W        W 8800   8.740   0.368   8.709 -0.0543 -0.0659 -0.0285
 4601W        W 8801   7.421   5.358   3.931  0.0462  0.1376 -0.1588
 4602W        W 8802   2.136   2.914  13.414  0.0589 -0.2993  0.0441
 4603W        W 8803   9.707   9.150   2.493 -0.1784  0.0309  0.0373
 4604W        W 8804   7.994   7.608  11.940 -0.0780 -0.1121 -0.0096
 4605W        W 8805   6.754   7.024   2.884 -0.1546 -0.1057  0.1061
 4606W        W 8806   5.036   1.214  12.421  0.0777 -0.3680 -0.5511
 4607W        W 8807   0.191  10.180  11.003  0.1009 -0.2516  0.3480
 4608W        W 8808   8.256   9.494   9.226  0.1934 -0.0968 -0.0984
 4609W        W 8809   5.251   3.551  12.167 -0.0595  0.0830 -0.0984
 4610W        W 8810   8.932   2.823   0.358 -0.2249  0.1707 -0.0083
 4611W        W 8811   7.431   3.662  10.805 -0.0570  0.0673 -0.0199
 4612W        W 8812   8.494   4.681   3.329  0.0829 -0.0890  0.0516
 4613W        W 8813   6.560   9.007  11.892 -0.0236 -0.3059  0.2878
 4614W        W 8814   2.020   5.512   2.840 -0.3948 -0.1655  0.3101
 4615W        W 8815  10.000   0.883  10.471  0.0063  0.1877  0.0201
 4616W        W 8816   5.623   4.820  11.874 -0.3552  0.0731 -0.0246
 4617W        W 8817   9.599   4.558   2.774 -0.0191 -0.0106 -0.0597
 4618W        W 8818   0.500   1.790   8.671  0.1153  0.0006  0.2012
 4619W        W 8819   3.658  10.027   2.833  0.0927 -0.0925 -0.0055
 4620W        W 8820   2.229   1.238  11.314  0.1494  0.0319 -0.3958
 4621W        W 8821   9.540   2.719   8.823  0.0421 -0.0882  0.2876
 4622W        W 8822   6.058   9.445   4.084  0.1314  0.0227 -0.0106
 4623W        W 8823   3.906   2.680   3.954 -0.2380 -0.0106  0.0718
 4624W        W 8824   8.549   8.429  13.475  0.1686  0.2068 -0.2538
 4625W        W 8825   8.911   7.429  11.564 -0.2085 -0.0678  0.1723
 4626W        W 8826   7.874   1.284  12.578 -0.0085  0.0273 -0.0130
 4627W        W 8827   8.973   3.536   0.056 -0.2038  0.2219  0.2193
 4628W        W 8828   0.047   2.278   2.989  0.0902 -0.1443  0.4079
 4629W        W 8829   1.371   6.169   2.261 -0.1108  0.1910 -0.1040
 4630W        W 8830   3.525   2.812   9.139 -0.2683 -0.3202  0.0459
 4631W        W 8831   3.348   4.320  10.532 -0.1001 -0.0810  0.0441
 4632W        W 8832   9.901   2.261   5.333 -0.1407 -0.0485  0.1903
 4633W        W 8833   1.244   1.142   1.644  0.2206  0.0186  0.3580
 4634W        W 8834   8.171   6.780   0.189 -0.2082  0.4165 -0.0187
 4635W        W 8835   7.415   2.911   9.755  0.1930 -0.0715 -0.1648
 4636W        W 8836   1.813   7.778  12.465 -0.3723 -0.0184 -0.1520
 4637W        W 8837   9.815   2.480  11.793  0.1546 -0.0602  0.0588
 4638W        W 8838   7.293   3.432   0.690 -0.4506 -0.1591 -0.2444
 4639W        W 8839   9.734   3.854   2.330  0.2903 -0.2224 -0.3019
 4640W        W 8840   3.345   4.828   3.931 -0.0045 -0.1193 -0.1035
 4641W        W 8841   2.450   3.718  12.905  0.2026  0.4032 -0.0951
 4642W        W 8842   7.638   7.474   5.018 -0.2121  0.0087 -0.0990
 4643W        W 8843   1.608   1.710   3.480  0.0734  0.1523 -0.0155
 4644W        W 8844   5.377   6.963   3.549 -0.0884 -0.1506  0.0261
 4645W        W 8845   3.528   4.562  12.541 -0.4763 -0.0997  0.3696
 4646W        W 8846   6.215   6.430   0.410 -0.2104  0.0384  0.0720
 4647W        W 8847   5.852   8.189   3.303  0.1497 -0.2263 -0.0374
 4648W        W 8848   7.949   1.932  13.416 -0.0372  0.2940 -0.1131
 4649W        W 8849   5.790   4.464  10.921 -0.1142 -0.3026 -0.2407
 4650W        W 8850   7.216   4.390   4.532 -0.3941  0.0241  0.0355
 4651W        W 8851   9.283   5.721  11.494 -0.1262 -0.3150 -0.0779
 4652W        W 8852   9.861   8.337   9.625  0.0980 -0.0673 -0.0193
 4653W        W 8853   5.547   7.135   4.631  0.1778 -0.1915 -0.0052
 4654W        W 8854   9.605   3.787   1.835  0.0364  0.0509  0.0296
 4655W        W 8855   2.104   1.173  11.941 -0.0887  0.1938  0.0653
 4656W        W 8856   3.496   7.618   3.192 -0.0294  0.0619 -0.2812
 4657W        W 8857   4.992   8.971   0.854  0.0865 -0.1342  0.0458
 4658W        W 8858   5.051   7.024  10.558  0.4182 -0.0578 -0.3931
 4659W        W 8859   6.532   7.463   3.130  0.0001  0.2693 -0.0066
 4660W        W 8860   1.298   5.817   1.110 -0.0111  0.1302  0.0186
 4661W        W 8861   7.604   4.538   3.308 -0.1854 -0.1196  0.0337
 4662W        W 8862   1.720   0.856   9.453  0.0657 -0.2907 -0.0354
 4663W        W 8863   8.157   6.249   9.853 -0.0652  0.0326 -0.0809
 4664W        W 8864   5.346   0.886   2.956  0.0984 -0.2087  0.1322
 4665W        W 8865   4.775   4.675   0.857 -0.1501  0.4627 -0.0034
 4666W        W 8866   0.029   0.967   3.760  0.2195 -0.3715 -0.1662
 4667W        W 8867   5.801   2.326   2.101 -0.0221  0.1267  0.0639
 4668W        W 8868   2.492   9.838   1.142 -0.0312 -0.0203 -0.1096
 4669W        W 8869  10.370   2.918   0.842 -0.0069  0.0933 -0.2016
 4670W        W 8870   8.248   7.882   2.928 -0.2471 -0.0825 -0.1357
 4671W        W 8871  10.194   9.695   4.667 -0.0398  0.1964 -0.0023
 4672W        W 8872   5.574   9.702   0.502 -0.0674 -0.3703  0.1558
 4673W        W 8873   9.568   9.303   2.046  0.1197 -0.4232 -0.3103
 4674W        W 8874   6.054   5.713  10.902  0.0504  0.2197 -0.2063
 4675W        W 8875   6.356   6.048  13.379 -0.1853  0.1045  0.1144
 4676W        W 8876   3.911  10.428   4.469  0.0278 -0.1976 -0.1262
 4677W        W 8877  10.138   6.513   1.668 -0.1086  0.1219  0.0472
 4678W        W 8878   4.764   8.528  12.731 -0.2607 -0.1308  0.1419
 4679W        W 8879   2.114   0.959   4.938 -0.4125  0.0501 -0.0067
 4680W        W 8880   0.765   8.190  11.688  0.0396  0.2782  0.0662
 4681W        W 8881   8.964   8.761   1.264 -0.0973  0.5738  0.0803
 4682W        W 8882   0.063   4.245   1.127 -0.1458  0.2281 -0.3841
 4683W        W 8883   8.221   6.643   3.962  0.0517 -0.0829 -0.0692
 4684W        W 8884   5.909   8.610   2.982 -0.0207 -0.1602 -0.0716
 4685W        W 8885   0.038   4.248   0.085 -0.2556 -0.1442 -0.1193
 4686W        W 8886   2.725   5.180   1.854  0.1715  0.0628 -0.1237
 4687W        W 8887   0.148   3.678   9.045 -0.0392  0.0524  0.0227
 4688W        W 8888   8.129  10.262  13.392 -0.2323 -0.0301 -0.2093
 4689W        W 8889   9.362   3.696  12.741  0.1284 -0.0147  0.2678
 4690W        W 8890   5.556   4.022  12.295 -0.1168  0.1907  0.0142
 4691W        W 8891   0.494   5.408  12.992  0.0611 -0.0607 -0.0680
 4692W        W 8892   0.322   3.481  12.828  0.2960  0.2272 -0.0639
 4693W        W 8893   3.370  10.345   9.543 -0.3535  0.1005  0.2157
 4694W        W 8894   6.114   5.599  12.001 -0.3687 -0.3502  0.0644
 4695W        W 8895   4.415   2.078   4.493  0.1080  0.1696 -0.1104
 4696W        W 8896   6.259   4.272   1.436 -0.0411 -0.0297  0.1125
 4697W        W 8897   2.296   4.997   0.447  0.0985 -0.0688 -0.1263
 4698W        W 8898   7.404   1.042  11.110 -0.0446 -0.1871  0.2827
 4699W        W 8899   7.644  10.127   2.733 -0.0458  0.2196 -0.0763
 4700W        W 8900   8.937   6.105  11.481  0.3813  0.1663 -0.2212
 4701W        W 8901   7.518   0.490   9.666 -0.1113  0.3136 -0.1182
 4702W        W 8902  10.163   1.796   2.779  0.1939  0.0629 -0.2720
 4703W        W 8903   3.606   6.505  13.013 -0.5163 -0.1410 -0.1088
 4704W        W 8904   3.820   3.934   0.756 -0.0827  0.0639  0.1393
 4705W        W 8905   6.350   1.890  12.583  0.1420 -0.1392  0.0810
 4706W        W 8906   7.378   2.635  11.062  0.0744 -0.0316  0.1748
 4707W        W 8907   9.745   8.381  12.765  0.0495  0.0116  0.1841
 4708W        W 8908   7.574   8.849   9.184  0.3254 -0.0034 -0.0237
 4709W        W 8909   9.918   1.321   1.030 -0.0989 -0.0233 -0.2912
 4710W        W 8910   8.241   5.422   9.918  0.2413 -0.3451 -0.2562
 4711W        W 8911   7.935   2.061  12.703 -0.2215 -0.0573 -0.0850
 4712W        W 8912   2.165   9.948  12.025 -0.0748 -0.0980 -0.1589
 4713W        W 8913   9.366   8.574   4.350 -0.1889 -0.0060 -0.2500
 4714W        W 8914   3.335   3.830  13.094 -0.1119  0.1728  0.1631
 4715W        W 8915   2.669   7.630   0.253  0.2912  0.1019 -0.3679
 4716W        W 8916   0.190   2.158  11.429 -0.2324 -0.1779  0.0135
 4717W        W 8917   9.495   1.273   0.755 -0.2563 -0.1888  0.0125
 4718W        W 8918   5.312   7.183  11.069  0.1912  0.1246 -0.3524
 4719W        W 8919   0.369  10.435   9.382  0.0076  0.2248 -0.0931
 4720W        W 8920   4.835   9.704  11.637  0.3464 -0.2414  0.1064
 4721W        W 8921   2.294   3.049  10.456 -0.0393  0.1639 -0.0407
 4722W        W 8922   0.780   5.776  13.299  0.1222  0.0957 -0.0095
 4723W        W 8923   6.759   8.644  10.633  0.2587  0.0692  0.1260
 4724W        W 8924   7.014   2.747   2.243  0.2256 -0.0690  0.0314
 4725W        W 8925   5.817   3.191  11.597  0.0573  0.2489  0.1261
 4726W        W 8926   4.228   8.897   9.986  0.4126  0.1305 -0.0882
 4727W        W 8927   5.216   3.031   0.013  0.0082 -0.1690 -0.1521
 4728W        W 8928   9.112   5.402  13.015 -0.2333 -0.1844  0.0506
 4729W        W 8929   2.728   9.911   3.028 -0.0237 -0.3503  0.0781
 4730W        W 8930   7.761   8.299   9.892  0.1095 -0.0460  0.1823
 4731W        W 8931   0.643   8.333   1.795  0.0052 -0.0626 -0.2552
 4732W        W 8932   7.295   5.975   1.833  0.1235  0.1078  0.1561
 4733W        W 8933   5.895   9.539  12.427 -0.0441 -0.2317 -0.1346
 4734W        W 8934   0.115   6.588   2.815 -0.2364 -0.0905  0.1081
 4735W        W 8935   8.213   8.884   2.083 -0.3724 -0.1080 -0.0353
 4736W        W 8936   2.852   0.648  12.578  0.0634 -0.3250 -0.1093
 4737W        W 8937   7.021   8.100   0.291  0.2692 -0.0312  0.1870
 4738W        W 8938   4.636   1.376  13.111 -0.2305 -0.3288 -0.0102
 4739W        W 8939   9.891  10.376  11.341  0.1027 -0.0709  0.0563
 4740W        W 8940   9.342   2.925   1.541  0.1671  0.0666  0.1065
 4741W        W 8941   1.579   4.518   0.097  0.1915 -0.1360 -0.0563
 4742W        W 8942   5.956   2.907   3.332 -0.1007  0.0015  0.1865
 4743W        W 8943   3.830   8.736   5.013 -0.0563  0.2847 -0.1039
 4744W        W 8944   3.492   5.838   2.686 -0.4173  0.0498 -0.1881
 4745W        W 8945   8.260   2.181   2.385  0.2355  0.0601  0.0403
 4746W        W 8946   1.282   0.609   2.504 -0.0305 -0.0419 -0.1969
 4747W        W 8947   2.272   0.633   0.624  0.1318 -0.3331  0.1667
 4748W        W 8948  10.410   3.538  12.493  0.0421 -0.0612 -0.3243
 4749W        W 8949   5.439   0.897   8.606  0.0485  0.6298 -0.0370
 4750W        W 8950   8.042   5.763   3.804  0.2693  0.0005 -0.0412
 4751W        W 8951   7.874   0.860   2.849  0.1518 -0.2066 -0.1105
 4752W        W 8952   0.869   5.096  11.517 -0.1408 -0.0771 -0.2519
 4753W        W 8953   7.538   2.370  12.785 -0.3183 -0.3610 -0.0779
 4754W        W 8954   7.493   4.812   4.536  0.0495  0.1129 -0.0833
 4755W        W 8955   4.347   6.501  11.031 -0.4055  0.2688  0.2413
 4756W        W 8956   7.835   6.752   3.653 -0.0199  0.4361  0.0916
 4757W        W 8957   1.195   3.765   2.901  0.1798  0.2294  0.0191
 4758W        W 8958   3.540   3.705  12.651 -0.2043  0.0011  0.0186
 4759W        W 8959   8.755   5.334   9.819  0.3845 -0.2220  0.1672
 4760W        W 8960   7.358   7.098  11.706  0.1678  0.6420  0.1763
 4761W        W 8961   3.561   6.680  10.536 -0.2327  0.0327 -0.1275
 4762W        W 8962   9.977   5.159   2.786 -0.2451  0.3606 -0.1152
 4763W        W 8963   2.449   9.979   2.053  0.0054 -0.1494 -0.1861
 4764W        W 8964   1.398   6.965   0.113  0.2325  0.0374  0.1839
 4765W        W 8965   1.677   4.716  12.468  0.1841  0.0553 -0.1506
 4766W        W 8966   4.397   9.718   0.195  0.2080 -0.1183 -0.0183
 4767W        W 8967   4.723   5.420   2.024 -0.1766 -0.1901  0.0343
 4768W        W 8968   9.783   7.119  12.091 -0.1176 -0.0277  0.1784
 4769W        W 8969   7.453   3.031   4.233  0.3282  0.0665  0.2001
 4770W        W 8970   3.542   2.187  10.137  0.1624  0.1095  0.4195
 4771W        W 8971  10.408   9.211   9.466  0.0114  0.2096 -0.0821
 4772W        W 8972   4.862   4.454  10.541  0.0483  0.0147  0.0607
 4773W        W 8973   9.874   6.388   0.344 -0.1615  0.2769 -0.0368
 4774W        W 8974   3.954   4.715   9.553 -0.2885  0.0856 -0.2560
 4775W        W 8975   4.505   9.029  13.065 -0.3037  0.0451 -0.1130
 4776W        W 8976   5.800   2.070   1.621  0.0102 -0.0354 -0.1785
 4777W        W 8977   8.109   5.925  12.500  0.1137 -0.1913 -0.0277
 4778W        W 8978   1.084   0.044  10.293  0.0030 -0.3303  0.5105
 4779W        W 8979   0.459   5.400   2.615  0.0582 -0.5768  0.1911
 4780W        W 8980   2.227   5.133   1.831  0.1537 -0.0129  0.0778
 4781W        W 8981   4.676   2.866   4.579  0.1911 -0.0871 -0.0888
 4782W        W 8982   7.322   4.912   0.998 -0.0181 -0.0570 -0.1548
 4783W        W 8983   2.376   0.364  11.909  0.0987 -0.1596  0.0160
 4784W        W 8984  10.186   2.843  11.022 -0.0334  0.3407 -0.3954
 4785W        W 8985  10.033   8.504   1.745  0.0540 -0.2137  0.0113
 4786W        W 8986   8.396   3.580  13.478 -0.3130 -0.0489  0.0406
 4787W        W 8987   5.351   2.569   2.284 -0.2294 -0.1769  0.0229
 4788W        W 8988   8.955   2.747  11.933 -0.1688 -0.2823 -0.2300
 4789W        W 8989   8.390   2.266  10.575  0.1337  0.1232 -0.1855
 4790W        W 8990   4.606   3.699   0.704  0.4337  0.0306  0.1675
 4791W        W 8991   8.426   8.096   9.487 -0.0122  0.0583  0.0549
 4792W        W 8992   3.666   8.541   2.449  0.1699 -0.3828 -0.0799
 4793W        W 8993   4.228   2.298  11.678 -0.3341 -0.1544 -0.0348
 4794W        W 8994   4.395   1.132   2.410  0.1738  0.2392 -0.0196
 4795W        W 8995   2.943   9.640  10.608 -0.1333  0.3213  0.0148
 4796W        W 8996   9.724   2.341   9.296 -0.0066  0.0441 -0.0167
 4797W        W 8997   1.991   2.887  10.908 -0.0058  0.2210 -0.0883
 4798W        W 8998   4.218   7.007  10.857 -0.2438  0.0519  0.0744
 4799W        W 8999   3.056   8.145  13.245  0.0625  0.2841  0.0649
 4800W        W 9000   3.426   0.518  13.328  0.1623 -0.0511 -0.2235
 4801W        W 9001   2.451   7.705   9.397  0.3649  0.1110 -0.2786
 4802W        W 9002  10.408   8.015  10.728  0.0432 -0.1189  0.0865
 4803W        W 9003   9.995   3.004   1.814 -0.1594  0.1922  0.0210
 4804W        W 9004   7.119   6.740   9.070 -0.1550 -0.1546  0.2058
 4805W        W 9005  10.428   2.798   4.620 -0.0641  0.1577 -0.0050
 4806W        W 9006   8.269   8.213   9.007  0.0269 -0.0440 -0.0940
 4807W        W 9007   6.169   4.736   3.159  0.2093  0.1076  0.3796
 4808W        W 9008  10.386   0.810   1.932  0.1234  0.0389 -0.1883
 4809W        W 9009   6.934   1.940   8.953 -0.1606 -0.2470 -0.0754
 4810W        W 9010   2.946  10.111   4.566 -0.0418  0.0624 -0.4124
 4811W        W 9011  10.098   4.541   2.673  0.0565 -0.0809  0.2097
 4812W        W 9012   2.520   6.205  11.392  0.1431 -0.0291 -0.0533
 4813W        W 9013   3.946   3.490   2.112 -0.2539  0.1208 -0.1543
 4814W        W 9014   4.421   4.855   9.945 -0.1589  0.0375 -0.0119
 4815W        W 9015   2.197   2.444  11.079  0.2328  0.0460 -0.0128
 4816W        W 9016   7.153   9.794  12.088  0.4709 -0.0544 -0.1421
 4817W        W 9017   9.298   0.331  12.981  0.0329  0.1349 -0.0918
 4818W        W 9018   8.685   0.093   0.862 -0.0508 -0.1873 -0.0034
 4819W        W 9019   4.762   2.785   4.040  0.0170  0.1184 -0.0391
 4820W        W 9020   5.729   8.043  12.549 -0.0943 -0.3282 -0.0086
 4821W        W 9021   5.288   5.734   1.337  0.0785  0.0154 -0.0194
 4822W        W 9022   7.854   2.896   1.747  0.1508 -0.1227 -0.1221
 4823W        W 9023   5.931   1.208   1.845  0.0830  0.0138 -0.1821
 4824W        W 9024  10.138   9.485   0.873  0.0254 -0.1189  0.0182
 4825W        W 9025   0.844   9.059  10.654  0.0624  0.4337  0.1721
 4826W        W 9026   9.647   9.133   0.710  0.0773  0.1625  0.0277
 4827W        W 9027   6.698   5.093   4.657  0.0353  0.2380 -0.0184
 4828W        W 9028   5.860   9.474  12.952  0.0302 -0.3595  0.0538
 4829W        W 9029   9.368   7.990  10.790  0.1034 -0.1041  0.0577
 4830W        W 9030   4.211   9.978   4.156 -0.3487 -0.0106  0.1252
 4831W        W 9031   5.209   5.075   0.093  0.1185 -0.1119  0.1634
 4832W        W 9032   1.563   4.699   9.321  0.0033 -0.1387 -0.0933
 4833W        W 9033  10.215   8.728   2.434 -0.1907 -0.1233 -0.1600
 4834W        W 9034   3.488   2.456   3.008 -0.0437 -0.0599 -0.0313
 4835W        W 9035   8.085   6.622   9.474 -0.0725 -0.2047  0.0664
 4836W        W 9036   1.747   4.686   4.379 -0.1617 -0.1634  0.1025
 4837W        W 9037   6.439   3.833   4.571  0.1271 -0.0911 -0.1112
 4838W        W 9038   8.311   8.920  11.598 -0.0332 -0.2934 -0.0087
 4839W        W 9039   2.071   7.893  12.992 -0.3096  0.0278 -0.2360
 4840W        W 9040   0.034  10.191   2.079 -0.1131 -0.1712  0.2352
 4841W        W 9041   0.514   0.229   0.236  0.3668  0.1220 -0.0089
 4842W        W 9042   1.765   0.608   1.193  0.0553  0.0283  0.1804
 4843W        W 9043   8.619   0.684  12.068  0.0532  0.1112 -0.3455
 4844W        W 9044   7.112   6.928   5.210 -0.0886  0.0232  0.2884
 4845W        W 9045   0.257   0.327  10.282  0.0500 -0.4007 -0.1749
 4846W        W 9046   8.150   3.024  13.132  0.0392 -0.2022  0.0810
 4847W        W 9047   8.811   3.801  12.563  0.2189  0.1152  0.1038
 4848W        W 9048   4.868   0.724   2.311  0.0069 -0.1068 -0.0651
 4849W        W 9049   5.356   0.036  12.944 -0.3331  0.0661  0.1783
 4850W        W 9050   9.621   5.004   3.113 -0.0564  0.1353  0.3501
 4851W        W 9051   6.533   5.108   9.063 -0.0205 -0.3162  0.4094
 4852W        W 9052   5.557   0.667   1.038  0.0365  0.1730 -0.0046
 4853W        W 9053   8.309   4.447  12.980  0.1608  0.2713 -0.0266
 4854W        W 9054   1.486   1.623  12.502  0.1402 -0.1403 -0.4557
 4855W        W 9055   3.908   6.957   0.471 -0.1860  0.0795  0.1784
 4856W        W 9056   1.703   0.189   0.486 -0.1030  0.1689 -0.1601
 4857W        W 9057   4.421   7.234  12.505  0.1708  0.5076  0.2559
 4858W        W 9058   7.481   6.867   9.941 -0.1519  0.1999 -0.1523
 4859W        W 9059   1.610   5.125   3.072  0.2103  0.0445  0.2512
 4860W        W 9060   7.363   7.847  13.436 -0.0871 -0.0428  0.0621
 4861W        W 9061   7.093   6.387  13.410  0.0011 -0.1623  0.1719
 4862W        W 9062   8.150   3.569   5.101  0.1122 -0.1653  0.1289
 4863W        W 9063  10.392   6.190  12.835 -0.0901  0.0282  0.1021
 4864W        W 9064   1.457   4.513   9.827  0.1973  0.0916  0.0196
 4865W        W 9065   5.892   1.773  12.529 -0.2358 -0.1212  0.2582
 4866W        W 9066   1.437   3.497  13.160  0.0302  0.0520 -0.2056
 4867W        W 9067   9.286   8.586   9.306 -0.0959 -0.1627 -0.0802
 4868W        W 9068   9.703   2.835  12.643 -0.2043 -0.0774  0.0660
 4869W        W 9069   9.885  10.090  10.533 -0.0500 -0.2254 -0.1267
 4870W        W 9070   8.635   6.895  10.288  0.1247 -0.1468 -0.1473
 4871W        W 9071   6.343   6.914   4.042 -0.0677 -0.2142 -0.0007
 4872W        W 9072   8.596   8.461   4.041 -0.4076 -0.4811 -0.3500
 4873W        W 9073   4.543   0.905  11.077 -0.3710  0.0395  0.2483
 4874W        W 9074   3.176   4.102   4.424 -0.1930  0.2785 -0.2752
 4875W        W 9075   1.186  10.024   9.705 -0.1309 -0.2627 -0.2669
 4876W        W 9076   1.380   5.608   1.583  0.0024  0.1738 -0.1327
 4877W        W 9077   8.461  10.224   0.272 -0.0349 -0.2308  0.1181
 4878W        W 9078   5.514   6.213   3.685 -0.0273  0.2395  0.1280
 4879W        W 9079   3.416   4.293   9.524  0.3127  0.2338 -0.0876
 4880W        W 9080   1.431   2.352   1.707  0.3669  0.0458  0.0498
 4881W        W 9081   2.567   1.490  12.069  0.0483  0.0730  0.2485
 4882W        W 9082   8.820   3.178   0.958  0.1522 -0.4324  0.1345
 4883W        W 9083   2.096   4.380  10.953  0.2446  0.1765 -0.0113
 4884W        W 9084   0.431   6.486  10.216  0.0750  0.1311  0.0080
 4885W        W 9085   2.470   8.656   1.674  0.0541  0.1367 -0.2843
 4886W        W 9086   0.069   7.701  11.225 -0.2269 -0.5435  0.0429
 4887W        W 9087   8.233   5.633  11.064  0.0084  0.0463  0.1246
 4888W        W 9088   7.579   0.102   4.748 -0.1048  0.0676 -0.2038
 4889W        W 9089  10.377   0.398   0.875 -0.2298 -0.0028 -0.1089
 4890W        W 9090   2.821   3.825   2.317 -0.1241 -0.1508  0.2073
 4891W        W 9091   3.292   6.616   2.463 -0.0848 -0.2570 -0.0440
 4892W        W 9092   7.236   3.386   2.845 -0.3344  0.2071 -0.1788
 4893W        W 9093   6.418   0.793   3.260 -0.0783 -0.0795  0.0522
 4894W        W 9094   1.143   4.144  12.170 -0.2915  0.2460 -0.2121
 4895W        W 9095   8.846   1.260   4.589 -0.2255 -0.2092  0.1339
 4896W        W 9096  10.140   2.550   3.485 -0.2364 -0.0144  0.0593
 4897W        W 9097   4.260   9.596  11.968  0.1180  0.4675  0.1034
 4898W        W 9098   1.404   3.003  12.216 -0.0504 -0.0010 -0.1783
 4899W        W 9099   9.440   2.141   9.693  0.2831  0.0179 -0.2261
 4900W        W 9100   9.185   3.634   9.627 -0.0665  0.1657 -0.1572
 4901W        W 9101   7.663   5.722  13.021 -0.1111 -0.3061 -0.1768
 4902W        W 9102   4.223   8.603   3.588  0.0353  0.0375  0.1405
 4903W        W 9103   9.632   3.742   9.458  0.0650 -0.2068  0.2434
 4904W        W 9104   7.265   8.221   9.803 -0.2050 -0.0426  0.1397
 4905W        W 9105   2.891   4.293   0.385  0.2792 -0.1398  0.2219
 4906W        W 9106   7.789   4.302   4.603  0.1675 -0.0990  0.0170
 4907W        W 9107   9.683   3.921   3.227 -0.0020  0.0230  0.1570
 4908W        W 9108   3.710   1.158   3.977 -0.0539 -0.0013  0.1741
 4909W        W 9109   5.575   4.846  11.348  0.0033 -0.1787 -0.2380
 4910W        W 9110   9.825   0.021   5.191  0.2582 -0.0539 -0.0701
 4911W        W 9111   8.230   7.304  10.572  0.4405 -0.2880  0.0613
 4912W        W 9112   0.944   1.404   2.802 -0.3505  0.0872  0.2591
 4913W        W 9113   7.599   9.805   0.226  0.2525  0.0090 -0.1139
 4914W        W 9114   7.664   9.987   3.328  0.0492 -0.0626 -0.1462
 4915W        W 9115   8.181   5.666   2.673  0.0507  0.2081 -0.3200
 4916W        W 9116   9.991   4.945  13.360  0.1747  0.2877 -0.0035
 4917W        W 9117   9.726   4.554   0.125  0.0516 -0.3796  0.2160
 4918W        W 9118   4.891   0.225   4.279  0.2093 -0.0232 -0.2797
 4919W        W 9119   4.512   9.198  10.170  0.3240 -0.0112 -0.2512
 4920W        W 9120   5.012  10.363   9.500 -0.1567 -0.0915 -0.1644
 4921W        W 9121   0.973   8.387   0.075  0.1840  0.0492 -0.0994
 4922W        W 9122   6.659   5.190  10.486 -0.0005  0.2779  0.1476
 4923W        W 9123   1.453   3.263   0.668  0.3380  0.4210 -0.0232
 4924W        W 9124   7.907   8.805   9.802 -0.0409  0.2665  0.3181
 4925W        W 9125   8.711   4.509   0.492  0.0065 -0.0353  0.0507
 4926W        W 9126   1.043   9.659   3.866 -0.4830  0.1387 -0.0575
 4927W        W 9127   3.981   9.705  11.471 -0.0015 -0.2135 -0.0436
 4928W        W 9128   2.856   6.706   3.981  0.0980 -0.0185  0.1997
 4929W        W 9129   2.753   1.948  12.210  0.2245  0.0563 -0.0896
 4930W        W 9130   8.934   0.026  11.043  0.0816 -0.1572 -0.3486
 4931W        W 9131   5.898   0.388   2.143  0.2216 -0.1812 -0.0618
 4932W        W 9132   7.658   4.537   4.105 -0.3110  0.3404  0.0443
 4933W        W 9133   8.382   6.488  12.549 -0.3119  0.0547  0.0853
 4934W        W 9134   1.701   1.802  11.906  0.1477 -0.1491  0.0144
 4935W        W 9135   9.201   9.687  11.014  0.1198 -0.1687  0.0007
 4936W        W 9136   0.644   7.052  11.410  0.1025 -0.1000 -0.0843
 4937W        W 9137   6.660   3.058  12.169  0.0745 -0.0537 -0.2698
 4938W        W 9138  10.145   6.198  12.318 -0.4413 -0.1602 -0.2030
 4939W        W 9139   2.415   6.783   0.274  0.0902  0.1934 -0.0257
 4940W        W 9140   9.939   2.395  10.960 -0.0091 -0.0927 -0.2270
 4941W        W 9141   6.290   1.385  12.235 -0.2680 -0.0627 -0.3087
 4942W        W 9142   4.157   3.293  11.055  0.0238  0.0961 -0.0921
 4943W        W 9143   4.209   5.432   9.204 -0.0714  0.0684 -0.1548
 4944W        W 9144   9.479   3.247  12.392 -0.0299  0.2202 -0.2227
 4945W        W 9145   7.179   8.704   4.715  0.0435 -0.2202  0.2327
 4946W        W 9146   7.190  10.064   9.858  0.1614  0.4268  0.1523
 4947W        W 9147   6.366   4.137   1.934  0.2482  0.0749  0.0877
 4948W        W 9148   2.873   8.268   2.448  0.1440 -0.1233 -0.2045
 4949W        W 9149   0.131  10.315  11.836  0.1961 -0.0990  0.0637
 4950W        W 9150   7.448   3.499   4.460 -0.1874 -0.1615  0.2046
 4951W        W 9151   8.487   3.198   1.310 -0.5351 -0.3287 -0.3559
 4952W        W 9152   2.774   7.181  12.923  0.3835 -0.0453 -0.1804
 4953W        W 9153   9.345   1.803   5.385  0.0679  0.1248  0.0367
 4954W        W 9154   4.565   2.028   1.374  0.0594 -0.1378  0.0950
 4955W        W 9155   5.509   4.747   1.591 -0.0825 -0.1463  0.1417
 4956W        W 9156  10.160   0.365  11.550 -0.1988  0.3275  0.1456
 4957W        W 9157   7.664   0.370   5.161  0.1088  0.2650 -0.0046
 4958W        W 9158   5.657   1.595   9.734  0.1491 -0.0089  0.0201
 4959W        W 9159   3.782   0.689  10.570  0.0914 -0.2346 -0.0179
 4960W        W 9160   9.658   0.554  12.616  0.0667 -0.1272 -0.1335
 4961W        W 9161   9.211   4.185  10.869 -0.3128 -0.0697 -0.0320
 4962W        W 9162   5.847   3.916   9.722 -0.0065 -0.0009  0.0804
 4963W        W 9163   1.356   3.722   9.779 -0.2228 -0.1534 -0.0849
 4964W        W 9164   1.874   3.825   0.270  0.1801 -0.0131 -0.3093
 4965W        W 9165   5.313   1.706  13.259  0.0341  0.0546 -0.3811
 4966W        W 9166   4.562   8.155   9.509  0.2873  0.2515 -0.0755
 4967W        W 9167   9.986   7.879   3.816  0.1405 -0.2531  0.1541
 4968W        W 9168   5.990   8.150   5.390 -0.0236 -0.2025 -0.0262
 4969W        W 9169   6.737   6.318   8.337 -0.3757 -0.4115  0.1525
 4970W        W 9170   3.668   8.946  12.690  0.1551  0.1481 -0.1152
 4971W        W 9171   8.462   9.468   1.480 -0.2784 -0.1005  0.4586
 4972W        W 9172   0.048   2.496  12.703 -0.0271  0.1670 -0.2486
 4973W        W 9173   6.608   3.532  12.499  0.1826  0.3949 -0.2538
 4974W        W 9174   8.493   8.682   0.761 -0.1009 -0.4554  0.1750
 4975W        W 9175   6.034   7.221   0.464 -0.1376 -0.1533  0.3566
 4976W        W 9176   7.132   9.464   2.535  0.0226  0.1444  0.3829
 4977W        W 9177   6.938   5.213  12.542 -0.0362 -0.1587  0.0195
 4978W        W 9178   2.531   0.867   2.504  0.1685  0.0554 -0.2213
 4979W        W 9179   0.537   5.979   1.777  0.2899  0.2293 -0.0543
 4980W        W 9180   6.846   3.846  13.280  0.4373  0.1098 -0.1568
 4981W        W 9181   8.462   9.221  12.764 -0.3283  0.1840  0.3468
 4982W        W 9182   9.612  10.248   9.593 -0.2373 -0.1641  0.2125
 4983W        W 9183   4.580   0.882  13.188 -0.1908 -0.0081  0.2667
 4984W        W 9184   7.448   4.164  11.047  0.1926  0.1441  0.0244
 4985W        W 9185   3.412   5.011  13.368 -0.1105  0.1439 -0.3202
 4986W        W 9186   7.957   3.637   9.962  0.1658  0.0030 -0.2171
 4987W        W 9187   0.414   7.297  12.149  0.3279 -0.3533  0.2128
 4988W        W 9188   8.215   4.414   4.348 -0.1501  0.0286 -0.3269
 4989W        W 9189   5.188   2.159   4.034  0.0225 -0.3858 -0.2361
 4990W        W 9190   1.478   1.717  10.756 -0.1060 -0.0067 -0.3241
 4991W        W 9191   9.467   7.303   0.614  0.0345  0.2983 -0.1553
 4992W        W 9192   6.634   0.018   4.255  0.3756 -0.0083 -0.0686
 4993W        W 9193   6.432   8.755   9.727 -0.1513  0.1663  0.0928
 4994W        W 9194   0.968   8.955   2.695 -0.0121 -0.1919 -0.3377
 4995W        W 9195   1.071   9.684   2.289 -0.2520 -0.3433 -0.3179
 4996W        W 9196   4.386   4.030  12.610  0.3365  0.2408  0.1475
 4997W        W 9197   7.233   1.850  12.213 -0.0614 -0.0033 -0.0403
 4998W        W 9198   5.356  10.289  12.139  0.0146 -0.0739 -0.1925
 4999W        W 9199   8.023   8.282   4.609 -0.0068 -0.2678 -0.0186
 5000W        W 9200   2.690   1.897   0.452  0.4100  0.1302 -0.1765
 5001W        W 9201   2.529   3.172   3.709  0.0205  0.1175 -0.2369
 5002W        W 9202   1.644   5.408   1.144  0.0065  0.2717 -0.0154
 5003W        W 9203   3.581   8.989   2.823 -0.2506  0.2206  0.1547
 5004W        W 9204   6.309   8.701   3.882  0.0669 -0.0618  0.0289
 5005W        W 9205   9.114   8.916   2.825 -0.2170  0.2302  0.0844
 5006W        W 9206   5.037   1.702   2.027 -0.0043  0.0489  0.0047
 5007W        W 9207   4.299   7.735  10.830 -0.1727 -0.0125  0.2652
 5008W        W 9208   9.599  10.283  12.139 -0.1271  0.0068  0.1859
 5009W        W 9209   9.436   4.991  11.780  0.2708 -0.0556 -0.2629
 5010W        W 9210   1.978   3.400  13.098 -0.3374  0.0720  0.1297
 5011W        W 9211   2.012   2.667   0.777 -0.0743 -0.0377 -0.0502
 5012W        W 9212   6.051   1.652   0.906 -0.1291 -0.2380  0.1756
 5013W        W 9213   9.878   1.014  10.007  0.6371 -0.2440  0.0691
 5014W        W 9214   1.462   1.568   2.874  0.2775  0.0366  0.0998
 5015W        W 9215   1.247   4.114  10.073  0.4700  0.0917  0.2827
 5016W        W 9216   8.191   9.872   2.030  0.0105 -0.2375 -0.1147
 5017W        W 9217   0.724   9.030   1.845 -0.1345 -0.2504  0.2085
 5018W        W 9218   4.621   3.215   3.272  0.1510 -0.0980 -0.2333
 5019W        W 9219   4.503   8.283   8.850 -0.0205 -0.0308  0.3986
 5020W        W 9220   6.316   6.150   2.054 -0.1404  0.1461 -0.0063
 5021W        W 9221   4.829   9.473   4.529 -0.2054  0.1407 -0.0351
 5022W        W 9222   6.837   7.451   4.443 -0.1847  0.2657  0.1627
 5023W        W 9223   5.187   7.966  10.019 -0.2596 -0.1278 -0.2111
 5024W        W 9224   2.849   5.137   2.835  0.0066  0.1805  0.0833
 5025W        W 9225   3.925   1.595   0.600 -0.1378 -0.1358  0.1161
 5026W        W 9226   6.538   0.743  10.523  0.1021  0.0378  0.0307
 5027W        W 9227   1.559   0.708  10.380 -0.1299 -0.0379  0.1605
 5028W        W 9228   4.473   4.961   3.284  0.2513 -0.0775  0.2288
 5029W        W 9229   3.988   4.949   0.749  0.4218  0.1525 -0.0497
 5030W        W 9230   9.892   4.216   3.636 -0.1888  0.0436 -0.0674
 5031W        W 9231   2.977   4.905   2.084  0.0298  0.4978  0.1339
 5032W        W 9232   1.511   0.900   9.913  0.0027 -0.0032 -0.1128
 5033W        W 9233   1.367  10.194  13.137 -0.1697  0.2176 -0.1332
 5034W        W 9234  10.023   4.189   0.915  0.2558  0.2341  0.2965
 5035W        W 9235   2.120   6.479  12.192  0.1067  0.0039  0.0717
 5036W        W 9236   6.479   6.083   0.641 -0.1427  0.4372  0.1526
 5037W        W 9237   0.741   1.247  10.344  0.1130  0.0965 -0.2273
 5038W        W 9238   1.694   4.070   9.795  0.1256 -0.0301 -0.0270
 5039W        W 9239   3.473   9.549  13.155  0.0848 -0.0640  0.0881
 5040W        W 9240   3.818   9.618   2.509  0.1463  0.0720  0.0611
 5041W        W 9241   7.242   8.630   1.455 -0.1237  0.0263  0.1474
 5042W        W 9242   1.001   1.605  10.563  0.0611 -0.3040 -0.0860
 5043W        W 9243   9.997   6.625   2.156 -0.0964 -0.1024  0.1317
 5044W        W 9244   1.671  10.339   9.804  0.2020 -0.0161 -0.0330
 5045W        W 9245   0.409   3.710  10.086  0.0586  0.4820  0.0615
 5046W        W 9246   2.712   1.138   9.354 -0.4244  0.0369  0.1373
 5047W        W 9247   9.757   1.829  10.642  0.2883  0.1697  0.3077
 5048W        W 9248   3.657   5.614   9.355  0.0148  0.2265  0.0321
 5049W        W 9249   7.096  10.326  12.353  0.0154 -0.0011 -0.0580
 5050W        W 9250   6.666   2.178   3.417  0.2727 -0.2025  0.2036
 5051W        W 9251   5.256   2.739   9.618 -0.1090 -0.0227 -0.0680
 5052W        W 9252   8.183   6.158   0.838 -0.1684 -0.0436 -0.1295
 5053W        W 9253   3.805   9.741  11.951  0.2291  0.0258  0.1097
 5054W        W 9254   0.334   2.954  11.842 -0.1063 -0.2869 -0.2218
 5055W        W 9255   0.826   4.004   0.493  0.1516  0.0460  0.0522
 5056W        W 9256   4.981   9.721  10.091 -0.2544 -0.1644 -0.0194
 5057W        W 9257   4.793   1.602   0.365  0.2451  0.0738 -0.1592
 5058W        W 9258   1.947   3.541  11.336  0.0750 -0.0674  0.2235
 5059W        W 9259   4.701   8.549   2.171  0.0648 -0.0924 -0.1800
 5060W        W 9260   7.878   6.565  10.107  0.1934 -0.1990 -0.1220
 5061W        W 9261   5.817   2.380   3.827 -0.1078 -0.0061  0.0874
 5062W        W 9262   8.093   4.511  11.812  0.1541  0.2287  0.1214
 5063W        W 9263   3.258   0.421  11.545  0.0380 -0.2001  0.2006
 5064W        W 9264   9.450   8.922  11.133 -0.1298 -0.2594  0.3166
 5065W        W 9265   4.426   2.991   1.913  0.0274 -0.0249  0.0186
 5066W        W 9266   2.593   2.095   3.173 -0.1252 -0.2918 -0.0689
 5067W        W 9267   0.306   9.896  10.133 -0.0420  0.0190  0.2128
 5068W        W 9268   3.402   5.243   3.083 -0.2435  0.0778  0.2425
 5069W        W 9269   3.158   9.324   0.831  0.6347  0.1100 -0.3657
 5070W        W 9270   3.370   4.479  11.225  0.1935 -0.2533  0.4143
 5071W        W 9271   4.339   5.463  13.114 -0.0943  0.3663 -0.0248
 5072W        W 9272   3.174   2.885   3.703 -0.1722  0.0251 -0.3002
 5073W        W 9273   7.678   2.842  13.122 -0.4726  0.2651 -0.1442
 5074W        W 9274   7.717   8.730   4.600  0.2663 -0.1610  0.2776
 5075W        W 9275   0.668   3.277   3.086  0.0228  0.2367 -0.0112
 5076W        W 9276   4.632   2.447  12.834 -0.0993 -0.1393 -0.3138
 5077W        W 9277   7.671   7.528   8.253 -0.1243  0.0596  0.1775
 5078W        W 9278   1.996   1.493   3.845 -0.0845  0.0448 -0.0719
 5079W        W 9279   7.952   9.619  11.710 -0.0915 -0.3116  0.0089
 5080W        W 9280   0.077   7.683  12.047  0.4383 -0.0975 -0.0217
 5081W        W 9281   6.720   9.689   9.309  0.2847  0.2299 -0.2516
 5082W        W 9282   6.589   1.664   2.622 -0.0714  0.1284 -0.1927
 5083W        W 9283   5.841   1.967   3.367  0.3016 -0.1136 -0.0524
 5084W        W 9284   7.674   0.461  12.860 -0.0810 -0.1632  0.3163
 5085W        W 9285   7.019   6.994   1.373 -0.0561 -0.0226 -0.1773
 5086W        W 9286   6.009   6.820  10.095  0.1112  0.1220  0.4664
 5087W        W 9287   4.891   0.683  10.754 -0.2244 -0.0671  0.0138
 5088W        W 9288   1.603   4.204   4.543 -0.1012 -0.1481  0.2653
 5089W        W 9289   0.485   0.949   2.607  0.1487  0.2206  0.2243
 5090W        W 9290   9.055   1.651  13.139 -0.1022  0.2853  0.2072
 5091W        W 9291   2.088   4.915   3.305 -0.4480  0.1357 -0.1671
 5092W        W 9292   6.379   3.639   1.154 -0.5027 -0.0869  0.3609
 5093W        W 9293   7.288   7.678   4.676  0.2146  0.2225 -0.0202
 5094W        W 9294   5.586   2.891   8.493 -0.0052 -0.0976  0.0135
 5095W        W 9295   8.628   9.218   9.423 -0.3084 -0.2062  0.0371
 5096W        W 9296   5.007   1.236  11.848 -0.0026 -0.0102 -0.0754
 5097W        W 9297   5.891   3.783  11.412 -0.1406 -0.0731 -0.0700
 5098W        W 9298   5.449   2.950   1.936  0.2110 -0.2419 -0.2788
 5099W        W 9299   0.608   5.831  10.805  0.0517  0.2286 -0.2353
 5100W        W 9300   1.059   8.639   1.761  0.1366  0.3724 -0.0633
 5101W        W 9301  10.262  10.125  11.451  0.0351 -0.0447 -0.1880
 5102W        W 9302  10.280   7.464   0.708 -0.2612 -0.4960 -0.2012
 5103W        W 9303   6.624  10.249  12.676  0.4978  0.0820  0.1229
 5104W        W 9304   0.350   0.786   1.087  0.0134  0.4154  0.2964
 5105W        W 9305   4.592   7.216  13.420  0.0029  0.1560  0.0107
 5106W        W 9306   7.852   0.527   1.732  0.0632  0.1192 -0.1082
 5107W        W 9307   8.523   7.185   3.355 -0.0797  0.2271 -0.2031
 5108W        W 9308   1.760   3.246   3.115 -0.4217  0.0833  0.2085
 5109W        W 9309   6.650   2.034  13.249  0.0586  0.0894 -0.0489
 5110W        W 9310   3.020   8.851   9.265 -0.0663  0.0110  0.1219
 5111W        W 9311   0.709   0.533  12.879 -0.2576 -0.2872  0.2087
 5112W        W 9312   3.821   0.109   2.945 -0.1105  0.1550 -0.4515
 5113W        W 9313   4.009   9.694   9.046 -0.2362  0.0592 -0.3036
 5114W        W 9314   1.581   3.705   3.364 -0.0233 -0.0201  0.3025
 5115W        W 9315   2.339   2.538   8.932 -0.2128  0.1512 -0.1554
 5116W        W 9316   4.410   7.272  12.018 -0.0620  0.0124 -0.4845
 5117W        W 9317   7.394   3.904  12.061  0.2132 -0.0857  0.0488
 5118W        W 9318   5.014   7.498  10.270 -0.0566  0.1340 -0.1101
 5119W        W 9319   7.074   1.521  12.568  0.0574 -0.1155  0.2598
 5120W        W 9320   5.880   1.531   3.160 -0.1091  0.2695  0.0398
 5121W        W 9321   3.898   8.494  13.448 -0.0906 -0.0107  0.0560
 5122W        W 9322   0.475   8.199  13.482 -0.3843  0.0331 -0.0144
 5123W        W 9323  10.340   0.471   4.162  0.2936 -0.1601  0.2014
 5124W        W 9324   4.864   2.107   1.790  0.1990 -0.0033  0.4728
 5125W        W 9325   8.513   1.017   4.268  0.2865  0.0976 -0.1179
 5126W        W 9326   7.563   6.194   3.712 -0.2498  0.0395 -0.1460
 5127W        W 9327   7.393   4.681   0.551 -0.2785 -0.1667  0.2590
 5128W        W 9328   3.094   0.244   4.673 -0.3961  0.4187 -0.2371
 5129W        W 9329   6.758   4.750  12.395 -0.0177 -0.1198  0.1713
 5130W        W 9330   7.088   0.967   0.683  0.0359  0.0250  0.0827
 5131W        W 9331   5.216   9.904   1.906  0.0090 -0.0492 -0.3491
 5132W        W 9332  10.309   5.377   3.749 -0.2452 -0.1071 -0.0958
 5133W        W 9333   1.376   5.024   0.765 -0.0363  0.0134 -0.2897
 5134W        W 9334   9.297   5.807   3.097 -0.1007  0.0171 -0.0345
 5135W        W 9335   3.393   8.562   0.655 -0.1019 -0.1067 -0.0448
 5136W        W 9336   4.746   1.713  10.059 -0.1989  0.2256  0.1497
 5137W        W 9337   0.526   0.548  11.325  0.0323 -0.1570  0.2697
 5138W        W 9338   1.436  10.356  10.712 -0.0949  0.2410 -0.0166
 5139W        W 9339   5.901   8.202   0.058 -0.2407 -0.0201 -0.2709
 5140W        W 9340   5.184   1.439   5.362 -0.0863 -0.2813 -0.1185
 5141W        W 9341   8.502   9.915   3.818 -0.4585  0.0344 -0.1957
 5142W        W 9342   8.185   4.036   2.367 -0.4702  0.3183  0.0020
 5143W        W 9343   7.830   2.077   4.460  0.0949 -0.0124 -0.0178
 5144W        W 9344  10.372   2.541   2.590  0.1589 -0.0989  0.4873
 5145W        W 9345   5.553   8.796  10.134  0.2027 -0.0126 -0.2045
 5146W        W 9346   8.478   0.863  12.959 -0.1071 -0.2715 -0.2810
 5147W        W 9347   5.615   0.287  12.165 -0.2124 -0.0522 -0.0208
 5148W        W 9348   2.324   2.703   4.054 -0.0130  0.2383  0.2125
 5149W        W 9349   0.863   9.255   4.237 -0.0613 -0.1331 -0.2718
 5150W        W 9350   1.351  10.244   1.077 -0.3044  0.0223 -0.2765
 5151W        W 9351   8.759   3.816  11.411 -0.1693  0.3643  0.0147
 5152W        W 9352   4.659  10.391   3.484 -0.0081 -0.0948 -0.2736
 5153W        W 9353   8.602  10.166  13.236  0.0434 -0.0997  0.0166
 5154W        W 9354   0.334   0.510  11.790  0.0389  0.1824 -0.0796
 5155W        W 9355   3.035   4.237  12.953 -0.1646  0.3988 -0.2601
 5156W        W 9356   8.643   6.628  12.959  0.1382  0.0208 -0.4905
 5157W        W 9357   0.744   8.472  10.855 -0.2266  0.0110  0.1115
 5158W        W 9358   4.915   4.202  12.972 -0.0887  0.0111 -0.1869
 5159W        W 9359   4.015  10.412  12.364 -0.1527 -0.0230  0.1310
 5160W        W 9360   0.366   4.953   1.707 -0.0659 -0.2627 -0.2457
 5161W        W 9361   4.060  10.335   9.693  0.0527  0.4165  0.1525
 5162W        W 9362   2.131   0.433   3.670  0.4545  0.1545 -0.4321
 5163W        W 9363   7.474   6.311  12.005 -0.0643  0.2724  0.0072
 5164W        W 9364   5.233  10.442   1.736 -0.2421 -0.0022 -0.1238
 5165W        W 9365   3.707   6.864   2.656 -0.1059  0.0053  0.2717
 5166W        W 9366   8.600   4.944   0.226 -0.1073 -0.1962  0.2633
 5167W        W 9367   8.540   3.069  10.181  0.0715  0.0329 -0.0492
 5168W        W 9368   4.245   5.619  12.156  0.2525  0.1519  0.0746
 5169W        W 9369   0.216   1.394  11.545 -0.2797  0.2305 -0.0716
 5170W        W 9370   4.593   3.156   0.810  0.0823  0.2780 -0.0002
 5171W        W 9371   0.746   4.974  12.871 -0.0815 -0.2973 -0.0501
 5172W        W 9372   4.135   2.948   0.921 -0.0596 -0.3397 -0.2888
 5173W        W 9373   3.501   9.470  11.393 -0.2661  0.2175 -0.2038
 5174W        W 9374  10.241   6.722  10.180  0.0956 -0.1070 -0.0272
 5175W        W 9375   3.447   9.892   0.081 -0.0832 -0.1375 -0.2897
 5176W        W 9376   2.582   0.175  13.282 -0.2158 -0.0594  0.1736
 5177W        W 9377   2.414   2.721  11.518 -0.0973  0.2414  0.4892
 5178W        W 9378   7.933   1.947   1.395  0.0244 -0.0797  0.0121
 5179W        W 9379   3.958   2.033  10.410 -0.0770 -0.2591 -0.1563
 5180W        W 9380   6.868   4.649   1.059 -0.0293  0.1697 -0.0582
 5181W        W 9381   9.647   4.274   0.549  0.2071 -0.0536  0.1073
 5182W        W 9382   8.632   3.339   0.501 -0.2474 -0.2352  0.2435
 5183W        W 9383   9.282   2.416  13.231  0.2293  0.0961  0.2334
 5184W        W 9384   4.974   4.683   0.277 -0.1032  0.2086  0.1637
 5185W        W 9385   1.735   0.072   4.173 -0.3723  0.1485 -0.1911
 5186W        W 9386   0.658   4.602   1.839 -0.2500 -0.2157 -0.0794
 5187W        W 9387   1.620   0.512   0.135 -0.1399  0.2147  0.2255
 5188W        W 9388   1.303   9.125   1.978 -0.0061 -0.4086  0.0195
 5189W        W 9389   8.725   3.408  12.283 -0.2242  0.1777  0.2197
 5190W        W 9390   2.775   1.195   2.894  0.1477 -0.1051 -0.0261
 5191W        W 9391   1.453   9.220   4.462 -0.1649  0.1596 -0.0638
 5192W        W 9392   3.847   0.928   3.518  0.0412 -0.0185  0.2880
 5193W        W 9393   0.944  10.255  12.086 -0.1617  0.0979  0.0642
 5194W        W 9394   7.652   4.596  11.355 -0.1498  0.0975 -0.2443
 5195W        W 9395   8.679   8.938   1.736  0.0215 -0.0623 -0.4534
 5196W        W 9396   6.245   9.143   8.708  0.0385  0.1850 -0.0715
 5197W        W 9397   6.862   7.120  12.706 -0.0550 -0.1337 -0.3638
 5198W        W 9398   6.817   6.640   4.221 -0.3491  0.0008  0.1630
 5199W        W 9399   6.815   6.016   9.210 -0.1580 -0.0773 -0.1404
 5200W        W 9400   9.726   4.892  12.633 -0.6189 -0.2044  0.1438
 5201W        W 9401   9.216   3.012   2.959 -0.2535 -0.0439  0.0943
 5202W        W 9402   6.652   7.075   1.757  0.2718  0.1383 -0.1552
 5203W        W 9403   5.805   7.337  10.923  0.2252  0.1160  0.0940
 5204W        W 9404   6.557   0.362  11.354 -0.1784  0.0013  0.2509
 5205W        W 9405   4.364   7.752  11.321  0.1272 -0.0372  0.1350
 5206W        W 9406   5.992   1.347  12.695 -0.0605 -0.4061 -0.0652
 5207W        W 9407   7.279   3.405   3.349 -0.1766  0.0709 -0.3956
 5208W        W 9408   5.889   9.689  11.621 -0.0420 -0.0564 -0.0165
 5209W        W 9409  10.124   1.280  11.550 -0.0809  0.1548 -0.0727
 5210W        W 9410   0.672   0.229  10.546 -0.1662 -0.0489 -0.1131
 5211W        W 9411   0.935   5.369  10.928 -0.1201  0.0589  0.2445
 5212W        W 9412   6.131   2.954   2.827 -0.1022  0.0148  0.0417
 5213W        W 9413   7.693   3.370  10.500  0.2416 -0.0958  0.0611
 5214W        W 9414   5.664   4.004  12.813  0.1841 -0.2177  0.1003
 5215W        W 9415   1.190   2.726   9.687 -0.0663  0.1382 -0.2606
 5216W        W 9416   3.187   2.490  12.701  0.0742 -0.1138 -0.3308
 5217W        W 9417   3.181   4.807   2.954 -0.0064 -0.3047 -0.3906
 5218W        W 9418   9.547   5.140  13.078  0.1736 -0.0530  0.1087
 5219W        W 9419   3.112   7.893   9.957  0.2917  0.1625  0.0928
 5220W        W 9420   5.560   2.062   2.975  0.3857  0.1375 -0.0384
 5221W        W 9421   0.738  10.358   3.071 -0.3660 -0.0439 -0.0142
 5222W        W 9422   0.557   2.782   2.323  0.1068  0.0824  0.1902
 5223W        W 9423   3.238   2.259  10.981 -0.2130  0.0870  0.4662
 5224W        W 9424   9.311   4.049   2.518  0.0692 -0.5179 -0.2447
 5225W        W 9425   5.162  10.195  10.834  0.2411 -0.0169 -0.0186
 5226W        W 9426   5.669   7.887   9.043 -0.5611 -0.1134 -0.2116
 5227W        W 9427   3.977   9.985  10.279  0.0435  0.3424 -0.0220
 5228W        W 9428   9.067   5.509   4.157  0.2253  0.2589 -0.0199
 5229W        W 9429   9.748   7.957   1.941 -0.0898  0.2750  0.0004
 5230W        W 9430   9.148   0.884  13.249  0.0175 -0.0847  0.1772
 5231W        W 9431   0.571   8.714  10.404  0.1965  0.2728 -0.2100
 5232W        W 9432   4.969   4.660  12.807 -0.1452  0.5343  0.2198
 5233W        W 9433   4.825   4.272  12.478  0.2115 -0.1025  0.1125
 5234W        W 9434   0.892   0.356   1.754  0.2420  0.3945  0.1368
 5235W        W 9435   6.817   7.881   1.382  0.1297  0.1317  0.0479
 5236W        W 9436   4.079   0.981   9.868 -0.1536  0.0204 -0.0831
 5237W        W 9437   9.640   8.140  13.195  0.0621  0.0607 -0.1529
 5238W        W 9438   7.463   8.095  12.526  0.0365 -0.2127 -0.0613
 5239W        W 9439   4.994   2.187   1.193  0.2789 -0.2251  0.2316
 5240W        W 9440   8.026   3.844   8.970  0.0412 -0.0378  0.0600
 5241W        W 9441   2.135   1.547   9.965 -0.2332 -0.1662  0.1979
 5242W        W 9442  10.103   1.852  10.318  0.0244  0.1521  0.0512
 5243W        W 9443   3.984   3.429   9.921  0.1032  0.0262 -0.3332
 5244W        W 9444   8.393   7.919   4.753 -0.1332  0.0051  0.3297
 5245W        W 9445   2.692   7.098  10.919  0.0662 -0.1423 -0.1940
 5246W        W 9446   2.347   1.621  13.043 -0.0274 -0.1516  0.1023
 5247W        W 9447   2.345   0.244  11.276 -0.0075 -0.0197  0.0593
 5248W        W 9448   4.140   6.640   2.503  0.0650 -0.0825 -0.1498
 5249W        W 9449   0.250   1.389   0.708 -0.0745  0.1960 -0.0362
 5250W        W 9450   7.381   9.084   4.401  0.0736 -0.2514  0.0925
 5251W        W 9451   0.555  10.453  11.475  0.0537 -0.0124  0.1972
 5252W        W 9452   5.773   3.797   4.144 -0.0909  0.1049  0.3929
 5253W        W 9453   1.505   0.006  11.156  0.0469  0.0304  0.1101
 5254W        W 9454   9.526   0.045  11.635  0.1491  0.0634  0.0905
 5255W        W 9455   3.908   4.424   0.480 -0.2003  0.1861 -0.0247
 5256W        W 9456   0.701   2.543   0.171 -0.0182 -0.0501 -0.1272
 5257W        W 9457   3.013  10.206  12.470  0.0192 -0.3763  0.3018
 5258W        W 9458   2.000   4.428   9.672  0.0893  0.3929 -0.0300
 5259W        W 9459   3.776   3.082   2.928  0.0571  0.0256 -0.2559
 5260W        W 9460   8.538   7.591   2.154 -0.0784 -0.0249 -0.3271
 5261W        W 9461   0.730   9.300   3.670 -0.2374  0.1234 -0.3298
 5262W        W 9462   2.566  10.169   4.298  0.1811 -0.3509  0.2471
 5263W        W 9463   1.119   1.285  13.166  0.4530  0.0460  0.1177
 5264W        W 9464   8.107   8.055  13.000 -0.1430 -0.2157  0.1787
 5265W        W 9465   4.654   9.436   8.754 -0.1098 -0.2193  0.0088
 5266W        W 9466  10.007   4.479   9.468  0.3545  0.0636 -0.0871
 5267W        W 9467   1.600   8.701   2.775  0.0802  0.0535 -0.0579
 5268W        W 9468   8.069   5.531  13.387  0.0209 -0.0675  0.3438
 5269W        W 9469   5.538   3.933  10.114  0.2113 -0.0157  0.0730
 5270W        W 9470   9.904   6.397  11.253  0.3194  0.1540 -0.6415
 5271W        W 9471   0.710   8.271  12.668 -0.0223  0.1252  0.3989
 5272W        W 9472   3.394   8.152  12.801  0.0575 -0.3560  0.0603
 5273W        W 9473   4.398   6.773  12.262  0.4074  0.2861  0.1036
 5274W        W 9474   9.978   5.476   1.290 -0.1903  0.0485 -0.0588
 5275W        W 9475   9.234   0.381   5.323 -0.3087 -0.1999 -0.1226
 5276W        W 9476   2.139   6.111   0.607  0.0952  0.4276  0.0955
 5277W        W 9477   7.019   5.239   3.097 -0.0797  0.2240  0.3288
 5278W        W 9478   2.301   9.640   4.243 -0.4559  0.0346 -0.0079
 5279W        W 9479   1.477   2.063  12.664  0.0051  0.0459 -0.1168
 5280W        W 9480   9.325   4.391  11.497 -0.4166  0.1260 -0.1561
 5281W        W 9481   2.698   7.667  13.260 -0.0678 -0.0277  0.2215
 5282W        W 9482  10.294   7.077   2.932 -0.0799  0.2746  0.1488
 5283W        W 9483   5.937   3.394   2.560  0.0161 -0.0218  0.0902
 5284W        W 9484   8.825   2.254   0.305 -0.1009 -0.0066  0.0992
 5285W        W 9485   0.034   6.644   2.002 -0.0085 -0.3424  0.4717
 5286W        W 9486   7.784   0.625   4.329 -0.0647  0.0932  0.0425
 5287W        W 9487   8.968   8.399   3.692  0.0796  0.2693  0.4777
 5288W        W 9488   6.838   9.283  12.681  0.2391  0.3331  0.0109
 5289W        W 9489   0.200   9.597   1.400  0.3048 -0.0260  0.2242
 5290W        W 9490   5.927   8.799  11.862  0.3358  0.4180  0.1258
 5291W        W 9491   5.358   4.837   3.518  0.3205 -0.2358 -0.1866
 5292W        W 9492   8.344   9.033  12.293 -0.2239 -0.2555 -0.1940
 5293W        W 9493   9.481   8.102   2.375 -0.0204  0.0570 -0.3507
 5294W        W 9494   3.942   9.002   0.137 -0.0451 -0.2050  0.1036
 5295W        W 9495   0.176   1.255   2.134 -0.0665  0.0650  0.1831
 5296W        W 9496   9.651   4.277   4.172  0.1718 -0.0870  0.1227
 5297W        W 9497   7.312   8.930   2.629  0.0914  0.0041 -0.1249
 5298W        W 9498   6.725   9.406  10.223 -0.4473  0.0355 -0.0478
 5299W        W 9499   0.561   8.653   0.334 -0.0261 -0.1543  0.1469
 5300W        W 9500   0.841   5.155   0.455 -0.0670 -0.1834 -0.0078
 5301W        W 9501   2.393   8.868  12.614 -0.0729  0.1329 -0.0649
 5302W        W 9502   7.859   6.843   4.469 -0.5580 -0.1990  0.3449
 5303W        W 9503   6.111   6.629  10.710 -0.2680 -0.1074 -0.0884
 5304W        W 9504   5.891   8.091  13.093  0.2429  0.1645  0.3778
 5305W        W 9505   1.092   9.055  12.017 -0.1389 -0.0099 -0.1260
 5306W        W 9506   0.567   6.400  12.065  0.0155 -0.0563  0.1267
 5307W        W 9507   7.387   3.718  10.278  0.0632  0.0357 -0.1069
 5308W        W 9508   7.265   6.283   9.269 -0.0321 -0.1703  0.1601
 5309W        W 9509   6.498   2.368   1.628  0.0520  0.1280 -0.0590
 5310W        W 9510   8.428   9.924   9.163 -0.1541 -0.1679 -0.2071
 5311W        W 9511   8.788   9.232   1.135 -0.1174  0.0702  0.2055
 5312W        W 9512   4.963   8.874  10.347 -0.1526  0.2346  0.6031
 5313W        W 9513   4.559   0.769  11.571 -0.0579 -0.3301 -0.0078
 5314W        W 9514   2.827   1.134  12.837  0.1064  0.3367 -0.3115
 5315W        W 9515   3.532   5.949   3.524  0.2076  0.1417  0.2550
 5316W        W 9516  10.067   5.394   3.266  0.3015  0.1010 -0.1170
 5317W        W 9517   7.459   1.302  12.237 -0.0119 -0.0040  0.1051
 5318W        W 9518   8.959   3.104  11.567  0.0293  0.0887  0.0093
 5319W        W 9519   0.339   4.544  11.997  0.1525  0.3297  0.0847
 5320W        W 9520   4.243   7.080   2.789  0.1080  0.1115  0.0887
 5321W        W 9521   6.864   4.065  11.836 -0.2239 -0.1693 -0.1971
 5322W        W 9522   6.822   7.276  11.772 -0.0355 -0.3213 -0.1417
 5323W        W 9523   1.216   0.773   0.059 -0.2184 -0.3864  0.0461
 5324W        W 9524   4.567   5.726  13.421  0.2778  0.0706  0.0844
 5325W        W 9525   2.344   8.709   4.716  0.4023  0.2376  0.0173
 5326W        W 9526   7.571   9.538  10.415  0.1719  0.2426  0.0001
 5327W        W 9527   3.533   3.788  10.371  0.2727 -0.2833  0.1204
 5328W        W 9528   3.740   5.314   2.139 -0.0755  0.3182  0.1701
 5329W        W 9529   8.786   5.865   0.291 -0.1156 -0.0183  0.3722
 5330W        W 9530   9.174   1.138  12.362  0.1093  0.0037  0.1322
 5331W        W 9531   5.535   6.108  11.864  0.2020  0.0505 -0.2252
 5332W        W 9532   4.236   4.932   5.390  0.2953  0.2106 -0.3355
 5333W        W 9533   1.839   8.543   0.221 -0.0367  0.1213 -0.2331
 5334W        W 9534   8.603   4.984   1.980  0.0565 -0.2021 -0.0311
 5335W        W 9535   9.297   2.709   3.705 -0.0170  0.0788  0.0445
 5336W        W 9536   6.204   7.364   3.452 -0.0315 -0.1292 -0.0942
 5337W        W 9537   7.269   4.725   1.452  0.2057 -0.1930  0.1676
 5338W        W 9538   0.999   4.039   0.995 -0.0797 -0.0670  0.2365
 5339W        W 9539   5.039   5.481  10.673  0.2120 -0.4948  0.0898
 5340W        W 9540   4.121   8.392  11.335 -0.0608  0.0243  0.1631
 5341W        W 9541   8.737   3.890  10.858 -0.1844  0.0250 -0.3159
 5342W        W 9542   1.401  10.243   9.213 -0.0584 -0.2583  0.1947
 5343W        W 9543   9.572   0.562  11.723 -0.3050 -0.1286 -0.1945
 5344W        W 9544   8.651   9.724   2.510  0.2052 -0.2004 -0.2066
 5345W        W 9545   5.337   5.259  11.447  0.3980  0.3705  0.1773
 5346W        W 9546   6.703   2.884   1.803 -0.1880 -0.0822  0.0681
 5347W        W 9547   7.232   5.901  12.827 -0.1728 -0.0252  0.0847
 5348W        W 9548   7.259   8.666   2.156 -0.0769  0.0983 -0.1776
 5349W        W 9549   3.498   9.818   3.364 -0.1184  0.0266  0.3384
 5350W        W 9550   5.689   0.035   2.907  0.0106  0.1390  0.1766
 5351W        W 9551   9.575   3.977  12.387  0.1425 -0.0560 -0.1684
 5352W        W 9552   1.353   1.310   3.664 -0.0689  0.0229 -0.1745
 5353W        W 9553   2.486   7.430   3.479 -0.3801  0.0133  0.3575
 5354W        W 9554   0.342   1.338   9.932  0.0695  0.3274 -0.2110
 5355W        W 9555   7.745   3.190   3.338 -0.1048 -0.3317 -0.2973
 5356W        W 9556   7.863   3.573  13.348 -0.1519  0.0793  0.0692
 5357W        W 9557   5.583   2.939   0.955 -0.2022 -0.5224  0.0877
 5358W        W 9558   1.375   2.722   8.791  0.0094  0.2647 -0.0492
 5359W        W 9559   0.398   5.231   3.715 -0.1812 -0.4433 -0.1614
 5360W        W 9560   7.368   1.467   9.502  0.0819  0.1482 -0.0233
 5361W        W 9561   5.443   1.056  10.816  0.0203  0.0243 -0.0519
 5362W        W 9562   3.440   9.824   1.732 -0.2669 -0.1890  0.0872
 5363W        W 9563   6.686   9.684   2.210 -0.0919 -0.0087 -0.2456
 5364W        W 9564   6.366   7.622   9.730 -0.1971  0.0859 -0.1805
 5365W        W 9565   1.159   1.703   0.060 -0.2599  0.0149  0.0451
 5366W        W 9566   0.973   0.444  10.889 -0.0875  0.3045 -0.4674
 5367W        W 9567   6.916  10.209  11.734 -0.0798  0.0561 -0.0898
 5368W        W 9568   8.458   3.603   2.647 -0.0733 -0.2831 -0.1851
 5369W        W 9569   7.264   3.140   0.080  0.1674 -0.0973  0.2214
 5370W        W 9570   4.954   0.820   4.506  0.1991 -0.2064  0.1722
 5371W        W 9571   1.465   9.985   2.115  0.0428  0.2072  0.0812
 5372W        W 9572  10.069   9.318   9.876 -0.1760 -0.1554  0.1937
 5373W        W 9573   1.618   0.365   3.710  0.1048 -0.1304  0.1792
 5374W        W 9574   7.329   3.285   9.195 -0.4850 -0.0636 -0.1651
 5375W        W 9575   2.160   9.063   2.911 -0.1150 -0.1490 -0.0479
 5376W        W 9576   1.605   4.971  11.742  0.1431 -0.0729 -0.1374
 5377W        W 9577   0.327   7.423   0.599 -0.1737  0.0730  0.1926
 5378W        W 9578   2.573   5.273  12.931 -0.1487  0.1269  0.0592
 5379W        W 9579   3.541   6.629   3.361  0.0052 -0.3052 -0.0749
 5380W        W 9580   2.924   4.388   2.218 -0.0090  0.2931  0.1272
 5381W        W 9581   3.002   7.675   3.499  0.2130  0.2536  0.4191
 5382W        W 9582   1.645   6.684   2.204  0.1514  0.1906 -0.0503
 5383W        W 9583   3.028   2.678  13.455  0.2634  0.2049 -0.2472
 5384W        W 9584   8.094   8.574  13.238  0.0531 -0.0324  0.0828
 5385W        W 9585   4.193   5.322   3.522 -0.3320 -0.0447 -0.0133
 5386W        W 9586  10.217   3.536   8.800 -0.1504 -0.1955 -0.0992
 5387W        W 9587   0.897   1.810   2.493  0.0807  0.2666  0.0582
 5388W        W 9588   4.838   8.642   1.611 -0.0508 -0.1807 -0.1242
 5389W        W 9589   1.278   4.968   2.774  0.0711  0.2398  0.1235
 5390W        W 9590   3.726   6.877   1.035 -0.1327 -0.0943 -0.1651
 5391W        W 9591   6.180   6.240  12.930 -0.0652 -0.2521 -0.2246
 5392W        W 9592   2.346   6.069  12.419  0.2316 -0.0859 -0.1408
 5393W        W 9593   5.912   8.967   2.600  0.0552 -0.3251 -0.1326
 5394W        W 9594   7.168   9.012   0.997 -0.1519 -0.1994  0.1463
 5395W        W 9595   3.762   1.540   4.967  0.2004  0.0719 -0.3591
 5396W        W 9596   3.475   8.811   0.175  0.0941 -0.1446  0.1822
 5397W        W 9597  10.200   2.066   0.110 -0.0498  0.0259  0.1325
 5398W        W 9598   4.389   8.313  11.772  0.1331 -0.0630 -0.0812
 5399W        W 9599   8.639   5.923  11.043 -0.0181  0.2606  0.2101
 5400W        W 9600  10.257   1.621   0.938  0.0117 -0.0782 -0.0745
 5401W        W 9601   8.878   2.332   3.619 -0.0931 -0.0059  0.0500
 5402W        W 9602   7.437   0.922   2.600 -0.3311 -0.0999 -0.2042
 5403W        W 9603   1.149   2.482  12.193 -0.1969 -0.4213 -0.0347
 5404W        W 9604   3.488   3.019   0.995 -0.1489 -0.2579  0.0600
 5405W        W 9605   4.515   3.010   0.017  0.0415  0.0561  0.2510
 5406W        W 9606   5.799   8.787   1.382 -0.0889 -0.1423 -0.1710
 5407W        W 9607   9.456   5.796   3.941  0.2737  0.2640 -0.2989
 5408W        W 9608   4.081   2.482  10.637 -0.2144 -0.2575 -0.1866
 5409W        W 9609   4.308   5.834   2.248 -0.2488 -0.4400  0.3470
 5410W        W 9610   6.584   6.727  12.754 -0.2343 -0.0497 -0.0847
 5411W        W 9611   1.402   2.119  13.392  0.2143  0.4208  0.0887
 5412W        W 9612   9.340   8.114   9.474 -0.0728 -0.0453 -0.0703
 5413W        W 9613   1.971   8.361   1.906 -0.2898  0.2164  0.0444
 5414W        W 9614   7.591   1.712  11.214  0.2906  0.1703  0.0339
 5415W        W 9615   0.860   1.434   3.765  0.0695 -0.1416 -0.1054
 5416W        W 9616   4.656   9.041  11.154 -0.0433 -0.2172  0.6527
 5417W        W 9617   6.666   6.487  13.224  0.3042  0.0362 -0.1011
 5418W        W 9618   3.347  10.270  12.847  0.2401  0.1226 -0.1752
 5419W        W 9619   4.777   7.261   9.487  0.0830 -0.4096  0.3772
 5420W        W 9620   9.546  10.032   0.037 -0.2773  0.1810 -0.0829
 5421W        W 9621   9.032   5.876   2.204 -0.1585  0.2016 -0.0968
 5422W        W 9622   9.873   6.068   3.823  0.0955 -0.0404  0.0337
 5423W        W 9623   3.814   3.702   8.850 -0.0304 -0.0321  0.0120
 5424W        W 9624   8.589   8.354   2.697  0.0255 -0.1231 -0.0725
 5425W        W 9625   8.835   9.227   0.065 -0.0019 -0.2686  0.1843
 5426W        W 9626   3.878   5.992   3.042 -0.1988 -0.1748 -0.0779
 5427W        W 9627   7.581   4.270   2.912  0.2119  0.2452  0.0025
 5428W        W 9628   1.912   1.853   3.075  0.0470 -0.0472  0.0635
 5429W        W 9629   7.249   2.456   0.882 -0.1565 -0.1981  0.0728
 5430W        W 9630   7.799   8.514  10.739  0.0100  0.1341  0.2973
 5431W        W 9631   3.430   3.555  11.726 -0.0237 -0.0807  0.3614
 5432W        W 9632   6.440   5.911  11.721  0.3052  0.0422 -0.2196
 5433W        W 9633   2.937   8.637  10.702 -0.1378  0.1109  0.0914
 5434W        W 9634   8.463   7.022   5.119  0.4262  0.0593 -0.0839
 5435W        W 9635   2.123   3.891  10.050  0.1506 -0.0551  0.0611
 5436W        W 9636   8.979   9.171  11.124  0.1610  0.1536 -0.1656
 5437W        W 9637   4.897   6.628  12.381 -0.0135 -0.3268  0.2436
 5438W        W 9638   6.695   6.347  10.708 -0.1285 -0.0256  0.1298
 5439W        W 9639   5.430   1.034   9.919  0.1002 -0.2535  0.1869
 5440W        W 9640   9.209   1.744  10.796 -0.0978 -0.0412 -0.1652
 5441W        W 9641   4.572   9.461  12.817  0.2105 -0.0601  0.0726
 5442W        W 9642   3.234   8.883   3.758 -0.0625  0.2402 -0.0174
 5443W        W 9643   7.494   6.788  11.074 -0.0687  0.2605  0.4172
 5444W        W 9644   4.503   3.308   2.313 -0.0475 -0.1937  0.1913
 5445W        W 9645   4.982   4.459  11.159  0.1990  0.1051  0.0551
 5446W        W 9646   6.860   0.069   9.829 -0.0013 -0.0866 -0.0782
 5447W        W 9647   1.917   2.050   4.711 -0.4220 -0.0528 -0.0893
 5448W        W 9648   3.116   5.340  11.133  0.1058 -0.4806  0.2462
 5449W        W 9649   4.038   2.834   9.314  0.0733  0.0825 -0.1219
 5450W        W 9650   2.005   5.832   1.901  0.2224 -0.1422  0.0529
 5451W        W 9651   8.542   4.052   1.945  0.0168  0.1169 -0.0479
 5452W        W 9652   0.518   7.193   2.322 -0.2098 -0.2565  0.0493
 5453W        W 9653   9.435   5.617   1.544  0.3419 -0.1234  0.0191
 5454W        W 9654   6.662   4.844   3.405 -0.1303 -0.3252 -0.0720
 5455W        W 9655   9.282   6.153   1.531  0.1001  0.2245  0.4056
 5456W        W 9656   5.498   0.628  11.095 -0.0111  0.1796 -0.0413
 5457W        W 9657   3.184   9.191   1.429 -0.3447  0.2596 -0.1989
 5458W        W 9658   8.873   3.781   0.470  0.3990 -0.2396  0.1459
 5459W        W 9659   2.039   8.507   9.234  0.0005 -0.3221 -0.0602
 5460W        W 9660   4.785   2.317   7.988 -0.0770  0.1127  0.0494
 5461W        W 9661   7.471   9.935  10.756  0.2973  0.0937  0.0989
 5462W        W 9662   0.461   4.571  10.434 -0.3061 -0.0313 -0.1046
 5463W        W 9663   7.099   3.779   9.864  0.0088  0.0676  0.1799
 5464W        W 9664   2.725   5.596   9.820  0.0374  0.1776  0.2948
 5465W        W 9665   8.506   9.356   1.992 -0.0500  0.2122  0.2194
 5466W        W 9666   4.077   5.567   1.798 -0.0109  0.0500 -0.1825
 5467W        W 9667  10.212   3.092  12.561 -0.4046 -0.0593  0.1462
 5468W        W 9668   1.013   4.226   3.678 -0.0683 -0.1141  0.1668
 5469W        W 9669   4.741   9.878   9.450  0.2333 -0.1024  0.0369
 5470W        W 9670   7.750   6.382   1.013 -0.0330 -0.1945  0.1498
 5471W        W 9671   8.760   9.377   3.331 -0.0569  0.0377 -0.1308
 5472W        W 9672   1.039   3.467   1.007  0.1194  0.0163 -0.1524
 5473W        W 9673   5.407   9.435   1.991  0.1195 -0.1550 -0.2992
 5474W        W 9674   8.760   0.813  11.510  0.1995  0.1947 -0.0551
 5475W        W 9675   4.591   3.085  10.051  0.0945 -0.0170 -0.0565
 5476W        W 9676  10.320   1.391   3.928 -0.2407  0.1646 -0.2518
 5477W        W 9677   0.597   1.653   3.338  0.0513 -0.0245 -0.0716
 5478W        W 9678   4.329   0.322   2.846  0.0610 -0.1329  0.1499
 5479W        W 9679   2.670   0.088  12.730  0.0782  0.0715  0.2264
 5480W        W 9680   8.421  10.143   1.032 -0.2240  0.1761  0.0017
 5481W        W 9681   1.858   6.527   2.704 -0.0751 -0.3266 -0.0200
 5482W        W 9682   4.245   9.103   8.351  0.0813 -0.0342  0.3670
 5483W        W 9683   4.058   4.328   4.395  0.1212  0.3053  0.0171
 5484W        W 9684   0.379   7.359   4.058  0.3084 -0.1438 -0.4682
 5485W        W 9685   1.378   8.015  12.438  0.0423  0.4136 -0.0852
 5486W        W 9686   9.110   8.202   4.520  0.3263  0.1343  0.0609
 5487W        W 9687   7.830   2.974   2.534  0.0192  0.1458 -0.2148
 5488W        W 9688   1.907   2.183  10.709  0.0595  0.1956 -0.2865
 5489W        W 9689   7.551   7.925  11.958 -0.1669 -0.0644 -0.3599
 5490W        W 9690   3.277   1.153   3.482  0.1560  0.1441 -0.1169
 5491W        W 9691   1.937   4.985   1.283  0.0201  0.2248 -0.1095
 5492W        W 9692   1.512   3.342  11.459 -0.1620  0.0456 -0.3815
 5493W        W 9693   4.900   8.462  11.818  0.1308 -0.0199 -0.0432
 5494W        W 9694   7.389   7.590  12.460  0.1123  0.2937 -0.3201
 5495W        W 9695   1.678  10.081   0.617 -0.1280  0.0909  0.0960
 5496W        W 9696  10.431   6.916   2.420 -0.0188 -0.4292  0.1212
 5497W        W 9697   0.742   5.015   2.697  0.0062  0.0334  0.2108
 5498W        W 9698   0.875   1.079  12.810 -0.1013  0.0469  0.2088
 5499W        W 9699   0.342   3.921   0.363  0.1423  0.2032 -0.0925
 5500W        W 9700   9.832  10.076   0.680 -0.0250 -0.1931  0.0516
 5501W        W 9701   8.503   0.286   0.397  0.0821 -0.0784 -0.1474
 5502W        W 9702   8.011   1.041   4.170 -0.2124 -0.1778  0.0292
 5503W        W 9703   5.233   0.100  10.398 -0.0330 -0.0330 -0.1744
 5504W        W 9704   3.345   4.647  11.754 -0.0028 -0.2612 -0.3662
 5505W        W 9705   9.692   6.281  12.194  0.3310 -0.1095  0.1902
 5506W        W 9706   2.503   3.812  10.590 -0.3364 -0.0624 -0.0397
 5507W        W 9707   0.915   0.591  11.666  0.0508  0.2039  0.1361
 5508W        W 9708  10.213   3.822   3.898  0.0578  0.0895 -0.2032
 5509W        W 9709   4.226   1.730   2.529  0.0474 -0.0416  0.0632
 5510W        W 9710  10.319   5.226   0.184  0.1181  0.1394 -0.0838
 5511W        W 9711   0.295   9.697   1.848  0.0556  0.0068 -0.0640
 5512W        W 9712   0.424   5.910   0.660 -0.0039 -0.0739 -0.0259
 5513W        W 9713   7.886   0.156   9.703  0.1710  0.0634 -0.2561
 5514W        W 9714   3.398   3.392   9.284 -0.3624 -0.2278  0.0570
 5515W        W 9715   2.171   2.624   1.240  0.1252  0.0112 -0.0145
 5516W        W 9716  10.118   2.548   9.563  0.1114  0.1012  0.0884
 5517W        W 9717   3.734   5.997  11.163  0.4568 -0.0719 -0.0402
 5518W        W 9718   7.951   9.789   2.935 -0.1051  0.3061  0.1523
 5519W        W 9719   0.447   3.681   0.832 -0.3204 -0.0867 -0.1205
 5520W        W 9720   7.188   9.347   4.834  0.1377 -0.3593  0.0187
 5521W        W 9721   9.534  10.291   4.693 -0.0565 -0.0952 -0.0251
 5522W        W 9722   6.340   4.723   1.011 -0.1045  0.0618  0.2372
 5523W        W 9723   6.192   0.043   2.814  0.2682 -0.0767 -0.2418
 5524W        W 9724   9.927   0.811  11.440 -0.1072 -0.2187  0.1843
 5525W        W 9725   4.666   9.889   1.019 -0.0233  0.0350 -0.0074
 5526W        W 9726   8.470   3.514  10.009  0.0881  0.0866  0.0700
 5527W        W 9727   2.524   8.723   3.173  0.1408 -0.0675 -0.2785
 5528W        W 9728   8.534  10.248   9.574 -0.1920 -0.0810 -0.2039
 5529W        W 9729   3.511   1.240  10.508  0.2426  0.0957  0.0779
 5530W        W 9730   2.913   8.794  12.387  0.1139 -0.0843  0.1665
 5531W        W 9731   9.809   3.177  10.935 -0.0292  0.0294 -0.0951
 5532W        W 9732   0.673  10.002  11.130  0.0550  0.0676 -0.4687
 5533W        W 9733   0.485  10.232  12.339 -0.1666  0.2498  0.1271
 5534W        W 9734   7.492   6.962   3.093 -0.1615  0.0943 -0.0946
 5535W        W 9735   1.484  10.004  11.464  0.3055  0.2654 -0.1273
 5536W        W 9736   6.255   7.366  11.408  0.1060  0.2683 -0.3060
 5537W        W 9737   4.295   3.956   0.102  0.1931 -0.0033  0.2691
 5538W        W 9738   9.891   1.042  10.993 -0.0801 -0.2164  0.0990
 5539W        W 9739   1.507   0.063   2.978 -0.2631  0.4375 -0.1490
 5540W        W 9740   4.445   9.821  11.269  0.2099 -0.1586 -0.1693
 5541W        W 9741   5.486   5.480  12.802 -0.0914 -0.0353 -0.2214
 5542W        W 9742  10.170  10.318  10.923 -0.1765  0.1685  0.1458
 5543W        W 9743   6.410   9.248   2.192  0.3598  0.3327 -0.0750
 5544W        W 9744   7.683   9.140   0.871  0.3625  0.1357 -0.0902
 5545W        W 9745   8.616   4.895  13.041 -0.4546  0.1104  0.2868
 5546W        W 9746   1.102   3.875  13.442 -0.1491  0.0013 -0.1611
 5547W        W 9747   6.564   6.428  11.690 -0.1758  0.0230 -0.1302
 5548W        W 9748   6.919  10.165  10.234 -0.2886 -0.1713 -0.1591
 5549W        W 9749   8.010   9.555   2.471 -0.0437 -0.3250  0.0901
 5550W        W 9750   2.137   9.257  10.410  0.1371 -0.1038 -0.3577
 5551W        W 9751   6.101   7.745  12.812 -0.1409 -0.0937 -0.0710
 5552W        W 9752   1.548   8.841   1.626  0.2090  0.5659  0.1413
 5553W        W 9753   0.118   6.305   1.585 -0.2794  0.0736  0.1326
 5554W        W 9754   5.278   4.503   8.920  0.3380  0.2164  0.1393
 5555W        W 9755  10.189   4.273  11.367 -0.1189 -0.1107 -0.1761
 5556W        W 9756   9.540   4.242  13.267  0.0914 -0.0096  0.4574
 5557W        W 9757   5.496   1.275  13.121  0.3215  0.0331 -0.2193
 5558W        W 9758   0.848   4.521   0.687  0.0394  0.0020  0.1497
 5559W        W 9759   2.036   6.857   3.551  0.2644 -0.1952 -0.0898
 5560W        W 9760   2.497   6.706   3.440 -0.1620  0.1245  0.0729
 5561W        W 9761   7.685   0.949   8.787  0.1674 -0.1400  0.0486
 5562W        W 9762   2.855   9.868   1.572 -0.0936  0.0198 -0.1115
 5563W        W 9763   8.358   1.370  12.962  0.1658 -0.1857 -0.0314
 5564W        W 9764   1.031   2.165  11.294  0.1894  0.2833 -0.0203
 5565W        W 9765   6.281   2.265   3.863 -0.1450 -0.0319 -0.1301
 5566W        W 9766   0.033   0.576   3.487  0.1088  0.3300  0.1915
 5567W        W 9767   8.057   2.605   2.160  0.2784 -0.1552  0.0711
 5568W        W 9768   7.083   8.314   1.843  0.1002  0.2067  0.0873
 5569W        W 9769   1.418   0.060   4.924 -0.1531  0.0487  0.0462
 5570W        W 9770   0.020   0.660  11.300  0.2455 -0.2942 -0.0864
 5571W        W 9771   4.402   1.333   4.164 -0.0043  0.2490 -0.0508
 5572W        W 9772   9.490   3.040   3.395 -0.4518 -0.2652  0.0545
 5573W        W 9773  10.069   6.840   1.153  0.3091 -0.0966 -0.0335
 5574W        W 9774   8.902   4.601   8.362 -0.1414  0.0268 -0.1007
 5575W        W 9775   5.534   8.998  10.587 -0.2555  0.0313  0.0137
 5576W        W 9776   6.413   9.139   3.666 -0.0099 -0.1553 -0.2285
 5577W        W 9777   3.520   7.741   2.480 -0.5086 -0.0709 -0.0773
 5578W        W 9778   8.602   4.662   1.572 -0.0177  0.0823  0.1280
 5579W        W 9779   1.671   1.391   9.682 -0.1639  0.0204  0.3309
 5580W        W 9780   2.251   3.588   2.384 -0.0880 -0.1246  0.2549
 5581W        W 9781   4.535   7.298  10.543 -0.3437 -0.0741 -0.1563
 5582W        W 9782   2.075   7.497   4.394 -0.0060 -0.2527 -0.0421
 5583W        W 9783   4.659   9.065  12.463  0.1792  0.0723 -0.0016
 5584W        W 9784   6.163   9.520   3.525  0.1017  0.1933 -0.0644
 5585W        W 9785   9.125   7.542   9.670 -0.0912  0.0832  0.1897
 5586W        W 9786   4.878   2.598  10.069  0.1374 -0.0083 -0.0252
 5587W        W 9787   0.682   1.490  13.437 -0.1952 -0.1558  0.2933
 5588W        W 9788  10.130   7.256   2.128 -0.1812  0.3071 -0.0737
 5589W        W 9789   8.074   6.582   2.749 -0.0453  0.1119 -0.0785
 5590W        W 9790  10.236   8.888   3.315  0.1406 -0.2125 -0.0625
 5591W        W 9791   4.900   7.098  12.196  0.0802  0.0101 -0.1628
 5592W        W 9792   5.467  10.396  13.436 -0.1437 -0.1295  0.3293
 5593W        W 9793   2.203   2.881   1.710  0.3891 -0.1430 -0.0657
 5594W        W 9794   4.828   6.136  13.349  0.0470  0.0788 -0.3037
 5595W        W 9795   3.911   8.892   2.021  0.1755 -0.2722  0.0897
 5596W        W 9796  10.191   5.667  11.489  0.2358 -0.3229 -0.0265
 5597W        W 9797   6.881   9.303   4.335  0.2242  0.1554 -0.2654
 5598W        W 9798   4.832   1.560   9.534 -0.0970  0.0432 -0.0748
 5599W        W 9799   5.114   0.256   9.153  0.3288  0.0604 -0.0435
 5600W        W 9800   2.334   9.089   5.058 -0.1266 -0.1937  0.0320
 5601W        W 9801   3.360   6.315   2.916 -0.1074  0.0604 -0.0783
 5602W        W 9802   2.794   9.788  10.123  0.5256  0.0294  0.2821
 5603W        W 9803   1.807   5.808  13.186  0.2632  0.2906  0.3161
 5604W        W 9804   3.187   1.113   4.775  0.0019  0.0990  0.0168
 5605W        W 9805   1.098   7.696  12.082 -0.0106  0.0544  0.1576
 5606W        W 9806   2.971   0.148   0.114  0.4157  0.0413  0.1969
 5607W        W 9807   3.735   1.427  13.330 -0.0656  0.2089 -0.1291
 5608W        W 9808   9.279   6.956  12.534  0.0632  0.1214 -0.2386
 5609W        W 9809   5.466  10.290   2.404 -0.1605  0.1119  0.3322
 5610W        W 9810   7.284   0.829   9.988  0.0048  0.1436  0.0452
 5611W        W 9811   4.363   7.278   0.433 -0.0126 -0.1412 -0.2690
 5612W        W 9812   4.633   2.448   4.900 -0.0584 -0.0181 -0.1439
 5613W        W 9813   8.848   2.631  13.399  0.0018  0.0724 -0.1203
 5614W        W 9814   9.573   8.796   3.870 -0.0835 -0.0776  0.1135
 5615W        W 9815   4.448   7.485   2.578  0.2199 -0.4233 -0.1097
 5616W        W 9816   1.010   2.551   2.092  0.2299 -0.1545 -0.1576
 5617W        W 9817   4.208   8.564   2.276  0.2560  0.0455 -0.1036
 5618W        W 9818   0.263   8.477   3.271  0.0284  0.0804 -0.0324
 5619W        W 9819   8.344   5.858   3.089 -0.1343 -0.1435 -0.0661
 5620W        W 9820  10.350   8.844   1.968  0.3143 -0.3197 -0.1549
 5621W        W 9821   5.667  10.354  12.516 -0.7424  0.1432 -0.0023
 5622W        W 9822   3.450   3.732   2.112  0.1637  0.0978  0.1167
 5623W        W 9823   1.350   2.158   0.844 -0.2426  0.0927 -0.5132
 5624W        W 9824   7.635   9.819  12.151  0.1759  0.0822  0.0063
 5625W        W 9825   0.816   7.926  13.041  0.2679 -0.0842 -0.3612
 5626W        W 9826   6.802   5.758   2.598  0.0390  0.1280  0.1394
 5627W        W 9827   3.272   8.306   2.151  0.0372  0.0468  0.1968
 5628W        W 9828   5.533   1.153   9.067 -0.2665 -0.1915 -0.0221
 5629W        W 9829   0.281   8.566   2.508 -0.1815  0.0987  0.2218
 5630W        W 9830   7.695   7.792  10.093 -0.0146  0.0136 -0.1269
 5631W        W 9831   3.068   2.498   3.365 -0.2886  0.1751  0.0247
 5632W        W 9832   5.203   0.861   9.316 -0.2429  0.1005 -0.0079
 5633W        W 9833   8.864   6.593  12.505 -0.2174  0.3533  0.0898
 5634W        W 9834   9.681   7.530  10.762 -0.0860  0.0737 -0.1743
 5635W        W 9835   1.227   2.604   5.127  0.2085 -0.0679  0.1056
 5636W        W 9836  10.019   6.872   0.201  0.0882  0.1888  0.1129
 5637W        W 9837  10.416  10.044   0.058  0.0588  0.0847 -0.0288
 5638W        W 9838   9.302   1.213   4.666 -0.1698  0.1326 -0.0698
 5639W        W 9839   2.408   8.124   1.744 -0.3428 -0.1100  0.1594
 5640W        W 9840   2.243   7.632   3.108 -0.1148 -0.2141  0.3621
 5641W        W 9841  10.438   6.929  13.445 -0.0264  0.0502 -0.3945
 5642W        W 9842   1.812   3.358  11.849  0.2082 -0.1339 -0.1062
 5643W        W 9843   7.418   0.153  10.527 -0.0510  0.0568  0.1485
 5644W        W 9844   4.242   6.850  10.120  0.0714  0.1131 -0.0342
 5645W        W 9845   9.160   7.590  10.998  0.2554 -0.1443  0.2538
 5646W        W 9846  10.330   1.574   2.349  0.3790  0.1381  0.1121
 5647W        W 9847   5.126  10.084  13.141  0.0545  0.0046 -0.3871
 5648W        W 9848   6.556   5.557   9.703 -0.0939 -0.2823  0.2977
 5649W        W 9849   4.909  10.216  10.372 -0.1719  0.0385  0.1439
 5650W        W 9850   0.101   3.734   4.934 -0.0808 -0.2854 -0.0697
 5651W        W 9851   6.657   6.288   4.554  0.2432  0.0402 -0.2186
 5652W        W 9852   5.148   1.470  10.907  0.2050 -0.0999 -0.0241
 5653W        W 9853   2.295   3.156   3.188  0.5575  0.2524 -0.0413
 5654W        W 9854   7.787   3.238   0.835  0.0176 -0.0869 -0.3514
 5655W        W 9855   8.980   5.763   9.681  0.1281 -0.0074  0.0327
 5656W        W 9856   2.882   1.950  10.787 -0.1579 -0.1345 -0.0591
 5657W        W 9857   2.029   3.287   1.348 -0.1963 -0.0735 -0.3126
 5658W        W 9858   6.520   5.478   1.372  0.2455  0.1632  0.0379
 5659W        W 9859   7.234   8.628   3.815 -0.0375  0.0492 -0.1083
 5660W        W 9860   0.356   2.659  10.340 -0.1824 -0.2099 -0.0339
 5661W        W 9861   2.910   4.576   4.238 -0.1596  0.0434  0.0124
 5662W        W 9862   3.473   2.008   4.003 -0.1741  0.0678  0.2113
 5663W        W 9863   5.029   3.415   0.636 -0.2154 -0.2554 -0.4044
 5664W        W 9864   3.749   6.544  10.077 -0.2216 -0.1184 -0.0072
 5665W        W 9865  10.092   9.460   8.705 -0.2549  0.1694 -0.1998
 5666W        W 9866   0.847   0.040  13.037  0.3550  0.0452 -0.1957
 5667W        W 9867   9.568   5.483   2.858 -0.1127  0.1692  0.2358
 5668W        W 9868   0.693   3.472   3.643 -0.1487 -0.1654  0.2268
 5669W        W 9869   2.539  10.042  12.387  0.2282  0.1383  0.0113
 5670W        W 9870   1.746   0.342  12.612 -0.1280  0.1284  0.2087
 5671W        W 9871   5.219   4.123   2.335  0.1878 -0.1702 -0.2229
 5672W        W 9872   3.779   5.021   3.696  0.0316 -0.1755  0.0584
 5673W        W 9873   4.615   9.813  10.392 -0.3488 -0.0564 -0.0666
 5674W        W 9874   5.109   3.200   1.099 -0.1338  0.0415 -0.3189
 5675W        W 9875   0.924   0.847   2.827 -0.0679 -0.0715 -0.0580
 5676W        W 9876   8.152   3.087   2.086  0.1896 -0.0234 -0.1500
 5677W        W 9877   9.457   2.018   2.013 -0.0432  0.4676 -0.1899
 5678W        W 9878   7.981   3.188   1.355  0.0935 -0.2610 -0.1485
 5679W        W 9879   8.240   4.695  10.832 -0.1872 -0.0417  0.0495
 5680W        W 9880   8.265   0.558   4.270  0.0267 -0.1843 -0.0734
 5681W        W 9881   7.344   4.567   1.977 -0.1261 -0.1926  0.1231
 5682W        W 9882   2.821   5.751   0.715 -0.1822 -0.1860  0.0010
 5683W        W 9883   6.426   0.295  13.440 -0.2549  0.2749  0.0379
 5684W        W 9884   9.601   1.369   5.159  0.4709 -0.1850  0.0043
 5685W        W 9885  10.206   0.681  12.863 -0.3171 -0.1026 -0.1253
 5686W        W 9886   5.750   9.496  13.480 -0.2173 -0.2612 -0.1113
 5687W        W 9887   7.063   1.812   4.554  0.0634  0.0139  0.1654
 5688W        W 9888   9.638   1.786   4.014  0.2360  0.0082  0.2222
 5689W        W 9889   3.602   7.602  12.540 -0.0505 -0.1147 -0.1029
 5690W        W 9890   1.530   5.070   4.077 -0.1307 -0.1449 -0.2902
 5691W        W 9891   5.887   6.475   4.646 -0.1867 -0.2577  0.2182
 5692W        W 9892   8.289   4.668   0.808 -0.2380  0.0637 -0.0414
 5693W        W 9893  10.320   8.757  11.299 -0.1081 -0.0035 -0.0619
 5694W        W 9894   5.381   8.435   4.771  0.2126  0.0273 -0.0840
 5695W        W 9895   9.459   8.208  12.413  0.2579 -0.1594 -0.0046
 5696W        W 9896   5.871   1.482  10.306  0.0504  0.2288  0.2446
 5697W        W 9897   4.908   4.776   3.298 -0.1880  0.1711 -0.1417
 5698W        W 9898   4.892  10.075  11.222  0.0859 -0.2353 -0.0162
 5699W        W 9899   4.392   4.806   0.264  0.1491  0.0475 -0.2940
 5700W        W 9900   3.825   2.629  11.434 -0.0720  0.0758  0.2790
 5701W        W 9901   4.754   6.332   4.687 -0.2141 -0.1360 -0.2121
 5702W        W 9902   6.486   1.941   9.628  0.2482  0.2589 -0.1423
 5703W        W 9903   9.348   4.959   2.602  0.1593  0.0191  0.0898
 5704W        W 9904   3.345   8.220   2.676 -0.0743  0.1862  0.0211
 5705W        W 9905   1.131   1.015  11.927  0.0012  0.0394  0.1090
 5706W        W 9906   4.452   0.789   1.972  0.1176 -0.2542  0.1143
 5707W        W 9907   8.153   2.632  12.759 -0.2964  0.0196 -0.0162
 5708W        W 9908   1.031   5.789   3.118  0.1207  0.3478  0.2980
 5709W        W 9909   0.620   3.348  11.734 -0.3336  0.2009 -0.0379
 5710W        W 9910   6.831   4.426   9.004 -0.2107 -0.0821 -0.1407
 5711W        W 9911   2.709   4.792   0.614  0.2125 -0.0733 -0.1079
 5712W        W 9912   2.797   1.272  10.329 -0.1172 -0.2892  0.5543
 5713W        W 9913   0.062   4.468   3.181 -0.2978 -0.0670 -0.2076
 5714W        W 9914   9.275   9.065   4.572  0.1152 -0.2701  0.2883
 5715W        W 9915   4.829   6.940   0.398  0.0393  0.2486  0.0243
 5716W        W 9916   1.637   3.134   9.606 -0.1753 -0.1393  0.2415
 5717W        W 9917   4.795   4.845   4.630  0.1980 -0.0703  0.0549
 5718W        W 9918   9.946   0.298   0.034  0.3986 -0.2963  0.0856
 5719W        W 9919   6.917   0.837  11.148  0.4386  0.1545 -0.3070
 5720W        W 9920   7.515   7.029   9.427  0.0306  0.0743 -0.0564
 5721W        W 9921   8.902   6.469   0.438  0.0793  0.0176 -0.0097
 5722W        W 9922   2.377  10.064  13.376  0.0088  0.1075 -0.0788
 5723W        W 9923   3.460   8.928   1.101  0.2074 -0.0498 -0.1331
 5724W        W 9924   2.387   1.349   4.158  0.1215  0.1412  0.1737
 5725W        W 9925   4.775   7.940   0.992 -0.0592  0.2453  0.0004
 5726W        W 9926   0.737  10.226   0.522  0.0387 -0.1242 -0.0614
 5727W        W 9927  10.226   6.208  10.336 -0.2294 -0.1659 -0.3551
 5728W        W 9928   7.920   2.454   2.646  0.1349 -0.0361 -0.1445
 5729W        W 9929   5.190   7.681   9.182  0.0273 -0.2990  0.2258
 5730W        W 9930   5.389   4.326  13.078 -0.0421  0.0650  0.1676
 5731W        W 9931   6.965   6.889  10.089 -0.1655 -0.0579  0.0746
 5732W        W 9932   0.061   0.821  12.194  0.1804  0.2594  0.1131
 5733W        W 9933   6.421   3.289   9.778 -0.2181  0.0938 -0.0222
 5734W        W 9934   9.475   5.892  11.071  0.1739 -0.0324 -0.2666
 5735W        W 9935   1.551   8.344   1.693 -0.0982  0.1387 -0.1264
 5736W        W 9936   4.147   1.797  11.041  0.3535 -0.1119 -0.1043
 5737W        W 9937   2.486   7.965   0.585 -0.1560  0.2360  0.1522
 5738W        W 9938   1.898   8.957   2.479 -0.2100 -0.1115 -0.2294
 5739W        W 9939   3.805   6.462  10.961 -0.2096  0.1582  0.1674
 5740W        W 9940   5.227   2.425  11.256  0.0187 -0.0327  0.1424
 5741W        W 9941   6.834   2.912  11.261 -0.1115  0.0251  0.0575
 5742W        W 9942  10.322   8.442  12.920  0.1818  0.1859 -0.0234
 5743W        W 9943   1.548   4.115   0.987 -0.3371  0.2851 -0.3814
 5744W        W 9944   1.504   6.810   2.966  0.0789 -0.0303  0.0135
 5745W        W 9945   0.013   9.445  10.202 -0.2232  0.2543  0.1142
 5746W        W 9946   0.350   0.753  10.854 -0.1670  0.0951  0.3394
 5747W        W 9947  10.196   8.419   3.352  0.1724 -0.0085 -0.5123
 5748W        W 9948   6.147   9.923   0.517 -0.1217 -0.0308  0.3727
 5749W        W 9949   0.140   1.106   4.327 -0.0069  0.0714 -0.1354
 5750W        W 9950   4.435   4.086  13.083  0.4697  0.1062 -0.2245
 5751W        W 9951   4.127   2.012   1.033 -0.1400  0.1613 -0.0529
 5752W        W 9952   5.399   3.099  11.916  0.1738  0.0324 -0.2242
 5753W        W 9953   8.878   6.518  11.118  0.3470 -0.2187 -0.1213
 5754W        W 9954   4.567   3.718   2.651 -0.2629 -0.1369  0.1597
 5755W        W 9955   0.039   9.300  12.054  0.0831 -0.4876  0.1665
 5756W        W 9956   2.429   3.350   8.769 -0.2304 -0.1253  0.0473
 5757W        W 9957   5.473   1.752  10.526 -0.2241 -0.0008  0.1504
 5758W        W 9958   8.551   2.255   9.673 -0.0386  0.0275 -0.1613
 5759W        W 9959   0.824   2.820   2.891  0.3693 -0.4137 -0.2294
 5760W        W 9960   9.043   8.469   2.536 -0.1298 -0.1967  0.2448
 5761W        W 9961   8.625   5.383  10.937 -0.0799  0.0011  0.0891
 5762W        W 9962   0.351   0.928   8.959 -0.1044  0.0010 -0.1159
 5763W        W 9963   9.633   1.186  12.442 -0.0955 -0.1885  0.1325
 5764W        W 9964   5.584   0.769   1.892  0.0104  0.0709 -0.1458
 5765W        W 9965   7.237   4.213   3.242 -0.0741 -0.0997  0.2392
 5766W        W 9966   8.149   6.879  12.226  0.0090 -0.1053  0.1702
 5767W        W 9967   2.008   8.599  13.008  0.3469 -0.0257 -0.0717
 5768W        W 9968   5.942   0.226   0.973  0.1534  0.1093 -0.0149
 5769W        W 9969   5.802   9.660  11.115 -0.0315  0.3119 -0.0778
 5770W        W 9970   3.855   7.920  11.019  0.2788 -0.1372 -0.0364
 5771W        W 9971   2.521   1.243   1.244  0.3768  0.2607 -0.0119
 5772W        W 9972   8.448   0.642   2.617  0.0858 -0.0657  0.0448
 5773W        W 9973   6.922   5.243   9.476  0.0132 -0.0849  0.1919
 5774W        W 9974   9.899   8.048  10.825  0.0072 -0.0649  0.1999
 5775W        W 9975   8.323   3.313   4.695  0.0632 -0.0847 -0.1491
 5776W        W 9976   7.200   6.063   0.304  0.0176  0.2614  0.1094
 5777W        W 9977   7.421  10.194   2.192  0.0458  0.0049 -0.0802
 5778W        W 9978   2.256   9.630  11.177 -0.2818 -0.0439  0.1027
 5779W        W 9979   6.635   0.230   1.698  0.1660  0.0970 -0.0917
 5780W        W 9980   4.806   1.739  12.439 -0.3787 -0.1307  0.1410
 5781W        W 9981   0.938   8.958  13.467  0.0381 -0.1749  0.0393
 5782W        W 9982   7.563   5.385   1.016 -0.0291 -0.0757 -0.2539
 5783W        W 9983   7.844   5.404  11.355  0.1564  0.1080 -0.0671
 5784W        W 9984   6.855   0.366  10.884 -0.0124  0.2032 -0.1212
 5785W        W 9985   2.323   0.978  12.733  0.1272  0.0602 -0.0753
 5786W        W 9986   1.015   7.104   1.036 -0.0243  0.1837  0.1830
 5787W        W 9987   6.089   0.247  11.596  0.1000  0.0372 -0.0641
 5788W        W 9988  10.420   4.878   3.888  0.1956 -0.1293 -0.2112
 5789W        W 9989   9.463   9.806   9.461 -0.1435  0.0054  0.2402
 5790W        W 9990  10.111   1.470  13.457  0.0298 -0.0735 -0.2216
 5791W        W 9991   4.778   8.505   4.805  0.4068  0.1206  0.2900
 5792W        W 9992   7.012   9.257  11.799 -0.2347 -0.0419  0.0357
 5793W        W 9993   3.144   9.256   2.758 -0.0516 -0.1475  0.0700
 5794W        W 9994   9.655   1.537   2.669  0.1169 -0.1565  0.1513
 5795W        W 9995   3.270   4.678   1.774 -0.0836 -0.1543  0.0283
 5796W        W 9996   3.085   0.219   0.642 -0.1633  0.0332 -0.1518
 5797W        W 9997   5.668   0.593   9.837 -0.1235  0.0997  0.2662
 5798W        W 9998   7.507   8.809  11.026  0.1655  0.0936 -0.1359
 5799W        W 9999   7.517   1.898   3.754  0.0558  0.1990 -0.1679
 5800W        W10000   8.220   0.043   0.727 -0.1492  0.0745  0.1787
 5801W        W10001   9.038   0.689   3.567  0.2228 -0.2885 -0.2218
 5802W        W10002   1.955   8.300  10.211  0.0135 -0.0603  0.0437
 5803W        W10003   9.042   3.183  12.641 -0.2506 -0.0230  0.1193
 5804W        W10004   8.372   7.216   8.558 -0.1035 -0.3985  0.2980
 5805W        W10005   1.989   8.797  10.228  0.0045  0.0566 -0.0213
 5806W        W10006   3.576   9.132   9.350 -0.2315 -0.4418  0.0945
 5807W        W10007   0.863  10.262   9.293  0.0763  0.0991 -0.1014
 5808W        W10008   6.069  10.163   0.988 -0.3744  0.2674 -0.2167
 5809W        W10009   3.506   6.371  11.404 -0.1201  0.0121  0.1653
 5810W        W10010   7.282   7.651   0.468 -0.4551  0.1536 -0.1388
 5811W        W10011   6.037   7.579   2.998 -0.2838 -0.1457  0.2953
 5812W        W10012   8.836   0.799   5.530 -0.1636  0.2209  0.3173
 5813W        W10013   9.960  10.230  13.202 -0.0164 -0.1572 -0.0779
 5814W        W10014   7.612   8.315   2.970  0.0619 -0.2296  0.5454
 5815W        W10015   4.835   7.495   0.564 -0.0550  0.3510  0.1320
 5816W        W10016   0.004   0.375   2.954 -0.1409  0.1609 -0.0534
 5817W        W10017   4.122   8.323   1.416  0.0203 -0.1386  0.0954
 5818W        W10018   0.153  10.428   0.461  0.0750 -0.2243 -0.3090
 5819W        W10019   3.025   6.938   1.413  0.0207 -0.4059 -0.1321
 5820W        W10020   6.371  10.457  13.077  0.2056  0.2742  0.2360
 5821W        W10021   3.228   5.763   4.226  0.2290 -0.1906  0.1724
 5822W        W10022   8.454   6.674   9.811  0.1561 -0.1528 -0.0874
 5823W        W10023   4.451   0.256   9.089  0.1547 -0.2690 -0.3510
 5824W        W10024   6.963   0.253  11.813  0.0550 -0.1122 -0.1022
 5825W        W10025   6.470   2.062   2.443 -0.1976 -0.3990 -0.0736
 5826W        W10026   6.782   1.299   2.024  0.2376 -0.1320  0.2607
 5827W        W10027   1.247   0.464   9.968 -0.0560  0.1024 -0.1503
 5828W        W10028   7.601   8.273   1.989 -0.3754 -0.0585 -0.1410
 5829W        W10029   9.926   2.345   2.848  0.0991 -0.1029 -0.1138
 5830W        W10030   5.537   3.628   4.802  0.1187  0.0391  0.0001
 5831W        W10031   1.152   6.797  12.152 -0.1370  0.2058 -0.0371
 5832W        W10032   8.681   2.418   4.501 -0.0305  0.1007  0.4297
 5833W        W10033   6.712   1.173  13.290 -0.0489  0.1616  0.0008
 5834W        W10034   2.908   1.540   5.081  0.0322  0.0687  0.2398
 5835W        W10035   9.660   5.286   1.813 -0.2893  0.0618  0.0219
 5836W        W10036   1.541   8.558   2.239  0.1245 -0.0205 -0.1081
 5837W        W10037   1.490   9.558   0.370  0.0840  0.0104 -0.2902
 5838W        W10038   3.157   0.298   9.805  0.1419  0.3414  0.2008
 5839W        W10039   6.255   1.623  10.802  0.0609  0.1258  0.0784
 5840W        W10040   3.235   0.940   4.013 -0.0957 -0.6319  0.0408
 5841W        W10041   9.415   5.064   1.178 -0.3772  0.0343  0.0067
 5842W        W10042   2.964   5.208   1.468 -0.1423  0.0978  0.1359
 5843W        W10043   5.370   8.124   1.878  0.0278 -0.2141 -0.0772
 5844W        W10044   4.170   6.166   2.659 -0.0160  0.2244 -0.2561
 5845W        W10045   5.405   1.189   1.988 -0.4344  0.0987  0.0808
 5846W        W10046   6.941   1.592  10.360 -0.0504  0.1813 -0.1238
 5847W        W10047   5.023   5.633   0.072 -0.1763 -0.0558  0.2116
 5848W        W10048   9.158   2.731  12.448  0.1025  0.0093 -0.2794
 5849W        W10049   1.633   6.547  12.719 -0.0926 -0.0414 -0.0339
 5850W        W10050   2.189   6.178   2.942 -0.1224 -0.0771  0.1582
 5851W        W10051   2.030   8.537   5.134  0.3323  0.0697 -0.2076
 5852W        W10052   6.469   3.002  12.728  0.0454  0.0389  0.0861
 5853W        W10053   1.198   9.695   1.746  0.1722  0.0803 -0.1534
 5854W        W10054   8.964   9.253  10.578  0.1835 -0.0899  0.4071
 5855W        W10055   3.521   3.024  12.734 -0.0155 -0.0443  0.1401
 5856W        W10056   5.201   3.429   1.986  0.2106  0.4013 -0.1420
 5857W        W10057   3.446   2.598   4.175  0.0390 -0.0969  0.1636
 5858W        W10058   4.474   7.690   0.149 -0.1350  0.1934 -0.2180
 5859W        W10059   8.480   9.078  11.163 -0.1179  0.0247 -0.1496
 5860W        W10060   3.544   0.449   2.715 -0.0939  0.2698  0.2067
 5861W        W10061   3.365   1.807   4.935  0.0704  0.1145  0.0060
 5862W        W10062   2.720   1.186   5.682 -0.1973  0.2109 -0.0638
 5863W        W10063   4.260   2.543  12.119  0.1338 -0.1508  0.1457
 5864W        W10064   8.225   3.148   3.515 -0.1296  0.0638 -0.0080
 5865W        W10065   4.894   2.119  11.081 -0.5002  0.1757  0.1119
 5866W        W10066   8.464   7.414   1.665 -0.3365 -0.2382 -0.1040
 5867W        W10067   8.678   9.648  12.894 -0.0432 -0.1553  0.1159
 5868W        W10068   8.338   7.034   4.611 -0.0909  0.1475 -0.1658
 5869W        W10069   2.412   6.563   2.661 -0.1828 -0.0534  0.4099
 5870W        W10070   5.740   2.424  13.447 -0.0056 -0.0010  0.0874
 5871W        W10071   1.677   3.983  13.306 -0.2052 -0.1075 -0.4943
 5872W        W10072   4.929   1.039   2.676 -0.0986 -0.1178  0.3006
 5873W        W10073   2.154   7.106   1.426  0.3145  0.3285  0.0387
 5874W        W10074   1.614   7.393  11.294 -0.0720 -0.0846  0.2512
 5875W        W10075   4.091   0.647   3.187  0.2463 -0.3976 -0.1859
 5876W        W10076   0.061   8.442  13.364  0.2646 -0.1773  0.3560
 5877W        W10077   2.982   6.932  11.911  0.0161 -0.1246  0.0087
 5878W        W10078   5.661   6.566   1.005  0.2076  0.0218 -0.1631
 5879W        W10079   7.474   0.873  12.789  0.3682 -0.1689  0.1939
 5880W        W10080   3.366   2.862   2.590  0.2253  0.0324 -0.0028
 5881W        W10081   6.705   0.788   1.785  0.1618 -0.1540 -0.2444
 5882W        W10082   5.210   6.307   9.822 -0.0892  0.7182 -0.2372
 5883W        W10083   9.218   9.573   4.558 -0.0188 -0.3331  0.0886
 5884W        W10084   2.276   4.114   2.788 -0.0750 -0.3339 -0.0065
 5885W        W10085   2.943   4.506  12.581 -0.0297 -0.0712  0.1806
 5886W        W10086   9.111   3.014   4.485  0.1390 -0.1662 -0.0927
 5887W        W10087   7.246   3.183  10.237  0.2417  0.2473 -0.2607
 5888W        W10088   3.283   4.698  12.993 -0.0545 -0.0244 -0.1588
 5889W        W10089   1.797   3.733   1.534  0.3636 -0.0755  0.1095
 5890W        W10090   3.491   8.257   1.557  0.3000  0.0650  0.0175
 5891W        W10091   0.566   6.120  11.274  0.3446  0.2885 -0.1436
 5892W        W10092   5.238   7.760   0.399  0.1887  0.1746 -0.2042
 5893W        W10093   4.927   9.965   5.007  0.1091  0.2573  0.4409
 5894W        W10094   8.345   4.879  12.099  0.1034  0.3971  0.1074
 5895W        W10095   4.953   8.279   2.981  0.1805  0.0921  0.0680
 5896W        W10096  10.032   3.665  13.298 -0.2190  0.2737 -0.1581
 5897W        W10097   1.639   0.343   9.730 -0.1760 -0.0277  0.1385
 5898W        W10098   3.711   0.969  12.198 -0.3292  0.1258 -0.0458
 5899W        W10099   3.563   6.056   1.364 -0.1126  0.0912  0.2846
 5900W        W10100   4.128   9.985  12.188  0.0538  0.1347  0.0380
 5901W        W10101   0.475   9.457  11.667  0.3325 -0.0091  0.1695
 5902W        W10102   3.283   4.557   4.745 -0.1864 -0.0204  0.1999
 5903W        W10103   3.265   0.644   0.954  0.1558 -0.1168  0.1894
 5904W        W10104  10.349   1.763  11.386 -0.0905 -0.3855 -0.0454
 5905W        W10105   3.573   7.267   0.766  0.1198 -0.5010 -0.0447
 5906W        W10106   3.426   5.287  10.535  0.0230 -0.2106  0.0714
 5907W        W10107   2.390   3.035   9.134 -0.1836 -0.1234 -0.3219
 5908W        W10108   2.340   5.676  13.193  0.0667  0.3491 -0.2411
 5909W        W10109   7.200   1.092   1.818  0.1448 -0.0964 -0.2010
 5910W        W10110   5.472   5.130  10.889  0.0577  0.2595 -0.0179
 5911W        W10111   7.280   1.639   1.893  0.3716  0.0694  0.1215
 5912W        W10112   8.617   7.676  10.729  0.3747 -0.1707  0.0137
 5913W        W10113   2.467   0.252   2.508  0.2803  0.2218  0.1415
 5914W        W10114   9.374   4.722  12.372  0.0283 -0.1107  0.0952
 5915W        W10115   2.017   3.587  10.463 -0.1061 -0.0887 -0.2494
 5916W        W10116   0.316   2.773  10.828  0.1532 -0.1262 -0.0798
 5917W        W10117   4.138   9.924   2.251 -0.0755 -0.0264 -0.1526
 5918W        W10118   2.741   2.402   9.571  0.1601  0.1510 -0.1110
 5919W        W10119   3.214   1.869   3.550  0.0538  0.1225 -0.2338
 5920W        W10120   4.584   4.132  11.083  0.1181  0.2274  0.1510
 5921W        W10121   5.489   0.357   3.697 -0.1539 -0.1154 -0.1450
 5922W        W10122   4.229   5.829   8.790  0.1442  0.3694  0.0764
 5923W        W10123   3.593   2.726   0.625  0.1843  0.1476  0.2741
 5924W        W10124   3.075   6.432  12.390 -0.0844  0.2409 -0.3091
 5925W        W10125   5.463   4.565   5.185  0.2205 -0.2023  0.5039
 5926W        W10126   6.102   8.345   9.875 -0.2473 -0.0338  0.0427
 5927W        W10127   2.103   9.580   3.078 -0.0255  0.3065  0.1631
 5928W        W10128   6.049   1.971  10.558  0.2118  0.1782  0.0756
 5929W        W10129   5.974   3.408   9.701 -0.0474  0.1016 -0.4202
 5930W        W10130   3.904   5.547  10.288  0.2067 -0.4042 -0.0617
 5931W        W10131   0.283   4.972   0.323  0.2424 -0.1325 -0.0137
 5932W        W10132   5.691   0.682   3.361 -0.0119  0.3452  0.2948
 5933W        W10133   6.142   1.949  13.053 -0.2944  0.0220  0.0565
 5934W        W10134   8.943  10.334   3.250 -0.0257  0.0163  0.1100
 5935W        W10135   8.805   1.300  12.819  0.1073  0.2196 -0.0627
 5936W        W10136   4.003   5.128  11.978  0.0690 -0.0511 -0.2339
 5937W        W10137   7.160   4.921   5.410  0.2332  0.1668 -0.0733
 5938W        W10138   9.653   0.133   3.339 -0.3583 -0.2003 -0.2296
 5939W        W10139   8.021   1.675  11.558 -0.0828  0.0930  0.0268
 5940W        W10140   3.572  10.320   3.285 -0.1821  0.0246 -0.2847
 5941W        W10141  10.325   2.220  10.101  0.0091 -0.0508  0.2036
 5942W        W10142   6.581   4.410  10.581  0.0961  0.1144  0.0539
 5943W        W10143   7.939   0.943  11.062  0.0108 -0.2738 -0.2712
 5944W        W10144   9.645   8.981  12.399 -0.0357  0.0516  0.1553
 5945W        W10145   5.411   6.987   4.134 -0.2067  0.3221  0.2035
 5946W        W10146   6.130   0.543  13.145  0.1054 -0.1464  0.2788
 5947W        W10147   4.869   9.196   4.085 -0.1274 -0.0329  0.1951
 5948W        W10148   2.270   5.733  11.457 -0.4643  0.2161 -0.0257
 5949W        W10149   6.666   9.527  12.121 -0.0061 -0.1318 -0.0932
 5950W        W10150   9.319   4.212   2.993 -0.0263  0.1381  0.1444
 5951W        W10151   1.143   0.131   4.356  0.0060 -0.2170 -0.0677
 5952W        W10152   6.987   8.011   3.567  0.0113 -0.0820 -0.0392
 5953W        W10153   6.209   0.426   2.530  0.0546 -0.4036  0.3383
 5954W        W10154   8.709   8.842  10.322  0.0320  0.1579 -0.2699
 5955W        W10155   8.447   8.013   1.848 -0.1742 -0.1571 -0.3256
 5956W        W10156   2.052   1.754   4.310 -0.1799 -0.0521 -0.0494
 5957W        W10157   1.757   8.475   3.925  0.0652  0.0707 -0.0401
 5958W        W10158   2.631   9.348   3.884  0.0588  0.0208  0.0877
 5959W        W10159   8.007   0.554   0.659 -0.1069  0.1592  0.0405
 5960W        W10160   0.061   0.916  11.700 -0.3902 -0.0282  0.1287
 5961W        W10161   5.019   7.479  11.897 -0.0287 -0.1295 -0.0193
 5962W        W10162   5.396   7.977   3.429 -0.3276  0.1807  0.0802
 5963W        W10163   7.028   8.166   4.919  0.0240  0.2731  0.2155
 5964W        W10164   9.635   1.043   2.741 -0.0871 -0.0892 -0.0443
 5965W        W10165   3.763   8.684  11.578  0.0962  0.2375  0.2106
 5966W        W10166   9.950   1.506   9.395 -0.2192 -0.2101  0.0206
 5967W        W10167   3.066   3.390  10.247  0.1457 -0.1307  0.0568
 5968W        W10168   3.655   9.500   4.712 -0.2253 -0.1923  0.0040
 5969W        W10169   4.710   2.007   9.166 -0.1528  0.1526 -0.0824
 5970W        W10170   5.078   8.929   3.582  0.0241  0.1211 -0.2280
 5971W        W10171   6.964   7.581  12.710  0.1563 -0.2071 -0.0673
 5972W        W10172   1.249   5.499  12.593  0.1194 -0.0406  0.1997
 5973W        W10173   9.620   8.429  10.704  0.2253 -0.1170 -0.0203
 5974W        W10174   8.124   7.242   0.411  0.0709 -0.0174 -0.2098
 5975W        W10175   7.930   5.500   3.202 -0.0738  0.1140  0.2738
 5976W        W10176   6.607   0.217   0.441 -0.3281  0.0926 -0.0299
 5977W        W10177   2.614   8.257   0.144 -0.1948 -0.3162  0.0163
 5978W        W10178   1.898   6.947  11.337 -0.0768  0.2937 -0.1482
 5979W        W10179   8.730   4.085   0.073  0.2656  0.1690 -0.2669
 5980W        W10180   4.065   5.356  11.020  0.3074  0.2756 -0.0709
 5981W        W10181   2.947   7.984  11.233  0.0988 -0.1749  0.2076
 5982W        W10182   0.430   9.158  10.156  0.0580  0.5014  0.2833
 5983W        W10183   3.154  10.212  13.331  0.1279  0.0913 -0.2319
 5984W        W10184   6.770   6.730   3.644 -0.0657 -0.2515  0.0089
 5985W        W10185   1.106   8.139  10.550  0.0938  0.1004  0.1724
 5986W        W10186   3.188   0.423   2.400  0.1260 -0.1648  0.0321
 5987W        W10187   4.658   4.385  11.728  0.0494  0.0782  0.0825
 5988W        W10188   8.555   7.785  11.217  0.1027 -0.1184  0.3741
 5989W        W10189   2.675   0.545   4.651 -0.2422  0.0547  0.0483
 5990W        W10190   7.376   8.816   0.430  0.2672 -0.2815 -0.3364
 5991W        W10191   6.051   7.199  12.807  0.1467 -0.4055 -0.3798
 5992W        W10192   3.342   6.329   9.850  0.0834 -0.0199 -0.0478
 5993W        W10193   3.732   5.490  11.330  0.0709  0.2565 -0.0151
 5994W        W10194   4.394   4.831  11.992  0.0963 -0.1016 -0.1843
 5995W        W10195   5.557  10.301   0.843 -0.1967  0.3949  0.6300
 5996W        W10196   9.013   4.947  13.329 -0.0400 -0.1156  0.0841
 5997W        W10197   5.030   5.515   9.264 -0.0770 -0.0171 -0.3161
 5998W        W10198   3.137   5.820  11.094  0.0269  0.2166  0.3177
 5999W        W10199   2.284   9.443   4.695 -0.0739 -0.2413 -0.2253
 6000W        W10200  10.369   6.425   2.408 -0.1092 -0.0853 -0.2255
 6001W        W10201   4.570   1.434   3.706  0.1751 -0.0880  0.2342
 6002W        W10202   2.284   4.813  12.832  0.5477  0.0495  0.1913
 6003W        W10203   6.406   8.073   1.085  0.1571  0.0464 -0.1439
 6004W        W10204   4.935   0.172   9.929 -0.1611 -0.2287 -0.1009
 6005W        W10205   3.584   7.271  11.296 -0.0732 -0.3536  0.0253
 6006W        W10206   2.428   7.166   2.220  0.3098  0.2041 -0.2803
 6007W        W10207   0.548   0.042   2.035 -0.3549  0.0490 -0.0762
 6008W        W10208   2.261  10.062  10.612 -0.0950 -0.1888  0.0998
 6009W        W10209   0.386   8.536  12.901  0.1664  0.0264 -0.0555
 6010W        W10210  10.244   2.195   9.206  0.1042  0.0330  0.1064
 6011W        W10211   8.096   7.665   4.357 -0.3473  0.3006  0.2785
 6012W        W10212   6.654   0.698  13.187 -0.2180 -0.1608  0.1078
 6013W        W10213   4.549   5.876   1.831 -0.0599 -0.0435  0.0210
 6014W        W10214   5.618   1.835   1.214 -0.1155 -0.0881 -0.0525
 6015W        W10215   5.744   9.197   8.630  0.0917 -0.0881  0.0240
 6016W        W10216   5.680   8.473   2.564  0.0980  0.1730 -0.2287
 6017W        W10217   0.580   0.117  12.009 -0.1636  0.0551 -0.3048
 6018W        W10218   6.571   9.954   0.916  0.1700 -0.0603  0.0387
 6019W        W10219   9.541   3.158  11.757  0.3092  0.1127 -0.0987
 6020W        W10220   8.682   3.845  12.043 -0.0699 -0.0680  0.2997
 6021W        W10221   6.045   0.830   0.962 -0.0371  0.0500 -0.1163
 6022W        W10222   6.490   3.341   4.460 -0.0044 -0.1145  0.0515
 6023W        W10223   1.493   2.083   3.151  0.2560 -0.2675 -0.1340
 6024W        W10224   0.083   2.310  10.967  0.0525 -0.0127 -0.0745
 6025W        W10225   8.904  10.408   0.346 -0.1640  0.2111 -0.1475
 6026W        W10226   4.858   3.489   9.774 -0.0374  0.0621 -0.2032
 6027W        W10227   6.893   7.095   4.048 -0.0743  0.0806 -0.0158
 6028W        W10228   5.336   2.713  10.275 -0.2792  0.1786  0.2065
 6029W        W10229   9.833   6.533  10.374  0.2328  0.0285  0.1789
 6030W        W10230   2.687   7.975   9.723 -0.2119 -0.3762 -0.2008
 6031W        W10231   4.072   0.678  11.068 -0.0653 -0.0488 -0.2124
 6032W        W10232   2.370   0.906   3.024  0.2086 -0.3370  0.2329
 6033W        W10233   7.272   6.581   2.363 -0.0405 -0.0540  0.0063
 6034W        W10234   4.103   0.787   1.559  0.0597  0.0347 -0.3232
 6035W        W10235   0.761   2.820  10.530  0.3218  0.0881  0.0561
 6036W        W10236   0.625   4.390  12.859  0.0794 -0.1687 -0.2101
 6037W        W10237   3.152   0.990   0.537 -0.0291  0.0643 -0.3335
 6038W        W10238   1.542   6.820   3.464 -0.2241 -0.1892  0.0485
 6039W        W10239   6.582   6.916  11.944 -0.0387 -0.1563 -0.0052
 6040W        W10240   7.922   7.345   8.751 -0.0623  0.2860 -0.0611
 6041W        W10241   0.164   6.228  12.385  0.0538 -0.5293  0.0757
 6042W        W10242   4.588   1.991  11.459 -0.0934 -0.6694  0.0535
 6043W        W10243   3.436   5.206   1.433 -0.0464  0.4968  0.2207
 6044W        W10244   2.799   7.254  10.369  0.0307 -0.1693 -0.1413
 6045W        W10245   8.216   2.396   3.033 -0.1351 -0.1437 -0.1564
 6046W        W10246   9.966   5.736   2.453 -0.0319 -0.1305 -0.2038
 6047W        W10247  10.043   5.908   0.950  0.0579  0.0030 -0.1882
 6048W        W10248   3.468   8.081  11.327  0.1806  0.1603  0.1894
 6049W        W10249   0.579   1.720   5.135 -0.0244  0.3018  0.1560
 6050W        W10250  10.111   9.042   2.835 -0.1507 -0.2024  0.0172
 6051W        W10251   4.063   6.546   0.272  0.1068 -0.1510 -0.0028
 6052W        W10252  10.225   8.554  10.119  0.1879 -0.2368  0.1029
 6053W        W10253   2.415   3.579   4.435 -0.1227  0.0002  0.1890
 6054W        W10254   2.798   4.590  11.104 -0.0753  0.0684 -0.0768
 6055W        W10255   4.970   4.514   2.454  0.1281  0.2553 -0.0768
 6056W        W10256   1.353   7.520  12.484  0.0830 -0.0284 -0.1721
 6057W        W10257   3.807  10.122   1.473  0.1012 -0.0618  0.0667
 6058W        W10258   9.025   6.421  13.216  0.0058 -0.2415 -0.1918
 6059W        W10259   1.766   9.367   3.382 -0.0412  0.1797  0.0388
 6060W        W10260   6.211   1.855   0.060 -0.0750  0.3165  0.0722
 6061W        W10261   3.099   5.432  10.187 -0.0781 -0.2142 -0.1831
 6062W        W10262   7.917   9.035   5.408  0.2030  0.1629  0.3437
 6063W        W10263   4.679   4.206   1.690  0.1430 -0.1182 -0.2171
 6064W        W10264   6.552   2.079  10.198  0.0816 -0.2294 -0.5099
 6065W        W10265   2.556   1.890   2.349  0.0755 -0.0514  0.3142
 6066W        W10266   8.507   9.637   0.943 -0.2238 -0.0858 -0.0445
 6067W        W10267   9.670   8.854  10.411 -0.3611  0.0023  0.1751
 6068W        W10268   5.750   2.692   9.444  0.2170  0.3136 -0.0349
 6069W        W10269   4.914   7.457   2.307 -0.0404  0.0934 -0.2621
 6070W        W10270   5.746  10.423   1.945  0.0185 -0.1144 -0.0941
 6071W        W10271   0.749  10.353   3.601  0.3947  0.1425  0.1853
 6072W        W10272  10.077   9.737  11.924 -0.1077  0.0590  0.0136
 6073W        W10273   1.713   9.549   4.149  0.3791 -0.2386  0.0448
 6074W        W10274   5.764   4.430   4.370  0.0202 -0.0130 -0.0068
 6075W        W10275   7.521   6.803  12.109 -0.1839  0.1866 -0.2065
 6076W        W10276   6.977   3.141   3.708 -0.1770  0.0631 -0.1151
 6077W        W10277   9.152   2.215   0.675 -0.3138 -0.1445 -0.3123
 6078W        W10278   2.981   8.854   0.968 -0.1061 -0.1402 -0.3357
 6079W        W10279   7.213   7.301   3.658 -0.2320  0.1497 -0.3310
 6080W        W10280   3.435   8.594  13.216 -0.0305  0.2398  0.1487
 6081W        W10281   4.476   3.817   1.512 -0.0213  0.1535  0.2734
 6082W        W10282   0.305   5.636  13.432  0.2140  0.1549  0.0123
 6083W        W10283   3.860   9.245  11.721  0.1968 -0.1439 -0.0655
 6084W        W10284   7.725   7.580   1.666 -0.1287 -0.0483  0.0282
 6085W        W10285   9.343   6.019   1.050  0.2466  0.0436 -0.2032
 6086W        W10286   4.957   9.104  13.325 -0.1115 -0.0467  0.2249
 6087W        W10287   5.203   2.789   3.318 -0.1693 -0.3789 -0.2884
 6088W        W10288   7.905   0.829   2.377 -0.1271  0.0672 -0.1105
 6089W        W10289   1.823   7.868   1.010  0.1374 -0.0825 -0.1214
 6090W        W10290   9.821   2.544   1.311 -0.1190  0.0728  0.2681
 6091W        W10291   3.312   1.130  12.554 -0.2281 -0.1124 -0.1954
 6092W        W10292   5.297   8.572   1.475 -0.1134 -0.0801 -0.2231
 6093W        W10293   2.808   8.683   2.140  0.0192  0.0803  0.1942
 6094W        W10294   2.827   8.635  13.254 -0.0587 -0.2013  0.4384
 6095W        W10295   5.873   2.871  11.969 -0.0844 -0.1030  0.1814
 6096W        W10296   3.405   5.859  11.597 -0.2177 -0.3519 -0.2672
 6097W        W10297   0.147   4.400  11.101 -0.0936  0.0364 -0.0498
 6098W        W10298   9.224   0.864  10.915  0.0739 -0.1322 -0.1787
 6099W        W10299   2.890   3.313   9.005 -0.2513 -0.1607 -0.2562
 6100W        W10300   1.893  10.416  11.430 -0.1411  0.0746 -0.3223
 6101W        W10301   3.228   3.691   4.032  0.0119  0.0685  0.2514
 6102W        W10302   6.380   3.146   3.500  0.0373 -0.0378  0.1214
 6103W        W10303   0.177   1.334  13.340  0.1886 -0.2456 -0.3195
 6104W        W10304   7.138   2.415   2.974 -0.0665 -0.1115 -0.4764
 6105W        W10305   0.990   0.502   3.735 -0.0290  0.0279  0.2128
 6106W        W10306   9.270   1.340   3.040  0.0923 -0.1508 -0.0731
 6107W        W10307   5.437   4.753   0.526 -0.0371  0.2113 -0.0654
 6108W        W10308   5.047   8.327   4.371 -0.3474  0.0714  0.0865
 6109W        W10309   4.053   4.467   2.888  0.1382  0.1467  0.0332
 6110W        W10310   0.979   7.729   1.890 -0.3042 -0.2329  0.0597
 6111W        W10311   7.211   9.459  13.452 -0.0327  0.1120 -0.1064
 6112W        W10312   4.180   3.591   3.733 -0.1078 -0.1813 -0.0937
 6113W        W10313   4.130   0.321   9.499  0.2248 -0.2622 -0.2343
 6114W        W10314   8.672   9.378   3.814  0.0649 -0.3348  0.1772
 6115W        W10315   1.824   9.168   1.274 -0.2146  0.3195  0.0165
 6116W        W10316   8.467   1.662  11.723  0.0193 -0.0553 -0.0437
 6117W        W10317   9.156   6.502   1.103 -0.0190 -0.0653 -0.1775
 6118W        W10318   5.717   1.704   2.089 -0.1398  0.1575 -0.1962
 6119W        W10319   7.515   9.145   9.603  0.0032  0.1336 -0.2230
 6120W        W10320   8.778   7.703   0.065  0.1167 -0.1879 -0.0693
 6121W        W10321   5.070   7.221   0.087 -0.3234  0.0556 -0.2770
 6122W        W10322   4.869   5.009   1.757 -0.2592  0.2195  0.0250
 6123W        W10323   2.652   5.075   4.192 -0.2741  0.3730  0.1152
 6124W        W10324   4.819   1.343   0.764  0.0654 -0.1360  0.3600
 6125W        W10325   2.983   9.878   3.570  0.0011 -0.0765  0.0813
 6126W        W10326   2.453   0.850   5.381 -0.1454  0.0866  0.0769
 6127W        W10327   7.781   0.185  13.295  0.0802  0.3845  0.1969
 6128W        W10328   6.100   6.785  11.504 -0.0260 -0.0100 -0.1362
 6129W        W10329   6.922   7.571   3.400 -0.0183 -0.1725  0.1623
 6130W        W10330   6.646   2.421   9.860 -0.1009 -0.0780 -0.0673
 6131W        W10331   6.292   6.085  10.660  0.0587  0.1962 -0.4098
 6132W        W10332   9.522   0.382   4.877  0.0469 -0.2603 -0.1789
 6133W        W10333   1.848   9.514  10.812 -0.0030 -0.0472 -0.0548
 6134W        W10334  10.389   6.783  11.119 -0.5220 -0.1071  0.1038
 6135W        W10335   4.195   0.333   1.940  0.1818  0.1462  0.2754
 6136W        W10336   2.228   0.162  12.909  0.3443  0.0787  0.0748
 6137W        W10337   5.330   4.556  10.788  0.0866  0.3254 -0.1813
 6138W        W10338   5.096   8.696  11.401 -0.0485 -0.5464 -0.1067
 6139W        W10339   7.015   1.081   4.330 -0.2290 -0.0301  0.3444
 6140W        W10340   8.793   6.773   2.041 -0.3845 -0.2189 -0.0130
 6141W        W10341   9.415   8.331   0.527 -0.1685 -0.0616 -0.0885
 6142W        W10342   6.162   4.205  10.243 -0.1450  0.3320  0.0202
 6143W        W10343   9.917   7.678   1.513 -0.1466  0.1599  0.1661
 6144W        W10344  10.393   2.076   8.769  0.1184  0.2241 -0.1287
 6145W        W10345   9.134   0.156  10.344  0.0622  0.0096 -0.1496
 6146W        W10346   8.775   9.692   4.752 -0.0421  0.0782  0.0429
 6147W        W10347   5.049   2.170   8.848 -0.3372  0.2299 -0.0017
 6148W        W10348   3.601   3.955  11.994 -0.1066  0.0962 -0.3194
 6149W        W10349   9.084   0.608  10.549 -0.0582  0.1819 -0.0626
 6150W        W10350   1.980   3.706   9.566 -0.0397  0.0987 -0.5487
 6151W        W10351   8.827   6.325  11.938 -0.0801  0.0602  0.0586
 6152W        W10352   2.734   3.967   1.176  0.0643 -0.2693  0.0191
 6153W        W10353   8.223   9.673  12.666 -0.0563 -0.3035  0.0417
 6154W        W10354   5.756  10.175   9.923  0.0456  0.1452  0.1143
 6155W        W10355   7.149   1.350   0.202  0.1664 -0.2159  0.1320
 6156W        W10356  10.219   1.755   4.741  0.0209  0.1348  0.1259
 6157W        W10357   3.695   1.709   8.353 -0.0230 -0.2206 -0.2790
 6158W        W10358   9.406   5.414  10.774 -0.1177  0.2324 -0.0475
 6159W        W10359   7.289   2.287   2.178  0.0337  0.2209 -0.0141
 6160W        W10360   8.256   8.503   1.697 -0.4558  0.1864 -0.0597
 6161W        W10361   9.311   9.214   5.036  0.2950 -0.1157 -0.3587
 6162W        W10362   9.338   4.574   2.270  0.0446  0.1927  0.0088
 6163W        W10363   7.591   1.581   1.113  0.3255  0.1668 -0.1353
 6164W        W10364   0.395   6.268   3.526 -0.0466 -0.2292  0.1232
 6165W        W10365   4.710   7.523   4.127 -0.0246  0.2234 -0.1317
 6166W        W10366   2.575   1.831   4.410 -0.2616  0.0786 -0.1073
 6167W        W10367   9.172   0.569   0.150  0.2459  0.1142 -0.2919
 6168W        W10368   1.343   7.378  13.353 -0.1035 -0.1676 -0.3881
 6169W        W10369   7.698   6.596   9.154 -0.0026 -0.1932 -0.0471
 6170W        W10370   5.980   5.866   2.303  0.1015 -0.0885  0.0676
 6171W        W10371   0.794   8.450  13.124  0.3174  0.0072  0.1862
 6172W        W10372   8.457   5.159   2.543 -0.0140  0.0009 -0.0246
 6173W        W10373   9.487   9.849  10.049  0.1772 -0.0588  0.3689
 6174W        W10374   3.456   2.316  11.439 -0.0210  0.0156 -0.1718
 6175W        W10375   7.083   4.315   9.931  0.0062  0.0037  0.4317
 6176W        W10376   7.949   8.827   3.406 -0.2058  0.1393  0.1769
 6177W        W10377   1.297   7.732   0.862  0.2286  0.2869  0.0180
 6178W        W10378   7.872   4.370  10.952  0.1031  0.0720  0.3034
 6179W        W10379   6.284   8.531  10.564 -0.0547  0.0261 -0.1651
 6180W        W10380   3.480   9.925  11.573 -0.0674 -0.1616 -0.2398
 6181W        W10381   5.561   9.229  12.679  0.0020 -0.0872 -0.0361
 6182W        W10382   0.357   2.249  12.433 -0.1073 -0.0348  0.2136
 6183W        W10383   9.393   9.045  12.869 -0.1129  0.0086 -0.0745
 6184W        W10384   8.885   4.975   2.361  0.1482 -0.0444 -0.1791
 6185W        W10385   6.596   0.612  12.643  0.1780 -0.1823  0.3000
 6186W        W10386   3.113   5.436  12.711 -0.1534  0.0124  0.0903
 6187W        W10387   4.588   8.960   9.449  0.5368 -0.1637 -0.3684
 6188W        W10388   7.896   1.170  11.958 -0.1741 -0.3380  0.0983
 6189W        W10389   9.939   0.696   2.193 -0.0840 -0.2827  0.0371
 6190W        W10390   7.861   4.454   2.078 -0.1458 -0.0844 -0.3858
 6191W        W10391   9.490   7.217   2.314 -0.0205 -0.0747  0.0120
 6192W        W10392   8.134   9.303   1.163  0.0648 -0.0488  0.1820
 6193W        W10393   7.187   1.922   0.919  0.0040  0.1426  0.0930
 6194W        W10394   8.083   8.312   2.771 -0.4533  0.0225 -0.0450
 6195W        W10395   0.809   2.219   0.881 -0.2481  0.5627  0.1038
 6196W        W10396   9.718   0.214   5.666 -0.1577 -0.4004  0.2661
 6197W        W10397   0.439   3.806  11.664  0.1147  0.0155  0.2146
 6198W        W10398   1.459  10.065  10.150  0.0787 -0.1003 -0.0146
 6199W        W10399   7.402   8.308   0.508 -0.2114 -0.1422  0.1201
 6200W        W10400   9.137   4.241  12.313  0.2964 -0.2834 -0.1490
 6201W        W10401   8.393  10.067  11.083 -0.3004 -0.2021  0.1722
 6202W        W10402   5.568   5.215   0.363  0.0849 -0.1413  0.1676
 6203W        W10403   1.486   5.605  12.016  0.0084 -0.1074 -0.1145
 6204W        W10404   7.274   8.529  10.645  0.1871 -0.0442  0.0733
 6205W        W10405   8.154   3.742   3.419  0.0642 -0.0110  0.0151
 6206W        W10406   0.004   4.941  12.060 -0.0163 -0.0779  0.1814
 6207W        W10407   8.127   1.884   0.948 -0.1451 -0.2303 -0.2036
 6208W        W10408   4.417  10.111  11.726  0.4781 -0.1375  0.3668
 6209W        W10409   6.478   3.326   1.949  0.2179 -0.0390  0.0739
 6210W        W10410   5.895   4.647   0.686  0.1925 -0.1431 -0.1521
 6211W        W10411   8.481   1.413   3.869 -0.1853  0.0698  0.2637
 6212W        W10412   8.157   6.275   1.525  0.1147  0.4207  0.1586
 6213W        W10413   5.412   0.951  11.655  0.0082  0.2075  0.1011
 6214W        W10414   5.482   4.277   9.644  0.0105 -0.0158 -0.2688
 6215W        W10415   4.942   6.348  10.445 -0.1024 -0.2444  0.0709
 6216W        W10416   8.259   7.417   2.972  0.1908 -0.1216  0.0653
 6217W        W10417   7.753   1.542   5.384 -0.0687  0.3323  0.2331
 6218W        W10418   8.141   0.780  12.101 -0.0761 -0.0858 -0.0288
 6219W        W10419   8.336   2.258   1.279 -0.0281  0.0769 -0.1313
 6220W        W10420   1.090   5.439   2.425 -0.1425  0.1870 -0.2532
 6221W        W10421   4.850   5.992  11.327  0.0088 -0.1981 -0.0499
 6222W        W10422   3.156   5.910  12.631  0.1044 -0.1000 -0.0653
 6223W        W10423   4.115   8.653   8.549  0.0914 -0.1768 -0.3404
 6224W        W10424   5.043   3.946   1.915 -0.4549 -0.1434  0.0864
 6225W        W10425   0.548   4.745   3.699  0.1832 -0.2734  0.0051
 6226W        W10426   3.841   3.310   0.833  0.0468  0.1304  0.0217
 6227W        W10427   5.152   0.504   1.517  0.2118  0.1455 -0.0366
 6228W        W10428   8.428   1.928   3.774 -0.1967 -0.0090 -0.2630
 6229W        W10429   6.880   0.850   2.902 -0.3867 -0.0146  0.1908
 6230W        W10430   9.423   7.027  11.728  0.2631 -0.1488 -0.0966
 6231W        W10431   4.737   5.147  13.354  0.1946 -0.1159  0.2015
 6232W        W10432   9.621   7.801  12.810 -0.2419  0.0008  0.0780
 6233W        W10433   4.126   4.047   3.408  0.2639 -0.1935 -0.1753
 6234W        W10434   3.126   4.493   3.447  0.1645 -0.1949  0.4287
 6235W        W10435   7.650   9.321  10.896  0.0344  0.1943  0.1625
 6236W        W10436   7.008   5.533   3.680 -0.2600  0.0583 -0.0570
 6237W        W10437   0.414   6.179   2.587  0.1032 -0.0228 -0.0589
 6238W        W10438   7.303   0.918   9.457 -0.0682  0.2560  0.0095
 6239W        W10439   0.399   6.667   2.397  0.0611 -0.1519 -0.3118
 6240W        W10440   8.134   0.916   4.699 -0.0806  0.1574  0.0771
 6241W        W10441   5.113   4.086   3.763 -0.2783  0.1056  0.1212
 6242W        W10442   9.370   9.334   9.268 -0.2062  0.1713 -0.1087
 6243W        W10443   3.860   1.497   9.843 -0.0478 -0.0388  0.2105
 6244W        W10444   1.048   4.324   1.679 -0.1666 -0.2032 -0.0878
 6245W        W10445   1.106   5.696  10.570 -0.3027  0.1758  0.0561
 6246W        W10446   3.442   8.018   9.304 -0.1022 -0.3165  0.0529
 6247W        W10447   0.479   4.039  10.563  0.0683  0.0535  0.0874
 6248W        W10448   4.325   9.489   2.376  0.2855 -0.0371 -0.1318
 6249W        W10449   0.231   4.372  12.474  0.0421 -0.1106 -0.1901
 6250W        W10450   4.023  10.217  11.373  0.0506 -0.0641 -0.0197
 6251W        W10451   1.679   3.885  10.244  0.1004 -0.2857 -0.1012
 6252W        W10452   2.941   7.926   9.228  0.1924 -0.2299 -0.1387
 6253W        W10453   6.835   6.282   2.430 -0.0946 -0.0088 -0.5445
 6254W        W10454   3.697   2.799   3.443 -0.3613  0.0593  0.1664
 6255W        W10455   5.976   3.009   1.570 -0.1873  0.0581  0.1398
 6256W        W10456   2.355   8.333  12.060  0.2532  0.2212 -0.2348
 6257W        W10457   1.103   0.175   3.372 -0.1724  0.0068  0.0519
 6258W        W10458   2.251   0.033   4.448  0.1835  0.2339  0.2678
 6259W        W10459   4.754   6.598   1.529  0.2080  0.0262  0.2138
 6260W        W10460   0.319   2.318  13.110 -0.1127 -0.2642  0.1271
 6261W        W10461   8.954   8.682   0.113 -0.1580 -0.1286 -0.2204
 6262W        W10462   0.947   0.954   3.952 -0.1239 -0.3193  0.1397
 6263W        W10463   8.662   5.591   2.794  0.3337  0.0932 -0.0125
 6264W        W10464   9.043   7.151  10.580  0.0045  0.2876  0.2108
 6265W        W10465   3.367   6.432   3.782  0.3240  0.2210  0.2746
 6266W        W10466   4.752   7.353   3.479 -0.2417  0.0113  0.1167
 6267W        W10467   4.675   8.438   0.812  0.1851 -0.2965 -0.0214
 6268W        W10468   2.405   8.175  10.078  0.0957 -0.1416 -0.0941
 6269W        W10469   1.458   0.578  11.264 -0.1708  0.1256  0.0114
 6270W        W10470   2.720   3.348  10.674 -0.0087  0.0206 -0.0121
 6271W        W10471   8.703  10.135   4.336 -0.3969  0.1409 -0.2364
 6272W        W10472   8.640   1.530   2.504  0.1729 -0.2160  0.1443
 6273W        W10473   5.146   8.020  11.760 -0.1078  0.2487 -0.2534
 6274W        W10474   9.926   9.378  12.200 -0.0337  0.0195 -0.0145
 6275W        W10475   8.800   8.716   3.184 -0.2207 -0.0248 -0.2167
 6276W        W10476   4.845   8.187   1.770 -0.1034 -0.1309  0.0501
 6277W        W10477   8.599   7.801  11.689  0.1087  0.1597  0.2637
 6278W        W10478  10.248   0.091   1.300  0.1848  0.0857  0.0407
 6279W        W10479   1.583   0.335   5.614 -0.0607  0.1540  0.2908
 6280W        W10480   9.108  10.121   1.557  0.0478 -0.1791  0.0310
 6281W        W10481   7.443   3.983   0.267 -0.2248  0.2139 -0.0521
 6282W        W10482   9.248   8.950   2.384 -0.2034  0.0132  0.0192
 6283W        W10483   7.890  10.277  10.739 -0.2175 -0.0646  0.1055
 6284W        W10484  10.194   3.337  11.271 -0.0496  0.1051  0.1806
 6285W        W10485   6.958   8.276   1.031  0.0103 -0.0824 -0.0303
 6286W        W10486   9.926   3.444   0.271  0.0249 -0.1361  0.0996
 6287W        W10487   6.640  10.087  12.188 -0.0649  0.2970  0.0190
 6288W        W10488   8.860   5.167  12.647  0.2943 -0.0956 -0.0829
 6289W        W10489   6.334   9.191   2.714 -0.1415 -0.0950  0.0929
 6290W        W10490   6.884   2.403   0.010  0.0009  0.2108 -0.2876
 6291W        W10491   9.812   7.456   3.376 -0.0434 -0.1558 -0.2485
 6292W        W10492   0.257   7.923   3.288 -0.0943 -0.0389 -0.0059
 6293W        W10493   6.027   6.963   4.722 -0.1600 -0.0451  0.0573
 6294W        W10494   4.560   5.320  10.842  0.1195 -0.6059  0.3374
 6295W        W10495   2.462   9.914   4.693 -0.0925  0.0292  0.0297
 6296W        W10496   1.221   4.186   9.509 -0.0046 -0.2487  0.0095
 6297W        W10497   0.981   7.833  11.016 -0.2894  0.1046  0.2236
 6298W        W10498   6.982   6.871   9.576 -0.2699 -0.1143 -0.0335
 6299W        W10499   6.309   5.766  12.426 -0.0281 -0.3331 -0.2442
 6300W        W10500   3.786   4.651   4.674  0.1921  0.1420  0.0792
 6301W        W10501   7.742   8.810   3.863  0.3265  0.0154 -0.2278
 6302W        W10502   7.872   4.226   9.679 -0.2208  0.1376 -0.3336
 6303W        W10503   8.309   2.927  10.819 -0.0923 -0.0252  0.2460
 6304W        W10504   4.985   2.968   2.222 -0.0932  0.1523  0.0245
 6305W        W10505   8.092   2.488   4.415  0.1539 -0.0154  0.1069
 6306W        W10506   5.464   9.190   3.310 -0.1582  0.2676 -0.2734
 6307W        W10507   4.728   0.568  12.756 -0.1061 -0.0732  0.2576
 6308W        W10508   0.017   5.315   1.693 -0.0448 -0.0079 -0.0727
 6309W        W10509   2.303   2.973   0.445 -0.1026  0.1573 -0.1103
 6310W        W10510   0.139   9.418  12.699 -0.0315 -0.1828  0.1567
 6311W        W10511   7.776   5.299  10.851 -0.0195 -0.1710  0.1135
 6312W        W10512   9.277   6.178   0.247  0.1801  0.0813 -0.0448
 6313W        W10513   1.580   1.756   5.209 -0.0259 -0.3142  0.0220
 6314W        W10514   6.603   2.244   2.902  0.0921  0.0074  0.1093
 6315W        W10515   1.483   9.086  11.629 -0.0573  0.0072  0.3209
 6316W        W10516   5.922   6.147   9.503  0.1497  0.1220 -0.0949
 6317W        W10517   2.998   1.454  11.301 -0.3555  0.0041 -0.1964
 6318W        W10518   6.994   5.290  11.968  0.0578 -0.1581 -0.2111
 6319W        W10519   7.319   5.824   3.944  0.3260 -0.2754 -0.0796
 6320W        W10520   9.889   4.514  11.704 -0.0415  0.1477 -0.0591
 6321W        W10521   2.581   9.691   8.750 -0.1265  0.1554  0.4999
 6322W        W10522   8.057   4.140   0.873  0.0173  0.0225 -0.0267
 6323W        W10523   0.152   6.919   0.442  0.0437  0.1584 -0.2329
 6324W        W10524   4.626   5.521  12.715  0.0221  0.1082  0.1200
 6325W        W10525   4.497   6.723   0.104 -0.0313  0.2752  0.0749
 6326W        W10526   3.968   7.195   2.375  0.0344 -0.0067 -0.0575
 6327W        W10527   2.723   4.786   2.479 -0.1527  0.1645 -0.2955
 6328W        W10528   5.987   4.614   2.330  0.1703 -0.3183 -0.1833
 6329W        W10529   7.190   0.749  10.517  0.1304 -0.2778 -0.0331
 6330W        W10530   2.747   1.041   3.830 -0.3233  0.0161 -0.0563
 6331W        W10531   4.934   0.589   0.006  0.0324 -0.1734 -0.1593
 6332W        W10532   5.503   7.795   9.572 -0.0940  0.0904 -0.0879
 6333W        W10533   9.749   6.376   0.973 -0.1677 -0.1637 -0.0493
 6334W        W10534   1.164   3.344  12.561  0.3023  0.0855 -0.1874
 6335W        W10535   4.540   9.023   1.303 -0.0922  0.2166 -0.1313
 6336W        W10536   1.530   3.455   2.696  0.1657  0.0283 -0.0177
 6337W        W10537   5.786   4.163  13.360  0.2739 -0.0065 -0.2434
 6338W        W10538   1.895   7.122   2.914 -0.2111 -0.0190 -0.1171
 6339W        W10539   0.120   3.223  10.804 -0.0209  0.1407 -0.3155
 6340W        W10540   4.993   2.192   2.247  0.1235  0.0269 -0.1036
 6341W        W10541   0.475   2.230   9.936 -0.1743 -0.1805  0.0931
 6342W        W10542   8.658   3.113   0.029  0.0125  0.2063  0.2340
 6343W        W10543   8.414   3.815   8.616  0.1190  0.1093 -0.1747
 6344W        W10544   6.791   6.018  13.109 -0.1238  0.0156 -0.1935
 6345W        W10545   0.197   1.645   4.314  0.0071 -0.2289  0.3748
 6346W        W10546   1.433   8.912   1.091  0.1985  0.0650  0.0697
 6347W        W10547   5.366   1.019  12.168 -0.4555 -0.0510  0.1064
 6348W        W10548   9.474   7.680   3.731  0.0979  0.0508 -0.0072
 6349W        W10549   0.238  10.281   9.816  0.0258  0.4572  0.2345
 6350W        W10550   5.442   8.329  13.179  0.3762  0.0303 -0.2227
 6351W        W10551   0.592   3.651  13.443 -0.1612  0.0357 -0.2869
 6352W        W10552   8.566   8.479   2.135  0.0811  0.2509 -0.0153
 6353W        W10553   0.922   9.712   3.265 -0.1782 -0.4224  0.2550
 6354W        W10554   4.033   5.012   2.513 -0.1865  0.0176  0.1450
 6355W        W10555   8.507   8.601  12.327 -0.0789  0.4182 -0.2511
 6356W        W10556   9.854   0.508   9.940 -0.2296  0.0924 -0.0700
 6357W        W10557   9.859   2.990   9.437  0.2127 -0.0593  0.0024
 6358W        W10558   7.968   7.629   3.393  0.0925 -0.0369  0.0696
 6359W        W10559   6.952   2.271   1.307  0.2992 -0.2466  0.1685
 6360W        W10560   4.556   7.333  11.551 -0.1801 -0.1977 -0.3477
 6361W        W10561   4.621   2.163   2.608  0.0769 -0.2258  0.0165
 6362W        W10562   7.194   9.230  10.230 -0.0520  0.0461 -0.3876
 6363W        W10563   0.677   3.184  12.198  0.0655  0.1369 -0.1562
 6364W        W10564   2.153   7.422  12.349 -0.3666 -0.0020 -0.3011
 6365W        W10565   8.315   3.750   1.633 -0.2109 -0.2118  0.2779
 6366W        W10566   9.123   7.450  10.152 -0.2540  0.3909 -0.2239
 6367W        W10567   7.566   8.427   3.496 -0.1668 -0.1548 -0.0932
 6368W        W10568   6.699   1.454  11.054 -0.2460 -0.0039  0.1949
 6369W        W10569   3.095   1.104   0.023  0.1012  0.2372 -0.2680
 6370W        W10570   9.577   8.465   1.985 -0.2624 -0.1254 -0.0423
 6371W        W10571   5.222   1.847   9.582  0.0278  0.3344 -0.0667
 6372W        W10572   2.553  10.433   2.921 -0.4617  0.0023  0.0964
 6373W        W10573   5.191   9.738   9.554 -0.2952  0.2441 -0.0846
 6374W        W10574   0.695   4.610  12.396 -0.3662 -0.1836  0.5074
 6375W        W10575   6.732   5.880   1.132 -0.3192  0.2512  0.2822
 6376W        W10576   5.347   6.996   3.037 -0.2176 -0.1995 -0.5115
 6377W        W10577   4.551   3.302   3.787 -0.3361  0.2124  0.1710
 6378W        W10578   0.494   3.481   4.195  0.2658 -0.0271  0.0176
 6379W        W10579   7.802   0.468   1.149 -0.1459 -0.1932 -0.1299
 6380W        W10580   7.973   5.958   9.497  0.1339 -0.3551 -0.1056
 6381W        W10581   3.324   1.214  13.112  0.2301 -0.1155 -0.0992
 6382W        W10582  10.054   8.443  12.358  0.0853  0.4725  0.0053
 6383W        W10583   7.933   8.027   1.549 -0.2844  0.2903 -0.4531
 6384W        W10584   0.771   3.152   4.444  0.1668  0.1171 -0.3243
 6385W        W10585   6.879   0.573   3.341 -0.1251 -0.0298  0.2226
 6386W        W10586   4.143   1.082  13.101  0.0562  0.0477  0.0652
 6387W        W10587   7.184   1.061  13.274  0.1567 -0.0630  0.4769
 6388W        W10588   5.344   0.399   3.155 -0.0007  0.0730 -0.0317
 6389W        W10589   7.585   9.744   2.403  0.3586 -0.2669 -0.0287
 6390W        W10590   8.990   7.897  10.443  0.1752 -0.4766  0.0187
 6391W        W10591   9.401   5.272  12.558 -0.1205 -0.0827  0.1340
 6392W        W10592   1.152   3.634   0.464 -0.1139 -0.0767  0.1214
 6393W        W10593   0.449   3.634  10.849 -0.1242  0.0219  0.1590
 6394W        W10594   3.922   7.516   9.975  0.2977 -0.0897  0.0914
 6395W        W10595   1.946   8.055  10.844  0.0748  0.0850  0.0079
 6396W        W10596   3.846   5.836  13.113  0.0681 -0.1304 -0.0927
 6397W        W10597   7.017  10.147  12.964  0.2340  0.0931 -0.3983
 6398W        W10598   6.239   4.958   2.661  0.1592  0.0214 -0.0631
 6399W        W10599   0.780   5.053   4.236  0.0409  0.0090 -0.3126
 6400W        W10600   3.469   9.305   0.135 -0.1522 -0.0292  0.0473
 6401W        W10601   7.320   0.538   0.988  0.2491 -0.0762 -0.5235
 6402W        W10602   9.556   3.699  10.985 -0.0585  0.1677 -0.2246
 6403W        W10603   5.314   6.146   0.056 -0.2616 -0.3096 -0.0992
 6404W        W10604   6.801   3.218   3.214 -0.2007 -0.0434  0.3438
 6405W        W10605   3.365   3.788  10.897 -0.0959 -0.1929 -0.5047
 6406W        W10606   3.267  10.456   4.262  0.0360  0.0955  0.1583
 6407W        W10607   6.012   3.682   9.249 -0.2013 -0.2251  0.0229
 6408W        W10608   9.622   5.356   4.319 -0.3285  0.1990 -0.0541
 6409W        W10609   0.823   6.230   0.320 -0.3876 -0.3065  0.0200
 6410W        W10610   3.642   7.752   1.562 -0.0772  0.1126  0.2185
 6411W        W10611   0.293   2.930   1.200 -0.1485  0.0015 -0.0613
 6412W        W10612   3.940   6.247   3.732 -0.1300 -0.2706 -0.1593
 6413W        W10613   8.387   3.680  11.134 -0.1141  0.4161 -0.0903
 6414W        W10614   6.799   5.063   5.099  0.2776  0.0863 -0.1739
 6415W        W10615   6.042   5.362   0.228 -0.0939 -0.0482  0.0015
 6416W        W10616   6.738   1.176   0.352 -0.0658  0.1109  0.2932
 6417W        W10617   5.713   9.152   0.612  0.0607  0.0396 -0.0133
 6418W        W10618   4.379   3.468   4.226  0.1121 -0.1128  0.1304
 6419W        W10619   5.950   2.221   9.058 -0.0132  0.1468 -0.0747
 6420W        W10620   8.254   0.222  10.448 -0.0902 -0.0186 -0.2131
 6421W        W10621   3.886   8.197  11.716 -0.3295  0.2680  0.3924
 6422W        W10622   9.183   1.079   2.576 -0.0609  0.5173  0.0332
 6423W        W10623   6.604   0.361   3.753  0.0083  0.4819 -0.0482
 6424W        W10624   1.659   7.757   3.303  0.2367  0.1355  0.0644
 6425W        W10625   9.088   4.576   0.809 -0.1313  0.0571  0.0335
 6426W        W10626  10.008  10.221   4.746  0.2782 -0.0218 -0.0330
 6427W        W10627   8.008   4.905   8.655 -0.0097 -0.2745 -0.4855
 6428W        W10628  10.419   4.748   1.083 -0.1670  0.0202 -0.1665
 6429W        W10629   1.491   7.482   1.786 -0.0346  0.4882 -0.1429
 6430W        W10630   9.165   5.456  11.955 -0.2079  0.1835  0.1693
 6431W        W10631   4.150   2.041   0.389  0.0392 -0.0212 -0.2592
 6432W        W10632   2.928   4.450  11.566 -0.2069  0.0001  0.3282
 6433W        W10633   7.548   1.719   4.736 -0.0207 -0.0107  0.2860
 6434W        W10634   7.803   4.572   0.857 -0.0695  0.1545 -0.2564
 6435W        W10635   4.325   8.593  10.513 -0.0949 -0.0383 -0.1053
 6436W        W10636   0.224   2.803   0.411 -0.1038 -0.1093  0.1040
 6437W        W10637   3.902   8.212   9.525  0.1045  0.3941 -0.2263
 6438W        W10638   2.238   3.400  10.865 -0.2567  0.0093 -0.1565
 6439W        W10639   2.329   1.843  10.800 -0.1820 -0.0089  0.1228
 6440W        W10640   6.985   5.986   9.729  0.1759  0.0703  0.1960
 6441W        W10641   9.117   9.782   0.286 -0.1559  0.0532 -0.1933
 6442W        W10642   5.469   8.733   4.346  0.1215  0.0962  0.2871
 6443W        W10643   2.614   4.178   3.229 -0.5066 -0.0281 -0.0314
 6444W        W10644   5.053   3.074   1.661  0.3963 -0.1446 -0.2352
 6445W        W10645   5.085   2.595   1.858 -0.0615  0.1767  0.0994
 6446W        W10646   7.269   7.174  10.774 -0.3283  0.3188  0.2343
 6447W        W10647   6.561   0.460   2.906  0.0085  0.4394  0.0093
 6448W        W10648   8.665   7.305  13.008  0.3667  0.2042  0.3183
 6449W        W10649   8.263   1.376   1.256 -0.0583 -0.0144  0.3426
 6450W        W10650   2.009   8.104   1.405 -0.0380 -0.3271 -0.2236
 6451W        W10651   5.162   5.485   2.770 -0.2922 -0.3425  0.0296
 6452W        W10652   3.979   8.482   2.846  0.0084 -0.0727  0.4774
 6453W        W10653   1.694   8.744   0.698 -0.1197  0.2223 -0.1981
 6454W        W10654   7.532   0.674   2.136  0.2408 -0.1911 -0.1627
 6455W        W10655   9.978   5.099   0.928 -0.2713 -0.0464  0.3441
 6456W        W10656   1.438   8.023   1.288 -0.1490 -0.2559 -0.1657
 6457W        W10657   9.324   7.686   2.117 -0.1172 -0.1218 -0.2134
 6458W        W10658   3.810   0.587   1.085  0.1741  0.1538 -0.0344
 6459W        W10659  10.412   4.327   3.675 -0.2582 -0.1752  0.0834
 6460W        W10660   0.260   1.773  12.328 -0.0461 -0.0370  0.2444
 6461W        W10661   1.854   1.643   0.350  0.1452  0.2712 -0.1184
 6462W        W10662   1.389   6.816   1.136 -0.1467 -0.1924 -0.0081
 6463W        W10663   3.501   7.048   1.815  0.1224  0.2422  0.2320
 6464W        W10664   6.059   7.145  10.530  0.0800  0.0635  0.2691
 6465W        W10665   6.005   3.362   3.089 -0.1923 -0.1162 -0.0841
 6466W        W10666   0.344   1.801   9.637  0.0114  0.1347 -0.1024
 6467W        W10667   9.412   1.514  12.111 -0.1292  0.1086  0.2595
 6468W        W10668   4.682   8.459   3.695 -0.1572  0.0234  0.0869
 6469W        W10669   0.964   0.029   0.163  0.1569 -0.2380  0.3780
 6470W        W10670   6.178   3.403  12.455 -0.0999 -0.2238  0.0970
 6471W        W10671   3.328   2.991   3.197 -0.3507 -0.0764 -0.0675
 6472W        W10672   8.325   0.067  10.923  0.0123 -0.2043  0.3430
 6473W        W10673   7.083   4.442   2.856  0.0659 -0.2678  0.0799
 6474W        W10674   9.138  10.051   4.654  0.3996 -0.3060 -0.2662
 6475W        W10675   8.997   0.628   2.632  0.0108  0.2093  0.0299
 6476W        W10676   6.480   9.253   5.116  0.3193  0.0669 -0.3040
 6477W        W10677   7.372   1.302  10.395  0.2326  0.1746 -0.2908
 6478W        W10678   7.509   0.360   0.198  0.1320 -0.0225 -0.0224
 6479W        W10679   1.232   1.098   3.142 -0.1593  0.0305 -0.0391
 6480W        W10680   7.349   0.126  12.754  0.4439  0.0641  0.0789
 6481W        W10681   7.386   3.488  12.603  0.0939 -0.0951  0.0397
 6482W        W10682   8.334   3.777   0.466  0.4190  0.3796  0.1699
 6483W        W10683   7.554  10.065   0.660 -0.0295 -0.2246 -0.0416
 6484W        W10684   3.390   8.013   0.688  0.1068  0.1112  0.0792
 6485W        W10685  10.091   0.666   3.204 -0.5338  0.3103  0.0631
 6486W        W10686   0.301   0.371   9.734 -0.0248 -0.1004  0.2922
 6487W        W10687   9.027   2.672   3.275 -0.0133  0.1520 -0.0201
 6488W        W10688   9.134   7.116  11.063 -0.4217  0.0024 -0.2749
 6489W        W10689   5.842   0.616   0.095  0.0464  0.1175  0.0314
 6490W        W10690  10.235   1.042   2.382 -0.0366 -0.4384  0.0297
 6491W        W10691  10.397   1.760   0.455 -0.1980 -0.0003  0.0872
 6492W        W10692   0.278   4.859   2.794  0.1471 -0.0828  0.0012
 6493W        W10693   0.907   7.826  12.534 -0.0843  0.0577 -0.2731
 6494W        W10694   0.750   6.999  10.098  0.0186 -0.0641 -0.0788
 6495W        W10695   8.868   4.304  11.288  0.1271  0.3744 -0.0424
 6496W        W10696   5.039   2.145  11.601 -0.1126  0.0327 -0.1525
 6497W        W10697   9.334   1.774  10.309 -0.1892  0.4414  0.0876
 6498W        W10698   2.135   4.272  13.417 -0.1362 -0.1722  0.1545
 6499W        W10699   9.796   8.061  12.054  0.1944  0.2975  0.6003
 6500W        W10700   1.778   8.872  13.373 -0.0948  0.0645  0.3405
 6501W        W10701   2.586   6.495  12.590 -0.0263 -0.0859  0.0309
 6502W        W10702   8.745   0.263  10.626 -0.2660  0.0963  0.0928
 6503W        W10703   7.977   8.445   9.428  0.1097  0.1356  0.2640
 6504W        W10704   0.409   2.632   4.373 -0.0758  0.0610  0.0159
 6505W        W10705   1.027   8.016   0.405 -0.1195 -0.1464 -0.0456
 6506W        W10706   2.686   7.792  10.268  0.2093  0.1451 -0.0971
 6507W        W10707   8.295   7.125   1.242 -0.1787  0.1577 -0.1558
 6508W        W10708   7.668   8.503   2.517 -0.0277  0.0827 -0.2130
 6509W        W10709   4.270   3.925   4.054  0.1151 -0.2487 -0.2813
 6510W        W10710  10.202   9.325  13.407  0.0940 -0.2229  0.3158
 6511W        W10711   2.662   6.464  10.875 -0.0719  0.3071  0.1747
 6512W        W10712   1.623   0.435   2.129  0.2192 -0.1711  0.2468
 6513W        W10713   4.636   9.864   1.973 -0.1750 -0.1335 -0.2304
 6514W        W10714   4.193   5.614   0.746 -0.1065 -0.2029  0.0160
 6515W        W10715   7.407   8.878   5.124 -0.1042 -0.0798  0.0325
 6516W        W10716   9.850   4.199   1.786  0.3295  0.1119 -0.0931
 6517W        W10717   3.579   1.812  13.085  0.0340  0.0803  0.1191
 6518W        W10718  10.391   8.303   2.914 -0.0255  0.3077  0.0801
 6519W        W10719   7.737   9.228   4.749 -0.0474  0.1157 -0.1509
 6520W        W10720   0.533   0.470   2.840  0.1174 -0.0652  0.2594
 6521W        W10721   6.233   5.572  11.332 -0.1252  0.2452 -0.1880
 6522W        W10722   5.719  10.075   3.478  0.0303  0.0724 -0.0558
 6523W        W10723   7.876   1.599   0.552  0.0905 -0.2622 -0.0864
 6524W        W10724   1.258   6.507   0.317  0.1119  0.2335 -0.0456
 6525W        W10725   8.612   1.308  10.309  0.0683 -0.3221 -0.1802
 6526W        W10726   0.060   3.349  11.663 -0.0868 -0.1699  0.4034
 6527W        W10727   8.884   7.390   0.715  0.0369  0.2574  0.0066
 6528W        W10728  10.062   9.329   2.129  0.1079  0.0622  0.0371
 6529W        W10729   0.934   6.980   2.402 -0.1870  0.1435  0.0570
 6530W        W10730   0.958   7.201   0.169  0.1306  0.0573 -0.0553
 6531W        W10731   5.529   1.217  12.649  0.1748  0.1828  0.0471
 6532W        W10732   5.307   0.187   1.180  0.0287  0.0640 -0.1177
 6533W        W10733   6.110   2.282   2.958  0.0312 -0.2220  0.1492
 6534W        W10734   3.661   2.349   1.510  0.1429  0.0269 -0.0386
 6535W        W10735   1.835   2.255   3.504 -0.0067 -0.2251 -0.1091
 6536W        W10736   3.210   3.316   2.345  0.2133  0.1435  0.0094
 6537W        W10737   9.337   3.555   3.384  0.0072  0.2528  0.2400
 6538W        W10738   9.396   4.076   3.584  0.4526  0.1323 -0.0867
 6539W        W10739   9.599   7.554  11.868  0.0463  0.3574 -0.3083
 6540W        W10740   9.090   3.637   0.999 -0.0195 -0.0101 -0.1495
 6541W        W10741   5.276   9.251  10.063  0.2616  0.1698  0.2975
 6542W        W10742   3.370   0.504   9.398 -0.0687  0.0909 -0.0451
 6543W        W10743   3.415   4.322   2.159 -0.1255 -0.0419 -0.1616
 6544W        W10744   0.248   1.629   1.194  0.0511  0.0818 -0.1702
 6545W        W10745   2.910   9.795  13.427 -0.2074 -0.2873 -0.2324
 6546W        W10746   1.175   3.445   4.123 -0.2861 -0.0167  0.0348
 6547W        W10747   9.310   3.648   2.201  0.1091  0.4507 -0.3069
 6548W        W10748   5.871   3.588  12.081  0.1759  0.1108  0.0664
 6549W        W10749   6.426   8.006   4.075 -0.3012  0.2916  0.0815
 6550W        W10750   4.050   1.780   2.031 -0.0863 -0.1267 -0.0218
 6551W        W10751   7.184   3.319  11.217  0.1642  0.6974 -0.2150
 6552W        W10752   3.585   2.228   0.489  0.0372  0.0215 -0.0556
 6553W        W10753   9.829   9.121   3.475 -0.1028  0.0748 -0.0787
 6554W        W10754   5.301   7.105   2.044 -0.2895  0.0435 -0.1109
 6555W        W10755   2.535   7.909   3.630  0.0678  0.2094  0.1117
 6556W        W10756   0.265   8.375  11.354 -0.0874  0.0625  0.2217
 6557W        W10757   4.470   1.928   3.511  0.1219  0.0237  0.1459
 6558W        W10758   5.344   7.827   0.914 -0.1750 -0.2267 -0.0173
 6559W        W10759   5.428   4.373   3.381 -0.1528 -0.0105  0.0307
 6560W        W10760   8.236   1.213  11.512 -0.1766 -0.2225 -0.2620
 6561W        W10761   8.719   1.386  11.418 -0.3210 -0.0046  0.0634
 6562W        W10762  10.095   8.680  11.783 -0.1328 -0.0147 -0.2942
 6563W        W10763   2.222   8.815   0.416 -0.0621 -0.5321 -0.1430
 6564W        W10764   4.776   1.795   4.258  0.1762  0.0543 -0.1286
 6565W        W10765   1.340   8.747   0.195 -0.3217 -0.0687 -0.1590
 6566W        W10766   5.573   0.152  10.856 -0.3025  0.1735 -0.1143
 6567W        W10767   6.840   8.327   3.987  0.0365  0.2052  0.2118
 6568W        W10768   4.849   7.192   1.863  0.0215 -0.4076  0.3795
 6569W        W10769   6.811   8.789   1.829  0.0727  0.1499 -0.1576
 6570W        W10770   2.339   8.972   9.863 -0.2858  0.0875 -0.1723
 6571W        W10771   8.440   1.600   4.293 -0.3650  0.2072 -0.2072
 6572W        W10772   1.662   8.865  10.642 -0.0118 -0.0962 -0.1594
 6573W        W10773   2.228   3.080   5.149  0.0477  0.0133 -0.2575
 6574W        W10774   5.406   1.002   1.439 -0.0483 -0.1007  0.1728
 6575W        W10775   1.792   5.902   1.482  0.2068  0.0138 -0.1088
 6576W        W10776   5.618   9.178  11.608  0.1277  0.2789 -0.2313
 6577W        W10777   8.896   7.159   2.932  0.1637  0.2625 -0.0993
 6578W        W10778   2.742   8.404  11.120  0.0459  0.3716 -0.2491
 6579W        W10779   4.637   4.603   2.908 -0.0381 -0.1060 -0.3156
 6580W        W10780   5.187   5.439   2.275 -0.1371 -0.2912  0.4422
 6581W        W10781   6.081   2.282  12.546 -0.1298 -0.2300 -0.0051
 6582W        W10782   2.165   3.382   1.851 -0.0532  0.1470 -0.3616
 6583W        W10783   8.338   2.563  13.201 -0.2888 -0.0524 -0.0173
 6584W        W10784   1.572   8.310  10.754 -0.0710  0.0233  0.0990
 6585W        W10785   7.550   3.746   9.151  0.1056  0.0735  0.1603
 6586W        W10786   4.525   1.069  10.263  0.1824 -0.0211  0.0881
 6587W        W10787   7.471   6.364  10.803  0.1483 -0.3003 -0.0027
 6588W        W10788   9.016   1.360   0.524 -0.0990  0.2449  0.2395
 6589W        W10789   8.190   8.493   0.355  0.1276 -0.3186 -0.1331
 6590W        W10790   3.926   9.506  13.405  0.2930  0.1238  0.4491
 6591W        W10791   6.541   8.879  12.786 -0.0812 -0.1538 -0.0088
 6592W        W10792   1.514   6.484  12.259 -0.1359  0.0567  0.1061
 6593W        W10793   6.527   4.698  12.963  0.2073  0.1433 -0.2657
 6594W        W10794   3.801   5.816   0.543  0.2594  0.3048  0.2657
 6595W        W10795   3.265   6.930   3.803  0.0023 -0.0065 -0.0742
 6596W        W10796   6.783   6.181   2.956  0.3922  0.0905  0.1579
 6597W        W10797   0.772   2.741  10.010  0.0188 -0.2442  0.0294
 6598W        W10798   3.622   5.187   4.177  0.1554 -0.2427 -0.0537
 6599W        W10799   8.752   8.891  12.025  0.1678 -0.1161 -0.0404
 6600W        W10800   9.605   8.544   2.539 -0.2368  0.1491  0.1762
 6601W        W10801   8.600   2.850   2.161 -0.0196  0.0246 -0.2237
 6602W        W10802   1.597   1.076   8.539  0.1062 -0.1676  0.0310
 6603W        W10803   4.251   0.065   3.959 -0.0755 -0.0680 -0.1908
 6604W        W10804   9.661   1.817   3.514 -0.1800 -0.1952 -0.4114
 6605W        W10805   8.729   3.651  10.421  0.0215 -0.0689 -0.2467
 6606W        W10806   3.367   1.215   2.802 -0.0231  0.3222 -0.0020
 6607W        W10807   9.989   1.778   8.946  0.0483 -0.0473 -0.2152
 6608W        W10808   3.390   0.470  10.274 -0.1949  0.1649  0.3495
 6609W        W10809  10.151   3.656   4.657  0.2715  0.2912 -0.2003
 6610W        W10810   6.013   9.267  11.986  0.1390 -0.0151  0.1980
 6611W        W10811   8.121   8.165   4.133 -0.2306 -0.0574 -0.0637
 6612W        W10812   4.944   9.423   3.247 -0.1110  0.2061 -0.2848
 6613W        W10813   0.243   5.800   2.875 -0.2638  0.0412  0.3613
 6614W        W10814   0.314   2.946   2.856  0.0696 -0.0913 -0.2418
 6615W        W10815   5.387   9.813   9.093  0.0507  0.1350  0.0031
 6616W        W10816   0.894  10.129  10.620 -0.4672 -0.2256  0.0110
 6617W        W10817   6.723   7.896   9.118 -0.2687  0.0325  0.2298
 6618W        W10818   4.016   8.089  12.744  0.3057  0.0765  0.4364
 6619W        W10819   4.070   6.682   3.506 -0.2242  0.2390  0.5650
 6620W        W10820   0.156   1.839  11.836  0.4631  0.1225 -0.0920
 6621W        W10821   1.699  10.061  11.951  0.0264 -0.0683  0.1223
 6622W        W10822   4.273   8.738  10.980  0.1682 -0.1531 -0.0258
 6623W        W10823   7.087   1.953  13.480  0.2110  0.1310 -0.0218
 6624W        W10824   8.939   9.442   1.640  0.3024  0.2746 -0.0080
 6625W        W10825   5.982   8.061   4.793  0.1377 -0.0067 -0.0494
 6626W        W10826   7.082   0.394  10.150  0.2838 -0.0028 -0.1063
 6627W        W10827   1.773   7.352   0.245  0.0454  0.0152  0.2805
 6628W        W10828   0.890   9.915   2.720  0.0184  0.4070 -0.0300
 6629W        W10829   6.838   2.457  10.961 -0.2612 -0.2390 -0.2392
 6630W        W10830   1.689   9.041  12.130 -0.0974 -0.0804 -0.2523
 6631W        W10831   8.084   8.677   4.218  0.0420 -0.0031 -0.5428
 6632W        W10832   6.579   1.435  12.637 -0.2417 -0.2096 -0.2282
 6633W        W10833   7.410   3.443   8.692 -0.2055  0.0231 -0.1522
 6634W        W10834   4.462   1.693   0.802  0.0120 -0.0999 -0.1265
 6635W        W10835   1.856   0.938   1.919 -0.1715 -0.0803  0.0405
 6636W        W10836   0.552   6.535  11.604  0.0736  0.0276  0.0951
 6637W        W10837   5.154   6.155  12.321  0.2157  0.2704  0.2384
 6638W        W10838   9.481   4.314   1.461 -0.4254  0.0352 -0.0506
 6639W        W10839   0.778   3.103   1.575 -0.1080  0.4471 -0.2813
 6640W        W10840   9.313   0.238  12.069  0.1165  0.1147 -0.1045
 6641W        W10841   0.589   4.061  11.244 -0.0133 -0.2717  0.0118
 6642W        W10842  10.262   9.694   2.784  0.1204 -0.2142  0.0373
 6643W        W10843   5.866   1.774   0.427  0.2005 -0.0654 -0.0982
 6644W        W10844   1.274   6.743  10.754  0.1161  0.2715  0.2231
 6645W        W10845   4.706   6.482  11.496 -0.2691 -0.0524  0.1905
 6646W        W10846   4.759   5.867   4.125  0.1695  0.0230 -0.0274
 6647W        W10847   0.787   3.839   3.277  0.0388  0.1647 -0.2135
 6648W        W10848   4.681   9.960  12.954 -0.0938  0.2052 -0.1689
 6649W        W10849   8.116   2.913   3.035  0.0425  0.0317  0.0169
 6650W        W10850   0.089   9.034   0.117 -0.1600  0.1630 -0.3325
 6651W        W10851   0.578   9.992   2.166 -0.3021 -0.1299 -0.3436
 6652W        W10852   0.660   8.705   3.487  0.1782 -0.0180 -0.2234
 6653W        W10853   7.977   5.236   2.703 -0.0059  0.4347 -0.0898
 6654W        W10854   5.361   0.233   4.181 -0.1543 -0.0581 -0.1769
 6655W        W10855   3.444   3.660   4.441  0.1103 -0.1444 -0.5347
 6656W        W10856   3.760   6.768   2.143  0.2065 -0.0135  0.1780
 6657W        W10857   6.124   0.206   1.696 -0.1905  0.0306 -0.2098
 6658W        W10858   5.517   5.554   4.316  0.4609 -0.0424  0.2850
 6659W        W10859   4.179   0.266  11.484 -0.0257 -0.0188  0.0027
 6660W        W10860   6.240   9.410  11.129 -0.0549  0.0418  0.0389
 6661W        W10861   0.913   0.875  10.031  0.0261 -0.1128  0.3795
 6662W        W10862   1.949   1.667  10.577  0.0590  0.0450 -0.1237
 6663W        W10863   1.849   4.477   0.894  0.0896  0.1986  0.0331
 6664W        W10864   0.797   1.972   9.538  0.1250  0.0166  0.1216
 6665W        W10865   4.743  10.308   9.106 -0.2326  0.2835 -0.0036
 6666W        W10866   2.303   0.414  12.496 -0.0676 -0.0068  0.0098
 6667W        W10867   4.891   6.002   1.378 -0.1670  0.1243  0.1542
 6668W        W10868   7.069   6.585   2.846 -0.0935  0.0475  0.0728
 6669W        W10869   3.451  10.369  10.183 -0.0123  0.0932  0.2907
 6670W        W10870   5.914   3.274   1.183  0.2603  0.0148  0.0896
 6671W        W10871   0.673   3.887  13.006  0.0896  0.2530 -0.3624
 6672W        W10872   1.140   9.112  11.156 -0.1554 -0.3496 -0.3099
 6673W        W10873  10.386   0.320  11.990 -0.1881  0.2490  0.0533
 6674W        W10874   8.371   3.683   4.363 -0.0690 -0.1424  0.0396
 6675W        W10875   1.436   6.446  11.407  0.1348  0.0592 -0.0102
 6676W        W10876   1.913   7.016   2.441 -0.0212  0.1372  0.1736
 6677W        W10877   4.563   9.951   3.156 -0.0077  0.1491  0.2547
 6678W        W10878   7.421   1.473  10.852  0.0252  0.0203 -0.0568
 6679W        W10879   0.515   8.996   3.968  0.0161  0.0697  0.0096
 6680W        W10880   7.690   5.276   2.334 -0.1261  0.0413  0.1006
 6681W        W10881   8.097   5.789   1.599  0.0647  0.0861  0.0787
 6682W        W10882   9.551   0.737   0.788 -0.1759 -0.2690 -0.3666
 6683W        W10883   7.637   9.358   2.779  0.2545  0.0142  0.3384
 6684W        W10884   6.353   6.080   9.077 -0.0862  0.2714 -0.0396
 6685W        W10885   8.109   2.054   9.793  0.1931  0.2486 -0.2093
 6686W        W10886   4.833   1.729  13.387 -0.0960  0.0425  0.1751
 6687W        W10887   9.231   9.618  12.790  0.2574 -0.2263  0.0678
 6688W        W10888   4.940   5.682  13.021  0.0936  0.0188  0.3091
 6689W        W10889   1.585   4.900  10.266  0.4584 -0.0618 -0.0608
 6690W        W10890   0.086   8.722   4.928  0.3436 -0.1233  0.0516
 6691W        W10891   9.226   7.947   2.769  0.1173  0.0906  0.3504
 6692W        W10892   5.852   3.890   2.740  0.1807 -0.1236  0.5331
 6693W        W10893   3.509   4.499   0.816  0.0136  0.1654 -0.1906
 6694W        W10894   5.234   8.523  10.570 -0.1765 -0.1819 -0.0437
 6695W        W10895   3.117   2.353  10.427  0.0143  0.1512  0.0284
 6696W        W10896   9.954   7.366   0.303  0.0875 -0.1643 -0.1895
 6697W        W10897   8.413   7.266   0.812 -0.1480 -0.3783 -0.2279
 6698W        W10898   5.310   2.615  13.254  0.1000  0.2589 -0.2453
 6699W        W10899   3.495   4.041   1.712 -0.4121  0.0750  0.0308
 6700W        W10900   9.925   2.274   4.223 -0.5399  0.2412  0.1830
 6701W        W10901   9.774   2.844   2.755  0.0290  0.1805 -0.0795
 6702W        W10902   8.132   4.857   0.357 -0.3222 -0.1129  0.0185
 6703W        W10903   2.585   8.518   3.658  0.2035 -0.2887 -0.0974
 6704W        W10904   9.478   2.773  12.052 -0.1776  0.1364 -0.1121
 6705W        W10905   3.189   7.914   1.418 -0.0668  0.1807  0.3254
 6706W        W10906   2.161   0.586   2.713  0.2842 -0.3048 -0.1489
 6707W        W10907   0.177   1.094   1.588  0.3178 -0.1388  0.1490
 6708W        W10908   3.561   0.136   3.888 -0.0331 -0.1710 -0.2209
 6709W        W10909   5.511   2.608  11.638 -0.2664  0.2962 -0.2467
 6710W        W10910   6.420   0.077   2.117 -0.0663  0.0553  0.0548
 6711W        W10911   1.451   7.333   1.141  0.2050 -0.0985  0.0904
 6712W        W10912   0.088   5.025  11.234 -0.1303 -0.1142 -0.4944
 6713W        W10913   3.308   1.219  11.959  0.2996 -0.0093 -0.0095
 6714W        W10914   9.274   4.112   2.007 -0.0915 -0.2273  0.0954
 6715W        W10915   9.771   0.734   9.056  0.1672 -0.0322  0.0069
 6716W        W10916   2.417   6.991  11.505  0.0298 -0.2656  0.3596
 6717W        W10917   6.342   1.129   0.647  0.1228 -0.1061 -0.0793
 6718W        W10918   5.775   8.067   2.810 -0.0928  0.2525 -0.1095
 6719W        W10919   8.571   2.745   0.722  0.0856  0.3343  0.1538
 6720W        W10920   5.597   9.636   4.210 -0.0376 -0.3325  0.2728
 6721W        W10921   6.391   3.633   2.601  0.4996 -0.0929  0.0128
 6722W        W10922   1.137   7.505   2.358  0.1274 -0.0482 -0.2200
 6723W        W10923   0.496   5.501   1.709  0.0323  0.1981  0.0604
 6724W        W10924   1.255   2.189   9.399  0.0847 -0.2054  0.0340
 6725W        W10925  10.166   7.049  12.410 -0.1354  0.0713 -0.2120
 6726W        W10926   4.173   5.851   3.440 -0.1644  0.1387 -0.0152
 6727W        W10927   0.639   1.808   1.524  0.0428 -0.2096  0.0626
 6728W        W10928   4.493   8.109  12.742  0.0115 -0.0502  0.2281
 6729W        W10929  10.413   4.066   2.866 -0.1334 -0.1545 -0.0149
 6730W        W10930   9.981   7.084   4.352  0.0742 -0.1397  0.1216
 6731W        W10931   3.830   3.683  11.164  0.3811  0.1558  0.1114
 6732W        W10932   2.480   0.749   3.533  0.2208 -0.0637 -0.1025
 6733W        W10933   8.318   3.359   3.082  0.0387 -0.1282 -0.1281
 6734W        W10934   2.444   1.442   9.091  0.3732  0.0615  0.0547
 6735W        W10935   6.763   0.153  10.435  0.1532 -0.0238 -0.0018
 6736W        W10936   7.924  10.235   0.395 -0.0285 -0.2703 -0.0341
 6737W        W10937   0.271   3.270   1.603 -0.0961  0.1837 -0.1020
 6738W        W10938   7.977   4.967  11.675  0.0286  0.0273  0.0465
 6739W        W10939   9.493   4.394  10.108 -0.0245 -0.1733 -0.0950
 6740W        W10940   8.528   8.214   0.562 -0.3286  0.2241 -0.2510
 6741W        W10941   1.024   2.758  12.617 -0.0754 -0.0981  0.0713
 6742W        W10942   5.805   6.008   3.283  0.0209  0.1103  0.1247
 6743W        W10943   6.496   2.054  11.734 -0.0256 -0.2358  0.1799
 6744W        W10944   8.412   7.839  10.327  0.1882 -0.0188 -0.0308
 6745W        W10945   4.722   8.074   0.440 -0.0062 -0.1790 -0.2058
 6746W        W10946   5.998   6.520   9.194 -0.1676  0.1537  0.2001
 6747W        W10947   5.632   2.213   4.286 -0.1297 -0.1915  0.2961
 6748W        W10948   3.611   1.600   1.811 -0.0494  0.1078  0.5215
 6749W        W10949   8.316   8.037   2.374  0.0827  0.2788 -0.1695
 6750W        W10950   3.423   6.039  13.096  0.3406  0.2824 -0.1518
 6751W        W10951   5.219   0.569  11.972  0.2470 -0.1421 -0.0573
 6752W        W10952   5.088   3.714   2.558  0.1967  0.0417  0.1637
 6753W        W10953   6.271   1.461   4.021  0.3301 -0.1275 -0.1050
 6754W        W10954   7.104   1.697   1.378 -0.3070  0.1157 -0.1598
 6755W        W10955   7.760   8.403  12.776 -0.0620 -0.2953  0.0773
 6756W        W10956  10.161   3.986   9.332 -0.0049  0.1403 -0.0662
 6757W        W10957   5.888   5.833  12.835  0.1652 -0.2313  0.0588
 6758W        W10958   5.535   7.219   9.546  0.0833  0.0910  0.0409
 6759W        W10959  10.438   0.127   4.556 -0.1007  0.0481  0.0235
 6760W        W10960   5.980   1.146   1.297 -0.1499 -0.0155  0.0843
 6761W        W10961   1.361   2.187   3.740 -0.0980 -0.0257  0.0843
 6762W        W10962   6.144   7.571  10.252 -0.3663  0.2501 -0.2321
 6763W        W10963   8.378   2.726   1.749  0.3004 -0.0151 -0.0564
 6764W        W10964   4.462   8.037   5.012  0.2228 -0.0835 -0.1965
 6765W        W10965  10.260   3.966   8.538  0.2874  0.2011  0.3087
 6766W        W10966   4.079   5.848  12.589  0.0335  0.1118 -0.2405
 6767W        W10967   2.819   1.887   1.289 -0.1231 -0.0875  0.0911
 6768W        W10968   0.417   0.040   0.877 -0.4264  0.3042 -0.0684
 6769W        W10969   1.406   9.135   3.044 -0.0560 -0.0343 -0.2460
 6770W        W10970   3.807   8.488  12.950  0.1513  0.3672 -0.2113
 6771W        W10971   4.602   8.695   4.371 -0.1329 -0.0842  0.0801
 6772W        W10972   4.477   9.049   2.183  0.1490  0.1696 -0.0664
 6773W        W10973   8.254   4.127  10.779 -0.1594  0.0929  0.0050
 6774W        W10974   3.141   7.257  10.010 -0.0376 -0.0725 -0.1586
 6775W        W10975   5.222   5.751  11.090 -0.1955 -0.3318  0.2999
 6776W        W10976   4.204   3.205   0.493 -0.1678 -0.1150 -0.1290
 6777W        W10977   2.730   6.791   2.962  0.1230  0.0339  0.1516
 6778W        W10978   7.859   1.046  13.056 -0.0906  0.2068  0.0049
 6779W        W10979   0.645   8.632  12.134 -0.3023 -0.1871  0.0191
 6780W        W10980   8.926   9.839   3.491  0.2021 -0.4077 -0.2751
 6781W        W10981   8.972   3.859   3.405  0.0925  0.0863 -0.0464
 6782W        W10982   4.854   6.362  11.012  0.0945  0.0181 -0.2780
 6783W        W10983   6.920   6.616  12.349  0.0661 -0.1059  0.1957
 6784W        W10984   9.167   7.032   1.237 -0.2721  0.3011  0.1049
 6785W        W10985   0.083   5.445  12.122  0.0637 -0.0411  0.1082
 6786W        W10986   8.284   2.760   1.115 -0.1004  0.3184 -0.0598
 6787W        W10987   8.291   6.756   3.448 -0.0359 -0.3046  0.2557
 6788W        W10988   7.567   3.791   9.748  0.1918  0.0112 -0.2829
 6789W        W10989   7.515   6.776  10.440 -0.0303  0.0545 -0.2874
 6790W        W10990   6.974   4.306  10.845  0.2387  0.5101 -0.2691
 6791W        W10991  10.354   8.199   3.755 -0.3904  0.2381  0.1143
 6792W        W10992   1.515   4.951   2.316  0.0292  0.1427 -0.3326
 6793W        W10993   3.555   4.777   3.263 -0.1194 -0.0569  0.2517
 6794W        W10994  10.229   2.144   3.901  0.0871  0.0334 -0.0962
 6795W        W10995   0.163   4.135   9.275  0.1958 -0.1567  0.1363
 6796W        W10996   8.261   6.327   3.198 -0.1116  0.1108  0.0327
 6797W        W10997   3.655   6.236  11.870  0.0350  0.0465  0.0668
 6798W        W10998   5.191   4.911   2.196 -0.2307 -0.0600 -0.1105
 6799W        W10999   6.760   4.849  10.850 -0.2503 -0.2698  0.0195
 6800W        W11000   1.337   9.253   1.405  0.3534 -0.3873 -0.2659
 6801W        W11001   5.582   7.380   0.191  0.2334  0.0466  0.3579
 6802W        W11002   7.160   7.392   9.628  0.0846 -0.0597  0.0151
 6803W        W11003   9.120   0.718  12.099 -0.0531  0.1524 -0.2415
 6804W        W11004   8.765   1.133  11.909 -0.1871 -0.0697  0.1269
 6805W        W11005   9.397   3.112   1.032  0.1414  0.1420  0.2187
 6806W        W11006  10.198   7.577  10.722  0.3378  0.1445  0.0347
 6807W        W11007   0.101   1.341   2.715 -0.3761 -0.2842 -0.2506
 6808W        W11008   3.372   0.745   9.852  0.1513  0.1280  0.2167
 6809W        W11009   9.124   2.045   2.796 -0.1208  0.0925  0.0318
 6810W        W11010   6.337   4.494   2.645 -0.1676  0.0940  0.0706
 6811W        W11011   9.224   8.179   1.761 -0.0821  0.5623  0.2546
 6812W        W11012   2.310   1.947  12.582 -0.2823 -0.0745  0.0258
 6813W        W11013   2.369  10.019   9.206  0.0194  0.1851 -0.0843
 6814W        W11014   5.119   9.373  12.426 -0.1312  0.2053  0.1103
 6815W        W11015   4.855   0.222   2.547  0.0710 -0.2181  0.0019
 6816W        W11016   5.135   4.019  10.407 -0.1707  0.1812 -0.3673
 6817W        W11017   1.323   9.527  12.246 -0.2260  0.0207 -0.0078
 6818W        W11018   2.071   8.719  12.156  0.1193  0.1939  0.2452
 6819W        W11019   6.383   0.069   1.294  0.1051  0.1279  0.1525
 6820W        W11020   6.691   5.745  12.136  0.1088  0.1720  0.2303
 6821W        W11021   0.923   1.889   2.984 -0.0338  0.0149 -0.2222
 6822W        W11022   5.464   7.064  13.282 -0.2507 -0.0825  0.2157
 6823W        W11023   1.215   1.340   9.936  0.2930  0.1192 -0.1915
 6824W        W11024   7.698   2.921   9.257  0.0291  0.1157  0.1995
 6825W        W11025   7.484   1.475  13.368  0.7295 -0.1275  0.0865
 6826W        W11026   2.002   8.653   1.508  0.1134 -0.0738 -0.2914
 6827W        W11027   4.299   4.303   1.997  0.1070 -0.0232  0.1649
 6828W        W11028   9.517   9.549  13.416  0.2643  0.1071  0.0481
 6829W        W11029   4.465   9.405   9.243  0.1601 -0.0715 -0.0289
 6830W        W11030   2.623   6.276   0.535 -0.2847 -0.0339 -0.1242
 6831W        W11031   3.374   2.333   4.867 -0.2088 -0.1820  0.3235
 6832W        W11032   0.465   7.217   0.129  0.2118  0.1135 -0.0679
 6833W        W11033   5.041   6.714  10.132 -0.1176 -0.0252 -0.2931
 6834W        W11034   2.164   0.101   0.588  0.3012 -0.2357 -0.1454
 6835W        W11035   6.151   8.989   1.863  0.0095  0.0195 -0.1238
 6836W        W11036   7.440   9.465   1.758  0.0357  0.1802  0.0573
 6837W        W11037   3.904   9.714   3.721 -0.2951 -0.4447  0.2236
 6838W        W11038   2.851   8.805   8.744  0.1087  0.2088  0.2373
 6839W        W11039   6.165   5.449   3.851 -0.3221 -0.0865 -0.1626
 6840W        W11040   0.547   2.188   0.485  0.3307  0.2023 -0.2721
 6841W        W11041   7.100   2.415  11.458 -0.2343  0.2256  0.1882
 6842W        W11042   4.459   6.886   3.194  0.1255 -0.2471 -0.1085
 6843W        W11043   5.709   0.009   8.506 -0.1058 -0.0801  0.1206
 6844W        W11044   6.965   5.922   2.148  0.2277 -0.0707 -0.2097
 6845W        W11045   2.457   6.018   9.922  0.2496 -0.1502  0.0293
 6846W        W11046   4.700   2.400  11.867  0.1610  0.0506  0.2160
 6847W        W11047   7.573  10.318   3.937  0.1432 -0.0951  0.1566
 6848W        W11048  10.299   0.578   9.673  0.2131  0.0275  0.1262
 6849W        W11049   1.824   0.423   3.215  0.0955  0.1888  0.3306
 6850W        W11050   7.369   2.476  10.498 -0.0303  0.1768 -0.2429
 6851W        W11051   9.053   6.968   2.504 -0.3327 -0.0354 -0.0036
 6852W        W11052   7.198   6.447   9.889  0.0601 -0.1652  0.0768
 6853W        W11053   0.815   6.133  10.323 -0.3115  0.1095  0.1309
 6854W        W11054   6.601   4.841   2.317 -0.1077  0.3716 -0.0619
 6855W        W11055   7.810   8.083   3.761  0.1781 -0.0034  0.0628
 6856W        W11056   5.354   8.800   0.545 -0.1265 -0.2051 -0.0075
 6857W        W11057   2.503   2.665   0.766  0.0757  0.0956  0.0147
 6858W        W11058   8.466   6.234  11.522 -0.0641 -0.0563  0.2222
 6859W        W11059   0.181   6.837  12.242 -0.0570  0.1353  0.0146
 6860W        W11060   5.111   9.044   1.340  0.1746  0.4793  0.2127
 6861W        W11061   9.835   2.833   0.890 -0.3023 -0.1450 -0.2589
 6862W        W11062   3.919   6.762  11.323  0.2898 -0.4140  0.0118
 6863W        W11063   5.780   7.875   1.793  0.0679 -0.1895  0.3053
 6864W        W11064   2.381   8.142   2.315 -0.0815 -0.1950  0.1607
 6865W        W11065   2.044   8.555  10.661  0.2193  0.0254  0.0732
 6866W        W11066   3.736   0.258   0.203 -0.0488  0.1974  0.4007
 6867W        W11067   6.301   0.328  10.559 -0.0655 -0.3407 -0.4041
 6868W        W11068   8.760   8.906   2.371  0.0398  0.1429 -0.0337
 6869W        W11069   3.474   9.064  10.464  0.0869  0.1282  0.2181
 6870W        W11070   3.369   7.309   2.800 -0.2074  0.2106  0.1581
 6871W        W11071   6.576   4.278  13.143  0.0011  0.0973  0.0906
 6872W        W11072   6.186   4.256  10.779 -0.0005  0.0319 -0.3402
 6873W        W11073   9.736  10.015   1.650  0.2389 -0.1334  0.0694
 6874W        W11074   8.704  10.186  10.711 -0.1155 -0.4577  0.2538
 6875W        W11075   9.337   2.282   3.324  0.0277 -0.2144  0.1512
 6876W        W11076   0.400   9.397   9.312 -0.2099 -0.0134 -0.1898
 6877W        W11077   7.578  10.308   0.090  0.1358 -0.2130 -0.1235
 6878W        W11078   5.024  10.140   3.217 -0.2318  0.0811 -0.0506
 6879W        W11079   6.600   2.493   2.108 -0.1014  0.2099 -0.0877
 6880W        W11080  10.368   9.661   9.678  0.1823  0.1408 -0.1558
 6881W        W11081   6.997   6.085   4.294  0.0549  0.0872  0.0369
 6882W        W11082   2.131   3.087   4.632  0.0412 -0.3418  0.1289
 6883W        W11083   9.855   5.745  10.614 -0.0405 -0.0182  0.1354
 6884W        W11084   3.176   4.836   0.628 -0.0885 -0.2676  0.1440
 6885W        W11085   1.001   3.759   2.413 -0.0133  0.1600  0.2551
 6886W        W11086   7.402   2.897   3.562 -0.4333  0.0384  0.2867
 6887W        W11087   5.711   2.368   8.632  0.0328  0.1370 -0.0504
 6888W        W11088  10.433   0.728   4.646  0.2171  0.0599 -0.2095
 6889W        W11089   0.506   7.502  10.144  0.1040  0.0535 -0.0846
 6890W        W11090   8.876   9.651   9.255 -0.2410  0.2292  0.1457
 6891W        W11091   1.764   3.003   3.945  0.0901  0.0234  0.2720
 6892W        W11092   5.828   4.400   9.950 -0.0374 -0.1922 -0.3147
 6893W        W11093   1.152   9.462   2.802 -0.3729  0.1822 -0.0667
 6894W        W11094   3.239   4.033   2.503  0.1369 -0.1305 -0.1701
 6895W        W11095   3.668   4.652  10.725  0.1552  0.0094  0.4609
 6896W        W11096   3.522   0.923   2.373  0.0233  0.1806 -0.0881
 6897W        W11097   5.321   1.727   0.289 -0.0154  0.0189  0.0208
 6898W        W11098   9.706   7.645  13.258 -0.0031 -0.0860 -0.1211
 6899W        W11099   7.026   8.542   2.703 -0.1481  0.0246 -0.3813
 6900W        W11100   8.035   6.161   2.412  0.0393 -0.2469 -0.0155
 6901W        W11101   0.149   3.745  13.331 -0.3556  0.0026  0.1568
 6902W        W11102   5.710   6.184  13.162 -0.0247  0.0670 -0.2394
 6903W        W11103   1.934   1.557   4.809  0.2651  0.1179 -0.1960
 6904W        W11104   5.471   6.525   8.207 -0.1519  0.0043 -0.3461
 6905W        W11105   2.384   7.449  12.880  0.2149 -0.1427  0.1001
 6906W        W11106   7.951  10.046  12.444 -0.0552  0.1523  0.0544
 6907W        W11107   4.704   4.905   4.143  0.0017  0.3125  0.0075
 6908W        W11108   3.148  10.054  10.805  0.2056 -0.1112 -0.0423
 6909W        W11109   2.847   7.148   0.618  0.0550  0.1231  0.0319
 6910W        W11110   4.134   3.163   3.386 -0.0719 -0.1254  0.0232
 6911W        W11111   9.480   7.819   4.260 -0.0610  0.0078  0.0004
 6912W        W11112   7.183   7.854   0.941  0.3997 -0.3652  0.1073
 6913W        W11113   8.124   6.674   2.267  0.1733  0.0642 -0.0026
 6914W        W11114   0.169   2.157  10.510  0.2638  0.0491  0.2146
 6915W        W11115   2.561   0.970   1.964 -0.0357  0.2265  0.0775
 6916W        W11116   6.266   9.666   2.440 -0.1515  0.0934  0.0457
 6917W        W11117   2.311   5.488   3.780 -0.0437  0.0168  0.2704
 6918W        W11118   0.281   0.679   9.383  0.0413  0.0920 -0.1965
 6919W        W11119   3.539   1.853   3.193  0.0820  0.0486  0.0631
 6920W        W11120   4.413   4.825   3.762 -0.0411 -0.5519  0.0541
 6921W        W11121   6.283   7.724  13.280 -0.1175  0.3797  0.1344
 6922W        W11122   9.371   6.600  10.967 -0.1154  0.0117 -0.0885
 6923W        W11123   5.284   8.419   3.879 -0.2121 -0.0528 -0.1763
 6924W        W11124   9.815   3.907   1.401 -0.0893 -0.0475 -0.1263
 6925W        W11125   4.316   4.777   4.457  0.1953 -0.3398  0.0421
 6926W        W11126   9.043   5.037   0.446  0.2649 -0.0229 -0.2732
 6927W        W11127   8.922   2.097  11.779  0.1092  0.0459 -0.1707
 6928W        W11128   9.144   1.796   1.566  0.2024  0.0159 -0.1061
 6929W        W11129   7.614   3.362  12.167 -0.1794 -0.0138  0.0540
 6930W        W11130   2.812   2.803   4.120 -0.1504  0.1922 -0.1165
 6931W        W11131   0.633   1.002  11.725  0.2178  0.1020  0.0789
 6932W        W11132   1.907   1.209   4.454  0.2025 -0.4699 -0.1684
 6933W        W11133   7.897   9.099  11.890  0.1196  0.0714 -0.1486
 6934W        W11134   8.553   3.214  11.324  0.1703  0.0430  0.4889
 6935W        W11135   5.899  10.361  12.956  0.0801  0.1520 -0.1157
 6936W        W11136   2.110   8.808   0.983 -0.0558  0.0247  0.3391
 6937W        W11137   3.512   8.536   9.330  0.1278 -0.2044 -0.0478
 6938W        W11138   8.617   1.800   9.667 -0.1979  0.0521 -0.1923
 6939W        W11139   7.110   2.182  12.524  0.0355 -0.0043 -0.0315
 6940W        W11140   0.877   9.223   3.170  0.2969  0.1023  0.0707
 6941W        W11141   3.792   9.514   9.499  0.1016  0.0949  0.1285
 6942W        W11142   4.019   3.583   9.459  0.4176  0.2582  0.2357
 6943W        W11143   9.670   9.022  11.864 -0.2408  0.3771  0.1581
 6944W        W11144   9.544   6.875   0.959  0.0598  0.0532  0.2811
 6945W        W11145   7.032   3.546  12.244  0.0148 -0.0621  0.1326
 6946W        W11146   9.666   0.199   2.701  0.2836 -0.0383 -0.2172
 6947W        W11147   2.869   4.130  12.248 -0.1163 -0.0221  0.0159
 6948W        W11148   8.378   1.714  11.242  0.0233 -0.0371 -0.1659
 6949W        W11149   9.669   8.716  13.150  0.0308 -0.0095  0.4342
 6950W        W11150   1.506   6.857  10.131  0.0634  0.1222 -0.0268
 6951W        W11151   1.454   3.901   2.381  0.3108 -0.2143  0.0215
 6952W        W11152   5.724   9.998  12.062 -0.0570 -0.0553  0.1076
 6953W        W11153   7.492   1.766   0.261  0.1465 -0.0762  0.0937
 6954W        W11154   8.986   1.189   9.310 -0.2313  0.0561  0.4518
 6955W        W11155   9.809   9.481   4.265 -0.0237 -0.0098 -0.1960
 6956W        W11156   5.611   2.587  12.407 -0.2057 -0.1227  0.1938
 6957W        W11157   0.342   6.557  12.762 -0.0376  0.3497 -0.2306
 6958W        W11158   0.636   4.386   2.347 -0.0887  0.0600  0.0404
 6959W        W11159   0.033   1.161   1.104 -0.0265  0.1753 -0.0266
 6960W        W11160   4.799   0.444   9.469  0.1935  0.0133  0.1748
 6961W        W11161   1.812   5.110  12.753 -0.2471  0.1071  0.2713
 6962W        W11162   2.553  10.322   0.288  0.0988 -0.0870  0.0614
 6963W        W11163   7.966   3.236   4.339  0.2372  0.4644  0.3249
 6964W        W11164   7.912   8.356   0.745  0.2927  0.2715  0.0024
 6965W        W11165   2.061   1.676   2.243 -0.0610  0.0935 -0.0335
 6966W        W11166   5.674   6.501  12.227 -0.0628  0.1783 -0.0119
 6967W        W11167   9.128   4.795   3.150 -0.4032 -0.1894  0.1218
 6968W        W11168   4.956   1.735   3.770 -0.2564  0.1347  0.1466
 6969W        W11169   0.810   1.742  10.062 -0.1198  0.0602  0.2594
 6970W        W11170   8.259   7.143   4.128 -0.3292 -0.3917  0.0162
 6971W        W11171   5.538   1.489   1.599 -0.2147  0.0852  0.0744
 6972W        W11172   8.432  10.242  11.906  0.0758  0.2789 -0.1754
 6973W        W11173   6.545   7.000   1.126 -0.2461  0.0126 -0.0070
 6974W        W11174   2.477   5.411  11.781 -0.0323 -0.1278  0.1140
 6975W        W11175   6.233   2.017   1.965  0.0060 -0.0582 -0.1322
 6976W        W11176   9.333   9.345   0.335 -0.3430 -0.1380 -0.0604
 6977W        W11177   2.906   1.421   2.458  0.0824 -0.2241 -0.0542
 6978W        W11178   7.092   5.129  10.141 -0.0300  0.1474 -0.0882
 6979W        W11179   9.163   7.323   0.196  0.1777 -0.1510 -0.1914
 6980W        W11180   7.014   4.545   2.357  0.0277  0.2097 -0.2423
 6981W        W11181   1.060   4.902   1.619  0.0707  0.0876  0.0922
 6982W        W11182   6.163   2.753  12.400 -0.2330  0.1451 -0.3422
 6983W        W11183   4.224   0.662  12.810  0.1039  0.2377  0.1399
 6984W        W11184   2.149   2.187   4.201 -0.1408  0.1958 -0.3640
 6985W        W11185   7.643   6.177   0.563  0.0080  0.0758 -0.4550
 6986W        W11186   5.717   6.693   3.807  0.0557  0.4219  0.1730
 6987W        W11187   3.502   6.270   0.931  0.4047 -0.2156 -0.0401
 6988W        W11188   0.070   8.822  10.410  0.2669 -0.1869 -0.1495
 6989W        W11189   7.578   2.909   2.961  0.2849 -0.0871 -0.0749
 6990W        W11190   9.508   1.026   1.169 -0.4009  0.0858  0.1474
 6991W        W11191   0.040   1.042  12.648 -0.2035  0.0592 -0.4057
 6992W        W11192   5.506   0.777   4.188 -0.0727 -0.0668 -0.0060
 6993W        W11193   2.918   7.040   2.584  0.0086 -0.0161 -0.0306
 6994W        W11194   3.762   7.420  12.002 -0.0838 -0.4800 -0.4073
 6995W        W11195   4.061   5.143  11.491  0.0276  0.0221 -0.0318
 6996W        W11196  10.356   7.211  11.382 -0.1534  0.1017  0.2367
 6997W        W11197   2.877   8.371  10.087  0.2798 -0.0505  0.3499
 6998W        W11198   0.971   1.495   1.358 -0.0411  0.2837 -0.2098
 6999W        W11199   0.169   2.745  13.404 -0.4356  0.0611  0.2174
 7000W        W11200   6.040   6.392   2.413 -0.3734 -0.1087  0.1833
 7001W        W11201   3.609   0.438   2.140 -0.0846 -0.0211 -0.0515
 7002W        W11202   9.607   4.916  10.785  0.1216  0.0157 -0.4063
 7003W        W11203   5.769   1.419   4.157  0.2970 -0.0472  0.1949
 7004W        W11204  10.216   5.018  12.874 -0.0726 -0.0659  0.3538
 7005W        W11205   8.314   2.269   9.085 -0.1841  0.0880 -0.1127
 7006W        W11206   6.613   7.905  11.064  0.2543  0.0775  0.0418
 7007W        W11207   6.673   3.945   5.155  0.0305 -0.1678  0.0821
 7008W        W11208   3.439   0.798   3.151  0.0250 -0.2278 -0.3911
 7009W        W11209   9.926   0.004   9.886 -0.0339 -0.2662  0.0260
 7010W        W11210   2.059   9.725   1.358 -0.2282  0.1148 -0.1881
 7011W        W11211   2.945   5.383   3.224 -0.2649  0.2651  0.2149
 7012W        W11212   3.934   0.034   1.057 -0.1963  0.1089 -0.0268
 7013W        W11213   1.153   4.664  10.248  0.1537  0.1062 -0.0434
 7014W        W11214   2.593   9.545   0.762  0.0924 -0.2014  0.0383
 7015W        W11215  10.158   6.229  11.653 -0.0681  0.0438  0.0356
 7016W        W11216   4.287   9.641   4.496 -0.4143 -0.0838  0.1201
 7017W        W11217   4.873   3.267   4.295 -0.0778  0.0890  0.0070
 7018W        W11218   5.725   0.321  12.724  0.1879  0.1557  0.0480
 7019W        W11219   9.665   9.805   2.174 -0.2117 -0.1863  0.3300
 7020W        W11220   3.475   1.814   9.651 -0.3152 -0.0099 -0.4145
 7021W        W11221   5.643   8.026   0.476  0.0863  0.0207  0.0660
 7022W        W11222   6.814   1.962  11.313  0.2922 -0.0652 -0.0846
 7023W        W11223   6.371   7.136  10.137  0.0850  0.0725  0.3129
 7024W        W11224   6.135   6.817   0.755 -0.0659 -0.0879  0.1032
 7025W        W11225   5.206   3.258  11.087  0.0086 -0.2126  0.0897
 7026W        W11226   0.894   7.893   2.608 -0.3331  0.3138  0.0796
 7027W        W11227   5.017   6.073  11.819  0.3368 -0.0655 -0.0190
 7028W        W11228   8.406   7.990   5.460 -0.0027  0.1591 -0.2355
 7029W        W11229   8.972   5.987   0.730  0.4111  0.1517 -0.1510
 7030W        W11230   6.016   1.798   9.439 -0.2175 -0.2349 -0.1545
 7031W        W11231   6.018   5.401   4.357 -0.2118  0.3568 -0.3893
 7032W        W11232   8.796   0.505  12.926 -0.1461 -0.1598  0.0416
 7033W        W11233   8.563   7.313  11.107  0.3518 -0.2067 -0.2945
 7034W        W11234   2.949   1.880   4.143  0.1343 -0.1765 -0.0170
 7035W        W11235   9.674   0.806   4.089 -0.1717 -0.0920  0.1198
 7036W        W11236  10.405   0.056  13.430 -0.0596 -0.2883 -0.2339
 7037W        W11237  10.067   4.550   4.036 -0.0341  0.2548 -0.3528
 7038W        W11238   3.200   6.595   1.883 -0.1683 -0.1166  0.1688
 7039W        W11239   0.145   7.500   3.068  0.1085 -0.3621  0.0133
 7040W        W11240   3.002   6.473   1.261  0.0097 -0.0585 -0.1624
 7041W        W11241   0.275   3.117  12.484  0.1344  0.0120 -0.1213
 7042W        W11242   6.522   2.787   9.550  0.0543 -0.0399  0.3382
 7043W        W11243   2.337   6.946  10.328  0.3513  0.3092  0.1225
 7044W        W11244   8.138   3.016   9.821 -0.0157  0.0298  0.1555
 7045W        W11245   1.809   5.571  12.429  0.0827  0.0865  0.3047
 7046W        W11246   2.674   2.207  11.185 -0.0813  0.0537  0.1493
 7047W        W11247   0.827   0.820   5.089  0.1700 -0.1572  0.0783
 7048W        W11248   6.064   0.776  12.667 -0.0531  0.3157 -0.0405
 7049W        W11249   3.614   0.174   9.806 -0.0708  0.0286 -0.1118
 7050W        W11250   8.710   2.571   1.397 -0.1192 -0.3567 -0.0064
 7051W        W11251  10.109  10.333  11.853 -0.0273  0.1118  0.4891
 7052W        W11252   8.718   0.314   2.187 -0.1870  0.1719 -0.0952
 7053W        W11253   4.900   4.210   3.328 -0.0072 -0.0760 -0.0438
 7054W        W11254   3.522   2.766   8.431  0.2756  0.3327 -0.2989
 7055W        W11255   0.476   9.535  12.249 -0.1823  0.2845  0.0932
 7056W        W11256   7.542   3.254   2.025  0.0128 -0.4725 -0.0746
 7057W        W11257   5.862   5.996   9.053  0.2577 -0.1526 -0.0973
 7058W        W11258   9.899   2.188   4.822 -0.1028 -0.0427  0.1736
 7059W        W11259   6.848   9.789   8.553 -0.0647 -0.1203  0.3251
 7060W        W11260   7.630   7.953   4.285  0.0796 -0.0915 -0.2200
 7061W        W11261   3.522   5.709   1.768 -0.1193  0.2107 -0.1481
 7062W        W11262   3.564   7.917   3.566  0.0328  0.3813  0.1059
 7063W        W11263   8.339   5.224  11.336 -0.0988  0.2743 -0.0603
 7064W        W11264   3.020   7.094   2.026 -0.3202 -0.0114  0.1134
 7065W        W11265   6.344   5.919  10.082  0.1942  0.0226 -0.0511
 7066W        W11266   3.234   1.859   0.450  0.1010  0.0424 -0.1861
 7067W        W11267   5.318   6.525  10.802 -0.4610 -0.0972 -0.0598
 7068W        W11268   5.610   0.311   1.639 -0.1835  0.0651  0.2124
 7069W        W11269   8.408   5.357   9.412  0.2427 -0.1278  0.1101
 7070W        W11270   8.675   1.474   1.519 -0.1324  0.3863 -0.0474
 7071W        W11271   4.359   4.309  10.465 -0.3012  0.0615 -0.2622
 7072W        W11272   1.002   1.484   1.941  0.1308  0.2816 -0.2680
 7073W        W11273   1.274   2.035   2.686  0.1478 -0.2500 -0.0939
 7074W        W11274   6.901   4.733   0.571  0.1307 -0.2482 -0.0411
 7075W        W11275   5.335   3.124   4.070 -0.2913 -0.0404 -0.0603
 7076W        W11276   1.040   8.745   2.226  0.2750  0.0735  0.1331
 7077W        W11277  10.288   7.244   3.415 -0.0969 -0.1662  0.1004
 7078W        W11278   6.847   4.267   9.514  0.0123 -0.3821  0.0744
 7079W        W11279   1.832   7.818   1.847  0.0351  0.1552 -0.2515
 7080W        W11280   4.415   0.524   0.275 -0.1601  0.0837 -0.1622
 7081W        W11281   4.252   4.103   2.544  0.0666  0.1580 -0.0322
 7082W        W11282   3.620  10.433  13.300  0.3052 -0.2092 -0.2090
 7083W        W11283   1.168   9.743  10.428  0.2139  0.0894  0.0504
 7084W        W11284   2.700   1.670   3.344 -0.0834 -0.1767  0.0908
 7085W        W11285   2.690  10.380  10.867  0.1024 -0.0003 -0.1450
 7086W        W11286   0.762  10.365   5.520  0.2569 -0.1797 -0.2637
 7087W        W11287   9.650   6.796   9.543 -0.0988 -0.0202 -0.0383
 7088W        W11288   2.043   1.711  12.224 -0.1964  0.1484 -0.1800
 7089W        W11289   9.894   0.289  11.941 -0.0133  0.2038  0.3128
 7090W        W11290   0.435   5.782   3.637  0.1878 -0.1200  0.1644
 7091W        W11291  10.408   4.635  13.260  0.0934  0.3143 -0.2759
 7092W        W11292   3.521   1.518   9.179  0.3190  0.0761  0.1821
 7093W        W11293   0.842   0.463  13.391  0.2357 -0.1761  0.3339
 7094W        W11294   8.720   7.774   2.575 -0.0684 -0.0609 -0.1563
 7095W        W11295   4.348   5.201  12.409  0.0086 -0.3205  0.0310
 7096W        W11296   5.130   6.731   4.501  0.2331 -0.0819  0.0257
 7097W        W11297   9.543   2.747  10.995  0.2014 -0.0598  0.2464
 7098W        W11298   0.969   5.806   2.065 -0.1310  0.1214  0.2283
 7099W        W11299   8.966   5.971   2.725 -0.2392 -0.4131 -0.0037
 7100W        W11300   8.121   2.500   9.883  0.0657 -0.0713  0.3143
 7101W        W11301   8.241   1.189  10.699 -0.0540  0.1249  0.0119
 7102W        W11302   9.883   9.352   9.381 -0.3320  0.0622 -0.1241
 7103W        W11303   0.474   3.509   4.678 -0.0667  0.2583  0.4965
 7104W        W11304   8.543   9.698   9.622  0.1787  0.1989 -0.2900
 7105W        W11305   4.236   2.329   3.699  0.0990 -0.0378  0.3262
 7106W        W11306   1.650   6.197   1.892  0.0335  0.1022  0.0386
 7107W        W11307   0.935   7.934   3.545 -0.0204  0.1701 -0.2215
 7108W        W11308   7.553   7.185   5.430  0.0727  0.0282  0.0136
 7109W        W11309   5.078   8.209   0.105  0.1421  0.2679  0.2393
 7110W        W11310   3.034   7.954   0.230  0.1626 -0.1789  0.2727
 7111W        W11311   1.840   2.556   1.955 -0.0386  0.1784 -0.3050
 7112W        W11312   4.329   8.554   9.636  0.1584  0.1456 -0.0587
 7113W        W11313   7.331   7.442  13.134  0.0087 -0.1714  0.0293
 7114W        W11314   0.512   7.615  13.274 -0.1258  0.0578 -0.0884
 7115W        W11315   6.491   4.480  11.144  0.0424 -0.0040  0.0555
 7116W        W11316   6.705   9.863   4.509 -0.2992  0.3170 -0.0603
 7117W        W11317   3.815   5.829   2.170 -0.2258  0.3219  0.0531
 7118W        W11318   6.077   2.264  11.623  0.3393  0.1127 -0.2329
 7119W        W11319   9.247   3.536  10.165  0.4928  0.0219  0.0492
 7120W        W11320   8.947   4.436  13.279  0.0992  0.0641  0.1942
 7121W        W11321   0.826   7.385   2.740  0.1956 -0.0235  0.0019
 7122W        W11322   7.317   3.047   5.239  0.1309  0.1506  0.0156
 7123W        W11323   2.298   7.874   1.077 -0.1144 -0.2161 -0.1568
 7124W        W11324   6.932   1.311  12.045  0.0540  0.0888 -0.0004
 7125W        W11325   6.409   9.406   4.515  0.0963  0.3517 -0.2599
 7126W        W11326   4.450   8.929   8.856  0.0722 -0.1299  0.0857
 7127W        W11327   3.735   9.662   0.511  0.0082 -0.0195 -0.0127
 7128W        W11328   5.970   2.028   2.544 -0.0375 -0.2836 -0.5313
 7129W        W11329   5.403   6.467  10.309  0.0622  0.1000 -0.1414
 7130W        W11330   8.504   8.870   0.288 -0.2717  0.0116  0.0585
 7131W        W11331   1.255   1.582  11.700 -0.1163 -0.0404 -0.0434
 7132W        W11332   9.630   3.221   0.605  0.1107 -0.0037  0.2742
 7133W        W11333   4.209   7.891   3.250  0.0610 -0.4663 -0.2707
 7134W        W11334   5.399   4.037   8.088  0.0282 -0.0812  0.1548
 7135W        W11335  10.333   2.878  11.702  0.0282  0.2813 -0.1215
 7136W        W11336   3.645  10.020   4.097  0.3141 -0.1361  0.1650
 7137W        W11337   4.032   0.812   2.301  0.0581 -0.0567 -0.2794
 7138W        W11338   5.120   2.495  12.807  0.0278  0.0891  0.2519
 7139W        W11339  10.098   0.422  11.042  0.1501 -0.0856 -0.0370
 7140W        W11340   1.951   7.211   4.004 -0.1536  0.1239  0.1715
 7141W        W11341   8.189   9.054   1.606  0.0658  0.1044 -0.0400
 7142W        W11342   9.506   2.999   0.169  0.3797 -0.0337  0.0302
 7143W        W11343   9.651   0.601   2.967 -0.1264  0.0901 -0.0060
 7144W        W11344   1.047   1.742   4.443 -0.1011  0.2053  0.1802
 7145W        W11345   7.569   1.078   4.396 -0.1634 -0.1747  0.2043
 7146W        W11346   8.648   9.762  11.510 -0.1313 -0.1015 -0.2763
 7147W        W11347   6.517   5.331  11.755 -0.0689  0.2467 -0.5095
 7148W        W11348   6.527   1.104   4.225  0.3284 -0.1235  0.0925
 7149W        W11349   3.787   8.430  12.473  0.1743  0.0114  0.1950
 7150W        W11350   2.559   0.413   0.316  0.1981 -0.1950  0.1359
 7151W        W11351   2.736   4.855   3.352 -0.3002  0.0158  0.0945
 7152W        W11352   6.842   1.237   1.439 -0.4848 -0.0325  0.1502
 7153W        W11353   4.350   2.158   1.833  0.0848 -0.0727  0.0042
 7154W        W11354   2.402   5.323   3.233  0.2008 -0.0063  0.1099
 7155W        W11355   7.086   6.854   1.978 -0.2875  0.1564 -0.1113
 7156W        W11356   6.545   2.306  12.798  0.1219  0.2917  0.1195
 7157W        W11357   2.376   0.934   4.469 -0.2355  0.0602  0.0466
 7158W        W11358   9.017   2.771  10.097 -0.1211  0.1490  0.2997
 7159W        W11359   9.338   1.339   5.637  0.0338  0.3033 -0.0454
 7160W        W11360   5.781   9.840   2.203 -0.1907  0.0637 -0.0801
 7161W        W11361   5.983   7.668   0.183 -0.0953 -0.0414 -0.0278
 7162W        W11362   8.642   2.966  13.044 -0.0052  0.1750  0.3277
 7163W        W11363   2.805   0.656  11.490 -0.1445 -0.0263 -0.2196
 7164W        W11364   9.681   2.501   2.311  0.0814  0.0571  0.1604
 7165W        W11365   7.170   7.635  11.688  0.1521 -0.2001  0.1974
 7166W        W11366   8.042   0.232   0.229 -0.0033 -0.3810  0.2989
 7167W        W11367   2.468   3.291  13.200 -0.1009 -0.1202 -0.2405
 7168W        W11368   0.240   9.482  11.070  0.1511  0.0016  0.2663
 7169W        W11369   9.854  10.113   8.742  0.1255 -0.4425  0.0447
 7170W        W11370   5.626   3.047   9.873  0.0314 -0.1622 -0.2739
 7171W        W11371   1.618   4.199  12.386  0.4009  0.1036 -0.1583
 7172W        W11372   6.088  10.032  10.796 -0.0563 -0.0442 -0.1670
 7173W        W11373   5.533   4.517   0.100 -0.0337 -0.0903 -0.3442
 7174W        W11374   7.799   1.698  12.296  0.2140  0.2701  0.4338
 7175W        W11375   3.626   2.094   0.966  0.1482  0.2698 -0.3661
 7176W        W11376   3.588   2.682   2.131  0.0615 -0.1300  0.0342
 7177W        W11377   5.283   5.983   3.213  0.2543 -0.0797 -0.1581
 7178W        W11378   6.146   9.579   1.886 -0.0082 -0.0945 -0.1913
 7179W        W11379   3.501   9.527   2.932  0.1552  0.1157 -0.2471
 7180W        W11380   5.834   9.442   2.686 -0.0426  0.0134 -0.0846
 7181W        W11381   9.004   4.131  11.840 -0.2459 -0.2179 -0.0909
 7182W        W11382   9.908   0.515   1.146 -0.1479  0.0207  0.0562
 7183W        W11383   6.898   3.763  11.431 -0.0461  0.1567 -0.0115
 7184W        W11384   7.657   1.151   9.840 -0.0435 -0.0170  0.1456
 7185W        W11385   7.355   1.861   9.163  0.1218 -0.0540 -0.1258
 7186W        W11386   6.448   5.207   3.061  0.4992  0.0983 -0.0734
 7187W        W11387   2.284   5.788   3.330  0.2180  0.1528  0.2343
 7188W        W11388   4.932   8.474   9.583 -0.0404 -0.0897  0.0926
 7189W        W11389   5.198   3.689   3.405  0.1273 -0.0417  0.0051
 7190W        W11390   4.828   5.494   1.510  0.0495 -0.0291  0.1038
 7191W        W11391   9.680   7.359  12.500  0.2706  0.0370 -0.3120
 7192W        W11392   6.113   3.649   2.155  0.1151  0.1571  0.1462
 7193W        W11393   4.420   9.231   0.010  0.0233  0.0735 -0.1188
 7194W        W11394   6.141   8.139  10.316  0.2104 -0.2294  0.2334
 7195W        W11395   4.042   9.281   4.743 -0.1053  0.1333  0.0814
 7196W        W11396   5.275   5.982   4.087 -0.0362 -0.0185 -0.0409
 7197W        W11397   1.040   6.618   0.775 -0.0636 -0.1206  0.0224
 7198W        W11398   3.523   6.042   4.560 -0.1389 -0.1410  0.2615
 7199W        W11399   0.018   8.974  10.865  0.1088 -0.0560  0.2225
 7200W        W11400   4.157   9.861   1.140 -0.0184  0.0594 -0.1986
 7201W        W11401   2.206   6.251   1.423 -0.1241 -0.1644  0.1220
 7202W        W11402   3.864   8.334   3.321 -0.0633  0.2545 -0.3030
 7203W        W11403   0.799   0.355   1.273 -0.1081  0.2895  0.2139
 7204W        W11404   4.188   6.677  11.805 -0.0091 -0.2541  0.0000
 7205W        W11405   9.714   5.306  12.198 -0.1284 -0.2672 -0.1820
 7206W        W11406   4.231   9.123  12.133 -0.2691 -0.1966 -0.2480
 7207W        W11407   0.713   4.643   3.083 -0.2256 -0.1944 -0.1971
 7208W        W11408   5.560   6.812   9.908 -0.4013  0.1683 -0.0220
 7209W        W11409   5.950   4.909   9.969 -0.2413 -0.0702 -0.0872
 7210W        W11410   3.563   3.256  11.015  0.1095 -0.0695  0.3595
 7211W        W11411   5.146   6.741  11.326 -0.2680 -0.0194  0.1436
 7212W        W11412   3.974   0.125  11.001 -0.2902 -0.2875  0.2322
 7213W        W11413   3.760   8.513  11.068 -0.0764 -0.2429  0.1990
 7214W        W11414   2.199   1.815   2.700  0.1844  0.0102  0.1404
 7215W        W11415   9.452   4.924   0.680  0.2679  0.2493 -0.2434
 7216W        W11416   5.680   8.799   2.121 -0.3656 -0.1132  0.3857
 7217W        W11417   8.931   5.608  12.404 -0.2127  0.0840 -0.0876
 7218W        W11418   9.136   6.747   1.660 -0.1752  0.1946 -0.0796
 7219W        W11419   0.701   2.409   9.467  0.0108  0.2198  0.0556
 7220W        W11420  10.299   0.402  12.469 -0.0428  0.1377 -0.1801
 7221W        W11421   5.918   4.412  12.611  0.2207 -0.0170  0.0013
 7222W        W11422   2.942   8.771   1.579 -0.0020 -0.2039 -0.0983
 7223W        W11423   0.154   3.678  11.256  0.2162 -0.2218  0.0030
 7224W        W11424   5.355   4.094   4.212  0.2393  0.0713 -0.3213
 7225W        W11425   7.009   9.932   2.528  0.1052  0.3057 -0.1771
 7226W        W11426   4.985   3.736   9.307  0.1910 -0.2573 -0.0171
 7227W        W11427   2.256   9.480  11.754 -0.1459 -0.2369  0.0392
 7228W        W11428   9.890   4.970   0.354 -0.3623 -0.0484 -0.0637
 7229W        W11429   3.017   6.257  12.901  0.0041 -0.3959 -0.3641
 7230W        W11430   7.408   3.960   4.686  0.3273 -0.0630 -0.1798
 7231W        W11431   9.603   4.527   0.991  0.0070 -0.0282 -0.3834
 7232W        W11432   0.606   2.662   0.709  0.0950 -0.0195  0.1196
 7233W        W11433   9.999   8.022  10.358 -0.0591  0.2258 -0.0132
 7234W        W11434   2.610   9.035  12.993 -0.3558  0.1461 -0.1091
 7235W        W11435   4.397   7.910   2.305  0.1026  0.2047 -0.1239
 7236W        W11436   4.806   4.651   9.082  0.2454 -0.0588 -0.3741
 7237W        W11437   5.465   8.869   1.021 -0.2436  0.1200 -0.1741
 7238W        W11438   5.500   2.980   1.408 -0.0693  0.2670  0.0578
 7239W        W11439   8.907   8.191  12.610  0.0462 -0.0663 -0.0671
 7240W        W11440   5.348   1.654  12.356 -0.0564 -0.0989  0.2397
 7241W        W11441   1.968   7.961   0.391  0.0800 -0.1728 -0.1654
 7242W        W11442   4.161   6.527   9.184 -0.2883 -0.1227  0.0305
 7243W        W11443   6.151   8.925   0.629  0.3846  0.0028  0.0091
 7244W        W11444   1.711   3.208  10.557  0.0033 -0.0623 -0.2520
 7245W        W11445   7.232   7.329   2.174  0.0727 -0.1137 -0.0810
 7246W        W11446   8.441   0.455   9.124  0.0568 -0.0768  0.1481
 7247W        W11447  10.418   8.420   9.672  0.0622 -0.1839  0.1712
 7248W        W11448   6.989   5.037  11.540 -0.0423 -0.0566 -0.3105
 7249W        W11449   5.596   7.396   9.049  0.0149 -0.1169  0.2873
 7250W        W11450   0.659   2.349  11.609 -0.3691  0.1544  0.0393
 7251W        W11451   1.164   7.687   3.001  0.1862 -0.3746  0.1084
 7252W        W11452   5.309  10.220   0.384  0.0589 -0.2541 -0.1766
 7253W        W11453   1.761   3.516   2.232 -0.3065 -0.1542  0.4259
 7254W        W11454   6.883   8.547   9.756 -0.3174 -0.0014 -0.2510
 7255W        W11455   5.561   3.268   3.331 -0.0827 -0.2035  0.0860
 7256W        W11456   1.807   0.814   5.388  0.1245  0.0510 -0.2133
 7257W        W11457  10.121   0.087   2.388 -0.0648 -0.1239 -0.0750
 7258W        W11458   2.034   9.063   4.459 -0.2228 -0.2798 -0.1044
 7259W        W11459   4.935   7.859  12.756  0.0878 -0.0863 -0.0793
 7260W        W11460   7.301   3.632   1.573  0.1367  0.4176 -0.2520
 7261W        W11461   9.419   2.242  10.745 -0.1743  0.2202 -0.0095
 7262W        W11462   6.848   7.920   9.693  0.0671 -0.0891 -0.0852
 7263W        W11463   3.991   2.609   0.255 -0.0526  0.0603 -0.4040
 7264W        W11464   9.418   3.237  12.944 -0.2062  0.0620  0.1109
 7265W        W11465   0.250   4.786  12.850  0.1834  0.1414 -0.1805
 7266W        W11466   1.901   1.675  12.798 -0.0472  0.1576 -0.1855
 7267W        W11467   5.034   9.757  10.693 -0.1884 -0.2033  0.1698
 7268W        W11468   8.865   3.479   3.050 -0.0431  0.0559  0.1865
 7269W        W11469   1.449   9.566  11.692  0.0095 -0.0560  0.2580
 7270W        W11470   6.805   0.326   1.121 -0.2170 -0.0110 -0.0502
 7271W        W11471   2.308   8.614   2.171  0.2966  0.0657 -0.1648
 7272W        W11472   2.349   5.056   2.315  0.0145  0.0194  0.2065
 7273W        W11473   8.276   0.570  10.834 -0.3517  0.0664  0.5228
 7274W        W11474   1.705   9.941  13.465 -0.0726 -0.2364 -0.1716
 7275W        W11475  10.103   0.326  10.386 -0.0033 -0.2761 -0.1316
 7276W        W11476   7.762   8.864  13.091 -0.0182  0.0339  0.3493
 7277W        W11477   7.571   9.606   9.864 -0.2646  0.0845  0.1175
 7278W        W11478   3.900   3.927   9.883  0.3042  0.2937 -0.1067
 7279W        W11479   6.979   5.628   1.591  0.0186 -0.0636  0.0854
 7280W        W11480   7.675   9.590   9.247  0.2195  0.2283 -0.0295
 7281W        W11481   6.987   8.253   9.359 -0.2162 -0.1650  0.1403
 7282W        W11482   6.076   0.476   3.102 -0.1631 -0.2984  0.3594
 7283W        W11483   1.587   2.882  11.707  0.1732  0.1130 -0.1372
 7284W        W11484   6.647  10.179   0.411  0.2246  0.0822 -0.1375
 7285W        W11485   3.164   6.742  12.854 -0.0043 -0.0597  0.3062
 7286W        W11486   7.528   5.895  11.581 -0.1641 -0.1689  0.0926
 7287W        W11487   5.712   0.966   3.791  0.1053  0.1372  0.3404
 7288W        W11488   3.491   6.586   1.489  0.3389 -0.0341 -0.1834
 7289W        W11489   6.718   8.475   4.548  0.0496 -0.0635  0.5290
 7290W        W11490   7.980   5.507  10.422 -0.2043 -0.0159 -0.0010
 7291W        W11491   3.644   4.833   2.736 -0.1780 -0.0096 -0.2223
 7292W        W11492   8.289   4.092  13.373 -0.0988 -0.0175 -0.1247
 7293W        W11493   1.942   5.419   1.555  0.1939  0.0942  0.4242
 7294W        W11494   3.843   0.237   1.585 -0.2840  0.3542 -0.1851
 7295W        W11495   4.421   6.472   1.804 -0.1183 -0.0931 -0.5335
 7296W        W11496   7.349   6.450   1.778  0.1708 -0.0723 -0.1560
 7297W        W11497   4.292   0.694   5.163  0.1937  0.0494 -0.2704
 7298W        W11498   0.746  10.385   2.515 -0.0451 -0.3902 -0.2196
 7299W        W11499   6.863  10.286   1.242  0.0745 -0.2681  0.0916
 7300W        W11500   3.768   1.485  11.274  0.3911  0.0681 -0.1230
 7301W        W11501   7.730   9.719  12.739  0.1931  0.1281 -0.0131
 7302W        W11502   2.027   8.260  11.682 -0.2722  0.5052  0.0967
 7303W        W11503   3.158   5.421  11.632 -0.0819  0.2590  0.0755
 7304W        W11504   8.534  10.005   1.524 -0.1280  0.1717  0.0231
 7305W        W11505   0.055   7.548   9.866  0.1044  0.1246 -0.4347
 7306W        W11506   3.559   8.290   0.287 -0.1431 -0.0612  0.0436
 7307W        W11507   8.936   0.225  13.348 -0.1537  0.0253 -0.1972
 7308W        W11508   0.217   2.261   0.133  0.0083 -0.1005  0.0903
 7309W        W11509   6.685   4.013   1.483 -0.1202  0.1288 -0.1155
 7310W        W11510   8.454   9.648   2.969  0.1432  0.4034 -0.0369
 7311W        W11511   9.868   5.042   3.901  0.0450 -0.0077 -0.0911
 7312W        W11512   3.632   1.437  12.312  0.0781 -0.2181  0.2755
 7313W        W11513   7.419   7.150   1.752 -0.1410  0.2011 -0.1602
 7314W        W11514   0.371   1.364   3.889  0.1717  0.0269 -0.2050
 7315W        W11515   9.035   5.626  10.188  0.2932  0.0082  0.3969
 7316W        W11516   2.752   9.325   0.273  0.1550 -0.0502  0.0774
 7317W        W11517   6.314   4.367   4.403  0.1024  0.0756 -0.0578
 7318W        W11518   2.182   9.686  13.161 -0.0702  0.1872 -0.0651
 7319W        W11519   0.333   2.613   3.814 -0.1367  0.1235 -0.1619
 7320W        W11520   7.527   6.000   4.357  0.2025 -0.2763 -0.1273
 7321W        W11521   0.738   5.148   2.013  0.2130 -0.2559 -0.1265
 7322W        W11522   0.343  10.282   4.821  0.2585  0.0229 -0.3817
 7323W        W11523   7.293   1.211   1.221 -0.0505  0.1456 -0.2692
 7324W        W11524   6.718   3.389  10.143 -0.3665 -0.1904 -0.2756
 7325W        W11525   5.322   9.409   2.880  0.0965 -0.0036 -0.1408
 7326W        W11526   4.652   6.470   3.346  0.0172  0.0519  0.0788
 7327W        W11527   0.516   9.928   1.117  0.0542  0.3893  0.3521
 7328W        W11528   8.544   8.308  11.153 -0.3138 -0.0032 -0.3796
 7329W        W11529   5.552   4.061   0.921 -0.0062 -0.0751 -0.1197
 7330W        W11530   7.542   4.443   0.027  0.0223 -0.1009 -0.0111
 7331W        W11531   2.880   8.877  11.148  0.2353 -0.4065  0.0748
 7332W        W11532   1.027   2.889   9.116 -0.0761  0.0078  0.1766
 7333W        W11533   8.270   5.364  11.847  0.0802 -0.3565  0.2420
 7334W        W11534   6.598   1.739   8.681  0.1574 -0.2303 -0.2218
 7335W        W11535   1.540   5.580   0.121  0.0219 -0.1601  0.0013
 7336W        W11536   7.552   4.742   2.407 -0.2183 -0.0805  0.0311
 7337W        W11537   8.253   0.270  12.892  0.0694  0.0090  0.0381
 7338W        W11538  10.048   8.200   0.432  0.1458  0.1686  0.1363
 7339W        W11539   3.881   2.600   2.558  0.0538 -0.5263 -0.1596
 7340W        W11540   0.346   1.192   9.458  0.1757 -0.1168  0.2396
 7341W        W11541   3.430   8.449  11.905  0.0381 -0.0838  0.1706
 7342W        W11542   4.486   2.134  10.801  0.0029  0.0920  0.0885
 7343W        W11543   2.606   4.596   1.149  0.2499 -0.0663 -0.2496
 7344W        W11544   8.161  10.205   9.877  0.0700 -0.1817 -0.3786
 7345W        W11545   2.783   0.210  11.693 -0.0462 -0.0710  0.0088
 7346W        W11546   7.238  10.038   3.636  0.1446  0.1360 -0.1915
 7347W        W11547   6.321   9.626  10.712  0.2018  0.2800 -0.1478
 7348W        W11548   2.035   0.915   3.373 -0.2206 -0.0340 -0.0013
 7349W        W11549   5.746   4.309  11.601  0.1057  0.0704  0.3116
 7350W        W11550   1.286   2.996  12.973  0.0608 -0.2074 -0.0605
 7351W        W11551   6.610   4.137   0.151 -0.3215 -0.1174  0.0362
 7352W        W11552   6.896   3.204   0.447  0.0446  0.4529  0.0310
 7353W        W11553   5.900   6.823   4.264  0.0146  0.2787  0.0370
 7354W        W11554   2.039   4.508   0.358  0.0055 -0.0157  0.1220
 7355W        W11555   7.511   9.448  11.584 -0.0511 -0.2786 -0.0687
 7356W        W11556   0.146   7.542   2.143 -0.0745 -0.0286 -0.0793
 7357W        W11557   8.949   5.973   3.573 -0.0643 -0.4204 -0.0553
 7358W        W11558   1.241   4.852   0.271 -0.2939  0.1376 -0.0549
 7359W        W11559   3.351   2.594  13.124  0.1856  0.1268  0.0731
 7360W        W11560   6.733  10.337   3.550 -0.3057  0.0967 -0.0476
 7361W        W11561   6.039   6.146  11.950 -0.0960 -0.0879 -0.0916
 7362W        W11562   8.410  10.330   2.068  0.1947  0.0756 -0.1310
 7363W        W11563   9.123   9.516  10.192  0.1080 -0.1685  0.0770
 7364W        W11564   5.996   6.573   5.144  0.2101  0.1500 -0.0788
 7365W        W11565   2.081   5.456   0.215 -0.0121  0.1833  0.0901
 7366W        W11566   3.948  10.441  10.171  0.0057 -0.1402 -0.0858
 7367W        W11567   7.730   0.587   8.246  0.1128 -0.1159  0.0931
 7368W        W11568   5.705   2.762   8.967  0.0175  0.1142 -0.0623
 7369W        W11569   8.209   2.164  11.013  0.1535 -0.0621  0.1223
 7370W        W11570   3.569   2.272   8.585 -0.0148 -0.0016 -0.0511
 7371W        W11571   8.780   5.091   3.396 -0.1293  0.2752  0.2399
 7372W        W11572   1.406   5.823  11.071 -0.2813  0.0879  0.1366
 7373W        W11573   7.981   9.012  10.842  0.3938  0.2616 -0.0553
 7374W        W11574   1.199   1.110   9.548  0.4341  0.0143 -0.1404
 7375W        W11575   2.412   5.971  11.870  0.2204  0.3291 -0.1544
 7376W        W11576   2.592   0.994   0.292 -0.2695  0.0560 -0.2076
 7377W        W11577   0.669   9.270  11.153 -0.3572  0.1630 -0.2536
 7378W        W11578   7.124   3.881   3.640  0.0237  0.1479  0.0823
 7379W        W11579   0.926   9.214   2.333 -0.2237 -0.0832  0.0167
 7380W        W11580   4.478   8.890   3.922 -0.1227  0.2143  0.3256
 7381W        W11581  10.284   1.894   1.853  0.4732  0.2796 -0.1913
 7382W        W11582   6.072   1.001   4.167  0.2035  0.2471  0.3664
 7383W        W11583   6.413   2.744  11.064 -0.1377  0.1215 -0.1079
 7384W        W11584   8.353   7.445  12.324  0.0558  0.0584 -0.0605
 7385W        W11585   2.139   7.050  10.875 -0.2036  0.1358  0.0097
 7386W        W11586   0.839   2.982  13.243 -0.1390  0.0902 -0.0252
 7387W        W11587   7.523   2.411   3.581  0.4802 -0.0796  0.1710
 7388W        W11588   6.208   3.692  10.043  0.3596 -0.0535  0.0371
 7389W        W11589   7.717   9.746   4.848  0.4042  0.1576 -0.1807
 7390W        W11590   9.131   2.232   4.521 -0.0106 -0.2410 -0.4472
 7391W        W11591   6.794   0.055   9.005 -0.0010  0.2189  0.2346
 7392W        W11592   9.272   1.490   3.670 -0.1159 -0.3632 -0.1016
 7393W        W11593   2.543   1.484   2.108 -0.1421 -0.1322 -0.0305
 7394W        W11594   9.733   0.266   3.892  0.1072  0.1578  0.1395
 7395W        W11595   4.209   2.422   0.715  0.0841 -0.3140  0.1447
 7396W        W11596   0.317   3.169   2.100 -0.0026 -0.0049  0.1831
 7397W        W11597   9.809   7.350   0.993  0.1276  0.1107  0.3018
 7398W        W11598   5.827   1.075   4.548 -0.1495  0.0760 -0.5238
 7399W        W11599   2.062   3.551  12.623  0.2902 -0.5082 -0.0056
 7400W        W11600   1.605   3.467   3.926 -0.0653  0.3436 -0.1579
 7401W        W11601   2.382   2.541  10.597 -0.1998  0.1343 -0.1584
 7402W        W11602   9.703   9.425  12.684 -0.2761 -0.1320  0.0434
 7403W        W11603   5.969   1.525  13.194 -0.0437 -0.0975  0.0287
 7404W        W11604   3.865   8.890  10.745  0.3729 -0.1089 -0.3632
 7405W        W11605   4.111   0.820   0.621  0.0284 -0.0756 -0.0571
 7406W        W11606   5.967   7.140  13.412  0.0018 -0.0126  0.2616
 7407W        W11607   7.638   1.997   0.742 -0.1405  0.3081 -0.2278
 7408W        W11608   9.800   6.256   2.417 -0.1885  0.1160  0.2633
 7409W        W11609   7.720   0.366   3.844  0.0652  0.0574  0.2155
 7410W        W11610   7.121   2.360   9.704  0.1755 -0.0407 -0.3234
 7411W        W11611   9.017   9.674  13.261  0.0087 -0.3486 -0.0374
 7412W        W11612   1.049   6.192  11.260 -0.2380 -0.0585 -0.2436
 7413W        W11613   8.730   9.577  10.995 -0.0632  0.1305  0.0541
 7414W        W11614   4.888   2.862  10.481  0.3231  0.0221 -0.0306
 7415W        W11615   4.627   2.231   0.776 -0.2572 -0.1827  0.0991
 7416W        W11616   1.978   4.236   3.215  0.1686  0.0325 -0.1975
 7417W        W11617   9.536   4.455  10.631  0.0194  0.2145  0.0245
 7418W        W11618   0.319  10.203   3.437 -0.3934  0.0196 -0.0759
 7419W        W11619   2.783   9.659   2.560 -0.0077  0.0153  0.2472
 7420W        W11620   8.725   8.393   1.612 -0.3568  0.0434  0.1511
 7421W        W11621   7.974   9.953   3.789  0.1269  0.0107  0.1216
 7422W        W11622   7.258   5.587   2.526  0.1315  0.0938  0.0649
 7423W        W11623   4.943   8.719   4.042 -0.1738 -0.0254  0.0125
 7424W        W11624   0.217   8.501  10.753 -0.1290  0.3565 -0.0544
 7425W        W11625   5.299   7.153  10.099 -0.1852 -0.0564  0.0953
 7426W        W11626   1.442   0.395  10.766  0.2447 -0.2881 -0.1980
 7427W        W11627   6.794   3.682   0.883 -0.0490 -0.0364 -0.3319
 7428W        W11628   1.130   2.244   4.575 -0.4308  0.1129 -0.0244
 7429W        W11629   2.394   4.539   3.996  0.3105 -0.2933 -0.0821
 7430W        W11630   9.118   5.879  13.333  0.0776 -0.3345 -0.1849
 7431W        W11631   1.804   7.051   0.962 -0.2616 -0.1347 -0.3005
 7432W        W11632   5.067   0.984  11.150  0.1567 -0.1937  0.1192
 7433W        W11633   6.665   1.542   4.347  0.0011  0.0359 -0.0311
 7434W        W11634   5.048   8.595   1.092  0.0788  0.0316  0.0292
 7435W        W11635   5.257   0.797   5.281 -0.2695 -0.0850  0.1713
 7436W        W11636   9.380   0.464   1.136  0.0135 -0.1418 -0.0191
 7437W        W11637   9.114   0.272   4.669  0.1406 -0.2295 -0.0842
 7438W        W11638   0.164   2.652   3.276  0.1753  0.0835  0.1413
 7439W        W11639   8.964   9.780  10.575  0.2721 -0.0364  0.0925
 7440W        W11640   0.185   6.531   1.083  0.0895 -0.0002 -0.0823
 7441W        W11641   8.144   7.632   1.303  0.1887 -0.2152 -0.1735
 7442W        W11642   6.006   2.285   0.345  0.2725  0.0673 -0.0506
 7443W        W11643   5.736   6.301   9.946 -0.0215 -0.1167 -0.0216
 7444W        W11644   4.125   7.566  12.337  0.2412 -0.0601  0.1168
 7445W        W11645   1.521   3.187   3.502  0.0811 -0.1975  0.0862
 7446W        W11646   5.877   0.748   1.517  0.5946 -0.1759  0.1553
 7447W        W11647   4.797   3.018   9.399  0.4267  0.3903  0.0354
 7448W        W11648   3.877   3.994   2.235 -0.0581  0.1122 -0.0288
 7449W        W11649   0.536   0.676   3.632 -0.3846  0.1180 -0.1804
 7450W        W11650   7.760   4.152   1.299  0.1753 -0.1862  0.0064
 7451W        W11651   6.614   9.249   1.733  0.2965 -0.0316  0.0295
 7452W        W11652   0.112   1.854  13.273 -0.1424 -0.1957 -0.0876
 7453W        W11653   4.582   4.370   1.215 -0.4436  0.1702  0.0352
 7454W        W11654   9.257   1.440   8.562 -0.0580  0.2353 -0.2110
 7455W        W11655   2.667   7.974  12.882 -0.1645 -0.3709  0.0816
 7456W        W11656   6.725   2.729  13.066 -0.3081  0.2331 -0.1542
 7457W        W11657   7.913   2.547  11.024 -0.0709 -0.3912  0.0399
 7458W        W11658   5.352   6.899   0.340  0.1390 -0.0000 -0.2581
 7459W        W11659   0.719   9.500  10.339 -0.1887  0.1624 -0.1049
 7460W        W11660   3.524   1.435   4.474  0.2049  0.1418  0.3458
 7461W        W11661   5.494   0.142   9.992 -0.0927  0.3624  0.2744
 7462W        W11662   8.203   4.488   1.282 -0.2222 -0.1236  0.1567
 7463W        W11663   3.490   6.700   0.592 -0.1724  0.0662  0.1738
 7464W        W11664   1.400   6.278   1.312  0.0683  0.2275 -0.1610
 7465W        W11665   8.645   6.456   1.447 -0.0130  0.0897  0.1569
 7466W        W11666  10.299   4.412  12.808 -0.1941 -0.2323  0.3593
 7467W        W11667   4.143   1.369   9.401 -0.1744 -0.2135  0.1831
 7468W        W11668   2.946   8.408  12.783 -0.2103  0.0858 -0.2868
 7469W        W11669   6.232   9.422  10.299  0.3052  0.0807  0.1405
 7470W        W11670   1.590   2.594  12.578 -0.3088  0.2087  0.2169
 7471W        W11671   6.455   7.382   0.107 -0.1958  0.1476 -0.0262
 7472W        W11672   0.622   3.793   2.821 -0.0448 -0.2943  0.1607
 7473W        W11673   5.468   4.462   3.928 -0.0733  0.0585 -0.0159
 7474W        W11674   7.649   7.527   9.205  0.0084  0.0878  0.2478
 7475W        W11675   7.161   9.483  10.722 -0.0096 -0.0972  0.0177
 7476W        W11676   4.684   0.047  10.736 -0.1012 -0.2388  0.1481
 7477W        W11677   5.834   1.269   0.758  0.0688 -0.0961  0.0736
 7478W        W11678   6.319   6.086  11.240 -0.0282  0.1435 -0.0739
 7479W        W11679   2.664   1.735   2.856  0.1866 -0.0173  0.3512
 7480W        W11680   8.152   8.811  12.766  0.0957 -0.0034  0.1936
 7481W        W11681  10.101  10.231   5.588  0.0242 -0.0592 -0.4021
 7482W        W11682   7.061   5.003   4.324  0.1154  0.4141 -0.2201
 7483W        W11683   5.659   5.889  12.297  0.5658  0.1918 -0.0899
 7484W        W11684   8.261   9.365   0.188  0.1221  0.1178 -0.2471
 7485W        W11685   4.964   7.221  11.425 -0.0690 -0.3658  0.0833
 7486W        W11686   7.838   6.492  11.164  0.0489  0.4807  0.0612
 7487W        W11687   4.029   4.600   3.385  0.0593  0.1216 -0.0924
 7488W        W11688   7.824   5.008   1.321 -0.1597  0.0804 -0.1363
 7489W        W11689   7.305   5.158   4.880 -0.0613  0.2626 -0.4794
 7490W        W11690   2.237   2.124  10.296  0.1848  0.0983 -0.1565
 7491W        W11691   5.435   7.838   4.047  0.3258  0.0541  0.3129
 7492W        W11692   9.185   6.341   3.189  0.0543 -0.0968 -0.0465
 7493W        W11693   9.163   6.962   3.867 -0.0910  0.2723 -0.1163
 7494W        W11694   7.409   2.188   4.673  0.2908 -0.1952  0.2175
 7495W        W11695   1.115  10.369   1.541  0.0065 -0.0642  0.0230
 7496W        W11696   9.166   6.171  12.353  0.1502  0.0760  0.1417
 7497W        W11697  10.418   9.642  11.554  0.1920  0.0510  0.3308
 7498W        W11698   2.168   6.634   3.051  0.1842 -0.2578 -0.2612
 7499W        W11699   4.841   0.193   8.744  0.2861 -0.1131  0.0052
 7500W        W11700   1.534   2.164  11.043  0.2206  0.0126  0.4347
 7501W        W11701   1.674   4.061   9.280  0.1387  0.0396 -0.0190
 7502W        W11702   3.709   9.990   9.344 -0.0888 -0.0262  0.3750
 7503W        W11703   7.250   7.292  10.113 -0.0417  0.0616 -0.5201
 7504W        W11704   7.763   3.379   2.817 -0.0675 -0.1571 -0.0197
 7505W        W11705  10.437   5.923   2.437 -0.1056 -0.1479 -0.0216
 7506W        W11706   9.938   9.186   1.179 -0.1694  0.2450  0.1823
 7507W        W11707  10.356   3.437   3.403 -0.2700  0.3490 -0.2895
 7508W        W11708   5.946   1.076   0.276  0.0838 -0.1323  0.0148
 7509W        W11709   8.427   5.951   3.551 -0.2472 -0.0303 -0.0426
 7510W        W11710   6.181   9.787  12.053  0.0013 -0.1949  0.0441
 7511W        W11711   8.237   9.175   4.456  0.0918 -0.3988 -0.0688
 7512W        W11712   4.652   3.976  10.606 -0.0214 -0.0491 -0.3141
 7513W        W11713   9.690   4.803  11.345  0.0987  0.3500 -0.1811
 7514W        W11714   0.280   4.682   4.220  0.1248  0.2429 -0.1287
 7515W        W11715   8.305   8.754   2.547 -0.3700 -0.2405  0.0190
 7516W        W11716   2.709   7.331   1.361 -0.0508 -0.0260 -0.1520
 7517W        W11717   7.154   9.094   1.604 -0.1544 -0.1498 -0.1136
 7518W        W11718   7.678   1.599  10.092  0.0160  0.3707  0.0423
 7519W        W11719   5.145   8.738  12.400  0.2629 -0.3073 -0.1596
 7520W        W11720   3.454   4.499   4.282 -0.0569 -0.1154 -0.0818
 7521W        W11721   9.549   7.234  12.944  0.0388  0.2430  0.2117
 7522W        W11722   2.942   1.408   0.527 -0.1694 -0.0961  0.1246
 7523W        W11723   3.591   0.804   0.621 -0.0080  0.2301  0.0103
 7524W        W11724   6.506   9.910  10.228 -0.0039 -0.1948  0.0390
 7525W        W11725   7.722   8.031  10.809  0.0050  0.0307 -0.3321
 7526W        W11726   2.931   1.682   9.087  0.0479  0.0369 -0.2270
 7527W        W11727   8.805   3.050   2.679 -0.1025 -0.0517  0.0857
 7528W        W11728   3.862   8.684   9.697 -0.0939  0.0015  0.0531
 7529W        W11729   3.304   7.751  11.011 -0.0250 -0.1982 -0.1614
 7530W        W11730   8.838   6.286   2.389 -0.0900  0.0331  0.0709
 7531W        W11731   1.490   8.775  10.135  0.0110 -0.1900  0.0112
 7532W        W11732   3.507   1.065   1.807  0.0566 -0.1133  0.3575
 7533W        W11733   3.569   7.300  13.458  0.1571 -0.0572 -0.0836
 7534W        W11734   8.942   1.580  10.017 -0.0568 -0.0738 -0.1999
 7535W        W11735   8.207   0.851   1.046 -0.0271 -0.1019 -0.0498
 7536W        W11736   6.457   3.446  10.600  0.2002 -0.1366 -0.1399
 7537W        W11737   9.650   5.626   0.989 -0.0519  0.0055  0.1687
 7538W        W11738   8.199   1.836   9.342 -0.0433  0.1031 -0.0014
 7539W        W11739   9.439   0.108  12.568  0.2996 -0.0361 -0.0440
 7540W        W11740   5.708   6.872   1.885 -0.1118 -0.1409  0.2940
 7541W        W11741   4.116   1.302   2.759 -0.1737  0.1668  0.0521
 7542W        W11742   4.605   0.345   3.882  0.1291  0.0262  0.0893
 7543W        W11743   4.751   7.871  10.513 -0.0585  0.0899 -0.2193
 7544W        W11744   3.314   8.263   9.741  0.1638  0.1023 -0.1665
 7545W        W11745   3.231   5.797   3.167 -0.0170 -0.1619  0.3389
 7546W        W11746   1.191   0.671  12.981  0.1522  0.0822 -0.2887
 7547W        W11747   5.664   8.712  11.420 -0.1157  0.2564  0.0542
 7548W        W11748   9.255   2.782   2.493  0.2874  0.1817 -0.1099
 7549W        W11749  10.067   9.291  11.724  0.0854 -0.2664  0.2619
 7550W        W11750   8.145   6.767  11.463  0.0684  0.2409 -0.0631
 7551W        W11751   8.115   1.709   2.196  0.0658  0.0122  0.2659
 7552W        W11752   2.129   2.095  11.891  0.1525  0.2845  0.1468
 7553W        W11753   7.393   9.542   3.463  0.0716 -0.1182 -0.1152
 7554W        W11754   0.206   3.757   1.357 -0.2254 -0.2907 -0.3225
 7555W        W11755   3.251  10.083   9.169  0.1224  0.1473  0.0658
 7556W        W11756   5.133   3.369  12.644 -0.0282 -0.0622 -0.0567
 7557W        W11757   7.944   1.719   3.998  0.1667  0.0920 -0.4267
 7558W        W11758   9.929  10.265   0.250  0.0103 -0.0859  0.2254
 7559W        W11759   3.358   8.555  10.107  0.1501 -0.6108 -0.1123
 7560W        W11760   7.338   4.906   2.856  0.3096  0.0903  0.0538
 7561W        W11761   2.780   9.071   3.399 -0.2171 -0.1542 -0.1754
 7562W        W11762   0.585   6.542   1.756  0.0888  0.2824 -0.2112
 7563W        W11763   5.362   4.526   8.414  0.2233  0.0932  0.2576
 7564W        W11764   2.477   1.634  11.189 -0.1556 -0.1685  0.1596
 7565W        W11765   8.816   3.467   8.632 -0.2469  0.1903 -0.4900
 7566W        W11766   6.272   5.000  13.336  0.0229  0.3747 -0.0481
 7567W        W11767   1.549   4.228   3.597  0.0262  0.2854  0.0587
 7568W        W11768   7.782   5.601   4.153  0.0226  0.2112 -0.4016
 7569W        W11769   9.338   5.431   9.498 -0.2107  0.0393  0.0869
 7570W        W11770   3.911   6.898   9.754  0.0393  0.1085  0.3332
 7571W        W11771   8.491   2.926   4.423 -0.0250  0.0794 -0.0416
 7572W        W11772   2.491  10.376   4.881  0.1045 -0.0749  0.5060
 7573W        W11773   7.156   0.855   0.197  0.0678 -0.1186  0.0447
 7574W        W11774   6.046   1.483   8.453  0.2543 -0.0150  0.1006
 7575W        W11775   0.074   5.300   3.041  0.0438  0.1773 -0.0835
 7576W        W11776   4.445   6.119   3.720 -0.0188  0.1685 -0.1618
 7577W        W11777   6.836   8.107  11.488 -0.2557 -0.1533  0.1303
 7578W        W11778   1.209   2.866   2.498  0.1599 -0.1459  0.5687
 7579W        W11779   4.314   1.587   5.417  0.2146  0.1123 -0.4150
 7580W        W11780   6.726   7.460  10.026 -0.1564 -0.2977  0.0629
 7581W        W11781   8.130   9.253   2.857  0.2302  0.0303  0.1957
 7582W        W11782   8.677   0.967  10.669  0.1761  0.0546 -0.0098
 7583W        W11783   6.434   8.516   0.651  0.2094  0.0883 -0.0480
 7584W        W11784   0.163   4.275  11.621  0.0735 -0.1800  0.2982
 7585W        W11785   7.986   9.107   9.389 -0.1601 -0.0589  0.2209
 7586W        W11786   9.652   1.017   3.263 -0.3206 -0.2117  0.2934
 7587W        W11787   5.626   6.826  10.587  0.1641  0.1000  0.3944
 7588W        W11788   9.187   8.569   4.897  0.0758 -0.0156  0.0033
 7589W        W11789  10.426   8.265   0.856  0.1533 -0.3429 -0.2155
 7590W        W11790   3.843   6.031  10.682 -0.1417  0.3998  0.0191
 7591W        W11791   4.906   6.785  13.293  0.0862 -0.1998  0.0194
 7592W        W11792   9.025   2.450  10.992  0.0492 -0.3428  0.0835
 7593W        W11793   0.573   2.328   1.325  0.1179  0.3219  0.1688
 7594W        W11794   2.878   7.196  11.409 -0.0594  0.3009  0.0683
 7595W        W11795  10.187   2.076   2.373 -0.0959  0.2088 -0.3123
 7596W        W11796   7.896   0.362  12.387  0.1530 -0.1077  0.0606
 7597W        W11797   8.236   5.290   2.112  0.0797  0.1006 -0.0112
 7598W        W11798   0.499   0.886  12.520 -0.1217 -0.0734  0.1466
 7599W        W11799   4.392  10.284  10.266 -0.2266  0.2326  0.1260
 7600W        W11800   2.027  10.450  10.853  0.0681 -0.3488  0.1688
 7601W        W11801   6.438  10.108   2.581  0.0831  0.1008 -0.0842
 7602W        W11802  10.456   0.134  11.258 -0.2605 -0.1519  0.1813
 7603W        W11803   7.296   0.645   4.469  0.1688 -0.2061  0.1270
 7604W        W11804   8.616   7.131   0.286 -0.0697 -0.0752  0.1597
 7605W        W11805   5.699   2.337  10.463 -0.0167  0.2549  0.0202
 7606W        W11806   5.083   3.068   9.995  0.0181  0.0500  0.0848
 7607W        W11807   8.625   4.834  11.655  0.0369  0.2264 -0.0333
 7608W        W11808   7.408   3.569   2.377 -0.0282 -0.4583 -0.2665
 7609W        W11809   0.054   3.371   1.109 -0.1718  0.0252  0.0743
 7610W        W11810   7.932   5.362   1.687 -0.3347  0.2484  0.0084
 7611W        W11811   2.187   5.790  10.539  0.2018 -0.1967  0.2545
 7612W        W11812   8.895   7.986   0.801  0.2135  0.1183  0.1781
 7613W        W11813   4.277   4.918  13.226 -0.0676 -0.3584 -0.2875
 7614W        W11814   6.864   6.307   1.787  0.0748  0.0725  0.1134
 7615W        W11815   4.998   5.286   4.885  0.0639  0.1070  0.0653
 7616W        W11816   0.702   3.168  12.788 -0.3288  0.0574  0.1474
 7617W        W11817   5.351   0.894   2.424  0.1332  0.0579  0.0011
 7618W        W11818   9.584   7.961   0.206 -0.1110 -0.3704  0.1693
 7619W        W11819   1.529   9.721   3.734  0.1441  0.1282  0.0076
 7620W        W11820   7.005   3.710   9.340 -0.1714 -0.1730 -0.2530
 7621W        W11821   8.689   6.921   1.057 -0.0999  0.0864 -0.1989
 7622W        W11822   9.673   3.969  11.595 -0.0861  0.0973 -0.1100
 7623W        W11823   1.639   2.685   3.250 -0.3241 -0.1312  0.1112
 7624W        W11824   6.260   0.698   9.788 -0.0247 -0.1469 -0.0412
 7625W        W11825   4.267   1.860   4.947 -0.2982  0.1645 -0.1068
 7626W        W11826   6.607   4.884  11.909  0.0677  0.0326  0.1229
 7627W        W11827   9.070   6.672  11.603  0.1829  0.0910 -0.0730
 7628W        W11828   8.297   1.447  12.134  0.0680 -0.5999  0.1481
 7629W        W11829   3.152   0.719   4.491 -0.0707 -0.0938 -0.4018
 7630W        W11830   0.167   9.391   0.702 -0.3270  0.3402  0.0871
 7631W        W11831   6.743   4.240   4.147  0.3095 -0.1770  0.2297
 7632W        W11832   6.435   8.379  11.094 -0.0053  0.0926 -0.0706
 7633W        W11833   0.137   6.427  13.215 -0.3841  0.3212  0.1482
 7634W        W11834   2.268   2.456  12.220  0.0854 -0.0086  0.0494
 7635W        W11835   3.163   0.234  12.070 -0.2052 -0.1017 -0.3658
 7636W        W11836  10.067  10.070  12.720  0.1442 -0.2287 -0.0545
 7637W        W11837   5.581   5.022   2.600  0.0479 -0.4010 -0.0329
 7638W        W11838   0.202   0.504  12.810 -0.0582  0.0502  0.1734
 7639W        W11839   7.275   6.425   4.623  0.1399 -0.2603  0.2667
 7640W        W11840   9.397   7.675   4.735  0.1223 -0.1355  0.3737
 7641W        W11841   5.657   8.995  12.227 -0.2543  0.1408 -0.0033
 7642W        W11842   4.281   7.948   2.790 -0.0402  0.2532 -0.3062
 7643W        W11843   5.811  10.394   1.392  0.3028 -0.1284 -0.0719
 7644W        W11844   1.953   5.792  11.881 -0.3391 -0.0335 -0.0792
 7645W        W11845   9.249   5.125   1.629 -0.1534  0.0556  0.2039
 7646W        W11846   6.217   8.836   9.233 -0.0548 -0.0382  0.2910
 7647W        W11847   4.591   0.298   0.845 -0.1655  0.1573 -0.0790
 7648W        W11848   8.276   8.494   9.889  0.2892  0.1902 -0.3118
 7649W        W11849   4.651   9.324   3.659  0.0452 -0.1674 -0.0605
 7650W        W11850   8.671   1.990  10.874  0.0709 -0.0514  0.0304
 7651W        W11851   7.457   8.659   9.645 -0.0812  0.1273 -0.1557
 7652W        W11852   0.407   1.238   0.294 -0.0938  0.0894 -0.3013
 7653W        W11853   5.225   9.430   0.690  0.2011  0.1713  0.4903
 7654W        W11854   4.946   5.993   9.553 -0.3598  0.0547 -0.1433
 7655W        W11855   3.398   8.677  12.344  0.2685 -0.0988 -0.2878
 7656W        W11856   2.377   5.975   3.855 -0.3198 -0.2189  0.3492
 7657W        W11857   6.320   3.840  13.339  0.1094  0.3814 -0.3932
 7658W        W11858   5.880   5.143   2.968  0.0025 -0.1351  0.0444
 7659W        W11859   6.878   9.610   3.593 -0.2466 -0.0237 -0.6048
 7660W        W11860   0.658   0.426   2.314  0.3144  0.0458  0.0056
 7661W        W11861   1.769   2.542  13.381 -0.1438 -0.1568 -0.3270
 7662W        W11862   2.587   2.144   0.939 -0.0476  0.0463  0.1069
 7663W        W11863   8.968   3.660   3.922 -0.0096  0.0701  0.2821
 7664W        W11864   2.617   2.877  11.059  0.0444  0.2326 -0.0171
 7665W        W11865  10.157   4.640  11.028  0.1903 -0.0708  0.0512
 7666W        W11866   1.440   1.747  13.086  0.0488  0.2107  0.2099
 7667W        W11867   4.713   4.592  13.250  0.0238 -0.4455 -0.0750
 7668W        W11868  10.306   3.278   2.055  0.0047 -0.1844  0.0897
 7669W        W11869   4.201   9.561  12.502 -0.0584  0.1399  0.3902
 7670W        W11870   9.384   7.849   0.623 -0.3525  0.1431 -0.1518
 7671W        W11871   1.359   3.832   1.892  0.2155  0.0785 -0.0708
 7672W        W11872   2.237  10.103  12.862 -0.2416  0.2196  0.0378
 7673W        W11873   7.431   2.347  11.818 -0.1259 -0.0994 -0.1370
 7674W        W11874   3.143   7.864   3.933 -0.0781 -0.0812  0.0425
 7675W        W11875   2.737   0.218   4.279 -0.1772 -0.1533 -0.1342
 7676W        W11876   8.293   1.230   2.322  0.0975 -0.0626  0.2316
 7677W        W11877   5.567   0.812  12.924 -0.1997  0.2631  0.1628
 7678W        W11878   9.786   8.417  11.204  0.1742 -0.0921 -0.2544
 7679W        W11879   8.820   7.623   3.025  0.1257 -0.3427  0.1770
 7680W        W11880   4.376   7.207   4.338  0.0045 -0.1845 -0.2199
 7681W        W11881   7.366   6.963   0.000  0.0341  0.1599 -0.2230
 7682W        W11882   6.936   5.812   0.627  0.0842 -0.0363  0.1202
 7683W        W11883   6.937   0.398   0.012  0.2187  0.0313 -0.1304
 7684W        W11884   2.771  10.153   2.463 -0.0582  0.0130 -0.1142
 7685W        W11885   6.204   2.348  13.338 -0.0798 -0.0682 -0.0554
 7686W        W11886   8.734   3.699   9.493 -0.0491 -0.1014 -0.2279
 7687W        W11887   0.410   4.839   2.267 -0.3212 -0.1274  0.4762
 7688W        W11888  10.226   2.457  11.439  0.2294 -0.0462  0.1441
 7689W        W11889  10.335   0.573  13.322 -0.2888  0.1603  0.1539
 7690W        W11890   8.394   0.237   9.835  0.0081 -0.0254  0.3386
 7691W        W11891   1.735   8.379   3.352 -0.0687  0.3151  0.0797
 7692W        W11892   9.821   4.879   2.412  0.3918  0.0347  0.1064
 7693W        W11893   1.869   9.200   9.932 -0.0359 -0.2538  0.4897
 7694W        W11894   5.441   8.740  10.960 -0.0970 -0.2318  0.1063
 7695W        W11895   8.008   6.048  10.332 -0.2719  0.0726 -0.1159
 7696W        W11896  10.289   2.914   1.375  0.2502 -0.2088 -0.1590
 7697W        W11897   5.947   9.831  10.281 -0.4767  0.1008 -0.2968
 7698W        W11898   6.240   9.900  11.285 -0.0360  0.1447 -0.1340
 7699W        W11899   2.700   3.746  10.083 -0.1241  0.0252 -0.0750
 7700W        W11900   1.271   0.262  13.340  0.1552  0.3522  0.0551
 7701W        W11901   2.674   0.744   1.293 -0.0234  0.2955 -0.1988
 7702W        W11902   0.949  10.406  11.027  0.1700  0.0149 -0.2696
 7703W        W11903  10.349   5.462   2.609  0.0371 -0.0500 -0.0271
 7704W        W11904   4.373   6.797   0.630  0.0004 -0.0856 -0.1949
 7705W        W11905   7.929   9.393  12.362 -0.2942  0.2652 -0.2111
 7706W        W11906   0.621   5.463  11.911  0.0549 -0.0900 -0.0899
 7707W        W11907   2.407   8.365   1.213  0.1489 -0.2205  0.4357
 7708W        W11908   6.362   5.793  12.910  0.1197  0.0027 -0.1131
 7709W        W11909   2.687   8.858   0.155  0.0068  0.0870  0.0530
 7710W        W11910  10.269   6.594   0.732  0.3384  0.1951  0.1794
 7711W        W11911   8.530   6.721  11.885  0.0949 -0.0025 -0.2561
 7712W        W11912   3.758   9.064  11.213  0.0682 -0.2293  0.0715
 7713W        W11913  10.166   1.318   1.954  0.1506  0.2783 -0.2601
 7714W        W11914   7.105   7.831  11.152 -0.3366 -0.1188 -0.1013
 7715W        W11915   4.351   0.627  12.318 -0.0669  0.1377  0.2295
 7716W        W11916   2.108   9.561   3.749 -0.1023 -0.1945 -0.2410
 7717W        W11917   3.750   2.372  11.910 -0.1282 -0.0886  0.0960
 7718W        W11918   8.605   8.839  13.182  0.1318  0.1522  0.3197
 7719W        W11919   9.933   0.931   9.499 -0.0788 -0.1385  0.3552
 7720W        W11920   8.044   6.520  10.634 -0.3207 -0.1505  0.2609
 7721W        W11921   9.770   5.862   0.493 -0.0436 -0.0058 -0.3222
 7722W        W11922   4.090   3.435   2.676  0.1474  0.0168  0.1953
 7723W        W11923   6.106   1.082  10.877  0.0169 -0.1758 -0.1433
 7724W        W11924   7.697   1.822   1.844  0.2792 -0.1077 -0.1376
 7725W        W11925   3.693   9.214   1.377 -0.3810 -0.0693  0.3168
 7726W        W11926   3.117   3.003   9.343  0.1224 -0.3413  0.0467
 7727W        W11927   0.705   6.722  10.654 -0.3508  0.1224  0.0768
 7728W        W11928   7.430   2.141   2.646 -0.0759 -0.0581  0.3616
 7729W        W11929   6.213   0.668   1.890 -0.1371 -0.1674  0.0131
 7730W        W11930   5.416   4.846   1.079  0.1627 -0.0730 -0.1138
 7731W        W11931   8.833   8.116   3.132  0.4037 -0.2078 -0.0374
 7732W        W11932   3.293   9.732   4.381  0.4054  0.1289 -0.2503
 7733W        W11933   0.601   5.199  13.480  0.0588 -0.0624 -0.1323
 7734W        W11934   1.218   1.681   0.896  0.3277 -0.3820 -0.1366
 7735W        W11935   0.910   5.826   0.777 -0.2402 -0.0432 -0.2931
 7736W        W11936   3.990   7.219   1.878 -0.2830  0.2387 -0.3091
 7737W        W11937   6.838   0.198  12.843 -0.0305 -0.0214 -0.1171
 7738W        W11938   7.082   5.509   1.091  0.1867  0.1199  0.4196
 7739W        W11939   0.046   8.957  12.793 -0.0637 -0.1305 -0.0964
 7740W        W11940   2.533   2.688  13.431 -0.3170 -0.2212  0.1388
 7741W        W11941   2.583   4.305   1.667  0.1355  0.1873 -0.0967
 7742W        W11942   1.920   2.522  11.553 -0.0557 -0.4051  0.2892
 7743W        W11943   7.637   4.065   2.414 -0.3489 -0.0423 -0.0796
 7744W        W11944   8.995   3.196   2.145  0.1558  0.0654 -0.2597
 7745W        W11945   4.488   1.641   1.775 -0.0021 -0.0496 -0.0517
 7746W        W11946   3.116   6.193   0.589  0.3734 -0.2129 -0.0705
 7747W        W11947   4.341   1.855   9.527  0.1146  0.1428  0.1897
 7748W        W11948   4.700   2.640   2.557 -0.4435 -0.1498  0.0733
 7749W        W11949   4.966   1.823   0.806 -0.1372  0.1370 -0.0730
 7750W        W11950   0.422   6.635   0.084 -0.0803  0.0545 -0.2701
 7751W        W11951   5.624   0.479  10.358 -0.0297 -0.1120 -0.2086
 7752W        W11952   1.710   2.688   1.515  0.0599  0.3250  0.4752
 7753W        W11953   8.153   5.702  12.932  0.2527 -0.1635 -0.2631
 7754W        W11954   3.901   1.900   1.540 -0.1514  0.2461 -0.3982
 7755W        W11955   9.762   8.911   1.552  0.1757 -0.2486  0.2129
 7756W        W11956  10.450   9.153   2.444  0.1978 -0.1220 -0.2196
 7757W        W11957   9.438   9.760   3.023  0.3502 -0.0254  0.2686
 7758W        W11958   3.830   2.351  12.403 -0.3051  0.0897  0.1257
 7759W        W11959   3.313   0.240   3.129  0.3161 -0.0619  0.1916
 7760W        W11960   9.190   4.156   9.808 -0.4285  0.0510  0.0646
 7761W        W11961   9.767   5.995   1.406 -0.2357 -0.1314  0.4205
 7762W        W11962   2.057   7.407   9.686  0.0551  0.3199  0.0661
 7763W        W11963   2.284   4.690   1.550 -0.0351 -0.0318 -0.1645
 7764W        W11964   4.847   5.562   9.735 -0.2433  0.2353 -0.2163
 7765W        W11965   2.053   2.418  12.729  0.1739  0.0132 -0.2312
 7766W        W11966   1.700   4.923   1.707  0.0417  0.0761  0.1116
 7767W        W11967   0.445   9.581   2.371  0.0602  0.1483  0.0285
 7768W        W11968   1.086   6.655   2.102 -0.3245  0.0869  0.0550
 7769W        W11969   9.032   9.338   4.174  0.1423 -0.0791 -0.1420
 7770W        W11970   4.411   4.569  11.385  0.1405 -0.1253 -0.0980
 7771W        W11971   6.923   6.760   4.694  0.0338 -0.0185 -0.0149
 7772W        W11972   4.404   7.001   1.669 -0.0681 -0.0861 -0.3375
 7773W        W11973   4.220   9.785   0.697  0.1115  0.0315 -0.0136
 7774W        W11974   9.234  10.339   4.110 -0.1321  0.1046  0.3758
 7775W        W11975   4.685   6.830   4.214 -0.0745 -0.2870  0.0010
 7776W        W11976   4.503   8.821  11.811  0.0487 -0.1445  0.0581
 7777W        W11977   7.042   6.236   5.050  0.0324 -0.0585  0.1266
 7778W        W11978   1.084   4.249   2.150  0.1425 -0.1218 -0.2479
 7779W        W11979   9.211   4.201   8.817 -0.1232  0.1551  0.1788
 7780W        W11980   8.376   0.739  10.336  0.1526  0.2185 -0.1473
 7781W        W11981   7.786   0.056   9.183  0.4190 -0.0956  0.0774
 7782W        W11982   5.569   2.237  12.999 -0.3547 -0.2251 -0.3335
 7783W        W11983   8.410   9.280   2.452 -0.1022 -0.1859  0.0553
 7784W        W11984   4.037   8.959   2.530  0.0188 -0.1054  0.0881
 7785W        W11985   8.392   3.992   9.807 -0.5291 -0.1076  0.3509
 7786W        W11986   9.987  10.085   1.259 -0.2572 -0.0198 -0.1240
 7787W        W11987   9.237   9.954   2.464 -0.0746  0.0131  0.1533
 7788W        W11988   8.713  10.247   2.471 -0.0148  0.1513  0.0072
 7789W        W11989   0.438   7.028  13.139  0.1430 -0.3676  0.2098
 7790W        W11990   6.868   8.392   8.886 -0.0621 -0.1176  0.0694
 7791W        W11991   3.972  10.362   2.008  0.0797  0.1331 -0.0166
 7792W        W11992   1.559   4.935   3.606 -0.3125  0.0604 -0.0643
 7793W        W11993   4.133   8.473   9.157  0.2998  0.1110 -0.0775
 7794W        W11994   2.828   3.579  11.681 -0.1050  0.0857  0.0438
 7795W        W11995   5.238   6.012  10.654  0.1335 -0.1267  0.1450
 7796W        W11996   3.133   3.164  11.917  0.0505 -0.2740 -0.1221
 7797W        W11997   7.743   7.153   4.050 -0.1770  0.0324 -0.0655
 7798W        W11998   4.353   5.587  11.368  0.1891 -0.2072 -0.0329
 7799W        W11999   6.561   2.656   3.637  0.3691  0.0215  0.1001
 7800W        W12000   0.410   5.015  12.310 -0.0973 -0.0412  0.1923
 7801W        W12001   3.275   7.175   3.352  0.0075  0.3221  0.1201
 7802W        W12002   3.072   3.114  11.018 -0.0198 -0.1316 -0.1763
 7803W        W12003   1.646   3.274  12.665 -0.0952  0.0275 -0.0693
 7804W        W12004   6.735   8.385   2.314  0.2317  0.1475 -0.0117
 7805W        W12005   1.940   7.050   9.975 -0.3164 -0.2541  0.0104
 7806W        W12006   8.788   1.000   1.735  0.1706  0.4641 -0.0146
 7807W        W12007   7.566   1.285   2.153 -0.0415 -0.0595 -0.1261
 7808W        W12008   5.192   8.560   2.025  0.4481 -0.0824  0.0389
 7809W        W12009   6.223  10.414   8.688 -0.0212  0.1018 -0.2968
 7810W        W12010   4.464   8.911   0.531  0.1484 -0.1474  0.1042
 7811W        W12011   9.642   7.616   9.328 -0.0068 -0.3548  0.2306
 7812W        W12012   3.775   5.530   3.836  0.2327 -0.2852  0.0757
 7813W        W12013   3.205   0.961  10.273 -0.0651 -0.0036  0.2218
 7814W        W12014   8.976   5.008   4.330  0.1430  0.2242 -0.1276
 7815W        W12015   7.094   3.406   1.162  0.1360 -0.0474 -0.0799
 7816W        W12016   1.945   2.936  12.454  0.1383 -0.3507  0.0366
 7817W        W12017   2.978   9.693   2.062  0.2347 -0.2229 -0.0820
 7818W        W12018   7.298   1.449   0.736  0.2057  0.0864 -0.0213
 7819W        W12019  10.339   2.995   9.623 -0.1787  0.0810  0.1446
 7820W        W12020   3.051   2.370   9.914  0.0549  0.1311 -0.0988
 7821W        W12021  10.124   4.228   0.400  0.2311 -0.0379  0.0716
 7822W        W12022   5.694   9.292   1.530 -0.0720  0.0571  0.2128
 7823W        W12023   5.038   7.993   9.566  0.1878  0.1248 -0.1377
 7824W        W12024   2.698   2.186  13.421 -0.2816 -0.1226  0.0302
 7825W        W12025   6.435   0.422   8.537  0.2498 -0.0041 -0.1285
 7826W        W12026   8.306   8.674  10.667 -0.1315  0.3670 -0.0834
 7827W        W12027   8.623   6.012  12.375 -0.3360 -0.1360 -0.1407
 7828W        W12028   2.192   4.615   2.550 -0.1201  0.2008  0.3385
 7829W        W12029   8.558  10.406  11.419  0.0869  0.0465 -0.1248
 7830W        W12030   7.039   5.783   3.125 -0.0343  0.0286  0.1780
 7831W        W12031   5.969   7.917   0.899  0.3046 -0.0951 -0.2586
 7832W        W12032   8.503   6.421  13.467  0.0480 -0.0477  0.0892
 7833W        W12033   8.388   0.351   3.069  0.1728 -0.1639  0.0857
 7834W        W12034   3.582   2.739  10.212  0.0991 -0.2232 -0.0023
 7835W        W12035   9.707   2.621   3.244 -0.1337 -0.2166  0.1641
 7836W        W12036   1.748   1.828   9.932 -0.2767 -0.0660 -0.5193
 7837W        W12037   0.354   8.996   4.516 -0.0139 -0.1687 -0.0494
 7838W        W12038  10.000   0.709   3.693  0.2213  0.0234 -0.1971
 7839W        W12039   4.915   3.909   0.353 -0.3049  0.1238 -0.1165
 7840W        W12040  10.107   0.049   2.908  0.1059 -0.0332 -0.0818
 7841W        W12041   2.290   9.230   0.073 -0.0368  0.1315 -0.1070
 7842W        W12042   8.190   9.740  12.121 -0.0320 -0.2706 -0.2893
 7843W        W12043   0.170   9.915   4.299  0.0379 -0.0145 -0.0915
 7844W        W12044  10.380   6.031  13.397 -0.0695 -0.2979 -0.2434
 7845W        W12045  10.232   1.181   3.374 -0.1937 -0.2294 -0.2700
 7846W        W12046   4.555   1.874  12.958 -0.1864  0.0216 -0.1083
 7847W        W12047   2.181   7.892   9.775  0.1741  0.0130  0.3279
 7848W        W12048   2.116   9.160  12.947  0.0639  0.3903  0.0591
 7849W        W12049   7.331   0.421  12.275 -0.1863 -0.0441 -0.3820
 7850W        W12050   8.628   2.928   3.769  0.1633 -0.0761 -0.1121
 7851W        W12051   6.763   6.216  11.214  0.2870 -0.1308 -0.1560
 7852W        W12052   8.760   6.162   3.182  0.1272  0.2593 -0.0536
 7853W        W12053   3.544   1.427   0.339  0.0733  0.3127  0.0854
 7854W        W12054   8.397   2.568   5.613 -0.3147  0.0377  0.4325
 7855W        W12055   8.676   1.494  10.882 -0.1794 -0.1057  0.1419
 7856W        W12056   5.655   1.850  12.031 -0.2587 -0.4380  0.3951
 7857W        W12057   5.062   4.033  10.862  0.1826  0.1568 -0.0003
 7858W        W12058   2.276   3.876   1.521 -0.1335 -0.1091  0.0307
 7859W        W12059   3.589   7.468   2.024  0.1482 -0.1743  0.2755
 7860W        W12060   9.160   0.031   8.821 -0.0401 -0.0426  0.2283
 7861W        W12061   2.729   9.356   1.220  0.2844  0.0725  0.1721
 7862W        W12062   3.098   4.280   2.974  0.0044 -0.0138  0.0423
 7863W        W12063   8.085   0.596  13.248  0.2703  0.2488  0.0039
 7864W        W12064   4.559   4.631  10.922 -0.2119 -0.3824  0.0865
 7865W        W12065   6.077   1.620   1.611 -0.3309  0.0309 -0.1745
 7866W        W12066  10.211   2.759   3.028  0.1609  0.0837  0.0199
 7867W        W12067   5.573   9.711   9.901 -0.0441  0.1340  0.1589
 7868W        W12068   7.785   5.570  12.509  0.0460  0.0365  0.1131
 7869W        W12069   5.848   3.984   1.799 -0.2700  0.1296  0.0034
 7870W        W12070   7.210   9.826   9.431 -0.2934  0.0399  0.0812
 7871W        W12071   3.564   3.945   3.564  0.1271  0.0185 -0.3088
 7872W        W12072   8.234   1.707  12.528  0.1748  0.3993 -0.2764
 7873W        W12073   7.237   8.432   0.043 -0.3375  0.3635  0.0732
 7874W        W12074   0.633   5.439  12.500  0.1593  0.2428  0.4186
 7875W        W12075   3.057   9.286   4.059 -0.0424 -0.0989 -0.2962
 7876W        W12076   6.504   5.146  12.787  0.1019 -0.0538 -0.1044
 7877W        W12077  10.450   7.445  12.493 -0.2394 -0.0949 -0.0204
 7878W        W12078   7.751   4.098   3.368 -0.1392  0.0972 -0.1848
 7879W        W12079   2.378   5.601  12.233 -0.3164 -0.0750  0.0343
 7880W        W12080   8.274   2.069  13.060 -0.0250  0.5320 -0.0830
 7881W        W12081   7.875   4.620  13.175  0.0349 -0.1473 -0.0871
 7882W        W12082   8.674   1.602   9.119  0.1266  0.2060  0.0476
 7883W        W12083   2.709   0.215  12.260 -0.1376  0.0465 -0.3880
 7884W        W12084   5.582   5.328   0.975 -0.0581 -0.1070  0.0896
 7885W        W12085   5.074   9.063  10.765  0.1520 -0.0638  0.4107
 7886W        W12086   9.445  10.123   3.481 -0.3333 -0.1659 -0.4641
 7887W        W12087   5.556   1.165   3.286  0.1153 -0.0983 -0.1908
 7888W        W12088   3.997   9.950   3.254 -0.1743  0.1064  0.1456
 7889W        W12089   0.416   7.145  10.491 -0.1385  0.1785 -0.0426
 7890W        W12090   8.075   9.744   9.678  0.0630 -0.0651  0.0174
 7891W        W12091   6.661   3.549   0.179 -0.0099  0.2170  0.3612
 7892W        W12092   9.738   6.200  10.769 -0.1689 -0.1366  0.4836
 7893W        W12093   1.379   9.128   2.496 -0.1460 -0.0584  0.0039
 7894W        W12094   9.189   6.131   9.944 -0.1823 -0.3782  0.0491
 7895W        W12095   4.852   0.332   1.884 -0.2733 -0.0697 -0.1326
 7896W        W12096   4.809   9.611  13.301 -0.3274  0.2794 -0.1773
 7897W        W12097   6.371   1.050   2.146 -0.1514 -0.1670 -0.1495
 7898W        W12098   2.077   9.456   9.058  0.0241 -0.1285 -0.0116
 7899W        W12099   7.429   2.646   1.429 -0.0531  0.2588  0.1175
 7900W        W12100   1.855   5.623   0.726 -0.3187 -0.1295 -0.0474
 7901W        W12101   7.313   8.558  13.036 -0.1286  0.0574 -0.0608
 7902W        W12102   7.475   0.770   4.009  0.0439  0.2757  0.4043
 7903W        W12103   6.934   3.212  13.124  0.2053 -0.3818  0.2832
 7904W        W12104   3.628   3.197   4.798 -0.3371  0.0079  0.1933
 7905W        W12105   2.879   6.860  12.425  0.2056 -0.3519  0.0337
 7906W        W12106   8.593   9.925  10.061  0.0475  0.1479 -0.0385
 7907W        W12107   0.281   7.599  10.753  0.0335 -0.3999  0.0635
 7908W        W12108   1.044   2.618  11.031 -0.1268  0.1252  0.0312
 7909W        W12109  10.211   7.775   3.347  0.0832 -0.0852  0.0692
 7910W        W12110   7.487   4.905  13.076 -0.0633 -0.1728  0.0746
 7911W        W12111   1.896   8.840   2.016 -0.1090 -0.0187  0.2074
 7912W        W12112   6.191   8.578   3.392 -0.1272 -0.1337  0.0567
 7913W        W12113   5.188   5.967   2.645  0.1578  0.2811 -0.0869
 7914W        W12114  10.239   8.785   0.890 -0.3646 -0.2970 -0.0106
 7915W        W12115   7.625   2.210  12.272  0.1601  0.2368  0.2769
 7916W        W12116   8.073   2.762   0.597 -0.0083 -0.0022 -0.3676
 7917W        W12117   4.303   8.084   0.976  0.1529 -0.1491  0.1604
 7918W        W12118   6.987   5.056  13.027  0.2994  0.0717 -0.0040
 7919W        W12119   6.060   0.247   9.941  0.1570 -0.0608 -0.0338
 7920W        W12120   8.313   0.312   1.758 -0.1087  0.4233  0.2924
 7921W        W12121   9.769   0.213  12.946  0.0093 -0.1281  0.3258
 7922W        W12122   8.529   4.536   3.904 -0.2360  0.1885  0.1920
 7923W        W12123   1.879   4.936   0.069 -0.2217 -0.0271 -0.0227
 7924W        W12124  10.297   3.326  13.059  0.1152  0.1248  0.1298
 7925W        W12125   6.340   7.440   4.783 -0.1664  0.2646  0.1223
 7926W        W12126   9.541   6.519   9.948  0.2125  0.3084 -0.2660
 7927W        W12127   8.653   8.107   9.958 -0.0508 -0.2317  0.1778
 7928W        W12128   6.292   7.897   1.709 -0.0653  0.0869  0.4786
 7929W        W12129   4.242   2.089  13.390 -0.1930 -0.3433  0.0692
 7930W        W12130   8.349   1.844   0.425 -0.1352  0.2617  0.0656
 7931W        W12131   8.879   0.902  10.192 -0.0176  0.3163  0.1323
 7932W        W12132   8.844   1.694   3.563 -0.1354 -0.3274 -0.1356
 7933W        W12133   8.166   9.580   3.990  0.3134 -0.2667 -0.0332
 7934W        W12134   6.695   8.149  11.944 -0.0342  0.0825  0.0578
 7935W        W12135   1.101   1.309   4.220 -0.0229 -0.0759 -0.0103
 7936W        W12136  10.038   2.294  10.530  0.0325  0.1162  0.2680
 7937W        W12137   2.861   6.647   0.787  0.2889  0.0967 -0.0534
 7938W        W12138   9.755   0.058   1.007  0.0837 -0.1791  0.1715
 7939W        W12139   6.926   2.930   1.294 -0.3051  0.2267  0.1647
 7940W        W12140   4.905   1.907  10.589 -0.0319 -0.2490 -0.0565
 7941W        W12141   6.686   7.956   3.213  0.1102  0.0328  0.3510
 7942W        W12142   8.663   0.012   1.466 -0.3423 -0.3598  0.0898
 7943W        W12143   6.183   2.840   1.075  0.0544 -0.2414  0.1216
 7944W        W12144  10.123   6.803  11.620  0.0773  0.2209 -0.3405
 7945W        W12145   6.508   6.478   0.872 -0.0339 -0.1861 -0.2503
 7946W        W12146   4.181   6.170  12.061  0.0778 -0.0591 -0.3069
 7947W        W12147   0.856   1.361  11.421 -0.1015 -0.0115  0.0587
 7948W        W12148   8.782   5.885   9.057  0.1223 -0.0548  0.1664
 7949W        W12149   5.094   3.801   0.895 -0.0787 -0.1645 -0.1044
 7950W        W12150   4.505   9.375   3.014 -0.2767 -0.3512  0.1622
 7951W        W12151   3.486   3.029  13.233  0.2684  0.2503  0.1137
 7952W        W12152   2.562   8.898   1.240  0.1625  0.2301  0.0934
 7953W        W12153   9.288   3.290   8.688 -0.0562 -0.0288  0.0805
 7954W        W12154   5.411   9.905   8.568 -0.1294  0.0276 -0.1082
 7955W        W12155   3.360   9.530   2.350  0.0508  0.1506 -0.0216
 7956W        W12156   7.042   2.572   3.418  0.0975 -0.1955 -0.1701
 7957W        W12157   0.203   9.814   4.806  0.0008  0.1994 -0.0898
 7958W        W12158   7.173   4.091   2.291  0.1540  0.0857 -0.3155
 7959W        W12159   7.955   1.396   0.068 -0.1668  0.0474 -0.3131
 7960W        W12160   2.939   3.348   4.306  0.0075 -0.1049 -0.4449
 7961W        W12161   4.112   4.422  10.877  0.1101  0.0505 -0.1681
 7962W        W12162   2.167   0.560   2.085 -0.1226 -0.3476  0.0117
 7963W        W12163   3.926   7.412   4.556  0.2866 -0.2426  0.1357
 7964W        W12164   6.831   0.557   4.306 -0.2649 -0.3050  0.0718
 7965W        W12165   0.308   3.138   3.437  0.0598  0.0133  0.0997
 7966W        W12166   1.593   7.718  12.934  0.4184  0.0250 -0.1561
 7967W        W12167   3.110   3.455   1.816 -0.1522 -0.3337 -0.0174
 7968W        W12168   1.444   8.284  10.226  0.0730 -0.2778 -0.3680
 7969W        W12169   5.039   2.904  11.447 -0.3162 -0.0059  0.0068
 7970W        W12170   0.654   1.132   4.300 -0.1260  0.0168 -0.1302
 7971W        W12171   1.791   4.549  11.993 -0.4255  0.0572  0.6543
 7972W        W12172   9.777   1.049   4.616 -0.4040  0.2984 -0.3726
 7973W        W12173   5.375   1.402  11.325 -0.2939 -0.0144  0.0052
 7974W        W12174   1.078   7.644   1.298 -0.0654 -0.1604  0.3616
 7975W        W12175   4.302   3.795   2.146 -0.0556  0.1527 -0.0002
 7976W        W12176   8.033   7.420   2.083 -0.0291 -0.2455  0.0865
 7977W        W12177   7.604   1.224   0.381  0.0058  0.0290 -0.0866
 7978W        W12178   7.447  10.168   4.384  0.0193 -0.0720 -0.1476
 7979W        W12179   6.903   0.749  11.677 -0.0785  0.0312  0.0318
 7980W        W12180   3.031   7.976  11.735  0.1602  0.0308 -0.1878
 7981W        W12181   2.506   9.172   4.317 -0.0226  0.0468 -0.2668
 7982W        W12182   5.792   2.057   0.816 -0.0498  0.0568  0.1122
 7983W        W12183   6.897   6.898  10.931 -0.2652  0.2519 -0.0673
 7984W        W12184   9.292   8.051   3.298  0.1739  0.4292 -0.0136
 7985W        W12185   3.490  10.407  12.371 -0.2956  0.0696 -0.0601
 7986W        W12186   1.997   0.210   2.343  0.1577 -0.4035 -0.0166
 7987W        W12187   5.805   8.402  12.171 -0.0044  0.3140 -0.1460
 7988W        W12188   4.559   3.451   9.303 -0.0169 -0.2084 -0.0052
 7989W        W12189   6.511   7.375   2.612 -0.1266  0.5189  0.2530
 7990W        W12190   8.265   4.491   9.414 -0.1319 -0.4497  0.0077
 7991W        W12191   7.537   6.015  12.491  0.0520 -0.1883  0.3936
 7992W        W12192   4.990   9.157  12.818  0.1578  0.0897  0.0528
 7993W        W12193   9.190   9.268   8.797  0.2669 -0.0069  0.2179
 7994W        W12194   4.696   2.273   3.184  0.2655  0.1263  0.1186
 7995W        W12195   2.285   3.094   2.263  0.1063  0.0940  0.2236
 7996W        W12196   0.312   0.758   0.174  0.1618 -0.2634  0.3287
 7997W        W12197   4.180   8.027  13.188 -0.2269 -0.1060  0.2857
 7998W        W12198   3.803   1.639   4.089  0.2311  0.1624  0.0966
 7999W        W12199   1.618   0.977   0.310  0.0612 -0.1547  0.4113
 8000W        W12200   4.165   4.789   1.191 -0.0792  0.0179  0.3467
 8001W        W12201   3.045   1.364   1.994  0.1397 -0.0941  0.0404
 8002W        W12202   6.662   6.506   9.002 -0.4555 -0.1355  0.0742
 8003W        W12203  10.190   3.742   1.095 -0.2218 -0.1172 -0.1054
 8004W        W12204   2.073  10.091   4.206  0.0752 -0.2272 -0.2033
 8005W        W12205   8.508   5.821  10.063  0.0604  0.0686  0.0386
 8006W        W12206   6.269   8.582   1.561  0.0648  0.0719  0.1988
 8007W        W12207   3.971   3.926   2.892 -0.0966  0.0215 -0.1269
 8008W        W12208   4.021   0.325   0.550  0.1844  0.0612 -0.1795
 8009W        W12209   2.071   7.032   0.532  0.0080  0.0160  0.0699
 8010W        W12210   0.723  10.380   9.795 -0.1266 -0.0463  0.0774
 8011W        W12211   0.117   1.588  10.560  0.1836  0.2230 -0.2858
 8012W        W12212   0.687   2.835  11.510  0.1139 -0.3326 -0.2652
 8013W        W12213   7.390   5.562  11.043 -0.2337  0.2709  0.1107
 8014W        W12214   2.221   7.741  13.466 -0.2008  0.0869 -0.0043
 8015W        W12215   6.322   3.934   4.125  0.1135  0.1337  0.0071
 8016W        W12216   7.322   7.836   9.560  0.0169  0.2031  0.2510
 8017W        W12217   7.329   3.444  11.765 -0.2303 -0.1084  0.0654
 8018W        W12218   7.438   1.845  12.655 -0.0177  0.1084  0.0840
 8019W        W12219   1.425   0.939   4.385  0.0797  0.2912  0.0502
 8020W        W12220   3.073   3.948   3.410  0.2805  0.2601 -0.1937
 8021W        W12221   5.722   2.917  13.264  0.2396  0.0781 -0.0536
 8022W        W12222   2.606   4.820  11.527 -0.0263  0.4079 -0.1944
 8023W        W12223   5.534   2.178   0.407  0.1597 -0.0745  0.0446
 8024W        W12224   8.246   0.007   9.240  0.0034 -0.1392  0.1113
 8025W        W12225   8.849   8.837  11.499 -0.1942  0.0256 -0.6703
 8026W        W12226   8.073   0.568   9.519  0.1882 -0.2303 -0.0877
 8027W        W12227   1.714   1.297   3.250  0.0548  0.3523 -0.4928
 8028W        W12228   0.109   3.617  10.499  0.1714  0.0630 -0.2801
 8029W        W12229   4.840   8.151  12.360 -0.2200  0.0530  0.2756
 8030W        W12230   6.597   2.594   1.154  0.3209  0.0855 -0.2630
 8031W        W12231   9.838   9.861  12.341 -0.0715  0.1156 -0.0168
 8032W        W12232   6.611   5.216   3.846 -0.2500 -0.1469  0.0377
 8033W        W12233   9.838   1.747   2.225 -0.2359 -0.1419  0.1152
 8034W        W12234   7.729   7.357   4.567 -0.0390  0.1035 -0.1628
 8035W        W12235   7.172   5.981  10.778 -0.1095  0.1141  0.2937
 8036W        W12236   7.751   8.794   1.997 -0.2822 -0.0205 -0.0564
 8037W        W12237   9.587   8.927   2.961  0.1227  0.0004  0.1651
 8038W        W12238   7.554   4.134  10.111 -0.1341  0.1115 -0.0633
 8039W        W12239   5.273   7.001  11.714 -0.1132  0.1265  0.1263
 8040W        W12240   5.722   4.352   1.326  0.1786 -0.0972 -0.1348
 8041W        W12241   8.195   1.740   3.362 -0.0656  0.1633  0.1316
 8042W        W12242   7.814   8.299   8.771 -0.3056 -0.3498  0.0410
 8043W        W12243   9.970   7.158  11.075  0.0415  0.0383 -0.0238
 8044W        W12244   9.176   1.296  11.154 -0.0332  0.2422 -0.3829
 8045W        W12245   8.861   0.948   0.278  0.1102  0.1312  0.0769
 8046W        W12246   1.374   1.090  11.404  0.2545  0.1709  0.1694
 8047W        W12247   2.320   3.443  10.122 -0.1567  0.2033  0.0258
 8048W        W12248   6.751   8.449   3.100 -0.0164 -0.1750 -0.2137
 8049W        W12249   6.226   9.626   2.974 -0.0022  0.4277  0.1247
 8050W        W12250   4.521   2.720   0.444  0.0688 -0.0131 -0.1307
 8051W        W12251   8.808   4.451   2.058  0.1373  0.0412  0.0464
 8052W        W12252   2.376   1.390   9.577  0.1815 -0.2221 -0.5093
 8053W        W12253   1.475   1.427   1.325 -0.0645  0.5309  0.0270
 8054W        W12254   4.258   5.206  10.381 -0.3461 -0.0458 -0.0327
 8055W        W12255   4.282   6.169   4.773  0.4088 -0.1723 -0.1614
 8056W        W12256   5.808   6.270   2.005 -0.3682 -0.2940  0.0833
 8057W        W12257   3.424   9.688   3.831  0.1780 -0.1439 -0.1434
 8058W        W12258   0.103   8.555  12.405 -0.0032 -0.0707  0.1683
 8059W        W12259   8.793   4.417   9.606  0.3386  0.2112 -0.1711
 8060W        W12260   8.130   4.447  12.344  0.0515  0.0634  0.1609
 8061W        W12261   7.516   8.279   9.331  0.2266  0.0613  0.1822
 8062W        W12262   2.549   2.238  11.714 -0.1554  0.1689  0.3151
 8063W        W12263   4.398   3.705   9.866  0.3159  0.2724  0.4114
 8064W        W12264   5.456   3.687   0.556 -0.2776 -0.0120 -0.3663
 8065W        W12265   9.028   5.449   4.691  0.2676  0.2636 -0.0406
 8066W        W12266  10.039   3.364  11.810 -0.0615 -0.2279  0.1928
 8067W        W12267   3.705   6.983  10.902  0.0372 -0.2671 -0.0805
 8068W        W12268   8.974   1.189   3.430  0.1840  0.0352  0.2025
 8069W        W12269   4.413   5.311  11.765 -0.0837 -0.0486  0.1783
 8070W        W12270   8.956   8.890   9.150 -0.0187 -0.0220 -0.1163
 8071W        W12271   5.290   4.426  10.128  0.1314  0.0743  0.0483
 8072W        W12272   5.704   6.032   4.449  0.1905  0.0255  0.0137
 8073W        W12273   5.043   3.753   4.553  0.1472 -0.0405  0.1091
 8074W        W12274   3.971   6.523   0.803  0.0747  0.1609 -0.0285
 8075W        W12275   3.107   2.179   0.953  0.2372  0.1730  0.2629
 8076W        W12276   5.509   3.561   3.770  0.2400 -0.1347  0.1664
 8077W        W12277   2.682   3.119  10.133  0.0789  0.1493 -0.2769
 8078W        W12278   8.523   6.955  13.320  0.0363  0.3046 -0.2030
 8079W        W12279   4.278   7.639  12.841  0.3337  0.2654 -0.0212
 8080W        W12280   1.497   7.341   3.666 -0.0240 -0.2445  0.0083
 8081W        W12281   6.654   7.225   3.580 -0.0820  0.0369  0.0550
 8082W        W12282   1.979   7.442  11.597 -0.1064 -0.1358 -0.0874
 8083W        W12283   1.225   8.469   1.290  0.2350  0.2319 -0.2155
 8084W        W12284  10.072   4.121   9.850  0.0417 -0.0050  0.2895
 8085W        W12285   1.686   2.399   1.094  0.0588 -0.0740 -0.1973
 8086W        W12286   7.711   7.833   3.053  0.0385  0.0113 -0.2540
 8087W        W12287   5.924   8.595  13.259 -0.2167 -0.3285 -0.0786
 8088W        W12288   2.627   4.144  10.970  0.0154  0.2271 -0.3381
 8089W        W12289   3.002   3.315  12.498 -0.0407 -0.0248  0.2630
 8090W        W12290   1.566   9.197  12.992  0.0120  0.2696  0.1876
 8091W        W12291   5.419   6.030   9.336  0.2305 -0.0874  0.0435
 8092W        W12292   4.809   4.881  11.646 -0.1132 -0.0641  0.0666
 8093W        W12293   9.298   6.765   8.628  0.1824  0.0582 -0.2871
 8094W        W12294   6.643   0.709   0.539  0.3306 -0.1386 -0.0190
 8095W        W12295   6.251   2.346   0.830 -0.2001 -0.0531  0.1966
 8096W        W12296   3.784   0.015   9.285  0.0527  0.0336  0.0309
 8097W        W12297   3.709   9.366  10.800 -0.0010 -0.3057  0.0484
 8098W        W12298   5.047   7.650   3.771 -0.0270  0.2345 -0.4283
 8099W        W12299   1.776   6.439   3.229  0.0133 -0.1468 -0.0251
 8100W        W12300   9.981   9.847   3.290  0.4173 -0.1971 -0.3056
 8101W        W12301   8.915   4.378   4.978 -0.1269 -0.1649 -0.0036
 8102W        W12302   6.097   0.408   8.877 -0.0284 -0.2509 -0.1677
 8103W        W12303   8.387   6.508  11.058  0.2350 -0.0889 -0.0151
 8104W        W12304   4.203   3.924  10.829 -0.3597  0.1231 -0.1254
 8105W        W12305   1.338   3.035  10.062 -0.0205  0.1018 -0.1802
 8106W        W12306   4.291   3.945   1.046  0.0632 -0.2882 -0.0628
 8107W        W12307   9.695   3.453   4.732  0.0077  0.0978  0.0471
 8108W        W12308   0.227   1.922   0.812 -0.2181  0.0927  0.0103
 8109W        W12309   9.918  10.420   9.180  0.0558 -0.0290  0.3365
 8110W        W12310   6.788   3.125   2.371 -0.2435 -0.1656  0.0731
 8111W        W12311   7.682   1.590   3.364 -0.1411  0.2764  0.0423
 8112W        W12312   5.197   9.933   0.766  0.1092  0.0661  0.0679
 8113W        W12313   1.109   1.187   0.973  0.1399  0.1862 -0.1809
 8114W        W12314   6.326   4.791  10.287  0.1246 -0.0501  0.2478
 8115W        W12315   5.467  10.172   9.400 -0.2242  0.0640  0.1225
 8116W        W12316   3.345   7.104   0.352  0.3245  0.0562  0.0746
 8117W        W12317   5.697   8.812   9.215 -0.0819  0.1921  0.0247
 8118W        W12318   5.687   5.631   1.577  0.1717  0.1067  0.2085
 8119W        W12319   0.528   7.905   0.752 -0.2800 -0.0332 -0.2914
 8120W        W12320   8.359   7.139   9.752 -0.4777 -0.3314 -0.1380
 8121W        W12321   5.337   9.562  11.550 -0.2085 -0.0617  0.1211
 8122W        W12322   7.489   9.605   0.743  0.2444  0.0318 -0.1984
 8123W        W12323   6.178   5.067   3.507  0.1696 -0.3682 -0.1261
 8124W        W12324   5.833   1.660  11.625 -0.3400 -0.0437 -0.0771
 8125W        W12325   3.076   2.415   0.513 -0.1963  0.2540 -0.0631
 8126W        W12326   4.689   5.187   9.085 -0.2916 -0.3732  0.0690
 8127W        W12327   3.508   8.513   3.597 -0.1104  0.2144  0.0787
 8128W        W12328   8.094   6.584   4.925  0.0546  0.2956 -0.1952
 8129W        W12329   6.417   4.631   1.924  0.1385 -0.1991  0.2718
 8130W        W12330   6.133   8.322   2.494  0.3716  0.0408 -0.0160
 8131W        W12331   2.736   5.293   0.535 -0.0501 -0.0719  0.3165
 8132W        W12332   6.162   6.367   3.598 -0.2671 -0.2405  0.0921
 8133W        W12333   5.085   8.631   2.547  0.0730  0.0457  0.1827
 8134W        W12334   9.940   5.286  10.680 -0.0149 -0.2366  0.1912
 8135W        W12335   5.684   7.533   0.662  0.1962  0.2938 -0.0457
 8136W        W12336   0.851   7.364   0.598  0.1606 -0.0621 -0.1109
 8137W        W12337   7.525   6.990   8.943  0.3364  0.0400  0.2502
 8138W        W12338   9.271   9.234   3.210 -0.0776 -0.3265 -0.0663
 8139W        W12339   8.528   5.856   2.390  0.0351  0.2085 -0.1221
 8140W        W12340   2.227   2.332  13.252  0.3316 -0.2317  0.3695
 8141W        W12341   6.129   9.108   9.720 -0.1949  0.4920  0.0472
 8142W        W12342   5.215   5.708  12.026  0.0052  0.0074 -0.0900
 8143W        W12343   8.252   8.064  10.829 -0.0370 -0.2468  0.0596
 8144W        W12344   7.175   4.631  11.144 -0.0603 -0.0372 -0.1751
 8145W        W12345   7.661   1.068   0.919 -0.1086  0.0303  0.5000
 8146W        W12346   3.959  10.263   2.561  0.2348  0.1169  0.1567
 8147W        W12347   7.793   1.953  10.866  0.1143 -0.2093  0.1249
 8148W        W12348   2.959   8.302   0.649 -0.3628 -0.0106 -0.0455
 8149W        W12349   1.801   7.546   1.380  0.0876 -0.1514  0.4156
 8150W        W12350   7.949   7.826  12.375 -0.0602 -0.0546  0.1396
 8151W        W12351  10.092   0.377   1.791 -0.2230  0.0614  0.0488
 8152W        W12352   5.962   2.920  10.962  0.0637 -0.1849  0.1963
 8153W        W12353   0.423   5.845  12.231  0.2920 -0.0095 -0.4988
 8154W        W12354   4.659   3.083   1.356  0.1170  0.2579 -0.1372
 8155W        W12355   5.555   9.293   9.091 -0.1027  0.2908  0.1274
 8156W        W12356   8.821   8.443   9.504  0.1112  0.1556  0.0212
 8157W        W12357   1.983   8.784  11.378 -0.2701 -0.2227  0.0908
 8158W        W12358   5.946   5.422  12.539  0.0764 -0.1806 -0.3141
 8159W        W12359   8.348   0.156   2.540  0.4099  0.4680 -0.0656
 8160W        W12360   2.196   5.055   2.763 -0.0171 -0.0715  0.0712
 8161W        W12361   4.569   6.737  10.500  0.0268  0.2760  0.0919
 8162W        W12362   5.060   3.549   1.524 -0.0458  0.0560  0.2988
 8163W        W12363   6.517   5.666   2.139 -0.0674  0.1840 -0.1003
 8164W        W12364  10.020   7.562  10.095 -0.0964 -0.1334  0.0017
 8165W        W12365   9.231   1.966  12.223 -0.0311 -0.1082  0.1390
 8166W        W12366   7.505   0.732   0.546 -0.0848  0.1758 -0.0678
 8167W        W12367   1.292   5.530   0.569  0.2462 -0.3507 -0.3857
 8168W        W12368   1.597   1.837   9.351 -0.2216 -0.1667  0.0030
 8169W        W12369   2.836   3.013  11.525 -0.1241 -0.2192 -0.0528
 8170W        W12370  10.210   4.430   1.961  0.0107 -0.0701  0.1963
 8171W        W12371   8.846   9.372   2.853  0.2542  0.1388 -0.1267
 8172W        W12372   8.954   9.030   0.494  0.1462  0.0027  0.1522
 8173W        W12373   8.295   6.993  12.795 -0.0704  0.1099  0.1033
 8174W        W12374   9.674   9.995  11.692 -0.1221 -0.1573  0.0476
 8175W        W12375   9.916   2.145  12.584 -0.1781  0.0002 -0.2100
 8176W        W12376   2.738  10.074  10.479 -0.3078 -0.0726 -0.2313
 8177W        W12377   0.869   3.350  10.591 -0.1229 -0.0658  0.0582
 8178W        W12378   2.060  10.263  12.371  0.0264 -0.2564  0.0467
 8179W        W12379   5.188   6.574  11.950  0.1095 -0.0222  0.0170
 8180W        W12380   7.965   9.789  10.636  0.0619 -0.0332  0.1467
 8181W        W12381   2.767   5.717  11.408  0.1841 -0.2523 -0.0934
 8182W        W12382   0.930   8.188  12.205 -0.0332 -0.0792  0.2988
 8183W        W12383   7.772   6.468   3.229  0.2043 -0.0865 -0.0426
 8184W        W12384   6.341  10.357  10.265  0.0420 -0.0516  0.2144
 8185W        W12385   5.976   5.714  10.341 -0.0678  0.1260  0.1060
 8186W        W12386   0.728   1.745   1.024  0.1862  0.1290  0.0269
 8187W        W12387  10.161   4.206  13.205  0.1072  0.2948 -0.4529
 8188W        W12388   7.604   2.834  12.016 -0.2079  0.1163 -0.1683
 8189W        W12389   9.027   8.487  12.174 -0.2021 -0.0140 -0.3832
 8190W        W12390   7.997   1.937  10.284 -0.0902 -0.0900 -0.1065
 8191W        W12391   4.338   1.598  12.563 -0.0633 -0.1988 -0.0406
 8192W        W12392   8.491   1.318   3.358 -0.0673  0.0725 -0.3133
 8193W        W12393   0.541   1.841  11.469 -0.3306 -0.3219 -0.0752
 8194W        W12394   3.643   4.166   4.609  0.0376  0.3465  0.2490
 8195W        W12395   6.827   9.627  13.014 -0.2791  0.0142 -0.1272
 8196W        W12396   0.424   2.384   2.661  0.0363  0.3601  0.0611
 8197W        W12397   7.285   1.264   8.426  0.2061 -0.1973  0.1274
 8198W        W12398   6.303  10.150   9.765 -0.1114 -0.0967  0.0817
 8199W        W12399   1.477   7.423   4.207  0.0889 -0.0330  0.0601
 8200W        W12400   2.161   1.335   0.170 -0.2090  0.0061  0.1445
 8201W        W12401   5.273   1.320   9.555 -0.0794 -0.1068  0.0387
 8202W        W12402   4.698   5.905   0.930  0.0324 -0.0273 -0.1100
 8203W        W12403   8.869   7.659   1.766  0.2825  0.0075 -0.0260
 8204W        W12404   3.702   4.133  11.000 -0.1088 -0.1797 -0.0916
 8205W        W12405   8.756   4.028   4.454  0.4883 -0.0385  0.1798
 8206W        W12406   9.513   3.187   3.860 -0.1067 -0.3066  0.0428
 8207W        W12407   7.511   4.475  11.827 -0.2371  0.1885 -0.3226
 8208W        W12408   8.875   3.859   9.984  0.4778 -0.0414  0.0499
 8209W        W12409   3.483   1.893  11.211 -0.3269 -0.0345  0.0781
 8210W        W12410   9.401   7.104   2.835 -0.0553 -0.1557 -0.0138
 8211W        W12411   1.031   0.574  10.408 -0.0038  0.3565  0.0394
 8212W        W12412   8.245   8.364  11.569 -0.0581 -0.1707  0.5039
 8213W        W12413   5.724   6.556   3.332 -0.1161 -0.1292 -0.1741
 8214W        W12414   2.035   1.189  13.096 -0.2896 -0.2650  0.0741
 8215W        W12415  10.423   9.836   1.040  0.0954  0.0045 -0.4121
 8216W        W12416   3.331   5.186   1.917 -0.2139  0.0005  0.0692
 8217W        W12417   1.951   7.233  10.459 -0.1357  0.1009  0.1540
 8218W        W12418   4.961   4.640   3.817  0.2336  0.0201 -0.0487
 8219W        W12419   6.162   7.018  11.056  0.0824 -0.2466  0.2080
 8220W        W12420   1.119   8.747   3.153 -0.0885 -0.1545 -0.1756
 8221W        W12421   5.228   5.513  10.138 -0.2077 -0.0322 -0.1278
 8222W        W12422   3.171   8.244  10.428 -0.1055 -0.0570  0.0384
 8223W        W12423   8.870   1.564   4.079  0.3205  0.1327 -0.3232
 8224W        W12424   4.777   5.354  12.171 -0.4586 -0.1814 -0.0870
 8225W        W12425   8.460   8.762   1.257 -0.0291 -0.2402 -0.0001
 8226W        W12426   8.125   1.207   9.004  0.0783 -0.0284 -0.3698
 8227W        W12427   6.355   1.600  10.171 -0.1549 -0.4280 -0.1985
 8228W        W12428   2.242   9.136   1.624  0.0216  0.0161 -0.1244
 8229W        W12429   5.115   0.703  12.486 -0.3665 -0.1264 -0.5321
 8230W        W12430   8.641   1.029   0.754 -0.2431 -0.0855  0.0658
 8231W        W12431   6.350   8.231  13.368  0.1677 -0.1461  0.0240
 8232W        W12432  10.279   8.861   1.415  0.1891  0.0838 -0.2252
 8233W        W12433   8.645   3.309  10.769 -0.1772  0.0522 -0.3166
 8234W        W12434   5.031   2.239  12.339  0.1695  0.3032 -0.4097
 8235W        W12435  10.406  10.008   1.576  0.1773  0.0929  0.1366
 8236W        W12436   4.827   5.314   0.371 -0.0945 -0.0974  0.2914
 8237W        W12437   3.077   4.926  11.411  0.0393 -0.0437  0.3023
 8238W        W12438   4.923   6.240   2.914  0.2962 -0.0268 -0.3018
 8239W        W12439   5.878   2.422   1.207  0.0613 -0.1084  0.1546
 8240W        W12440   2.573   3.863   3.696  0.1227 -0.0030 -0.1095
 8241W        W12441   3.916   1.531  10.697 -0.3383 -0.2276 -0.1071
 8242W        W12442   6.016   5.139   0.630 -0.2258  0.0462  0.0040
 8243W        W12443   6.034   3.759  10.509 -0.0820 -0.0755 -0.2001
 8244W        W12444   9.267   6.849  10.253  0.2232  0.1131 -0.2763
 8245W        W12445   8.524   3.863   3.101 -0.0734 -0.0831 -0.1295
 8246W        W12446   3.096   3.754   9.731 -0.1137  0.1267  0.1483
 8247W        W12447   0.487   5.771   2.273 -0.4135 -0.1883 -0.0836
 8248W        W12448   7.351   4.580   9.148  0.0163 -0.2773  0.2174
 8249W        W12449   4.320   6.907   2.161 -0.0446  0.2590 -0.0650
 8250W        W12450   5.011   6.027   0.431 -0.3796 -0.1239  0.4760
 8251W        W12451   6.649   6.550   1.367  0.1725  0.1976 -0.1491
 8252W        W12452   7.228  10.244   3.130  0.0289 -0.2730  0.1562
 8253W        W12453   2.772   1.086   9.874 -0.1533 -0.2415 -0.1920
 8254W        W12454   9.712   5.746   9.378 -0.1256  0.0031  0.2478
 8255W        W12455   4.926   8.934   9.810  0.6065 -0.0976 -0.3084
 8256W        W12456   9.564   6.717   2.440  0.0828  0.1500 -0.0214
 8257W        W12457   9.070  10.145  13.399 -0.2784 -0.2182 -0.1296
 8258W        W12458  10.253   9.881   0.535  0.1714  0.0826 -0.1725
 8259W        W12459   2.149   8.654   3.498 -0.0855 -0.0356  0.3602
 8260W        W12460   3.416   7.560   4.394 -0.0706 -0.1505 -0.0530
 8261W        W12461   8.456   1.015  11.144 -0.0063  0.2026  0.1453
 8262W        W12462   8.522   3.936   3.966  0.0310 -0.0113  0.1516
 8263W        W12463   0.881   0.413   8.640  0.1233  0.1406  0.0988
 8264W        W12464   2.778   2.874  10.567  0.1922 -0.3527  0.2027
 8265W        W12465   3.246   9.043  11.436  0.3378  0.4439 -0.2389
 8266W        W12466   7.965   1.476  11.054 -0.2122 -0.2092 -0.0588
 8267W        W12467   4.731   0.936   3.359 -0.4956 -0.1966  0.1264
 8268W        W12468   1.746   1.403  11.539 -0.0777 -0.0374 -0.2710
 8269W        W12469   8.800   5.616   3.281  0.1627 -0.0975 -0.3203
 8270W        W12470   3.633   9.110   0.588 -0.1054  0.0174 -0.0642
 8271W        W12471   3.039   4.309   1.397 -0.2023  0.1064 -0.3282
 8272W        W12472   7.752   0.507  11.943 -0.1692  0.3898 -0.1386
 8273W        W12473   5.508   4.787   9.803 -0.2188  0.1290  0.2200
 8274W        W12474   9.602   7.172   0.010 -0.1254  0.1480  0.3752
 8275W        W12475   1.009   8.134   1.019 -0.0257 -0.0388 -0.0102
 8276W        W12476  10.415   5.102   0.715  0.1265  0.2190 -0.2263
 8277W        W12477   2.418   1.811   3.943 -0.0400  0.1326  0.0066
 8278W        W12478   2.307   7.899  12.486 -0.0555  0.0927 -0.0591
 8279W        W12479   9.847   2.480  12.917 -0.2659  0.0783 -0.2300
 8280W        W12480   7.113   3.904   1.158 -0.3217 -0.1739  0.0670
 8281W        W12481   0.157   9.837  11.987 -0.0463 -0.1805  0.0504
 8282W        W12482   4.581   5.737  10.358  0.1182  0.0433 -0.1479
 8283W        W12483   7.917   6.075   2.891  0.2824 -0.1064  0.1200
 8284W        W12484   1.739   2.052  11.485 -0.0499 -0.0331  0.1245
 8285W        W12485   4.324   6.189  13.469  0.2459 -0.2530 -0.0554
 8286W        W12486   1.308   4.993   9.819  0.0891  0.2745 -0.0465
 8287W        W12487   1.103   8.598  12.367  0.2710 -0.2536 -0.0718
 8288W        W12488   7.942   3.851   0.223 -0.1945 -0.3162  0.1262
 8289W        W12489   7.371   7.452   3.062  0.2042 -0.1394 -0.0129
 8290W        W12490   7.685   9.925   1.869 -0.0677 -0.2100 -0.2232
 8291W        W12491   5.975   3.714   0.245 -0.3506 -0.1003 -0.0870
 8292W        W12492   7.890   1.953   2.654 -0.2109 -0.1141 -0.2640
 8293W        W12493   2.654   9.350  10.957 -0.3365 -0.0559  0.1182
 8294W        W12494   0.235   8.520   4.490  0.3472  0.0716 -0.2872
 8295W        W12495   7.479   7.172   1.282  0.0920  0.4064 -0.2265
 8296W        W12496   3.554   0.354  12.890 -0.1339 -0.1113  0.0160
 8297W        W12497   7.744   5.508   9.567  0.1975 -0.2213 -0.0423
 8298W        W12498   1.311   2.981   4.165 -0.0736 -0.1897 -0.1666
 8299W        W12499   3.211   7.694  12.286 -0.4042  0.2556 -0.1933
 8300W        W12500  10.122   1.794   4.235  0.1284 -0.0696  0.1291
 8301W        W12501   1.089   0.167  11.432  0.2238 -0.1718 -0.3987
 8302W        W12502   5.510   2.007  11.556 -0.3017 -0.0994 -0.0922
 8303W        W12503   0.967   4.920  13.321 -0.1034 -0.2652  0.1633
 8304W        W12504   9.402   5.812   2.547  0.1151  0.1054  0.2945
 8305W        W12505   3.794   4.447   1.822  0.0364  0.0060 -0.0754
 8306W        W12506   2.640   2.587  10.132  0.4378  0.0615 -0.2766
 8307W        W12507   2.107  10.067   4.997 -0.0029  0.0797  0.1253
 8308W        W12508   4.169   3.794  10.342  0.1326  0.0155  0.1276
 8309W        W12509   9.737   6.940  10.061 -0.0897  0.3096  0.0797
 8310W        W12510   1.727   6.636  10.979  0.2022 -0.1431 -0.1114
 8311W        W12511   4.120   2.595   1.913  0.0112 -0.0490  0.3313
 8312W        W12512   8.710   2.569   2.919  0.1379  0.0682 -0.1306
 8313W        W12513   4.868   5.226   3.090  0.2956 -0.3888 -0.1603
 8314W        W12514   3.481   5.728  10.114 -0.0073 -0.0484 -0.1285
 8315W        W12515   4.921   8.980   3.040  0.1385 -0.1739  0.2164
 8316W        W12516   4.425   3.067  12.340 -0.1753  0.1407  0.2802
 8317W        W12517   5.268   9.116  11.242 -0.0682  0.3323  0.3369
 8318W        W12518   3.900   1.124   0.943  0.1350 -0.4808 -0.0079
 8319W        W12519   1.234   1.992  10.293  0.0514  0.0376  0.0297
 8320W        W12520   0.481   9.002   9.622 -0.1768  0.0256  0.0645
 8321W        W12521   8.713   1.443  12.358 -0.1669 -0.1299  0.1359
 8322W        W12522   6.850   0.626   9.705 -0.0202  0.2198 -0.0512
 8323W        W12523   1.091   6.180   1.747  0.1174 -0.0901 -0.3371
 8324W        W12524   7.794  10.193  11.277  0.3967 -0.2376  0.0041
 8325W        W12525   3.045   1.123  10.740  0.0683  0.0733  0.2049
 8326W        W12526   7.106   5.650   4.795  0.1404  0.4124 -0.1375
 8327W        W12527   0.110   6.358  11.353  0.2099 -0.0152  0.0323
 8328W        W12528   9.982   8.017   9.239 -0.1185 -0.2851  0.1207
 8329W        W12529   1.212  10.326   0.602 -0.0048 -0.1659 -0.2995
 8330W        W12530   6.319  10.046   2.060 -0.3653  0.1975 -0.0947
 8331W        W12531   5.896   7.833   9.877 -0.1305  0.1476  0.1897
 8332W        W12532   7.337   7.141   4.735  0.2683  0.0453  0.1028
 8333W        W12533   9.972   3.244   1.073 -0.2278  0.2297  0.1792
 8334W        W12534   5.901   4.380  12.125  0.1648 -0.0109  0.1901
 8335W        W12535   6.389   0.618   4.147  0.2772  0.1054 -0.1946
 8336W        W12536   9.725   8.640   3.389  0.0675 -0.0664  0.2432
 8337W        W12537   9.216   0.770   1.505  0.1153 -0.2013 -0.1970
 8338W        W12538   5.150   7.551   3.238  0.0762 -0.0860  0.2350
 8339W        W12539   7.416  10.113  12.648 -0.1463 -0.1646  0.0511
 8340W        W12540   5.810   4.652   3.602  0.2001 -0.0139 -0.0799
 8341W        W12541   9.688   7.881   9.863  0.1363 -0.1973 -0.2101
 8342W        W12542   8.559   0.687   9.640 -0.2342  0.0458 -0.0688
 8343W        W12543   8.552   1.254   9.821 -0.0203 -0.0383 -0.0475
 8344W        W12544   2.357   4.920  11.976  0.1190 -0.2228  0.1114
 8345W        W12545   3.096   2.487   4.498  0.6493 -0.5737 -0.1669
 8346W        W12546   5.596   9.476  12.037  0.1060  0.0588  0.1954
 8347W        W12547   9.126   0.177   2.419  0.0606 -0.0313  0.1467
 8348W        W12548   4.022   0.275   2.407  0.0331  0.0206  0.0306
 8349W        W12549   2.761   5.322   3.682 -0.6228 -0.3726  0.3075
 8350W        W12550   0.261   4.954   3.353 -0.0172  0.0075  0.2114
 8351W        W12551   2.226   5.091  12.417 -0.0282 -0.2502  0.1570
 8352W        W12552   2.764  10.160   0.720  0.2162  0.2160 -0.0432
 8353W        W12553   2.661   9.217  12.449  0.0668 -0.0340 -0.2205
 8354W        W12554   7.879   9.016   2.470 -0.5605 -0.0550 -0.2284
 8355W        W12555   4.523   8.354   2.640  0.1107 -0.2065  0.1465
 8356W        W12556   4.367   1.231   0.767  0.6090 -0.0552  0.1416
 8357W        W12557   1.046   6.561  10.329  0.0578  0.3098 -0.5121
 8358W        W12558   2.748   2.067   3.701 -0.1065 -0.0357 -0.4219
 8359W        W12559   6.082   6.934   2.488  0.0337 -0.0556  0.0497
 8360W        W12560   3.339   2.310   2.446 -0.0824  0.1584  0.2058
 8361W        W12561   3.274   2.834  10.635  0.0982  0.2939  0.0063
 8362W        W12562   1.590   4.320  12.922  0.1230  0.2025  0.1094
 8363W        W12563   1.579   4.399  10.355  0.0386  0.3189 -0.0875
 8364W        W12564   6.181   5.412  10.024  0.2917  0.2469 -0.0216
 8365W        W12565   9.740   8.159   1.474  0.1928  0.0069 -0.1427
 8366W        W12566   9.295   3.782   1.470  0.1637  0.2129  0.0239
 8367W        W12567   2.304   8.675  13.397  0.2525 -0.0947  0.1907
 8368W        W12568   0.452   0.486   0.618  0.0830  0.1071 -0.0192
 8369W        W12569   1.690   4.222   1.577  0.0255  0.0854 -0.1345
 8370W        W12570   0.195   9.350  13.179  0.2393  0.2004  0.2203
 8371W        W12571  10.430   0.884   2.832  0.1375  0.0774 -0.0490
 8372W        W12572   2.566   4.131   9.780  0.2925  0.2880 -0.1993
 8373W        W12573   4.205   9.835   9.521  0.0201 -0.0105 -0.1212
 8374W        W12574   9.464  10.154   9.095 -0.0366  0.2526 -0.0236
 8375W        W12575   3.012   2.935  12.904  0.0195  0.2768 -0.2602
 8376W        W12576   0.403   0.661   4.166 -0.1128  0.3190  0.0228
 8377W        W12577   2.211   4.298  11.814 -0.2104  0.0833 -0.2325
 8378W        W12578   2.293   1.112  10.268  0.1513  0.1184 -0.1351
 8379W        W12579   3.026   1.604   4.548  0.1343  0.1120 -0.1240
 8380W        W12580   1.367   6.119   3.029 -0.3088 -0.0491 -0.0752
 8381W        W12581   2.010   3.844   1.966  0.0095  0.0295 -0.0254
 8382W        W12582   0.280   6.216   2.083  0.0485  0.1865 -0.2192
 8383W        W12583   2.576   9.014   2.458  0.2355 -0.0449  0.3397
 8384W        W12584   4.862   8.638  10.904  0.0267 -0.0523 -0.1320
 8385W        W12585   1.637   1.429   1.938  0.0472  0.1809  0.2176
 8386W        W12586   7.889   4.116  12.063  0.1089  0.0045  0.2150
 8387W        W12587   9.094   3.209  12.081  0.2496  0.0270 -0.6498
 8388W        W12588   7.236  10.025  13.401  0.0111 -0.1492  0.0504
 8389W        W12589   9.271   8.827   3.464 -0.1932 -0.1276  0.0189
 8390W        W12590   0.300   5.167   4.196  0.1760  0.0697 -0.1313
 8391W        W12591   4.936   5.454  11.693 -0.0072  0.0638  0.0452
 8392W        W12592   3.724   8.070   1.172  0.0038 -0.2310  0.1619
 8393W        W12593   2.011   2.987  11.380  0.0449  0.0319  0.0648
 8394W        W12594   4.286   2.427   2.817  0.0719  0.1589 -0.1870
 8395W        W12595   1.125   5.318  11.901 -0.0937  0.0878  0.2560
 8396W        W12596   3.493   8.686   1.847  0.0500 -0.0319 -0.1440
 8397W        W12597   0.782   4.301  11.853 -0.3728  0.2690  0.1184
 8398W        W12598   6.652   7.431   5.309  0.1041  0.1987 -0.3452
 8399W        W12599   5.674   9.580   3.665  0.1107 -0.1685  0.3840
 8400W        W12600   2.010   7.969   3.526  0.0419  0.2116  0.0742
 8401W        W12601   0.478   8.128   2.810  0.2251  0.1430  0.1311
 8402W        W12602   9.260   0.190   3.637 -0.0050 -0.6327 -0.1662
 8403W        W12603   2.432   0.037   2.023  0.0474  0.1270  0.1176
 8404W        W12604   0.843   3.042  11.016 -0.3118 -0.0996  0.0792
 8405W        W12605   2.494   8.583   2.647  0.0507 -0.1423 -0.1447
 8406W        W12606   4.647   2.898  11.835  0.0132  0.0909 -0.1039
 8407W        W12607   5.734   3.790   3.212 -0.0723  0.3409 -0.2185
 8408W        W12608   2.301   1.421  12.528 -0.3257  0.0582  0.3868
 8409W        W12609   6.546   7.422   4.076 -0.2502 -0.0871  0.1583
 8410W        W12610   0.638   9.207   0.560  0.0419  0.0170  0.1064
 8411W        W12611   2.517   4.480   0.176  0.2380 -0.1809  0.2281
 8412W        W12612   0.954   8.358   4.598  0.0876  0.0039  0.0705
 8413W        W12613   5.273   1.377   1.108  0.3512  0.1309  0.1576
 8414W        W12614   1.613   9.684   1.142  0.3009  0.1553 -0.1560
 8415W        W12615   1.098   2.880   0.271 -0.0382 -0.1088  0.2731
 8416W        W12616   7.612   2.749   0.970 -0.4836  0.0409 -0.1767
 8417W        W12617   2.475   7.952   2.767  0.2718 -0.1157  0.2334
 8418W        W12618   6.660   3.223   0.927 -0.1558  0.3131  0.0211
 8419W        W12619   5.490   9.164   2.415  0.0804  0.1861  0.2300
 8420W        W12620   1.326   0.799   1.120  0.0022  0.1856  0.0628
 8421W        W12621   5.816   9.437   4.651 -0.1873 -0.2803  0.0251
 8422W        W12622   3.019   0.637   5.037  0.1409 -0.4278  0.4664
 8423W        W12623   0.651   2.188   4.417 -0.0587 -0.3320 -0.2790
 8424W        W12624   2.709   4.024  11.785  0.1687  0.2098 -0.1070
 8425W        W12625   8.992   3.238   1.432 -0.6251 -0.1703 -0.0232
 8426W        W12626   5.109   5.672  12.495  0.0057  0.1098 -0.2714
 8427W        W12627   4.536   3.042   8.557 -0.2363  0.0056  0.0342
 8428W        W12628   6.211   2.937   4.295 -0.1588  0.1347  0.1626
 8429W        W12629   9.748   1.524   4.684 -0.2553 -0.0891 -0.1951
 8430W        W12630   8.943   1.361   1.989 -0.0069 -0.1694  0.0125
 8431W        W12631   9.289   6.554   2.095 -0.1053  0.1484 -0.0723
 8432W        W12632   0.336   7.115  12.634 -0.0076 -0.2630  0.0768
 8433W        W12633   0.811   1.725  12.437 -0.0792  0.0976 -0.3025
 8434W        W12634   2.951   9.314   9.378 -0.2190  0.2680  0.1444
 8435W        W12635   6.769   5.517  13.046 -0.1574 -0.0712  0.0070
 8436W        W12636   9.373   9.654   1.485 -0.2031  0.0396  0.4045
 8437W        W12637  10.297   4.658   0.244  0.1040 -0.0038 -0.0765
 8438W        W12638   8.193   2.720  10.340  0.2197 -0.1057  0.1193
 8439W        W12639   5.610   3.540  12.627 -0.0609 -0.2298 -0.0760
 8440W        W12640   6.069   4.867   4.490 -0.1242  0.2401  0.3722
 8441W        W12641   2.441   3.574   0.996  0.0287  0.0981  0.1099
 8442W        W12642   3.302   8.103   3.150 -0.2314 -0.2777  0.2299
 8443W        W12643   4.371  10.350   0.524 -0.3426  0.0392 -0.1151
 8444W        W12644   2.613   6.418  11.993  0.4445  0.1277  0.0812
 8445W        W12645  10.268   3.840  12.890  0.0484  0.1191 -0.2212
 8446W        W12646   8.574   6.917  10.850 -0.1074 -0.1523  0.1398
 8447W        W12647   5.454   6.529  12.691 -0.1295  0.3550 -0.0931
 8448W        W12648   0.878   0.314   4.750  0.0808 -0.1009  0.1878
 8449W        W12649   6.466   3.976   9.309  0.2284  0.0376  0.0761
 8450W        W12650   0.545   1.441   2.368  0.1047 -0.1112 -0.1188
 8451W        W12651   8.054   9.471   0.630 -0.0277 -0.1637 -0.2103
 8452W        W12652   7.116   9.726  11.626  0.1408  0.1662 -0.0416
 8453W        W12653  10.457   3.537   2.451  0.2001  0.0989 -0.2161
 8454W        W12654   2.848   6.853   9.834 -0.2500  0.1559  0.1417
 8455W        W12655   7.105   2.239  13.035  0.1218  0.0771 -0.0020
 8456W        W12656   3.555   7.156   4.122  0.2205 -0.0640  0.2161
 8457W        W12657   6.443   3.441   9.068 -0.1958  0.2246 -0.2886
 8458W        W12658   5.184   6.162   0.888  0.1594 -0.1371  0.0717
 8459W        W12659   3.781   1.209   3.105  0.3604  0.0082 -0.1468
 8460W        W12660   6.630   3.017   4.035 -0.3896  0.2953  0.2272
 8461W        W12661   6.268   4.070   2.393 -0.1004 -0.0238 -0.2342
 8462W        W12662   9.824   5.514  11.153  0.0832 -0.0983 -0.1087
 8463W        W12663   8.646   6.887  11.396  0.0233  0.2383  0.0437
 8464W        W12664   2.633   9.059   0.658  0.0999  0.4443  0.1419
 8465W        W12665   0.034   7.112   3.859  0.2534 -0.2756  0.1476
 8466W        W12666   0.402   4.449   0.368 -0.1138 -0.3481 -0.1651
 8467W        W12667   3.437   9.686  10.598  0.0227  0.0105 -0.1042
 8468W        W12668   3.036   2.247   2.937  0.0133  0.0156  0.0092
 8469W        W12669   5.360   3.739  11.153  0.0508  0.1685  0.0188
 8470W        W12670   7.788   1.537  10.565  0.2321 -0.1271 -0.1080
 8471W        W12671   6.217   7.552  10.963  0.0270 -0.3405 -0.1270
 8472W        W12672   7.078   8.031  10.601 -0.2062 -0.1060 -0.1605
 8473W        W12673   7.089   4.601  13.234 -0.0094 -0.0039 -0.1283
 8474W        W12674   5.717   5.851   1.134 -0.2646 -0.0393  0.0953
 8475W        W12675   9.132  10.122  10.249  0.1330 -0.1113 -0.0592
 8476W        W12676   5.633   5.513  11.757 -0.1499 -0.0796  0.1259
 8477W        W12677   2.047   4.103  12.938 -0.0497 -0.3224 -0.0117
 8478W        W12678   0.891   8.167   3.087 -0.1663 -0.0518 -0.0350
 8479W        W12679   5.299   0.406   2.637 -0.1780 -0.0355 -0.0737
 8480W        W12680   3.652   6.327   2.524 -0.1056 -0.2679 -0.1616
 8481W        W12681   9.226   0.834   3.032 -0.0555  0.0252 -0.0959
 8482W        W12682   2.811   5.284   2.325 -0.0734  0.0479  0.0324
 8483W        W12683   5.088   2.254   0.499  0.2987 -0.1478  0.1115
 8484W        W12684   6.280   3.183  11.193 -0.0602 -0.0528 -0.0375
 8485W        W12685   6.815   3.963   3.226  0.0361 -0.0408  0.0913
 8486W        W12686   1.395   7.120   2.092 -0.1004  0.2700 -0.2627
 8487W        W12687   1.223   9.679   4.315  0.0316  0.1348 -0.2091
 8488W        W12688   9.652   6.533  11.734  0.0731 -0.0125  0.0218
 8489W        W12689   3.293  10.065  12.057 -0.1288  0.1562 -0.0168
 8490W        W12690   1.850   4.981   0.574  0.1657 -0.1440  0.0895
 8491W        W12691   9.282   9.002  13.366 -0.0231 -0.2535 -0.0532
 8492W        W12692   5.092   6.701   0.759  0.5241  0.4127  0.2163
 8493W        W12693   2.974  10.087   0.318 -0.3019  0.1591  0.3218
 8494W        W12694   5.348   5.773   9.759 -0.0443  0.0018 -0.0524
 8495W        W12695   3.053   5.204  13.129  0.0531 -0.3770 -0.2607
 8496W        W12696   7.186   3.476   4.009 -0.0730  0.1525 -0.0870
 8497W        W12697   8.564   7.615   5.105  0.1612 -0.0787 -0.0465
 8498W        W12698   5.217  10.119  11.663  0.0030  0.2158  0.2760
 8499W        W12699   1.483   7.076  12.389 -0.0046  0.1636 -0.1351
 8500W        W12700   4.958   6.302   4.215 -0.1613 -0.1533  0.1932
 8501W        W12701   9.437   4.720  13.262 -0.1960 -0.0032  0.1915
 8502W        W12702   8.633   1.820  12.780 -0.1412 -0.0296  0.1217
 8503W        W12703   3.077   2.307   1.546 -0.1304  0.2234 -0.0092
 8504W        W12704   2.790  10.388   1.660 -0.1732 -0.0039 -0.3024
 8505W        W12705   8.372   6.191  12.971 -0.0083  0.0658 -0.1092
 8506W        W12706   4.562   8.612  11.354 -0.0260  0.1663  0.2227
 8507W        W12707   9.089   4.992   9.495 -0.1934  0.1367  0.2216
 8508W        W12708   9.447   1.491   1.979 -0.0946 -0.2478 -0.4222
 8509W        W12709   5.248   2.170   0.004 -0.0061 -0.0327 -0.0879
 8510W        W12710   0.887   2.350   2.663 -0.2875  0.0008 -0.2359
 8511W        W12711   0.065   7.880   0.450 -0.0272  0.1051  0.0177
 8512W        W12712   2.773   1.630   9.909  0.0822  0.3418 -0.0534
 8513W        W12713   5.175   4.627   2.896 -0.0886 -0.0783 -0.4163
 8514W        W12714   9.217   1.543   9.024  0.0819  0.0011 -0.0530
 8515W        W12715   9.595   2.790  13.211  0.1574 -0.0511  0.3029
 8516W        W12716   1.147   2.153  10.738  0.1131 -0.0286 -0.4372
 8517W        W12717   2.341   1.701   1.372  0.6325  0.0349 -0.1662
 8518W        W12718   1.406   3.920   4.050 -0.0655 -0.0593  0.1603
 8519W        W12719   8.618   7.038  12.345 -0.0950  0.1134 -0.0709
 8520W        W12720   0.339   3.892   2.400 -0.2489 -0.1077 -0.1492
 8521W        W12721   9.294   9.753  11.486  0.2577  0.1586 -0.1199
 8522W        W12722   5.629   7.005   1.320 -0.1297  0.1110  0.1525
 8523W        W12723  10.334   9.815  11.028  0.5046  0.1223  0.0977
 8524W        W12724   0.595   4.336   9.527  0.1464  0.0626 -0.1847
 8525W        W12725   2.845   5.639  11.969 -0.1310 -0.0899 -0.0405
 8526W        W12726   7.831  10.443  12.746  0.2338  0.2694 -0.1517
 8527W        W12727   5.049   1.799  11.995  0.0523  0.1086  0.0880
 8528W        W12728   6.945   9.518   0.874  0.1549  0.1471 -0.0420
 8529W        W12729   9.818   5.392   9.825 -0.2807 -0.0466  0.0719
 8530W        W12730   5.560   3.686   2.295  0.2761  0.1023 -0.2204
 8531W        W12731   3.248   9.102   3.249 -0.2299 -0.0694 -0.2915
 8532W        W12732   9.742   1.363  10.323  0.2934  0.0029  0.2725
 8533W        W12733   9.201   7.883  13.365 -0.0197 -0.2537  0.0828
 8534W        W12734   4.539   5.894  11.756  0.1984  0.1952 -0.1618
 8535ION    NA+12735   6.632   8.178  10.614  0.2367  0.0170 -0.2405
 8536ION    NA+12736   2.420   9.075  11.418 -0.0870 -0.2914 -0.1801
 8537ION    NA+12737   9.588  10.294   2.356  0.1663 -0.0798  0.3842
 8538ION    NA+12738   6.465   1.031  11.782  0.3383  0.3549 -0.0022
 8539ION    NA+12739   7.575   4.746  10.872  0.1024  0.0974 -0.1999
 8540ION    NA+12740   0.758   2.543  12.978 -0.0689 -0.2108 -0.1271
 8541ION    NA+12741   0.645   1.739   4.039 -0.1270 -0.0482 -0.1130
 8542ION    NA+12742   1.798   9.581  12.095  0.1808  0.0240  0.0673
 8543ION    NA+12743  10.354   5.510  11.015 -0.0863  0.0481  0.2785
 8544ION    NA+12744   9.060   2.042  12.835 -0.1279  0.0891  0.2672
 8545ION    NA+12745   6.939   7.618   2.882  0.2694  0.0041  0.0767
 8546ION    NA+12746   8.387   0.766   5.288 -0.2634  0.1327  0.0254
 8547ION    NA+12747   7.117   0.148   3.508  0.1981  0.3138  0.3721
 8548ION    NA+12748   0.885   1.150   5.485  0.0550  0.0708 -0.1208
 8549ION    NA+12749   0.019   9.272   3.729  0.2317 -0.3176 -0.2175
 8550ION    NA+12750   4.583   3.438   0.237 -0.0476 -0.0448 -0.1293
 8551ION    NA+12751   1.584   7.026  13.085 -0.0147 -0.0952 -0.1403
 8552ION    NA+12752  10.277   4.469  12.031 -0.2513  0.0013  0.0230
 8553ION    NA+12753   9.191   7.280   1.710 -0.2017  0.0427  0.1023
 8554ION    NA+12754   1.524   9.547   5.271 -0.0411 -0.0017  0.0530
 8555ION    NA+12755   9.409  10.319  13.031 -0.1029  0.3402 -0.0203
 8556ION    NA+12756   8.269   4.169  11.266 -0.1170 -0.1434  0.1869
 8557ION    NA+12757   3.160   7.399   1.590 -0.0660 -0.0803 -0.0712
 8558ION    NA+12758   2.126   6.530  10.568  0.2479  0.1522  0.2054
 8559ION    NA+12759   9.729   4.774   1.908  0.1050  0.0709 -0.0150
 8560ION    NA+12760   8.848   5.017   0.958 -0.1641 -0.0501  0.5257
 8561ION    NA+12761   4.968   8.107  10.914 -0.3024  0.0031 -0.0136
 8562ION    NA+12762   8.480   5.444   1.624 -0.4042 -0.1551 -0.0878
 8563ION    NA+12763   2.834   3.017   3.351  0.0398 -0.1502  0.0171
 8564ION    NA+12764   9.393   5.866  10.472  0.3296 -0.1662 -0.4792
 8565ION    NA+12765   4.977   6.243   1.885 -0.0495 -0.0529 -0.0870
 8566ION    NA+12766   5.756   7.197   3.287 -0.2504 -0.0793  0.3963
 8567ION    NA+12767   7.819   9.214   4.203 -0.1336 -0.3595  0.1682
 8568ION    NA+12768   8.338   6.771   1.679  0.2637 -0.0449 -0.0277
 8569ION    NA+12769   2.316   0.413   3.190  0.0793 -0.0126  0.1990
 8570ION    NA+12770   7.007   7.931   8.658 -0.0652  0.0989  0.1095
 8571ION    NA+12771  10.182   1.526   1.445 -0.2266  0.1250 -0.2143
 8572ION    NA+12772   2.425   7.015  12.548 -0.2873 -0.1512 -0.4483
 8573ION    NA+12773   2.874   3.327   2.895 -0.3136  0.2078 -0.1327
 8574ION    NA+12774   3.448   0.321   1.246  0.0085 -0.0103 -0.0023
 8575ION    NA+12775   5.449   7.788   1.457 -0.2059 -0.2861  0.3295
 8576ION    NA+12776   7.125   4.532   4.077  0.0017  0.0547  0.0884
 8577ION    NA+12777   5.776   6.711   8.674 -0.3533 -0.2594  0.0686
 8578ION    NA+12778   5.612   6.742   2.364 -0.0928 -0.0873  0.0766
 8579ION    NA+12779   6.232   4.013   8.886 -0.1841  0.0657 -0.2163
 8580ION    NA+12780   6.801   7.898   1.947 -0.0654  0.0296 -0.1365
 8581ION    NA+12781   0.416   5.719   1.287  0.0198 -0.1207  0.0187
 8582ION    NA+12782   9.838   0.997  13.389  0.2291  0.0644  0.3753
 8583ION    NA+12783   0.537   9.103  12.857  0.4157 -0.1244 -0.0564
 8584ION    NA+12784   1.613   9.484   2.237 -0.0153 -0.0373  0.1478
 8585ION    NA+12785   3.716   1.270   8.793 -0.0697  0.0186  0.2428
 8586ION    NA+12786   7.791   4.924  10.484 -0.0626  0.0038  0.0755
 8587ION    NA+12787   3.768   3.677   4.929  0.0609  0.1381  0.0509
 8588ION    NA+12788   2.806   9.365   9.831  0.1163 -0.0721 -0.1289
 8589ION    NA+12789   6.981   1.536  13.071  0.2317 -0.0259 -0.0408
 8590ION    NA+12790   9.679   6.348   1.821 -0.1286  0.0800  0.1425
 8591ION    NA+12791   6.062   8.072  10.821 -0.3105 -0.3801  0.0048
 8592ION    NA+12792   7.447   5.404   8.774  0.1113  0.0374 -0.0120
 8593ION    NA+12793   3.703   9.957  12.529  0.1458 -0.3910 -0.1059
 8594ION    NA+12794   2.021   1.028   9.803 -0.2265 -0.1389  0.1221
 8595ION    NA+12795   6.247   1.359   4.650  0.1669  0.0581 -0.3579
 8596ION    NA+12796   5.435   4.104   2.951 -0.1233  0.1260 -0.0894
 8597ION    NA+12797  10.302   4.035   1.566 -0.1332  0.0279  0.1956
 8598ION    NA+12798   2.822   0.423  10.554 -0.0778  0.5117  0.1062
 8599ION    NA+12799   7.797   1.609   9.155  0.0931 -0.3376  0.1056
 8600ION    NA+12800   5.277   7.950   8.749  0.0995  0.0406  0.0441
 8601ION    NA+12801   7.933   6.344  12.340  0.1672  0.1629  0.3123
 8602ION    NA+12802   6.120   7.696   1.288  0.0006  0.1426  0.1315
 8603ION    NA+12803   6.596   3.912  10.355 -0.1232  0.0871 -0.0712
 8604ION    NA+12804  10.031   7.332   3.864  0.2184 -0.1589 -0.2358
 8605ION    NA+12805  10.222   5.486  13.186 -0.2137  0.0890 -0.2285
 8606ION    NA+12806   5.727   0.967  10.370 -0.0634  0.0889 -0.1315
 8607ION    NA+12807   9.330   2.461   0.250  0.1205  0.0908  0.1991
 8608ION    NA+12808   6.819   6.424   9.489  0.0624  0.0289 -0.2385
 8609ION    NA+12809   3.765   4.444  12.090  0.0562  0.0731  0.2038
 8610ION    NA+12810   3.371   7.096   2.365 -0.2158 -0.2523  0.1552
 8611ION    NA+12811   0.261   7.941   1.843 -0.0875 -0.0366 -0.1501
 8612ION    NA+12812   1.268   5.828  13.204 -0.0953 -0.0378 -0.0230
 8613ION    NA+12813   4.441   0.917   3.732 -0.2472  0.1081 -0.3345
 8614ION    NA+12814   1.461   1.878   4.697 -0.0356  0.1269  0.0029
 8615ION    NA+12815   5.429   7.536  11.586 -0.0892 -0.0672  0.2188
 8616ION    NA+12816   6.435   8.291   4.917 -0.0089 -0.1923 -0.0398
 8617ION    NA+12817   5.355   4.884  10.400 -0.1646  0.2264  0.1424
 8618ION    NA+12818   5.716   3.676  13.223  0.1800 -0.0295 -0.0277
 8619ION    NA+12819   7.951   7.022   0.878 -0.3325 -0.1526 -0.0851
 8620ION    NA+12820   6.991   1.893   2.855 -0.2039  0.3593  0.0250
 8621ION    NA+12821   6.136  10.091   3.110 -0.2685  0.1447 -0.5185
 8622ION    NA+12822   2.347   4.753   4.431  0.2282 -0.0423  0.0600
 8623ION    NA+12823   0.915   4.933   0.932 -0.3588  0.2393 -0.0685
 8624ION    NA+12824   9.837   4.397  12.452 -0.1364 -0.3106  0.0842
 8625ION    CL-12825  10.364   5.827  10.656  0.0975 -0.0725 -0.0174
 8626ION    CL-12826   9.387   5.391   0.587 -0.0387  0.1079  0.0671
 8627ION    CL-12827   2.644   3.522   3.342  0.1136 -0.2853 -0.4243
 8628ION    CL-12828   8.167   9.015   3.879 -0.0179 -0.0116  0.1218
 8629ION    CL-12829   2.198   3.109   0.923 -0.0909  0.0472 -0.2371
 8630ION    CL-12830   9.940   0.600   4.455 -0.1151  0.0660  0.1972
 8631ION    CL-12831   0.143   6.057   1.066  0.0110 -0.1356  0.0552
 8632ION    CL-12832   0.257   2.191   4.136 -0.1892  0.0829  0.1767
 8633ION    CL-12833  10.168   4.989   1.442 -0.0055 -0.0170  0.1625
 8634ION    CL-12834   8.990   7.308   2.128 -0.0368  0.4343 -0.2330
 8635ION    CL-12835   6.658   4.759   3.951 -0.0139  0.1955 -0.0722
 8636ION    CL-12836  10.037   5.900  12.987  0.0863  0.2069 -0.2939
 8637ION    CL-12837   6.665   0.598   9.226  0.1179 -0.0893  0.0283
 8638ION    CL-12838   7.953   5.120   0.813 -0.0336  0.0642  0.1970
 8639ION    CL-12839   5.144   3.521   0.094  0.0550 -0.3291 -0.1418
 8640ION    CL-12840   5.513   7.351  12.078  0.1135  0.0767 -0.1366
 8641ION    CL-12841   2.147   9.247  12.350 -0.1330  0.2728  0.3619
 8642ION    CL-12842   5.934   7.841   4.344 -0.0954  0.0674 -0.2635
 8643ION    CL-12843   2.714   7.359  12.342  0.0920  0.0235 -0.1846
 8644ION    CL-12844   2.539   9.468   2.163  0.2778 -0.0978 -0.2263
 8645ION    CL-12845   5.606   8.239   9.843  0.0673 -0.0315  0.0431
 8646ION    CL-12846   0.981   7.763  10.230  0.1064 -0.1387  0.0963
 8647ION    CL-12847   9.884   4.786  12.122  0.2417  0.0986  0.4329
 8648ION    CL-12848   4.710   5.456   2.525  0.0892 -0.2893 -0.0286
 8649ION    CL-12849   2.323   4.850  11.111 -0.1173 -0.0876  0.0436
 8650ION    CL-12850   8.926   8.155   0.226  0.1875  0.1323 -0.1684
 8651ION    CL-12851   4.964   7.098   3.858  0.1603 -0.1685 -0.0706
 8652ION    CL-12852   8.825   2.075  13.304 -0.0275  0.0059  0.2082
 8653ION    CL-12853   0.234   2.640   9.805 -0.2259 -0.1080 -0.0345
 8654ION    CL-12854   1.076   7.057   3.002  0.0611 -0.0773  0.0619
 8655ION    CL-12855   2.652   8.593  11.589  0.0018  0.2099  0.0531
 8656ION    CL-12856   5.357   6.499   2.015 -0.3067 -0.0171  0.1531
 8657ION    CL-12857   5.619   7.483   1.151  0.0652  0.0988 -0.2418
 8658ION    CL-12858   5.735   2.450  11.195 -0.0882  0.0691  0.0571
 8659ION    CL-12859   7.867   4.438  10.433  0.0581 -0.3247  0.2985
 8660ION    CL-12860   1.951   0.636  10.080 -0.2117  0.0793 -0.2949
 8661ION    CL-12861   0.360   9.543   4.010 -0.0137 -0.0257 -0.2396
 8662ION    CL-12862   6.670   6.386   9.954 -0.1497  0.1718  0.1902
 8663ION    CL-12863   8.253   6.618   1.150 -0.2357 -0.0241 -0.4424
 8664ION    CL-12864   3.312   0.683  10.727  0.0821 -0.1798  0.3400
 8665ION    CL-12865   4.719   8.150  10.023  0.1243  0.3143  0.0082
 8666ION    CL-12866   9.414  10.060  12.580 -0.1863 -0.1377  0.1025
 8667ION    CL-12867   2.541   2.999   2.723 -0.3000  0.0491  0.0563
 8668ION    CL-12868   5.276   5.258   9.634  0.2202 -0.0127  0.1966
 8669ION    CL-12869   5.724   7.194   2.724 -0.0253 -0.2639  0.0258
 8670ION    CL-12870   6.800   7.528   0.477  0.0952  0.0983 -0.2506
 8671ION    CL-12871   1.637   2.077   4.296  0.3687  0.2292  0.3049
 8672ION    CL-12872   2.100   6.524  12.735 -0.1176 -0.0283  0.1062
 8673ION    CL-12873   6.066   0.645  10.268  0.2271  0.0926 -0.4280
 8674ION    CL-12874   6.207  10.415   3.871  0.0640 -0.1351 -0.0279
 8675ION    CL-12875   7.207   3.994   4.208 -0.4989  0.0541  0.0867
 8676ION    CL-12876   2.206   9.148   3.464 -0.1726  0.0353 -0.1173
 8677ION    CL-12877   8.819   5.072   1.469  0.1078 -0.1042 -0.1243
 8678ION    CL-12878   8.446   6.848   2.972  0.0691  0.0811  0.0140
 8679ION    CL-12879   6.514   8.462  10.141 -0.1731 -0.1828  0.1467
 8680ION    CL-12880   9.569   6.548   1.399  0.0881 -0.2500 -0.1151
 8681ION    CL-12881   3.230  10.396   0.990 -0.1649 -0.1634  0.0871
 8682ION    CL-12882   3.286   6.855   2.956 -0.0653  0.2932 -0.0586
 8683ION    CL-12883   1.032   5.367   0.979  0.2962 -0.1538 -0.1963
 8684ION    CL-12884   5.457   8.391   3.037 -0.0060  0.0612  0.0294
 8685ION    CL-12885   9.739   1.278   1.584 -0.3618  0.0900 -0.2506
 8686ION    CL-12886   8.003   3.787   9.442 -0.0464 -0.0802  0.0479
 8687ION    CL-12887   1.526   6.166  13.447 -0.1619  0.1173 -0.2157
 8688ION    CL-12888   9.043   7.984   3.998  0.4633  0.0902  0.0188
 8689ION    CL-12889   9.798   4.376   2.316 -0.1944  0.3014 -0.2536
 8690ION    CL-12890   7.430   3.262  13.028  0.0989 -0.3053  0.1656
 8691ION    CL-12891   3.879   1.884   9.340 -0.2797  0.0840 -0.1364
 8692ION    CL-12892   8.311   4.516   1.994  0.0519 -0.0693  0.2629
 8693ION    CL-12893   9.053   8.846   9.686 -0.0488 -0.2828 -0.1487
 8694ION    CL-12894   7.503   9.596   4.433  0.0561 -0.0092  0.3822
 8695ION    CL-12895   6.442   1.071  11.310  0.1651  0.2951  0.1270
 8696ION    CL-12896   4.328   3.513  13.248 -0.1974  0.0109 -0.2353
 8697ION    CL-12897   3.012   4.579  13.423  0.0088  0.0187  0.0407
 8698ION    CL-12898   7.787   4.118  11.459  0.2695 -0.1139 -0.0479
 8699ION    CL-12899   0.020   8.319   2.086 -0.0474 -0.1140  0.1214
 8700ION    CL-12900   9.432  10.333   1.913  0.1325  0.1224  0.0906
 8701ION    CL-12901  10.411   2.003   1.285 -0.4123 -0.2486 -0.0045
 8702ION    CL-12902   5.581   0.656   9.051  0.0310  0.2253  0.1294
 8703ION    CL-12903   2.840   0.321   3.229  0.1698  0.0144 -0.0547
 8704ION    CL-12904   9.077   6.145  10.836  0.0943 -0.0091 -0.0330
 8705ION    CL-12905   2.181   0.485   4.762 -0.0897 -0.3220  0.0991
 8706ION    CL-12906   7.174   8.098   3.127  0.0740  0.2941  0.2868
 8707ION    CL-12907   0.456   4.179   3.474 -0.1167  0.0873 -0.0050
 8708ION    CL-12908   3.111   6.426  10.484 -0.0684  0.1257 -0.2789
 8709ION    CL-12909   6.888   8.341  11.008  0.0508  0.2054  0.0450
 8710ION    CL-12910   9.616   0.596  13.294 -0.4207  0.2431  0.2499
 8711ION    CL-12911   6.822   1.131   3.335  0.0340  0.1979 -0.0603
 8712ION    CL-12912   5.564   8.184  10.815  0.2988 -0.0024 -0.0018
 8713ION    CL-12913   6.391   7.939   2.273 -0.1788 -0.0188 -0.1876
 8714ION    CL-12914   7.926   6.596  11.881  0.0938 -0.0587 -0.1411
  10.45851  10.45851  13.48438
