Protein in INSANE! Membrane UpperLeaflet>POPC=1.0 LowerLeaflet>POPC=1.0
11530
    1AU     AUC    1   4.202   0.001   5.089  0.0130 -0.0047  0.0287
    1AU     AUC    2   4.275   0.292   4.972 -0.0126  0.0128  0.0219
    1AU     AUC    3   3.966   0.155   4.959  0.0138 -0.0383  0.0119
    1AU     AUC    4   4.493  -0.136   5.215  0.0196 -0.0058 -0.0052
    1AU     AUC    5   4.192  -0.296   5.204 -0.0594  0.0575 -0.0630
    1AU     AUC    6   4.327  -0.248   4.921 -0.0096  0.1333 -0.0508
    1AU     AUC    7   4.208   0.027   4.781  0.1036 -0.0018 -0.0111
    1AU     AUC    8   4.269  -0.060   5.434  0.0710  0.0127  0.0284
    1AU     AUC    9   4.092   0.238   5.238 -0.0344 -0.0314  0.0428
    1AU     AUC   10   3.962  -0.011   5.215 -0.0417  0.0488 -0.0182
    1AU     AUC   11   4.014  -0.189   4.907 -0.0738  0.0118 -0.0048
    1AU     AUC   12   4.451   0.184   5.242 -0.0865  0.0193  0.1140
    1AU     AUC   13   4.478   0.085   4.926 -0.0938 -0.1448  0.0236
    1AU     AUC   14   4.288   0.625   4.840  0.0182  0.0287 -0.0184
    1AU     AUC   15   3.987   0.523   4.850 -0.0013 -0.0942  0.0700
    1AU     AUC   16   3.675   0.305   4.840  0.0306 -0.0106 -0.0322
    1AU     AUC   17   4.781  -0.306   5.312 -0.1042 -0.0456  0.0486
    1AU     AUC   18   4.487  -0.506   5.320  0.0169  0.0895  0.0016
    1AU     AUC   19   4.162  -0.618   5.318 -0.0570 -0.0341 -0.0556
    1AU     AUC   20   4.473  -0.467   4.675  0.0726  0.0105  0.0589
    1AU     AUC   21   4.373  -0.176   4.511  0.0277  0.0295  0.0741
    1AU     AUC   22   4.196   0.099   4.398 -0.0066  0.0482 -0.0133
    1AU     AUC   23   4.286  -0.087   5.760 -0.0518  0.0263 -0.0276
    1AU     AUC   24   4.118   0.209   5.651 -0.0300 -0.0327  0.0664
    1AU     AUC   25   3.979   0.504   5.465  0.0553  0.0013  0.0150
    1AU     AUC   26   3.635  -0.072   5.403 -0.0305 -0.0797  0.0178
    1AU     AUC   27   3.677  -0.223   5.105  0.0638  0.0146  0.0118
    1AU     AUC   28   3.762  -0.357   4.770 -0.0624 -0.0362  0.0014
    1AU     AUC   29   4.657   0.415   5.407 -0.0691 -0.0679  0.1203
    1AU     AUC   30   4.775   0.313   5.106 -0.0421  0.0717  0.0717
    1AU     AUC   31   4.777   0.211   4.759 -0.1038 -0.0221 -0.0553
    1AU     AUC   32   3.619   0.136   5.138  0.0288 -0.0473 -0.0543
    1AU     AUC   33   3.674  -0.041   4.792 -0.0079 -0.0548 -0.0782
    1AU     AUC   34   4.471   0.526   5.153 -0.1219  0.0395 -0.1000
    1AU     AUC   35   4.548   0.464   4.791  0.0044  0.0272 -0.1050
    1AU     AUC   36   3.874  -0.359   5.378 -0.0020 -0.0264  0.0694
    1AU     AUC   37   3.948  -0.504   5.043  0.0664 -0.0664  0.0172
    1AU     AUC   38   4.765   0.063   5.338 -0.0884  0.0921  0.0377
    1AU     AUC   39   4.816  -0.046   5.046 -0.0468 -0.0078  0.0090
    1AU     AUC   40   4.212   0.386   4.614 -0.0121  0.0463  0.0682
    1AU     AUC   41   3.891   0.179   4.626  0.0158 -0.0471  0.0687
    1AU     AUC   42   4.614  -0.401   4.995  0.0197 -0.0106 -0.0212
    1AU     AUC   43   4.297  -0.604   4.990 -0.0560 -0.0413  0.0010
    1AU     AUC   44   4.127   0.581   5.181 -0.0193 -0.0276  0.0237
    1AU     AUC   45   3.860   0.448   5.133  0.0586  0.0020 -0.0123
    1AU     AUC   46   4.558  -0.233   5.545  0.0583  0.0045 -0.0670
    1AU     AUC   47   4.238  -0.356   5.544 -0.0647 -0.0161 -0.0278
    1AU     AUC   48   4.130  -0.431   4.703  0.0409 -0.0246 -0.0132
    1AU     AUC   49   3.987  -0.166   4.565  0.0618 -0.0586  0.0714
    1AU     AUC   50   3.969  -0.057   5.593  0.0363  0.0626  0.0360
    1AU     AUC   51   3.778   0.219   5.457 -0.0396 -0.0041  0.0155
    1AU     AUC   52   4.648  -0.127   4.733  0.0347  0.1138 -0.0000
    1AU     AUC   53   4.521   0.203   4.584  0.0654  0.0274  0.0552
    1AU     AUC   54   4.513   0.126   5.628  0.0224 -0.0557  0.0539
    1AU     AUC   55   4.348   0.433   5.494 -0.0484 -0.0297  0.0663
    1AU    AUSL   56   3.318   0.151   4.907  0.0195  0.0434  0.0662
    1AU    AUSL   57   3.330   0.287   5.387 -0.0324 -0.0057 -0.0449
    1AU     AUL   58   3.104   0.421   5.039 -0.0512  0.0339  0.0217
    1AU       S   59   3.202   0.584   5.488 -0.0428  0.2823 -0.0192
    1AU     LIG   60   2.746   0.848   5.470 -0.2150  0.0466  0.0139
    1AU     LIG   61   2.406   1.144   5.633  0.2455 -0.0949  0.0447
    1AU       S   62   2.976  -0.022   5.159  0.1023  0.0319  0.1661
    1AU     LIG   63   2.792   0.363   5.322  0.3035 -0.2208 -0.0752
    1AU     LIG   64   2.380   0.507   5.458 -0.0828  0.0989 -0.3103
    1AU    AUSL   65   3.451  -0.120   5.234  0.1417  0.0390  0.0352
    1AU    AUSL   66   3.484  -0.541   5.064 -0.0360 -0.1130  0.0141
    1AU     AUL   67   3.181  -0.478   5.090 -0.0361 -0.0619 -0.0395
    1AU       S   68   3.140  -0.124   5.377 -0.0476 -0.1090  0.4613
    1AU     LIG   69   2.978   0.012   5.671  0.1739  0.2831  0.0469
    1AU     LIG   70   2.634   0.195   5.814 -0.2925 -0.0256 -0.0736
    1AU       S   71   3.018  -0.567   5.527  0.0414 -0.1570  0.1330
    1AU     LIG   72   2.646  -0.376   5.560  0.2246  0.1742 -0.0377
    1AU     LIG   73   2.535  -0.102   5.351  0.2421 -0.0980  0.1153
    1AU    AUSL   74   3.576  -0.210   4.797  0.0299  0.0449 -0.0306
    1AU    AUSL   75   3.443   0.119   4.498  0.0346  0.0103  0.0416
    1AU     AUL   76   3.207  -0.116   4.721  0.0111  0.0033  0.0268
    1AU       S   77   3.317  -0.571   4.627 -0.0426 -0.1022 -0.0691
    1AU     LIG   78   3.057  -0.869   4.747  0.1965 -0.0339 -0.0333
    1AU     LIG   79   2.752  -1.221   4.869 -0.1381  0.1369 -0.2802
    1AU       S   80   3.235   0.029   4.262 -0.0619 -0.0794  0.0007
    1AU     LIG   81   2.965   0.251   4.601  0.0044  0.4468 -0.0509
    1AU     LIG   82   2.517   0.127   4.902 -0.1225  0.5779  0.0975
    1AU    AUSL   83   4.543   0.784   4.791 -0.0871 -0.0827  0.0302
    1AU    AUSL   84   4.759   0.528   4.447 -0.0282  0.0171 -0.0174
    1AU     AUL   85   4.799   0.859   4.603 -0.0425  0.1010  0.0171
    1AU       S   86   5.017   1.124   4.925  0.2299  0.0053 -0.1677
    1AU     LIG   87   5.452   1.024   4.768  0.0003 -0.4367 -0.4474
    1AU     LIG   88   5.870   0.961   4.908 -0.0427 -0.2131  0.2850
    1AU       S   89   4.813   0.776   4.119 -0.4132  0.2226 -0.0283
    1AU     LIG   90   5.122   1.090   4.148 -0.2229 -0.3821 -0.2179
    1AU     LIG   91   5.281   1.370   4.463 -0.1687 -0.1774 -0.0290
    1AU    AUSL   92   4.797   0.767   5.137 -0.0272 -0.0450 -0.0370
    1AU    AUSL   93   4.326   0.715   5.161 -0.0709  0.0261  0.0129
    1AU     AUL   94   4.594   1.021   5.046 -0.0772 -0.0330  0.0118
    1AU       S   95   4.538   1.207   5.488 -0.0069 -0.2141  0.2384
    1AU     LIG   96   4.509   1.646   5.593  0.0141  0.0247 -0.1031
    1AU     LIG   97   4.706   2.018   5.487  0.2350  0.2023 -0.2159
    1AU       S   98   5.018   0.954   5.311 -0.3110 -0.0774  0.1832
    1AU     LIG   99   5.434   1.086   5.318 -0.1174 -0.4091 -0.3004
    1AU     LIG  100   5.709   1.431   5.567 -0.1654 -0.1055 -0.0980
    1AU    AUSL  101   4.807   0.408   4.870 -0.0228 -0.0214 -0.0225
    1AU    AUSL  102   4.991   0.425   5.314 -0.0221 -0.0529  0.0030
    1AU     AUL  103   5.045   0.643   4.948 -0.0811 -0.0051 -0.1460
    1AU       S  104   5.283   0.516   5.348 -0.3644 -0.0612 -0.0301
    1AU     LIG  105   5.492   0.578   5.772 -0.0506  0.2235 -0.0044
    1AU     LIG  106   5.824   0.585   5.923 -0.2432 -0.2085 -0.1626
    1AU       S  107   5.000   1.229   5.144 -0.4142  0.4520  0.2891
    1AU     LIG  108   5.070   1.641   5.195 -0.3326  0.1352 -0.1314
    1AU     LIG  109   5.158   2.087   5.277 -0.0961  0.1800  0.4020
    1AU    AUSL  110   3.862  -0.631   5.264  0.0826  0.0105 -0.0205
    1AU    AUSL  111   3.812  -0.669   4.791  0.0221  0.0602  0.0472
    1AU     AUL  112   3.598  -0.839   5.004 -0.0298  0.0081  0.0857
    1AU       S  113   3.258  -0.854   5.360 -0.5087 -0.4626  0.0797
    1AU     LIG  114   2.991  -1.191   5.372 -0.2476 -0.2487 -0.1485
    1AU     LIG  115   2.830  -1.652   5.446  0.0705 -0.0093  0.4306
    1AU       S  116   3.913  -1.127   4.759  0.3702  0.1782 -0.1370
    1AU     LIG  117   3.943  -1.594   4.789  0.1578  0.3738 -0.1995
    1AU     LIG  118   3.545  -1.658   4.705 -0.0903 -0.0423  0.0638
    1AU    AUSL  119   3.515  -0.460   5.494  0.0004  0.1000  0.0371
    1AU    AUSL  120   3.924  -0.634   5.700 -0.0091 -0.0100  0.0454
    1AU     AUL  121   3.730  -0.821   5.479  0.0130 -0.0553  0.0420
    1AU       S  122   3.746  -0.727   5.951 -0.2944 -0.0167 -0.6611
    1AU     LIG  123   3.709  -1.119   5.839  0.3806  0.0994 -0.0591
    1AU     LIG  124   3.738  -1.476   6.099  0.1062  0.1179  0.1860
    1AU       S  125   3.300  -0.538   5.562 -0.7188 -0.1314  0.0412
    1AU     LIG  126   3.213  -0.334   5.995 -0.2463  0.0514  0.0947
    1AU     LIG  127   2.887  -0.117   6.123 -0.0638  0.0638 -0.4269
    1AU    AUSL  128   5.100  -0.006   5.314  0.0439 -0.0309  0.0199
    1AU    AUSL  129   4.762   0.206   5.588  0.0089  0.0655  0.0636
    1AU     AUL  130   5.128   0.195   5.631  0.0040 -0.0105 -0.0031
    1AU       S  131   5.467   0.319   5.296  0.1788  0.0860 -0.0586
    1AU     LIG  132   5.825   0.232   5.418  0.4498  0.3208  0.1211
    1AU     LIG  133   6.314   0.382   5.730  0.1967 -0.4791  0.5259
    1AU       S  134   5.204  -0.339   5.901  0.3496 -0.1387  0.1478
    1AU     LIG  135   5.147  -0.864   5.927  0.0375 -0.0079 -0.1063
    1AU     LIG  136   5.364  -1.339   5.882  0.3864  0.1429 -0.0935
    1AU    AUSL  137   5.180   0.194   4.937 -0.0176 -0.0174 -0.0461
    1AU    AUSL  138   5.082  -0.390   5.077 -0.0125 -0.1199  0.0705
    1AU     AUL  139   5.338  -0.101   5.138 -0.0839 -0.0234 -0.0087
    1AU       S  140   5.401  -0.534   4.998  0.2293 -0.3283 -0.2164
    1AU     LIG  141   5.781  -0.816   5.182 -0.0188 -0.4582  0.1847
    1AU     LIG  142   5.739  -1.095   5.565  0.1253  0.0097 -0.0016
    1AU       S  143   5.523   0.615   5.223  0.0615 -0.0832 -0.0557
    1AU     LIG  144   5.863   0.750   5.465 -0.3515  0.0743 -0.4995
    1AU     LIG  145   6.117   0.908   5.793 -0.0999 -0.4927 -0.0758
    1AU    AUSL  146   4.008   0.438   4.254 -0.0333  0.0496 -0.0223
    1AU    AUSL  147   4.371   0.721   4.392  0.0173 -0.0585  0.0308
    1AU     AUL  148   4.244   0.611   4.066 -0.0382  0.0198 -0.0800
    1AU       S  149   4.560   0.961   4.186 -0.1513 -0.0178 -0.4917
    1AU     LIG  150   4.780   1.313   4.433 -0.1197 -0.0406  0.1518
    1AU     LIG  151   4.778   1.549   4.810 -0.2832  0.3200  0.1423
    1AU       S  152   3.294   0.596   4.420  0.1009 -0.0670  0.2570
    1AU     LIG  153   2.827   0.691   4.413  0.1149  0.2477 -0.0534
    1AU     LIG  154   2.544   1.005   4.197 -0.2489  0.3754 -0.1440
    1AU    AUSL  155   4.097   0.612   4.700 -0.0091 -0.0373 -0.0851
    1AU    AUSL  156   3.719   0.778   4.847 -0.0415  0.0282  0.0734
    1AU     AUL  157   3.917   0.851   4.494  0.0764 -0.0775  0.0212
    1AU       S  158   3.475   0.769   4.440  0.4575 -0.0840  0.0886
    1AU     LIG  159   3.262   1.211   4.454 -0.0878 -0.1690  0.2438
    1AU     LIG  160   2.913   1.336   4.259 -0.0987  0.0752  0.4248
    1AU       S  161   3.641   1.053   4.844 -0.1474  0.0568  0.3131
    1AU     LIG  162   3.356   1.356   4.996 -0.3570  0.3269  0.0078
    1AU     LIG  163   2.887   1.574   4.878  0.0906 -0.4073  0.2533
    1AU    AUSL  164   3.732   0.410   4.618  0.0497  0.0271  0.0938
    1AU    AUSL  165   3.897   0.040   4.414  0.0866  0.0102  0.0746
    1AU     AUL  166   3.659   0.316   4.259 -0.0069 -0.1312 -0.0845
    1AU       S  167   3.078  -0.216   4.256  0.0906  0.1595 -0.2908
    1AU     LIG  168   2.921  -0.675   4.236  0.2599 -0.0597  0.1465
    1AU     LIG  169   2.842  -1.089   4.204 -0.3749  0.1446 -0.0114
    1AU       S  170   3.347   0.563   4.627  0.2374  0.1721 -0.0375
    1AU     LIG  171   3.063   0.848   4.830 -0.1262  0.0971  0.0401
    1AU     LIG  172   2.798   1.104   4.790  0.0637 -0.2836  0.0087
    1AU    AUSL  173   4.578  -0.738   4.845 -0.0904  0.0865  0.0617
    1AU    AUSL  174   4.142  -0.847   5.049 -0.0668  0.0687 -0.1126
    1AU     AUL  175   4.418  -1.149   4.871 -0.0576 -0.0718  0.0820
    1AU       S  176   3.986  -1.098   5.109 -0.5817 -0.1696  0.3988
    1AU     LIG  177   3.710  -1.394   5.255  0.0354  0.3356 -0.1820
    1AU     LIG  178   3.379  -1.733   5.191  0.0889 -0.0448 -0.1071
    1AU       S  179   4.686  -0.910   4.548 -0.1939  0.1042 -0.0166
    1AU     LIG  180   5.032  -1.006   4.398 -0.3197 -0.0046  0.1192
    1AU     LIG  181   5.377  -1.120   4.167  0.3057  0.2284 -0.1658
    1AU    AUSL  182   4.698  -0.526   5.202  0.0276  0.0012 -0.0346
    1AU    AUSL  183   4.871  -0.499   4.647  0.0666  0.0503 -0.1693
    1AU     AUL  184   4.963  -0.726   4.925 -0.0158  0.1476 -0.0104
    1AU       S  185   5.184  -0.593   5.459 -0.3459  0.0527 -0.0762
    1AU     LIG  186   5.249  -0.982   5.310  0.1021  0.0313 -0.0451
    1AU     LIG  187   5.500  -1.294   5.074  0.2618 -0.2366 -0.0882
    1AU       S  188   5.267  -0.601   4.539  0.1473 -0.1402  0.0778
    1AU     LIG  189   5.489  -0.918   4.738  0.0668 -0.1253 -0.2532
    1AU     LIG  190   5.628  -1.272   4.596  0.1283  0.2230 -0.2162
    1AU    AUSL  191   4.504  -0.923   5.266  0.0317  0.0203  0.0558
    1AU    AUSL  192   4.721  -0.658   5.612 -0.0204 -0.0237 -0.0254
    1AU     AUL  193   4.824  -0.864   5.394  0.0008 -0.0537  0.0196
    1AU       S  194   4.555  -0.945   5.791  0.4628  0.0066  0.1203
    1AU     LIG  195   4.902  -1.227   5.700 -0.0189  0.0232 -0.2372
    1AU     LIG  196   5.089  -1.498   5.441 -0.2467  0.1843 -0.0571
    1AU       S  197   4.485  -1.244   5.348 -0.2446  0.0531  0.0751
    1AU     LIG  198   4.191  -1.606   5.232  0.0662 -0.2986  0.4176
    1AU     LIG  199   3.854  -1.947   5.084  0.0049 -0.2753 -0.3054
    1AU    AUSL  200   3.880   0.767   5.261  0.0856  0.0831 -0.0851
    1AU    AUSL  201   3.608   0.424   5.083 -0.0293 -0.0167  0.0761
    1AU     AUL  202   3.483   0.708   5.091  0.0410  0.0648  0.0045
    1AU       S  203   3.736   1.122   5.198 -0.1182 -0.0969 -0.1173
    1AU     LIG  204   3.463   1.332   5.504 -0.1033  0.0112  0.0049
    1AU     LIG  205   3.408   1.320   5.965  0.0306 -0.1964 -0.1776
    1AU       S  206   3.319   0.762   5.644 -0.2962 -0.1072  0.0129
    1AU     LIG  207   3.409   0.827   6.087  0.4209 -0.1760 -0.0467
    1AU     LIG  208   3.508   1.119   6.445 -0.0365 -0.1115  0.1309
    1AU    AUSL  209   4.121   0.993   4.925  0.1332  0.0148  0.0605
    1AU    AUSL  210   4.161   0.854   5.586  0.0412  0.0172 -0.0425
    1AU     AUL  211   4.152   1.030   5.278  0.0031  0.0211 -0.0166
    1AU       S  212   3.882   1.228   4.876  0.0030  0.0849 -0.0765
    1AU     LIG  213   3.828   1.569   5.086  0.1071 -0.3400 -0.2183
    1AU     LIG  214   3.691   1.841   5.369  0.1707 -0.0545  0.1894
    1AU       S  215   4.368   1.149   5.690  0.0208 -0.2011 -0.1762
    1AU     LIG  216   4.022   1.452   5.558 -0.1923  0.1416 -0.0728
    1AU     LIG  217   3.850   1.693   5.886  0.0185  0.1963 -0.1230
    1AU    AUSL  218   4.436  -0.325   5.777 -0.1065  0.0202 -0.0786
    1AU    AUSL  219   4.858  -0.252   5.560  0.0607  0.0663 -0.0002
    1AU     AUL  220   4.732  -0.513   5.926 -0.0241  0.0783 -0.0147
    1AU       S  221   5.083  -0.236   5.761 -0.2235 -0.0931 -0.1314
    1AU     LIG  222   5.500  -0.097   5.606  0.0195 -0.1290  0.3256
    1AU     LIG  223   5.776  -0.295   5.280 -0.2477 -0.0678 -0.0011
    1AU       S  224   4.416  -1.044   5.829  0.1263  0.1063  0.0893
    1AU     LIG  225   4.131  -1.230   6.136 -0.0746  0.1725  0.0175
    1AU     LIG  226   4.188  -1.305   6.503 -0.2119 -0.2295 -0.0413
    1AU    AUSL  227   4.297  -0.630   5.502  0.0443  0.0605  0.0355
    1AU    AUSL  228   4.050  -0.291   5.980  0.0449 -0.0444  0.0748
    1AU     AUL  229   4.234  -0.601   5.955 -0.0160 -0.0080 -0.0228
    1AU       S  230   3.829  -0.539   6.184 -0.1434  0.3334  0.0267
    1AU     LIG  231   4.148  -0.743   6.436  0.0174  0.1481 -0.3037
    1AU     LIG  232   4.220  -0.887   6.809 -0.1570  0.1313 -0.1257
    1AU       S  233   4.319  -0.977   5.680 -0.2213 -0.0309 -0.1290
    1AU     LIG  234   4.070  -1.478   5.721  0.0822 -0.5550  0.3061
    1AU     LIG  235   3.748  -1.686   5.636  0.1443 -0.1053  0.0446
    1AU    AUSL  236   3.980  -0.408   4.479 -0.0288 -0.0815  0.0835
    1AU    AUSL  237   4.205  -0.781   4.622  0.0387  0.0654 -0.0204
    1AU     AUL  238   3.805  -0.725   4.469  0.0058 -0.0490 -0.0633
    1AU       S  239   4.165  -1.023   4.533 -0.0819 -0.3624  0.0815
    1AU     LIG  240   4.316  -1.402   4.458 -0.1103  0.0712 -0.1784
    1AU     LIG  241   4.705  -1.391   4.448  0.4966 -0.2106  0.3484
    1AU       S  242   4.016  -0.624   4.055 -0.1519  0.2497 -0.0267
    1AU     LIG  243   3.894  -1.026   4.151  0.1510 -0.0774 -0.1710
    1AU     LIG  244   3.866  -1.454   4.278 -0.3922 -0.3550 -0.4243
    1AU    AUSL  245   4.400  -0.550   4.322 -0.0904  0.0829  0.0228
    1AU    AUSL  246   4.567   0.003   4.146 -0.0029  0.0765 -0.0561
    1AU     AUL  247   4.605  -0.372   4.072  0.0470 -0.0360  0.0060
    1AU       S  248   4.100  -0.692   3.877 -0.1246  0.0081  0.0168
    1AU     LIG  249   4.091  -0.916   3.639  0.2264 -0.0570  0.1668
    1AU     LIG  250   4.472  -1.183   3.554 -0.1054  0.0116  0.1918
    1AU       S  251   4.911   0.011   3.936 -0.0509 -0.1033  0.0410
    1AU     LIG  252   4.913  -0.368   3.633  0.3601  0.1008  0.0614
    1AU     LIG  253   4.989  -0.661   4.015 -0.3552 -0.2440  0.4946
    1AU    AUSL  254   4.164  -0.170   4.158  0.0467  0.0610 -0.0110
    1AU    AUSL  255   3.573  -0.297   4.382  0.0128  0.0000  0.0978
    1AU     AUL  256   3.812  -0.191   4.151  0.0613  0.0579 -0.0222
    1AU       S  257   3.328  -0.291   4.208 -0.0895 -0.0266 -0.1260
    1AU     LIG  258   3.428  -0.735   4.176  0.1140  0.0092 -0.3277
    1AU     LIG  259   3.467  -1.151   4.534 -0.0424 -0.0409  0.2552
    1AU       S  260   4.160  -0.399   3.924  0.2953  0.0044 -0.3987
    1AU     LIG  261   4.550  -0.675   3.714  0.0566 -0.5446 -0.5408
    1AU     LIG  262   4.972  -0.879   3.433 -0.5220  0.1254 -0.2769
    1AU    AUSL  263   3.514   0.035   5.687 -0.0936 -0.1045 -0.0995
    1AU    AUSL  264   3.736   0.442   5.513 -0.0257  0.0563 -0.0587
    1AU     AUL  265   3.467   0.325   5.789  0.0628  0.0627  0.0219
    1AU       S  266   3.547  -0.062   6.298 -0.0806 -0.4507  0.0577
    1AU     LIG  267   3.171   0.252   6.314 -0.1859 -0.0441  0.0747
    1AU     LIG  268   3.195   0.652   6.547 -0.1923 -0.0766 -0.0657
    1AU       S  269   3.482   0.711   5.568 -0.3198  0.1252 -0.5262
    1AU     LIG  270   3.770   1.050   5.756 -0.4079 -0.0530 -0.1573
    1AU     LIG  271   3.865   1.272   6.131  0.0179  0.1024  0.4451
    1AU    AUSL  272   3.901   0.108   5.906 -0.0312  0.0017 -0.0577
    1AU    AUSL  273   3.843  -0.204   5.577  0.0389  0.0302  0.0524
    1AU     AUL  274   3.681  -0.216   5.910 -0.0750  0.0278  0.0564
    1AU       S  275   3.732   0.139   6.226 -0.0545  0.3899  0.0531
    1AU     LIG  276   3.695   0.556   6.405 -0.1026  0.3234 -0.5117
    1AU     LIG  277   3.934   0.888   6.399 -0.2909  0.0797 -0.0716
    1AU       S  278   3.601  -0.637   6.138  0.1645  0.1007  0.3212
    1AU     LIG  279   3.615  -0.625   6.644 -0.2284 -0.1539  0.0590
    1AU     LIG  280   3.349  -0.805   6.935  0.0849  0.2182  0.2671
    1AU    AUSL  281   3.882   0.559   5.891 -0.0082 -0.0446 -0.0424
    1AU    AUSL  282   4.329   0.091   5.957  0.0972 -0.0456 -0.0236
    1AU     AUL  283   4.113   0.377   6.114  0.0006 -0.0065  0.0712
    1AU       S  284   4.372  -0.001   6.289  0.0324 -0.2244 -0.0693
    1AU     LIG  285   4.695   0.311   6.511  0.0870  0.3245  0.1109
    1AU     LIG  286   4.901   0.494   6.781 -0.0436  0.1234  0.0427
    1AU       S  287   3.738  -0.113   6.441 -0.0400  0.1032 -0.6624
    1AU     LIG  288   3.768  -0.154   6.847 -0.2488 -0.1324 -0.0490
    1AU     LIG  289   3.565  -0.355   7.185 -0.0599  0.2136 -0.1550
    1AU    AUSL  290   4.883   0.096   4.441 -0.0899  0.0381 -0.0477
    1AU    AUSL  291   4.365   0.267   4.432  0.0057 -0.0062  0.0722
    1AU     AUL  292   4.680   0.347   4.176 -0.0164  0.0354 -0.0249
    1AU       S  293   5.110   0.143   4.190 -0.0618 -0.4435 -0.0839
    1AU     LIG  294   5.492   0.202   4.339 -0.0488  0.3000  0.3506
    1AU     LIG  295   5.932   0.312   4.426  0.2709 -0.0739 -0.0117
    1AU       S  296   4.656   0.979   3.991  0.0087 -0.4424  0.1997
    1AU     LIG  297   4.733   1.367   3.944 -0.0161 -0.2701 -0.5443
    1AU     LIG  298   4.926   1.665   4.061  0.0737  0.2777 -0.4725
    1AU    AUSL  299   4.567  -0.224   4.537 -0.0258  0.0582 -0.0120
    1AU    AUSL  300   4.890  -0.099   4.828 -0.0168 -0.1402 -0.1279
    1AU     AUL  301   4.942  -0.245   4.427 -0.0668 -0.0199  0.0174
    1AU       S  302   5.188   0.106   3.973  0.0168  0.1873  0.2047
    1AU     LIG  303   5.354  -0.259   3.744 -0.0703 -0.1395  0.0120
    1AU     LIG  304   5.665  -0.473   3.549  0.0338  0.2081 -0.2060
    1AU       S  305   5.312  -0.216   4.684 -0.2689  0.0898 -0.0196
    1AU     LIG  306   5.697  -0.019   4.846  0.0194 -0.3448 -0.1566
    1AU     LIG  307   6.114  -0.071   4.604 -0.2185  0.0275 -0.0268
    1AU    AUSL  308   4.563   0.460   5.878 -0.0242  0.0508 -0.0065
    1AU    AUSL  309   4.724  -0.045   5.939 -0.0129 -0.0661  0.0686
    1AU     AUL  310   4.703   0.244   6.040  0.0490 -0.0048 -0.0513
    1AU       S  311   5.008  -0.148   6.032 -0.2301  0.1455 -0.1979
    1AU     LIG  312   5.207   0.193   6.076 -0.0185  0.0629 -0.0195
    1AU     LIG  313   5.622   0.157   6.035  0.3634 -0.2251 -0.2700
    1AU       S  314   4.432  -0.261   6.279  0.0170 -0.1257 -0.3478
    1AU     LIG  315   4.227  -0.306   6.729  0.1065  0.1599 -0.1025
    1AU     LIG  316   4.121  -0.020   7.208  0.1792  0.2732 -0.4179
    1AU    AUSL  317   4.195   0.427   5.627  0.0263  0.0383 -0.0551
    1AU    AUSL  318   4.599   0.653   5.508 -0.0240 -0.0741 -0.0238
    1AU     AUL  319   4.375   0.708   5.853  0.0500  0.0462 -0.0414
    1AU       S  320   4.640  -0.215   6.426 -0.2793 -0.2731 -0.2082
    1AU     LIG  321   5.116   0.007   6.581 -0.0804 -0.1535 -0.2868
    1AU     LIG  322   5.293   0.357   6.499  0.0625  0.0274 -0.2672
    1AU       S  323   4.612   1.004   5.539 -0.0304 -0.2584  0.1157
    1AU     LIG  324   4.738   0.994   5.938  0.3568  0.2005 -0.4255
    1AU     LIG  325   4.844   0.721   6.338  0.0440  0.3114  0.0534
    2POPC   NC3  326   1.395   2.640   7.281 -0.0228  0.5611  0.2134
    2POPC   PO4  327   0.959   2.554   7.286  0.3860 -0.1466  0.0537
    2POPC   GL1  328   0.961   2.452   6.834 -0.0583  0.0068 -0.1494
    2POPC   GL2  329   0.910   2.125   6.777 -0.1482  0.2748 -0.2627
    2POPC   C1A  330   1.138   2.611   6.404  0.1760  0.0744  0.0311
    2POPC   D2A  331   1.002   2.715   6.052 -0.0910 -0.0998 -0.2389
    2POPC   C3A  332   1.044   3.151   5.828  0.0648 -0.2529 -0.1280
    2POPC   C4A  333   1.250   3.561   5.573 -0.1484  0.0244 -0.0673
    2POPC   C1B  334   1.269   1.794   6.674 -0.0469  0.1173 -0.0424
    2POPC   C2B  335   1.688   1.866   6.393  0.2748 -0.0388  0.0075
    2POPC   C3B  336   1.968   1.948   6.033  0.0733  0.2876  0.0117
    2POPC   C4B  337   2.273   1.777   5.846 -0.2028  0.1655  0.0007
    3POPC   NC3  338   5.629   1.401   7.717 -0.1060 -0.2984  0.1332
    3POPC   PO4  339   5.823   1.677   7.397  0.3806 -0.0985  0.0999
    3POPC   GL1  340   5.715   1.393   7.083 -0.3945 -0.1888 -0.3340
    3POPC   GL2  341   5.614   1.576   6.772  0.2520  0.3174  0.1024
    3POPC   C1A  342   5.677   1.083   6.827  0.0187  0.0420 -0.1630
    3POPC   D2A  343   5.255   0.891   6.664 -0.0244 -0.1319 -0.0457
    3POPC   C3A  344   5.317   0.873   6.142 -0.3320  0.0899 -0.3133
    3POPC   C4A  345   5.614   1.053   5.901  0.0277 -0.1734  0.1270
    3POPC   C1B  346   5.352   1.356   6.489 -0.0051  0.0054 -0.1235
    3POPC   C2B  347   4.978   1.222   6.347 -0.1288  0.0175  0.2114
    3POPC   C3B  348   4.740   1.450   6.028 -0.1500  0.3516 -0.4912
    3POPC   C4B  349   4.301   1.473   6.011  0.2079 -0.0170  0.2517
    4POPC   NC3  350   5.432   7.325   7.370 -0.5794  0.0443  0.1406
    4POPC   PO4  351   5.796   7.653   7.223  0.6214  0.0622  0.1275
    4POPC   GL1  352   5.753   7.331   6.848  0.0069 -0.1924  0.1875
    4POPC   GL2  353   5.506   7.119   6.882  0.3993 -0.2539  0.1822
    4POPC   C1A  354   5.777   7.156   6.453  0.3055  0.2086  0.0011
    4POPC   D2A  355   5.896   6.972   5.991  0.2662  0.1035  0.1186
    4POPC   C3A  356   5.994   7.290   5.733  0.5799 -0.2353 -0.0713
    4POPC   C4A  357   6.004   7.631   5.445 -0.1039  0.0177 -0.3506
    4POPC   C1B  358   5.345   7.442   6.588  0.0730 -0.0737 -0.0606
    4POPC   C2B  359   5.040   7.426   6.203  0.0014 -0.3412 -0.2882
    4POPC   C3B  360   5.048   7.527   5.793 -0.1323  0.0814 -0.0429
    4POPC   C4B  361   5.012   7.775   5.327  0.0628  0.0268 -0.0732
    5POPC   NC3  362   7.633   6.143   7.064 -0.1236  0.0194  0.0595
    5POPC   PO4  363   7.295   5.909   7.088  0.1748 -0.3603 -0.3599
    5POPC   GL1  364   7.213   5.856   6.629 -0.2757  0.2378 -0.0290
    5POPC   GL2  365   6.920   5.544   6.624 -0.0706 -0.2411 -0.1910
    5POPC   C1A  366   7.098   5.871   6.155  0.1243 -0.1884 -0.2118
    5POPC   D2A  367   6.998   6.195   5.804  0.1358 -0.2279  0.0372
    5POPC   C3A  368   7.269   6.356   5.475 -0.0406  0.1930 -0.1707
    5POPC   C4A  369   7.594   6.564   5.173 -0.2244  0.0641 -0.1250
    5POPC   C1B  370   6.728   5.580   6.210 -0.3453 -0.2922 -0.0591
    5POPC   C2B  371   6.766   5.665   5.832  0.1900 -0.1361  0.0122
    5POPC   C3B  372   6.845   5.834   5.456 -0.5381  0.3368 -0.1555
    5POPC   C4B  373   7.077   6.029   5.163  0.2286 -0.0549  0.0809
    6POPC   NC3  374   3.776   7.735   7.776  0.1264 -0.2099 -0.0057
    6POPC   PO4  375   3.764   7.384   7.492 -0.2093  0.1961 -0.2660
    6POPC   GL1  376   3.652   7.363   7.043 -0.1041 -0.0003  0.1093
    6POPC   GL2  377   3.261   7.431   6.957  0.2252 -0.1826 -0.1876
    6POPC   C1A  378   3.705   7.373   6.626 -0.0693 -0.1438  0.1260
    6POPC   D2A  379   3.729   7.630   6.300  0.0542  0.1363  0.1879
    6POPC   C3A  380   4.023   7.808   6.059 -0.0771 -0.0488  0.0285
    6POPC   C4A  381   4.366   8.019   5.933  0.0434 -0.1358  0.4464
    6POPC   C1B  382   3.215   7.667   6.551 -0.1743 -0.1807  0.2664
    6POPC   C2B  383   3.307   7.998   6.223 -0.1062  0.1811  0.0093
    6POPC   C3B  384   2.905   8.232   6.016 -0.2319 -0.2294  0.3148
    6POPC   C4B  385   2.810   8.593   5.792 -0.0012  0.1346  0.0202
    7POPC   NC3  386   5.591   0.442   7.955 -0.4800  0.1205  0.1024
    7POPC   PO4  387   5.545   0.924   7.816  0.1339 -0.2741 -0.2587
    7POPC   GL1  388   5.183   1.036   7.671  0.0869  0.2167  0.1769
    7POPC   GL2  389   5.301   1.062   7.348 -0.0233  0.1300  0.0350
    7POPC   C1A  390   4.732   1.178   7.727  0.0985 -0.0124 -0.0524
    7POPC   D2A  391   4.384   1.099   7.579  0.2358 -0.0580  0.2015
    7POPC   C3A  392   3.948   1.025   7.781 -0.1273 -0.4351 -0.0141
    7POPC   C4A  393   3.544   1.083   7.744 -0.3830  0.1531 -0.0147
    7POPC   C1B  394   4.978   0.841   7.171  0.1083  0.0517  0.0407
    7POPC   C2B  395   4.631   0.758   7.158 -0.0776  0.1796  0.4250
    7POPC   C3B  396   4.254   0.648   7.235 -0.0134  0.2839 -0.1564
    7POPC   C4B  397   3.851   0.856   7.313 -0.0950  0.3201 -0.0152
    8POPC   NC3  398   0.484   9.468   6.868  0.2240  0.2567 -0.1749
    8POPC   PO4  399   0.411   9.018   6.750 -0.0650 -0.0111  0.0434
    8POPC   GL1  400   0.334   8.927   6.451 -0.1915  0.2563 -0.0499
    8POPC   GL2  401   0.585   8.610   6.443 -0.0430  0.1447 -0.1106
    8POPC   C1A  402   0.441   9.075   5.975  0.2077  0.0805 -0.1772
    8POPC   D2A  403   0.194   9.019   5.576 -0.1561  0.3208 -0.0683
    8POPC   C3A  404   0.121   8.529   5.480  0.0461 -0.1100  0.1564
    8POPC   C4A  405  -0.176   8.140   5.518  0.1207  0.0626 -0.1677
    8POPC   C1B  406   0.588   8.244   6.179 -0.3317 -0.1737 -0.0484
    8POPC   C2B  407   0.639   7.855   6.029 -0.0451 -0.1528 -0.2334
    8POPC   C3B  408   0.885   7.399   5.958 -0.0182 -0.3160  0.0852
    8POPC   C4B  409   0.817   7.094   5.675 -0.1103 -0.0274  0.1647
    9POPC   NC3  410   5.711   5.499   7.368  0.3633 -0.2713  0.1018
    9POPC   PO4  411   5.215   5.489   7.378  0.0588  0.0462 -0.0999
    9POPC   GL1  412   5.240   5.305   7.135 -0.1828 -0.0941  0.1323
    9POPC   GL2  413   5.441   5.189   6.898  0.0175  0.2074 -0.0603
    9POPC   C1A  414   4.990   5.027   6.802  0.0912 -0.1315 -0.1180
    9POPC   D2A  415   4.990   5.001   6.475  0.2084  0.0686  0.0886
    9POPC   C3A  416   4.959   5.325   6.134 -0.0683 -0.1343 -0.0762
    9POPC   C4A  417   5.050   5.677   5.840 -0.1484  0.2779  0.0530
    9POPC   C1B  418   5.289   5.437   6.621  0.1210 -0.2677 -0.0920
    9POPC   C2B  419   5.206   5.720   6.371  0.2114 -0.0598 -0.1838
    9POPC   C3B  420   4.917   6.029   6.260  0.1207 -0.0158  0.2846
    9POPC   C4B  421   5.023   6.514   6.279  0.3518 -0.1678  0.0402
   10POPC   NC3  422   7.396   7.009   7.390  0.0901 -0.0059  0.0498
   10POPC   PO4  423   7.304   7.214   7.007 -0.1192 -0.1834  0.0796
   10POPC   GL1  424   7.562   7.192   6.666 -0.3830  0.0756  0.0216
   10POPC   GL2  425   7.892   7.310   6.623  0.1258 -0.1478  0.1778
   10POPC   C1A  426   7.646   6.849   6.411  0.0608 -0.1513  0.1157
   10POPC   D2A  427   7.797   6.710   5.987  0.0736 -0.0526 -0.1971
   10POPC   C3A  428   7.675   6.864   5.564 -0.2061 -0.0035 -0.0149
   10POPC   C4A  429   7.589   7.088   5.044 -0.2607  0.3437  0.1293
   10POPC   C1B  430   7.987   7.123   6.244 -0.2121  0.1541  0.1656
   10POPC   C2B  431   7.975   7.174   5.837 -0.2700  0.1223  0.1741
   10POPC   C3B  432   8.317   7.336   5.488  0.2175 -0.0532 -0.1928
   10POPC   C4B  433   8.582   7.784   5.243  0.0421 -0.3017 -0.0172
   11POPC   NC3  434  10.660   4.762   7.701  0.0612  0.0462  0.1144
   11POPC   PO4  435  10.853   4.649   7.219  0.0328  0.2295  0.1504
   11POPC   GL1  436  10.865   4.531   6.799 -0.2253  0.0781 -0.1776
   11POPC   GL2  437  10.694   4.268   6.777  0.0691 -0.0152 -0.4397
   11POPC   C1A  438  10.795   4.408   6.276  0.0415  0.2387 -0.0653
   11POPC   D2A  439  10.748   4.585   5.952 -0.0082 -0.1703  0.3020
   11POPC   C3A  440  10.445   4.855   6.082 -0.1436  0.1870  0.3070
   11POPC   C4A  441  10.365   5.136   6.419 -0.1848  0.3343 -0.1756
   11POPC   C1B  442  10.431   4.494   6.589  0.1343  0.2268 -0.1499
   11POPC   C2B  443  10.046   4.646   6.329 -0.1451 -0.2618  0.2538
   11POPC   C3B  444   9.996   4.512   5.995  0.1851 -0.1046 -0.1442
   11POPC   C4B  445  10.212   4.544   5.603 -0.0155 -0.1799 -0.1397
   12POPC   NC3  446   1.770   7.108   7.417  0.1859  0.0156 -0.0526
   12POPC   PO4  447   2.125   7.325   7.408  0.2319 -0.0933  0.1571
   12POPC   GL1  448   2.065   7.157   6.977 -0.2496  0.1279 -0.1865
   12POPC   GL2  449   2.341   7.045   7.001  0.0541 -0.1026 -0.0229
   12POPC   C1A  450   2.149   7.290   6.643  0.1052  0.0373  0.3471
   12POPC   D2A  451   2.354   7.584   6.452 -0.1744 -0.0569 -0.0082
   12POPC   C3A  452   2.504   8.061   6.414 -0.1351 -0.1800 -0.3115
   12POPC   C4A  453   2.900   8.210   6.516 -0.1903  0.0229  0.1725
   12POPC   C1B  454   2.647   7.223   6.713  0.2567 -0.0695 -0.2499
   12POPC   C2B  455   2.812   7.210   6.318  0.0263 -0.1563 -0.2137
   12POPC   C3B  456   2.661   7.209   5.925 -0.0609 -0.1631  0.0204
   12POPC   C4B  457   2.667   7.224   5.463  0.0260 -0.0825  0.3477
   13POPC   NC3  458   3.762   0.006   8.652  0.3994  0.0068  0.1851
   13POPC   PO4  459   3.864   0.137   8.304 -0.1158 -0.0298 -0.1746
   13POPC   GL1  460   3.964  -0.057   7.948  0.1194  0.1253 -0.0835
   13POPC   GL2  461   4.205   0.128   7.886 -0.0871  0.0780  0.1911
   13POPC   C1A  462   4.040  -0.288   7.597 -0.1751 -0.2643 -0.1638
   13POPC   D2A  463   4.115  -0.501   7.207 -0.1781  0.0523  0.2270
   13POPC   C3A  464   4.509  -0.570   7.222  0.0617 -0.0073 -0.0936
   13POPC   C4A  465   4.735  -0.663   6.890  0.0170 -0.2396  0.1821
   13POPC   C1B  466   3.959   0.357   7.541 -0.0888  0.0617  0.1773
   13POPC   C2B  467   3.799   0.348   7.103  0.2032 -0.2028 -0.3889
   13POPC   C3B  468   4.019   0.613   6.800  0.0108 -0.0266 -0.0752
   13POPC   C4B  469   4.343   0.684   6.687 -0.2186  0.1289 -0.2203
   14POPC   NC3  470   3.177   5.266   7.371  0.0815 -0.0635 -0.0925
   14POPC   PO4  471   2.960   4.927   7.178 -0.1159 -0.1068 -0.3345
   14POPC   GL1  472   2.989   4.825   6.790 -0.0244 -0.3102  0.2815
   14POPC   GL2  473   2.804   4.545   6.668 -0.4106 -0.0912  0.1266
   14POPC   C1A  474   3.258   5.017   6.385 -0.3028 -0.0355  0.0682
   14POPC   D2A  475   3.214   5.202   5.960  0.4349  0.0731  0.1667
   14POPC   C3A  476   3.129   5.414   5.541  0.3151 -0.0406 -0.1358
   14POPC   C4A  477   2.795   5.635   5.402  0.0189  0.2064  0.2307
   14POPC   C1B  478   2.657   4.245   6.291 -0.0388 -0.0145 -0.1384
   14POPC   C2B  479   2.818   3.974   5.887  0.0753 -0.1691  0.0129
   14POPC   C3B  480   3.256   3.836   5.701  0.1484  0.2539  0.1579
   14POPC   C4B  481   3.658   3.488   5.579 -0.0879  0.0883 -0.2629
   15POPC   NC3  482   6.479   2.337   7.190  0.0146  0.1118  0.1517
   15POPC   PO4  483   6.613   2.689   7.073  0.2221  0.1575  0.1380
   15POPC   GL1  484   6.377   2.810   6.800 -0.1107 -0.1973 -0.0869
   15POPC   GL2  485   6.376   3.101   6.709  0.2440  0.4213 -0.0663
   15POPC   C1A  486   6.234   2.512   6.394 -0.1535  0.1182 -0.1357
   15POPC   D2A  487   5.932   2.313   6.221  0.1359 -0.3719  0.1461
   15POPC   C3A  488   5.661   2.473   5.765  0.0478 -0.0504 -0.1891
   15POPC   C4A  489   5.562   2.782   5.454 -0.0495 -0.1400  0.3622
   15POPC   C1B  490   6.724   3.021   6.466 -0.1320 -0.0620  0.0842
   15POPC   C2B  491   7.111   3.100   6.192 -0.2126  0.0628 -0.2827
   15POPC   C3B  492   7.551   3.109   5.958 -0.0191  0.2150  0.2397
   15POPC   C4B  493   7.669   3.193   5.505  0.0512 -0.1538  0.1987
   16POPC   NC3  494   8.988   2.418   7.089 -0.2625 -0.1311  0.2068
   16POPC   PO4  495   8.861   2.022   7.165 -0.1067  0.3803 -0.0100
   16POPC   GL1  496   8.540   1.741   6.843  0.1865 -0.0558 -0.0887
   16POPC   GL2  497   8.200   1.670   6.798  0.0405  0.1288  0.1675
   16POPC   C1A  498   8.522   1.628   6.398  0.1450 -0.0105 -0.0168
   16POPC   D2A  499   8.371   1.698   6.003 -0.0421  0.2465  0.1395
   16POPC   C3A  500   8.219   1.317   5.861 -0.1062 -0.1476  0.2222
   16POPC   C4A  501   7.950   1.152   5.568 -0.1192 -0.1229  0.3594
   16POPC   C1B  502   8.020   1.499   6.321 -0.2392  0.1106 -0.1386
   16POPC   C2B  503   7.794   1.543   5.997 -0.1955  0.0702 -0.0052
   16POPC   C3B  504   7.881   1.704   5.595  0.1078 -0.1674 -0.1658
   16POPC   C4B  505   7.777   1.735   5.147 -0.2540 -0.0916 -0.2273
   17POPC   NC3  506   9.790   0.510   6.927  0.1409 -0.1517 -0.0502
   17POPC   PO4  507   9.911   0.055   7.022  0.0866 -0.2401  0.2231
   17POPC   GL1  508   9.669   0.084   6.699 -0.0168  0.0593 -0.0145
   17POPC   GL2  509   9.913   0.110   6.413 -0.0709  0.2711 -0.0650
   17POPC   C1A  510   9.459   0.234   6.323  0.1808  0.2908  0.1710
   17POPC   D2A  511   9.545   0.661   6.307  0.0230 -0.0881  0.1590
   17POPC   C3A  512   9.798   1.040   6.049  0.3287 -0.2249  0.3280
   17POPC   C4A  513   9.881   1.087   5.541 -0.1006 -0.1773 -0.2114
   17POPC   C1B  514  10.085  -0.050   6.019  0.2386 -0.0173 -0.1583
   17POPC   C2B  515  10.230  -0.071   5.584 -0.1305 -0.0172 -0.0301
   17POPC   C3B  516  10.209   0.255   5.145 -0.0047 -0.2734 -0.0952
   17POPC   C4B  517  10.490   0.675   5.113  0.1023  0.4609  0.4108
   18POPC   NC3  518   4.770   2.099   7.665 -0.2049  0.2414 -0.3443
   18POPC   PO4  519   5.113   2.323   7.579  0.1116  0.1205  0.0491
   18POPC   GL1  520   4.977   2.197   7.148 -0.1449 -0.0013  0.1074
   18POPC   GL2  521   4.582   2.116   7.135 -0.2247  0.0486 -0.2976
   18POPC   C1A  522   4.834   2.238   6.693 -0.0620 -0.2551  0.0395
   18POPC   D2A  523   4.460   2.105   6.543 -0.1342 -0.2491 -0.0425
   18POPC   C3A  524   4.207   2.297   6.210  0.3417 -0.1228  0.1877
   18POPC   C4A  525   3.858   2.458   5.961  0.0730 -0.1344  0.1393
   18POPC   C1B  526   4.733   1.810   6.940  0.1918  0.2158  0.1162
   18POPC   C2B  527   4.769   1.607   6.662 -0.1703  0.0097 -0.3171
   18POPC   C3B  528   4.569   1.420   6.520 -0.0567 -0.1788 -0.0541
   18POPC   C4B  529   4.411   1.040   6.343  0.0110  0.1956 -0.0775
   19POPC   NC3  530   0.772   6.723   6.908  0.3707 -0.2787  0.1378
   19POPC   PO4  531   0.441   7.000   7.025 -0.3016 -0.1801 -0.2008
   19POPC   GL1  532   0.326   6.942   6.642 -0.1538 -0.0239 -0.1096
   19POPC   GL2  533   0.077   7.131   6.772 -0.0619 -0.2919  0.1147
   19POPC   C1A  534   0.296   6.646   6.346 -0.3819  0.0525 -0.2351
   19POPC   D2A  535  -0.102   6.660   6.091 -0.0922 -0.3203 -0.1875
   19POPC   C3A  536  -0.076   6.906   5.730  0.0144 -0.1261 -0.4255
   19POPC   C4A  537   0.266   7.125   5.541  0.1058 -0.1419  0.2365
   19POPC   C1B  538   0.106   7.093   6.264  0.2416 -0.0031 -0.1092
   19POPC   C2B  539   0.379   6.851   5.942 -0.1800  0.1337 -0.0413
   19POPC   C3B  540   0.433   6.617   5.592 -0.0626  0.0023  0.1274
   19POPC   C4B  541   0.278   6.354   5.255  0.0444  0.0436 -0.0760
   20POPC   NC3  542   6.268   1.517   7.428  0.3583 -0.3549 -0.0343
   20POPC   PO4  543   6.601   1.852   7.247 -0.0985  0.2698 -0.1272
   20POPC   GL1  544   6.537   1.792   6.763  0.3776 -0.1505  0.0160
   20POPC   GL2  545   6.338   1.930   6.515  0.2232  0.0656 -0.0641
   20POPC   C1A  546   6.315   1.438   6.629  0.0404  0.0825 -0.2237
   20POPC   D2A  547   5.933   1.314   6.364 -0.0825 -0.2126 -0.1015
   20POPC   C3A  548   5.980   1.491   6.012  0.3387  0.0015 -0.1488
   20POPC   C4A  549   6.278   1.412   5.595 -0.1346  0.2518  0.0810
   20POPC   C1B  550   6.185   1.951   6.128 -0.2176 -0.2178 -0.2965
   20POPC   C2B  551   6.186   1.879   5.665  0.2215 -0.3002  0.1543
   20POPC   C3B  552   6.055   1.800   5.321 -0.0828  0.4500  0.0528
   20POPC   C4B  553   6.038   1.397   5.125  0.0760 -0.0128 -0.1072
   21POPC   NC3  554   7.127   5.452   7.094 -0.2130  0.3172 -0.0671
   21POPC   PO4  555   6.793   5.710   7.201 -0.2926 -0.0257  0.0951
   21POPC   GL1  556   6.540   5.506   6.962 -0.0121  0.0484  0.0266
   21POPC   GL2  557   6.701   5.228   6.956 -0.1667 -0.0606 -0.1018
   21POPC   C1A  558   6.341   5.612   6.556 -0.1292  0.4076  0.3915
   21POPC   D2A  559   6.280   5.840   6.160 -0.0160  0.0942  0.2224
   21POPC   C3A  560   6.414   6.050   5.708  0.1829 -0.2658  0.1243
   21POPC   C4A  561   6.665   6.297   5.359 -0.0092  0.3818 -0.0761
   21POPC   C1B  562   6.556   5.126   6.520  0.0151  0.2879 -0.2060
   21POPC   C2B  563   6.289   4.924   6.185  0.1164 -0.0960 -0.1518
   21POPC   C3B  564   5.797   4.887   5.945 -0.1463  0.2547  0.1157
   21POPC   C4B  565   5.632   4.869   5.511  0.1686  0.0562  0.1263
   22POPC   NC3  566   9.192   6.207   6.920 -0.3165 -0.2878  0.1637
   22POPC   PO4  567   8.936   5.913   6.924  0.0162  0.2089  0.1848
   22POPC   GL1  568   9.019   5.959   6.491  0.0525 -0.3110  0.2837
   22POPC   GL2  569   9.329   6.105   6.418 -0.2177  0.0396 -0.1188
   22POPC   C1A  570   8.870   5.971   6.093  0.2749 -0.0785 -0.1275
   22POPC   D2A  571   8.890   6.154   5.644  0.0360 -0.0717  0.0857
   22POPC   C3A  572   9.202   5.847   5.368  0.2384 -0.0063  0.0751
   22POPC   C4A  573   9.498   6.138   5.252 -0.1179 -0.0308 -0.1020
   22POPC   C1B  574   9.646   5.776   6.258 -0.1157 -0.1720  0.1724
   22POPC   C2B  575   9.889   6.074   5.885 -0.1932  0.1029  0.1238
   22POPC   C3B  576   9.995   6.271   5.559 -0.1114  0.1144 -0.0303
   22POPC   C4B  577   9.812   6.698   5.318  0.1048  0.0490 -0.1744
   23POPC   NC3  578   0.063   8.095   7.060  0.2049  0.0039 -0.0976
   23POPC   PO4  579   0.507   8.177   7.102 -0.0066 -0.1016  0.2772
   23POPC   GL1  580   0.461   8.090   6.688  0.4120  0.1327  0.0443
   23POPC   GL2  581   0.809   8.056   6.633 -0.0660 -0.0953 -0.0035
   23POPC   C1A  582   0.201   7.965   6.350 -0.2221  0.0200  0.2956
   23POPC   D2A  583  -0.151   7.905   5.987 -0.0584 -0.2035 -0.0313
   23POPC   C3A  584  -0.443   7.653   5.596 -0.0088  0.3647 -0.3034
   23POPC   C4A  585  -0.819   7.652   5.347  0.1968 -0.2373  0.3336
   23POPC   C1B  586   1.072   8.070   6.283  0.0194  0.2944 -0.1536
   23POPC   C2B  587   0.973   8.214   5.905  0.0573  0.0837  0.1321
   23POPC   C3B  588   0.768   8.318   5.536  0.2724  0.0239  0.0242
   23POPC   C4B  589   0.533   8.405   5.213 -0.0374 -0.0453  0.0369
   24POPC   NC3  590   9.058   8.504   7.320  0.1291 -0.0092 -0.0925
   24POPC   PO4  591   8.858   8.714   6.891 -0.0297  0.5265  0.0769
   24POPC   GL1  592   8.746   8.996   6.556  0.0683  0.1079  0.1771
   24POPC   GL2  593   8.523   9.152   6.382  0.0031 -0.1506  0.1834
   24POPC   C1A  594   8.875   8.843   6.160 -0.2534 -0.0696  0.3333
   24POPC   D2A  595   8.763   8.678   5.711 -0.2304  0.1337  0.1369
   24POPC   C3A  596   8.848   8.728   5.295 -0.0561  0.0016  0.1462
   24POPC   C4A  597   9.267   8.616   5.116 -0.1195  0.2668  0.1341
   24POPC   C1B  598   8.592   9.302   6.092  0.0838 -0.2176  0.1307
   24POPC   C2B  599   8.825   9.282   5.712 -0.1331  0.1907  0.0907
   24POPC   C3B  600   9.112   9.025   5.600  0.0397  0.2317 -0.1406
   24POPC   C4B  601   9.338   8.951   5.862  0.2054  0.1747  0.0818
   25POPC   NC3  602   8.019   7.541   7.074 -0.2163  0.2779  0.1677
   25POPC   PO4  603   8.304   7.241   6.865 -0.2528  0.1671 -0.3631
   25POPC   GL1  604   8.397   7.264   6.547  0.1551 -0.0239 -0.0915
   25POPC   GL2  605   8.557   7.083   6.332 -0.0503 -0.3159 -0.1113
   25POPC   C1A  606   8.318   7.507   6.133  0.0323 -0.0206  0.0202
   25POPC   D2A  607   8.408   7.753   5.789  0.1173  0.1449  0.2495
   25POPC   C3A  608   8.742   7.586   5.862 -0.1529 -0.1361  0.0404
   25POPC   C4A  609   9.160   7.443   5.808  0.1982 -0.0842 -0.2086
   25POPC   C1B  610   8.548   7.100   5.861  0.2120  0.0512  0.4200
   25POPC   C2B  611   8.768   7.063   5.591 -0.0394 -0.1113 -0.1626
   25POPC   C3B  612   8.835   7.296   5.360  0.0687 -0.1093 -0.0510
   25POPC   C4B  613   9.053   7.687   5.295 -0.2856  0.2160  0.0394
   26POPC   NC3  614   6.730   3.673   7.463 -0.0076  0.1033  0.1600
   26POPC   PO4  615   6.507   3.416   7.147 -0.1541  0.0973 -0.1070
   26POPC   GL1  616   6.711   3.556   6.762 -0.1088 -0.4669 -0.0881
   26POPC   GL2  617   7.069   3.468   6.588  0.2972  0.2050  0.3089
   26POPC   C1A  618   6.674   3.864   6.514 -0.0098  0.0731  0.1511
   26POPC   D2A  619   6.615   4.131   6.296 -0.0677 -0.0784  0.1349
   26POPC   C3A  620   6.477   4.057   5.986  0.0288 -0.0137  0.0494
   26POPC   C4A  621   6.186   4.031   5.665 -0.0597  0.0870 -0.1525
   26POPC   C1B  622   6.729   3.441   6.227 -0.1025 -0.0704 -0.0465
   26POPC   C2B  623   6.658   3.191   5.897 -0.3670  0.1193  0.0246
   26POPC   C3B  624   6.279   3.161   5.618 -0.1297 -0.2356 -0.2206
   26POPC   C4B  625   6.179   2.803   5.485  0.0073  0.1523  0.0988
   27POPC   NC3  626   5.527   6.839   7.373  0.0672 -0.0558 -0.2437
   27POPC   PO4  627   5.906   6.928   7.143 -0.0640  0.0525 -0.0204
   27POPC   GL1  628   5.879   6.699   6.727 -0.3670 -0.2482  0.0464
   27POPC   GL2  629   6.182   6.584   6.576  0.1907  0.0205  0.2550
   27POPC   C1A  630   5.627   6.565   6.482 -0.2824 -0.1278 -0.0139
   27POPC   D2A  631   5.524   6.647   6.087 -0.0606 -0.0407  0.1983
   27POPC   C3A  632   5.384   6.339   5.827  0.1875 -0.0968 -0.1361
   27POPC   C4A  633   5.191   6.066   5.516  0.0169  0.3490  0.0531
   27POPC   C1B  634   6.391   6.534   6.177  0.1048 -0.0249  0.2966
   27POPC   C2B  635   6.291   6.622   5.754 -0.0011 -0.3467 -0.0498
   27POPC   C3B  636   6.224   6.517   5.391 -0.0536  0.0130  0.0254
   27POPC   C4B  637   6.044   6.179   5.205 -0.4422  0.1978  0.0121
   28POPC   NC3  638   3.890   1.428   8.276 -0.1158  0.2380  0.0040
   28POPC   PO4  639   3.497   1.694   8.238 -0.3085 -0.0456  0.1554
   28POPC   GL1  640   3.439   1.611   7.791 -0.1135 -0.2491  0.3334
   28POPC   GL2  641   3.305   1.926   7.697 -0.3017 -0.1265  0.0634
   28POPC   C1A  642   3.452   1.542   7.295  0.0404  0.1314  0.1675
   28POPC   D2A  643   3.423   1.401   6.920  0.1093  0.1422 -0.1743
   28POPC   C3A  644   3.087   1.156   6.768  0.0981 -0.1444  0.1355
   28POPC   C4A  645   2.914   0.741   6.915 -0.0811  0.1193  0.0942
   28POPC   C1B  646   3.476   2.047   7.348 -0.0084 -0.0469  0.3093
   28POPC   C2B  647   3.633   2.018   6.889  0.0340  0.0608  0.1036
   28POPC   C3B  648   3.995   2.030   6.599 -0.1967  0.1920  0.0159
   28POPC   C4B  649   4.134   1.757   6.358  0.1214  0.0779 -0.3770
   29POPC   NC3  650   6.571   8.050   7.185 -0.0310  0.0805 -0.0869
   29POPC   PO4  651   6.382   8.353   6.939 -0.0542 -0.0387 -0.0351
   29POPC   GL1  652   6.296   8.251   6.572 -0.2006 -0.3480  0.3318
   29POPC   GL2  653   6.037   8.042   6.521 -0.2991 -0.0973 -0.0215
   29POPC   C1A  654   6.201   8.329   6.082  0.1166 -0.1225  0.2432
   29POPC   D2A  655   6.092   8.406   5.731  0.2068  0.0613 -0.1361
   29POPC   C3A  656   5.760   8.721   5.616  0.0920  0.0858 -0.0447
   29POPC   C4A  657   5.572   9.154   5.498  0.1820  0.0021 -0.2093
   29POPC   C1B  658   5.762   8.154   6.229  0.3573 -0.2211  0.1451
   29POPC   C2B  659   5.642   8.188   5.734  0.1807 -0.0731 -0.3665
   29POPC   C3B  660   5.810   8.147   5.353  0.0469 -0.3328  0.1457
   29POPC   C4B  661   5.914   8.101   4.934  0.0833  0.1989 -0.0279
   30POPC   NC3  662   2.382   2.025   8.105 -0.2818  0.4522  0.0258
   30POPC   PO4  663   2.601   2.155   7.788  0.1632  0.1809  0.0857
   30POPC   GL1  664   2.888   2.107   7.445  0.0530 -0.0687 -0.0393
   30POPC   GL2  665   2.892   1.773   7.501  0.0351 -0.2078  0.2608
   30POPC   C1A  666   3.056   2.207   7.069 -0.3119 -0.0252  0.2111
   30POPC   D2A  667   3.263   2.489   6.835  0.0764  0.0177 -0.2289
   30POPC   C3A  668   3.541   2.450   6.395  0.0097  0.1187  0.0352
   30POPC   C4A  669   3.596   2.032   6.196  0.2078  0.2150  0.2950
   30POPC   C1B  670   3.029   1.732   7.076  0.0873  0.1493 -0.0236
   30POPC   C2B  671   3.130   2.043   6.612  0.0433 -0.1512  0.0642
   30POPC   C3B  672   3.042   2.109   6.126  0.3003 -0.2485 -0.0172
   30POPC   C4B  673   2.898   2.169   5.754  0.3192 -0.0589  0.0108
   31POPC   NC3  674   9.587   7.572   7.146 -0.0908  0.0039 -0.2130
   31POPC   PO4  675   9.734   8.005   7.043  0.0530  0.0402 -0.1366
   31POPC   GL1  676   9.587   7.950   6.669  0.0088  0.0957 -0.2326
   31POPC   GL2  677   9.425   8.061   6.421 -0.0264  0.1148 -0.0286
   31POPC   C1A  678   9.892   8.077   6.313  0.0240 -0.1092  0.2396
   31POPC   D2A  679  10.139   8.202   5.989  0.2881 -0.0736  0.1783
   31POPC   C3A  680  10.154   8.303   5.609 -0.1688  0.2970  0.1405
   31POPC   C4A  681   9.941   8.144   5.293 -0.0184  0.0792 -0.2928
   31POPC   C1B  682   9.283   7.904   6.138  0.2321 -0.0226  0.1192
   31POPC   C2B  683   9.198   7.904   5.738  0.1648 -0.0677 -0.2130
   31POPC   C3B  684   9.453   8.004   5.346 -0.1801  0.0610 -0.1658
   31POPC   C4B  685   9.610   7.767   4.993  0.2789 -0.1563 -0.0046
   32POPC   NC3  686   3.274   6.162   7.514 -0.0229 -0.2999 -0.0586
   32POPC   PO4  687   2.848   6.270   7.471 -0.0543 -0.0790  0.1299
   32POPC   GL1  688   2.998   6.077   7.074 -0.0487  0.0451 -0.0522
   32POPC   GL2  689   2.685   6.154   6.812 -0.2883 -0.1055  0.2062
   32POPC   C1A  690   3.282   5.964   6.738  0.0557 -0.0731 -0.3630
   32POPC   D2A  691   3.327   5.592   6.435 -0.1147  0.1757  0.1561
   32POPC   C3A  692   3.051   5.654   6.018 -0.2220 -0.1205 -0.2225
   32POPC   C4A  693   2.689   5.680   5.910  0.0891  0.0798  0.1609
   32POPC   C1B  694   2.632   6.536   6.573  0.1427  0.4244  0.1863
   32POPC   C2B  695   2.385   6.926   6.349  0.2739 -0.3878 -0.0850
   32POPC   C3B  696   2.286   6.914   5.897  0.3497 -0.2151 -0.1411
   32POPC   C4B  697   2.533   6.805   5.636  0.1001  0.0073 -0.0118
   33POPC   NC3  698   0.139   3.245   7.790 -0.5692 -0.0406 -0.1054
   33POPC   PO4  699  -0.220   3.298   7.529 -0.1909  0.0706 -0.0482
   33POPC   GL1  700  -0.123   3.086   7.127 -0.1181 -0.3238 -0.2021
   33POPC   GL2  701   0.105   3.407   7.035  0.0869  0.1395 -0.2325
   33POPC   C1A  702  -0.155   2.963   6.726  0.1053  0.1614 -0.1896
   33POPC   D2A  703   0.136   2.744   6.486  0.2312 -0.1393  0.1273
   33POPC   C3A  704   0.031   2.645   6.086 -0.0962 -0.1190 -0.2272
   33POPC   C4A  705   0.111   2.632   5.641  0.2243 -0.3825 -0.2594
   33POPC   C1B  706   0.191   3.729   6.759  0.1576 -0.0601 -0.3403
   33POPC   C2B  707   0.147   3.975   6.410 -0.1255  0.1205  0.3929
   33POPC   C3B  708   0.199   4.076   5.959  0.1145 -0.5587 -0.1485
   33POPC   C4B  709   0.466   4.388   5.778  0.4698  0.0388  0.0564
   34POPC   NC3  710   4.845   6.245   7.339  0.0786  0.1726 -0.2081
   34POPC   PO4  711   5.221   6.461   7.426  0.2123  0.0613 -0.3144
   34POPC   GL1  712   5.230   6.352   7.013 -0.1392  0.2552 -0.1912
   34POPC   GL2  713   5.268   6.663   6.846 -0.2862  0.0314  0.2739
   34POPC   C1A  714   5.240   6.174   6.637  0.3222  0.4137  0.1466
   34POPC   D2A  715   5.504   6.128   6.257 -0.1497  0.0955  0.2749
   34POPC   C3A  716   5.791   5.836   6.042  0.1751 -0.0184  0.0770
   34POPC   C4A  717   5.952   5.645   5.712 -0.2456 -0.0947 -0.1424
   34POPC   C1B  718   5.319   6.953   6.409 -0.3066  0.0432 -0.2692
   34POPC   C2B  719   5.470   7.269   6.094  0.2804  0.1016 -0.3437
   34POPC   C3B  720   5.520   7.234   5.701 -0.1998  0.0970 -0.0669
   34POPC   C4B  721   5.533   7.288   5.247 -0.0974  0.1200 -0.2662
   35POPC   NC3  722   0.703   1.410   7.347 -0.1660  0.0449 -0.1652
   35POPC   PO4  723   1.099   1.087   7.438  0.1104 -0.0713  0.1027
   35POPC   GL1  724   1.271   1.149   6.961 -0.1290  0.4184 -0.1318
   35POPC   GL2  725   1.569   1.009   6.978 -0.0859 -0.0415 -0.0481
   35POPC   C1A  726   1.156   1.262   6.486  0.1021  0.0213 -0.1407
   35POPC   D2A  727   1.302   1.561   6.217  0.2874 -0.1279  0.3194
   35POPC   C3A  728   1.500   1.672   5.943 -0.0125  0.0152 -0.3931
   35POPC   C4A  729   1.745   1.947   5.606  0.2859  0.0020 -0.0929
   35POPC   C1B  730   1.496   0.621   6.725 -0.3675 -0.0659 -0.0800
   35POPC   C2B  731   1.628   0.423   6.349  0.2791 -0.0972  0.1354
   35POPC   C3B  732   1.507   0.610   5.873 -0.0572  0.1008  0.0282
   35POPC   C4B  733   1.617   0.784   5.426  0.0445 -0.0346 -0.3287
   36POPC   NC3  734   8.423   7.956   7.002 -0.0031 -0.2737 -0.2242
   36POPC   PO4  735   8.645   7.581   6.998  0.0680  0.1408  0.4650
   36POPC   GL1  736   8.713   7.814   6.637 -0.2257  0.3151  0.0238
   36POPC   GL2  737   8.895   7.728   6.406  0.1115  0.1945 -0.2227
   36POPC   C1A  738   8.449   8.027   6.359  0.0896  0.0192 -0.0226
   36POPC   D2A  739   8.124   7.941   6.164  0.0565 -0.1397 -0.0613
   36POPC   C3A  740   7.917   7.670   5.723  0.0462 -0.0762  0.0015
   36POPC   C4A  741   7.676   7.403   5.458 -0.2657  0.0323 -0.0695
   36POPC   C1B  742   8.815   8.062   5.993  0.0588  0.1700  0.0902
   36POPC   C2B  743   8.767   8.119   5.589  0.0765  0.2974 -0.0286
   36POPC   C3B  744   8.445   8.350   5.363  0.1763  0.0823 -0.0269
   36POPC   C4B  745   8.070   8.554   5.471 -0.2605  0.0047  0.3786
   37POPC   NC3  746   6.083   3.168   7.138 -0.0992 -0.1514 -0.0155
   37POPC   PO4  747   5.652   3.275   7.263  0.1482 -0.0405  0.0715
   37POPC   GL1  748   5.818   3.461   6.833 -0.0412 -0.2299 -0.0474
   37POPC   GL2  749   6.144   3.516   6.802  0.5570 -0.3086  0.0502
   37POPC   C1A  750   5.928   3.237   6.357  0.2107 -0.0544  0.1470
   37POPC   D2A  751   6.287   3.019   6.222  0.1216 -0.3357  0.2299
   37POPC   C3A  752   6.318   2.781   5.971 -0.1045 -0.1453 -0.1738
   37POPC   C4A  753   6.144   2.438   5.807 -0.0206 -0.0344  0.1263
   37POPC   C1B  754   6.284   3.560   6.414  0.0287 -0.1064  0.1631
   37POPC   C2B  755   6.188   3.506   5.987 -0.1000  0.0308 -0.1250
   37POPC   C3B  756   5.989   3.582   5.622 -0.2326 -0.2115  0.2484
   37POPC   C4B  757   5.761   3.675   5.213  0.2385 -0.1803 -0.0854
   38POPC   NC3  758   9.344   8.318   6.921  0.1632  0.2407  0.1957
   38POPC   PO4  759   8.904   8.196   6.905 -0.0027  0.2244  0.0851
   38POPC   GL1  760   8.862   8.305   6.474 -0.0912  0.1135  0.0726
   38POPC   GL2  761   9.146   8.459   6.384  0.2582  0.0134 -0.2899
   38POPC   C1A  762   8.527   8.474   6.203 -0.4214 -0.0969 -0.0967
   38POPC   D2A  763   8.368   8.388   5.856  0.0460  0.2835 -0.4597
   38POPC   C3A  764   8.054   8.184   5.744 -0.1480  0.1299  0.2078
   38POPC   C4A  765   7.839   8.061   5.419 -0.0670 -0.1129  0.0326
   38POPC   C1B  766   9.425   8.449   6.002 -0.2988 -0.1492  0.1528
   38POPC   C2B  767   9.685   8.115   5.795 -0.0388 -0.2031  0.3825
   38POPC   C3B  768   9.744   7.780   5.803  0.3710  0.1090 -0.0038
   38POPC   C4B  769   9.726   7.319   5.895 -0.0190  0.3924  0.0043
   39POPC   NC3  770   6.993   7.614   7.031  0.0616 -0.0155 -0.0654
   39POPC   PO4  771   7.127   7.997   7.186 -0.1820  0.2441  0.2856
   39POPC   GL1  772   7.266   7.991   6.706 -0.0399 -0.0240 -0.1861
   39POPC   GL2  773   7.313   7.567   6.549  0.1941 -0.1118 -0.4058
   39POPC   C1A  774   7.174   8.143   6.368  0.0554 -0.0376  0.0490
   39POPC   D2A  775   7.099   8.086   5.996 -0.0784 -0.0053 -0.1609
   39POPC   C3A  776   7.022   8.547   5.895  0.0762 -0.0131  0.3376
   39POPC   C4A  777   6.640   8.765   5.960  0.1930  0.0526  0.1876
   39POPC   C1B  778   6.929   7.656   6.256  0.0766 -0.1161 -0.0676
   39POPC   C2B  779   6.755   7.688   5.777 -0.1999 -0.3219 -0.1639
   39POPC   C3B  780   6.921   8.072   5.348 -0.1586 -0.1877 -0.0941
   39POPC   C4B  781   7.348   8.070   5.178 -0.3373 -0.0480 -0.1924
   40POPC   NC3  782   6.394   5.682   7.443  0.2548 -0.3488  0.1552
   40POPC   PO4  783   6.237   5.320   7.315 -0.1337 -0.0949 -0.1698
   40POPC   GL1  784   6.202   5.068   6.948 -0.2865 -0.3221  0.2878
   40POPC   GL2  785   6.412   4.804   6.805  0.0628 -0.0319 -0.6029
   40POPC   C1A  786   5.875   5.052   6.604 -0.2369  0.3542  0.1429
   40POPC   D2A  787   5.485   5.119   6.281 -0.1724  0.3461 -0.0443
   40POPC   C3A  788   5.513   5.453   5.998 -0.1620  0.0757 -0.0346
   40POPC   C4A  789   5.426   5.556   5.495 -0.1407 -0.0860 -0.1481
   40POPC   C1B  790   6.500   4.597   6.443  0.0627 -0.0090  0.1902
   40POPC   C2B  791   6.609   4.621   5.911 -0.0142 -0.1795  0.3679
   40POPC   C3B  792   6.571   4.300   5.526  0.4609 -0.2818 -0.1154
   40POPC   C4B  793   6.526   4.236   5.126  0.1274  0.0439 -0.2322
   41POPC   NC3  794   6.139   7.322   7.106 -0.2416  0.1338  0.1095
   41POPC   PO4  795   6.540   7.570   7.098  0.0380  0.0603 -0.2710
   41POPC   GL1  796   6.496   7.378   6.603  0.0155 -0.1454 -0.1986
   41POPC   GL2  797   6.174   7.485   6.543 -0.0238 -0.0190  0.1680
   41POPC   C1A  798   6.380   7.055   6.272 -0.0662 -0.1905  0.1386
   41POPC   D2A  799   6.473   7.047   5.848  0.0867  0.2729 -0.0728
   41POPC   C3A  800   6.492   7.328   5.559  0.1684 -0.0046  0.2985
   41POPC   C4A  801   6.557   7.677   5.248  0.3592  0.1161 -0.2269
   41POPC   C1B  802   5.843   7.606   6.223  0.0049  0.0141 -0.3157
   41POPC   C2B  803   5.996   7.852   5.873  0.1550  0.0043 -0.1996
   41POPC   C3B  804   6.343   7.947   5.677  0.1156  0.1048 -0.0265
   41POPC   C4B  805   6.624   8.249   5.641 -0.0697 -0.0007  0.0234
   42POPC   NC3  806   2.948   6.737   7.515  0.2663 -0.0321 -0.1600
   42POPC   PO4  807   3.163   6.616   7.263  0.0964 -0.1110  0.0652
   42POPC   GL1  808   3.109   6.513   6.841 -0.1016 -0.3402  0.1126
   42POPC   GL2  809   3.082   6.807   6.700 -0.3964  0.0233  0.0282
   42POPC   C1A  810   3.045   6.374   6.413  0.1805 -0.0534  0.0332
   42POPC   D2A  811   3.263   6.085   6.174  0.2093  0.1548 -0.2643
   42POPC   C3A  812   3.053   6.001   5.684 -0.0929  0.0706  0.0610
   42POPC   C4A  813   3.044   6.004   5.208 -0.1777 -0.1603  0.0619
   42POPC   C1B  814   3.340   7.096   6.406  0.1126 -0.2484 -0.1834
   42POPC   C2B  815   3.185   7.360   5.984 -0.1155 -0.3013 -0.2166
   42POPC   C3B  816   3.023   7.685   5.838 -0.1295  0.0820  0.0325
   42POPC   C4B  817   2.782   7.703   5.408 -0.0782 -0.1083 -0.0092
   43POPC   NC3  818   2.736   3.646   7.131  0.1323  0.1076 -0.2345
   43POPC   PO4  819   2.986   3.992   7.375  0.0319  0.2188 -0.0393
   43POPC   GL1  820   3.167   3.866   6.976 -0.2728 -0.1716 -0.4112
   43POPC   GL2  821   3.190   3.530   6.887  0.2597  0.3302  0.0048
   43POPC   C1A  822   3.575   3.847   6.731 -0.2274  0.1780  0.1685
   43POPC   D2A  823   3.864   4.181   6.807 -0.1181  0.1199 -0.0172
   43POPC   C3A  824   4.194   4.259   6.548  0.3472 -0.0741 -0.1908
   43POPC   C4A  825   4.355   4.116   6.204  0.1341  0.3600 -0.2546
   43POPC   C1B  826   2.969   3.347   6.542  0.3447 -0.3244  0.1479
   43POPC   C2B  827   2.888   3.137   6.082 -0.4728  0.0499 -0.0901
   43POPC   C3B  828   3.081   3.168   5.641  0.0175  0.1954  0.1225
   43POPC   C4B  829   3.223   2.883   5.281 -0.1501 -0.1008 -0.3467
   44POPC   NC3  830   8.870   2.729   7.443 -0.3234 -0.3562  0.3191
   44POPC   PO4  831   8.567   2.798   7.005 -0.1157  0.2963  0.0054
   44POPC   GL1  832   8.513   3.161   6.670 -0.0106  0.0644  0.0861
   44POPC   GL2  833   8.888   3.209   6.601 -0.0213 -0.1734  0.0920
   44POPC   C1A  834   8.642   3.570   6.340 -0.1023 -0.0133  0.2924
   44POPC   D2A  835   8.883   3.551   5.859  0.3514  0.0624 -0.1510
   44POPC   C3A  836   8.976   3.292   5.565  0.1870 -0.2373 -0.0598
   44POPC   C4A  837   8.722   3.012   5.383 -0.2132  0.0614  0.2255
   44POPC   C1B  838   9.225   3.448   6.368 -0.2955  0.0328  0.3384
   44POPC   C2B  839   9.368   3.662   5.939 -0.0113 -0.0084  0.1390
   44POPC   C3B  840   9.651   3.754   5.593 -0.1531 -0.2724 -0.0494
   44POPC   C4B  841   9.652   3.906   5.195  0.1932 -0.1589  0.0398
   45POPC   NC3  842   9.850   9.687   7.433  0.0049  0.3453  0.6110
   45POPC   PO4  843   9.935   9.706   7.013 -0.2904 -0.1042  0.4052
   45POPC   GL1  844   9.962   9.876   6.599 -0.0112 -0.0976  0.1288
   45POPC   GL2  845  10.170  10.080   6.585 -0.0947  0.0006  0.0274
   45POPC   C1A  846  10.000   9.883   6.155 -0.2061 -0.4763 -0.1905
   45POPC   D2A  847   9.821   9.737   5.838  0.1601 -0.1528 -0.1226
   45POPC   C3A  848   9.867   9.968   5.523 -0.2717  0.4406 -0.0747
   45POPC   C4A  849   9.971  10.324   5.335  0.1314 -0.2666 -0.1119
   45POPC   C1B  850  10.218  10.315   6.321  0.0951 -0.1481 -0.0944
   45POPC   C2B  851  10.532  10.617   6.117 -0.1389  0.0782 -0.1722
   45POPC   C3B  852  10.642  10.903   5.839  0.1049 -0.2778  0.0394
   45POPC   C4B  853  10.755  11.031   5.420 -0.0585 -0.3312  0.0795
   46POPC   NC3  854   7.570   2.573   6.934  0.2334  0.0386  0.1843
   46POPC   PO4  855   7.370   2.963   6.741 -0.0597 -0.1478  0.2171
   46POPC   GL1  856   7.276   2.675   6.442 -0.1554 -0.3605 -0.0855
   46POPC   GL2  857   7.004   2.469   6.422 -0.0967  0.1094 -0.2399
   46POPC   C1A  858   7.485   2.602   6.037 -0.2487 -0.1800  0.0701
   46POPC   D2A  859   7.806   2.766   5.737  0.1344 -0.0949  0.1419
   46POPC   C3A  860   7.693   2.760   5.241 -0.0705  0.1048  0.0910
   46POPC   C4A  861   7.672   3.079   4.977 -0.0448  0.1162  0.1098
   46POPC   C1B  862   6.834   2.652   6.038 -0.1022  0.4745 -0.0713
   46POPC   C2B  863   6.651   2.672   5.629 -0.1086  0.2014  0.0639
   46POPC   C3B  864   6.636   2.664   5.238 -0.2160  0.1184  0.0472
   46POPC   C4B  865   6.506   2.607   4.849  0.1516 -0.1035  0.0369
   47POPC   NC3  866   4.818   9.465   8.103  0.1202  0.1429  0.1770
   47POPC   PO4  867   4.690   9.793   8.222 -0.0750  0.3947 -0.1013
   47POPC   GL1  868   4.485  10.025   7.952  0.0409  0.1186 -0.0365
   47POPC   GL2  869   4.551   9.824   7.673 -0.3307  0.1388  0.2101
   47POPC   C1A  870   4.668  10.412   7.679  0.1685  0.0245 -0.1423
   47POPC   D2A  871   4.616  10.737   7.409 -0.0444  0.0728  0.0715
   47POPC   C3A  872   4.568  11.161   7.496 -0.2452  0.1062  0.0674
   47POPC   C4A  873   4.337  11.416   7.809  0.2070 -0.2724  0.1781
   47POPC   C1B  874   4.960   9.991   7.464 -0.0854 -0.3803 -0.4145
   47POPC   C2B  875   5.270  10.063   7.102  0.0731  0.0479 -0.0100
   47POPC   C3B  876   5.167  10.337   6.818 -0.1873  0.1515  0.1112
   47POPC   C4B  877   5.032  10.289   6.415  0.2140 -0.0398  0.0152
   48POPC   NC3  878   7.060   9.051   7.105  0.2660 -0.1406  0.1168
   48POPC   PO4  879   7.096   8.584   7.127  0.0141  0.1778 -0.3065
   48POPC   GL1  880   7.316   8.646   6.736  0.0993 -0.4740 -0.1019
   48POPC   GL2  881   7.725   8.635   6.672  0.2121  0.1702 -0.0006
   48POPC   C1A  882   7.372   9.055   6.511  0.0267  0.2597  0.0713
   48POPC   D2A  883   7.795   9.130   6.326  0.0005  0.3978 -0.2180
   48POPC   C3A  884   7.871   9.103   5.875 -0.0557  0.0294  0.0023
   48POPC   C4A  885   7.866   9.188   5.442  0.2520 -0.0128  0.0343
   48POPC   C1B  886   7.533   8.629   6.285 -0.1198  0.0466  0.1477
   48POPC   C2B  887   7.328   8.941   6.025  0.0084  0.1665 -0.2632
   48POPC   C3B  888   6.996   9.063   5.812 -0.3553  0.0631  0.3803
   48POPC   C4B  889   6.683   9.318   5.653  0.0143  0.0421  0.1866
   49POPC   NC3  890   7.365  10.348   7.953  0.4531  0.1253 -0.1627
   49POPC   PO4  891   7.487  10.190   7.540  0.0126  0.5023  0.0132
   49POPC   GL1  892   7.443  10.428   7.124  0.2160 -0.2679  0.0169
   49POPC   GL2  893   7.199  10.597   6.925  0.2061 -0.1712  0.0912
   49POPC   C1A  894   7.655  10.357   6.695 -0.0429 -0.1608  0.1511
   49POPC   D2A  895   7.791  10.449   6.205 -0.1063 -0.0513 -0.0860
   49POPC   C3A  896   7.485  10.535   5.916 -0.1687 -0.0086  0.1145
   49POPC   C4A  897   7.403  10.680   5.486 -0.0379 -0.1018  0.2624
   49POPC   C1B  898   7.240  10.466   6.416 -0.2546 -0.0780 -0.0047
   49POPC   C2B  899   6.991  10.388   6.063  0.2030 -0.0394  0.1144
   49POPC   C3B  900   6.806  10.449   5.681  0.4516  0.1046  0.1783
   49POPC   C4B  901   6.415  10.663   5.489 -0.0742  0.0974 -0.0928
   50POPC   NC3  902  10.606   6.324   7.474  0.2634 -0.0282  0.1143
   50POPC   PO4  903  10.898   6.268   7.166 -0.3336 -0.0120  0.2629
   50POPC   GL1  904  10.979   6.464   6.772  0.1647  0.0073 -0.2743
   50POPC   GL2  905  11.351   6.298   6.613  0.0615 -0.4238  0.0556
   50POPC   C1A  906  10.643   6.702   6.654  0.1598  0.0029  0.2765
   50POPC   D2A  907  10.428   6.961   6.434  0.1240 -0.0197 -0.1833
   50POPC   C3A  908  10.218   7.288   6.466 -0.0656  0.1941 -0.2448
   50POPC   C4A  909  10.129   7.574   6.164 -0.0997  0.0159  0.0338
   50POPC   C1B  910  11.550   6.532   6.132 -0.1897 -0.0499 -0.0644
   50POPC   C2B  911  12.005   6.672   5.959 -0.0803  0.0585  0.3608
   50POPC   C3B  912  12.186   6.639   5.534  0.0025 -0.0162 -0.1882
   50POPC   C4B  913  12.170   6.475   5.067  0.3086 -0.0306 -0.1559
   51POPC   NC3  914   5.753   8.332   6.894 -0.3817 -0.0255 -0.0736
   51POPC   PO4  915   5.384   8.317   7.198  0.1227  0.0885 -0.0129
   51POPC   GL1  916   5.221   8.406   6.812 -0.2683 -0.1813  0.1350
   51POPC   GL2  917   5.387   8.351   6.511  0.1357  0.2428 -0.0239
   51POPC   C1A  918   4.957   8.301   6.358 -0.2693 -0.3293  0.0607
   51POPC   D2A  919   4.829   8.563   5.935  0.3404  0.2380  0.1128
   51POPC   C3A  920   4.677   8.291   5.528  0.1447 -0.1309  0.0448
   51POPC   C4A  921   4.596   8.127   5.193  0.1656  0.1656 -0.0804
   51POPC   C1B  922   5.338   8.527   6.127 -0.1716  0.1895 -0.1607
   51POPC   C2B  923   5.532   8.939   6.033  0.1004  0.0489  0.0334
   51POPC   C3B  924   5.828   9.272   5.957  0.0999 -0.1168  0.4558
   51POPC   C4B  925   6.293   9.379   6.047 -0.0218  0.1524  0.3856
   52POPC   NC3  926   1.621   1.508   7.142  0.1631  0.2089 -0.2491
   52POPC   PO4  927   1.946   1.787   7.202  0.0312 -0.0103 -0.3873
   52POPC   GL1  928   2.033   1.713   6.802 -0.0980 -0.3267 -0.1526
   52POPC   GL2  929   1.798   1.506   6.678  0.1291  0.2413 -0.0207
   52POPC   C1A  930   2.194   1.680   6.414 -0.0549  0.0591  0.1304
   52POPC   D2A  931   2.195   1.357   6.097  0.0737 -0.1425 -0.3731
   52POPC   C3A  932   1.892   1.448   5.794  0.2265  0.3289 -0.0299
   52POPC   C4A  933   1.544   1.468   5.462  0.0768 -0.0700 -0.1916
   52POPC   C1B  934   1.728   1.319   6.230 -0.0017 -0.0642 -0.3209
   52POPC   C2B  935   1.477   1.141   5.831 -0.0826  0.3992 -0.1665
   52POPC   C3B  936   1.164   0.842   5.625  0.1712 -0.2892 -0.0338
   52POPC   C4B  937   0.736   0.899   5.739  0.1377 -0.2744  0.1773
   53POPC   NC3  938   4.884   5.317   7.741 -0.1461 -0.2033 -0.3564
   53POPC   PO4  939   4.675   5.520   7.328 -0.2012  0.1336 -0.1774
   53POPC   GL1  940   4.784   5.556   6.962 -0.0461 -0.1043  0.0562
   53POPC   GL2  941   5.081   5.765   6.984  0.2754 -0.1893  0.0404
   53POPC   C1A  942   4.781   5.509   6.621 -0.5025  0.0321 -0.1239
   53POPC   D2A  943   4.565   5.690   6.282 -0.1461  0.1645 -0.2052
   53POPC   C3A  944   4.552   5.839   5.842 -0.3878 -0.0244  0.2258
   53POPC   C4A  945   4.696   5.914   5.401  0.1314  0.0658  0.1778
   53POPC   C1B  946   4.737   5.997   6.717 -0.2704 -0.0186 -0.2643
   53POPC   C2B  947   4.385   6.099   6.499  0.0496  0.1570  0.0184
   53POPC   C3B  948   4.234   6.286   6.166  0.0381  0.3408  0.1044
   53POPC   C4B  949   4.242   6.250   5.658  0.2105  0.1461 -0.1203
   54POPC   NC3  950   9.874   3.413   7.416 -0.2282 -0.0470 -0.2393
   54POPC   PO4  951   9.541   3.578   7.267 -0.1188 -0.1900  0.0530
   54POPC   GL1  952   9.699   3.463   6.965 -0.1492  0.0885 -0.0227
   54POPC   GL2  953   9.856   3.758   6.843  0.2165  0.1987 -0.1378
   54POPC   C1A  954   9.601   3.190   6.598 -0.2539 -0.2032  0.2502
   54POPC   D2A  955   9.439   2.855   6.262 -0.2909  0.0122  0.1198
   54POPC   C3A  956   9.551   2.657   5.790 -0.0323  0.2156 -0.1976
   54POPC   C4A  957   9.599   2.417   5.526 -0.2161  0.1995  0.0520
   54POPC   C1B  958   9.936   3.609   6.511  0.0972  0.0240 -0.0854
   54POPC   C2B  959   9.720   3.439   6.203  0.1798 -0.0042  0.3529
   54POPC   C3B  960   9.636   3.258   5.853 -0.0776  0.1378 -0.2252
   54POPC   C4B  961   9.820   2.945   5.477 -0.1128  0.1285  0.3298
   55POPC   NC3  962   4.295   4.603   7.425 -0.2189 -0.4248  0.0977
   55POPC   PO4  963   4.538   5.078   7.459  0.3618  0.1360  0.0334
   55POPC   GL1  964   4.420   5.130   6.977 -0.0350  0.0893 -0.1623
   55POPC   GL2  965   4.285   5.414   6.899  0.2162 -0.1595  0.0254
   55POPC   C1A  966   4.510   5.070   6.475  0.0973 -0.0274  0.0662
   55POPC   D2A  967   4.303   5.247   6.089 -0.0155  0.0492  0.1284
   55POPC   C3A  968   4.162   5.024   5.836 -0.0422 -0.3384 -0.0060
   55POPC   C4A  969   4.031   4.791   5.404 -0.2319  0.1929 -0.0123
   55POPC   C1B  970   4.217   5.479   6.519 -0.1093  0.0438  0.0880
   55POPC   C2B  971   4.082   5.733   6.141 -0.0155 -0.1378  0.0499
   55POPC   C3B  972   4.036   5.801   5.700  0.0338  0.1078 -0.1298
   55POPC   C4B  973   3.977   6.055   5.317 -0.1668  0.1319  0.0907
   56POPC   NC3  974   4.987   2.715   7.237 -0.0018 -0.0861  0.0430
   56POPC   PO4  975   4.648   2.565   7.424  0.2206  0.0398 -0.2789
   56POPC   GL1  976   4.454   2.556   7.065 -0.3117  0.0395  0.0617
   56POPC   GL2  977   4.255   2.861   7.025  0.1977 -0.2618 -0.0622
   56POPC   C1A  978   4.534   2.599   6.677  0.0958 -0.3515 -0.2745
   56POPC   D2A  979   4.671   2.666   6.285  0.0670 -0.4016 -0.2047
   56POPC   C3A  980   4.729   2.364   6.139  0.2274 -0.2180  0.0154
   56POPC   C4A  981   4.599   1.984   6.031 -0.1334 -0.3043  0.3377
   56POPC   C1B  982   3.899   3.066   6.744 -0.1180  0.1858  0.2091
   56POPC   C2B  983   3.521   3.380   6.515  0.2757  0.2201  0.0586
   56POPC   C3B  984   3.606   3.717   6.242 -0.2350  0.4229  0.0682
   56POPC   C4B  985   3.813   3.905   5.884 -0.1369 -0.1286 -0.1125
   57POPC   NC3  986   0.794   6.882   7.370 -0.4609 -0.0785  0.2185
   57POPC   PO4  987   0.886   7.203   7.006 -0.0118  0.0974  0.1714
   57POPC   GL1  988   1.166   7.211   6.777 -0.2212 -0.1955 -0.1918
   57POPC   GL2  989   1.575   7.278   6.715  0.1092 -0.0216 -0.4642
   57POPC   C1A  990   1.211   7.236   6.345 -0.0202 -0.0468 -0.2631
   57POPC   D2A  991   1.396   7.223   5.948 -0.2592  0.1771 -0.0413
   57POPC   C3A  992   1.671   6.866   5.845 -0.0658  0.4332  0.0370
   57POPC   C4A  993   1.950   6.663   5.605 -0.2225  0.1199  0.0099
   57POPC   C1B  994   1.623   7.489   6.328  0.1620 -0.0896  0.2227
   57POPC   C2B  995   1.728   7.628   5.861 -0.1178  0.3859  0.1885
   57POPC   C3B  996   1.878   7.619   5.444  0.2477  0.0609 -0.0663
   57POPC   C4B  997   1.851   7.508   5.085 -0.1860  0.1472  0.0261
   58POPC   NC3  998   4.387   2.084   8.034 -0.3221  0.0933 -0.2530
   58POPC   PO4  999   4.358   1.779   7.685 -0.2048  0.0521 -0.3558
   58POPC   GL1 1000   4.255   1.678   7.262 -0.0754  0.2229 -0.2578
   58POPC   GL2 1001   3.909   1.808   7.275 -0.1840 -0.2561 -0.0984
   58POPC   C1A 1002   4.210   1.641   6.845 -0.1370  0.0836 -0.0750
   58POPC   D2A 1003   3.966   1.369   6.588  0.0137 -0.0268 -0.2259
   58POPC   C3A 1004   3.616   1.617   6.531 -0.1467 -0.1684 -0.0059
   58POPC   C4A 1005   3.149   1.672   6.327  0.0818 -0.0180 -0.4266
   58POPC   C1B 1006   4.010   2.240   7.115 -0.1541  0.0914 -0.1274
   58POPC   C2B 1007   3.962   2.522   6.739  0.3385 -0.1035  0.0552
   58POPC   C3B 1008   4.005   2.685   6.388  0.1550 -0.1059 -0.1387
   58POPC   C4B 1009   3.799   2.960   6.217  0.2291 -0.0134 -0.1140
   59POPC   NC3 1010   5.005   8.035   7.131 -0.0716 -0.2037  0.0620
   59POPC   PO4 1011   4.570   7.732   7.235 -0.3097  0.1290  0.1764
   59POPC   GL1 1012   4.642   7.944   6.812 -0.0506 -0.1174  0.1822
   59POPC   GL2 1013   4.978   7.925   6.665  0.0537  0.1312 -0.1115
   59POPC   C1A 1014   4.371   8.167   6.397  0.0333  0.0622  0.3135
   59POPC   D2A 1015   4.353   8.501   6.088 -0.0228 -0.0492 -0.0375
   59POPC   C3A 1016   4.007   8.739   6.099  0.0920 -0.0242  0.0121
   59POPC   C4A 1017   3.628   8.897   6.398 -0.2707  0.1392  0.2600
   59POPC   C1B 1018   5.248   7.886   6.367  0.0781 -0.5142 -0.0714
   59POPC   C2B 1019   5.413   7.839   5.994 -0.4090 -0.1153  0.2126
   59POPC   C3B 1020   5.523   7.746   5.537 -0.1102  0.1545 -0.0846
   59POPC   C4B 1021   5.543   7.790   5.119  0.2491 -0.1232  0.2513
   60POPC   NC3 1022   7.631   4.121   7.174 -0.0165 -0.0512  0.2783
   60POPC   PO4 1023   7.204   3.920   7.422  0.2151  0.0196 -0.1031
   60POPC   GL1 1024   7.201   3.893   7.003 -0.2028  0.2227 -0.0679
   60POPC   GL2 1025   6.848   3.948   7.017 -0.0054 -0.3242 -0.0493
   60POPC   C1A 1026   7.293   3.964   6.595  0.0716  0.0012 -0.1270
   60POPC   D2A 1027   7.078   3.998   6.182  0.0342 -0.1554 -0.1331
   60POPC   C3A 1028   6.910   3.766   5.828  0.0663 -0.1840 -0.1569
   60POPC   C4A 1029   6.514   3.623   5.637  0.0523 -0.2121 -0.0121
   60POPC   C1B 1030   6.824   4.267   6.754 -0.3195  0.2839  0.1997
   60POPC   C2B 1031   7.124   4.457   6.471  0.0675 -0.0540  0.0298
   60POPC   C3B 1032   7.024   4.480   6.036  0.0717 -0.2048  0.2980
   60POPC   C4B 1033   6.964   4.632   5.539  0.1542 -0.0196  0.1126
   61POPC   NC3 1034   8.866   3.735   7.252 -0.0881  0.1172 -0.0073
   61POPC   PO4 1035   9.045   4.066   7.328  0.1322  0.2628 -0.0051
   61POPC   GL1 1036   9.249   3.937   6.989  0.2864  0.2946 -0.3876
   61POPC   GL2 1037   9.016   3.777   6.706  0.0730  0.2086 -0.1842
   61POPC   C1A 1038   9.484   3.949   6.532 -0.3213 -0.2205  0.0821
   61POPC   D2A 1039   9.556   4.170   6.192 -0.0343 -0.2363 -0.0675
   61POPC   C3A 1040   9.254   4.429   6.144  0.0275 -0.0763 -0.0885
   61POPC   C4A 1041   8.761   4.301   5.929  0.3270 -0.1218  0.2142
   61POPC   C1B 1042   9.103   3.944   6.200  0.6271 -0.0646 -0.1703
   61POPC   C2B 1043   9.158   4.050   5.800 -0.0432 -0.1216  0.2238
   61POPC   C3B 1044   9.527   4.272   5.648 -0.2113  0.0481 -0.0776
   61POPC   C4B 1045   9.491   4.705   5.826  0.1720 -0.0117 -0.3426
   62POPC   NC3 1046   2.844   7.807   7.647 -0.0661  0.1244  0.0568
   62POPC   PO4 1047   2.649   8.216   7.606 -0.1139 -0.0802  0.1112
   62POPC   GL1 1048   2.807   8.454   7.227 -0.0205  0.2061  0.3153
   62POPC   GL2 1049   3.178   8.474   7.249 -0.4021 -0.0427 -0.0805
   62POPC   C1A 1050   2.765   8.610   6.749  0.1175 -0.1420 -0.2143
   62POPC   D2A 1051   2.704   8.691   6.300 -0.1511  0.0237 -0.0877
   62POPC   C3A 1052   2.413   8.377   6.072 -0.1580 -0.1478 -0.1146
   62POPC   C4A 1053   2.201   8.521   5.762  0.0931  0.1363  0.1076
   62POPC   C1B 1054   3.229   8.541   6.771 -0.0909  0.3333  0.1168
   62POPC   C2B 1055   3.286   8.450   6.323 -0.1138 -0.2577 -0.0137
   62POPC   C3B 1056   3.404   8.412   5.879  0.0694 -0.3491 -0.3478
   62POPC   C4B 1057   3.592   8.632   5.472 -0.3086 -0.2393 -0.2220
   63POPC   NC3 1058   1.879   8.079   7.155 -0.0630  0.1632  0.1591
   63POPC   PO4 1059   1.723   8.436   7.418 -0.3695 -0.0293  0.1272
   63POPC   GL1 1060   1.647   8.701   7.088 -0.4634  0.0562 -0.1619
   63POPC   GL2 1061   1.800   8.981   7.171 -0.1991 -0.0405 -0.1030
   63POPC   C1A 1062   1.704   8.662   6.661  0.1489 -0.0751 -0.1829
   63POPC   D2A 1063   1.857   8.684   6.234  0.0489  0.1664  0.0241
   63POPC   C3A 1064   1.936   8.318   6.103 -0.1523  0.0518 -0.2057
   63POPC   C4A 1065   1.993   7.855   6.229  0.1328  0.0223 -0.2808
   63POPC   C1B 1066   2.059   8.961   6.872 -0.3962  0.1018  0.2489
   63POPC   C2B 1067   1.927   9.097   6.442  0.3306  0.0996 -0.1262
   63POPC   C3B 1068   2.049   9.248   6.140 -0.0830 -0.1386 -0.1996
   63POPC   C4B 1069   2.297   8.949   5.946 -0.0482 -0.2313 -0.1360
   64POPC   NC3 1070   8.380   9.889   7.175  0.1900  0.2804 -0.0313
   64POPC   PO4 1071   8.326   9.380   7.292  0.2138 -0.0767  0.0169
   64POPC   GL1 1072   8.325   9.437   6.865  0.0660 -0.1759  0.0364
   64POPC   GL2 1073   8.613   9.538   6.718  0.0125  0.0724  0.3585
   64POPC   C1A 1074   8.090   9.440   6.507  0.0106 -0.0454 -0.0054
   64POPC   D2A 1075   8.072   9.538   6.093 -0.1724  0.1532 -0.5188
   64POPC   C3A 1076   7.901   9.672   5.654 -0.0177  0.1079  0.0198
   64POPC   C4A 1077   7.611   9.750   5.486  0.1157 -0.0159  0.2535
   64POPC   C1B 1078   8.533   9.828   6.282 -0.0590 -0.0101  0.0409
   64POPC   C2B 1079   8.471   9.789   5.864  0.0522  0.3717  0.1631
   64POPC   C3B 1080   8.333   9.448   5.670 -0.2084 -0.1306  0.0222
   64POPC   C4B 1081   8.325   9.436   5.295 -0.1717 -0.2998 -0.3067
   65POPC   NC3 1082   1.492   4.899   7.613 -0.0576 -0.1886 -0.1316
   65POPC   PO4 1083   1.205   5.157   7.442 -0.0692  0.0387 -0.0589
   65POPC   GL1 1084   1.109   5.109   7.036  0.3899  0.2462 -0.3611
   65POPC   GL2 1085   1.106   4.694   6.922  0.1280  0.2182 -0.2487
   65POPC   C1A 1086   1.018   5.177   6.594  0.2919  0.2417 -0.0946
   65POPC   D2A 1087   0.619   5.133   6.294 -0.0727  0.0279  0.0158
   65POPC   C3A 1088   0.662   5.257   5.874  0.0081 -0.2622  0.2954
   65POPC   C4A 1089   0.629   5.527   5.510 -0.1234  0.4386 -0.5197
   65POPC   C1B 1090   1.343   4.636   6.530  0.1627  0.0372 -0.2845
   65POPC   C2B 1091   1.569   4.741   6.215 -0.0163  0.2048  0.3592
   65POPC   C3B 1092   1.849   4.957   5.799 -0.0695 -0.0413 -0.0044
   65POPC   C4B 1093   1.928   5.189   5.509 -0.1326 -0.2523  0.2223
   66POPC   NC3 1094   1.841   6.185   7.456  0.0295 -0.1360 -0.0899
   66POPC   PO4 1095   2.258   6.242   7.374  0.0116 -0.1171  0.1522
   66POPC   GL1 1096   2.214   6.119   6.994 -0.0256 -0.1259 -0.0174
   66POPC   GL2 1097   1.879   6.019   6.892 -0.0941 -0.1011  0.0724
   66POPC   C1A 1098   2.203   6.291   6.567  0.0384 -0.3609  0.0885
   66POPC   D2A 1099   2.142   6.499   6.170 -0.1951  0.0787  0.2881
   66POPC   C3A 1100   2.357   6.311   5.763 -0.0321  0.1013 -0.0817
   66POPC   C4A 1101   2.260   6.408   5.347 -0.2129 -0.1288  0.0720
   66POPC   C1B 1102   1.594   6.216   6.662 -0.1643  0.2384 -0.0369
   66POPC   C2B 1103   1.683   6.198   6.288 -0.3965 -0.1705  0.2063
   66POPC   C3B 1104   1.695   6.370   5.898  0.0087  0.1979 -0.0891
   66POPC   C4B 1105   1.726   6.249   5.389 -0.2039  0.0173 -0.0137
   67POPC   NC3 1106   2.089   6.629   7.168 -0.3565 -0.2079  0.1634
   67POPC   PO4 1107   1.690   6.561   7.186  0.0020 -0.0603  0.0278
   67POPC   GL1 1108   1.669   6.785   6.871  0.0550  0.1559 -0.0815
   67POPC   GL2 1109   1.890   6.708   6.576  0.0247 -0.2118  0.1230
   67POPC   C1A 1110   1.410   6.820   6.470 -0.0997 -0.0223 -0.0543
   67POPC   D2A 1111   0.954   6.836   6.438 -0.0296 -0.1337  0.3502
   67POPC   C3A 1112   0.665   7.129   6.303  0.2825  0.1331  0.0357
   67POPC   C4A 1113   0.390   7.376   6.004 -0.1056 -0.0370 -0.1541
   67POPC   C1B 1114   1.839   7.057   6.359 -0.0470 -0.0578  0.1631
   67POPC   C2B 1115   2.127   7.332   6.088 -0.2610 -0.2259  0.0095
   67POPC   C3B 1116   2.236   7.486   5.750  0.0981  0.4273 -0.0931
   67POPC   C4B 1117   2.116   7.132   5.501 -0.3083 -0.1244 -0.1724
   68POPC   NC3 1118   6.256   9.091   7.240 -0.0157 -0.1126  0.0192
   68POPC   PO4 1119   5.998   8.742   7.086 -0.0919  0.3494  0.1440
   68POPC   GL1 1120   6.055   8.709   6.667  0.0234 -0.1773  0.0960
   68POPC   GL2 1121   5.900   8.635   6.324  0.1993  0.0670  0.1521
   68POPC   C1A 1122   6.416   8.677   6.362 -0.2399  0.0532 -0.4074
   68POPC   D2A 1123   6.666   8.306   6.211 -0.1166  0.3153 -0.1895
   68POPC   C3A 1124   6.383   7.874   6.223  0.1755  0.1457 -0.0301
   68POPC   C4A 1125   6.358   7.486   6.088  0.3224  0.3068 -0.1189
   68POPC   C1B 1126   6.131   8.896   6.049 -0.3092 -0.2904  0.0106
   68POPC   C2B 1127   6.240   8.905   5.602  0.0750  0.1246  0.2884
   68POPC   C3B 1128   6.334   8.988   5.321  0.1064  0.0025  0.2365
   68POPC   C4B 1129   6.679   9.132   5.101  0.0918 -0.1547 -0.2080
   69POPC   NC3 1130   0.998   5.448   7.785 -0.1175  0.0864 -0.2415
   69POPC   PO4 1131   1.293   5.726   7.681 -0.0723  0.1935  0.1521
   69POPC   GL1 1132   1.251   5.644   7.174  0.0707  0.1950  0.1697
   69POPC   GL2 1133   1.376   5.832   6.897  0.1906  0.0187  0.1939
   69POPC   C1A 1134   0.845   5.600   6.887 -0.0361 -0.1548  0.0927
   69POPC   D2A 1135   0.638   5.630   6.656 -0.0101  0.1593  0.1276
   69POPC   C3A 1136   0.263   5.357   6.528  0.0199 -0.0058  0.1591
   69POPC   C4A 1137   0.085   4.889   6.518  0.0150 -0.0924  0.0690
   69POPC   C1B 1138   1.472   5.713   6.520  0.1405 -0.2607 -0.1103
   69POPC   C2B 1139   1.731   5.673   6.200 -0.0463 -0.1111  0.2880
   69POPC   C3B 1140   1.596   5.810   5.853 -0.0203 -0.2098 -0.1301
   69POPC   C4B 1141   1.337   5.862   5.555 -0.0743 -0.3628 -0.0430
   70POPC   NC3 1142  10.229   2.331   7.544 -0.2522  0.3040  0.0623
   70POPC   PO4 1143  10.196   2.045   7.214 -0.1210 -0.0720 -0.1210
   70POPC   GL1 1144  10.395   1.940   6.740 -0.0412  0.2458  0.2214
   70POPC   GL2 1145  10.523   1.631   6.799 -0.0149  0.0359  0.3698
   70POPC   C1A 1146  10.246   1.789   6.292 -0.3120  0.0683  0.1867
   70POPC   D2A 1147  10.151   1.971   5.924 -0.1197 -0.2472 -0.0341
   70POPC   C3A 1148   9.809   1.984   5.627  0.0381  0.1972  0.2327
   70POPC   C4A 1149   9.390   1.991   5.547 -0.3477  0.3363 -0.0189
   70POPC   C1B 1150  10.694   1.663   6.407 -0.3433 -0.1485  0.2034
   70POPC   C2B 1151  10.773   1.724   6.036  0.1895  0.0845 -0.3953
   70POPC   C3B 1152  10.614   1.745   5.698 -0.0977  0.1972  0.1090
   70POPC   C4B 1153  10.369   1.620   5.449  0.2671 -0.0051 -0.0244
   71POPC   NC3 1154   7.066   1.763   7.195  0.2582  0.0418  0.1549
   71POPC   PO4 1155   6.983   2.277   7.265 -0.1448 -0.1146 -0.3241
   71POPC   GL1 1156   6.870   2.114   6.877 -0.0265  0.0217  0.2849
   71POPC   GL2 1157   6.631   2.267   6.716  0.1379 -0.0772 -0.0647
   71POPC   C1A 1158   6.957   1.940   6.455  0.2940 -0.1513 -0.2209
   71POPC   D2A 1159   6.988   1.965   6.064  0.0397  0.2014  0.2846
   71POPC   C3A 1160   7.120   2.270   5.798  0.2590  0.0575  0.2429
   71POPC   C4A 1161   6.973   2.346   5.422 -0.0680 -0.0848  0.0757
   71POPC   C1B 1162   6.622   2.221   6.282 -0.0911  0.1094 -0.1030
   71POPC   C2B 1163   6.586   2.229   5.824 -0.1602 -0.3665 -0.1299
   71POPC   C3B 1164   6.383   2.258   5.425  0.0420  0.3169 -0.1896
   71POPC   C4B 1165   5.903   2.334   5.346 -0.0437  0.2747 -0.1783
   72POPC   NC3 1166   7.806  10.682   7.393 -0.2429 -0.0033  0.0851
   72POPC   PO4 1167   7.515  10.953   7.185  0.3074 -0.0866 -0.0825
   72POPC   GL1 1168   7.540  11.007   6.783  0.0317 -0.2832  0.2024
   72POPC   GL2 1169   7.355  11.278   6.710 -0.1219  0.1228  0.2000
   72POPC   C1A 1170   7.550  10.876   6.354 -0.1579  0.1156  0.0249
   72POPC   D2A 1171   7.792  10.945   5.900  0.1253 -0.1820  0.4739
   72POPC   C3A 1172   8.096  10.550   5.746 -0.0793  0.0558  0.0141
   72POPC   C4A 1173   8.500  10.610   5.567  0.2327 -0.0331  0.1386
   72POPC   C1B 1174   6.933  11.430   6.672  0.0554  0.2957  0.2148
   72POPC   C2B 1175   6.869  11.711   6.267 -0.0280  0.2615  0.0735
   72POPC   C3B 1176   6.951  12.034   5.933  0.0276 -0.2476  0.5278
   72POPC   C4B 1177   6.859  12.025   5.516  0.0507  0.0666  0.0781
   73POPC   NC3 1178   4.584   7.178   7.215 -0.1429 -0.0148  0.0662
   73POPC   PO4 1179   5.056   6.970   7.119  0.0012  0.0144  0.1219
   73POPC   GL1 1180   4.967   7.096   6.735  0.0218 -0.1644  0.0544
   73POPC   GL2 1181   4.637   7.051   6.692 -0.2545  0.1719 -0.0659
   73POPC   C1A 1182   4.885   6.992   6.245  0.3185 -0.2114  0.2889
   73POPC   D2A 1183   5.062   6.981   5.806  0.0281  0.0521 -0.1520
   73POPC   C3A 1184   5.290   6.729   5.488 -0.1034 -0.1237  0.0234
   73POPC   C4A 1185   5.716   6.671   5.582  0.1397 -0.1538  0.0762
   73POPC   C1B 1186   4.700   7.509   6.569 -0.1172  0.1972  0.2188
   73POPC   C2B 1187   4.707   7.864   6.231 -0.0840  0.3640  0.0044
   73POPC   C3B 1188   4.917   8.004   5.883 -0.2489  0.1807 -0.2386
   73POPC   C4B 1189   5.171   8.229   5.615  0.0210  0.2552  0.1394
   74POPC   NC3 1190   7.502   8.259   7.015 -0.1933 -0.0440 -0.3250
   74POPC   PO4 1191   7.918   8.039   6.929  0.3618  0.1063  0.3038
   74POPC   GL1 1192   7.800   8.076   6.563 -0.0868  0.1787  0.2655
   74POPC   GL2 1193   7.735   7.802   6.567 -0.0389 -0.3063 -0.0973
   74POPC   C1A 1194   7.645   8.084   6.104 -0.2848  0.0597  0.0761
   74POPC   D2A 1195   7.424   8.243   5.659 -0.0183  0.2185 -0.0089
   74POPC   C3A 1196   7.149   8.493   5.419 -0.1877  0.0513 -0.2501
   74POPC   C4A 1197   6.714   8.700   5.462  0.2121  0.1809  0.2320
   74POPC   C1B 1198   7.767   7.588   6.231 -0.0897  0.0412 -0.4148
   74POPC   C2B 1199   7.332   7.581   6.019  0.1303  0.1190  0.0143
   74POPC   C3B 1200   7.189   7.496   5.618 -0.0632 -0.0901 -0.2456
   74POPC   C4B 1201   6.962   7.366   5.283  0.2118  0.0054  0.0571
   75POPC   NC3 1202   4.166   9.816   8.320  0.0550 -0.1381 -0.2339
   75POPC   PO4 1203   3.600   9.698   8.173  0.0355 -0.2685 -0.0565
   75POPC   GL1 1204   3.643   9.520   7.793  0.2108 -0.1788  0.2890
   75POPC   GL2 1205   3.471   9.585   7.448  0.3526 -0.0283 -0.1302
   75POPC   C1A 1206   3.958   9.326   7.521 -0.1911  0.0912  0.3724
   75POPC   D2A 1207   4.058   8.905   7.373  0.1735  0.0199  0.0836
   75POPC   C3A 1208   4.464   8.981   7.190 -0.1780 -0.2849  0.0532
   75POPC   C4A 1209   4.509   9.272   6.807 -0.2801 -0.0791  0.2528
   75POPC   C1B 1210   3.404   9.448   6.984 -0.1901 -0.0152  0.1329
   75POPC   C2B 1211   3.481   9.330   6.526 -0.2539 -0.3120 -0.3251
   75POPC   C3B 1212   3.239   9.389   6.237  0.0659 -0.0682  0.1882
   75POPC   C4B 1213   2.875   9.420   5.938 -0.1087 -0.2610  0.0743
   76POPC   NC3 1214   1.947   3.403   7.789  0.1831  0.2172 -0.1980
   76POPC   PO4 1215   1.466   3.355   7.605  0.1282  0.2242  0.2530
   76POPC   GL1 1216   1.397   3.187   7.206  0.2846 -0.1266  0.0031
   76POPC   GL2 1217   1.184   3.026   7.014 -0.1397 -0.1442  0.1642
   76POPC   C1A 1218   1.580   3.280   6.834  0.0291  0.2428 -0.0500
   76POPC   D2A 1219   1.980   3.430   6.621  0.0578 -0.1061 -0.0199
   76POPC   C3A 1220   2.006   3.358   6.260 -0.4340  0.0114 -0.2257
   76POPC   C4A 1221   2.241   3.435   5.947  0.2670  0.1296  0.2208
   76POPC   C1B 1222   1.200   3.135   6.470  0.0111  0.0566  0.0926
   76POPC   C2B 1223   1.504   3.284   6.029 -0.3302  0.0250 -0.0168
   76POPC   C3B 1224   1.733   3.234   5.639  0.0316 -0.1759 -0.1412
   76POPC   C4B 1225   1.595   3.232   5.164 -0.1081 -0.1754 -0.2595
   77POPC   NC3 1226   9.092   2.208   7.570 -0.1577 -0.1636 -0.2849
   77POPC   PO4 1227   9.399   2.614   7.380  0.0949 -0.1354  0.0949
   77POPC   GL1 1228   9.454   2.585   6.834 -0.1584  0.2251 -0.2720
   77POPC   GL2 1229   9.735   2.592   6.602  0.0907 -0.0402  0.3575
   77POPC   C1A 1230   9.328   2.321   6.490  0.2155  0.0786  0.0939
   77POPC   D2A 1231   9.335   2.266   6.005 -0.2176  0.1203 -0.2151
   77POPC   C3A 1232   9.068   2.318   5.800  0.0888  0.0210  0.1737
   77POPC   C4A 1233   8.846   2.146   5.494 -0.3125 -0.0424 -0.2021
   77POPC   C1B 1234   9.799   2.336   6.192  0.2886  0.2111 -0.1813
   77POPC   C2B 1235  10.166   2.510   5.771 -0.2426 -0.0373 -0.2109
   77POPC   C3B 1236  10.445   2.875   5.739  0.0331 -0.4497  0.1088
   77POPC   C4B 1237  10.721   3.141   5.720  0.1336  0.3731  0.0634
   78POPC   NC3 1238   4.734   0.219   8.193  0.0204  0.2784  0.2672
   78POPC   PO4 1239   5.113   0.185   7.927  0.0160 -0.1196  0.2693
   78POPC   GL1 1240   5.261   0.030   7.551  0.1168 -0.1057 -0.0209
   78POPC   GL2 1241   5.541   0.156   7.559 -0.1354  0.0067  0.0262
   78POPC   C1A 1242   5.239   0.163   7.134 -0.0985 -0.0514 -0.1649
   78POPC   D2A 1243   5.412   0.582   6.978 -0.2154 -0.0760 -0.4494
   78POPC   C3A 1244   5.653   0.620   6.669 -0.0624  0.1896  0.1254
   78POPC   C4A 1245   5.884   0.740   6.412 -0.1889  0.1588 -0.0480
   78POPC   C1B 1246   5.748   0.256   7.125  0.0691  0.0725 -0.0495
   78POPC   C2B 1247   6.031   0.203   6.731  0.0730 -0.1095 -0.0950
   78POPC   C3B 1248   6.315   0.416   6.616 -0.0181  0.0457 -0.0479
   78POPC   C4B 1249   6.724   0.441   6.261  0.0062 -0.0225 -0.1847
   79POPC   NC3 1250   9.723   2.031   7.531  0.0619 -0.0088  0.0605
   79POPC   PO4 1251   9.420   2.130   7.192 -0.2153  0.2533 -0.1004
   79POPC   GL1 1252   9.755   2.144   6.845  0.0392 -0.0608 -0.1096
   79POPC   GL2 1253   9.881   1.909   6.618 -0.1239 -0.1531 -0.1333
   79POPC   C1A 1254  10.121   2.333   6.660  0.1283  0.0017  0.0207
   79POPC   D2A 1255  10.243   2.694   6.272  0.0567 -0.2229  0.1709
   79POPC   C3A 1256  10.002   2.948   6.022  0.0072 -0.4590  0.1662
   79POPC   C4A 1257  10.110   3.292   5.732 -0.0064  0.2169  0.2732
   79POPC   C1B 1258   9.534   1.876   6.269  0.1796  0.0400  0.0406
   79POPC   C2B 1259   9.284   1.684   5.894  0.0326 -0.0125  0.2188
   79POPC   C3B 1260   9.074   1.350   5.592  0.2427 -0.1340 -0.0095
   79POPC   C4B 1261   8.730   1.216   5.507  0.1206  0.2083  0.1362
   80POPC   NC3 1262   6.678  10.406   7.542 -0.0284 -0.0712 -0.0114
   80POPC   PO4 1263   6.991  10.281   7.299 -0.0558 -0.0893  0.0061
   80POPC   GL1 1264   7.025  10.156   6.897 -0.0943 -0.1996 -0.0016
   80POPC   GL2 1265   7.302   9.940   6.659 -0.0538  0.0922 -0.2097
   80POPC   C1A 1266   6.726  10.410   6.524 -0.1927  0.1522 -0.0214
   80POPC   D2A 1267   6.503  10.763   6.332  0.0452 -0.3504  0.0643
   80POPC   C3A 1268   6.586  10.838   5.953 -0.0297  0.2908  0.0078
   80POPC   C4A 1269   6.814  11.067   5.669 -0.0104  0.0226 -0.0804
   80POPC   C1B 1270   6.914   9.943   6.429 -0.1207 -0.0042  0.2445
   80POPC   C2B 1271   6.572  10.100   6.080 -0.0062  0.1340 -0.0523
   80POPC   C3B 1272   6.317  10.427   5.958  0.1508 -0.0139  0.2378
   80POPC   C4B 1273   6.002  10.734   5.816  0.3422 -0.1333 -0.0697
   81POPC   NC3 1274   0.657   4.819   7.205 -0.0388  0.1471  0.2893
   81POPC   PO4 1275   0.747   4.341   7.292 -0.1742 -0.0550 -0.0960
   81POPC   GL1 1276   0.675   4.469   6.781  0.0965  0.0032 -0.1036
   81POPC   GL2 1277   0.524   4.133   6.784 -0.0322  0.0449 -0.2163
   81POPC   C1A 1278   0.878   4.705   6.432  0.3343  0.1023  0.0716
   81POPC   D2A 1279   0.887   4.534   6.065  0.2794 -0.1138  0.3458
   81POPC   C3A 1280   0.889   4.662   5.590  0.1622  0.0312  0.0605
   81POPC   C4A 1281   0.913   5.086   5.460  0.0845  0.2295  0.0773
   81POPC   C1B 1282   0.572   4.268   6.301 -0.1195  0.2195 -0.0626
   81POPC   C2B 1283   0.844   4.026   6.090  0.0659 -0.3423  0.0079
   81POPC   C3B 1284   0.779   3.735   5.800 -0.0503  0.1630 -0.0517
   81POPC   C4B 1285   0.568   3.437   5.652  0.0693 -0.4696  0.2952
   82POPC   NC3 1286   6.919   0.535   7.999 -0.2260  0.0829 -0.1862
   82POPC   PO4 1287   6.684   0.215   7.762  0.0381 -0.2328 -0.1748
   82POPC   GL1 1288   6.402   0.227   7.458  0.1226 -0.2139  0.0070
   82POPC   GL2 1289   6.300  -0.096   7.252  0.0233 -0.3457 -0.0463
   82POPC   C1A 1290   6.293   0.495   7.139  0.2314 -0.1966  0.0873
   82POPC   D2A 1291   6.086   0.741   6.893  0.0234 -0.1837  0.1766
   82POPC   C3A 1292   6.412   0.897   6.491 -0.0239  0.0392  0.1656
   82POPC   C4A 1293   6.367   1.185   6.126  0.1625  0.0651  0.1545
   82POPC   C1B 1294   6.469   0.018   6.936  0.2050  0.1238 -0.0793
   82POPC   C2B 1295   6.846   0.164   6.716  0.3966 -0.0831 -0.2733
   82POPC   C3B 1296   7.034   0.091   6.369  0.1302 -0.4397 -0.1578
   82POPC   C4B 1297   7.181   0.151   5.952 -0.0879  0.0270 -0.0980
   83POPC   NC3 1298   5.712   3.793   7.571 -0.1621 -0.0536 -0.0715
   83POPC   PO4 1299   5.555   3.772   7.110 -0.0550  0.1958 -0.0127
   83POPC   GL1 1300   5.177   3.818   6.820  0.0013  0.0141 -0.2986
   83POPC   GL2 1301   4.879   3.992   6.923 -0.2053 -0.2339  0.0667
   83POPC   C1A 1302   5.105   3.609   6.461 -0.2213 -0.3258 -0.0268
   83POPC   D2A 1303   5.286   3.738   6.091 -0.2851 -0.0607  0.1582
   83POPC   C3A 1304   5.050   3.727   5.657  0.1918 -0.0120 -0.0763
   83POPC   C4A 1305   4.832   3.939   5.281  0.2970  0.0581  0.0037
   83POPC   C1B 1306   4.749   4.135   6.581 -0.3624  0.1380  0.1850
   83POPC   C2B 1307   4.905   4.015   6.139 -0.0836  0.0927 -0.1753
   83POPC   C3B 1308   5.185   4.235   5.770 -0.2290  0.0262 -0.0976
   83POPC   C4B 1309   5.183   4.515   5.427 -0.4765 -0.1155  0.1704
   84POPC   NC3 1310   4.572   3.977   7.332 -0.2716 -0.1584 -0.0752
   84POPC   PO4 1311   4.225   4.127   7.226  0.0543  0.1911  0.3680
   84POPC   GL1 1312   4.514   4.390   7.025  0.1695  0.0038 -0.0727
   84POPC   GL2 1313   4.691   4.697   7.078 -0.0809 -0.0136 -0.2530
   84POPC   C1A 1314   4.573   4.583   6.576 -0.4010 -0.0362  0.1418
   84POPC   D2A 1315   4.286   4.631   6.225  0.0101  0.2624 -0.1829
   84POPC   C3A 1316   4.082   4.465   5.906  0.2229 -0.1740 -0.0714
   84POPC   C4A 1317   3.839   4.341   5.564  0.1625  0.0868 -0.4531
   84POPC   C1B 1318   5.017   4.554   6.771 -0.0385 -0.3508 -0.1440
   84POPC   C2B 1319   5.144   4.501   6.375  0.1151  0.1930  0.0121
   84POPC   C3B 1320   4.837   4.505   6.029 -0.3093  0.0554 -0.2168
   84POPC   C4B 1321   4.652   4.896   5.981 -0.0901 -0.0009  0.1169
   85POPC   NC3 1322   9.140   0.095   7.421  0.0606  0.1836  0.1687
   85POPC   PO4 1323   8.886   0.457   7.179  0.4903  0.0825  0.0533
   85POPC   GL1 1324   8.821   0.439   6.820 -0.0480  0.1794  0.0315
   85POPC   GL2 1325   9.118   0.519   6.576 -0.0173  0.2975  0.0065
   85POPC   C1A 1326   8.669   0.358   6.439 -0.0586  0.5690  0.2298
   85POPC   D2A 1327   9.028   0.255   6.095 -0.0859 -0.1819  0.1255
   85POPC   C3A 1328   8.854   0.372   5.647  0.1437  0.3402  0.2914
   85POPC   C4A 1329   8.773   0.186   5.186  0.4524  0.3034 -0.1327
   85POPC   C1B 1330   9.116   0.795   6.150  0.2745 -0.0711  0.1980
   85POPC   C2B 1331   8.984   0.966   5.861 -0.1220  0.1810  0.1625
   85POPC   C3B 1332   9.043   0.818   5.470 -0.1933 -0.1153  0.1617
   85POPC   C4B 1333   9.200   0.497   5.239 -0.1218  0.1151  0.1141
   86POPC   NC3 1334   0.204   4.183   7.227  0.0807  0.3298  0.0645
   86POPC   PO4 1335   0.612   3.838   7.275  0.1218  0.0022  0.3169
   86POPC   GL1 1336   0.982   3.875   6.994 -0.0685  0.1818 -0.0114
   86POPC   GL2 1337   1.183   4.152   7.024 -0.0640  0.0783 -0.2713
   86POPC   C1A 1338   1.027   4.144   6.549  0.1358 -0.2175 -0.1758
   86POPC   D2A 1339   1.345   4.158   6.238 -0.0830  0.1973  0.2416
   86POPC   C3A 1340   1.352   4.008   5.774  0.0328 -0.0791  0.3582
   86POPC   C4A 1341   0.963   4.145   5.549 -0.0369  0.2527 -0.0430
   86POPC   C1B 1342   1.549   4.387   6.916 -0.3546 -0.0684 -0.1361
   86POPC   C2B 1343   1.903   4.427   6.563  0.3175 -0.0411  0.2373
   86POPC   C3B 1344   1.833   4.321   6.154 -0.1533  0.0505  0.4359
   86POPC   C4B 1345   1.875   4.421   5.724  0.1319 -0.0006  0.3061
   87POPC   NC3 1346  10.089   0.233   7.467  0.1667  0.0896  0.1279
   87POPC   PO4 1347  10.378   0.271   7.223 -0.1341  0.1922 -0.2009
   87POPC   GL1 1348  10.277   0.443   6.825 -0.0436 -0.2045  0.0930
   87POPC   GL2 1349  10.269   0.781   6.804  0.3852  0.1819  0.0265
   87POPC   C1A 1350  10.413   0.268   6.458 -0.0653  0.0111 -0.1268
   87POPC   D2A 1351  10.778   0.172   6.451  0.0088 -0.0989  0.0450
   87POPC   C3A 1352  10.926   0.390   6.197 -0.3950  0.3031 -0.0755
   87POPC   C4A 1353  11.091   0.480   5.780  0.0852  0.0861 -0.1461
   87POPC   C1B 1354  10.066   0.790   6.381 -0.0581  0.0638  0.2219
   87POPC   C2B 1355  10.279   0.932   5.903  0.1046 -0.0011 -0.0883
   87POPC   C3B 1356  10.344   1.067   5.428  0.0111  0.3579  0.2524
   87POPC   C4B 1357  10.019   1.289   5.110 -0.0724  0.1153  0.3930
   88POPC   NC3 1358   3.804   3.867   7.443 -0.1034 -0.0342  0.1043
   88POPC   PO4 1359   4.114   3.564   7.309  0.4381  0.2440  0.2127
   88POPC   GL1 1360   4.241   3.598   7.021 -0.1058 -0.0931 -0.0225
   88POPC   GL2 1361   4.421   3.810   6.841 -0.0728  0.0220 -0.2354
   88POPC   C1A 1362   3.990   3.535   6.595 -0.0065  0.2111 -0.0439
   88POPC   D2A 1363   4.106   3.647   6.220  0.1222 -0.5702 -0.0201
   88POPC   C3A 1364   3.955   3.395   5.957 -0.2687  0.0150  0.0213
   88POPC   C4A 1365   4.228   3.317   5.630  0.1315  0.0157 -0.1364
   88POPC   C1B 1366   4.580   3.669   6.385  0.0311  0.0541 -0.0842
   88POPC   C2B 1367   4.545   3.710   5.905 -0.1180 -0.3030 -0.1917
   88POPC   C3B 1368   4.577   4.199   5.688  0.5118 -0.2191  0.1910
   88POPC   C4B 1369   4.456   4.578   5.583  0.1565 -0.0104 -0.2405
   89POPC   NC3 1370   4.793   3.464   7.019 -0.1637 -0.1571 -0.2451
   89POPC   PO4 1371   5.133   3.175   7.353 -0.1641  0.0094 -0.2446
   89POPC   GL1 1372   5.147   3.063   6.945 -0.2035  0.0615 -0.2176
   89POPC   GL2 1373   5.350   3.385   6.875 -0.1231  0.0741  0.3391
   89POPC   C1A 1374   5.165   2.812   6.639  0.0809 -0.2346 -0.0899
   89POPC   D2A 1375   5.157   2.418   6.355  0.1075 -0.0067  0.3099
   89POPC   C3A 1376   5.439   2.206   6.154 -0.0315  0.0017  0.0814
   89POPC   C4A 1377   5.633   1.972   5.711 -0.2467 -0.2640 -0.0123
   89POPC   C1B 1378   5.405   3.200   6.378  0.0957 -0.3808  0.3845
   89POPC   C2B 1379   5.199   2.914   6.127  0.2179  0.2479 -0.1843
   89POPC   C3B 1380   5.082   2.755   5.754 -0.2322  0.0862  0.0370
   89POPC   C4B 1381   5.117   2.825   5.248  0.2177 -0.4782 -0.1145
   90POPC   NC3 1382   9.624   4.861   7.199  0.0791  0.0670 -0.1235
   90POPC   PO4 1383   9.629   5.395   6.970 -0.1545  0.1553  0.3228
   90POPC   GL1 1384   9.541   5.413   6.552  0.0945 -0.1512 -0.0201
   90POPC   GL2 1385   9.214   5.444   6.472  0.2080  0.0221 -0.0197
   90POPC   C1A 1386   9.809   5.286   6.319  0.1976 -0.0925  0.0499
   90POPC   D2A 1387   9.963   5.078   6.046 -0.1585 -0.1933  0.0921
   90POPC   C3A 1388  10.217   5.054   5.684 -0.1406  0.1181  0.1101
   90POPC   C4A 1389  10.256   4.911   5.283 -0.1570  0.0050  0.0732
   90POPC   C1B 1390   9.152   5.607   6.159  0.0833 -0.2064  0.2604
   90POPC   C2B 1391   8.905   5.668   5.712 -0.1712  0.1512 -0.0362
   90POPC   C3B 1392   8.805   5.371   5.403 -0.0179 -0.0692 -0.2825
   90POPC   C4B 1393   9.010   5.305   5.051 -0.1200 -0.1372 -0.1707
   91POPC   NC3 1394   1.361   6.141   7.318  0.0042 -0.2337  0.1654
   91POPC   PO4 1395   1.166   6.497   7.330  0.1095 -0.0748  0.4311
   91POPC   GL1 1396   1.236   6.451   6.841  0.2351 -0.0900  0.1458
   91POPC   GL2 1397   1.033   6.194   6.871 -0.0394  0.0450  0.0725
   91POPC   C1A 1398   1.219   6.399   6.390 -0.1911 -0.0953  0.2019
   91POPC   D2A 1399   1.186   6.053   6.062 -0.1165  0.0473 -0.1103
   91POPC   C3A 1400   0.737   5.977   6.092 -0.3447  0.1599  0.0327
   91POPC   C4A 1401   0.472   5.615   6.136 -0.0100 -0.2565 -0.0626
   91POPC   C1B 1402   1.000   5.907   6.513  0.0314  0.0610 -0.1865
   91POPC   C2B 1403   1.031   5.512   6.210 -0.0165  0.3462  0.0500
   91POPC   C3B 1404   1.106   5.528   5.843 -0.0725  0.2609 -0.1328
   91POPC   C4B 1405   1.335   5.329   5.450 -0.0312 -0.2497 -0.1457
   92POPC   NC3 1406   6.977   1.321   7.492 -0.1727  0.3088  0.1410
   92POPC   PO4 1407   7.076   0.985   7.303 -0.0944  0.2529 -0.1139
   92POPC   GL1 1408   7.159   1.088   6.902  0.0570  0.1612 -0.1122
   92POPC   GL2 1409   7.137   1.347   6.865  0.3486 -0.3287 -0.0898
   92POPC   C1A 1410   7.305   1.054   6.531  0.0187 -0.0332  0.2017
   92POPC   D2A 1411   7.473   1.117   6.095 -0.1493 -0.2372 -0.0887
   92POPC   C3A 1412   7.370   1.043   5.695 -0.1902  0.3740  0.0513
   92POPC   C4A 1413   7.506   0.888   5.231 -0.2715  0.2649  0.2793
   92POPC   C1B 1414   6.849   1.417   6.538 -0.0451  0.0616 -0.3132
   92POPC   C2B 1415   6.589   1.670   6.132 -0.0964  0.0796 -0.0377
   92POPC   C3B 1416   6.659   1.784   5.721 -0.2166  0.0667 -0.0974
   92POPC   C4B 1417   6.998   1.803   5.599  0.0405 -0.0280  0.0873
   93POPC   NC3 1418   3.495   4.172   7.260  0.2213  0.1150  0.1114
   93POPC   PO4 1419   3.800   4.516   7.350  0.0634 -0.0750 -0.2621
   93POPC   GL1 1420   3.826   4.644   7.064  0.0174 -0.0182 -0.0977
   93POPC   GL2 1421   3.571   4.657   6.827 -0.0409  0.4131 -0.1173
   93POPC   C1A 1422   4.178   4.728   6.801 -0.1697 -0.0541  0.0649
   93POPC   D2A 1423   3.993   4.935   6.487  0.0856  0.2551  0.3477
   93POPC   C3A 1424   3.796   4.589   6.396  0.2392  0.1492 -0.1025
   93POPC   C4A 1425   3.769   4.151   6.342 -0.1204  0.1334 -0.1570
   93POPC   C1B 1426   3.295   4.454   6.537 -0.2888 -0.0840 -0.1631
   93POPC   C2B 1427   3.010   4.525   6.076 -0.0008 -0.1762 -0.1949
   93POPC   C3B 1428   3.105   4.753   5.613  0.2403  0.2799  0.3460
   93POPC   C4B 1429   2.887   4.999   5.391 -0.0286 -0.1609  0.3484
   94POPC   NC3 1430   9.650   9.270   6.906  0.1462  0.3335  0.1614
   94POPC   PO4 1431   9.818   9.007   6.917 -0.0142  0.0069  0.1525
   94POPC   GL1 1432   9.892   9.020   6.465 -0.2929  0.3251 -0.0365
   94POPC   GL2 1433   9.858   9.349   6.406 -0.1028  0.0564  0.1890
   94POPC   C1A 1434   9.854   8.791   6.083  0.0895 -0.0064 -0.0512
   94POPC   D2A 1435   9.904   8.751   5.686 -0.2922  0.1710  0.0535
   94POPC   C3A 1436   9.584   8.587   5.551 -0.0517  0.1637  0.0003
   94POPC   C4A 1437   9.176   8.393   5.552 -0.1761  0.1550  0.0430
   94POPC   C1B 1438   9.580   9.397   6.103 -0.0181  0.1653  0.0289
   94POPC   C2B 1439   9.394   9.515   5.657  0.0697 -0.2996 -0.2955
   94POPC   C3B 1440   9.143   9.435   5.270 -0.1423 -0.1503 -0.4218
   94POPC   C4B 1441   8.802   9.211   5.138 -0.1842 -0.0793 -0.4090
   95POPC   NC3 1442   3.932   7.007   7.239 -0.6148  0.2349  0.1753
   95POPC   PO4 1443   3.779   6.571   7.371  0.0689 -0.5254 -0.1058
   95POPC   GL1 1444   3.554   6.361   7.047  0.1096  0.1448 -0.2783
   95POPC   GL2 1445   3.552   6.774   6.970  0.1202  0.0544 -0.1048
   95POPC   C1A 1446   3.525   6.425   6.577 -0.2345  0.0874 -0.1775
   95POPC   D2A 1447   3.471   6.646   6.119 -0.2611  0.4599 -0.1245
   95POPC   C3A 1448   3.231   6.458   5.806  0.0097  0.2047 -0.0849
   95POPC   C4A 1449   2.840   6.396   5.531  0.1138  0.1981 -0.0143
   95POPC   C1B 1450   3.742   6.877   6.506  0.2644 -0.0149 -0.2603
   95POPC   C2B 1451   3.790   7.168   6.087  0.2049 -0.0929 -0.2925
   95POPC   C3B 1452   3.798   7.437   5.767 -0.1107  0.0928  0.1155
   95POPC   C4B 1453   3.571   7.815   5.693 -0.1661  0.1201  0.3168
   96POPC   NC3 1454   0.818   7.790   7.102 -0.1124  0.0081 -0.2987
   96POPC   PO4 1455   0.367   7.715   7.193  0.0449  0.3251  0.2196
   96POPC   GL1 1456   0.559   7.524   6.790  0.1117  0.2160  0.1351
   96POPC   GL2 1457   0.351   7.480   6.520  0.0761  0.0417  0.6046
   96POPC   C1A 1458   0.843   7.603   6.432  0.2038  0.0366  0.2517
   96POPC   D2A 1459   1.242   7.673   6.024 -0.1378 -0.1033 -0.1596
   96POPC   C3A 1460   1.162   7.500   5.589 -0.0910  0.0443 -0.2126
   96POPC   C4A 1461   0.873   7.378   5.231 -0.0793 -0.3913  0.0272
   96POPC   C1B 1462  -0.140   7.521   6.369 -0.1310  0.0318  0.1854
   96POPC   C2B 1463  -0.124   7.369   5.916  0.0239 -0.4281  0.0372
   96POPC   C3B 1464   0.070   7.633   5.586  0.2147  0.1077  0.0660
   96POPC   C4B 1465   0.264   7.474   5.217 -0.2382  0.0560 -0.0198
   97POPC   NC3 1466   0.436   0.531   7.263 -0.0299 -0.3252  0.0036
   97POPC   PO4 1467   0.881   0.396   7.356  0.0072  0.2935  0.2124
   97POPC   GL1 1468   0.973   0.381   6.920 -0.2738 -0.1539 -0.3101
   97POPC   GL2 1469   1.310   0.203   6.883  0.0534  0.0363  0.2474
   97POPC   C1A 1470   0.940   0.820   6.629 -0.2754 -0.2725  0.3715
   97POPC   D2A 1471   0.686   1.117   6.252  0.1053 -0.2626 -0.2758
   97POPC   C3A 1472   0.883   1.315   5.919  0.0364 -0.0200  0.0028
   97POPC   C4A 1473   0.986   1.200   5.363 -0.0949 -0.0972  0.3083
   97POPC   C1B 1474   1.535  -0.022   6.599  0.0536  0.0773  0.2024
   97POPC   C2B 1475   1.569  -0.282   6.249 -0.0921  0.3138 -0.0151
   97POPC   C3B 1476   1.617   0.122   5.903 -0.1266  0.1752 -0.0769
   97POPC   C4B 1477   1.852   0.386   5.525 -0.0484  0.2265 -0.1403
   98POPC   NC3 1478  10.466   9.741   6.872  0.1330  0.2632  0.0386
   98POPC   PO4 1479  10.898   9.785   6.773  0.1085  0.0853 -0.0202
   98POPC   GL1 1480  10.939   9.433   6.468  0.1488 -0.1008 -0.4087
   98POPC   GL2 1481  11.291   9.371   6.367  0.1878  0.0485  0.3363
   98POPC   C1A 1482  10.739   9.123   6.154  0.1032 -0.1799 -0.2038
   98POPC   D2A 1483  10.603   8.864   5.837 -0.0538  0.0695  0.0989
   98POPC   C3A 1484  10.393   8.761   5.418  0.0932 -0.1598  0.1429
   98POPC   C4A 1485  10.367   8.401   5.135 -0.0949 -0.0621  0.1513
   98POPC   C1B 1486  11.408   9.649   6.019  0.1757 -0.0073  0.1486
   98POPC   C2B 1487  11.476   9.931   5.688 -0.1908 -0.1163 -0.0740
   98POPC   C3B 1488  11.266   9.975   5.245  0.2776 -0.4390  0.2754
   98POPC   C4B 1489  11.077   9.975   4.850  0.2030 -0.1526  0.0680
   99POPC   NC3 1490  10.394   7.213   7.105 -0.2943  0.1740  0.2372
   99POPC   PO4 1491  10.222   7.517   7.043  0.2290  0.2992 -0.0305
   99POPC   GL1 1492   9.966   7.601   6.720 -0.1371 -0.2855  0.1001
   99POPC   GL2 1493  10.197   7.938   6.707 -0.0105 -0.0013 -0.1541
   99POPC   C1A 1494   9.640   7.501   6.350  0.1083 -0.0649  0.0001
   99POPC   D2A 1495   9.317   7.294   6.312 -0.1542  0.1318 -0.1918
   99POPC   C3A 1496   9.012   7.052   6.078 -0.3086  0.0781 -0.0605
   99POPC   C4A 1497   8.762   6.672   5.886  0.0926  0.1967 -0.1080
   99POPC   C1B 1498  10.408   8.113   6.447 -0.2866  0.1975  0.0979
   99POPC   C2B 1499  10.592   8.373   6.168 -0.0453 -0.3281 -0.1346
   99POPC   C3B 1500  11.052   8.598   5.944 -0.0545 -0.2354  0.2076
   99POPC   C4B 1501  11.429   8.776   5.609 -0.0854  0.0154  0.0121
  100POPC   NC3 1502   7.171   6.361   6.873  0.1051 -0.0369  0.0476
  100POPC   PO4 1503   7.038   6.778   7.120 -0.0615  0.0732  0.0728
  100POPC   GL1 1504   7.081   6.843   6.700 -0.0320 -0.0166  0.2310
  100POPC   GL2 1505   6.747   6.813   6.601  0.0831 -0.2384 -0.2284
  100POPC   C1A 1506   7.105   7.144   6.425  0.0034  0.0483 -0.1523
  100POPC   D2A 1507   6.908   7.225   6.011  0.0970 -0.1086  0.0165
  100POPC   C3A 1508   7.046   7.057   5.639 -0.3734  0.1355  0.0604
  100POPC   C4A 1509   7.267   6.866   5.333  0.1401 -0.3781 -0.0684
  100POPC   C1B 1510   6.846   6.749   6.140 -0.0500  0.1080 -0.1960
  100POPC   C2B 1511   6.743   6.633   5.729  0.1435 -0.1502  0.0265
  100POPC   C3B 1512   6.763   6.775   5.308  0.1337 -0.0438  0.1007
  100POPC   C4B 1513   7.057   6.549   5.009  0.2901 -0.2076  0.1503
  101POPC   NC3 1514   9.464  10.044   7.151 -0.1172  0.0154  0.1077
  101POPC   PO4 1515   9.437   9.636   7.145  0.0381  0.2283 -0.0145
  101POPC   GL1 1516   9.513   9.715   6.737 -0.2275 -0.3825 -0.0078
  101POPC   GL2 1517   9.490  10.065   6.643 -0.3491  0.0504 -0.1944
  101POPC   C1A 1518   9.513   9.840   6.231  0.3169 -0.0856 -0.0043
  101POPC   D2A 1519   9.367  10.080   5.863  0.1814  0.0673  0.3582
  101POPC   C3A 1520   9.518  10.405   5.525 -0.2762  0.1392 -0.0741
  101POPC   C4A 1521   9.741  10.789   5.450  0.0324  0.0539 -0.2991
  101POPC   C1B 1522   9.772  10.385   6.382  0.0340  0.1443 -0.0993
  101POPC   C2B 1523   9.874  10.324   5.879  0.3846  0.0167  0.1604
  101POPC   C3B 1524  10.248  10.221   5.795  0.2419 -0.0958  0.0317
  101POPC   C4B 1525  10.435   9.851   5.800  0.2345 -0.0217  0.1348
  102POPC   NC3 1526   8.733   1.497   7.504  0.0460 -0.0149 -0.0505
  102POPC   PO4 1527   8.557   1.297   7.075 -0.0903 -0.1056  0.0494
  102POPC   GL1 1528   8.455   1.253   6.645  0.0699  0.1028 -0.3917
  102POPC   GL2 1529   8.209   0.902   6.574  0.0071 -0.0398 -0.5174
  102POPC   C1A 1530   8.474   1.022   6.178 -0.1191 -0.2345  0.1122
  102POPC   D2A 1531   8.570   0.693   5.945  0.3601  0.2711  0.0278
  102POPC   C3A 1532   8.479   0.704   5.522  0.2789  0.3442  0.0017
  102POPC   C4A 1533   8.612   0.651   5.109  0.4533  0.4664 -0.0347
  102POPC   C1B 1534   7.999   0.960   6.197 -0.0396 -0.2885 -0.4070
  102POPC   C2B 1535   8.043   0.672   5.839 -0.0539 -0.0321  0.1607
  102POPC   C3B 1536   8.037   0.666   5.351 -0.1816 -0.0703 -0.5249
  102POPC   C4B 1537   8.330   1.077   5.223  0.1211 -0.1942  0.0134
  103POPC   NC3 1538   7.125   3.461   7.249 -0.1352 -0.1320 -0.2006
  103POPC   PO4 1539   7.557   3.578   7.241 -0.0383  0.0796 -0.0636
  103POPC   GL1 1540   7.706   3.503   6.828 -0.2786 -0.1107 -0.0941
  103POPC   GL2 1541   7.775   3.831   6.699  0.0977 -0.4603  0.3062
  103POPC   C1A 1542   7.658   3.452   6.404  0.3383 -0.1096  0.1508
  103POPC   D2A 1543   7.339   3.591   6.079  0.1063 -0.0996  0.0094
  103POPC   C3A 1544   7.170   3.335   5.771 -0.0526  0.0172  0.2255
  103POPC   C4A 1545   7.193   2.813   5.633  0.0807  0.0346 -0.0914
  103POPC   C1B 1546   7.692   3.970   6.379 -0.2158 -0.0990  0.2657
  103POPC   C2B 1547   7.525   4.320   6.131  0.2087  0.0243  0.1363
  103POPC   C3B 1548   7.326   4.143   5.738 -0.0215 -0.4882 -0.4212
  103POPC   C4B 1549   7.009   4.089   5.437  0.0670 -0.0969  0.1707
  104POPC   NC3 1550   4.348   6.498   7.965  0.2205 -0.2493  0.1365
  104POPC   PO4 1551   4.235   6.701   7.594 -0.2187 -0.0614  0.2875
  104POPC   GL1 1552   4.365   6.694   7.091 -0.0067 -0.1155  0.2127
  104POPC   GL2 1553   4.654   6.641   6.942  0.1474 -0.0798  0.1666
  104POPC   C1A 1554   4.137   6.604   6.742  0.0798  0.0575 -0.0537
  104POPC   D2A 1555   4.143   6.752   6.317 -0.0365 -0.1207  0.2466
  104POPC   C3A 1556   3.954   6.649   5.902 -0.2582 -0.0616 -0.0499
  104POPC   C4A 1557   3.696   6.594   5.578  0.2425 -0.0840  0.0113
  104POPC   C1B 1558   4.583   6.592   6.457  0.3049  0.0164  0.1217
  104POPC   C2B 1559   4.553   6.717   6.014 -0.1850 -0.1776 -0.4253
  104POPC   C3B 1560   4.620   6.816   5.665  0.0913  0.0487  0.1384
  104POPC   C4B 1561   4.706   6.735   5.157  0.1586 -0.0143 -0.0171
  105POPC   NC3 1562   2.321   2.279   7.345 -0.0641  0.0515 -0.2683
  105POPC   PO4 1563   1.877   2.457   7.437  0.1226 -0.0571 -0.0846
  105POPC   GL1 1564   1.662   2.146   7.046  0.2467 -0.1139 -0.0521
  105POPC   GL2 1565   2.061   2.218   6.896 -0.0404  0.2792  0.0299
  105POPC   C1A 1566   1.580   2.268   6.631  0.1102 -0.1108 -0.3463
  105POPC   D2A 1567   1.213   2.092   6.273 -0.2476  0.0981 -0.0537
  105POPC   C3A 1568   1.186   2.082   5.844  0.3215 -0.0216  0.1350
  105POPC   C4A 1569   1.371   2.194   5.422  0.0942 -0.1726 -0.0278
  105POPC   C1B 1570   2.152   2.158   6.494  0.1886 -0.0034 -0.1719
  105POPC   C2B 1571   2.175   2.406   6.069  0.1892  0.0140  0.0551
  105POPC   C3B 1572   2.331   2.629   5.697  0.0761 -0.0779 -0.1621
  105POPC   C4B 1573   2.474   3.094   5.601 -0.1340 -0.0332  0.1032
  106POPC   NC3 1574   3.012   3.025   7.666 -0.3013 -0.0172 -0.3413
  106POPC   PO4 1575   2.756   3.120   7.373  0.3639  0.1074 -0.2357
  106POPC   GL1 1576   2.492   3.176   7.009 -0.1559 -0.2114 -0.0160
  106POPC   GL2 1577   2.188   3.205   7.072  0.1919 -0.0892  0.0251
  106POPC   C1A 1578   2.460   3.303   6.497  0.1362 -0.3349  0.0183
  106POPC   D2A 1579   2.633   3.622   6.218 -0.1163 -0.0887  0.4110
  106POPC   C3A 1580   3.082   3.651   6.175 -0.3092  0.0417  0.2038
  106POPC   C4A 1581   3.362   3.360   6.000 -0.0021 -0.1972  0.2055
  106POPC   C1B 1582   2.157   2.962   6.661 -0.3728  0.1738  0.1377
  106POPC   C2B 1583   1.991   2.628   6.446 -0.3622 -0.2168  0.0232
  106POPC   C3B 1584   1.634   2.354   6.107  0.0061 -0.4568  0.2307
  106POPC   C4B 1585   1.726   2.456   5.701 -0.0824  0.1126  0.1388
  107POPC   NC3 1586   0.980   3.026   7.439 -0.0516  0.1675 -0.2737
  107POPC   PO4 1587   0.538   3.363   7.447 -0.1402  0.1309  0.1412
  107POPC   GL1 1588   0.654   3.444   6.986  0.0532  0.4631  0.3869
  107POPC   GL2 1589   0.697   3.056   6.924 -0.0465  0.0012  0.4281
  107POPC   C1A 1590   0.741   3.612   6.564  0.0144  0.0680 -0.0415
  107POPC   D2A 1591   0.458   3.675   6.175 -0.1101 -0.2746 -0.0247
  107POPC   C3A 1592   0.268   3.214   6.093  0.1423 -0.1842  0.1825
  107POPC   C4A 1593  -0.187   3.074   6.268 -0.2405  0.0479 -0.1410
  107POPC   C1B 1594   0.676   2.839   6.537 -0.2227 -0.1377 -0.2476
  107POPC   C2B 1595   0.510   2.752   6.142 -0.0607 -0.0275  0.0708
  107POPC   C3B 1596   0.639   2.919   5.785  0.0941 -0.1689  0.0298
  107POPC   C4B 1597   0.457   2.880   5.424 -0.4115  0.0760 -0.3626
  108POPC   NC3 1598   9.100   5.374   6.929 -0.0187 -0.2875 -0.3610
  108POPC   PO4 1599   9.365   5.021   6.791 -0.1951 -0.3191 -0.1702
  108POPC   GL1 1600   8.978   4.998   6.591  0.2021 -0.0717  0.3830
  108POPC   GL2 1601   8.697   5.292   6.642  0.0184 -0.3866  0.0038
  108POPC   C1A 1602   8.800   5.251   6.116 -0.1012  0.0647  0.0150
  108POPC   D2A 1603   8.451   5.241   5.849 -0.2545 -0.1085  0.2094
  108POPC   C3A 1604   8.268   5.408   5.449 -0.1068 -0.0119  0.0958
  108POPC   C4A 1605   8.456   5.533   5.039  0.1379 -0.2004  0.2631
  108POPC   C1B 1606   8.407   5.046   6.311 -0.4587  0.1187 -0.3650
  108POPC   C2B 1607   8.403   4.801   5.936 -0.1138 -0.0763 -0.2871
  108POPC   C3B 1608   8.254   4.511   5.757 -0.1447  0.1531  0.1164
  108POPC   C4B 1609   8.159   4.098   5.539  0.1221  0.0530  0.0053
  109POPC   NC3 1610   9.578   1.188   7.132 -0.4714 -0.1408  0.0854
  109POPC   PO4 1611   9.987   1.102   7.132 -0.0849 -0.2518 -0.1280
  109POPC   GL1 1612  10.078   1.330   6.786  0.3150  0.2017  0.3450
  109POPC   GL2 1613   9.867   1.450   6.741  0.2321  0.0662 -0.0823
  109POPC   C1A 1614  10.190   1.286   6.383  0.1546  0.2929 -0.2961
  109POPC   D2A 1615  10.170   1.422   5.947 -0.4069 -0.0683  0.0955
  109POPC   C3A 1616   9.822   1.509   5.774  0.0049  0.1743 -0.2565
  109POPC   C4A 1617   9.635   1.564   5.405  0.3142  0.1076 -0.0930
  109POPC   C1B 1618   9.688   1.372   6.372 -0.0072  0.1896 -0.0704
  109POPC   C2B 1619   9.312   1.248   6.081  0.1614 -0.3507 -0.3751
  109POPC   C3B 1620   9.421   1.048   5.699  0.0397  0.1520 -0.1455
  109POPC   C4B 1621   9.481   0.973   5.232  0.1540 -0.2002  0.1208
  110POPC   NC3 1622   8.038   5.844   7.777 -0.1886  0.1448 -0.2202
  110POPC   PO4 1623   8.058   5.793   7.270 -0.2805  0.3434  0.1590
  110POPC   GL1 1624   8.025   5.899   6.780  0.0558  0.0575  0.1014
  110POPC   GL2 1625   7.732   5.815   6.716 -0.0379  0.1848 -0.0385
  110POPC   C1A 1626   8.071   5.985   6.331  0.0616 -0.0879 -0.1479
  110POPC   D2A 1627   7.940   6.212   5.959 -0.2832 -0.0086  0.1235
  110POPC   C3A 1628   7.600   6.092   5.758 -0.4660  0.1822  0.2646
  110POPC   C4A 1629   7.298   5.787   5.644 -0.0638 -0.0714  0.0338
  110POPC   C1B 1630   7.616   5.819   6.220 -0.2968 -0.1570 -0.2490
  110POPC   C2B 1631   7.755   5.559   5.881 -0.0666  0.1015 -0.1634
  110POPC   C3B 1632   7.776   5.292   5.592  0.1033 -0.1435  0.3749
  110POPC   C4B 1633   7.992   4.947   5.558  0.0812  0.2043 -0.1350
  111POPC   NC3 1634   1.067   4.069   7.568  0.1238  0.3481 -0.4667
  111POPC   PO4 1635   1.494   3.889   7.342 -0.0573  0.0405  0.1627
  111POPC   GL1 1636   1.472   3.712   6.924  0.1337 -0.2140 -0.1301
  111POPC   GL2 1637   1.757   3.907   6.773 -0.0992 -0.0528  0.1885
  111POPC   C1A 1638   1.250   3.667   6.558  0.0548  0.0726  0.1263
  111POPC   D2A 1639   1.089   3.580   6.144 -0.1772 -0.1258  0.0997
  111POPC   C3A 1640   0.748   3.227   6.223 -0.0084  0.0376 -0.5550
  111POPC   C4A 1641   0.355   3.230   6.553  0.4100 -0.3159 -0.0504
  111POPC   C1B 1642   1.658   3.741   6.298 -0.2291  0.0699  0.0847
  111POPC   C2B 1643   1.772   3.695   5.831 -0.1781 -0.1948 -0.0579
  111POPC   C3B 1644   1.797   3.711   5.369 -0.0332  0.0924 -0.0649
  111POPC   C4B 1645   1.755   3.758   5.075  0.0997  0.1176  0.0535
  112POPC   NC3 1646   0.246   1.331   7.610 -0.0312 -0.1404 -0.1848
  112POPC   PO4 1647   0.330   1.061   7.286 -0.0509  0.0145 -0.1263
  112POPC   GL1 1648   0.235   0.837   6.826  0.0189  0.0764 -0.2265
  112POPC   GL2 1649  -0.013   0.779   6.687  0.1481  0.0749  0.3583
  112POPC   C1A 1650   0.385   0.787   6.421  0.0277  0.0578  0.1476
  112POPC   D2A 1651   0.226   0.952   5.997 -0.0193  0.4559 -0.0609
  112POPC   C3A 1652  -0.127   0.676   5.680  0.0106  0.3870 -0.0705
  112POPC   C4A 1653  -0.557   0.549   5.580 -0.0477  0.0144  0.0393
  112POPC   C1B 1654  -0.190   0.723   6.268  0.0839 -0.1442  0.0270
  112POPC   C2B 1655  -0.493   0.449   6.044  0.1670  0.1055  0.1270
  112POPC   C3B 1656  -1.002   0.454   5.942 -0.1731 -0.3713  0.1474
  112POPC   C4B 1657  -1.045   0.562   5.444 -0.2724 -0.0551  0.1507
  113POPC   NC3 1658   8.186   3.788   7.595 -0.0804 -0.0912  0.4540
  113POPC   PO4 1659   8.403   3.533   7.147 -0.4416  0.2451 -0.1414
  113POPC   GL1 1660   8.341   3.712   6.792  0.0912 -0.0974 -0.1332
  113POPC   GL2 1661   8.180   3.527   6.586  0.2317  0.2837 -0.3109
  113POPC   C1A 1662   8.187   4.016   6.496  0.1660  0.1753 -0.2052
  113POPC   D2A 1663   8.026   4.240   6.072  0.1862  0.2775  0.0689
  113POPC   C3A 1664   7.790   3.952   5.922  0.3632  0.0425  0.4301
  113POPC   C4A 1665   7.830   3.581   5.717 -0.1774  0.1561 -0.1801
  113POPC   C1B 1666   8.107   3.593   6.177 -0.0851 -0.1880 -0.0615
  113POPC   C2B 1667   8.418   3.916   6.029 -0.1944 -0.4985 -0.1945
  113POPC   C3B 1668   8.646   4.148   6.368 -0.2600  0.1215  0.1118
  113POPC   C4B 1669   9.047   4.369   6.584 -0.3865 -0.0175 -0.2289
  114POPC   NC3 1670   4.591   9.010   8.586 -0.2894 -0.3969  0.0706
  114POPC   PO4 1671   4.530   9.086   8.183 -0.0312 -0.1625 -0.2794
  114POPC   GL1 1672   4.412   9.411   7.871 -0.1810 -0.0683  0.1517
  114POPC   GL2 1673   4.194   9.534   7.816 -0.1861 -0.3038 -0.0803
  114POPC   C1A 1674   4.453   9.427   7.392  0.0130 -0.2933 -0.3046
  114POPC   D2A 1675   4.131   9.499   7.076  0.0705  0.0963 -0.1413
  114POPC   C3A 1676   3.860   9.215   6.841 -0.3118  0.3970  0.1615
  114POPC   C4A 1677   3.442   8.936   6.914  0.1256 -0.1885 -0.1117
  114POPC   C1B 1678   4.068   9.787   7.547  0.1186 -0.3211  0.0328
  114POPC   C2B 1679   3.815   9.869   7.231  0.6406  0.0468 -0.1201
  114POPC   C3B 1680   3.769   9.688   6.762  0.0909 -0.2472 -0.0149
  114POPC   C4B 1681   3.692   9.706   6.355  0.1333 -0.3964 -0.0199
  115POPC   NC3 1682   1.710  10.659   7.711 -0.1666 -0.1593  0.1841
  115POPC   PO4 1683   1.692  10.244   7.491 -0.0169 -0.0398 -0.1457
  115POPC   GL1 1684   1.910   9.962   7.100 -0.1857 -0.1621  0.0726
  115POPC   GL2 1685   1.670  10.172   6.783  0.1507 -0.0595  0.1134
  115POPC   C1A 1686   2.159   9.561   6.833 -0.0467  0.5918  0.2652
  115POPC   D2A 1687   2.340   9.529   6.481 -0.1987 -0.3711  0.1266
  115POPC   C3A 1688   2.731   9.819   6.407  0.1065  0.0431  0.1680
  115POPC   C4A 1689   2.801  10.119   5.972 -0.0815 -0.2160 -0.0698
  115POPC   C1B 1690   1.942  10.099   6.364  0.0868 -0.1412 -0.0976
  115POPC   C2B 1691   2.105   9.864   6.201  0.3404 -0.2464 -0.1439
  115POPC   C3B 1692   2.428   9.637   5.911 -0.2408  0.2949 -0.0212
  115POPC   C4B 1693   2.370   9.344   5.569 -0.1054  0.0770 -0.0003
  116POPC   NC3 1694   8.594   6.833   6.743  0.1861  0.0650 -0.0692
  116POPC   PO4 1695   8.777   6.412   6.742 -0.2253  0.1140  0.1025
  116POPC   GL1 1696   8.542   6.075   6.472 -0.3626 -0.0066  0.0489
  116POPC   GL2 1697   8.469   5.800   6.599 -0.1223 -0.1126  0.0959
  116POPC   C1A 1698   8.449   6.180   5.957 -0.0537 -0.0458  0.2236
  116POPC   D2A 1699   8.523   6.391   5.618  0.0414 -0.2691 -0.2138
  116POPC   C3A 1700   8.622   6.530   5.313  0.2297  0.2035  0.3836
  116POPC   C4A 1701   8.729   6.616   4.938 -0.2832  0.4268  0.0165
  116POPC   C1B 1702   8.416   5.564   6.223  0.0554  0.1305 -0.2014
  116POPC   C2B 1703   8.202   5.759   5.880  0.0619  0.0503  0.0113
  116POPC   C3B 1704   8.033   5.825   5.507  0.1186  0.7378 -0.1391
  116POPC   C4B 1705   7.962   5.728   5.096  0.1870  0.0096 -0.0223
  117POPC   NC3 1706  10.105   5.167   7.022 -0.0769  0.2531 -0.2860
  117POPC   PO4 1707  10.342   5.454   7.185  0.0082 -0.1425 -0.1410
  117POPC   GL1 1708  10.591   5.648   6.870 -0.1034  0.2871 -0.0488
  117POPC   GL2 1709  10.904   5.944   6.809  0.2385  0.3674  0.0659
  117POPC   C1A 1710  10.515   5.662   6.386 -0.0985  0.1159 -0.0464
  117POPC   D2A 1711  10.566   5.380   6.021 -0.4138 -0.2405 -0.3032
  117POPC   C3A 1712  10.924   5.077   6.011 -0.1136 -0.2883 -0.1589
  117POPC   C4A 1713  11.186   4.777   6.119  0.4895  0.2909  0.0869
  117POPC   C1B 1714  11.023   6.025   6.293  0.0794 -0.0942 -0.1048
  117POPC   C2B 1715  11.094   6.088   5.864 -0.4821 -0.0079 -0.4700
  117POPC   C3B 1716  11.131   5.960   5.568 -0.0013 -0.1197  0.0497
  117POPC   C4B 1717  10.805   5.855   5.371 -0.0411 -0.0633  0.3941
  118POPC   NC3 1718   1.982   9.800   7.566 -0.1286  0.3897  0.1259
  118POPC   PO4 1719   1.629   9.433   7.390 -0.2638 -0.2122 -0.1779
  118POPC   GL1 1720   1.575   9.566   6.933 -0.0544  0.0101 -0.0928
  118POPC   GL2 1721   1.509   9.249   6.740  0.2185 -0.0255 -0.3712
  118POPC   C1A 1722   1.707   9.621   6.440  0.1395  0.0582  0.1117
  118POPC   D2A 1723   1.691   9.740   5.994  0.1076  0.2253  0.2358
  118POPC   C3A 1724   1.946   9.555   5.759  0.3856  0.0704  0.0337
  118POPC   C4A 1725   1.986   9.187   5.411  0.0132  0.1696  0.1824
  118POPC   C1B 1726   1.443   8.887   6.334 -0.1459  0.2381  0.0011
  118POPC   C2B 1727   1.432   8.475   6.048 -0.1328 -0.2489 -0.1170
  118POPC   C3B 1728   1.492   8.116   5.874 -0.2264 -0.3701 -0.2407
  118POPC   C4B 1729   1.485   7.937   5.518 -0.1741  0.0949 -0.1295
  119POPC   NC3 1730   9.572   4.090   7.308 -0.0373  0.0491 -0.1576
  119POPC   PO4 1731   9.829   4.447   7.408  0.2767  0.1235 -0.2051
  119POPC   GL1 1732   9.809   4.363   6.957  0.0756 -0.0018  0.1153
  119POPC   GL2 1733  10.061   4.209   6.896  0.1235  0.0745  0.2240
  119POPC   C1A 1734   9.605   4.491   6.487 -0.1698 -0.0999 -0.1456
  119POPC   D2A 1735   9.383   4.856   6.337 -0.0198  0.0862  0.0970
  119POPC   C3A 1736   9.383   5.142   6.035  0.0147 -0.2315 -0.0094
  119POPC   C4A 1737   9.206   5.219   5.683  0.4501 -0.1973 -0.2618
  119POPC   C1B 1738  10.006   4.171   6.424 -0.1503  0.0020  0.2179
  119POPC   C2B 1739   9.957   3.914   6.080  0.0853  0.1231 -0.0739
  119POPC   C3B 1740   9.981   4.099   5.732  0.0514 -0.0214  0.0058
  119POPC   C4B 1741  10.123   4.088   5.373  0.2125  0.1801 -0.0888
  120POPC   NC3 1742   6.737   5.444   7.659  0.0422  0.0084  0.1407
  120POPC   PO4 1743   7.036   5.183   7.536 -0.0330 -0.0987  0.2683
  120POPC   GL1 1744   7.121   4.917   7.190 -0.0443 -0.0237 -0.1746
  120POPC   GL2 1745   6.870   4.780   6.958  0.0810  0.1792  0.1499
  120POPC   C1A 1746   7.373   4.704   6.934 -0.0394  0.0788  0.0707
  120POPC   D2A 1747   7.467   4.336   6.799 -0.0540 -0.1905 -0.0390
  120POPC   C3A 1748   7.898   4.436   6.519  0.1139 -0.2713 -0.0700
  120POPC   C4A 1749   8.235   4.589   6.334  0.0758 -0.1030  0.1188
  120POPC   C1B 1750   7.072   4.977   6.677  0.0743 -0.4231 -0.1848
  120POPC   C2B 1751   7.005   5.139   6.296 -0.1059 -0.0701 -0.1617
  120POPC   C3B 1752   6.727   5.106   5.959  0.1068  0.1299 -0.0846
  120POPC   C4B 1753   6.354   5.044   5.639  0.1118  0.1799  0.4290
  121POPC   NC3 1754   2.393   4.854   7.473  0.0894 -0.2511  0.1419
  121POPC   PO4 1755   1.971   4.891   7.377  0.2215  0.2996  0.2549
  121POPC   GL1 1756   2.165   4.630   7.021 -0.1497  0.1761 -0.0550
  121POPC   GL2 1757   1.937   4.848   6.820 -0.0115  0.1636  0.0917
  121POPC   C1A 1758   2.356   4.494   6.598  0.0631  0.3021 -0.0912
  121POPC   D2A 1759   2.249   4.593   6.123 -0.0309 -0.0757  0.0457
  121POPC   C3A 1760   2.475   4.383   5.798 -0.2126  0.0813 -0.0640
  121POPC   C4A 1761   2.837   4.348   5.575  0.3925 -0.1436 -0.1443
  121POPC   C1B 1762   2.338   4.987   6.553  0.2095 -0.0081  0.0498
  121POPC   C2B 1763   2.497   5.392   6.328 -0.1620  0.5577  0.0046
  121POPC   C3B 1764   2.266   5.735   6.270  0.1794  0.2439  0.3740
  121POPC   C4B 1765   2.092   6.022   6.044  0.0988  0.1433 -0.2900
  122POPC   NC3 1766   4.204   5.498   7.425 -0.0321 -0.1419  0.2837
  122POPC   PO4 1767   3.993   5.770   7.183 -0.0112 -0.0720 -0.0112
  122POPC   GL1 1768   4.017   5.845   6.740 -0.1008 -0.3578  0.0766
  122POPC   GL2 1769   3.697   5.630   6.762  0.0498  0.2665 -0.1315
  122POPC   C1A 1770   3.850   6.092   6.417 -0.0721 -0.0867 -0.1876
  122POPC   D2A 1771   3.721   6.214   5.959 -0.1387  0.2206  0.0130
  122POPC   C3A 1772   3.508   6.165   5.561  0.0648  0.1533 -0.3230
  122POPC   C4A 1773   3.498   5.756   5.660  0.0964  0.3132 -0.1164
  122POPC   C1B 1774   3.753   5.342   6.447  0.0584 -0.5225  0.2794
  122POPC   C2B 1775   3.740   5.302   5.976 -0.1531 -0.4075  0.2239
  122POPC   C3B 1776   3.759   5.207   5.539  0.1908  0.0569  0.2550
  122POPC   C4B 1777   4.021   5.416   5.265 -0.1286  0.1612  0.0946
  123POPC   NC3 1778   7.737   1.096   7.489  0.0301 -0.0065 -0.2099
  123POPC   PO4 1779   7.456   1.379   7.224  0.0262  0.3164  0.2034
  123POPC   GL1 1780   7.479   1.679   6.742  0.0859  0.1364 -0.0074
  123POPC   GL2 1781   7.709   1.705   6.665  0.0821 -0.1433 -0.0184
  123POPC   C1A 1782   7.396   1.640   6.297 -0.1343 -0.3557  0.3394
  123POPC   D2A 1783   7.344   1.564   5.836  0.0641  0.3191  0.0960
  123POPC   C3A 1784   7.489   1.953   5.603  0.2109 -0.2933 -0.0333
  123POPC   C4A 1785   7.491   2.361   5.451  0.0337  0.1140 -0.0224
  123POPC   C1B 1786   8.010   2.023   6.319  0.0590  0.0188  0.1274
  123POPC   C2B 1787   8.485   2.166   6.393 -0.3989  0.0302 -0.1771
  123POPC   C3B 1788   8.830   2.508   6.212  0.2723  0.2253  0.1037
  123POPC   C4B 1789   9.019   2.702   6.526 -0.3442 -0.0655  0.1080
  124POPC   NC3 1790  10.083   6.379   7.137  0.4890 -0.0895 -0.1483
  124POPC   PO4 1791   9.672   6.183   7.194 -0.0493 -0.1188 -0.3204
  124POPC   GL1 1792   9.653   6.341   6.739  0.0294  0.1851  0.2616
  124POPC   GL2 1793   9.897   6.569   6.602  0.1776 -0.2357 -0.2797
  124POPC   C1A 1794   9.724   6.420   6.185  0.3173 -0.0384 -0.2383
  124POPC   D2A 1795   9.643   6.578   5.745  0.2468 -0.1571 -0.0930
  124POPC   C3A 1796   9.336   6.989   5.645  0.1080  0.1283 -0.2308
  124POPC   C4A 1797   9.466   7.402   5.373  0.0137 -0.0042 -0.1826
  124POPC   C1B 1798  10.244   6.518   6.419  0.0963  0.1068 -0.0040
  124POPC   C2B 1799  10.173   6.554   5.881  0.0303  0.0669  0.0915
  124POPC   C3B 1800  10.312   6.694   5.432  0.1982 -0.1425 -0.3867
  124POPC   C4B 1801  10.248   6.901   5.083 -0.1401  0.2981  0.2508
  125POPC   NC3 1802   3.909   3.100   7.383  0.0450  0.2154  0.0873
  125POPC   PO4 1803   3.551   2.973   7.541 -0.2086  0.0977  0.2538
  125POPC   GL1 1804   3.450   3.081   7.184  0.2640  0.1997  0.0711
  125POPC   GL2 1805   3.139   2.954   7.122 -0.4128  0.2203  0.1309
  125POPC   C1A 1806   3.405   2.939   6.623  0.1699  0.1602  0.0772
  125POPC   D2A 1807   3.188   2.791   6.348 -0.2391 -0.1898 -0.0270
  125POPC   C3A 1808   3.363   2.696   5.980  0.2022 -0.1322 -0.1148
  125POPC   C4A 1809   3.582   2.992   5.743 -0.2190 -0.1039 -0.0652
  125POPC   C1B 1810   2.884   2.872   6.784 -0.3086 -0.1082  0.1488
  125POPC   C2B 1811   2.669   2.836   6.440  0.1466  0.0518  0.2687
  125POPC   C3B 1812   2.342   2.956   6.131 -0.3170 -0.1148 -0.1749
  125POPC   C4B 1813   1.949   2.900   5.970  0.2328  0.0202  0.0158
  126POPC   NC3 1814   2.586   1.268   7.644  0.1573  0.0586  0.0025
  126POPC   PO4 1815   2.504   0.975   7.382 -0.1134  0.3417 -0.2948
  126POPC   GL1 1816   2.410   0.879   7.001  0.1498  0.0694  0.0115
  126POPC   GL2 1817   2.107   1.055   6.891 -0.1293  0.1595 -0.0056
  126POPC   C1A 1818   2.480   0.922   6.492  0.0699 -0.1577  0.1960
  126POPC   D2A 1819   2.425   0.843   6.037 -0.1016  0.0963  0.0998
  126POPC   C3A 1820   2.082   0.414   6.049 -0.2779  0.1359 -0.4993
  126POPC   C4A 1821   1.977   0.102   6.266  0.1189 -0.2035 -0.1117
  126POPC   C1B 1822   1.868   0.984   6.530  0.0005 -0.1583  0.0688
  126POPC   C2B 1823   1.905   0.869   6.078  0.0819  0.1338 -0.2348
  126POPC   C3B 1824   2.041   0.801   5.629 -0.0320  0.0640 -0.0633
  126POPC   C4B 1825   2.027   1.139   5.336  0.3495 -0.1151 -0.0977
  127POPC   NC3 1826   8.846  10.709   7.022  0.0743 -0.0478  0.0868
  127POPC   PO4 1827   8.362  10.423   6.997 -0.2910 -0.0485  0.0358
  127POPC   GL1 1828   8.243  10.495   6.642  0.4079  0.1600 -0.2923
  127POPC   GL2 1829   8.487  10.735   6.605 -0.1006  0.2002 -0.3340
  127POPC   C1A 1830   8.284  10.517   6.209  0.0597 -0.0549  0.2259
  127POPC   D2A 1831   8.507  10.296   5.927  0.2602  0.1239 -0.0087
  127POPC   C3A 1832   8.293  10.114   5.554  0.0127  0.0353 -0.1108
  127POPC   C4A 1833   8.153   9.899   5.160 -0.1987  0.2427  0.0457
  127POPC   C1B 1834   8.774  10.645   6.261  0.0754 -0.5912  0.0091
  127POPC   C2B 1835   8.940  10.592   5.833  0.0946 -0.3196  0.0913
  127POPC   C3B 1836   9.259  10.800   5.682  0.0474  0.0227  0.2622
  127POPC   C4B 1837   9.337  11.272   5.737 -0.1743  0.2444  0.1211
  128POPC   NC3 1838  10.666   5.725   7.564  0.2575  0.0392  0.1041
  128POPC   PO4 1839  10.430   5.964   7.196 -0.2046  0.0708  0.3302
  128POPC   GL1 1840  10.473   6.209   6.818  0.1666  0.0175  0.1890
  128POPC   GL2 1841  10.183   6.078   6.721 -0.3277  0.1262  0.0479
  128POPC   C1A 1842  10.634   6.220   6.468  0.0575 -0.1671  0.2834
  128POPC   D2A 1843  10.439   6.151   6.079  0.2188 -0.0356 -0.0315
  128POPC   C3A 1844  10.661   5.870   5.923 -0.1405  0.2052  0.1881
  128POPC   C4A 1845  10.952   5.509   5.761  0.0040 -0.1861  0.0909
  128POPC   C1B 1846  10.069   6.009   6.372 -0.1010 -0.1722 -0.0274
  128POPC   C2B 1847  10.131   5.663   6.088 -0.1498 -0.2013  0.0775
  128POPC   C3B 1848   9.957   5.482   5.648 -0.0254  0.2642 -0.0467
  128POPC   C4B 1849   9.979   5.320   5.246 -0.1559 -0.1211 -0.1250
  129POPC   NC3 1850   3.742   8.391   8.386 -0.0686  0.0256  0.0300
  129POPC   PO4 1851   3.688   8.253   7.958  0.2173  0.1374 -0.0492
  129POPC   GL1 1852   3.627   8.186   7.495 -0.0839  0.0364 -0.2156
  129POPC   GL2 1853   3.661   7.856   7.299 -0.0863 -0.0329 -0.1274
  129POPC   C1A 1854   3.660   8.451   7.089 -0.0817  0.4011 -0.3379
  129POPC   D2A 1855   3.831   8.657   6.728 -0.7597 -0.0282 -0.0746
  129POPC   C3A 1856   4.359   8.563   6.715 -0.0140  0.1940 -0.0003
  129POPC   C4A 1857   4.808   8.675   6.739 -0.1882  0.1334 -0.1096
  129POPC   C1B 1858   3.834   7.793   6.874  0.1933  0.0702 -0.0313
  129POPC   C2B 1859   4.195   7.619   6.634 -0.2671  0.1700  0.0585
  129POPC   C3B 1860   4.277   7.376   6.240  0.1087  0.0681  0.0822
  129POPC   C4B 1861   4.619   7.227   5.918  0.1286  0.4494  0.1157
  130POPC   NC3 1862   7.842   9.255   7.419 -0.2497  0.0628  0.0839
  130POPC   PO4 1863   7.438   9.311   7.191  0.3480  0.1335  0.0210
  130POPC   GL1 1864   7.422   9.450   6.843  0.2067 -0.1899 -0.4417
  130POPC   GL2 1865   7.104   9.374   6.722  0.2199  0.0228 -0.2116
  130POPC   C1A 1866   7.618   9.568   6.440 -0.2043  0.2016 -0.0625
  130POPC   D2A 1867   7.531   9.468   5.987  0.1067  0.2668 -0.1673
  130POPC   C3A 1868   7.195   9.585   5.696 -0.2009  0.1779 -0.0199
  130POPC   C4A 1869   7.202   9.663   5.213 -0.2114  0.1456 -0.2600
  130POPC   C1B 1870   7.080   9.467   6.243  0.0182 -0.2189  0.0742
  130POPC   C2B 1871   6.821   9.720   5.956 -0.1401 -0.0421  0.1058
  130POPC   C3B 1872   6.420   9.764   5.765  0.1616  0.0462 -0.0215
  130POPC   C4B 1873   6.206   9.464   5.503 -0.0817 -0.1123 -0.3591
  131POPC   NC3 1874   2.095   1.375   7.412 -0.0063 -0.4647  0.2230
  131POPC   PO4 1875   2.376   1.723   7.570 -0.1040 -0.0374  0.0658
  131POPC   GL1 1876   2.554   1.680   7.161  0.1911  0.0281 -0.1948
  131POPC   GL2 1877   2.426   1.382   6.990 -0.0382 -0.0137 -0.3532
  131POPC   C1A 1878   2.622   1.967   6.771 -0.1740 -0.2369 -0.0326
  131POPC   D2A 1879   2.581   1.998   6.271  0.1058  0.1514 -0.5017
  131POPC   C3A 1880   2.780   1.715   6.034  0.1206  0.0494 -0.2979
  131POPC   C4A 1881   3.173   1.739   5.748 -0.0204  0.1328  0.2254
  131POPC   C1B 1882   2.668   1.475   6.557  0.1056 -0.0144  0.0895
  131POPC   C2B 1883   2.931   1.160   6.207  0.0050 -0.1100  0.1134
  131POPC   C3B 1884   2.936   1.294   5.709  0.2526 -0.0044 -0.0960
  131POPC   C4B 1885   2.995   1.207   5.259  0.3128 -0.2720  0.1819
  132POPC   NC3 1886   6.325   9.583   8.055 -0.0515 -0.0338 -0.1106
  132POPC   PO4 1887   6.401  10.028   7.840  0.1216  0.1838 -0.0838
  132POPC   GL1 1888   6.151  10.221   7.501 -0.1418 -0.0812 -0.2050
  132POPC   GL2 1889   5.845  10.013   7.297 -0.1685 -0.2241  0.0446
  132POPC   C1A 1890   6.100  10.270   7.031 -0.1242  0.2911  0.2093
  132POPC   D2A 1891   6.206  10.389   6.600 -0.0981  0.0369 -0.1224
  132POPC   C3A 1892   6.063  10.118   6.360 -0.0653  0.1178  0.3201
  132POPC   C4A 1893   5.944   9.923   5.967  0.2054  0.0578  0.1511
  132POPC   C1B 1894   5.687   9.878   6.962 -0.3913  0.0176 -0.1434
  132POPC   C2B 1895   5.638  10.193   6.606 -0.2357 -0.3316 -0.1662
  132POPC   C3B 1896   5.617  10.281   6.135  0.0847  0.1291  0.0912
  132POPC   C4B 1897   5.600  10.196   5.720 -0.2837 -0.1725 -0.0384
  133POPC   NC3 1898   2.464   0.375   8.195  0.0614 -0.2249  0.3471
  133POPC   PO4 1899   2.255   0.449   7.792  0.1143  0.0484  0.3076
  133POPC   GL1 1900   2.445   0.358   7.419 -0.3577  0.2472  0.1756
  133POPC   GL2 1901   2.174   0.393   7.287  0.1754  0.0664  0.1357
  133POPC   C1A 1902   2.792   0.362   7.220  0.0028  0.1076  0.0578
  133POPC   D2A 1903   3.147   0.559   7.336 -0.0159 -0.2019 -0.1267
  133POPC   C3A 1904   3.375   0.656   7.018  0.0214 -0.2994 -0.0504
  133POPC   C4A 1905   3.621   0.926   6.909  0.1991 -0.2186 -0.3848
  133POPC   C1B 1906   2.297  -0.019   7.137  0.3174  0.0828  0.0081
  133POPC   C2B 1907   2.623  -0.208   7.065  0.2410  0.3868 -0.1490
  133POPC   C3B 1908   3.097  -0.223   7.075  0.0055  0.1332 -0.1492
  133POPC   C4B 1909   3.348   0.086   7.215 -0.0418  0.0500 -0.1890
  134POPC   NC3 1910   5.513   4.536   7.374  0.1989 -0.0282 -0.1751
  134POPC   PO4 1911   5.320   4.193   7.118 -0.0316  0.0400 -0.0927
  134POPC   GL1 1912   5.562   4.137   6.716  0.0704 -0.1677  0.1285
  134POPC   GL2 1913   5.839   3.928   6.723 -0.0423 -0.3200 -0.0256
  134POPC   C1A 1914   5.440   4.173   6.382 -0.2452  0.1160  0.0790
  134POPC   D2A 1915   5.500   4.456   6.057  0.1060  0.0587  0.1067
  134POPC   C3A 1916   5.267   4.797   6.023  0.1798 -0.2760 -0.1091
  134POPC   C4A 1917   5.190   5.168   5.747  0.1029  0.0735 -0.1405
  134POPC   C1B 1918   5.680   3.660   6.418 -0.1221  0.1795  0.1741
  134POPC   C2B 1919   5.647   3.458   6.020 -0.4732 -0.2899 -0.0210
  134POPC   C3B 1920   5.346   3.262   5.718 -0.1977 -0.0745  0.4472
  134POPC   C4B 1921   5.375   3.282   5.270 -0.3314  0.1541  0.3584
  135POPC   NC3 1922   0.850   8.170   7.503  0.1055  0.2364  0.0611
  135POPC   PO4 1923   1.118   8.270   7.115  0.1673 -0.4034  0.1055
  135POPC   GL1 1924   1.250   8.352   6.693  0.1951 -0.0085 -0.3254
  135POPC   GL2 1925   1.119   8.557   6.412 -0.2552 -0.0333 -0.0167
  135POPC   C1A 1926   1.625   8.156   6.484 -0.0811  0.2888  0.1587
  135POPC   D2A 1927   2.032   8.137   6.657 -0.0495  0.0277 -0.1820
  135POPC   C3A 1928   2.305   8.533   6.584 -0.1382 -0.0648  0.0377
  135POPC   C4A 1929   2.449   9.038   6.514  0.0569  0.0922 -0.0919
  135POPC   C1B 1930   0.960   8.748   6.113  0.3271 -0.3272 -0.2838
  135POPC   C2B 1931   1.206   8.875   5.841 -0.1918  0.0264 -0.1482
  135POPC   C3B 1932   1.165   9.017   5.495  0.0147  0.1673 -0.1125
  135POPC   C4B 1933   0.955   8.781   5.198  0.2271 -0.0285  0.0194
  136POPC   NC3 1934  10.763  10.597   6.879  0.0960  0.0812 -0.0834
  136POPC   PO4 1935  11.038  10.299   6.916 -0.3872  0.0799 -0.0923
  136POPC   GL1 1936  11.247  10.174   6.569  0.0556 -0.1189 -0.2364
  136POPC   GL2 1937  11.496   9.870   6.582 -0.1005 -0.0705 -0.1603
  136POPC   C1A 1938  11.134   9.982   6.184  0.2560  0.0242 -0.1055
  136POPC   D2A 1939  10.847  10.143   5.908  0.1037 -0.1625 -0.1941
  136POPC   C3A 1940  10.849   9.957   5.564 -0.0614 -0.1780  0.0176
  136POPC   C4A 1941  10.685   9.697   5.207  0.2515 -0.1515  0.0634
  136POPC   C1B 1942  11.748   9.940   6.197  0.0776  0.3328  0.1378
  136POPC   C2B 1943  11.903   9.736   5.889  0.0469  0.2824 -0.2345
  136POPC   C3B 1944  11.872   9.669   5.499 -0.0707 -0.1988  0.3242
  136POPC   C4B 1945  11.616   9.652   5.193  0.1955  0.3408  0.1419
  137POPC   NC3 1946   7.074   2.572   6.875  0.3838  0.2325  0.0400
  137POPC   PO4 1947   7.359   2.114   6.980  0.3165  0.3567 -0.0259
  137POPC   GL1 1948   7.430   2.187   6.512 -0.1364  0.1323  0.3040
  137POPC   GL2 1949   7.708   2.404   6.446  0.0387 -0.2721 -0.3349
  137POPC   C1A 1950   7.497   2.066   6.083 -0.2037 -0.0124  0.0132
  137POPC   D2A 1951   7.851   2.166   5.782  0.0543 -0.3167 -0.0324
  137POPC   C3A 1952   7.895   2.140   5.340 -0.0906 -0.2841 -0.0683
  137POPC   C4A 1953   8.325   2.115   5.144  0.0399 -0.1661  0.3291
  137POPC   C1B 1954   8.029   2.535   6.157  0.1698  0.0435  0.1825
  137POPC   C2B 1955   8.412   2.677   5.891 -0.2364 -0.2844  0.1501
  137POPC   C3B 1956   8.731   2.607   5.676  0.2106 -0.4801  0.2296
  137POPC   C4B 1957   8.692   2.522   5.220 -0.3310 -0.0091  0.0874
  138POPC   NC3 1958   1.229   9.282   7.175 -0.0706 -0.0557 -0.0537
  138POPC   PO4 1959   1.090   9.630   7.047  0.0349  0.2534 -0.1030
  138POPC   GL1 1960   1.205   9.894   6.645  0.1161  0.1470  0.0236
  138POPC   GL2 1961   1.240  10.361   6.609 -0.0760  0.3352 -0.3126
  138POPC   C1A 1962   1.404   9.974   6.349 -0.0170  0.0712 -0.1444
  138POPC   D2A 1963   1.398  10.148   5.930  0.0047 -0.1931 -0.0760
  138POPC   C3A 1964   1.803  10.223   5.773 -0.0760  0.1377 -0.0787
  138POPC   C4A 1965   2.191  10.129   5.660  0.1098 -0.2522  0.1055
  138POPC   C1B 1966   1.052  10.461   6.199 -0.2022  0.0081 -0.0285
  138POPC   C2B 1967   0.715  10.385   5.952  0.0987 -0.0676  0.0513
  138POPC   C3B 1968   0.570  10.414   5.472 -0.2832  0.0523  0.0411
  138POPC   C4B 1969   0.113  10.527   5.302 -0.0608 -0.0224 -0.0364
  139POPC   NC3 1970   5.493   2.023   7.485 -0.0432  0.1711 -0.1688
  139POPC   PO4 1971   5.192   1.780   7.664 -0.2863  0.0402 -0.3620
  139POPC   GL1 1972   5.347   1.636   7.259  0.0506 -0.0368  0.3399
  139POPC   GL2 1973   5.355   1.862   7.038  0.2138 -0.0711  0.4310
  139POPC   C1A 1974   5.117   1.383   6.938  0.0562  0.1139 -0.1635
  139POPC   D2A 1975   4.762   1.024   6.764 -0.0893 -0.0994  0.1069
  139POPC   C3A 1976   4.242   1.119   6.914  0.2833 -0.0856 -0.1699
  139POPC   C4A 1977   3.940   1.332   7.165 -0.4039  0.0856  0.1100
  139POPC   C1B 1978   5.208   1.855   6.598  0.0562 -0.0044  0.0403
  139POPC   C2B 1979   5.089   1.767   6.242  0.0256  0.3116  0.1068
  139POPC   C3B 1980   5.103   1.868   5.862 -0.1354 -0.3597 -0.0102
  139POPC   C4B 1981   5.039   2.270   5.814 -0.2563  0.2056 -0.0481
  140POPC   NC3 1982   0.214   9.044   7.283  0.0508  0.2220 -0.0303
  140POPC   PO4 1983  -0.260   8.988   7.128  0.4056 -0.1642 -0.1179
  140POPC   GL1 1984  -0.380   8.808   6.727  0.0398 -0.1855  0.0674
  140POPC   GL2 1985  -0.159   8.926   6.583  0.2068  0.2717 -0.1042
  140POPC   C1A 1986  -0.663   8.548   6.476  0.2136  0.2546  0.3162
  140POPC   D2A 1987  -1.094   8.505   6.444  0.1353 -0.1924 -0.0370
  140POPC   C3A 1988  -1.358   8.983   6.347 -0.0820  0.0141  0.0460
  140POPC   C4A 1989  -1.648   9.242   6.224 -0.1068  0.1878  0.1482
  140POPC   C1B 1990  -0.462   8.901   6.227  0.0108 -0.0934  0.0136
  140POPC   C2B 1991  -0.607   9.293   5.881 -0.5211  0.0750 -0.0813
  140POPC   C3B 1992  -0.889   9.243   5.656  0.2479 -0.1199 -0.0024
  140POPC   C4B 1993  -1.184   9.169   5.370  0.1214  0.2845 -0.2432
  141POPC   NC3 1994   3.001  10.324   7.945 -0.1597 -0.0520  0.5076
  141POPC   PO4 1995   2.619  10.333   7.666 -0.1015 -0.1311  0.2982
  141POPC   GL1 1996   2.570  10.045   7.293 -0.1144  0.0266 -0.1682
  141POPC   GL2 1997   2.376   9.907   7.141 -0.0981 -0.1905  0.0947
  141POPC   C1A 1998   2.786  10.022   6.890 -0.0089 -0.0136  0.1124
  141POPC   D2A 1999   2.903  10.367   6.614  0.2678  0.2195  0.1175
  141POPC   C3A 2000   3.239  10.534   6.600 -0.1200  0.1259  0.0064
  141POPC   C4A 2001   3.404  10.975   6.728 -0.4637 -0.1283 -0.1973
  141POPC   C1B 2002   2.276  10.003   6.684 -0.1181 -0.1846  0.0229
  141POPC   C2B 2003   2.482  10.233   6.323 -0.2613 -0.2103 -0.0041
  141POPC   C3B 2004   2.385  10.537   5.993 -0.1604 -0.0518  0.0210
  141POPC   C4B 2005   2.037  10.687   5.693 -0.0967  0.1566 -0.0323
  142POPC   NC3 2006   7.573   0.677   7.120 -0.0201  0.1590 -0.0800
  142POPC   PO4 2007   7.983   0.454   7.146  0.1136  0.0971  0.0134
  142POPC   GL1 2008   8.062   0.442   6.716  0.2156 -0.0796 -0.4189
  142POPC   GL2 2009   7.808   0.615   6.546 -0.1515  0.2164  0.3551
  142POPC   C1A 2010   8.170   0.228   6.337 -0.0718 -0.0601 -0.0826
  142POPC   D2A 2011   8.462   0.150   6.000  0.0769  0.0978  0.3140
  142POPC   C3A 2012   8.289   0.286   5.636  0.2735  0.0359 -0.1123
  142POPC   C4A 2013   7.939   0.106   5.455 -0.1206 -0.3923 -0.0291
  142POPC   C1B 2014   7.531   0.600   6.269 -0.0839  0.2137 -0.0033
  142POPC   C2B 2015   7.235   0.600   6.161 -0.0809 -0.0717  0.1150
  142POPC   C3B 2016   7.000   0.756   5.832  0.2020 -0.0548  0.0984
  142POPC   C4B 2017   6.580   0.743   5.925  0.0589 -0.0604 -0.2318
  143POPC   NC3 2018   8.716  10.136   7.777  0.0615  0.0912 -0.1449
  143POPC   PO4 2019   8.790  10.325   7.372 -0.3136  0.2322 -0.1607
  143POPC   GL1 2020   8.843  10.202   6.941 -0.0965 -0.1989  0.0107
  143POPC   GL2 2021   9.066   9.978   6.906  0.3021  0.0741  0.2154
  143POPC   C1A 2022   8.860  10.266   6.488 -0.0149  0.1694  0.0775
  143POPC   D2A 2023   8.957  10.178   6.099  0.0890 -0.0013 -0.0394
  143POPC   C3A 2024   9.345  10.526   6.179  0.2935  0.3876  0.3090
  143POPC   C4A 2025   9.599  10.705   5.976  0.0096  0.0459 -0.1821
  143POPC   C1B 2026   9.076   9.831   6.494 -0.2632  0.1754 -0.1148
  143POPC   C2B 2027   9.042   9.731   6.144 -0.1503  0.1986  0.1547
  143POPC   C3B 2028   8.964   9.751   5.708  0.0318 -0.2691 -0.0435
  143POPC   C4B 2029   8.830  10.147   5.483 -0.1005  0.2236 -0.0695
  144POPC   NC3 2030   8.578   5.649   7.257 -0.0530 -0.3270 -0.4185
  144POPC   PO4 2031   8.546   5.190   7.103  0.2858  0.2594 -0.1717
  144POPC   GL1 2032   8.107   5.346   7.014  0.2694 -0.2094  0.0128
  144POPC   GL2 2033   8.205   5.321   6.709 -0.2261  0.0075 -0.3061
  144POPC   C1A 2034   7.704   5.310   6.883 -0.0588  0.0626 -0.2124
  144POPC   D2A 2035   7.479   5.429   6.546  0.2452 -0.0541  0.0634
  144POPC   C3A 2036   7.461   5.287   6.142 -0.0058  0.2229  0.1223
  144POPC   C4A 2037   7.226   5.300   5.813 -0.2919  0.0117  0.1574
  144POPC   C1B 2038   7.962   5.473   6.350  0.1676  0.3297 -0.0408
  144POPC   C2B 2039   8.008   5.163   6.063 -0.0454  0.0732  0.0036
  144POPC   C3B 2040   7.884   4.742   6.055  0.3103 -0.0045 -0.3080
  144POPC   C4B 2041   7.735   4.493   5.701 -0.3040 -0.1020 -0.3425
  145POPC   NC3 2042   3.380   7.101   7.439  0.1090  0.2914 -0.0709
  145POPC   PO4 2043   3.231   7.571   7.421  0.2644 -0.2619 -0.1662
  145POPC   GL1 2044   3.163   7.937   7.119 -0.1089  0.0924 -0.0761
  145POPC   GL2 2045   2.899   7.990   7.127 -0.1081  0.0110 -0.2116
  145POPC   C1A 2046   3.422   8.038   6.750  0.1479 -0.0227  0.1135
  145POPC   D2A 2047   3.634   8.223   6.581 -0.0145 -0.0428 -0.3356
  145POPC   C3A 2048   3.784   8.243   6.123  0.0267 -0.0147 -0.5621
  145POPC   C4A 2049   3.864   8.248   5.716  0.2016  0.0807  0.1643
  145POPC   C1B 2050   2.767   7.703   6.760 -0.1473  0.0785  0.0999
  145POPC   C2B 2051   2.795   7.752   6.247  0.0573  0.0947  0.1366
  145POPC   C3B 2052   2.496   7.912   5.894  0.1340 -0.2317  0.1355
  145POPC   C4B 2053   2.324   7.829   5.435 -0.2739  0.2254  0.0518
  146POPC   NC3 2054   5.280   8.612   8.000  0.0748 -0.0495  0.0084
  146POPC   PO4 2055   5.556   8.949   7.848 -0.1655  0.4248  0.3923
  146POPC   GL1 2056   5.351   9.225   7.466 -0.0429  0.1007 -0.0740
  146POPC   GL2 2057   5.498   9.531   7.386 -0.1438 -0.0544  0.1168
  146POPC   C1A 2058   4.948   9.304   7.292  0.0989  0.0275  0.1005
  146POPC   D2A 2059   4.764   9.643   7.085  0.0291  0.4993 -0.2484
  146POPC   C3A 2060   4.753   9.711   6.584  0.0257 -0.0653 -0.0427
  146POPC   C4A 2061   4.591   9.887   6.335  0.2311  0.0991  0.4249
  146POPC   C1B 2062   5.300   9.514   6.974  0.1011  0.2230 -0.1076
  146POPC   C2B 2063   5.462   9.319   6.596  0.0518  0.0090  0.1345
  146POPC   C3B 2064   5.789   9.102   6.468 -0.0182  0.0297  0.0047
  146POPC   C4B 2065   6.245   9.131   6.542 -0.0520 -0.0380  0.3674
  147POPC   NC3 2066   6.618   9.927   7.368  0.1058  0.0738  0.3453
  147POPC   PO4 2067   6.376   9.545   7.556 -0.0747  0.0229 -0.0615
  147POPC   GL1 2068   6.076   9.586   7.245 -0.1214  0.0301  0.0085
  147POPC   GL2 2069   6.194   9.801   7.050  0.0378  0.0764 -0.0482
  147POPC   C1A 2070   5.944   9.420   6.853  0.3862  0.1102  0.0268
  147POPC   D2A 2071   6.043   9.562   6.480  0.2349  0.1827  0.0449
  147POPC   C3A 2072   5.597   9.726   6.300 -0.1541  0.3540 -0.0639
  147POPC   C4A 2073   5.273   9.846   6.581  0.1230 -0.0666  0.0476
  147POPC   C1B 2074   6.397   9.853   6.631  0.0572 -0.1078 -0.1089
  147POPC   C2B 2075   6.630   9.561   6.435  0.2062  0.2647  0.1806
  147POPC   C3B 2076   6.738   9.132   6.255 -0.0549 -0.0433 -0.1626
  147POPC   C4B 2077   6.958   8.757   6.371  0.3458 -0.0676  0.1040
  148POPC   NC3 2078   5.444   2.872   7.652  0.1435 -0.2216 -0.0361
  148POPC   PO4 2079   5.740   2.475   7.559 -0.0227  0.2917 -0.1586
  148POPC   GL1 2080   5.640   2.299   7.051 -0.3304 -0.3268  0.1571
  148POPC   GL2 2081   5.328   2.325   6.830  0.0563 -0.2434  0.3372
  148POPC   C1A 2082   5.758   2.016   6.651 -0.1621 -0.2004 -0.0547
  148POPC   D2A 2083   5.672   1.760   6.256 -0.4271  0.0056 -0.2884
  148POPC   C3A 2084   5.454   1.539   6.019  0.0050  0.0594 -0.0253
  148POPC   C4A 2085   5.140   1.392   5.797 -0.1504 -0.0649 -0.0171
  148POPC   C1B 2086   5.670   2.528   6.569  0.1326  0.2899  0.2793
  148POPC   C2B 2087   5.706   2.809   6.215  0.2551 -0.3227  0.1819
  148POPC   C3B 2088   5.807   3.006   5.790 -0.0964 -0.1211 -0.0715
  148POPC   C4B 2089   5.874   3.207   5.363 -0.0314 -0.2904  0.0355
  149POPC   NC3 2090  10.487   3.869   7.635  0.3204 -0.3274  0.2824
  149POPC   PO4 2091  10.507   3.994   7.204 -0.0703 -0.1378  0.2511
  149POPC   GL1 2092  10.405   3.855   6.776 -0.2665  0.1492 -0.1097
  149POPC   GL2 2093  10.467   3.572   6.716 -0.4003 -0.0925 -0.0541
  149POPC   C1A 2094  10.380   3.889   6.299  0.0549  0.3767 -0.0186
  149POPC   D2A 2095  10.390   4.150   6.047 -0.0346 -0.1183  0.1329
  149POPC   C3A 2096  10.584   4.139   5.677 -0.2623  0.0608  0.0533
  149POPC   C4A 2097  10.804   4.121   5.311 -0.2526  0.4566 -0.3536
  149POPC   C1B 2098  10.738   3.517   6.383 -0.1324  0.0908  0.0608
  149POPC   C2B 2099  10.784   3.630   5.992  0.0047 -0.0603  0.1122
  149POPC   C3B 2100  10.843   3.671   5.574  0.5801  0.1643 -0.0406
  149POPC   C4B 2101  11.197   3.893   5.542  0.0685  0.1602 -0.0431
  150POPC   NC3 2102   7.958   4.911   7.643 -0.0551  0.1704  0.0604
  150POPC   PO4 2103   7.882   4.548   7.234 -0.2099 -0.1412 -0.1373
  150POPC   GL1 2104   7.929   4.834   6.913  0.3351  0.2714  0.1578
  150POPC   GL2 2105   8.265   4.795   6.885  0.1538 -0.0975  0.0342
  150POPC   C1A 2106   7.778   4.959   6.515  0.0409  0.1808 -0.3535
  150POPC   D2A 2107   7.441   4.819   6.367 -0.1751  0.1607  0.2494
  150POPC   C3A 2108   7.406   4.841   5.966  0.2875 -0.0643  0.0608
  150POPC   C4A 2109   7.419   4.896   5.517 -0.1500 -0.1735 -0.0426
  150POPC   C1B 2110   8.620   4.714   6.655 -0.0646  0.3314 -0.1707
  150POPC   C2B 2111   8.797   4.670   6.233  0.2857  0.0097 -0.1452
  150POPC   C3B 2112   8.849   4.800   5.840 -0.1373 -0.0549  0.0332
  150POPC   C4B 2113   9.055   4.570   5.646 -0.2818 -0.0677 -0.3401
  151POPC   NC3 2114   2.490   5.913   7.724 -0.0533 -0.0324 -0.3790
  151POPC   PO4 2115   2.154   5.706   7.484 -0.0084 -0.5643  0.2839
  151POPC   GL1 2116   2.126   5.565   7.063 -0.5105 -0.3611 -0.1180
  151POPC   GL2 2117   1.872   5.344   7.099  0.2250 -0.1713  0.2068
  151POPC   C1A 2118   2.072   5.452   6.656  0.0322 -0.0104 -0.1770
  151POPC   D2A 2119   2.025   5.249   6.196  0.2335 -0.1177 -0.1345
  151POPC   C3A 2120   2.212   5.504   5.831 -0.2146 -0.0457  0.4392
  151POPC   C4A 2121   2.239   5.796   5.618 -0.1247 -0.0861 -0.1637
  151POPC   C1B 2122   1.528   5.340   6.809  0.3071  0.3798 -0.0509
  151POPC   C2B 2123   1.647   5.203   6.502 -0.1009  0.3036  0.0357
  151POPC   C3B 2124   1.509   5.215   6.094 -0.2304 -0.0234  0.0294
  151POPC   C4B 2125   1.116   4.999   5.888 -0.0026 -0.2084  0.0013
  152POPC   NC3 2126   8.917   0.966   7.103  0.1035  0.0917  0.0118
  152POPC   PO4 2127   9.181   1.089   6.810 -0.2860  0.2875  0.2413
  152POPC   GL1 2128   8.997   1.311   6.548  0.1617  0.2549  0.2106
  152POPC   GL2 2129   9.098   1.675   6.363 -0.1039  0.0799 -0.3046
  152POPC   C1A 2130   8.817   1.418   5.987 -0.0244 -0.1373 -0.0213
  152POPC   D2A 2131   8.705   1.687   5.631 -0.0628  0.1518 -0.0871
  152POPC   C3A 2132   8.392   1.728   5.455  0.3678 -0.3238  0.0775
  152POPC   C4A 2133   8.284   1.622   5.044  0.0467 -0.2764  0.1590
  152POPC   C1B 2134   8.892   1.982   6.139  0.1253 -0.1380  0.2970
  152POPC   C2B 2135   8.489   2.142   5.925  0.0052 -0.1615  0.5366
  152POPC   C3B 2136   8.291   2.231   5.684 -0.0813 -0.2651  0.0556
  152POPC   C4B 2137   8.132   2.572   5.412  0.4811 -0.0292 -0.0219
  153POPC   NC3 2138   2.008   4.085   7.159  0.0724  0.0187 -0.0903
  153POPC   PO4 2139   2.260   3.745   7.109  0.0891  0.0041  0.1776
  153POPC   GL1 2140   2.382   3.759   6.675  0.0096  0.1439  0.3121
  153POPC   GL2 2141   2.747   3.802   6.640 -0.3894 -0.2520  0.0093
  153POPC   C1A 2142   2.140   3.817   6.344  0.1899 -0.0510  0.0479
  153POPC   D2A 2143   2.295   3.954   6.019 -0.1960  0.0738  0.1958
  153POPC   C3A 2144   2.199   3.968   5.588  0.0131  0.1410 -0.3291
  153POPC   C4A 2145   2.191   3.993   5.142  0.0005 -0.0188  0.2854
  153POPC   C1B 2146   3.141   4.012   6.552 -0.3517  0.1578  0.1762
  153POPC   C2B 2147   3.302   4.131   6.149  0.2398 -0.2653  0.0893
  153POPC   C3B 2148   3.477   4.361   5.865  0.0997 -0.0151 -0.3090
  153POPC   C4B 2149   3.678   4.773   5.830 -0.2112 -0.2781  0.1205
  154POPC   NC3 2150   0.779   9.031   7.594  0.1099 -0.0099 -0.1548
  154POPC   PO4 2151   0.778   9.084   7.141  0.1313 -0.0549 -0.0176
  154POPC   GL1 2152   0.925   9.214   6.756 -0.0793 -0.3711  0.1305
  154POPC   GL2 2153   0.885   9.054   6.466 -0.1663  0.0686  0.1458
  154POPC   C1A 2154   1.080   9.473   6.384  0.1974 -0.1037  0.1663
  154POPC   D2A 2155   1.426   9.321   6.136  0.0265 -0.0614 -0.1680
  154POPC   C3A 2156   1.648   9.096   5.831  0.1273 -0.0154  0.1384
  154POPC   C4A 2157   1.757   8.676   5.651 -0.0248 -0.2041  0.5162
  154POPC   C1B 2158   0.899   9.265   5.948  0.1302  0.0996  0.0267
  154POPC   C2B 2159   0.749   9.251   5.519  0.1886 -0.3698 -0.4796
  154POPC   C3B 2160   0.440   9.019   5.124 -0.1015  0.2272  0.2272
  154POPC   C4B 2161   0.330   9.051   4.750 -0.2658  0.1258  0.3244
  155POPC   NC3 2162   2.558   5.854   7.246  0.0375  0.0809  0.1773
  155POPC   PO4 2163   2.974   5.733   7.412  0.0518 -0.0542 -0.1153
  155POPC   GL1 2164   2.879   5.591   7.007 -0.1839 -0.1114  0.1203
  155POPC   GL2 2165   2.523   5.580   6.842  0.0150  0.0740  0.1071
  155POPC   C1A 2166   2.906   5.295   6.611 -0.0422 -0.2022  0.0515
  155POPC   D2A 2167   2.783   4.897   6.331 -0.3755  0.0458  0.1486
  155POPC   C3A 2168   2.679   4.811   5.845 -0.0098  0.2113 -0.1142
  155POPC   C4A 2169   2.268   4.775   5.526  0.0021 -0.0179 -0.0049
  155POPC   C1B 2170   2.833   5.840   6.421 -0.1045  0.1011  0.0092
  155POPC   C2B 2171   2.672   6.155   6.125  0.0491  0.1462  0.2311
  155POPC   C3B 2172   2.750   6.595   6.022  0.1417  0.0158 -0.0706
  155POPC   C4B 2173   3.045   6.841   6.118  0.1575  0.0693  0.0614
  156POPC   NC3 2174   7.871   7.069   7.097 -0.1204  0.0572 -0.0829
  156POPC   PO4 2175   8.187   6.766   7.130 -0.1534  0.1052  0.1967
  156POPC   GL1 2176   8.078   6.421   6.897 -0.3064 -0.1964  0.0886
  156POPC   GL2 2177   8.257   6.407   6.714  0.0471  0.0499  0.2394
  156POPC   C1A 2178   7.791   6.384   6.502  0.1387 -0.0690 -0.2805
  156POPC   D2A 2179   7.440   6.328   6.202 -0.0324  0.0225  0.2748
  156POPC   C3A 2180   7.282   6.661   5.919  0.0694  0.1066  0.2947
  156POPC   C4A 2181   7.447   7.099   5.933 -0.0434  0.0722  0.1553
  156POPC   C1B 2182   8.306   6.498   6.246  0.1622 -0.0214 -0.0447
  156POPC   C2B 2183   8.259   6.670   5.846  0.2606 -0.2662  0.0090
  156POPC   C3B 2184   8.210   6.854   5.385 -0.2579 -0.1798 -0.0158
  156POPC   C4B 2185   8.502   7.046   5.102 -0.2114 -0.0575  0.1787
  157POPC   NC3 2186   7.684   8.308   7.801  0.3362 -0.1017 -0.0945
  157POPC   PO4 2187   7.910   8.471   7.383  0.0936  0.1605 -0.1745
  157POPC   GL1 2188   8.110   8.538   6.972  0.2936  0.1479 -0.0072
  157POPC   GL2 2189   8.195   8.354   6.689 -0.2950 -0.1365  0.0758
  157POPC   C1A 2190   8.173   8.827   6.583 -0.0285 -0.0863 -0.0622
  157POPC   D2A 2191   8.185   8.858   6.127 -0.1319  0.2180 -0.0402
  157POPC   C3A 2192   8.352   8.928   5.768  0.2568  0.0060  0.2590
  157POPC   C4A 2193   8.376   8.945   5.359  0.1300 -0.4975  0.2614
  157POPC   C1B 2194   8.030   8.424   6.227  0.1161  0.4246 -0.1770
  157POPC   C2B 2195   7.752   8.594   5.825  0.0524 -0.1291 -0.4104
  157POPC   C3B 2196   7.443   8.872   5.540  0.3763  0.0311 -0.1093
  157POPC   C4B 2197   7.117   9.039   5.270 -0.0627  0.0856  0.0091
  158POPC   NC3 2198   1.748   0.735   7.800  0.1446 -0.0717 -0.1399
  158POPC   PO4 2199   1.722   0.425   7.493  0.0459  0.0738 -0.1216
  158POPC   GL1 2200   1.750   0.148   7.137 -0.0753  0.0147  0.0205
  158POPC   GL2 2201   1.865  -0.271   7.123  0.0156  0.1928 -0.2831
  158POPC   C1A 2202   1.941   0.254   6.753  0.0484  0.0852 -0.3848
  158POPC   D2A 2203   2.169   0.599   6.678  0.3771 -0.0256 -0.0656
  158POPC   C3A 2204   2.483   0.404   6.834  0.0332  0.2042  0.3372
  158POPC   C4A 2205   2.904   0.151   6.776 -0.0906  0.1602 -0.2098
  158POPC   C1B 2206   2.015  -0.237   6.691  0.0313 -0.2097 -0.3487
  158POPC   C2B 2207   2.366   0.015   6.571  0.0136 -0.2199  0.2051
  158POPC   C3B 2208   2.535   0.437   6.306 -0.0204  0.0865 -0.0271
  158POPC   C4B 2209   2.910   0.571   6.006 -0.0282 -0.1388 -0.0234
  159POPC   NC3 2210   0.042  10.004   7.229  0.1230  0.0074  0.1861
  159POPC   PO4 2211  -0.310  10.212   6.986 -0.1706 -0.0795 -0.0566
  159POPC   GL1 2212  -0.091  10.269   6.545 -0.2126  0.0938  0.1810
  159POPC   GL2 2213  -0.059   9.980   6.372 -0.2632  0.0836 -0.2575
  159POPC   C1A 2214   0.249  10.462   6.238 -0.2570 -0.1745 -0.0096
  159POPC   D2A 2215   0.255  10.601   5.798  0.0809  0.1724 -0.2039
  159POPC   C3A 2216   0.669  10.801   5.736  0.1178 -0.1166  0.1416
  159POPC   C4A 2217   0.822  11.249   5.641 -0.0497  0.0830  0.0759
  159POPC   C1B 2218   0.041   9.624   6.050  0.1719 -0.1264  0.3082
  159POPC   C2B 2219   0.007   9.467   5.784  0.0150 -0.1389 -0.0598
  159POPC   C3B 2220  -0.183   9.245   5.482 -0.0796 -0.1524  0.4909
  159POPC   C4B 2221  -0.568   9.176   5.070 -0.0460 -0.0837  0.1626
  160POPC   NC3 2222   1.873   3.027   7.459  0.2884 -0.4156 -0.0263
  160POPC   PO4 2223   2.329   2.855   7.415  0.2304 -0.0968  0.1287
  160POPC   GL1 2224   2.126   2.670   7.064  0.1983  0.1278 -0.0508
  160POPC   GL2 2225   1.834   2.820   7.027 -0.2257  0.1625 -0.4893
  160POPC   C1A 2226   2.465   2.525   6.769  0.1913  0.1974 -0.2770
  160POPC   D2A 2227   2.782   2.360   6.542  0.2961  0.1318 -0.1617
  160POPC   C3A 2228   2.674   2.470   6.080  0.0666 -0.0309  0.2363
  160POPC   C4A 2229   2.899   2.643   5.674  0.2566 -0.1490 -0.0329
  160POPC   C1B 2230   1.532   2.788   6.725  0.1733  0.0853 -0.1292
  160POPC   C2B 2231   1.593   2.903   6.317 -0.3110  0.1166  0.0940
  160POPC   C3B 2232   1.447   2.808   5.868 -0.2182  0.1165 -0.1581
  160POPC   C4B 2233   1.419   2.808   5.437 -0.1812  0.0100 -0.0137
  161POPC   NC3 2234   0.560   2.189   7.203 -0.0302  0.1144 -0.0492
  161POPC   PO4 2235   0.189   2.401   7.455  0.0604  0.2430 -0.1081
  161POPC   GL1 2236  -0.163   2.488   7.175 -0.1886 -0.3280 -0.3110
  161POPC   GL2 2237  -0.490   2.536   7.077 -0.0833 -0.4412  0.2079
  161POPC   C1A 2238  -0.140   2.368   6.720  0.2058 -0.1017  0.0716
  161POPC   D2A 2239  -0.241   2.171   6.250  0.5152 -0.0147  0.2761
  161POPC   C3A 2240  -0.164   2.264   5.826  0.0956  0.3039 -0.0403
  161POPC   C4A 2241  -0.019   2.135   5.406 -0.3056 -0.3952  0.2912
  161POPC   C1B 2242  -0.698   2.859   6.863  0.1501 -0.2774  0.1827
  161POPC   C2B 2243  -0.638   3.159   6.479 -0.2037  0.0677  0.1040
  161POPC   C3B 2244  -0.472   3.405   6.137 -0.2993 -0.1002  0.2964
  161POPC   C4B 2245  -0.484   3.723   5.801  0.0529  0.2600  0.2485
  162POPC   NC3 2246   7.502   9.805   7.175 -0.1476  0.0830  0.0276
  162POPC   PO4 2247   7.886   9.639   7.125  0.1163 -0.1011  0.1815
  162POPC   GL1 2248   7.815   9.900   6.787 -0.1918  0.3104 -0.3608
  162POPC   GL2 2249   8.128   9.933   6.698  0.1920 -0.2716  0.0701
  162POPC   C1A 2250   7.577  10.044   6.285 -0.0378  0.1873 -0.2091
  162POPC   D2A 2251   7.249   9.956   6.033  0.1509 -0.0325  0.0893
  162POPC   C3A 2252   7.259  10.102   5.674 -0.3224  0.0512 -0.0952
  162POPC   C4A 2253   7.426  10.127   5.225 -0.1434  0.1738  0.0107
  162POPC   C1B 2254   8.105  10.008   6.351  0.1429  0.3122 -0.1564
  162POPC   C2B 2255   8.008  10.082   5.957 -0.1787 -0.0174  0.2166
  162POPC   C3B 2256   7.765  10.159   5.727  0.0231  0.0732  0.2362
  162POPC   C4B 2257   7.877  10.330   5.311 -0.0451  0.0386 -0.1054
  163POPC   NC3 2258   8.022   2.196   7.326 -0.3273  0.2989 -0.1166
  163POPC   PO4 2259   8.075   2.595   7.105  0.3124 -0.0350  0.3133
  163POPC   GL1 2260   8.155   2.583   6.643  0.1722  0.0256 -0.0204
  163POPC   GL2 2261   7.840   2.914   6.552  0.2118 -0.1110  0.1300
  163POPC   C1A 2262   8.433   2.715   6.396 -0.2298 -0.3035 -0.1210
  163POPC   D2A 2263   8.729   3.019   6.130 -0.0591 -0.0365 -0.1814
  163POPC   C3A 2264   9.068   2.912   5.927 -0.1781 -0.0029  0.2471
  163POPC   C4A 2265   9.310   2.945   5.482 -0.1375 -0.0755  0.0193
  163POPC   C1B 2266   7.979   3.089   6.121 -0.1699  0.0410 -0.3788
  163POPC   C2B 2267   8.252   3.141   5.822  0.0241  0.1046  0.0365
  163POPC   C3B 2268   8.456   3.449   5.613  0.0544 -0.0364 -0.0133
  163POPC   C4B 2269   8.712   3.813   5.443  0.4101 -0.1018 -0.2342
  164POPC   NC3 2270   4.885   2.927   7.649  0.1807  0.0623 -0.0388
  164POPC   PO4 2271   4.585   3.076   7.323 -0.1110  0.3369 -0.2412
  164POPC   GL1 2272   4.675   3.033   6.823 -0.1325 -0.1678 -0.2220
  164POPC   GL2 2273   4.403   3.280   6.558 -0.0835  0.0319  0.0546
  164POPC   C1A 2274   4.827   3.114   6.458 -0.3657  0.1213  0.0730
  164POPC   D2A 2275   4.831   3.327   6.086  0.0874 -0.0767 -0.2724
  164POPC   C3A 2276   4.737   3.305   5.703 -0.1354  0.2672  0.0624
  164POPC   C4A 2277   4.659   2.951   5.458  0.0159  0.0892 -0.1994
  164POPC   C1B 2278   4.319   3.043   6.132 -0.0450  0.2253  0.1410
  164POPC   C2B 2279   4.052   2.858   5.774  0.2450  0.0277 -0.0835
  164POPC   C3B 2280   3.861   2.948   5.321 -0.2690 -0.1934 -0.2271
  164POPC   C4B 2281   3.605   3.181   5.053  0.0346 -0.4458  0.0305
  165POPC   NC3 2282  10.689   0.728   7.176  0.1006 -0.2011  0.0264
  165POPC   PO4 2283  10.554   1.123   6.986 -0.1431 -0.0129  0.2432
  165POPC   GL1 2284  10.643   1.203   6.513 -0.0387 -0.5098 -0.3010
  165POPC   GL2 2285  11.021   1.230   6.469  0.0869 -0.0501  0.1279
  165POPC   C1A 2286  10.637   1.245   6.079  0.1445  0.0216  0.2406
  165POPC   D2A 2287  10.765   1.316   5.671 -0.1035 -0.1901  0.1279
  165POPC   C3A 2288  11.188   1.167   5.508  0.2452 -0.0893 -0.2664
  165POPC   C4A 2289  11.490   0.801   5.244  0.0225 -0.1149 -0.1215
  165POPC   C1B 2290  11.160   1.494   6.318 -0.1665 -0.0838  0.0093
  165POPC   C2B 2291  11.184   1.559   5.877 -0.0153  0.1310  0.4225
  165POPC   C3B 2292  11.375   1.754   5.487 -0.2272 -0.1991 -0.0599
  165POPC   C4B 2293  11.750   1.772   5.429  0.0478 -0.4279 -0.2079
  166POPC   NC3 2294   6.105   6.454   7.097  0.1117  0.0005  0.0473
  166POPC   PO4 2295   5.704   6.404   7.203 -0.3100 -0.1065  0.0097
  166POPC   GL1 2296   5.728   6.235   6.824  0.0690  0.1255 -0.1301
  166POPC   GL2 2297   5.609   5.825   6.905 -0.0999  0.2570  0.0936
  166POPC   C1A 2298   5.984   6.133   6.419  0.3416  0.0886 -0.1161
  166POPC   D2A 2299   5.989   6.288   6.003  0.1723 -0.1792 -0.1616
  166POPC   C3A 2300   5.791   6.132   5.637 -0.0411 -0.0626  0.1343
  166POPC   C4A 2301   5.536   6.300   5.277  0.0379 -0.0191  0.2240
  166POPC   C1B 2302   5.727   5.605   6.491  0.4430  0.3521  0.1270
  166POPC   C2B 2303   5.995   5.382   6.155 -0.2132 -0.0393 -0.0844
  166POPC   C3B 2304   6.337   5.410   5.934  0.1068 -0.1121 -0.0265
  166POPC   C4B 2305   6.410   5.511   5.475  0.2022 -0.0622 -0.1347
  167POPC   NC3 2306   8.904   7.294   6.713 -0.0017  0.2054 -0.5445
  167POPC   PO4 2307   9.359   7.231   6.896  0.0754  0.1754  0.1316
  167POPC   GL1 2308   9.392   6.835   6.515  0.1932  0.2150 -0.0997
  167POPC   GL2 2309   9.043   6.613   6.393 -0.0874  0.3555  0.2316
  167POPC   C1A 2310   9.530   6.881   6.153  0.1261 -0.0830  0.0875
  167POPC   D2A 2311   9.997   6.921   6.179 -0.2124  0.3264  0.3441
  167POPC   C3A 2312  10.193   7.148   5.862 -0.0657 -0.0282 -0.2734
  167POPC   C4A 2313  10.029   7.142   5.497  0.1503 -0.0771 -0.2292
  167POPC   C1B 2314   9.184   6.434   6.023 -0.0459  0.0898 -0.2138
  167POPC   C2B 2315   9.376   6.020   5.920 -0.0534  0.3670  0.2890
  167POPC   C3B 2316   9.477   5.646   5.701 -0.1824 -0.1334  0.1834
  167POPC   C4B 2317   9.496   5.423   5.307  0.2949  0.0395  0.0539
  168POPC   NC3 2318   5.508  10.140   8.190 -0.3281 -0.0207 -0.2268
  168POPC   PO4 2319   5.514   9.924   7.810 -0.0545  0.1930 -0.0973
  168POPC   GL1 2320   5.390  10.245   7.527 -0.0018  0.1748 -0.1160
  168POPC   GL2 2321   5.599  10.403   7.520 -0.1207 -0.0476  0.0616
  168POPC   C1A 2322   5.063  10.476   7.295 -0.0533 -0.2329  0.0895
  168POPC   D2A 2323   4.779  10.690   6.954 -0.3036 -0.0256 -0.0116
  168POPC   C3A 2324   4.415  11.004   6.958 -0.0851  0.0619  0.3815
  168POPC   C4A 2325   4.065  10.928   6.698 -0.0003 -0.3200 -0.0532
  168POPC   C1B 2326   5.649  10.511   7.052  0.2205  0.2535  0.2707
  168POPC   C2B 2327   5.589  10.687   6.647 -0.0108 -0.2374 -0.3418
  168POPC   C3B 2328   5.900  10.702   6.359 -0.1676  0.1456 -0.0009
  168POPC   C4B 2329   6.108  11.034   6.197 -0.2173  0.1290 -0.1022
  169POPC   NC3 2330   0.214   1.407   6.974 -0.1526 -0.2583 -0.1040
  169POPC   PO4 2331   0.558   1.752   7.028 -0.3188 -0.1283 -0.0486
  169POPC   GL1 2332   0.428   2.029   6.717 -0.0046 -0.0944  0.0072
  169POPC   GL2 2333   0.264   1.886   6.664 -0.0263  0.3616  0.3800
  169POPC   C1A 2334   0.574   2.384   6.482  0.0985  0.3408 -0.2935
  169POPC   D2A 2335   0.701   2.251   6.130  0.0524  0.0868 -0.0300
  169POPC   C3A 2336   0.799   1.806   6.074  0.1358  0.0463  0.0293
  169POPC   C4A 2337   0.836   1.610   6.451 -0.3863  0.0019  0.1574
  169POPC   C1B 2338   0.282   2.024   6.237  0.1920 -0.0174  0.0126
  169POPC   C2B 2339   0.328   2.141   5.813  0.0893 -0.2046 -0.2482
  169POPC   C3B 2340   0.558   2.379   5.560  0.0519 -0.1995  0.1371
  169POPC   C4B 2341   0.953   2.621   5.545 -0.1201  0.1898 -0.2726
  170POPC   NC3 2342   2.177   8.841   7.563  0.0868  0.3454  0.0247
  170POPC   PO4 2343   2.095   9.230   7.443 -0.2228  0.2100  0.1659
  170POPC   GL1 2344   2.512   9.290   7.039 -0.1734 -0.1912 -0.0619
  170POPC   GL2 2345   2.645   9.567   6.909 -0.0060 -0.1901  0.0042
  170POPC   C1A 2346   2.880   9.112   6.898  0.1241  0.0654  0.0611
  170POPC   D2A 2347   3.106   8.979   6.534  0.0570  0.0361 -0.0217
  170POPC   C3A 2348   3.116   8.891   6.045 -0.1603  0.1668  0.3781
  170POPC   C4A 2349   3.248   8.883   5.640 -0.0505 -0.1554 -0.1942
  170POPC   C1B 2350   3.095   9.662   6.687 -0.0056 -0.1270  0.1633
  170POPC   C2B 2351   3.198   9.923   6.365  0.4085 -0.2261  0.0798
  170POPC   C3B 2352   3.145   9.802   5.832 -0.2579  0.0274 -0.2895
  170POPC   C4B 2353   3.314   9.354   5.663  0.1768 -0.0436  0.0387
  171POPC   NC3 2354   0.954  10.727   7.155 -0.2454 -0.0498  0.0729
  171POPC   PO4 2355   0.512  10.809   6.998  0.0422  0.5808 -0.2580
  171POPC   GL1 2356   0.573  10.676   6.619 -0.2396  0.0243 -0.1654
  171POPC   GL2 2357   0.884  10.662   6.602  0.0780  0.0144  0.0828
  171POPC   C1A 2358   0.594  10.824   6.237 -0.0027 -0.0647 -0.1854
  171POPC   D2A 2359   0.703  11.315   6.122  0.2256 -0.1412  0.1190
  171POPC   C3A 2360   1.055  11.537   6.117  0.1157 -0.2783 -0.1238
  171POPC   C4A 2361   1.447  11.712   6.277  0.1994  0.0641  0.0279
  171POPC   C1B 2362   1.035  11.012   6.378 -0.2881 -0.0818 -0.2357
  171POPC   C2B 2363   1.155  10.993   5.989  0.1816  0.0658  0.2423
  171POPC   C3B 2364   1.254  10.624   5.744  0.1590 -0.2286  0.0854
  171POPC   C4B 2365   1.523  10.426   5.475 -0.1375 -0.2217  0.1505
  172POPC   NC3 2366   5.613   8.782   7.375  0.1450  0.1196  0.1402
  172POPC   PO4 2367   5.178   8.762   7.524  0.2631 -0.1257  0.2572
  172POPC   GL1 2368   5.183   8.970   7.059  0.0504  0.2756  0.0024
  172POPC   GL2 2369   5.542   8.833   6.898  0.2022  0.1094  0.5699
  172POPC   C1A 2370   4.974   9.243   6.670 -0.2250  0.3145 -0.3174
  172POPC   D2A 2371   4.828   9.392   6.201  0.0348 -0.1277  0.0360
  172POPC   C3A 2372   4.523   9.231   5.947  0.2341 -0.2259  0.1436
  172POPC   C4A 2373   4.585   9.015   5.538  0.1575 -0.1740 -0.1377
  172POPC   C1B 2374   5.335   8.839   6.503  0.0314 -0.0546 -0.2148
  172POPC   C2B 2375   4.897   8.881   6.311 -0.0068 -0.0780 -0.1580
  172POPC   C3B 2376   4.552   8.929   6.316  0.1441  0.0317  0.2169
  172POPC   C4B 2377   4.212   8.990   6.521  0.2605  0.1947 -0.1147
  173POPC   NC3 2378   6.373   4.581   7.712 -0.2454  0.3246  0.0721
  173POPC   PO4 2379   6.077   4.571   7.372  0.1701 -0.1961 -0.1794
  173POPC   GL1 2380   6.003   4.546   6.902 -0.0726 -0.1309 -0.1306
  173POPC   GL2 2381   5.710   4.763   6.976  0.2209 -0.2845 -0.0577
  173POPC   C1A 2382   6.178   4.270   6.611  0.3150 -0.1346 -0.0189
  173POPC   D2A 2383   6.123   3.998   6.277  0.1308 -0.0768 -0.3653
  173POPC   C3A 2384   5.794   3.923   6.056 -0.1624  0.0873  0.1954
  173POPC   C4A 2385   5.665   3.919   5.665  0.0228 -0.1746 -0.1349
  173POPC   C1B 2386   5.590   4.677   6.591 -0.1290  0.0194 -0.0777
  173POPC   C2B 2387   5.908   4.578   6.302 -0.1569  0.3580  0.0288
  173POPC   C3B 2388   6.102   4.428   6.025 -0.1861  0.0721 -0.0639
  173POPC   C4B 2389   5.761   4.380   5.655  0.0940  0.1983 -0.0369
  174POPC   NC3 2390   8.333   8.125   2.841 -0.1877 -0.0865  0.3233
  174POPC   PO4 2391   8.039   7.854   3.151 -0.0385  0.0255 -0.1410
  174POPC   GL1 2392   7.958   7.862   3.534  0.0434  0.1187  0.0500
  174POPC   GL2 2393   8.143   7.578   3.651 -0.1021 -0.1823 -0.3855
  174POPC   C1A 2394   8.231   8.095   3.851 -0.0414 -0.2005 -0.0939
  174POPC   D2A 2395   8.252   8.059   4.241  0.0556  0.4114 -0.4266
  174POPC   C3A 2396   8.224   8.169   4.662  0.0316  0.0661  0.2484
  174POPC   C4A 2397   8.261   8.075   5.008  0.1979 -0.0860 -0.0196
  174POPC   C1B 2398   8.000   7.545   4.107  0.0775  0.1517  0.0280
  174POPC   C2B 2399   8.067   7.680   4.515 -0.0653 -0.1721 -0.0231
  174POPC   C3B 2400   7.702   7.555   4.719  0.1622 -0.1178 -0.2696
  174POPC   C4B 2401   7.483   7.591   5.022 -0.0314  0.2088  0.1055
  175POPC   NC3 2402   5.465   5.384   3.283  0.0993  0.3114  0.0421
  175POPC   PO4 2403   5.481   5.879   3.284 -0.2874  0.2413 -0.0917
  175POPC   GL1 2404   5.433   5.742   3.782 -0.1731  0.1291 -0.1827
  175POPC   GL2 2405   5.418   5.373   3.761  0.1574  0.2874 -0.0338
  175POPC   C1A 2406   5.360   5.706   4.216  0.2605 -0.1265 -0.1732
  175POPC   D2A 2407   5.156   5.505   4.573 -0.2185  0.0342  0.2669
  175POPC   C3A 2408   5.332   5.404   4.977  0.2588 -0.3158 -0.2982
  175POPC   C4A 2409   5.193   4.985   5.197 -0.4548  0.2433  0.4108
  175POPC   C1B 2410   5.804   5.569   4.054 -0.0204 -0.0246  0.0097
  175POPC   C2B 2411   5.923   5.857   4.481  0.0946 -0.3876 -0.0845
  175POPC   C3B 2412   6.212   6.086   4.613  0.1198 -0.0509  0.2776
  175POPC   C4B 2413   6.403   6.397   4.825 -0.2824 -0.2883 -0.3029
  176POPC   NC3 2414   2.370   6.135   2.608 -0.0746  0.0384  0.2303
  176POPC   PO4 2415   2.299   6.227   3.008 -0.3181 -0.0953 -0.0907
  176POPC   GL1 2416   2.294   5.982   3.356  0.2552  0.0143 -0.1020
  176POPC   GL2 2417   2.624   6.148   3.465  0.1082  0.1725  0.2688
  176POPC   C1A 2418   2.173   5.940   3.865 -0.0140 -0.0708  0.0185
  176POPC   D2A 2419   2.163   6.140   4.214 -0.1567 -0.0073  0.0705
  176POPC   C3A 2420   2.292   5.986   4.561  0.1510  0.0248  0.0843
  176POPC   C4A 2421   2.087   5.919   5.028  0.1451  0.0465 -0.2864
  176POPC   C1B 2422   2.665   6.091   3.972  0.0591  0.1787 -0.3913
  176POPC   C2B 2423   2.694   6.100   4.338  0.1001  0.2008  0.0478
  176POPC   C3B 2424   3.003   6.048   4.590  0.0851  0.0381 -0.1092
  176POPC   C4B 2425   3.262   6.301   4.785 -0.1683  0.1315 -0.0869
  177POPC   NC3 2426   2.661   0.138   3.478  0.0541 -0.1352  0.1386
  177POPC   PO4 2427   2.165   0.134   3.370  0.0123  0.1779  0.1352
  177POPC   GL1 2428   2.276   0.229   3.799 -0.2066  0.1780  0.2299
  177POPC   GL2 2429   1.954   0.365   3.924 -0.0887  0.1130 -0.1291
  177POPC   C1A 2430   2.351   0.496   4.204  0.0415  0.0008  0.1432
  177POPC   D2A 2431   2.408   0.409   4.506  0.1484  0.4631  0.2206
  177POPC   C3A 2432   2.609   0.657   4.869 -0.0670 -0.0216 -0.0372
  177POPC   C4A 2433   2.371   0.936   5.074 -0.1376 -0.2481  0.1664
  177POPC   C1B 2434   1.894   0.384   4.407  0.0501 -0.1384  0.0179
  177POPC   C2B 2435   1.576   0.211   4.500 -0.0623 -0.1634  0.0244
  177POPC   C3B 2436   1.749  -0.198   4.663  0.3042  0.0285 -0.2216
  177POPC   C4B 2437   1.815  -0.625   4.522 -0.0962 -0.1183 -0.0967
  178POPC   NC3 2438   1.915   1.213   3.322 -0.2202  0.0535  0.3295
  178POPC   PO4 2439   2.112   1.472   3.541 -0.1531  0.2567 -0.0755
  178POPC   GL1 2440   2.385   1.541   3.961 -0.1065 -0.0076  0.1485
  178POPC   GL2 2441   2.305   1.913   3.861  0.0203  0.1459 -0.1858
  178POPC   C1A 2442   2.266   1.417   4.281 -0.0154 -0.0279 -0.0391
  178POPC   D2A 2443   2.358   1.261   4.616 -0.1031 -0.2118 -0.4372
  178POPC   C3A 2444   2.430   1.409   5.084  0.1117  0.1919 -0.0684
  178POPC   C4A 2445   2.608   1.540   5.437  0.0018 -0.2485 -0.1099
  178POPC   C1B 2446   2.225   1.943   4.280 -0.0744  0.1505  0.1883
  178POPC   C2B 2447   1.959   2.203   4.494 -0.1147  0.0054  0.1196
  178POPC   C3B 2448   1.630   2.158   4.794 -0.1420  0.0625 -0.1555
  178POPC   C4B 2449   1.584   1.842   5.111  0.1838 -0.1082 -0.2705
  179POPC   NC3 2450   8.292   4.199   2.935 -0.1159  0.4152  0.3356
  179POPC   PO4 2451   8.353   4.405   3.377  0.2343  0.1100  0.0919
  179POPC   GL1 2452   8.060   4.644   3.654  0.0399 -0.1781  0.1835
  179POPC   GL2 2453   7.925   4.533   3.853 -0.0694 -0.2923 -0.2213
  179POPC   C1A 2454   7.950   5.051   4.007  0.1073  0.2533  0.3034
  179POPC   D2A 2455   7.791   5.199   4.334 -0.1088  0.0786 -0.0817
  179POPC   C3A 2456   7.951   5.174   4.711  0.1269 -0.1359 -0.2350
  179POPC   C4A 2457   8.269   5.027   5.007 -0.1911 -0.1521 -0.2055
  179POPC   C1B 2458   8.162   4.269   4.216 -0.1889 -0.0975  0.1033
  179POPC   C2B 2459   8.266   4.186   4.652  0.3155 -0.1797 -0.0886
  179POPC   C3B 2460   8.387   4.115   5.052  0.0949  0.2290  0.4468
  179POPC   C4B 2461   8.673   4.392   5.365  0.1926  0.1316 -0.1593
  180POPC   NC3 2462   1.116   0.938   3.371  0.1033 -0.2960 -0.0350
  180POPC   PO4 2463   0.564   0.807   3.333 -0.0646 -0.1511 -0.1229
  180POPC   GL1 2464   0.762   1.005   3.756  0.2720  0.0223  0.0353
  180POPC   GL2 2465   0.976   0.783   3.856 -0.0850  0.0038 -0.2215
  180POPC   C1A 2466   0.685   1.235   4.131  0.5683  0.0494  0.0231
  180POPC   D2A 2467   0.475   1.684   4.100  0.0181  0.2952  0.3008
  180POPC   C3A 2468   0.290   1.820   4.417 -0.0182 -0.3399 -0.2584
  180POPC   C4A 2469   0.155   2.263   4.570 -0.0709 -0.2417 -0.0381
  180POPC   C1B 2470   0.612   0.659   4.044 -0.0378 -0.3374 -0.0565
  180POPC   C2B 2471   0.616   0.652   4.553  0.1803  0.5702  0.1204
  180POPC   C3B 2472   0.668   0.398   4.949  0.0143  0.0742  0.0621
  180POPC   C4B 2473   0.468   0.228   5.319  0.1662 -0.3744  0.2143
  181POPC   NC3 2474  10.566   9.279   3.066 -0.2806 -0.0761 -0.0395
  181POPC   PO4 2475  10.928   9.349   3.132 -0.3685 -0.0465  0.2116
  181POPC   GL1 2476  10.923   9.505   3.578  0.1047  0.0083  0.0358
  181POPC   GL2 2477  10.844   9.337   3.854  0.0542  0.4076  0.0960
  181POPC   C1A 2478  10.849   9.856   3.939  0.0202 -0.0576  0.1308
  181POPC   D2A 2479  10.837   9.885   4.396 -0.2161 -0.0584  0.1403
  181POPC   C3A 2480  10.924   9.522   4.558 -0.0156  0.0302  0.0333
  181POPC   C4A 2481  10.578   9.374   4.778 -0.1690 -0.2938 -0.1255
  181POPC   C1B 2482  10.722   9.029   4.188  0.5560  0.2154 -0.6831
  181POPC   C2B 2483  10.452   8.967   4.563 -0.2822  0.2310  0.0851
  181POPC   C3B 2484  10.195   8.746   4.765 -0.4261 -0.1550  0.1926
  181POPC   C4B 2485  10.021   8.402   4.624  0.0931 -0.0743  0.0242
  182POPC   NC3 2486   4.803   8.279   3.256 -0.0463  0.0385 -0.0608
  182POPC   PO4 2487   5.139   8.536   3.434 -0.0229  0.3346  0.0311
  182POPC   GL1 2488   5.121   8.891   3.720  0.0299  0.0554 -0.2391
  182POPC   GL2 2489   5.251   9.117   3.815 -0.0658  0.0457  0.0742
  182POPC   C1A 2490   5.112   8.727   4.133  0.2073 -0.1113 -0.2122
  182POPC   D2A 2491   5.267   8.583   4.616 -0.3187 -0.1018  0.0926
  182POPC   C3A 2492   5.567   8.147   4.600 -0.1131 -0.0234  0.3054
  182POPC   C4A 2493   5.538   7.854   4.643  0.0071 -0.3244  0.5075
  182POPC   C1B 2494   5.109   9.253   4.205  0.2247 -0.1955 -0.2247
  182POPC   C2B 2495   5.182   9.307   4.653  0.4405 -0.2808  0.2225
  182POPC   C3B 2496   5.226   9.029   4.968  0.0046 -0.0343 -0.0803
  182POPC   C4B 2497   5.471   8.771   5.211  0.0212 -0.1526 -0.1939
  183POPC   NC3 2498   5.684   7.901   3.128 -0.3212  0.2363 -0.0245
  183POPC   PO4 2499   5.848   7.845   3.484 -0.0640 -0.0516 -0.2433
  183POPC   GL1 2500   5.755   7.645   3.931 -0.0927  0.0328  0.1510
  183POPC   GL2 2501   5.602   7.905   4.062  0.0122  0.0614  0.3581
  183POPC   C1A 2502   5.427   7.482   4.280  0.1948  0.2743  0.1039
  183POPC   D2A 2503   5.432   7.349   4.746  0.0907 -0.4436  0.0952
  183POPC   C3A 2504   5.116   7.600   4.885 -0.2221  0.3546  0.1317
  183POPC   C4A 2505   4.654   7.505   4.962  0.0269 -0.0429  0.2512
  183POPC   C1B 2506   5.186   7.993   4.230 -0.2271 -0.2341 -0.0402
  183POPC   C2B 2507   4.916   7.720   4.378 -0.0844  0.1927 -0.1272
  183POPC   C3B 2508   4.949   7.296   4.472  0.1689  0.0352 -0.0182
  183POPC   C4B 2509   4.726   7.079   4.762  0.0629  0.0050 -0.1653
  184POPC   NC3 2510   9.549   0.001   2.822  0.0780 -0.0344  0.3343
  184POPC   PO4 2511   9.772   0.002   3.250  0.2980 -0.2178  0.0599
  184POPC   GL1 2512   9.772  -0.016   3.543  0.1633  0.0416  0.1023
  184POPC   GL2 2513   9.802   0.189   3.775  0.2114  0.1357  0.1835
  184POPC   C1A 2514   9.752  -0.397   3.822  0.0988  0.1628  0.1394
  184POPC   D2A 2515   9.629  -0.518   4.174 -0.0513 -0.3189 -0.0910
  184POPC   C3A 2516   9.632  -0.348   4.614  0.0186  0.1607 -0.0823
  184POPC   C4A 2517   9.829  -0.119   5.020 -0.0779 -0.0357  0.1015
  184POPC   C1B 2518   9.718   0.001   4.198 -0.0083  0.4030 -0.3810
  184POPC   C2B 2519   9.656   0.156   4.611  0.1153  0.0953 -0.2988
  184POPC   C3B 2520   9.727   0.470   4.925 -0.1717  0.2749  0.1100
  184POPC   C4B 2521  10.048   0.779   5.081 -0.1741 -0.0593  0.1919
  185POPC   NC3 2522   3.006   7.651   3.158 -0.0235  0.1178 -0.0734
  185POPC   PO4 2523   3.164   7.334   3.550  0.2413 -0.2500 -0.0465
  185POPC   GL1 2524   2.996   7.572   3.922  0.0260  0.1459  0.0198
  185POPC   GL2 2525   3.298   7.636   4.007 -0.2676 -0.2478 -0.2817
  185POPC   C1A 2526   2.898   7.569   4.337 -0.2353  0.0428 -0.1576
  185POPC   D2A 2527   2.696   7.545   4.778 -0.0259  0.3464  0.0046
  185POPC   C3A 2528   2.882   7.134   5.022 -0.0338  0.1803 -0.6136
  185POPC   C4A 2529   3.045   6.809   4.775 -0.0864  0.0330 -0.3042
  185POPC   C1B 2530   3.227   7.948   4.379  0.0261  0.0833  0.1059
  185POPC   C2B 2531   3.116   7.863   4.720  0.3380 -0.1042  0.1255
  185POPC   C3B 2532   3.235   7.906   5.177  0.1670  0.1061 -0.2845
  185POPC   C4B 2533   3.041   8.177   5.577  0.1150 -0.2270  0.1109
  186POPC   NC3 2534   1.319   3.506   3.220 -0.2802 -0.0038  0.1662
  186POPC   PO4 2535   0.964   3.450   3.454 -0.1611 -0.0614 -0.2947
  186POPC   GL1 2536   1.001   3.267   3.866  0.2289  0.2419  0.0626
  186POPC   GL2 2537   0.980   2.957   3.841 -0.1066  0.1158 -0.1923
  186POPC   C1A 2538   0.659   3.155   4.296  0.1064  0.1202 -0.1781
  186POPC   D2A 2539   0.736   2.909   4.623  0.1807 -0.2089 -0.1506
  186POPC   C3A 2540   0.402   2.851   4.923 -0.0669  0.0063 -0.0102
  186POPC   C4A 2541   0.106   2.508   5.056 -0.0351  0.2104 -0.0273
  186POPC   C1B 2542   1.095   2.927   4.316 -0.1024  0.0268  0.0467
  186POPC   C2B 2543   1.310   2.948   4.731 -0.2940 -0.0929  0.1529
  186POPC   C3B 2544   1.105   3.067   4.988 -0.2979 -0.1991  0.0753
  186POPC   C4B 2545   0.986   3.174   5.344 -0.0799  0.0063  0.2115
  187POPC   NC3 2546   6.014   1.185   3.334  0.0194 -0.0943 -0.1790
  187POPC   PO4 2547   6.452   1.268   3.290 -0.0299 -0.2671  0.0820
  187POPC   GL1 2548   6.533   1.307   3.714  0.3676  0.3232  0.2560
  187POPC   GL2 2549   6.850   1.162   3.824 -0.1176 -0.1578  0.0453
  187POPC   C1A 2550   6.502   1.601   4.112 -0.1534  0.0297 -0.0699
  187POPC   D2A 2551   6.492   1.781   4.645 -0.2389 -0.3374  0.1778
  187POPC   C3A 2552   6.089   1.928   4.872 -0.0042  0.0762  0.2924
  187POPC   C4A 2553   5.666   2.026   4.944 -0.1674 -0.2995 -0.0723
  187POPC   C1B 2554   7.168   1.007   4.161  0.2534 -0.0411 -0.0406
  187POPC   C2B 2555   7.443   0.742   4.326  0.1399 -0.0163 -0.0737
  187POPC   C3B 2556   7.752   0.764   4.696  0.6658 -0.4366  0.2550
  187POPC   C4B 2557   8.174   0.723   4.868  0.3227  0.2632 -0.2192
  188POPC   NC3 2558   2.089   9.063   3.149  0.0870 -0.0419  0.0399
  188POPC   PO4 2559   1.928   8.988   3.578  0.0653  0.0372 -0.3954
  188POPC   GL1 2560   1.642   8.999   3.849 -0.4519  0.0188 -0.2950
  188POPC   GL2 2561   1.549   9.307   3.985  0.0192  0.2397 -0.1895
  188POPC   C1A 2562   1.425   8.907   4.200  0.2574 -0.0194 -0.0729
  188POPC   D2A 2563   1.331   8.728   4.518  0.3301 -0.0008 -0.2618
  188POPC   C3A 2564   1.343   8.903   4.920  0.1760  0.1841  0.2400
  188POPC   C4A 2565   1.611   8.909   5.192 -0.0421 -0.1449 -0.0450
  188POPC   C1B 2566   1.790   9.208   4.321 -0.2697  0.0091 -0.0751
  188POPC   C2B 2567   1.850   9.296   4.700 -0.1962 -0.1729  0.1219
  188POPC   C3B 2568   1.740   9.413   5.075  0.0520  0.2463  0.0029
  188POPC   C4B 2569   1.546   9.436   5.518  0.1799  0.0109  0.0688
  189POPC   NC3 2570   9.373   5.954   3.435  0.1099 -0.1672  0.2158
  189POPC   PO4 2571   9.061   5.669   3.529  0.0910 -0.0157 -0.2354
  189POPC   GL1 2572   8.819   5.707   3.939  0.2479  0.4014  0.1625
  189POPC   GL2 2573   8.543   5.933   3.960 -0.0819  0.1043 -0.0517
  189POPC   C1A 2574   8.808   5.578   4.319 -0.1881  0.1633  0.0105
  189POPC   D2A 2575   8.805   5.540   4.692 -0.0510  0.0234  0.0967
  189POPC   C3A 2576   8.969   5.813   4.829  0.0442  0.1966  0.2132
  189POPC   C4A 2577   8.880   6.125   5.077  0.0428  0.2020  0.4540
  189POPC   C1B 2578   8.370   5.579   4.107 -0.0885 -0.0283 -0.0343
  189POPC   C2B 2579   8.347   5.216   4.328  0.0755 -0.2150 -0.3465
  189POPC   C3B 2580   8.550   5.151   4.596  0.2836  0.3049 -0.0284
  189POPC   C4B 2581   8.538   4.678   4.702  0.1356  0.3264 -0.0353
  190POPC   NC3 2582   8.288   5.258   3.056 -0.1139 -0.2981 -0.0103
  190POPC   PO4 2583   7.886   5.590   3.191 -0.2653 -0.2294  0.2305
  190POPC   GL1 2584   7.791   5.673   3.598 -0.3602 -0.2075  0.0249
  190POPC   GL2 2585   7.513   5.480   3.848 -0.1124  0.2739  0.2461
  190POPC   C1A 2586   7.856   5.723   4.091 -0.1943 -0.1429  0.4014
  190POPC   D2A 2587   7.770   5.813   4.399  0.3599 -0.0665  0.0270
  190POPC   C3A 2588   7.593   5.593   4.674  0.1499 -0.1544  0.0410
  190POPC   C4A 2589   7.600   5.324   5.117  0.0100  0.0439  0.2273
  190POPC   C1B 2590   7.303   5.328   4.242 -0.2062 -0.1029 -0.1850
  190POPC   C2B 2591   7.276   5.200   4.601  0.1635 -0.0986 -0.0787
  190POPC   C3B 2592   7.141   5.008   5.065 -0.0025  0.0270  0.1251
  190POPC   C4B 2593   6.810   5.086   5.408 -0.0330  0.1341  0.1529
  191POPC   NC3 2594   5.873   2.883   2.962  0.1082  0.0043  0.3536
  191POPC   PO4 2595   6.038   2.589   3.112 -0.2373  0.1542 -0.0740
  191POPC   GL1 2596   6.040   2.634   3.554 -0.0096 -0.1470 -0.0352
  191POPC   GL2 2597   6.374   2.660   3.609  0.0691 -0.0591  0.1079
  191POPC   C1A 2598   5.985   2.618   3.938 -0.0624 -0.2629 -0.0692
  191POPC   D2A 2599   5.884   2.771   4.340 -0.0806  0.2697  0.0128
  191POPC   C3A 2600   5.914   3.159   4.290  0.3830 -0.0481  0.0047
  191POPC   C4A 2601   6.310   3.419   4.303 -0.0512  0.2809 -0.4810
  191POPC   C1B 2602   6.634   2.500   4.042 -0.1783 -0.1363 -0.0454
  191POPC   C2B 2603   6.751   2.683   4.431  0.1555 -0.2046 -0.0426
  191POPC   C3B 2604   7.051   2.624   4.784  0.1727  0.1871  0.0638
  191POPC   C4B 2605   7.235   2.664   5.073  0.0968 -0.1785 -0.0440
  192POPC   NC3 2606   4.689   2.713   3.034  0.2961  0.1115 -0.0660
  192POPC   PO4 2607   4.473   2.788   3.391  0.1327 -0.0080 -0.3843
  192POPC   GL1 2608   4.233   2.965   3.811  0.1846  0.2588 -0.2572
  192POPC   GL2 2609   4.119   2.673   3.919  0.0959 -0.5092  0.2825
  192POPC   C1A 2610   4.039   3.012   4.289 -0.0584 -0.1018  0.0286
  192POPC   D2A 2611   3.945   3.302   4.743 -0.0523  0.2172 -0.0045
  192POPC   C3A 2612   4.037   3.569   5.131 -0.0177  0.0426  0.1105
  192POPC   C4A 2613   4.143   3.874   5.449 -0.0199  0.3064 -0.0609
  192POPC   C1B 2614   4.520   2.611   4.121  0.0516  0.1940 -0.1473
  192POPC   C2B 2615   4.813   2.735   4.513 -0.0241 -0.1723 -0.1041
  192POPC   C3B 2616   4.700   2.781   4.926 -0.0501 -0.0277 -0.0981
  192POPC   C4B 2617   4.763   2.467   5.289 -0.0229 -0.0730  0.3848
  193POPC   NC3 2618   6.019   0.292   3.079  0.2693 -0.0306 -0.0079
  193POPC   PO4 2619   6.104  -0.079   3.244  0.0280  0.3802 -0.1855
  193POPC   GL1 2620   6.128  -0.460   3.523  0.0660  0.1748 -0.2359
  193POPC   GL2 2621   6.318  -0.586   3.455 -0.1617 -0.0378 -0.1763
  193POPC   C1A 2622   6.018  -0.471   3.956  0.0518  0.1188 -0.0934
  193POPC   D2A 2623   6.295  -0.512   4.376 -0.1453  0.1369  0.1532
  193POPC   C3A 2624   6.435  -0.855   4.743  0.1889  0.0341 -0.1040
  193POPC   C4A 2625   6.455  -1.088   5.140  0.0612  0.0628  0.1933
  193POPC   C1B 2626   6.381  -0.768   3.847  0.0033 -0.1524  0.0230
  193POPC   C2B 2627   6.369  -1.011   4.196  0.2787 -0.2062  0.1657
  193POPC   C3B 2628   6.157  -1.183   4.464  0.0609  0.1982 -0.1333
  193POPC   C4B 2629   6.075  -1.253   4.891 -0.1811 -0.0594 -0.0975
  194POPC   NC3 2630   3.824   8.422   3.483 -0.0738  0.0686  0.1367
  194POPC   PO4 2631   3.794   7.973   3.523  0.0365 -0.1504  0.2578
  194POPC   GL1 2632   3.706   8.111   3.980 -0.0683 -0.0615  0.2668
  194POPC   GL2 2633   3.977   8.297   3.979  0.0952 -0.0699  0.2913
  194POPC   C1A 2634   3.535   8.357   4.300  0.0529 -0.3629  0.1008
  194POPC   D2A 2635   3.344   8.818   4.372 -0.1758 -0.1996  0.2053
  194POPC   C3A 2636   3.116   8.829   4.750 -0.0441  0.0952 -0.1176
  194POPC   C4A 2637   2.825   9.060   4.946  0.3407  0.0857  0.4732
  194POPC   C1B 2638   4.181   8.027   4.364  0.1131  0.1659 -0.1518
  194POPC   C2B 2639   4.208   8.167   4.799  0.1577  0.0948  0.1424
  194POPC   C3B 2640   4.066   8.157   5.219 -0.0349 -0.0586 -0.2000
  194POPC   C4B 2641   3.655   8.089   5.294 -0.2122  0.1332  0.0115
  195POPC   NC3 2642   1.236   5.529   3.524  0.2125 -0.1970  0.1450
  195POPC   PO4 2643   1.405   5.951   3.438 -0.2613 -0.4318 -0.2644
  195POPC   GL1 2644   1.525   5.844   3.850 -0.1110  0.0091  0.0193
  195POPC   GL2 2645   1.205   5.689   4.029 -0.0970 -0.1906  0.1576
  195POPC   C1A 2646   1.716   5.931   4.182  0.0657  0.0716 -0.6312
  195POPC   D2A 2647   1.816   5.735   4.622  0.0886 -0.1508  0.0893
  195POPC   C3A 2648   1.718   5.343   4.833  0.1337  0.2417  0.1855
  195POPC   C4A 2649   1.792   4.945   5.059  0.0403  0.1862  0.1354
  195POPC   C1B 2650   1.355   5.698   4.424  0.4434  0.0467 -0.2460
  195POPC   C2B 2651   1.329   5.650   4.792 -0.0852  0.1164  0.0835
  195POPC   C3B 2652   1.638   5.782   5.158  0.2495 -0.1775 -0.1388
  195POPC   C4B 2653   1.819   5.692   5.454 -0.1646  0.0822  0.1944
  196POPC   NC3 2654  10.130   5.863   3.011 -0.2171  0.2173  0.0918
  196POPC   PO4 2655   9.852   5.949   3.319  0.0358 -0.0880 -0.3475
  196POPC   GL1 2656   9.789   6.075   3.775 -0.1495 -0.2055  0.1913
  196POPC   GL2 2657   9.811   6.425   3.758 -0.2319 -0.0396 -0.2802
  196POPC   C1A 2658   9.834   5.947   4.215  0.3452 -0.2644 -0.1884
  196POPC   D2A 2659   9.626   5.700   4.473  0.1777 -0.1541 -0.1509
  196POPC   C3A 2660   9.624   5.767   4.971 -0.0724 -0.1340  0.2512
  196POPC   C4A 2661   9.830   5.813   5.320 -0.2949  0.2900 -0.3475
  196POPC   C1B 2662   9.736   6.854   4.016  0.1884  0.0763  0.0662
  196POPC   C2B 2663   9.823   7.297   4.227  0.0972  0.0940  0.1812
  196POPC   C3B 2664   9.661   7.433   4.603  0.2356  0.0743  0.1372
  196POPC   C4B 2665   9.802   7.253   5.068  0.0668 -0.1206  0.1937
  197POPC   NC3 2666   2.467   8.250   3.637  0.0092 -0.1082  0.0028
  197POPC   PO4 2667   2.866   8.001   3.666  0.2554 -0.0605 -0.5163
  197POPC   GL1 2668   2.507   7.747   3.892  0.0038  0.1330 -0.1656
  197POPC   GL2 2669   2.550   7.355   4.055 -0.0827 -0.5196  0.0371
  197POPC   C1A 2670   2.486   7.819   4.324 -0.1704 -0.2333  0.0886
  197POPC   D2A 2671   2.659   8.091   4.627  0.0487 -0.0665 -0.0682
  197POPC   C3A 2672   2.725   8.050   5.020  0.0606  0.1557  0.1473
  197POPC   C4A 2673   2.560   8.302   5.416  0.0508 -0.1310  0.0961
  197POPC   C1B 2674   2.031   7.400   4.110 -0.2273  0.3290 -0.0248
  197POPC   C2B 2675   1.713   7.108   3.966  0.1932  0.2203  0.0564
  197POPC   C3B 2676   1.488   6.776   3.924 -0.4042 -0.1181  0.0682
  197POPC   C4B 2677   1.490   6.466   4.243 -0.0833  0.1196 -0.0830
  198POPC   NC3 2678   4.999   5.644   3.460 -0.1712 -0.1587  0.1343
  198POPC   PO4 2679   4.988   5.258   3.378  0.0591  0.1084  0.1672
  198POPC   GL1 2680   4.879   5.236   3.759 -0.1174 -0.0361  0.1146
  198POPC   GL2 2681   4.971   5.518   3.894  0.2093 -0.2140 -0.1269
  198POPC   C1A 2682   5.009   5.057   4.182  0.1161  0.2341 -0.1903
  198POPC   D2A 2683   5.028   5.027   4.645  0.1598 -0.0118 -0.0163
  198POPC   C3A 2684   5.154   4.590   4.783  0.4136 -0.1890  0.2258
  198POPC   C4A 2685   4.914   4.215   4.870 -0.3990  0.0371  0.3998
  198POPC   C1B 2686   4.743   5.639   4.261  0.1901 -0.0542 -0.0538
  198POPC   C2B 2687   4.681   5.378   4.513 -0.1223 -0.3555  0.4336
  198POPC   C3B 2688   4.834   5.392   4.973 -0.3319  0.0890  0.1684
  198POPC   C4B 2689   4.950   5.384   5.395  0.0931 -0.2006  0.2394
  199POPC   NC3 2690   4.204   8.501   3.185  0.0157 -0.0157  0.0913
  199POPC   PO4 2691   4.286   8.227   3.456 -0.0310 -0.0183 -0.0885
  199POPC   GL1 2692   4.445   8.199   3.924  0.3674 -0.1664  0.3231
  199POPC   GL2 2693   4.646   8.540   3.890  0.1595  0.0487 -0.0516
  199POPC   C1A 2694   4.264   8.529   4.303 -0.0867 -0.0560 -0.0116
  199POPC   D2A 2695   4.362   8.864   4.684 -0.0883 -0.0897 -0.1528
  199POPC   C3A 2696   4.377   8.655   5.217  0.2085  0.1994  0.1119
  199POPC   C4A 2697   4.090   8.743   5.520  0.1065  0.2592 -0.0781
  199POPC   C1B 2698   4.797   8.384   4.416 -0.0779 -0.0843 -0.0386
  199POPC   C2B 2699   4.641   8.449   4.835  0.3680 -0.3687 -0.0346
  199POPC   C3B 2700   4.991   8.560   5.121 -0.0358 -0.0068  0.2641
  199POPC   C4B 2701   5.026   8.759   5.529 -0.1575  0.0832  0.2111
  200POPC   NC3 2702   1.775   7.369   3.336 -0.0390 -0.3677  0.0730
  200POPC   PO4 2703   2.090   7.672   3.526 -0.0133 -0.0381  0.3546
  200POPC   GL1 2704   1.855   7.833   3.858 -0.3811  0.0220  0.1311
  200POPC   GL2 2705   2.087   8.010   4.104 -0.0380 -0.1984 -0.3206
  200POPC   C1A 2706   1.703   7.766   4.281  0.2276 -0.1472 -0.3804
  200POPC   D2A 2707   1.511   7.822   4.745 -0.1558  0.0141  0.1930
  200POPC   C3A 2708   1.814   8.027   4.977 -0.0213  0.0687  0.0238
  200POPC   C4A 2709   2.132   7.902   5.000  0.2276  0.0155 -0.0648
  200POPC   C1B 2710   2.136   8.198   4.584  0.1426 -0.1526 -0.0413
  200POPC   C2B 2711   2.133   8.411   4.950 -0.1630 -0.0243 -0.0106
  200POPC   C3B 2712   1.958   8.319   5.346  0.1581 -0.0634  0.0329
  200POPC   C4B 2713   1.978   8.005   5.705 -0.3884 -0.0070  0.1046
  201POPC   NC3 2714   0.996   9.906   3.409  0.0225  0.0332 -0.1798
  201POPC   PO4 2715   1.135  10.284   3.269 -0.2122 -0.3467  0.1209
  201POPC   GL1 2716   0.998  10.318   3.722  0.2416  0.0151  0.1061
  201POPC   GL2 2717   1.192  10.588   3.757  0.1064 -0.2765  0.0605
  201POPC   C1A 2718   0.974  10.269   4.163  0.2729 -0.3122  0.0813
  201POPC   D2A 2719   0.774  10.284   4.613  0.1934  0.0152  0.3195
  201POPC   C3A 2720   0.944  10.292   5.076  0.2610 -0.1588  0.2535
  201POPC   C4A 2721   1.095  10.197   5.505 -0.1303 -0.4614  0.1822
  201POPC   C1B 2722   0.810  10.694   4.013  0.1379 -0.2474 -0.0064
  201POPC   C2B 2723   0.515  10.906   4.231 -0.2287  0.2203  0.1303
  201POPC   C3B 2724   0.361  10.909   4.458  0.0146  0.2010 -0.3711
  201POPC   C4B 2725   0.215  10.900   4.927 -0.2228  0.2271 -0.1172
  202POPC   NC3 2726   0.228   6.035   3.408  0.2994  0.2822 -0.0636
  202POPC   PO4 2727  -0.210   5.921   3.279 -0.1415  0.1078 -0.0441
  202POPC   GL1 2728  -0.483   5.980   3.602  0.0699  0.0453  0.1843
  202POPC   GL2 2729  -0.594   5.754   3.868 -0.0840 -0.0251 -0.2289
  202POPC   C1A 2730  -0.360   6.196   3.941 -0.2136  0.0398 -0.1285
  202POPC   D2A 2731  -0.161   6.534   4.188  0.1286  0.0317 -0.0965
  202POPC   C3A 2732  -0.391   6.800   4.437 -0.1666  0.4297  0.1201
  202POPC   C4A 2733  -0.775   6.967   4.628  0.1763 -0.1934  0.3695
  202POPC   C1B 2734  -0.444   5.843   4.316  0.1858 -0.1000  0.2245
  202POPC   C2B 2735  -0.061   6.023   4.364  0.1905 -0.0913 -0.3811
  202POPC   C3B 2736   0.290   6.274   4.480  0.1071  0.0584 -0.2500
  202POPC   C4B 2737   0.445   6.512   4.819 -0.1766  0.0484  0.0657
  203POPC   NC3 2738  10.528   4.562   3.321  0.1586  0.0901 -0.2063
  203POPC   PO4 2739  10.731   4.150   3.441  0.2631  0.1258  0.0973
  203POPC   GL1 2740  10.655   4.075   3.743 -0.2145 -0.0146 -0.3083
  203POPC   GL2 2741  10.866   3.805   3.898  0.4701 -0.0413 -0.1893
  203POPC   C1A 2742  10.422   4.259   4.128 -0.0817  0.0662 -0.2884
  203POPC   D2A 2743  10.205   4.360   4.475 -0.0218 -0.0001  0.0547
  203POPC   C3A 2744   9.997   4.241   4.888 -0.1996  0.3452 -0.1347
  203POPC   C4A 2745   9.731   4.445   5.194  0.1112  0.2895  0.2362
  203POPC   C1B 2746  10.883   3.679   4.335 -0.1287 -0.0763  0.2320
  203POPC   C2B 2747  10.721   3.642   4.732 -0.1334  0.0811 -0.3013
  203POPC   C3B 2748  10.867   3.374   5.049 -0.2825  0.1727 -0.2668
  203POPC   C4B 2749  10.787   2.970   5.255  0.0287  0.0172  0.3696
  204POPC   NC3 2750   3.346   9.749   3.148  0.0850  0.1090 -0.0208
  204POPC   PO4 2751   3.273  10.064   3.456  0.0994  0.0668  0.1134
  204POPC   GL1 2752   3.159   9.844   3.806 -0.0478  0.0369  0.1021
  204POPC   GL2 2753   2.779   9.959   3.790  0.1066 -0.1262 -0.0488
  204POPC   C1A 2754   3.434   9.551   4.033 -0.1835  0.3503  0.1879
  204POPC   D2A 2755   3.162   9.254   4.201 -0.0144 -0.0057  0.0412
  204POPC   C3A 2756   3.108   9.305   4.621 -0.1211 -0.0123 -0.1534
  204POPC   C4A 2757   3.251   9.434   4.989 -0.0736  0.1790 -0.0353
  204POPC   C1B 2758   2.492  10.183   4.020  0.2644 -0.0639  0.3267
  204POPC   C2B 2759   2.300  10.297   4.448  0.0218  0.3739  0.3976
  204POPC   C3B 2760   2.152  10.284   4.797 -0.3144  0.4368  0.2576
  204POPC   C4B 2761   1.996  10.356   5.222 -0.0739  0.4537 -0.2532
  205POPC   NC3 2762   3.503   7.007   3.400 -0.0369 -0.0573 -0.0991
  205POPC   PO4 2763   3.047   6.863   3.451  0.2024 -0.1975 -0.2311
  205POPC   GL1 2764   3.088   6.980   3.871  0.2290  0.1975 -0.0818
  205POPC   GL2 2765   3.298   6.749   3.939  0.2520  0.2113  0.1333
  205POPC   C1A 2766   2.901   7.034   4.242  0.1198  0.2105 -0.0556
  205POPC   D2A 2767   2.637   7.042   4.591 -0.1633 -0.1906 -0.1043
  205POPC   C3A 2768   2.370   7.332   4.535  0.2458 -0.2865  0.0510
  205POPC   C4A 2769   2.094   7.658   4.589  0.0229 -0.1105  0.0785
  205POPC   C1B 2770   3.413   6.712   4.376  0.0129  0.0229 -0.2085
  205POPC   C2B 2771   3.552   6.729   4.798  0.0320 -0.2039 -0.2771
  205POPC   C3B 2772   3.421   7.063   5.134  0.2613  0.1305  0.2000
  205POPC   C4B 2773   3.223   7.404   5.416 -0.4227  0.2470 -0.1150
  206POPC   NC3 2774   7.419   8.862   3.236  0.0898  0.1675 -0.1717
  206POPC   PO4 2775   7.294   8.418   3.279 -0.1665  0.1679  0.1233
  206POPC   GL1 2776   7.123   8.342   3.624 -0.0466 -0.1787 -0.3099
  206POPC   GL2 2777   7.289   8.633   3.735 -0.1911  0.2003 -0.1227
  206POPC   C1A 2778   7.048   7.854   3.801  0.1561 -0.1762 -0.0519
  206POPC   D2A 2779   6.645   7.746   3.974  0.0438 -0.0529  0.1226
  206POPC   C3A 2780   6.704   7.853   4.368 -0.2088 -0.0330 -0.1511
  206POPC   C4A 2781   6.817   8.279   4.531 -0.1245 -0.1394  0.0901
  206POPC   C1B 2782   7.525   8.602   4.084  0.4050  0.0592 -0.0271
  206POPC   C2B 2783   7.679   8.521   4.436  0.1856  0.1519 -0.1505
  206POPC   C3B 2784   7.243   8.328   4.766 -0.0198  0.3009  0.0629
  206POPC   C4B 2785   6.886   8.433   5.041 -0.3184 -0.0499 -0.0208
  207POPC   NC3 2786   2.879   9.256   3.734 -0.1028 -0.1758  0.0885
  207POPC   PO4 2787   3.101   8.915   3.559 -0.0138 -0.1347 -0.1571
  207POPC   GL1 2788   3.101   8.849   3.915 -0.0102  0.0600 -0.0670
  207POPC   GL2 2789   2.999   8.556   3.930  0.2249 -0.0613  0.3510
  207POPC   C1A 2790   2.856   8.858   4.319  0.0371 -0.2022 -0.1605
  207POPC   D2A 2791   2.591   8.794   4.549 -0.2447  0.3139  0.2651
  207POPC   C3A 2792   2.588   8.612   4.960  0.1001 -0.1830  0.3787
  207POPC   C4A 2793   2.931   8.615   5.227  0.2099 -0.0919 -0.0075
  207POPC   C1B 2794   2.971   8.367   4.229 -0.0293 -0.4762  0.0764
  207POPC   C2B 2795   2.972   8.415   4.597 -0.1802 -0.0994 -0.3657
  207POPC   C3B 2796   3.285   8.349   4.735  0.0662 -0.0076  0.4284
  207POPC   C4B 2797   3.396   8.515   5.030 -0.0805  0.0895 -0.2579
  208POPC   NC3 2798   5.271   2.328   2.738  0.0694  0.0573  0.0377
  208POPC   PO4 2799   5.536   2.524   2.757 -0.3991  0.0657 -0.1235
  208POPC   GL1 2800   5.588   2.395   3.160  0.0565  0.1766 -0.0349
  208POPC   GL2 2801   5.750   2.238   3.295 -0.1225 -0.1167 -0.2769
  208POPC   C1A 2802   5.505   2.533   3.647  0.1450 -0.0870 -0.1811
  208POPC   D2A 2803   5.453   2.640   4.090 -0.2364  0.2476 -0.0692
  208POPC   C3A 2804   5.429   2.950   4.430 -0.1147  0.0273 -0.2350
  208POPC   C4A 2805   5.400   3.014   4.861 -0.1496 -0.1033  0.3870
  208POPC   C1B 2806   5.821   2.146   3.735  0.0780  0.0395  0.1710
  208POPC   C2B 2807   5.722   2.213   4.196 -0.0724 -0.1432  0.4300
  208POPC   C3B 2808   5.604   2.357   4.550  0.0052 -0.0600  0.1124
  208POPC   C4B 2809   5.447   2.470   5.058  0.0296 -0.2948 -0.1494
  209POPC   NC3 2810  10.577   1.533   3.195 -0.1047  0.1376 -0.0990
  209POPC   PO4 2811  10.397   1.924   3.400 -0.0849 -0.0316 -0.1188
  209POPC   GL1 2812  10.119   1.992   3.739 -0.0795 -0.1259 -0.2999
  209POPC   GL2 2813  10.105   2.186   3.990  0.0812 -0.1189  0.2555
  209POPC   C1A 2814  10.232   1.600   4.084  0.1539 -0.1526  0.2107
  209POPC   D2A 2815  10.357   1.149   4.052  0.1677 -0.3212 -0.0178
  209POPC   C3A 2816  10.354   0.998   4.469 -0.3198  0.2117  0.1960
  209POPC   C4A 2817  10.449   1.144   4.818  0.0776 -0.2817 -0.3380
  209POPC   C1B 2818  10.035   2.062   4.425 -0.1874 -0.2323 -0.0103
  209POPC   C2B 2819   9.912   2.260   4.808  0.0292  0.2152 -0.1540
  209POPC   C3B 2820   9.780   2.530   4.974  0.3683  0.1623 -0.1604
  209POPC   C4B 2821   9.592   2.948   4.916 -0.4100 -0.1298 -0.0192
  210POPC   NC3 2822   7.206   7.570   2.541  0.3205  0.1284 -0.0492
  210POPC   PO4 2823   7.215   7.359   2.927 -0.1767  0.0783  0.2225
  210POPC   GL1 2824   7.400   7.314   3.353 -0.0206  0.1963 -0.1201
  210POPC   GL2 2825   7.342   7.457   3.559 -0.0091  0.1544 -0.4389
  210POPC   C1A 2826   7.696   7.149   3.720 -0.0119  0.2449  0.2491
  210POPC   D2A 2827   8.073   6.893   3.863  0.1653  0.2187 -0.1606
  210POPC   C3A 2828   7.972   6.714   4.270  0.2998  0.0736  0.2973
  210POPC   C4A 2829   7.702   6.501   4.586 -0.1590  0.0561  0.0538
  210POPC   C1B 2830   7.600   7.739   3.827 -0.4310  0.0048 -0.0699
  210POPC   C2B 2831   7.543   7.682   4.270 -0.2767  0.0917  0.1180
  210POPC   C3B 2832   7.196   7.786   4.503 -0.0187  0.0788 -0.0397
  210POPC   C4B 2833   7.071   7.751   4.898 -0.0037 -0.3043 -0.1567
  211POPC   NC3 2834   9.250   8.241   3.398  0.0860  0.3208 -0.0285
  211POPC   PO4 2835   9.179   8.673   3.068 -0.0515 -0.1223 -0.0089
  211POPC   GL1 2836   9.263   8.798   3.462  0.1762  0.0464 -0.1752
  211POPC   GL2 2837   9.217   8.649   3.725  0.3861  0.1428 -0.1265
  211POPC   C1A 2838   9.137   9.109   3.839  0.1237  0.0902  0.0874
  211POPC   D2A 2839   9.039   9.125   4.285  0.2286  0.1195 -0.1011
  211POPC   C3A 2840   8.878   8.711   4.602  0.1552 -0.0996 -0.1756
  211POPC   C4A 2841   9.115   8.283   4.610 -0.0997 -0.1246 -0.0587
  211POPC   C1B 2842   9.111   8.639   4.136  0.0080 -0.2428  0.1460
  211POPC   C2B 2843   9.392   8.710   4.489  0.4252 -0.0236  0.0862
  211POPC   C3B 2844   9.662   8.613   4.805  0.0224 -0.3483 -0.1031
  211POPC   C4B 2845   9.914   8.618   5.140  0.1955 -0.0940  0.2069
  212POPC   NC3 2846   3.883   6.712   3.339  0.1621  0.1903  0.1534
  212POPC   PO4 2847   3.829   6.399   3.631 -0.0131 -0.0002 -0.0030
  212POPC   GL1 2848   4.133   6.436   3.935 -0.2899 -0.0741 -0.0157
  212POPC   GL2 2849   4.287   6.702   4.026 -0.2927 -0.2035  0.0408
  212POPC   C1A 2850   4.157   6.232   4.355  0.1874  0.1512  0.1221
  212POPC   D2A 2851   4.333   6.268   4.876 -0.0650 -0.1274  0.1764
  212POPC   C3A 2852   4.686   6.130   4.895  0.2469 -0.1383  0.1013
  212POPC   C4A 2853   5.048   5.899   5.025 -0.0537  0.3302  0.1681
  212POPC   C1B 2854   3.945   6.723   4.417  0.0505 -0.1235 -0.1662
  212POPC   C2B 2855   4.044   6.750   4.862  0.0572 -0.0337 -0.1061
  212POPC   C3B 2856   4.229   6.754   5.342 -0.1195 -0.0028  0.0841
  212POPC   C4B 2857   4.185   7.056   5.793  0.0101  0.1591 -0.0313
  213POPC   NC3 2858   6.667   1.701   3.409  0.0929  0.1766 -0.1916
  213POPC   PO4 2859   7.155   1.830   3.194  0.0315  0.0840 -0.5003
  213POPC   GL1 2860   7.321   1.711   3.621 -0.0947 -0.0177 -0.3403
  213POPC   GL2 2861   7.022   1.675   3.773 -0.0815  0.0243  0.2946
  213POPC   C1A 2862   7.486   1.357   3.888  0.1043 -0.0888  0.0583
  213POPC   D2A 2863   7.522   1.268   4.353  0.1592 -0.0507  0.0671
  213POPC   C3A 2864   7.426   1.391   4.792  0.1250 -0.2578 -0.2359
  213POPC   C4A 2865   7.401   1.404   5.319  0.0492 -0.0181 -0.1942
  213POPC   C1B 2866   7.197   1.652   4.132 -0.0321  0.0694 -0.0078
  213POPC   C2B 2867   7.031   1.577   4.530  0.0340 -0.1326 -0.0422
  213POPC   C3B 2868   6.885   1.480   5.014  0.0313 -0.0392  0.1171
  213POPC   C4B 2869   6.560   1.612   5.229 -0.3167 -0.0367  0.1440
  214POPC   NC3 2870   9.926   2.231   3.351 -0.0633 -0.0596  0.1441
  214POPC   PO4 2871   9.591   1.958   3.157 -0.0898  0.3609  0.2287
  214POPC   GL1 2872   9.617   1.966   3.624 -0.1600  0.0844 -0.1434
  214POPC   GL2 2873   9.407   2.131   3.700  0.0997 -0.1542  0.1032
  214POPC   C1A 2874   9.778   1.750   4.017 -0.2190 -0.1709  0.0704
  214POPC   D2A 2875   9.620   1.657   4.399  0.1523  0.3286 -0.2730
  214POPC   C3A 2876   9.771   1.668   4.907 -0.0449  0.0979  0.0642
  214POPC   C4A 2877   9.921   1.834   5.095 -0.0514 -0.1682  0.0239
  214POPC   C1B 2878   9.288   1.859   4.017 -0.1048  0.1889 -0.2490
  214POPC   C2B 2879   9.142   1.661   4.401 -0.1470 -0.1029 -0.2177
  214POPC   C3B 2880   9.176   1.584   4.744  0.0789  0.0261 -0.1152
  214POPC   C4B 2881   9.268   1.656   5.099  0.0335 -0.2630 -0.0912
  215POPC   NC3 2882   2.339   5.407   3.354 -0.1067 -0.1239  0.0870
  215POPC   PO4 2883   2.761   5.660   3.345  0.1885  0.0250  0.2044
  215POPC   GL1 2884   2.757   5.557   3.710 -0.1855 -0.1267 -0.0397
  215POPC   GL2 2885   2.485   5.522   3.772 -0.0837 -0.0582 -0.0566
  215POPC   C1A 2886   2.975   5.742   4.107 -0.0575 -0.2831  0.1168
  215POPC   D2A 2887   3.330   5.775   4.323  0.1619 -0.1820 -0.1072
  215POPC   C3A 2888   3.347   5.725   4.738  0.3571  0.0621  0.0749
  215POPC   C4A 2889   3.550   5.783   5.121 -0.3515  0.0876 -0.0931
  215POPC   C1B 2890   2.577   5.487   4.182  0.2104  0.3628 -0.3090
  215POPC   C2B 2891   2.783   5.625   4.532  0.0464  0.1914 -0.1316
  215POPC   C3B 2892   2.612   5.839   4.945 -0.0215 -0.4970 -0.2012
  215POPC   C4B 2893   2.575   6.046   5.337  0.0612 -0.1537 -0.0495
  216POPC   NC3 2894   0.120   3.071   3.168  0.3907  0.5226 -0.2687
  216POPC   PO4 2895  -0.163   2.818   3.302  0.1024  0.0217 -0.0188
  216POPC   GL1 2896  -0.259   3.122   3.701 -0.2312  0.0807 -0.0966
  216POPC   GL2 2897  -0.647   3.244   3.774 -0.1070  0.2135 -0.0604
  216POPC   C1A 2898  -0.083   3.370   3.946  0.3239 -0.0022 -0.0832
  216POPC   D2A 2899   0.112   3.171   4.249  0.1724  0.2812  0.1674
  216POPC   C3A 2900   0.366   3.367   4.607 -0.0932  0.1938  0.1967
  216POPC   C4A 2901   0.624   3.295   4.955 -0.1241  0.0972 -0.4457
  216POPC   C1B 2902  -0.842   3.195   4.204 -0.3370  0.1195  0.1296
  216POPC   C2B 2903  -1.100   3.302   4.532  0.0820 -0.1623  0.3891
  216POPC   C3B 2904  -1.226   3.505   4.925  0.3829  0.2817  0.1896
  216POPC   C4B 2905  -1.246   3.341   5.311 -0.0429  0.2368 -0.2172
  217POPC   NC3 2906   5.473   7.021   2.971  0.0316 -0.1074 -0.0251
  217POPC   PO4 2907   5.163   7.076   3.201 -0.0431  0.0260  0.1011
  217POPC   GL1 2908   5.505   6.982   3.502 -0.1364 -0.1882 -0.2743
  217POPC   GL2 2909   5.814   6.772   3.427  0.0324  0.1906  0.1781
  217POPC   C1A 2910   5.643   7.157   3.917  0.1039 -0.0044  0.3432
  217POPC   D2A 2911   5.899   7.053   4.190 -0.1495 -0.0743 -0.0273
  217POPC   C3A 2912   5.847   7.083   4.678  0.4477 -0.2684 -0.0445
  217POPC   C4A 2913   5.610   6.865   5.095 -0.0169 -0.0619  0.0830
  217POPC   C1B 2914   5.668   6.625   3.891  0.0724  0.1763  0.0522
  217POPC   C2B 2915   5.325   6.504   3.992  0.2783 -0.1918 -0.4096
  217POPC   C3B 2916   4.881   6.572   4.218 -0.4078 -0.0521 -0.1204
  217POPC   C4B 2917   4.539   6.571   4.504  0.1667  0.1571 -0.1869
  218POPC   NC3 2918  10.065   1.558   3.365  0.0104  0.2524  0.2849
  218POPC   PO4 2919   9.681   1.356   3.242  0.2796 -0.1061  0.1024
  218POPC   GL1 2920   9.531   1.421   3.569 -0.0713  0.1440 -0.1582
  218POPC   GL2 2921   9.214   1.654   3.501 -0.0790 -0.2005 -0.0933
  218POPC   C1A 2922   9.367   1.422   3.966  0.1184  0.1060  0.0572
  218POPC   D2A 2923   9.205   1.162   4.248 -0.1652  0.4773  0.0225
  218POPC   C3A 2924   8.957   1.147   4.541  0.1138 -0.0052  0.2024
  218POPC   C4A 2925   8.922   1.137   5.041 -0.2489  0.0571  0.0591
  218POPC   C1B 2926   8.839   1.617   3.839 -0.0959  0.3236 -0.0501
  218POPC   C2B 2927   8.666   1.432   4.252  0.1175 -0.2908  0.1767
  218POPC   C3B 2928   8.647   1.696   4.637 -0.0099 -0.1656  0.1907
  218POPC   C4B 2929   8.780   1.644   5.066  0.0919  0.0247 -0.0901
  219POPC   NC3 2930   0.139   5.129   3.335  0.0259  0.2194 -0.0171
  219POPC   PO4 2931   0.311   5.551   3.592 -0.1413  0.3421 -0.1902
  219POPC   GL1 2932   0.370   5.517   4.028  0.2197  0.0380  0.1046
  219POPC   GL2 2933   0.504   5.344   4.149  0.0303  0.0899 -0.2017
  219POPC   C1A 2934   0.367   5.692   4.568 -0.0076 -0.0488  0.0614
  219POPC   D2A 2935   0.392   5.584   5.067 -0.0870  0.0448 -0.1843
  219POPC   C3A 2936   0.250   5.261   5.328 -0.2453 -0.3538  0.0786
  219POPC   C4A 2937  -0.046   5.044   5.535 -0.0069 -0.0369  0.2405
  219POPC   C1B 2938   0.493   5.183   4.488 -0.4483 -0.1455  0.0554
  219POPC   C2B 2939   0.244   5.209   4.825  0.0436 -0.0136  0.3260
  219POPC   C3B 2940  -0.154   5.309   5.069 -0.2444  0.1445 -0.0020
  219POPC   C4B 2941  -0.318   5.470   5.483 -0.2808 -0.1800 -0.0185
  220POPC   NC3 2942   1.024   7.892   3.527 -0.3249  0.1319  0.1352
  220POPC   PO4 2943   0.911   7.452   3.545 -0.2532 -0.3311  0.2439
  220POPC   GL1 2944   0.977   7.383   4.006 -0.2409 -0.5785 -0.0461
  220POPC   GL2 2945   0.941   7.021   4.084 -0.2224 -0.3369 -0.1924
  220POPC   C1A 2946   1.333   7.444   4.276  0.3648 -0.0532  0.1484
  220POPC   D2A 2947   1.505   7.299   4.655 -0.0620 -0.1563  0.3885
  220POPC   C3A 2948   1.341   7.460   5.049  0.1068  0.0067 -0.0216
  220POPC   C4A 2949   1.653   7.188   5.373  0.2327  0.1634 -0.2798
  220POPC   C1B 2950   1.260   6.847   4.377 -0.1837 -0.1046 -0.1601
  220POPC   C2B 2951   1.468   6.826   4.681  0.0044  0.0124 -0.0007
  220POPC   C3B 2952   1.347   6.928   4.997  0.1395  0.2142  0.2354
  220POPC   C4B 2953   1.204   7.039   5.418  0.0429  0.3415 -0.0708
  221POPC   NC3 2954   0.908   5.875   3.614  0.1915  0.0571  0.0908
  221POPC   PO4 2955   0.577   6.001   3.865  0.3186 -0.4428 -0.3790
  221POPC   GL1 2956   0.806   5.795   4.247  0.1742 -0.0193  0.1193
  221POPC   GL2 2957   0.941   5.414   4.335  0.1304  0.1517  0.0901
  221POPC   C1A 2958   0.832   5.861   4.737 -0.2561  0.2732 -0.1534
  221POPC   D2A 2959   0.647   5.998   5.104 -0.2016  0.1617  0.4277
  221POPC   C3A 2960   0.870   5.948   5.572 -0.0017 -0.0907  0.0861
  221POPC   C4A 2961   0.887   6.405   5.690  0.4091 -0.0292  0.0275
  221POPC   C1B 2962   0.912   5.339   4.816 -0.0850  0.0620  0.5588
  221POPC   C2B 2963   0.756   5.154   5.027  0.1841 -0.0462  0.1409
  221POPC   C3B 2964   0.540   4.855   5.231 -0.1776  0.1363  0.1314
  221POPC   C4B 2965   0.432   4.874   5.621  0.1836 -0.1842  0.2101
  222POPC   NC3 2966   1.467   4.786   3.338 -0.0479  0.2225  0.1704
  222POPC   PO4 2967   1.249   4.508   3.544  0.0112  0.2060  0.1320
  222POPC   GL1 2968   1.453   4.642   3.942  0.3643  0.0652  0.1915
  222POPC   GL2 2969   1.755   4.731   3.825 -0.1713  0.1394  0.1095
  222POPC   C1A 2970   1.578   4.611   4.270 -0.0845  0.1231 -0.2850
  222POPC   D2A 2971   1.694   4.668   4.633  0.0921 -0.1271 -0.0059
  222POPC   C3A 2972   2.053   4.467   4.936 -0.0111  0.1683  0.0534
  222POPC   C4A 2973   2.419   4.497   5.211  0.0187  0.1829  0.1676
  222POPC   C1B 2974   2.097   4.585   3.961 -0.0387 -0.1407 -0.0825
  222POPC   C2B 2975   2.592   4.585   3.999  0.0580 -0.0248 -0.0958
  222POPC   C3B 2976   2.795   4.704   4.444  0.3222 -0.4260  0.0659
  222POPC   C4B 2977   2.643   4.735   4.857 -0.0393  0.0662  0.2536
  223POPC   NC3 2978   9.090   0.823   2.536  0.0534 -0.2777  0.0429
  223POPC   PO4 2979   8.822   0.758   2.956 -0.1773  0.0007  0.2930
  223POPC   GL1 2980   9.018   0.806   3.402 -0.0104 -0.1505 -0.2221
  223POPC   GL2 2981   9.315   0.912   3.378 -0.1042 -0.2090  0.0036
  223POPC   C1A 2982   9.029   0.816   3.910 -0.2103 -0.0775  0.1358
  223POPC   D2A 2983   8.922   0.712   4.356  0.0718 -0.1915  0.1207
  223POPC   C3A 2984   8.586   0.776   4.489 -0.4209  0.0666 -0.1554
  223POPC   C4A 2985   8.475   1.232   4.723  0.0914  0.3177  0.0655
  223POPC   C1B 2986   9.504   0.820   3.749 -0.3165 -0.1055  0.1995
  223POPC   C2B 2987   9.714   0.924   4.082 -0.2322  0.2423  0.2056
  223POPC   C3B 2988   9.894   1.253   4.195  0.2143  0.3744 -0.0770
  223POPC   C4B 2989  10.097   1.449   4.562  0.3377 -0.0720 -0.1873
  224POPC   NC3 2990   8.039   0.834   3.051  0.0919 -0.0213  0.2450
  224POPC   PO4 2991   7.637   0.861   3.316  0.2028  0.3341 -0.0221
  224POPC   GL1 2992   7.751   0.903   3.671 -0.1311 -0.1551 -0.0546
  224POPC   GL2 2993   7.880   1.227   3.616 -0.2139 -0.1303  0.0165
  224POPC   C1A 2994   7.988   0.958   4.036  0.1978  0.0946 -0.0848
  224POPC   D2A 2995   8.106   0.979   4.382 -0.1399  0.0077  0.0765
  224POPC   C3A 2996   7.908   1.376   4.643  0.1943  0.2449  0.0424
  224POPC   C4A 2997   7.847   1.218   5.096  0.0903 -0.0535  0.0535
  224POPC   C1B 2998   8.217   1.397   3.947 -0.1163 -0.4893  0.0157
  224POPC   C2B 2999   8.233   1.632   4.327 -0.0888 -0.0505 -0.0476
  224POPC   C3B 3000   8.170   1.935   4.652  0.2493 -0.2375  0.3348
  224POPC   C4B 3001   7.936   2.217   4.837  0.0723  0.1962 -0.3010
  225POPC   NC3 3002   0.603   9.632   2.894  0.2430 -0.3246  0.1067
  225POPC   PO4 3003   0.418   9.842   3.219  0.3857 -0.0447  0.1435
  225POPC   GL1 3004   0.601   9.805   3.681  0.0313  0.0902 -0.0731
  225POPC   GL2 3005   0.584  10.024   3.851  0.0770 -0.0537 -0.2149
  225POPC   C1A 3006   0.596   9.401   3.858  0.0325  0.0167  0.1417
  225POPC   D2A 3007   0.470   9.230   4.218  0.2347  0.2485 -0.3432
  225POPC   C3A 3008   0.437   8.828   4.163 -0.0994 -0.1088  0.0445
  225POPC   C4A 3009   0.225   8.629   4.416 -0.1163  0.3186 -0.0065
  225POPC   C1B 3010   0.571   9.814   4.259 -0.1093  0.0892 -0.1862
  225POPC   C2B 3011   0.649   9.648   4.667  0.0338  0.1293 -0.0714
  225POPC   C3B 3012   0.351   9.530   5.032 -0.0066 -0.0454 -0.2198
  225POPC   C4B 3013   0.378   9.566   5.473 -0.0594  0.2713 -0.1889
  226POPC   NC3 3014   1.800   3.088   3.226 -0.1502  0.1266 -0.1159
  226POPC   PO4 3015   2.328   3.169   3.238 -0.1335  0.0304 -0.0997
  226POPC   GL1 3016   2.431   3.047   3.700  0.1340  0.1823  0.1252
  226POPC   GL2 3017   2.518   2.745   3.925 -0.0476  0.0018 -0.2778
  226POPC   C1A 3018   2.316   3.193   4.147  0.1566 -0.1814  0.1227
  226POPC   D2A 3019   2.333   3.131   4.589 -0.2842 -0.2164 -0.2583
  226POPC   C3A 3020   1.978   3.255   4.777  0.0684  0.2053 -0.3513
  226POPC   C4A 3021   1.576   3.445   4.681 -0.0742 -0.0998 -0.0659
  226POPC   C1B 3022   2.662   2.865   4.284 -0.0751  0.2791  0.2026
  226POPC   C2B 3023   2.584   2.778   4.778 -0.0694  0.1112 -0.1773
  226POPC   C3B 3024   2.331   3.097   5.091  0.1100 -0.1528 -0.0798
  226POPC   C4B 3025   2.271   3.524   5.380  0.1750  0.3471  0.2597
  227POPC   NC3 3026   1.887   3.881   3.532 -0.0259  0.4360  0.1919
  227POPC   PO4 3027   1.765   3.512   3.481  0.0766 -0.0650  0.4248
  227POPC   GL1 3028   1.478   3.647   3.913  0.0835  0.1652 -0.2456
  227POPC   GL2 3029   1.246   3.720   3.712  0.1120 -0.4713 -0.1115
  227POPC   C1A 3030   1.292   3.448   4.251 -0.0768  0.4827  0.1693
  227POPC   D2A 3031   1.011   3.382   4.577 -0.2058  0.1442 -0.0090
  227POPC   C3A 3032   1.041   3.548   5.017  0.4718  0.2617  0.4190
  227POPC   C4A 3033   0.863   3.714   5.292 -0.0281  0.3128 -0.1548
  227POPC   C1B 3034   0.939   3.789   3.986  0.2583  0.0630 -0.0736
  227POPC   C2B 3035   0.648   3.703   4.262 -0.1968 -0.0075 -0.0273
  227POPC   C3B 3036   0.613   3.736   4.716  0.0514 -0.0555 -0.4039
  227POPC   C4B 3037   0.428   3.817   4.993  0.1883 -0.2287 -0.1453
  228POPC   NC3 3038   7.680   1.732   3.207 -0.3550 -0.0212  0.0623
  228POPC   PO4 3039   7.875   2.165   3.257  0.3381 -0.0414  0.0970
  228POPC   GL1 3040   7.573   2.279   3.631  0.1347  0.0397 -0.1029
  228POPC   GL2 3041   7.288   2.202   3.633 -0.0262 -0.0225  0.0491
  228POPC   C1A 3042   7.518   2.555   4.035 -0.2847  0.1379 -0.0067
  228POPC   D2A 3043   7.704   2.920   4.302  0.2566 -0.2098  0.1600
  228POPC   C3A 3044   7.984   2.725   4.654  0.2501  0.4523 -0.0853
  228POPC   C4A 3045   8.438   2.813   4.954  0.0448 -0.1032  0.0360
  228POPC   C1B 3046   6.916   2.117   3.824  0.1139 -0.0095 -0.0199
  228POPC   C2B 3047   6.855   2.001   4.257 -0.3014 -0.1586  0.1246
  228POPC   C3B 3048   6.901   2.156   4.628 -0.0535 -0.0428 -0.1003
  228POPC   C4B 3049   6.720   2.068   4.981 -0.1961 -0.2276  0.0967
  229POPC   NC3 3050   3.795   2.237   3.279 -0.0251 -0.0519 -0.0319
  229POPC   PO4 3051   4.116   1.963   3.454  0.2144  0.3012  0.0542
  229POPC   GL1 3052   3.926   2.177   3.827  0.0521 -0.0011 -0.4680
  229POPC   GL2 3053   3.613   2.370   4.001  0.0935 -0.0678  0.1124
  229POPC   C1A 3054   4.239   2.142   4.143  0.0713  0.3511  0.0705
  229POPC   D2A 3055   4.428   2.332   4.503  0.3843  0.1086 -0.2076
  229POPC   C3A 3056   4.322   2.320   4.875 -0.2568  0.0339  0.0888
  229POPC   C4A 3057   4.262   2.644   5.224  0.2319 -0.0799 -0.1354
  229POPC   C1B 3058   3.511   2.617   4.315 -0.0744  0.2457 -0.2675
  229POPC   C2B 3059   3.694   2.878   4.674  0.0700 -0.0968 -0.1933
  229POPC   C3B 3060   3.653   2.630   5.040  0.3819 -0.1214 -0.2934
  229POPC   C4B 3061   3.612   2.563   5.505  0.0998  0.1727 -0.3376
  230POPC   NC3 3062  10.234   4.114   3.469 -0.0093 -0.2647  0.1305
  230POPC   PO4 3063  10.046   4.518   3.225 -0.0076  0.0481  0.2321
  230POPC   GL1 3064  10.199   4.561   3.728 -0.0315 -0.0857 -0.0318
  230POPC   GL2 3065  10.496   4.668   3.841 -0.2617  0.0758  0.1490
  230POPC   C1A 3066   9.964   4.596   4.028 -0.0989 -0.2326  0.1605
  230POPC   D2A 3067   9.992   4.918   4.434  0.0458  0.1158 -0.0923
  230POPC   C3A 3068   9.922   4.849   4.952  0.0196 -0.1523  0.0177
  230POPC   C4A 3069   9.803   4.913   5.427  0.0186 -0.3151 -0.0630
  230POPC   C1B 3070  10.495   4.843   4.230 -0.2756  0.4208 -0.2110
  230POPC   C2B 3071  10.440   4.800   4.688 -0.0515  0.1316  0.0515
  230POPC   C3B 3072  10.806   4.829   5.015  0.1163  0.1038 -0.0391
  230POPC   C4B 3073  10.928   4.564   5.412 -0.1675  0.1916 -0.0062
  231POPC   NC3 3074   8.916   4.459   3.206 -0.0874  0.1281 -0.2164
  231POPC   PO4 3075   8.860   4.974   3.164  0.0462 -0.2041 -0.0468
  231POPC   GL1 3076   8.910   4.794   3.566 -0.0714  0.0626  0.0719
  231POPC   GL2 3077   8.700   4.533   3.736 -0.4705 -0.2668 -0.0226
  231POPC   C1A 3078   9.103   4.694   3.948 -0.0338  0.5163  0.0772
  231POPC   D2A 3079   9.119   4.509   4.375  0.2958  0.0021 -0.2770
  231POPC   C3A 3080   9.192   4.157   4.370 -0.0455  0.1817 -0.2570
  231POPC   C4A 3081   9.340   3.843   4.615 -0.2049  0.1022  0.0199
  231POPC   C1B 3082   8.440   4.703   4.045 -0.1426 -0.0406 -0.2040
  231POPC   C2B 3083   8.129   4.722   4.355 -0.0778  0.0520  0.2119
  231POPC   C3B 3084   8.028   4.616   4.809 -0.1184  0.2123 -0.2087
  231POPC   C4B 3085   8.153   4.543   5.239 -0.0336  0.1620  0.0556
  232POPC   NC3 3086   5.559   1.282   3.062 -0.3964  0.0074 -0.2749
  232POPC   PO4 3087   5.405   0.910   3.322  0.0764  0.3831 -0.1429
  232POPC   GL1 3088   5.571   0.964   3.749 -0.0599 -0.0397 -0.1433
  232POPC   GL2 3089   5.935   0.956   3.831  0.2262 -0.1004 -0.0240
  232POPC   C1A 3090   5.534   1.343   3.989 -0.2980 -0.0422  0.1052
  232POPC   D2A 3091   5.474   1.765   3.992  0.1011 -0.1961 -0.2005
  232POPC   C3A 3092   5.445   1.867   4.411 -0.2271 -0.1352 -0.0371
  232POPC   C4A 3093   5.224   1.907   4.768  0.0896  0.1596  0.2729
  232POPC   C1B 3094   6.312   1.165   4.143 -0.2126  0.0672  0.0110
  232POPC   C2B 3095   6.670   1.158   4.310 -0.0565  0.0091  0.5217
  232POPC   C3B 3096   6.925   1.024   4.608  0.2584  0.3031 -0.0104
  232POPC   C4B 3097   7.213   0.901   4.844 -0.4222  0.0710 -0.0999
  233POPC   NC3 3098   9.483   4.381   3.029 -0.1828  0.0225  0.1213
  233POPC   PO4 3099   9.243   4.059   3.300  0.1007 -0.3982 -0.0280
  233POPC   GL1 3100   9.513   4.096   3.704  0.3326  0.4102 -0.0144
  233POPC   GL2 3101   9.921   4.172   3.811 -0.1517  0.0452  0.0306
  233POPC   C1A 3102   9.447   4.290   3.996  0.0901  0.2191 -0.0574
  233POPC   D2A 3103   9.658   4.387   4.397  0.0506 -0.2142  0.2253
  233POPC   C3A 3104   9.445   4.324   4.794  0.1903 -0.1816  0.0776
  233POPC   C4A 3105   9.162   4.387   5.149 -0.2948  0.0616  0.0999
  233POPC   C1B 3106   9.958   4.052   4.173  0.1061 -0.1335  0.2286
  233POPC   C2B 3107   9.905   3.743   4.511 -0.1092  0.3807 -0.1288
  233POPC   C3B 3108  10.141   3.724   4.899  0.0974  0.0174  0.0779
  233POPC   C4B 3109  10.465   3.804   5.132  0.0937  0.2691 -0.2905
  234POPC   NC3 3110   5.403   0.514   3.618 -0.3634  0.2022 -0.1692
  234POPC   PO4 3111   5.914   0.648   3.423 -0.1497 -0.2288  0.2040
  234POPC   GL1 3112   6.082   0.493   3.753 -0.0436  0.2790 -0.2782
  234POPC   GL2 3113   5.805   0.519   3.928  0.0980  0.1715 -0.4941
  234POPC   C1A 3114   5.844  -0.016   3.909 -0.1388 -0.3674  0.0143
  234POPC   D2A 3115   5.669  -0.239   4.239  0.1240 -0.0798 -0.4240
  234POPC   C3A 3116   5.422  -0.650   4.085 -0.0832 -0.0932 -0.0725
  234POPC   C4A 3117   5.427  -0.929   3.708 -0.1201 -0.0311 -0.1522
  234POPC   C1B 3118   6.174   0.687   4.218 -0.0471  0.0136 -0.0207
  234POPC   C2B 3119   6.318   0.794   4.683  0.0860 -0.0790 -0.2024
  234POPC   C3B 3120   6.659   0.745   4.961  0.1623 -0.2018 -0.0406
  234POPC   C4B 3121   7.005   0.754   5.298 -0.1224 -0.1655 -0.5115
  235POPC   NC3 3122   1.524   2.080   3.288 -0.1390 -0.0875 -0.0759
  235POPC   PO4 3123   1.361   2.589   3.197 -0.1140 -0.2950 -0.3951
  235POPC   GL1 3124   1.374   2.614   3.629  0.1622 -0.0585  0.0165
  235POPC   GL2 3125   1.269   2.265   3.679  0.2494  0.1617  0.1532
  235POPC   C1A 3126   1.507   2.703   3.988 -0.1970 -0.0284 -0.2228
  235POPC   D2A 3127   1.602   2.554   4.431 -0.2095 -0.2071 -0.1138
  235POPC   C3A 3128   1.709   2.748   4.894  0.0120  0.3943 -0.0814
  235POPC   C4A 3129   1.931   2.869   5.371 -0.2693  0.1781 -0.0350
  235POPC   C1B 3130   1.160   2.426   4.165 -0.2958 -0.2905 -0.0417
  235POPC   C2B 3131   1.141   2.504   4.633  0.0038 -0.2073  0.0275
  235POPC   C3B 3132   1.333   2.467   5.053 -0.2044  0.0750  0.0036
  235POPC   C4B 3133   1.772   2.373   5.211 -0.1708  0.4107 -0.0159
  236POPC   NC3 3134   2.139   4.029   3.124 -0.2821 -0.0725  0.2144
  236POPC   PO4 3135   1.734   4.291   3.378  0.2193  0.0707  0.4248
  236POPC   GL1 3136   1.584   4.156   3.778  0.4767 -0.2999  0.1193
  236POPC   GL2 3137   1.864   4.145   3.951  0.1135  0.0516 -0.0073
  236POPC   C1A 3138   1.408   4.136   4.193  0.1528 -0.2486 -0.1718
  236POPC   D2A 3139   1.685   3.782   4.338 -0.2865  0.0418  0.1898
  236POPC   C3A 3140   2.109   3.734   4.683  0.1514  0.1702 -0.3083
  236POPC   C4A 3141   2.501   3.509   4.808  0.0799  0.0643  0.0668
  236POPC   C1B 3142   1.872   4.227   4.349  0.0146 -0.2454 -0.0024
  236POPC   C2B 3143   1.688   4.142   4.702  0.0765  0.1863  0.0927
  236POPC   C3B 3144   1.366   3.877   4.806 -0.2844  0.2229  0.0986
  236POPC   C4B 3145   1.111   3.861   4.527  0.1032  0.0660  0.0683
  237POPC   NC3 3146   6.292   7.353   2.749  0.0763 -0.2183 -0.0335
  237POPC   PO4 3147   6.141   7.553   3.187  0.0109 -0.0017 -0.1473
  237POPC   GL1 3148   6.413   7.574   3.578  0.2680  0.2598  0.0520
  237POPC   GL2 3149   6.412   7.913   3.585 -0.1455  0.0143  0.0704
  237POPC   C1A 3150   6.197   7.462   3.962 -0.2523  0.0859  0.1439
  237POPC   D2A 3151   6.245   7.661   4.312  0.2327 -0.1181  0.1228
  237POPC   C3A 3152   5.970   7.638   4.529 -0.0366 -0.0602  0.0326
  237POPC   C4A 3153   5.958   7.445   5.003 -0.0981  0.0429  0.3706
  237POPC   C1B 3154   6.569   8.215   3.906  0.0024 -0.2647  0.1745
  237POPC   C2B 3155   6.416   8.373   4.279 -0.0743 -0.0010 -0.0021
  237POPC   C3B 3156   6.343   8.424   4.748  0.2309 -0.3081  0.2084
  237POPC   C4B 3157   6.204   8.522   5.180  0.1956 -0.0738  0.3549
  238POPC   NC3 3158   8.796   0.289   3.161  0.0839 -0.0308  0.1055
  238POPC   PO4 3159   8.787  -0.111   2.910  0.1381  0.0069  0.1809
  238POPC   GL1 3160   8.860  -0.108   3.417 -0.0707 -0.1288 -0.0630
  238POPC   GL2 3161   9.058   0.090   3.588  0.0615  0.0889 -0.0901
  238POPC   C1A 3162   8.930  -0.440   3.753  0.0374 -0.1852 -0.1918
  238POPC   D2A 3163   9.190  -0.605   4.125 -0.1479  0.2137 -0.2932
  238POPC   C3A 3164   9.151  -0.502   4.552 -0.0111  0.0482  0.1029
  238POPC   C4A 3165   9.268  -0.469   4.970 -0.0179 -0.1775 -0.1971
  238POPC   C1B 3166   9.343   0.307   3.705 -0.1508  0.3404 -0.1934
  238POPC   C2B 3167   9.344   0.463   4.087 -0.0512  0.2090  0.3585
  238POPC   C3B 3168   9.378   0.693   4.427 -0.0686 -0.0446  0.0251
  238POPC   C4B 3169   9.314   0.771   4.840  0.1337  0.1543 -0.0908
  239POPC   NC3 3170   8.862   7.454   3.447  0.4283 -0.2435 -0.0818
  239POPC   PO4 3171   8.945   7.846   3.327 -0.2218  0.1764  0.1550
  239POPC   GL1 3172   8.922   8.048   3.742 -0.1356 -0.1146  0.0562
  239POPC   GL2 3173   8.728   8.299   3.827  0.0449  0.1078 -0.0115
  239POPC   C1A 3174   9.200   8.127   4.122 -0.1799 -0.1968  0.1772
  239POPC   D2A 3175   9.466   7.928   4.528 -0.0094 -0.1842  0.2310
  239POPC   C3A 3176   9.163   7.841   4.869 -0.2217  0.1354  0.1742
  239POPC   C4A 3177   9.016   8.162   5.072 -0.1167 -0.0291  0.2512
  239POPC   C1B 3178   8.742   8.112   4.261  0.0100 -0.2202 -0.1227
  239POPC   C2B 3179   8.598   7.830   4.609  0.3499  0.1776 -0.0789
  239POPC   C3B 3180   8.799   7.526   4.845 -0.0143 -0.1965  0.2009
  239POPC   C4B 3181   9.256   7.332   4.930 -0.0343 -0.0206 -0.1656
  240POPC   NC3 3182   0.372   6.785   3.517  0.0099  0.1635 -0.0315
  240POPC   PO4 3183   0.427   7.092   3.706  0.1892  0.0729  0.1947
  240POPC   GL1 3184   0.495   7.372   3.947  0.2902 -0.0694 -0.2161
  240POPC   GL2 3185   0.495   7.221   4.279 -0.0638 -0.2389 -0.2760
  240POPC   C1A 3186   0.427   7.845   3.950 -0.2350  0.0961  0.0784
  240POPC   D2A 3187   0.469   8.243   3.969 -0.3594 -0.0505  0.1488
  240POPC   C3A 3188   0.666   8.416   4.382  0.2728  0.3177 -0.0010
  240POPC   C4A 3189   0.722   8.625   4.748 -0.0754  0.2330 -0.3524
  240POPC   C1B 3190   0.490   7.475   4.677  0.0750 -0.2298  0.0383
  240POPC   C2B 3191   0.104   7.729   4.834 -0.0952  0.0279 -0.2215
  240POPC   C3B 3192   0.206   8.016   5.259  0.6938 -0.2290 -0.0951
  240POPC   C4B 3193   0.312   8.119   5.682  0.1591  0.0541  0.0590
  241POPC   NC3 3194   0.317   8.343   3.103  0.0832 -0.1544 -0.2117
  241POPC   PO4 3195   0.054   8.067   3.454  0.0791 -0.3039 -0.2691
  241POPC   GL1 3196  -0.125   7.888   3.773  0.1559  0.1131 -0.0642
  241POPC   GL2 3197  -0.102   8.038   4.041 -0.1482 -0.1393  0.2401
  241POPC   C1A 3198  -0.522   7.731   3.872  0.0766  0.0850  0.2747
  241POPC   D2A 3199  -0.824   7.489   3.670 -0.0548  0.3110  0.0094
  241POPC   C3A 3200  -1.272   7.402   3.806 -0.3485 -0.1270  0.0028
  241POPC   C4A 3201  -1.464   7.664   4.037 -0.1267 -0.1543  0.0375
  241POPC   C1B 3202  -0.204   7.931   4.374  0.2801 -0.1922  0.0472
  241POPC   C2B 3203  -0.145   8.216   4.675  0.1029 -0.1776 -0.1442
  241POPC   C3B 3204   0.072   8.535   4.918 -0.0882 -0.2812  0.2259
  241POPC   C4B 3205  -0.062   8.962   5.032  0.1509 -0.1703 -0.0949
  242POPC   NC3 3206   5.711   6.131   2.837  0.1188 -0.0497 -0.3125
  242POPC   PO4 3207   5.807   6.591   2.832  0.5458  0.0686  0.0804
  242POPC   GL1 3208   6.012   6.317   3.219  0.1662 -0.0203  0.0168
  242POPC   GL2 3209   5.905   6.094   3.382 -0.1292  0.1213  0.3108
  242POPC   C1A 3210   6.145   6.467   3.599 -0.1149 -0.0541 -0.3406
  242POPC   D2A 3211   6.123   6.690   3.937 -0.2859  0.2158  0.0719
  242POPC   C3A 3212   6.129   6.639   4.426 -0.0184  0.0771  0.1648
  242POPC   C4A 3213   5.925   6.557   4.812  0.0469  0.2343 -0.0706
  242POPC   C1B 3214   5.741   6.115   3.803 -0.1665 -0.0263 -0.0867
  242POPC   C2B 3215   5.865   6.241   4.109 -0.0582 -0.2112  0.0258
  242POPC   C3B 3216   5.666   6.343   4.425  0.0515 -0.2229 -0.2187
  242POPC   C4B 3217   5.414   6.440   4.822  0.4656  0.1000 -0.2017
  243POPC   NC3 3218   3.981   3.246   2.742 -0.2767 -0.0570  0.1181
  243POPC   PO4 3219   4.137   3.620   3.066 -0.2021 -0.1190  0.0195
  243POPC   GL1 3220   4.143   3.625   3.520  0.0263  0.0918  0.1812
  243POPC   GL2 3221   4.017   3.761   3.792  0.2237 -0.0390  0.1941
  243POPC   C1A 3222   4.470   3.573   3.999  0.1907 -0.2320  0.2288
  243POPC   D2A 3223   4.446   3.822   4.199  0.1500  0.1234  0.2590
  243POPC   C3A 3224   4.769   3.785   4.460  0.1940  0.1520 -0.2256
  243POPC   C4A 3225   5.008   3.711   4.878 -0.0157  0.1655  0.3479
  243POPC   C1B 3226   4.000   4.087   4.184  0.0641  0.1029  0.0690
  243POPC   C2B 3227   3.931   4.254   4.554  0.2455  0.0557  0.0194
  243POPC   C3B 3228   3.871   4.082   5.022  0.1874  0.1758  0.1014
  243POPC   C4B 3229   3.595   3.972   5.330  0.2734 -0.0247 -0.0354
  244POPC   NC3 3230  10.538   6.372   2.907 -0.0489  0.2022 -0.2088
  244POPC   PO4 3231  10.485   6.751   3.177  0.2993 -0.2041 -0.0056
  244POPC   GL1 3232  10.407   6.798   3.605  0.0517  0.0833  0.0804
  244POPC   GL2 3233  10.674   6.823   3.719 -0.1010 -0.5015 -0.3312
  244POPC   C1A 3234  10.191   6.681   3.866 -0.3747 -0.1179 -0.0700
  244POPC   D2A 3235   9.975   6.490   4.297  0.0789 -0.0936 -0.3854
  244POPC   C3A 3236  10.216   6.337   4.589 -0.0263 -0.0029 -0.1145
  244POPC   C4A 3237  10.439   6.098   4.819  0.0564  0.1289  0.2320
  244POPC   C1B 3238  10.759   7.036   4.168  0.2106 -0.2084  0.2072
  244POPC   C2B 3239  10.801   7.257   4.519  0.1738 -0.3795  0.0408
  244POPC   C3B 3240  10.754   7.174   4.865 -0.1145  0.2343 -0.2119
  244POPC   C4B 3241  10.730   6.845   5.188  0.2139  0.2407  0.1424
  245POPC   NC3 3242   6.649   4.503   3.320  0.3709 -0.2157 -0.1094
  245POPC   PO4 3243   7.126   4.328   3.312  0.0858  0.0307 -0.1749
  245POPC   GL1 3244   7.020   4.082   3.636 -0.0588 -0.1646  0.1827
  245POPC   GL2 3245   6.797   3.927   3.825  0.0524  0.1129 -0.0113
  245POPC   C1A 3246   7.152   3.558   3.816  0.4620 -0.2371 -0.3309
  245POPC   D2A 3247   7.217   3.207   3.483 -0.1010 -0.1745 -0.0689
  245POPC   C3A 3248   7.304   2.803   3.499 -0.3940  0.0246 -0.0783
  245POPC   C4A 3249   7.050   2.648   3.827  0.1405 -0.0199 -0.0184
  245POPC   C1B 3250   7.095   3.933   4.100 -0.1685  0.0850 -0.0682
  245POPC   C2B 3251   7.297   3.922   4.519  0.0805  0.0527 -0.0422
  245POPC   C3B 3252   7.329   3.948   5.016  0.0789 -0.0343  0.2571
  245POPC   C4B 3253   7.424   3.753   5.388  0.0557 -0.0108 -0.1404
  246POPC   NC3 3254   2.409   1.029   3.344 -0.0124  0.0540 -0.1770
  246POPC   PO4 3255   2.516   0.608   3.536  0.1063 -0.0348 -0.0457
  246POPC   GL1 3256   2.222   0.798   3.875  0.4249  0.0265 -0.0428
  246POPC   GL2 3257   2.135   1.073   3.821 -0.1237  0.0803 -0.0285
  246POPC   C1A 3258   2.004   0.839   4.323 -0.0822  0.0667  0.0051
  246POPC   D2A 3259   2.051   0.809   4.749 -0.1440 -0.2146  0.0802
  246POPC   C3A 3260   2.149   0.479   5.012  0.0523  0.2318 -0.1552
  246POPC   C4A 3261   2.060   0.091   5.162  0.2593  0.1492 -0.1017
  246POPC   C1B 3262   1.723   1.178   4.100 -0.0045 -0.3036  0.0175
  246POPC   C2B 3263   1.657   1.165   4.507 -0.0389 -0.2385 -0.0162
  246POPC   C3B 3264   1.526   0.787   4.662 -0.1176 -0.1811  0.0554
  246POPC   C4B 3265   1.661   0.542   4.886 -0.2775  0.0406 -0.1322
  247POPC   NC3 3266   8.163  10.407   2.858  0.2215  0.0022 -0.0022
  247POPC   PO4 3267   7.920  10.156   3.171  0.3089 -0.2581 -0.0032
  247POPC   GL1 3268   8.019  10.306   3.558 -0.0711 -0.0152  0.0853
  247POPC   GL2 3269   8.331  10.156   3.725 -0.2476 -0.2356 -0.3075
  247POPC   C1A 3270   8.053  10.700   3.766 -0.3559 -0.1299  0.0235
  247POPC   D2A 3271   8.107  10.889   4.176 -0.0858 -0.1582 -0.0768
  247POPC   C3A 3272   7.855  10.628   4.470 -0.0111 -0.1016  0.0497
  247POPC   C4A 3273   7.836  10.240   4.679 -0.1496  0.2144  0.2498
  247POPC   C1B 3274   8.355   9.776   4.000  0.0779  0.4098  0.1508
  247POPC   C2B 3275   8.539   9.583   4.346  0.1883 -0.3023  0.1943
  247POPC   C3B 3276   8.702   9.306   4.650  0.0326  0.0498 -0.1476
  247POPC   C4B 3277   8.539   8.925   4.884  0.1314 -0.0221 -0.3033
  248POPC   NC3 3278   4.230   5.939   3.649  0.0677 -0.1043  0.2416
  248POPC   PO4 3279   4.531   5.589   3.598  0.0383  0.0820 -0.0704
  248POPC   GL1 3280   4.741   5.942   3.800  0.2009  0.1093  0.3366
  248POPC   GL2 3281   4.501   6.155   3.978 -0.1179  0.1511  0.1578
  248POPC   C1A 3282   5.025   6.061   4.094  0.1919 -0.0909 -0.4695
  248POPC   D2A 3283   5.212   6.131   4.504 -0.2897 -0.1593 -0.0384
  248POPC   C3A 3284   5.514   5.883   4.778 -0.2491  0.0668 -0.0854
  248POPC   C4A 3285   5.744   5.829   5.128 -0.0260  0.1181  0.1315
  248POPC   C1B 3286   4.658   6.127   4.407  0.2738 -0.0213  0.1163
  248POPC   C2B 3287   4.943   6.500   4.690  0.3083 -0.0526 -0.0827
  248POPC   C3B 3288   5.050   6.411   5.187  0.2600  0.0603 -0.3425
  248POPC   C4B 3289   4.955   6.400   5.740 -0.0754 -0.2071  0.1003
  249POPC   NC3 3290   7.356   0.207   3.085 -0.0945  0.1531  0.2116
  249POPC   PO4 3291   7.170  -0.223   3.253 -0.2016 -0.3503  0.0482
  249POPC   GL1 3292   7.054  -0.611   3.538 -0.0946  0.0515 -0.4209
  249POPC   GL2 3293   6.784  -0.609   3.695 -0.0558 -0.1529 -0.2778
  249POPC   C1A 3294   7.285  -0.796   3.932 -0.4271 -0.1426  0.1754
  249POPC   D2A 3295   7.403  -1.193   4.082 -0.1754 -0.4418  0.1713
  249POPC   C3A 3296   7.359  -1.338   4.443  0.0817 -0.1588 -0.1123
  249POPC   C4A 3297   7.294  -1.371   4.836  0.0366  0.0915  0.1939
  249POPC   C1B 3298   6.791  -0.563   4.181 -0.1788  0.1295  0.3848
  249POPC   C2B 3299   6.892  -0.681   4.698  0.1735  0.1121  0.0193
  249POPC   C3B 3300   6.827  -0.741   5.070 -0.1031  0.2371 -0.1015
  249POPC   C4B 3301   6.752  -0.772   5.495 -0.0471  0.3686 -0.1189
  250POPC   NC3 3302   8.436   3.591   3.326  0.1710  0.1506 -0.0092
  250POPC   PO4 3303   8.124   3.833   3.154  0.0501 -0.0728  0.0935
  250POPC   GL1 3304   8.023   3.644   3.620 -0.1548  0.0498  0.2522
  250POPC   GL2 3305   8.153   3.405   3.669  0.0480 -0.4906 -0.0383
  250POPC   C1A 3306   8.107   3.771   4.041 -0.0789  0.0694 -0.2308
  250POPC   D2A 3307   7.947   3.836   4.397  0.0466 -0.3283 -0.1024
  250POPC   C3A 3308   8.029   3.678   4.766 -0.0241 -0.0925 -0.0063
  250POPC   C4A 3309   7.875   3.565   5.173 -0.1149 -0.5037 -0.1110
  250POPC   C1B 3310   7.995   3.284   4.067  0.0643  0.2259  0.0913
  250POPC   C2B 3311   7.767   3.386   4.423 -0.1282 -0.2675 -0.3338
  250POPC   C3B 3312   7.514   3.548   4.760  0.1899  0.2622 -0.1421
  250POPC   C4B 3313   7.082   3.479   4.834  0.3765 -0.0959  0.0043
  251POPC   NC3 3314  10.101  10.052   3.201 -0.0625 -0.1174 -0.1630
  251POPC   PO4 3315  10.186   9.627   3.013 -0.3042  0.3118 -0.1843
  251POPC   GL1 3316  10.097   9.620   3.439 -0.0508  0.0986  0.0426
  251POPC   GL2 3317  10.398   9.698   3.578  0.0151 -0.3355 -0.3701
  251POPC   C1A 3318  10.039   9.357   3.898  0.0232 -0.5597 -0.0541
  251POPC   D2A 3319  10.265   9.376   4.262  0.1856  0.0015 -0.2371
  251POPC   C3A 3320  10.093   9.375   4.632 -0.2378 -0.0962  0.2666
  251POPC   C4A 3321   9.855   9.537   4.615 -0.2016 -0.2082 -0.3857
  251POPC   C1B 3322  10.407   9.825   4.038  0.2326  0.1377 -0.1841
  251POPC   C2B 3323  10.356   9.838   4.456  0.2113 -0.0950  0.1169
  251POPC   C3B 3324  10.192   9.748   4.971  0.0962 -0.0267  0.1142
  251POPC   C4B 3325  10.241   9.588   5.350 -0.1941  0.3484 -0.0514
  252POPC   NC3 3326   9.887   0.949   3.116  0.0675 -0.0589  0.1054
  252POPC   PO4 3327  10.283   1.008   3.327 -0.0218 -0.1352 -0.2200
  252POPC   GL1 3328  10.280   0.657   3.607  0.2385 -0.2046  0.0998
  252POPC   GL2 3329  10.536   0.703   3.784  0.1353 -0.1648 -0.0861
  252POPC   C1A 3330  10.036   0.580   3.907  0.0022  0.0067 -0.3414
  252POPC   D2A 3331   9.892   0.492   4.307  0.0798 -0.0537  0.0176
  252POPC   C3A 3332   9.851   0.934   4.609 -0.4575  0.2419  0.0732
  252POPC   C4A 3333   9.535   1.191   4.690 -0.2074  0.1149  0.1527
  252POPC   C1B 3334  10.484   0.533   4.154 -0.3307  0.0972 -0.0950
  252POPC   C2B 3335  10.818   0.613   4.442 -0.1423  0.2294 -0.1033
  252POPC   C3B 3336  11.008   0.748   4.855  0.0100  0.2569 -0.0268
  252POPC   C4B 3337  11.039   0.712   5.327  0.0277 -0.0054  0.1800
  253POPC   NC3 3338   5.127   8.934   3.208  0.2840 -0.1609  0.1166
  253POPC   PO4 3339   4.751   9.189   3.056 -0.1513  0.2463  0.0668
  253POPC   GL1 3340   4.939   9.406   3.430  0.1799  0.1324  0.0639
  253POPC   GL2 3341   5.367   9.450   3.453  0.0337  0.0444 -0.2173
  253POPC   C1A 3342   4.833   9.655   3.886  0.0032 -0.2940 -0.1001
  253POPC   D2A 3343   4.466   9.713   4.087  0.1567 -0.0074  0.0953
  253POPC   C3A 3344   4.138   9.444   3.894  0.1139 -0.0484  0.2153
  253POPC   C4A 3345   3.817   9.281   3.744  0.1367  0.2824 -0.0929
  253POPC   C1B 3346   5.723   9.447   3.775 -0.2107 -0.0635  0.0958
  253POPC   C2B 3347   5.782   9.400   4.173  0.0405 -0.0107  0.0477
  253POPC   C3B 3348   6.011   9.118   4.410  0.2627 -0.2323 -0.1396
  253POPC   C4B 3349   6.198   8.977   4.785 -0.1689  0.2527  0.2883
  254POPC   NC3 3350   3.075   1.705   3.642  0.1110  0.1699 -0.1788
  254POPC   PO4 3351   3.487   1.530   3.769 -0.2815 -0.0523 -0.2139
  254POPC   GL1 3352   3.548   1.865   4.095 -0.1237  0.2658 -0.0632
  254POPC   GL2 3353   3.300   1.852   4.097  0.0628  0.0676  0.1471
  254POPC   C1A 3354   3.838   2.079   4.454 -0.0469 -0.0148 -0.1625
  254POPC   D2A 3355   3.982   2.527   4.506 -0.1515  0.1452 -0.2604
  254POPC   C3A 3356   4.279   2.892   4.672  0.0294  0.1798 -0.3797
  254POPC   C4A 3357   4.278   3.123   5.107 -0.0506 -0.0074  0.1935
  254POPC   C1B 3358   3.144   1.739   4.446  0.2721  0.0004 -0.0228
  254POPC   C2B 3359   2.993   2.093   4.783 -0.1019  0.2255 -0.0426
  254POPC   C3B 3360   2.776   2.360   5.203  0.0506 -0.2245 -0.0073
  254POPC   C4B 3361   2.729   2.840   5.260 -0.1627 -0.0043 -0.2720
  255POPC   NC3 3362   1.567   5.442   2.826 -0.0900 -0.1105 -0.1910
  255POPC   PO4 3363   1.621   5.294   3.280 -0.0419  0.0860 -0.0791
  255POPC   GL1 3364   1.522   5.169   3.740  0.0273 -0.2144  0.1193
  255POPC   GL2 3365   1.280   5.175   4.023  0.1322  0.2265 -0.3049
  255POPC   C1A 3366   1.696   5.419   4.150  0.1656 -0.1978 -0.0106
  255POPC   D2A 3367   2.113   5.611   4.256  0.0388 -0.2077  0.0299
  255POPC   C3A 3368   2.271   5.496   4.747  0.0336  0.0728 -0.0518
  255POPC   C4A 3369   2.281   5.472   5.168  0.0275  0.0902  0.0691
  255POPC   C1B 3370   1.307   5.172   4.469 -0.1214 -0.2945  0.1704
  255POPC   C2B 3371   1.268   4.952   4.959  0.2912  0.0376  0.2402
  255POPC   C3B 3372   1.472   4.777   5.339 -0.0769  0.0962  0.0074
  255POPC   C4B 3373   1.446   4.653   5.728  0.0409 -0.1531  0.0377
  256POPC   NC3 3374   5.368   4.417   3.338  0.2016  0.1945  0.0534
  256POPC   PO4 3375   4.829   4.253   3.371  0.1109  0.0703 -0.2913
  256POPC   GL1 3376   5.007   4.241   3.741  0.0439  0.0011  0.1332
  256POPC   GL2 3377   5.332   4.362   3.846  0.0341  0.1959  0.1131
  256POPC   C1A 3378   5.193   3.812   3.997 -0.1120 -0.1252 -0.1232
  256POPC   D2A 3379   5.479   3.512   4.038  0.0548  0.1989 -0.0130
  256POPC   C3A 3380   5.495   3.437   4.561  0.0841 -0.2095  0.0695
  256POPC   C4A 3381   5.976   3.385   4.815  0.2833  0.1427 -0.1356
  256POPC   C1B 3382   5.460   4.404   4.258 -0.1668  0.0930  0.0029
  256POPC   C2B 3383   5.654   4.499   4.625 -0.0375 -0.1771 -0.2520
  256POPC   C3B 3384   5.559   4.402   5.120 -0.1021  0.0315  0.2035
  256POPC   C4B 3385   5.315   4.018   5.232 -0.0587 -0.2701 -0.1206
  257POPC   NC3 3386   6.640  10.556   3.321  0.0906 -0.0413  0.1413
  257POPC   PO4 3387   6.937  11.031   3.292 -0.0979  0.0342  0.1212
  257POPC   GL1 3388   7.000  10.801   3.682 -0.0226  0.0786  0.2552
  257POPC   GL2 3389   6.870  10.717   4.015  0.1711 -0.2421  0.0263
  257POPC   C1A 3390   7.226  10.445   3.948 -0.2103  0.3062  0.1942
  257POPC   D2A 3391   7.266  10.374   4.438  0.0292  0.0266 -0.0500
  257POPC   C3A 3392   7.408  10.428   4.824  0.0208  0.1957  0.1156
  257POPC   C4A 3393   7.613  10.686   5.073  0.2192  0.0490 -0.3585
  257POPC   C1B 3394   6.669  10.617   4.484  0.2727  0.0459  0.2526
  257POPC   C2B 3395   6.531  10.412   4.845 -0.2780  0.1015 -0.1260
  257POPC   C3B 3396   6.283  10.155   5.284 -0.0144 -0.1665 -0.2606
  257POPC   C4B 3397   6.125  10.113   5.575 -0.2116  0.1143 -0.0946
  258POPC   NC3 3398   0.769   0.353   3.064 -0.0570  0.0429 -0.2042
  258POPC   PO4 3399   1.093   0.443   3.435  0.5847  0.1977 -0.0720
  258POPC   GL1 3400   1.134   0.321   3.836  0.0976 -0.0615  0.1032
  258POPC   GL2 3401   1.427   0.254   3.950 -0.3186 -0.0074  0.1527
  258POPC   C1A 3402   1.003   0.452   4.259  0.0015 -0.2177  0.2217
  258POPC   D2A 3403   1.139   0.531   4.651  0.2098  0.1548 -0.0488
  258POPC   C3A 3404   1.146   0.385   5.015  0.4008  0.3407  0.2896
  258POPC   C4A 3405   1.241   0.368   5.464  0.2935  0.0201 -0.0524
  258POPC   C1B 3406   1.533   0.612   4.150  0.1275  0.0655  0.2242
  258POPC   C2B 3407   1.259   0.926   4.220  0.0243  0.2786  0.1810
  258POPC   C3B 3408   1.073   1.131   4.554  0.1879 -0.0771 -0.2040
  258POPC   C4B 3409   1.000   0.949   4.887 -0.1869 -0.4944  0.2176
  259POPC   NC3 3410   2.861  10.037   3.271 -0.1152 -0.3120  0.0156
  259POPC   PO4 3411   2.651   9.600   3.467  0.0324 -0.1554  0.1047
  259POPC   GL1 3412   2.449   9.538   3.896  0.0601  0.0286 -0.0786
  259POPC   GL2 3413   2.271   9.676   4.006 -0.1388  0.0179 -0.1099
  259POPC   C1A 3414   2.551   9.287   4.298 -0.1475 -0.1406 -0.3865
  259POPC   D2A 3415   2.314   9.146   4.656  0.1870 -0.0780 -0.4421
  259POPC   C3A 3416   2.312   9.376   5.059 -0.1248 -0.0736 -0.3540
  259POPC   C4A 3417   2.088   9.719   5.326  0.2144 -0.0176 -0.1797
  259POPC   C1B 3418   2.335   9.757   4.358  0.2184 -0.3111  0.1644
  259POPC   C2B 3419   2.064   9.753   4.711 -0.0224  0.1747  0.0574
  259POPC   C3B 3420   1.762   9.860   4.910  0.1321  0.1288 -0.1799
  259POPC   C4B 3421   1.570  10.252   5.003 -0.1939 -0.1614 -0.2080
  260POPC   NC3 3422   8.741  10.327   2.572  0.0370 -0.3872  0.1959
  260POPC   PO4 3423   8.532  10.042   2.917  0.1586 -0.0882 -0.0211
  260POPC   GL1 3424   8.549   9.851   3.342  0.2696  0.1246 -0.1626
  260POPC   GL2 3425   8.560   9.466   3.476 -0.2083  0.2918 -0.1387
  260POPC   C1A 3426   8.738   9.905   3.714  0.0749  0.1333 -0.2183
  260POPC   D2A 3427   8.674  10.111   4.197 -0.1837  0.3807  0.1331
  260POPC   C3A 3428   8.658  10.030   4.628 -0.1633 -0.0154  0.1463
  260POPC   C4A 3429   8.709   9.767   5.085 -0.2923  0.0269 -0.4265
  260POPC   C1B 3430   8.839   9.459   3.913  0.4374  0.0940  0.3011
  260POPC   C2B 3431   9.066   9.699   4.293 -0.0732 -0.2532 -0.1447
  260POPC   C3B 3432   9.346   9.427   4.588  0.1785 -0.0324  0.1280
  260POPC   C4B 3433   9.245   9.058   4.883  0.0903  0.0971  0.1384
  261POPC   NC3 3434   3.252   3.136   2.939  0.0517 -0.1969  0.2909
  261POPC   PO4 3435   3.100   2.881   3.264 -0.1822 -0.1726  0.0284
  261POPC   GL1 3436   2.993   2.821   3.695  0.0775  0.0048 -0.1065
  261POPC   GL2 3437   2.830   3.164   3.959  0.0703  0.0418  0.0278
  261POPC   C1A 3438   3.013   2.650   4.077 -0.4332 -0.0458  0.1392
  261POPC   D2A 3439   3.173   2.214   4.300 -0.0108 -0.0139 -0.1108
  261POPC   C3A 3440   3.409   2.329   4.687  0.0502 -0.1889 -0.0918
  261POPC   C4A 3441   3.790   2.125   4.938  0.1169  0.2845  0.0318
  261POPC   C1B 3442   2.860   3.268   4.497  0.0203  0.0536 -0.2462
  261POPC   C2B 3443   2.986   3.180   4.912 -0.1967  0.1627 -0.1574
  261POPC   C3B 3444   2.810   3.312   5.263 -0.0963 -0.1960 -0.0439
  261POPC   C4B 3445   2.743   3.517   5.663 -0.2460 -0.0131 -0.1412
  262POPC   NC3 3446   3.289   3.967   3.211 -0.0838  0.1684  0.0790
  262POPC   PO4 3447   2.975   4.107   3.381 -0.1275  0.0354 -0.0642
  262POPC   GL1 3448   2.700   4.113   3.717  0.0197  0.0945 -0.1408
  262POPC   GL2 3449   2.415   4.145   3.704  0.1510  0.1986 -0.0173
  262POPC   C1A 3450   2.845   4.194   4.175  0.0414  0.2733 -0.0744
  262POPC   D2A 3451   2.917   4.222   4.597  0.0028 -0.2167  0.0201
  262POPC   C3A 3452   2.717   4.032   4.996 -0.1026 -0.1040 -0.0018
  262POPC   C4A 3453   2.662   3.936   5.369  0.3660  0.0682 -0.1048
  262POPC   C1B 3454   2.327   4.149   4.110  0.1770  0.2236 -0.1242
  262POPC   C2B 3455   2.174   3.707   4.195  0.1913  0.0911  0.0159
  262POPC   C3B 3456   1.834   3.323   4.263 -0.1448  0.4436 -0.0471
  262POPC   C4B 3457   1.724   2.992   4.419 -0.6170  0.0265 -0.1985
  263POPC   NC3 3458   5.885   4.433   3.068 -0.0888 -0.2264 -0.1001
  263POPC   PO4 3459   5.620   4.032   3.124 -0.0410 -0.2384 -0.1117
  263POPC   GL1 3460   5.696   4.165   3.575 -0.1770  0.2141 -0.3134
  263POPC   GL2 3461   5.813   4.606   3.486  0.0562  0.1036 -0.0633
  263POPC   C1A 3462   5.652   3.998   4.008  0.0664 -0.0359  0.1996
  263POPC   D2A 3463   5.939   4.164   4.268  0.1257 -0.6049  0.0736
  263POPC   C3A 3464   6.121   4.345   4.692 -0.1671  0.1396 -0.2407
  263POPC   C4A 3465   6.071   4.109   5.107 -0.0222  0.0535 -0.2141
  263POPC   C1B 3466   5.700   4.717   3.924 -0.1774 -0.0075 -0.1560
  263POPC   C2B 3467   5.536   4.996   4.047 -0.1041 -0.0175  0.1042
  263POPC   C3B 3468   5.453   5.154   4.434 -0.1079  0.1622  0.0972
  263POPC   C4B 3469   5.529   4.896   4.799 -0.0235 -0.1940  0.1851
  264POPC   NC3 3470   7.918   7.381   3.225 -0.0665 -0.2599 -0.0185
  264POPC   PO4 3471   8.386   7.212   3.311  0.0323 -0.0624 -0.1644
  264POPC   GL1 3472   8.503   7.260   3.735 -0.1516 -0.1434  0.0508
  264POPC   GL2 3473   8.821   7.232   3.905  0.2467  0.0936  0.0842
  264POPC   C1A 3474   8.371   7.197   4.196 -0.1820 -0.1908  0.1062
  264POPC   D2A 3475   8.514   7.100   4.628 -0.3966  0.1567 -0.2001
  264POPC   C3A 3476   8.298   7.522   4.895 -0.1920 -0.2057  0.3239
  264POPC   C4A 3477   8.001   7.636   5.163 -0.4577  0.2050  0.1082
  264POPC   C1B 3478   8.818   7.024   4.250  0.3798  0.0886 -0.1533
  264POPC   C2B 3479   9.045   6.974   4.665 -0.0390 -0.3969 -0.4577
  264POPC   C3B 3480   9.045   6.937   5.180  0.0867 -0.1131 -0.2764
  264POPC   C4B 3481   9.116   6.528   5.439  0.0052 -0.0295  0.2604
  265POPC   NC3 3482   7.753   3.074   2.995 -0.0434  0.2122  0.0499
  265POPC   PO4 3483   7.823   3.330   3.289  0.0064  0.1728  0.2090
  265POPC   GL1 3484   7.675   3.119   3.640 -0.1404  0.0757  0.0754
  265POPC   GL2 3485   7.947   2.897   3.763  0.5000  0.1488 -0.2142
  265POPC   C1A 3486   7.345   3.095   3.950 -0.0214 -0.0508  0.1103
  265POPC   D2A 3487   7.155   2.895   4.279  0.1590  0.2778  0.0612
  265POPC   C3A 3488   7.125   2.435   4.270  0.1182  0.0385 -0.0849
  265POPC   C4A 3489   7.355   2.084   4.144 -0.0701 -0.0765  0.2248
  265POPC   C1B 3490   8.135   2.727   4.174 -0.0063 -0.0810  0.2779
  265POPC   C2B 3491   8.420   2.560   4.554  0.2856 -0.1232  0.2017
  265POPC   C3B 3492   8.613   2.378   4.688 -0.0057  0.4013  0.1331
  265POPC   C4B 3493   8.927   2.058   4.807 -0.0604 -0.0192 -0.0142
  266POPC   NC3 3494   4.255   9.247   2.736  0.1358 -0.1136  0.0075
  266POPC   PO4 3495   4.119   9.012   3.036  0.2683 -0.0234  0.0340
  266POPC   GL1 3496   4.233   9.096   3.475  0.1939  0.0186 -0.1154
  266POPC   GL2 3497   4.208   8.711   3.691 -0.1954 -0.1967 -0.0318
  266POPC   C1A 3498   4.624   9.122   3.781 -0.3260  0.1866  0.0507
  266POPC   D2A 3499   4.691   8.905   4.218  0.1632 -0.0469  0.3034
  266POPC   C3A 3500   4.893   8.909   4.587  0.0789 -0.0931  0.3626
  266POPC   C4A 3501   4.709   9.000   5.082 -0.1673  0.2096  0.1296
  266POPC   C1B 3502   4.014   8.911   4.016 -0.0427  0.0753 -0.4145
  266POPC   C2B 3503   3.874   8.778   4.463  0.5173 -0.0982  0.2580
  266POPC   C3B 3504   3.807   8.432   4.701  0.1693  0.0788 -0.0237
  266POPC   C4B 3505   3.660   8.059   4.756 -0.2072 -0.0619 -0.0510
  267POPC   NC3 3506   8.376   6.684   3.457 -0.3561 -0.0797 -0.0966
  267POPC   PO4 3507   8.022   6.430   3.600 -0.1337 -0.0942 -0.0759
  267POPC   GL1 3508   7.990   6.106   3.838  0.0923  0.0116 -0.1340
  267POPC   GL2 3509   7.705   6.250   3.963 -0.0537 -0.2632  0.1715
  267POPC   C1A 3510   8.074   6.207   4.280 -0.4595 -0.3217 -0.0316
  267POPC   D2A 3511   8.029   6.088   4.732 -0.0409  0.0416  0.3275
  267POPC   C3A 3512   8.369   6.033   5.110  0.0153 -0.0506 -0.1625
  267POPC   C4A 3513   8.543   5.860   5.456  0.3034  0.0028  0.4080
  267POPC   C1B 3514   7.370   5.913   4.093 -0.3824  0.0337 -0.0623
  267POPC   C2B 3515   7.077   5.813   4.509 -0.0098  0.5315 -0.5204
  267POPC   C3B 3516   7.042   5.614   4.830 -0.0330  0.0266 -0.0940
  267POPC   C4B 3517   6.793   5.216   4.830 -0.4214  0.0922  0.0380
  268POPC   NC3 3518   3.085   6.046   3.490  0.0500  0.2767  0.0370
  268POPC   PO4 3519   3.529   5.995   3.536  0.5306  0.1895  0.2734
  268POPC   GL1 3520   3.446   6.061   3.894 -0.4481  0.0530 -0.0228
  268POPC   GL2 3521   3.657   6.382   4.098 -0.1921 -0.0972  0.2514
  268POPC   C1A 3522   3.186   6.221   4.126  0.1874 -0.1971 -0.0339
  268POPC   D2A 3523   2.955   6.492   4.391 -0.0819 -0.1129  0.4749
  268POPC   C3A 3524   2.775   6.388   4.883  0.0555 -0.0814 -0.0986
  268POPC   C4A 3525   2.650   6.736   5.193 -0.0863 -0.0418 -0.3396
  268POPC   C1B 3526   3.656   6.194   4.507 -0.0544  0.3890 -0.3528
  268POPC   C2B 3527   3.695   6.278   4.997  0.3402  0.2136 -0.0945
  268POPC   C3B 3528   3.302   6.510   5.233  0.2316 -0.0268  0.1144
  268POPC   C4B 3529   3.086   6.881   5.445 -0.0586  0.3833  0.0354
  269POPC   NC3 3530   1.173   6.646   2.870  0.3147 -0.1146  0.1059
  269POPC   PO4 3531   1.193   6.704   3.348 -0.0591  0.1714 -0.1911
  269POPC   GL1 3532   1.317   6.410   3.631 -0.1378  0.1299  0.1528
  269POPC   GL2 3533   1.123   6.268   3.821 -0.1312  0.2279  0.2029
  269POPC   C1A 3534   1.727   6.337   3.825 -0.1031 -0.0629 -0.3756
  269POPC   D2A 3535   1.948   6.573   4.089 -0.0514 -0.1485  0.0962
  269POPC   C3A 3536   1.879   6.536   4.472  0.0946  0.1510 -0.2188
  269POPC   C4A 3537   1.793   6.266   4.741 -0.3846 -0.0639  0.1718
  269POPC   C1B 3538   1.175   6.144   4.211 -0.1324 -0.0274 -0.3233
  269POPC   C2B 3539   1.289   6.199   4.649  0.0838 -0.1998 -0.0029
  269POPC   C3B 3540   1.207   6.051   5.100  0.0552  0.0051 -0.0666
  269POPC   C4B 3541   0.991   5.631   5.189  0.0462  0.3161  0.1015
  270POPC   NC3 3542   4.017   4.864   3.370 -0.3230 -0.0633 -0.0355
  270POPC   PO4 3543   3.661   5.168   3.414 -0.1278  0.0400 -0.2547
  270POPC   GL1 3544   3.627   5.176   3.855  0.0503 -0.0726  0.1019
  270POPC   GL2 3545   3.379   5.334   3.918 -0.0812  0.1011  0.2735
  270POPC   C1A 3546   3.545   4.944   4.239  0.0433 -0.0012  0.0781
  270POPC   D2A 3547   3.619   4.975   4.562  0.1104  0.2331 -0.1744
  270POPC   C3A 3548   3.660   4.759   4.929  0.1460  0.1440 -0.0899
  270POPC   C4A 3549   3.635   4.476   5.119  0.1789 -0.0259  0.0030
  270POPC   C1B 3550   3.603   5.405   4.296 -0.3817  0.0262  0.3244
  270POPC   C2B 3551   3.817   5.752   4.480 -0.2648  0.1286  0.0373
  270POPC   C3B 3552   4.148   5.818   4.676 -0.0310 -0.0345 -0.0657
  270POPC   C4B 3553   4.423   5.698   5.029  0.0309  0.1820  0.0836
  271POPC   NC3 3554   6.993   0.534   3.721  0.1131 -0.0991  0.1189
  271POPC   PO4 3555   7.337   0.505   3.520 -0.0812  0.0656 -0.1939
  271POPC   GL1 3556   7.385   0.320   3.923  0.4612  0.0479 -0.1140
  271POPC   GL2 3557   7.192   0.278   4.178 -0.2311 -0.0147  0.1972
  271POPC   C1A 3558   7.634   0.020   4.057 -0.4137  0.0905 -0.4360
  271POPC   D2A 3559   7.826  -0.408   4.083 -0.0647  0.1642  0.1982
  271POPC   C3A 3560   7.568  -0.771   4.319  0.1233 -0.0240  0.0290
  271POPC   C4A 3561   7.363  -0.888   4.744  0.2211 -0.1359  0.0509
  271POPC   C1B 3562   7.373   0.109   4.493  0.2578  0.2936 -0.1111
  271POPC   C2B 3563   7.429   0.444   4.972 -0.1527 -0.1705  0.0730
  271POPC   C3B 3564   7.565   0.408   5.367  0.3325 -0.2264 -0.1129
  271POPC   C4B 3565   7.464   0.489   5.716  0.1603 -0.3072  0.0774
  272POPC   NC3 3566   5.449   8.077   3.591 -0.0861 -0.0687  0.3586
  272POPC   PO4 3567   5.819   8.407   3.456  0.1389  0.0678 -0.0677
  272POPC   GL1 3568   5.645   8.609   3.702  0.0437 -0.1080  0.2910
  272POPC   GL2 3569   5.360   8.417   3.903 -0.1650  0.1641  0.0097
  272POPC   C1A 3570   5.651   8.912   3.985 -0.2396 -0.1715 -0.2465
  272POPC   D2A 3571   5.517   8.947   4.420 -0.0209 -0.2732  0.5794
  272POPC   C3A 3572   5.707   9.042   4.792  0.1404  0.1962  0.0165
  272POPC   C4A 3573   5.876   9.085   5.142 -0.3392 -0.3537 -0.1010
  272POPC   C1B 3574   5.758   8.332   4.168 -0.0826 -0.3842  0.0025
  272POPC   C2B 3575   6.004   8.085   4.372 -0.3708 -0.0316 -0.2549
  272POPC   C3B 3576   6.354   7.924   4.698 -0.1980  0.0437  0.1855
  272POPC   C4B 3577   6.684   8.029   4.953  0.0240 -0.2050  0.1804
  273POPC   NC3 3578   2.472   8.314   3.094 -0.1046  0.1283  0.1585
  273POPC   PO4 3579   2.316   8.615   3.367 -0.0414 -0.0151 -0.3702
  273POPC   GL1 3580   2.111   8.575   3.847  0.0890 -0.0324  0.3221
  273POPC   GL2 3581   1.899   8.393   3.763  0.2011  0.0404 -0.0540
  273POPC   C1A 3582   1.924   8.628   4.324 -0.1964 -0.0087  0.0940
  273POPC   D2A 3583   1.826   8.733   4.695 -0.1884 -0.0409 -0.1031
  273POPC   C3A 3584   2.063   8.873   4.998  0.2605  0.3231  0.1119
  273POPC   C4A 3585   2.378   8.821   5.401 -0.2900 -0.1579 -0.0426
  273POPC   C1B 3586   1.684   8.280   4.146 -0.2235 -0.0061  0.1201
  273POPC   C2B 3587   1.547   8.301   4.619 -0.1799  0.0674 -0.2684
  273POPC   C3B 3588   1.467   8.418   5.078  0.1042  0.2974  0.0521
  273POPC   C4B 3589   1.271   8.446   5.486 -0.0101  0.2123  0.1552
  274POPC   NC3 3590   7.236   5.066   2.981  0.0036  0.1747  0.0813
  274POPC   PO4 3591   7.156   4.861   3.331 -0.1524 -0.1486  0.1147
  274POPC   GL1 3592   6.976   4.617   3.714  0.1610 -0.2209 -0.0562
  274POPC   GL2 3593   6.664   4.442   3.906 -0.3421 -0.2574  0.2780
  274POPC   C1A 3594   7.126   4.428   4.029 -0.0964  0.3166  0.3612
  274POPC   D2A 3595   7.041   4.348   4.463  0.0263 -0.0541  0.2331
  274POPC   C3A 3596   7.294   4.364   4.798  0.0486  0.2611  0.0597
  274POPC   C4A 3597   7.303   4.499   5.194 -0.1500  0.0863 -0.3607
  274POPC   C1B 3598   6.550   4.309   4.302  0.0580  0.0257 -0.0036
  274POPC   C2B 3599   6.618   4.181   4.626 -0.0106 -0.0685 -0.2435
  274POPC   C3B 3600   6.849   3.982   4.887  0.0662  0.1817 -0.1200
  274POPC   C4B 3601   6.854   3.616   5.314 -0.0801 -0.0968  0.0452
  275POPC   NC3 3602   2.369   2.250   3.144 -0.0483 -0.1282 -0.1372
  275POPC   PO4 3603   2.373   2.295   3.591  0.2541 -0.0985  0.0318
  275POPC   GL1 3604   2.694   2.280   3.931  0.0029  0.0908 -0.0780
  275POPC   GL2 3605   2.782   1.896   3.974 -0.1771 -0.1063 -0.0225
  275POPC   C1A 3606   2.668   2.310   4.332  0.0692 -0.4562 -0.1203
  275POPC   D2A 3607   2.487   2.264   4.734 -0.0285 -0.1356 -0.1694
  275POPC   C3A 3608   2.539   1.948   5.112 -0.1068  0.0449  0.3668
  275POPC   C4A 3609   2.142   1.755   5.315  0.2838 -0.0359  0.0129
  275POPC   C1B 3610   2.660   1.822   4.466 -0.3799  0.0713  0.0099
  275POPC   C2B 3611   2.279   1.763   4.709 -0.1017  0.0300  0.0747
  275POPC   C3B 3612   2.067   2.083   4.932 -0.1176 -0.0705 -0.0588
  275POPC   C4B 3613   2.160   2.213   5.447  0.0325 -0.1618 -0.2536
  276POPC   NC3 3614   0.858   2.180   2.812  0.1561 -0.2503 -0.0490
  276POPC   PO4 3615   1.026   2.131   3.140 -0.0945 -0.1690 -0.1518
  276POPC   GL1 3616   0.835   1.958   3.598  0.0408  0.1240  0.1514
  276POPC   GL2 3617   0.543   1.865   3.647 -0.2703  0.2794 -0.1359
  276POPC   C1A 3618   0.973   1.873   4.062  0.0349  0.3378  0.0868
  276POPC   D2A 3619   0.846   1.597   4.417  0.1091 -0.1588  0.2139
  276POPC   C3A 3620   0.609   1.867   4.845 -0.1292 -0.1605  0.0177
  276POPC   C4A 3621   0.306   2.067   5.047  0.0590  0.1502  0.0185
  276POPC   C1B 3622   0.749   2.322   3.889 -0.1695  0.1599 -0.2612
  276POPC   C2B 3623   0.692   2.684   4.169 -0.0411  0.2512 -0.0007
  276POPC   C3B 3624   0.322   2.753   4.410 -0.0010  0.2498 -0.2166
  276POPC   C4B 3625  -0.088   2.878   4.778 -0.2118 -0.2078  0.1497
  277POPC   NC3 3626  10.366   8.768   3.230  0.1951  0.1164 -0.1680
  277POPC   PO4 3627  10.659   8.510   3.222  0.1027  0.2339  0.0539
  277POPC   GL1 3628  10.473   8.550   3.665 -0.2711  0.0481 -0.1801
  277POPC   GL2 3629  10.346   8.815   3.925 -0.5617  0.0841  0.3293
  277POPC   C1A 3630  10.743   8.576   3.991 -0.3516  0.1335  0.0337
  277POPC   D2A 3631  10.463   8.456   4.244 -0.0253 -0.1989  0.2051
  277POPC   C3A 3632  10.103   8.278   4.080  0.0115 -0.0346 -0.1420
  277POPC   C4A 3633   9.710   8.322   4.210  0.0723 -0.1317 -0.0038
  277POPC   C1B 3634  10.082   8.814   4.251  0.1509  0.0652 -0.2449
  277POPC   C2B 3635   9.781   9.062   4.433  0.0378  0.1108  0.0276
  277POPC   C3B 3636   9.709   9.131   4.880  0.1927 -0.0008  0.0511
  277POPC   C4B 3637   9.836   9.498   5.133  0.3583 -0.3514 -0.1759
  278POPC   NC3 3638   9.906   5.011   3.322  0.0417 -0.2979 -0.1052
  278POPC   PO4 3639  10.389   5.001   3.473 -0.0379 -0.1281  0.0527
  278POPC   GL1 3640  10.189   5.174   3.770 -0.3072  0.0538  0.0769
  278POPC   GL2 3641  10.038   5.061   3.898 -0.0627  0.2985 -0.0392
  278POPC   C1A 3642  10.504   5.422   4.068  0.4545  0.0328  0.2782
  278POPC   D2A 3643  10.757   5.342   4.387  0.1123 -0.1237 -0.3215
  278POPC   C3A 3644  10.648   5.653   4.716  0.0935  0.4271  0.1007
  278POPC   C4A 3645  10.903   5.980   4.900  0.1227 -0.1746 -0.2103
  278POPC   C1B 3646  10.062   5.420   4.276  0.0751  0.1891  0.1925
  278POPC   C2B 3647  10.049   5.719   4.695 -0.1106  0.0481 -0.1481
  278POPC   C3B 3648  10.266   5.702   5.128 -0.0363 -0.1671  0.3540
  278POPC   C4B 3649  10.344   5.940   5.548 -0.0872 -0.0389 -0.2896
  279POPC   NC3 3650   0.695   3.016   3.472 -0.1121 -0.0068 -0.2427
  279POPC   PO4 3651   0.356   2.722   3.415  0.2889 -0.1689 -0.0974
  279POPC   GL1 3652   0.325   2.512   3.679  0.1330  0.0288 -0.0704
  279POPC   GL2 3653   0.034   2.662   3.825  0.1020 -0.1834 -0.1718
  279POPC   C1A 3654   0.319   2.267   4.066 -0.3395 -0.3613  0.0074
  279POPC   D2A 3655   0.700   2.152   4.391 -0.0406  0.1009  0.0486
  279POPC   C3A 3656   0.644   2.378   4.761 -0.0531  0.2707 -0.0760
  279POPC   C4A 3657   0.836   2.628   5.085 -0.0403 -0.2777 -0.2761
  279POPC   C1B 3658  -0.087   2.463   4.181 -0.1154  0.0521  0.2032
  279POPC   C2B 3659  -0.412   2.464   4.459  0.4188 -0.1377 -0.3602
  279POPC   C3B 3660  -0.424   2.504   4.815 -0.0799 -0.1204 -0.0850
  279POPC   C4B 3661  -0.328   2.617   5.273 -0.1236 -0.0051  0.0570
  280POPC   NC3 3662   7.581   6.099   3.501 -0.4574  0.2073 -0.0726
  280POPC   PO4 3663   7.692   6.461   3.143  0.2680 -0.4311  0.2600
  280POPC   GL1 3664   7.551   6.591   3.577  0.4185 -0.1407  0.1996
  280POPC   GL2 3665   7.177   6.495   3.709  0.1920 -0.1145  0.0492
  280POPC   C1A 3666   7.582   6.758   4.029 -0.1407 -0.0870 -0.0810
  280POPC   D2A 3667   7.632   7.143   4.219 -0.2274  0.4311 -0.2833
  280POPC   C3A 3668   7.946   7.187   4.500  0.2675  0.1425 -0.1020
  280POPC   C4A 3669   8.044   6.989   4.887 -0.1290  0.0843 -0.0882
  280POPC   C1B 3670   7.211   6.479   4.230  0.1846  0.0524  0.0202
  280POPC   C2B 3671   7.105   6.294   4.591  0.0405 -0.1000  0.0833
  280POPC   C3B 3672   7.427   6.166   4.851 -0.0195  0.0562 -0.1831
  280POPC   C4B 3673   7.621   6.044   5.233 -0.2908  0.2176  0.1249
  281POPC   NC3 3674   9.216   5.256   3.307 -0.0754  0.1427 -0.2708
  281POPC   PO4 3675   9.404   4.875   3.276  0.2217  0.4164 -0.4010
  281POPC   GL1 3676   9.469   4.994   3.683 -0.3100  0.0814  0.0240
  281POPC   GL2 3677   9.182   5.174   3.785 -0.0562  0.1350  0.0264
  281POPC   C1A 3678   9.558   4.984   4.151 -0.0968  0.0575  0.2528
  281POPC   D2A 3679   9.457   4.923   4.525  0.1047 -0.1847  0.3986
  281POPC   C3A 3680   9.431   4.976   4.958  0.0228 -0.1462 -0.1160
  281POPC   C4A 3681   9.323   4.832   5.351 -0.0669  0.1379  0.0454
  281POPC   C1B 3682   8.910   5.039   4.216  0.0221 -0.2184 -0.0064
  281POPC   C2B 3683   9.007   4.966   4.694 -0.0745 -0.3025 -0.0087
  281POPC   C3B 3684   8.844   4.873   5.076  0.2295 -0.0557  0.1573
  281POPC   C4B 3685   8.484   4.932   5.422 -0.2371 -0.0220  0.4055
  282POPC   NC3 3686   9.398   2.397   3.046  0.0872  0.0911  0.3434
  282POPC   PO4 3687   9.653   2.770   3.234  0.3269 -0.3069  0.0678
  282POPC   GL1 3688   9.622   2.713   3.651 -0.3318  0.0005 -0.0307
  282POPC   GL2 3689   9.803   2.477   3.727  0.1034  0.1493  0.2644
  282POPC   C1A 3690   9.520   2.907   4.024  0.0079  0.1766  0.4307
  282POPC   D2A 3691   9.408   2.860   4.482  0.0499 -0.2173  0.1938
  282POPC   C3A 3692   9.222   3.196   4.746  0.1858  0.0323 -0.1092
  282POPC   C4A 3693   9.034   3.472   5.087 -0.3169  0.0414 -0.0326
  282POPC   C1B 3694   9.556   2.318   4.195 -0.2059  0.1350 -0.0729
  282POPC   C2B 3695   9.492   2.100   4.668  0.0572  0.1871 -0.4595
  282POPC   C3B 3696   9.463   2.146   5.092  0.1808 -0.0314  0.0775
  282POPC   C4B 3697   9.170   2.447   5.303 -0.2594 -0.1400  0.0066
  283POPC   NC3 3698   7.465   5.362   3.337  0.0443 -0.0462 -0.0095
  283POPC   PO4 3699   6.979   5.411   3.293  0.1691 -0.0425  0.0930
  283POPC   GL1 3700   6.797   5.435   3.673 -0.2436 -0.4571  0.0598
  283POPC   GL2 3701   7.042   5.174   3.796 -0.0620 -0.0205  0.2342
  283POPC   C1A 3702   6.894   5.627   4.050 -0.0076 -0.3433 -0.0666
  283POPC   D2A 3703   6.773   5.430   4.360 -0.2685 -0.1818  0.0324
  283POPC   C3A 3704   6.449   5.107   4.422 -0.2580 -0.0587 -0.0115
  283POPC   C4A 3705   6.494   4.683   4.638  0.1089  0.0287  0.0384
  283POPC   C1B 3706   7.356   4.886   4.004 -0.2701  0.1076 -0.3080
  283POPC   C2B 3707   7.524   4.807   4.296  0.0467 -0.3557 -0.2378
  283POPC   C3B 3708   7.491   4.788   4.707 -0.1810 -0.1989 -0.0548
  283POPC   C4B 3709   7.704   4.796   5.156 -0.3130  0.2793  0.1825
  284POPC   NC3 3710   8.339   1.574   2.658  0.0537  0.0053 -0.0171
  284POPC   PO4 3711   8.182   1.820   3.000 -0.1324 -0.1631 -0.0330
  284POPC   GL1 3712   8.176   1.723   3.504  0.2743 -0.1592  0.3916
  284POPC   GL2 3713   7.875   1.796   3.716 -0.1859  0.2470  0.1340
  284POPC   C1A 3714   8.405   1.899   3.828  0.2535 -0.2170 -0.0966
  284POPC   D2A 3715   8.286   2.144   4.235  0.1373  0.1405  0.3671
  284POPC   C3A 3716   7.869   2.266   4.235 -0.0751  0.1385 -0.2425
  284POPC   C4A 3717   7.586   2.457   4.620 -0.0255  0.3391 -0.0767
  284POPC   C1B 3718   7.813   1.651   4.094  0.1123  0.2648  0.1913
  284POPC   C2B 3719   7.650   1.777   4.473  0.0047 -0.0756  0.3054
  284POPC   C3B 3720   7.377   1.910   4.663 -0.0603  0.2090  0.1717
  284POPC   C4B 3721   7.265   2.110   5.026  0.4166  0.0448 -0.3692
  285POPC   NC3 3722   7.181   6.802   3.248  0.2213 -0.1499 -0.0949
  285POPC   PO4 3723   6.858   6.567   3.117  0.0797  0.3339  0.0929
  285POPC   GL1 3724   6.733   6.610   3.483  0.1966 -0.1384 -0.3922
  285POPC   GL2 3725   6.745   6.288   3.541  0.0336  0.0481 -0.2532
  285POPC   C1A 3726   6.792   6.741   3.886  0.1700 -0.0636  0.0762
  285POPC   D2A 3727   6.957   6.869   4.237  0.0435 -0.2822 -0.3579
  285POPC   C3A 3728   6.859   7.229   4.354 -0.2110 -0.0139  0.0726
  285POPC   C4A 3729   6.633   7.511   4.748  0.0484  0.2890 -0.3093
  285POPC   C1B 3730   6.827   6.196   3.978 -0.2622  0.0609 -0.1203
  285POPC   C2B 3731   6.619   5.911   4.387 -0.1111 -0.0608  0.5160
  285POPC   C3B 3732   6.703   5.950   4.853  0.0340 -0.1287  0.0058
  285POPC   C4B 3733   6.425   5.826   5.121  0.2871 -0.3075  0.0345
  286POPC   NC3 3734   3.958   2.700   3.452 -0.2129  0.2548  0.1926
  286POPC   PO4 3735   3.740   3.160   3.709  0.0951 -0.1137 -0.4392
  286POPC   GL1 3736   3.509   3.212   4.140  0.2883 -0.1846  0.1084
  286POPC   GL2 3737   3.241   3.037   4.231  0.1551  0.1776  0.0048
  286POPC   C1A 3738   3.425   3.315   4.596  0.0866 -0.0507 -0.0580
  286POPC   D2A 3739   3.657   3.657   4.849 -0.1870  0.0632 -0.2295
  286POPC   C3A 3740   4.026   3.794   4.625 -0.0538  0.2972  0.0613
  286POPC   C4A 3741   4.325   4.022   4.752 -0.1376  0.0003  0.0742
  286POPC   C1B 3742   3.066   2.684   4.572  0.2780 -0.3432 -0.1675
  286POPC   C2B 3743   3.054   2.596   4.893  0.2341 -0.1407 -0.0430
  286POPC   C3B 3744   3.268   2.303   5.168 -0.2229 -0.1434 -0.0749
  286POPC   C4B 3745   3.360   2.144   5.511 -0.3339  0.1602  0.0782
  287POPC   NC3 3746  10.022  10.512   2.794 -0.0629  0.1157  0.2404
  287POPC   PO4 3747  10.221  10.656   3.059 -0.4880 -0.0146  0.2833
  287POPC   GL1 3748  10.209  10.527   3.449  0.3307 -0.3769  0.1607
  287POPC   GL2 3749  10.270  10.183   3.630 -0.0661 -0.0910  0.0229
  287POPC   C1A 3750  10.202  10.627   3.828 -0.0533  0.5022 -0.2530
  287POPC   D2A 3751  10.200  10.884   4.221  0.1714  0.1668  0.1696
  287POPC   C3A 3752  10.069  10.660   4.588  0.1471  0.1976 -0.0639
  287POPC   C4A 3753  10.342  10.571   4.972  0.2617  0.1679  0.2030
  287POPC   C1B 3754  10.119  10.207   4.157 -0.0357  0.2458  0.0902
  287POPC   C2B 3755   9.987  10.079   4.641  0.0529  0.0403  0.0027
  287POPC   C3B 3756   9.678   9.950   4.932  0.0518 -0.1981  0.1069
  287POPC   C4B 3757   9.340   9.877   5.285 -0.2470 -0.2677 -0.3583
  288POPC   NC3 3758   4.449   7.369   3.618 -0.1187 -0.0207  0.2145
  288POPC   PO4 3759   4.234   7.736   3.751  0.2929  0.1290  0.1464
  288POPC   GL1 3760   4.301   7.489   4.149  0.1396  0.2359 -0.0822
  288POPC   GL2 3761   4.173   7.228   4.005  0.2919 -0.1091  0.3127
  288POPC   C1A 3762   4.428   7.575   4.514  0.3443 -0.3331 -0.1217
  288POPC   D2A 3763   4.645   7.941   4.718 -0.0762  0.1632  0.4390
  288POPC   C3A 3764   5.073   8.111   4.786 -0.0693  0.0322  0.0104
  288POPC   C4A 3765   5.418   8.272   5.107 -0.0245 -0.1272  0.3061
  288POPC   C1B 3766   3.946   7.199   4.416 -0.0413 -0.0744  0.0927
  288POPC   C2B 3767   3.750   7.203   4.766 -0.1917 -0.0006  0.2699
  288POPC   C3B 3768   3.879   7.154   5.344 -0.0036 -0.2776  0.0810
  288POPC   C4B 3769   3.508   7.021   5.728  0.1589  0.0413 -0.2789
  289POPC   NC3 3770   8.456   6.195   3.499 -0.0858  0.2357 -0.1678
  289POPC   PO4 3771   8.782   6.452   3.341 -0.0886 -0.0967  0.0896
  289POPC   GL1 3772   8.769   6.552   3.835 -0.1743 -0.2343 -0.1326
  289POPC   GL2 3773   8.424   6.517   3.950 -0.3196 -0.0890 -0.1323
  289POPC   C1A 3774   8.916   6.327   4.144 -0.2188  0.0552 -0.0740
  289POPC   D2A 3775   8.788   6.242   4.571  0.1086 -0.0128  0.1358
  289POPC   C3A 3776   8.495   5.982   4.618 -0.2121 -0.0874  0.0250
  289POPC   C4A 3777   8.258   5.646   4.607 -0.2485  0.2026  0.1798
  289POPC   C1B 3778   8.494   6.606   4.389 -0.0041 -0.0558 -0.2442
  289POPC   C2B 3779   8.260   6.534   4.781 -0.1601 -0.0583  0.0965
  289POPC   C3B 3780   8.077   6.394   5.142 -0.0058 -0.1379 -0.2246
  289POPC   C4B 3781   8.033   6.349   5.484 -0.0485 -0.0256  0.1345
  290POPC   NC3 3782   6.010   3.731   3.408 -0.3422 -0.4382 -0.1001
  290POPC   PO4 3783   6.183   4.232   3.379  0.1113 -0.0842  0.0558
  290POPC   GL1 3784   6.181   4.138   3.761 -0.1928  0.0117 -0.0613
  290POPC   GL2 3785   6.053   4.378   3.872  0.2669 -0.1071 -0.0368
  290POPC   C1A 3786   6.406   3.858   4.194  0.1500 -0.2045 -0.1303
  290POPC   D2A 3787   6.748   3.683   4.410  0.0289  0.1765 -0.0123
  290POPC   C3A 3788   6.565   3.526   4.874 -0.1290 -0.0582 -0.0400
  290POPC   C4A 3789   6.315   3.670   5.199  0.0760  0.2440  0.0280
  290POPC   C1B 3790   6.139   4.661   4.228  0.2546 -0.0141 -0.1595
  290POPC   C2B 3791   6.031   4.850   4.643 -0.1195 -0.0516 -0.1836
  290POPC   C3B 3792   6.002   4.691   5.048 -0.1724 -0.1553  0.1824
  290POPC   C4B 3793   6.148   4.580   5.447  0.0303 -0.2798  0.1104
  291POPC   NC3 3794   0.524   5.124   3.638  0.3042 -0.2795  0.1245
  291POPC   PO4 3795   0.987   4.992   3.521 -0.0682  0.1755 -0.0097
  291POPC   GL1 3796   0.942   4.862   3.869  0.0294 -0.1809 -0.2385
  291POPC   GL2 3797   0.662   4.876   4.029  0.0453  0.1319 -0.1157
  291POPC   C1A 3798   1.096   4.727   4.317 -0.0078 -0.6741  0.1800
  291POPC   D2A 3799   1.173   4.366   4.602  0.1841  0.0010 -0.1602
  291POPC   C3A 3800   1.342   4.370   5.041  0.2863 -0.1038  0.0814
  291POPC   C4A 3801   1.711   4.239   5.262  0.0261 -0.1550  0.1788
  291POPC   C1B 3802   0.647   4.541   4.242 -0.0865  0.4156  0.3478
  291POPC   C2B 3803   0.659   4.245   4.644  0.2047  0.0331  0.0884
  291POPC   C3B 3804   0.980   4.052   4.987  0.2100 -0.0738  0.1992
  291POPC   C4B 3805   1.312   3.961   5.263 -0.2976 -0.1043 -0.0576
  292POPC   NC3 3806   4.908   4.476   2.941 -0.1957  0.0589 -0.3139
  292POPC   PO4 3807   4.936   4.761   3.265  0.0961  0.1768 -0.1537
  292POPC   GL1 3808   4.847   4.704   3.636 -0.3005 -0.1411 -0.0427
  292POPC   GL2 3809   4.601   4.697   3.808  0.2361  0.1773  0.0045
  292POPC   C1A 3810   4.991   4.572   4.130 -0.0545  0.1471  0.4924
  292POPC   D2A 3811   5.033   4.237   4.384  0.0632  0.1175 -0.2096
  292POPC   C3A 3812   5.280   3.932   4.556 -0.0984  0.0612  0.1456
  292POPC   C4A 3813   5.682   3.946   4.762 -0.0158 -0.1714 -0.1758
  292POPC   C1B 3814   4.534   4.362   4.217  0.1953 -0.1449 -0.0894
  292POPC   C2B 3815   4.504   4.434   4.669  0.0893  0.1938 -0.1570
  292POPC   C3B 3816   4.741   4.671   5.058 -0.2132 -0.0720 -0.2843
  292POPC   C4B 3817   4.806   4.913   5.492  0.0128  0.2607 -0.0606
  293POPC   NC3 3818   0.390   4.345   3.306 -0.0383 -0.0772  0.4222
  293POPC   PO4 3819   0.248   4.669   3.456  0.1782  0.1191 -0.2064
  293POPC   GL1 3820   0.269   4.362   3.746  0.1563 -0.0315 -0.0121
  293POPC   GL2 3821   0.496   4.179   3.881  0.0277  0.0447  0.0805
  293POPC   C1A 3822   0.110   4.572   4.070  0.2078  0.1029 -0.1175
  293POPC   D2A 3823   0.143   4.844   4.455 -0.2556  0.0918 -0.0016
  293POPC   C3A 3824   0.481   4.711   4.700 -0.0321 -0.3856 -0.2322
  293POPC   C4A 3825   0.872   4.597   4.942  0.0662  0.1796 -0.3177
  293POPC   C1B 3826   0.374   4.071   4.268 -0.1361 -0.0949  0.1349
  293POPC   C2B 3827   0.097   4.265   4.472 -0.0521 -0.0599  0.0052
  293POPC   C3B 3828   0.249   4.346   4.927 -0.0833 -0.0178 -0.0332
  293POPC   C4B 3829   0.546   4.275   5.268  0.1043 -0.2634  0.1395
  294POPC   NC3 3830   7.825   8.297   3.159 -0.1582  0.1049 -0.1558
  294POPC   PO4 3831   7.877   8.696   3.363  0.2301  0.1707  0.2123
  294POPC   GL1 3832   7.903   8.451   3.700  0.1369  0.3314  0.0744
  294POPC   GL2 3833   7.654   8.265   3.688 -0.2478  0.2083  0.0709
  294POPC   C1A 3834   8.081   8.513   4.073  0.1083  0.1862  0.3030
  294POPC   D2A 3835   8.049   8.832   4.279 -0.0744  0.0842  0.2172
  294POPC   C3A 3836   8.378   8.590   4.531 -0.0619  0.1212  0.2832
  294POPC   C4A 3837   8.612   8.410   4.917 -0.0806  0.1997 -0.4244
  294POPC   C1B 3838   7.759   8.108   4.142 -0.1198  0.2133 -0.1281
  294POPC   C2B 3839   7.731   8.031   4.545 -0.1101 -0.0073  0.2323
  294POPC   C3B 3840   7.791   8.305   4.878  0.0898  0.0412 -0.3136
  294POPC   C4B 3841   8.055   8.567   4.902 -0.1468 -0.1310 -0.4133
  295POPC   NC3 3842   8.793   8.527   3.385  0.2962 -0.2299  0.1729
  295POPC   PO4 3843   8.319   8.502   3.217 -0.1052  0.0544 -0.1076
  295POPC   GL1 3844   8.372   8.662   3.650  0.0104  0.1299 -0.0882
  295POPC   GL2 3845   8.284   8.979   3.699 -0.1648 -0.0809  0.0146
  295POPC   C1A 3846   8.591   8.750   3.984 -0.0267 -0.0870  0.0192
  295POPC   D2A 3847   8.523   9.001   4.317  0.0832 -0.1230  0.1286
  295POPC   C3A 3848   8.194   9.149   4.579 -0.2847  0.0159  0.5614
  295POPC   C4A 3849   8.071   9.062   4.950 -0.1797  0.1515  0.4755
  295POPC   C1B 3850   8.210   9.227   4.048 -0.1401 -0.2451  0.0299
  295POPC   C2B 3851   7.971   9.473   4.266  0.0682 -0.3289 -0.1185
  295POPC   C3B 3852   7.780   9.583   4.631  0.0376  0.2759  0.3122
  295POPC   C4B 3853   7.825   9.532   5.073  0.1265 -0.2171  0.1860
  296POPC   NC3 3854   9.191   6.214   3.047  0.3363  0.0560 -0.1632
  296POPC   PO4 3855   9.171   6.682   3.050 -0.0866 -0.0951  0.0783
  296POPC   GL1 3856   9.176   6.708   3.493 -0.1144 -0.1420 -0.0599
  296POPC   GL2 3857   9.323   6.416   3.649 -0.1572  0.3293  0.0831
  296POPC   C1A 3858   9.201   6.838   3.985 -0.1630  0.2218  0.2628
  296POPC   D2A 3859   9.314   7.196   4.259 -0.3040 -0.1397  0.0487
  296POPC   C3A 3860   8.905   7.517   4.368 -0.1832  0.2162  0.1457
  296POPC   C4A 3861   8.563   7.669   4.108  0.0658  0.2373 -0.2638
  296POPC   C1B 3862   9.454   6.404   4.128  0.1630  0.0294  0.1699
  296POPC   C2B 3863   9.489   6.735   4.451 -0.1749  0.0477 -0.3000
  296POPC   C3B 3864   9.711   6.370   4.712  0.0534 -0.1153  0.3731
  296POPC   C4B 3865  10.005   6.226   5.033 -0.1617  0.1920  0.0266
  297POPC   NC3 3866   3.798   1.157   3.692  0.0271 -0.5275  0.2613
  297POPC   PO4 3867   4.187   0.992   3.757 -0.2614  0.1891  0.0278
  297POPC   GL1 3868   4.163   1.245   4.150  0.2858  0.2583 -0.0803
  297POPC   GL2 3869   4.343   1.228   4.517  0.3054  0.0536  0.1652
  297POPC   C1A 3870   3.994   1.551   4.548 -0.0475  0.0993  0.1310
  297POPC   D2A 3871   3.590   1.625   4.600 -0.2156 -0.0649  0.0640
  297POPC   C3A 3872   3.365   1.837   4.953  0.1765  0.0675  0.1938
  297POPC   C4A 3873   3.013   1.878   5.309  0.2210 -0.2441 -0.0771
  297POPC   C1B 3874   4.293   1.499   5.021  0.1901 -0.2088  0.1968
  297POPC   C2B 3875   4.206   1.881   5.183 -0.5660 -0.2828  0.0392
  297POPC   C3B 3876   4.137   2.200   5.520 -0.0291 -0.1341 -0.0127
  297POPC   C4B 3877   4.476   2.525   5.780 -0.0857  0.1227 -0.4696
  298POPC   NC3 3878   2.480   6.818   3.272 -0.3900  0.0175 -0.0567
  298POPC   PO4 3879   2.145   7.038   3.383 -0.2303 -0.2186 -0.1376
  298POPC   GL1 3880   2.237   6.972   3.773  0.1235  0.0958  0.1828
  298POPC   GL2 3881   2.577   6.867   3.815 -0.1098 -0.1029  0.0482
  298POPC   C1A 3882   2.247   6.991   4.232  0.1936  0.4232  0.0233
  298POPC   D2A 3883   1.851   6.990   4.416 -0.2229 -0.1006  0.3357
  298POPC   C3A 3884   1.939   7.090   4.814 -0.0927  0.2857 -0.2324
  298POPC   C4A 3885   2.303   7.262   5.055 -0.0015 -0.0697  0.0400
  298POPC   C1B 3886   2.553   6.621   4.084 -0.0424 -0.1764  0.0719
  298POPC   C2B 3887   2.431   6.545   4.488 -0.0951 -0.1034 -0.1973
  298POPC   C3B 3888   2.262   6.673   4.867  0.0239 -0.1949 -0.0836
  298POPC   C4B 3889   1.845   6.690   5.121  0.2789  0.0933  0.0358
  299POPC   NC3 3890   8.943   3.715   3.094  0.1205  0.0239  0.2434
  299POPC   PO4 3891   8.657   4.045   3.203 -0.0645  0.0051 -0.2137
  299POPC   GL1 3892   8.455   3.947   3.670  0.2420 -0.0571  0.0718
  299POPC   GL2 3893   8.419   4.200   3.867  0.2983  0.3376 -0.0621
  299POPC   C1A 3894   8.621   3.810   4.101  0.1491  0.0492 -0.0335
  299POPC   D2A 3895   8.852   3.826   4.473  0.2734 -0.0172  0.0434
  299POPC   C3A 3896   8.652   3.743   4.864 -0.1560 -0.0629  0.1086
  299POPC   C4A 3897   8.444   3.548   5.131  0.0609 -0.0745  0.1473
  299POPC   C1B 3898   8.659   4.279   4.308  0.0911 -0.0235 -0.1645
  299POPC   C2B 3899   8.826   4.242   4.754  0.2107 -0.4071  0.2109
  299POPC   C3B 3900   9.059   3.948   5.016 -0.1424 -0.0082  0.1393
  299POPC   C4B 3901   9.223   3.735   5.422  0.1225  0.1832 -0.2201
  300POPC   NC3 3902   6.528   7.242   3.183  0.2014  0.1349 -0.3072
  300POPC   PO4 3903   6.787   7.082   3.186 -0.3366  0.1079 -0.3503
  300POPC   GL1 3904   6.814   7.126   3.635  0.1930 -0.1095 -0.0320
  300POPC   GL2 3905   6.434   7.056   3.725  0.1795 -0.0922 -0.2378
  300POPC   C1A 3906   6.909   7.368   3.870 -0.0985  0.0828  0.3802
  300POPC   D2A 3907   7.190   7.418   4.032 -0.1349  0.0212 -0.0038
  300POPC   C3A 3908   7.283   7.281   4.533 -0.2675  0.0043  0.0406
  300POPC   C4A 3909   7.303   6.775   4.594  0.1710 -0.3479  0.0671
  300POPC   C1B 3910   6.440   6.991   4.185 -0.3564  0.0976  0.2437
  300POPC   C2B 3911   6.321   7.185   4.536  0.1201  0.0057  0.0599
  300POPC   C3B 3912   6.315   7.050   4.946 -0.0785  0.3033  0.1305
  300POPC   C4B 3913   6.058   6.968   5.346  0.1480  0.1444 -0.3080
  301POPC   NC3 3914   9.924   7.539   3.149  0.1329 -0.0796 -0.0579
  301POPC   PO4 3915   9.887   7.929   3.245 -0.0511  0.0805  0.1931
  301POPC   GL1 3916   9.751   8.231   3.580 -0.2649 -0.1019  0.0617
  301POPC   GL2 3917   9.597   7.938   3.675  0.1153  0.0640  0.0340
  301POPC   C1A 3918   9.733   8.618   3.785  0.0566 -0.1705  0.3189
  301POPC   D2A 3919   9.596   8.916   3.976  0.1415  0.3059  0.1686
  301POPC   C3A 3920   9.590   9.363   4.028  0.3039 -0.0481 -0.1565
  301POPC   C4A 3921   9.414   9.735   3.908  0.2767  0.0170  0.0451
  301POPC   C1B 3922   9.797   7.785   4.089 -0.0474 -0.0536 -0.1782
  301POPC   C2B 3923  10.067   7.795   4.468 -0.4032  0.2245 -0.0019
  301POPC   C3B 3924  10.200   7.918   4.922 -0.0589  0.1175  0.1817
  301POPC   C4B 3925  10.518   7.877   5.155  0.2547  0.1181  0.0122
  302POPC   NC3 3926   6.581   1.434   2.611  0.4174 -0.0268 -0.0497
  302POPC   PO4 3927   6.414   1.698   2.987 -0.0483  0.1637  0.0759
  302POPC   GL1 3928   6.183   1.672   3.466 -0.1352 -0.5718  0.1507
  302POPC   GL2 3929   6.323   1.978   3.622 -0.0560  0.2319 -0.3441
  302POPC   C1A 3930   5.978   1.648   3.981  0.0572  0.0209 -0.1261
  302POPC   D2A 3931   6.006   1.831   4.372 -0.1719  0.0865  0.0001
  302POPC   C3A 3932   5.753   1.577   4.671  0.0556 -0.0814 -0.0857
  302POPC   C4A 3933   5.560   1.478   4.997  0.0165 -0.0516 -0.3324
  302POPC   C1B 3934   6.232   2.160   4.066 -0.0540 -0.0061 -0.0502
  302POPC   C2B 3935   6.426   2.237   4.437  0.0030 -0.2355  0.0531
  302POPC   C3B 3936   6.079   2.438   4.763 -0.2522  0.1496  0.6580
  302POPC   C4B 3937   5.875   2.708   4.962  0.1184  0.2447 -0.1801
  303POPC   NC3 3938   1.838   2.667   2.945 -0.1906 -0.2401 -0.2724
  303POPC   PO4 3939   1.901   2.326   3.125 -0.1650 -0.4932  0.1511
  303POPC   GL1 3940   1.787   2.361   3.598  0.2197 -0.0382 -0.0598
  303POPC   GL2 3941   1.769   2.107   3.771 -0.0711  0.3167 -0.1213
  303POPC   C1A 3942   1.955   2.435   4.073 -0.3522 -0.2189 -0.0442
  303POPC   D2A 3943   2.184   2.655   4.327  0.0113 -0.1451  0.0405
  303POPC   C3A 3944   2.130   2.639   4.707  0.1540  0.0592  0.2674
  303POPC   C4A 3945   2.284   2.549   5.128  0.0668 -0.3300 -0.1463
  303POPC   C1B 3946   1.444   2.016   4.079 -0.3159 -0.0794 -0.2907
  303POPC   C2B 3947   1.309   2.007   4.449  0.0967 -0.0118 -0.1768
  303POPC   C3B 3948   1.164   2.049   4.844  0.0316 -0.1303  0.3278
  303POPC   C4B 3949   0.862   2.136   5.176  0.0320 -0.1604 -0.1778
  304POPC   NC3 3950   2.804   3.275   3.470  0.2025 -0.0300  0.1775
  304POPC   PO4 3951   3.125   3.489   3.301  0.1478  0.1122  0.0412
  304POPC   GL1 3952   2.988   3.645   3.672 -0.0383 -0.0782 -0.1774
  304POPC   GL2 3953   3.222   3.683   3.833 -0.2283  0.1891 -0.0887
  304POPC   C1A 3954   2.675   3.727   4.076 -0.5330  0.2229 -0.0700
  304POPC   D2A 3955   2.593   3.844   4.486  0.1248 -0.1249 -0.0647
  304POPC   C3A 3956   2.406   4.210   4.629 -0.2608 -0.1956  0.1239
  304POPC   C4A 3957   2.307   4.543   4.431  0.1265 -0.1251 -0.1352
  304POPC   C1B 3958   3.117   3.594   4.237 -0.2781 -0.0108 -0.0291
  304POPC   C2B 3959   3.080   3.709   4.586  0.0426 -0.0643 -0.1947
  304POPC   C3B 3960   3.097   3.718   4.949 -0.4371  0.4032  0.0981
  304POPC   C4B 3961   3.236   3.520   5.325  0.4283 -0.0387 -0.0679
  305POPC   NC3 3962   7.856   9.569   3.108  0.2744  0.0203 -0.3267
  305POPC   PO4 3963   7.852   9.077   3.041  0.5068 -0.0142  0.0262
  305POPC   GL1 3964   7.732   9.174   3.507 -0.1717  0.2438  0.0577
  305POPC   GL2 3965   7.682   8.979   3.773 -0.2910  0.3923  0.1204
  305POPC   C1A 3966   7.758   9.455   3.802 -0.1378 -0.2399 -0.2176
  305POPC   D2A 3967   7.832   9.860   3.957 -0.0890  0.1619  0.1981
  305POPC   C3A 3968   8.120   9.974   4.346  0.1159  0.2819 -0.1434
  305POPC   C4A 3969   8.259   9.643   4.761 -0.2088  0.0306 -0.2466
  305POPC   C1B 3970   7.658   9.135   4.152 -0.1266 -0.0706  0.2883
  305POPC   C2B 3971   7.686   9.061   4.578 -0.3803 -0.1451 -0.0381
  305POPC   C3B 3972   7.627   8.841   5.012  0.3130 -0.2261 -0.2007
  305POPC   C4B 3973   7.627   8.509   5.258 -0.0943  0.0758  0.4595
  306POPC   NC3 3974  10.336   3.571   2.656 -0.0703  0.2998  0.2021
  306POPC   PO4 3975   9.996   3.496   2.939 -0.0469 -0.2882 -0.1513
  306POPC   GL1 3976  10.041   3.629   3.419  0.0515 -0.2459 -0.0873
  306POPC   GL2 3977  10.347   3.663   3.596  0.2520 -0.1017 -0.2526
  306POPC   C1A 3978   9.737   3.648   3.739 -0.2822 -0.0142  0.4002
  306POPC   D2A 3979   9.628   3.641   4.094  0.2125  0.0249  0.0734
  306POPC   C3A 3980   9.167   3.756   4.070  0.0983  0.0881 -0.0718
  306POPC   C4A 3981   8.953   4.155   3.931  0.1345  0.0806  0.4159
  306POPC   C1B 3982  10.161   3.607   4.041  0.2247 -0.0226  0.0251
  306POPC   C2B 3983  10.367   3.882   4.436 -0.2931  0.0269  0.2701
  306POPC   C3B 3984  10.508   4.189   4.814 -0.2112  0.3281  0.2017
  306POPC   C4B 3985  10.461   4.421   5.085 -0.2543 -0.1428  0.1675
  307POPC   NC3 3986   6.800   0.787   3.344 -0.2115 -0.0277  0.0248
  307POPC   PO4 3987   6.386   0.843   3.585  0.2350 -0.0550 -0.4385
  307POPC   GL1 3988   6.549   0.654   3.950 -0.1171 -0.2125  0.1181
  307POPC   GL2 3989   6.554   0.346   3.916 -0.2002 -0.1569 -0.2754
  307POPC   C1A 3990   6.710   0.612   4.360 -0.1596 -0.1628 -0.1352
  307POPC   D2A 3991   6.982   0.443   4.736 -0.0566  0.0001 -0.2355
  307POPC   C3A 3992   6.978  -0.044   4.887  0.0659 -0.2125  0.1697
  307POPC   C4A 3993   7.079  -0.298   5.236 -0.2758  0.2971  0.1236
  307POPC   C1B 3994   6.393   0.199   4.282  0.2518  0.0828 -0.1239
  307POPC   C2B 3995   6.504   0.266   4.759  0.1235  0.1703  0.0760
  307POPC   C3B 3996   6.672   0.300   5.159 -0.2717  0.4170 -0.1613
  307POPC   C4B 3997   7.095   0.242   5.285  0.3099 -0.0934 -0.0496
  308POPC   NC3 3998   4.272   4.036   3.254 -0.3394 -0.0423 -0.1051
  308POPC   PO4 3999   3.948   4.410   3.340  0.1827  0.0489 -0.2857
  308POPC   GL1 4000   3.923   4.343   3.728  0.0326  0.2073  0.2205
  308POPC   GL2 4001   4.104   4.654   3.812 -0.2730 -0.0170  0.0084
  308POPC   C1A 4002   3.632   4.373   4.095 -0.0106 -0.1491  0.4199
  308POPC   D2A 4003   3.330   4.061   4.250  0.0062  0.0523 -0.2209
  308POPC   C3A 4004   3.582   3.731   4.326 -0.2641  0.0312 -0.0657
  308POPC   C4A 4005   4.019   3.526   4.201  0.0865 -0.2827 -0.1402
  308POPC   C1B 4006   4.161   4.723   4.240  0.3365  0.1295 -0.0861
  308POPC   C2B 4007   4.029   4.723   4.617  0.0841  0.3701 -0.1159
  308POPC   C3B 4008   4.092   4.541   4.963 -0.0057 -0.3458  0.0190
  308POPC   C4B 4009   4.351   4.259   5.220  0.0058 -0.1880  0.0727
  309POPC   NC3 4010   5.036   3.300   3.534 -0.3780  0.4753  0.0428
  309POPC   PO4 4011   4.946   3.075   3.198 -0.1769 -0.0200  0.2100
  309POPC   GL1 4012   4.922   2.792   3.544 -0.2841 -0.4441 -0.1303
  309POPC   GL2 4013   4.720   2.982   3.877 -0.0107  0.0725 -0.0118
  309POPC   C1A 4014   4.919   2.524   3.901 -0.2228 -0.0185  0.0463
  309POPC   D2A 4015   4.770   2.137   4.107 -0.1541 -0.1335 -0.3452
  309POPC   C3A 4016   4.796   1.979   4.508 -0.1195 -0.1289 -0.5089
  309POPC   C4A 4017   4.633   1.972   4.982  0.0744 -0.0847  0.3266
  309POPC   C1B 4018   4.568   3.184   4.251 -0.0959 -0.1186 -0.2834
  309POPC   C2B 4019   4.391   3.393   4.577  0.3285 -0.0904  0.0243
  309POPC   C3B 4020   4.484   3.614   4.950 -0.1398  0.0531 -0.2301
  309POPC   C4B 4021   4.834   3.385   5.199 -0.2281 -0.0854 -0.0197
  310POPC   NC3 4022   0.879   6.921   3.613  0.1450 -0.0941  0.0614
  310POPC   PO4 4023   0.762   6.448   3.615  0.1225 -0.2945  0.1488
  310POPC   GL1 4024   0.728   6.625   4.063  0.1643  0.1301  0.1238
  310POPC   GL2 4025   0.474   6.780   4.051 -0.1979  0.3714 -0.0416
  310POPC   C1A 4026   0.818   6.398   4.450  0.2802 -0.0270  0.0639
  310POPC   D2A 4027   0.905   6.453   4.888 -0.1398  0.2390  0.0576
  310POPC   C3A 4028   0.704   6.733   5.178  0.0065  0.1687 -0.0096
  310POPC   C4A 4029   0.426   7.013   4.957  0.0480  0.1180  0.2787
  310POPC   C1B 4030   0.286   6.802   4.459  0.1855 -0.0926 -0.2249
  310POPC   C2B 4031  -0.063   6.525   4.723  0.1327 -0.3747  0.1529
  310POPC   C3B 4032  -0.224   6.382   5.169  0.0310  0.1132 -0.1277
  310POPC   C4B 4033  -0.104   6.333   5.591 -0.1325 -0.1339  0.1816
  311POPC   NC3 4034   6.550   6.117   3.092 -0.0605  0.0157 -0.0300
  311POPC   PO4 4035   6.569   5.840   3.414  0.0422  0.2365  0.1471
  311POPC   GL1 4036   6.414   5.703   3.837 -0.1029 -0.3535  0.3189
  311POPC   GL2 4037   6.232   6.052   3.845  0.0537  0.3009 -0.2878
  311POPC   C1A 4038   6.279   5.625   4.211  0.3502  0.2008 -0.2590
  311POPC   D2A 4039   6.355   5.603   4.651 -0.0569 -0.0245  0.0028
  311POPC   C3A 4040   6.323   5.152   4.902  0.0634  0.3699 -0.0224
  311POPC   C4A 4041   6.451   4.836   5.182 -0.1624 -0.0874  0.0888
  311POPC   C1B 4042   6.371   6.296   4.184  0.4189 -0.2612  0.2098
  311POPC   C2B 4043   6.614   6.546   4.428  0.0252 -0.2779  0.1160
  311POPC   C3B 4044   6.674   6.812   4.727 -0.0893  0.2024  0.1670
  311POPC   C4B 4045   7.076   7.095   4.922 -0.0116 -0.1681  0.0962
  312POPC   NC3 4046   2.451   4.763   2.779 -0.0937  0.1319 -0.1722
  312POPC   PO4 4047   2.418   4.811   3.186 -0.2038  0.0351  0.0769
  312POPC   GL1 4048   2.349   4.937   3.725  0.0633  0.0439  0.2056
  312POPC   GL2 4049   2.047   5.168   3.842 -0.0529 -0.2685 -0.0311
  312POPC   C1A 4050   2.406   5.018   4.171 -0.0380  0.4170 -0.3051
  312POPC   D2A 4051   2.616   5.160   4.558 -0.3767 -0.2007  0.2078
  312POPC   C3A 4052   2.730   5.310   4.936 -0.0603 -0.1063  0.1724
  312POPC   C4A 4053   3.112   5.387   5.015 -0.0702  0.1568 -0.1266
  312POPC   C1B 4054   1.911   5.032   4.261 -0.0555 -0.1589 -0.2849
  312POPC   C2B 4055   2.089   4.949   4.666 -0.2801 -0.0250  0.0684
  312POPC   C3B 4056   2.301   4.987   5.074  0.0667 -0.2382 -0.2014
  312POPC   C4B 4057   2.484   5.208   5.552  0.1032 -0.1129 -0.1711
  313POPC   NC3 4058   4.089   7.721   3.279 -0.4014  0.0336 -0.0133
  313POPC   PO4 4059   4.011   7.215   3.440  0.3667 -0.2069  0.0950
  313POPC   GL1 4060   3.704   7.353   3.765  0.0615 -0.0161  0.0332
  313POPC   GL2 4061   3.792   7.597   3.914 -0.1504 -0.0596  0.0246
  313POPC   C1A 4062   3.443   7.190   4.136 -0.0013 -0.0300  0.0754
  313POPC   D2A 4063   3.241   7.256   4.550 -0.1563  0.0357  0.3076
  313POPC   C3A 4064   3.332   7.473   4.837 -0.2859  0.2079 -0.1602
  313POPC   C4A 4065   3.668   7.582   5.203 -0.2234  0.2534  0.0050
  313POPC   C1B 4066   3.701   7.632   4.477  0.1097  0.4041  0.0107
  313POPC   C2B 4067   3.948   7.634   4.760 -0.0266  0.0836  0.0538
  313POPC   C3B 4068   4.231   7.695   5.087 -0.1850  0.1109  0.1287
  313POPC   C4B 4069   4.102   7.750   5.520  0.0917 -0.3259 -0.3731
  314POPC   NC3 4070   3.806   5.617   3.657 -0.2373  0.0675 -0.1006
  314POPC   PO4 4071   4.066   5.405   3.581 -0.0134  0.2141  0.0677
  314POPC   GL1 4072   4.142   5.137   3.913  0.0552 -0.3065 -0.0780
  314POPC   GL2 4073   4.496   5.138   4.015  0.3127 -0.1940 -0.0621
  314POPC   C1A 4074   4.082   5.221   4.329 -0.0263  0.0711  0.0749
  314POPC   D2A 4075   4.027   5.182   4.802  0.0637 -0.1582 -0.0788
  314POPC   C3A 4076   3.673   5.333   4.962  0.1097 -0.0982  0.2132
  314POPC   C4A 4077   3.359   5.032   5.209  0.1204 -0.2849  0.3527
  314POPC   C1B 4078   4.596   4.886   4.338  0.1836  0.0165  0.0698
  314POPC   C2B 4079   4.466   4.906   4.712 -0.1064  0.1563 -0.0263
  314POPC   C3B 4080   4.467   5.132   5.174 -0.1747  0.2077 -0.3556
  314POPC   C4B 4081   4.467   5.389   5.593 -0.2455  0.2068  0.0643
  315POPC   NC3 4082   5.466   3.527   2.641 -0.1651 -0.1270  0.0045
  315POPC   PO4 4083   5.810   3.376   3.044  0.0625  0.1023 -0.0299
  315POPC   GL1 4084   5.977   3.187   3.353 -0.0957 -0.0857 -0.0116
  315POPC   GL2 4085   6.277   3.116   3.484  0.0128  0.1045  0.1778
  315POPC   C1A 4086   5.751   3.093   3.682 -0.1640  0.0138  0.0314
  315POPC   D2A 4087   5.286   3.060   3.854 -0.1704 -0.4353  0.2363
  315POPC   C3A 4088   5.094   3.319   4.246 -0.0330 -0.2418 -0.1918
  315POPC   C4A 4089   4.972   3.278   4.674 -0.0061  0.0486  0.0204
  315POPC   C1B 4090   6.360   3.102   3.928  0.0485 -0.0403 -0.4892
  315POPC   C2B 4091   6.363   2.898   4.202 -0.1140 -0.1248 -0.0607
  315POPC   C3B 4092   6.211   2.981   4.638  0.5452  0.0711  0.1435
  315POPC   C4B 4093   6.263   3.104   5.076 -0.4270  0.3277 -0.2018
  316POPC   NC3 4094   1.122   8.792   3.143 -0.0599 -0.2706 -0.1352
  316POPC   PO4 4095   0.898   8.498   3.583 -0.0359 -0.3618  0.3483
  316POPC   GL1 4096   0.971   8.161   3.996  0.2109  0.0057  0.1760
  316POPC   GL2 4097   1.172   8.319   4.245  0.0348  0.0682 -0.2859
  316POPC   C1A 4098   0.917   7.845   4.280  0.0155 -0.4361  0.0798
  316POPC   D2A 4099   1.073   7.681   4.663  0.0622 -0.0236 -0.0946
  316POPC   C3A 4100   1.001   7.287   4.650  0.0959 -0.0825 -0.2444
  316POPC   C4A 4101   0.809   6.912   4.632 -0.0199  0.1293  0.0377
  316POPC   C1B 4102   1.017   8.170   4.683 -0.0023 -0.0733  0.1328
  316POPC   C2B 4103   1.210   7.985   5.056  0.0566 -0.3038  0.0016
  316POPC   C3B 4104   0.965   7.894   5.397  0.0048  0.0383 -0.0702
  316POPC   C4B 4105   0.644   7.591   5.580  0.2703 -0.0476  0.2849
  317POPC   NC3 4106   1.389   1.443   2.844 -0.1170  0.3879  0.0059
  317POPC   PO4 4107   1.202   1.695   3.341 -0.0666 -0.1420  0.0685
  317POPC   GL1 4108   1.361   1.682   3.767 -0.0995  0.0872 -0.0415
  317POPC   GL2 4109   1.611   1.659   3.653 -0.2153 -0.1501  0.0606
  317POPC   C1A 4110   1.312   1.534   4.182 -0.1722 -0.0198 -0.1521
  317POPC   D2A 4111   1.325   1.570   4.666  0.2296  0.3124 -0.0737
  317POPC   C3A 4112   1.015   1.546   4.969 -0.2652  0.0838 -0.0292
  317POPC   C4A 4113   0.645   1.338   5.069  0.1348 -0.2572 -0.3685
  317POPC   C1B 4114   1.863   1.696   4.088  0.1759 -0.2859  0.0659
  317POPC   C2B 4115   1.736   1.689   4.468 -0.0086 -0.1234 -0.0263
  317POPC   C3B 4116   1.927   1.438   4.874  0.2309  0.0494 -0.1704
  317POPC   C4B 4117   1.564   1.130   5.056 -0.1896 -0.2653  0.0112
  318POPC   NC3 4118   1.735   0.041   3.627  0.2808  0.0135 -0.0444
  318POPC   PO4 4119   1.733  -0.323   3.396  0.0860 -0.0027  0.1000
  318POPC   GL1 4120   1.685  -0.506   3.750  0.3737  0.0931  0.2419
  318POPC   GL2 4121   1.459  -0.701   3.684  0.1042 -0.1525  0.2488
  318POPC   C1A 4122   1.983  -0.682   4.042 -0.0057 -0.1917 -0.0904
  318POPC   D2A 4123   1.849  -1.079   4.210  0.2103 -0.0643  0.1253
  318POPC   C3A 4124   1.504  -1.135   4.503 -0.0583  0.1677 -0.0074
  318POPC   C4A 4125   1.328  -1.521   4.608 -0.0199 -0.1352  0.3330
  318POPC   C1B 4126   1.474  -0.723   4.175  0.0760  0.0619  0.1140
  318POPC   C2B 4127   1.290  -0.477   4.559 -0.3448 -0.1621 -0.0922
  318POPC   C3B 4128   1.274  -0.168   4.760  0.1164 -0.4263 -0.0116
  318POPC   C4B 4129   1.542   0.025   5.094 -0.2468  0.0124 -0.1108
  319POPC   NC3 4130   9.781   9.516   2.697 -0.3463 -0.2741  0.1090
  319POPC   PO4 4131   9.640   9.534   3.111 -0.3647  0.1752  0.2363
  319POPC   GL1 4132   9.630   9.956   3.443 -0.1111  0.0271  0.0465
  319POPC   GL2 4133   9.588  10.285   3.303  0.0639 -0.0677  0.4223
  319POPC   C1A 4134   9.837   9.844   3.806  0.0407  0.0091  0.1806
  319POPC   D2A 4135   9.862   9.823   4.233 -0.4666  0.1410 -0.3261
  319POPC   C3A 4136   9.491   9.887   4.484 -0.1629 -0.0369 -0.0204
  319POPC   C4A 4137   9.129   9.789   4.813 -0.3172 -0.1172  0.0147
  319POPC   C1B 4138   9.328  10.438   3.583  0.0353  0.0594 -0.2743
  319POPC   C2B 4139   9.249  10.619   3.993 -0.1906 -0.1496  0.3519
  319POPC   C3B 4140   9.184  10.805   4.392  0.1790  0.0097  0.2630
  319POPC   C4B 4141   8.885  11.108   4.711 -0.0582  0.1521  0.1295
  320POPC   NC3 4142   4.588   0.576   3.683  0.1193 -0.1199 -0.2673
  320POPC   PO4 4143   4.936   0.505   3.727  0.0972 -0.0707 -0.1123
  320POPC   GL1 4144   5.273   0.625   4.147 -0.0859  0.2191 -0.0809
  320POPC   GL2 4145   5.230   0.636   4.482 -0.1693 -0.0256  0.2310
  320POPC   C1A 4146   5.647   0.870   4.268 -0.0280 -0.0588 -0.0579
  320POPC   D2A 4147   5.860   1.164   4.389  0.3113 -0.1998  0.0585
  320POPC   C3A 4148   6.199   1.424   4.548 -0.0686  0.4754  0.1192
  320POPC   C4A 4149   6.480   1.244   4.860 -0.0024 -0.0322 -0.1576
  320POPC   C1B 4150   5.577   0.466   4.757  0.0090 -0.3734 -0.2877
  320POPC   C2B 4151   6.024   0.387   4.946  0.1006 -0.1236 -0.1280
  320POPC   C3B 4152   6.306   0.567   5.282 -0.1032  0.0875  0.2731
  320POPC   C4B 4153   6.426   0.886   5.400 -0.0179  0.0778 -0.0602
  321POPC   NC3 4154   1.882   9.431   3.660 -0.1326 -0.0932 -0.3818
  321POPC   PO4 4155   1.438   9.585   3.497 -0.0119  0.0134  0.0411
  321POPC   GL1 4156   1.098   9.453   3.839  0.0955  0.2400  0.1354
  321POPC   GL2 4157   1.097   9.753   3.869 -0.2175 -0.0480  0.1516
  321POPC   C1A 4158   1.008   9.176   4.094  0.3002  0.0163  0.1803
  321POPC   D2A 4159   0.851   9.001   4.425 -0.0976 -0.1166 -0.0944
  321POPC   C3A 4160   0.877   9.141   4.902  0.0151 -0.3563 -0.0190
  321POPC   C4A 4161   1.260   9.341   5.130  0.0059  0.0754 -0.2569
  321POPC   C1B 4162   1.047   9.682   4.266 -0.0363  0.1154  0.2062
  321POPC   C2B 4163   1.092   9.771   4.689  0.0249 -0.2901 -0.1479
  321POPC   C3B 4164   1.275   9.910   5.004  0.1172 -0.3394 -0.3172
  321POPC   C4B 4165   1.613   9.936   5.383  0.2948  0.0418 -0.0199
  322POPC   NC3 4166   3.192   4.942   3.506  0.1345 -0.2145 -0.2151
  322POPC   PO4 4167   2.841   5.143   3.474  0.0746  0.2006  0.0982
  322POPC   GL1 4168   2.871   5.110   3.898 -0.1700  0.0720 -0.1808
  322POPC   GL2 4169   3.034   4.775   3.953  0.2120 -0.1069 -0.1291
  322POPC   C1A 4170   3.019   5.244   4.228  0.1224 -0.3494 -0.1203
  322POPC   D2A 4171   3.153   5.230   4.550 -0.1528 -0.2457 -0.0921
  322POPC   C3A 4172   3.197   4.833   4.744  0.4529  0.1822  0.0808
  322POPC   C4A 4173   3.023   4.567   5.148 -0.5156  0.0619  0.2428
  322POPC   C1B 4174   3.193   4.556   4.307  0.1976  0.1581  0.0320
  322POPC   C2B 4175   3.492   4.500   4.550  0.3831  0.3420  0.0710
  322POPC   C3B 4176   3.400   4.168   4.850 -0.1634  0.3099 -0.3355
  322POPC   C4B 4177   3.113   4.123   5.226 -0.1807  0.0054  0.0270
  323POPC   NC3 4178   8.974   1.232   3.130 -0.3328  0.2009  0.0985
  323POPC   PO4 4179   8.522   1.186   2.948 -0.0168 -0.1041 -0.1547
  323POPC   GL1 4180   8.378   1.130   3.342 -0.1767  0.0314  0.2764
  323POPC   GL2 4181   8.597   1.062   3.640 -0.0280  0.3407 -0.2504
  323POPC   C1A 4182   8.233   0.712   3.648  0.2309 -0.0060 -0.2205
  323POPC   D2A 4183   7.864   0.479   3.957  0.1384 -0.0285 -0.1679
  323POPC   C3A 4184   7.735   0.391   4.399 -0.5539 -0.0732  0.1861
  323POPC   C4A 4185   7.872   0.235   4.798  0.0345  0.0891 -0.2119
  323POPC   C1B 4186   8.550   0.875   3.999 -0.0911  0.1793  0.2682
  323POPC   C2B 4187   8.438   0.473   4.129 -0.0503  0.0714 -0.1632
  323POPC   C3B 4188   8.406   0.282   4.641 -0.3520  0.1518 -0.0499
  323POPC   C4B 4189   8.295   0.261   5.077 -0.0592  0.0882 -0.1486
  324POPC   NC3 4190   6.296   5.393   3.425  0.1941 -0.1209 -0.0063
  324POPC   PO4 4191   5.873   5.120   3.374  0.0857  0.0187  0.1342
  324POPC   GL1 4192   6.115   4.944   3.672 -0.1868 -0.1061 -0.3600
  324POPC   GL2 4193   6.344   4.711   3.621  0.0635 -0.1691  0.0908
  324POPC   C1A 4194   6.103   5.198   4.021  0.1300  0.4326 -0.1145
  324POPC   D2A 4195   5.938   5.255   4.382  0.1487  0.1097 -0.0233
  324POPC   C3A 4196   5.804   5.375   4.814 -0.0468 -0.1350  0.1554
  324POPC   C4A 4197   5.850   5.295   5.244 -0.0816  0.0903  0.2290
  324POPC   C1B 4198   6.615   4.906   3.931  0.0732 -0.0367 -0.0535
  324POPC   C2B 4199   6.878   4.917   4.324 -0.0817  0.0667  0.0494
  324POPC   C3B 4200   6.955   4.785   4.638 -0.1039 -0.2465  0.1102
  324POPC   C4B 4201   6.850   4.590   4.954 -0.1493 -0.1329 -0.2214
  325POPC   NC3 4202  10.646   0.549   3.226  0.0806  0.0114  0.0612
  325POPC   PO4 4203  11.037   0.418   3.246 -0.0587  0.0803  0.1574
  325POPC   GL1 4204  11.006   0.606   3.652 -0.0638 -0.1853 -0.0505
  325POPC   GL2 4205  11.041   0.919   3.815  0.0164 -0.0673  0.1644
  325POPC   C1A 4206  10.936   0.321   3.919 -0.0478 -0.2282 -0.2439
  325POPC   D2A 4207  10.780  -0.028   4.106 -0.2536  0.2603  0.1620
  325POPC   C3A 4208  10.645   0.061   4.511  0.2397  0.1783 -0.0444
  325POPC   C4A 4209  10.272   0.358   4.664 -0.0778 -0.1717  0.1391
  325POPC   C1B 4210  10.830   0.995   4.114 -0.0283 -0.4397  0.0367
  325POPC   C2B 4211  11.021   1.139   4.501 -0.1371 -0.4859  0.2983
  325POPC   C3B 4212  10.941   1.221   4.863  0.0674 -0.1655  0.0029
  325POPC   C4B 4213  10.821   1.115   5.211 -0.0906 -0.1544  0.0459
  326POPC   NC3 4214   6.604   9.807   3.203 -0.2865  0.0216  0.1872
  326POPC   PO4 4215   6.215   9.800   3.037  0.1439 -0.2120 -0.1596
  326POPC   GL1 4216   6.103   9.724   3.552  0.0958  0.0965 -0.1983
  326POPC   GL2 4217   5.907   9.872   3.782 -0.1896  0.0870  0.0636
  326POPC   C1A 4218   6.215   9.410   3.818  0.0489 -0.1106 -0.1829
  326POPC   D2A 4219   6.446   9.228   4.154 -0.0897 -0.1903  0.0020
  326POPC   C3A 4220   6.506   8.920   4.353  0.0340  0.0240 -0.0113
  326POPC   C4A 4221   6.704   8.755   4.695  0.2070  0.0014 -0.1024
  326POPC   C1B 4222   5.878   9.973   4.271 -0.2013  0.5499 -0.2345
  326POPC   C2B 4223   5.864  10.148   4.583 -0.2825 -0.0998  0.0477
  326POPC   C3B 4224   6.068  10.338   4.929  0.0534 -0.0856  0.4073
  326POPC   C4B 4225   6.162  10.711   5.096 -0.4317  0.0652  0.2584
  327POPC   NC3 4226  10.500   7.693   3.313  0.0592  0.2734  0.3646
  327POPC   PO4 4227  10.315   7.258   3.316  0.1285 -0.2239  0.0450
  327POPC   GL1 4228  10.397   7.264   3.736 -0.1012  0.0113  0.2242
  327POPC   GL2 4229  10.739   7.327   3.754 -0.0220 -0.2427 -0.4035
  327POPC   C1A 4230  10.390   7.384   4.203  0.0739 -0.3704 -0.0300
  327POPC   D2A 4231  10.281   7.390   4.653 -0.0454 -0.0293 -0.2333
  327POPC   C3A 4232  10.306   7.392   5.101  0.0763 -0.2906 -0.1293
  327POPC   C4A 4233  10.491   7.200   5.429  0.3489 -0.1450 -0.4528
  327POPC   C1B 4234  10.853   7.582   4.142  0.0211  0.0444  0.2413
  327POPC   C2B 4235  11.058   8.018   4.416 -0.0475  0.1534  0.1989
  327POPC   C3B 4236  11.270   8.095   4.813  0.3167 -0.1529 -0.2746
  327POPC   C4B 4237  11.376   7.818   5.003  0.1164  0.1207 -0.3400
  328POPC   NC3 4238   4.649   1.550   2.549  0.3537 -0.3377  0.2475
  328POPC   PO4 4239   4.847   1.709   2.881 -0.3265 -0.0415 -0.3288
  328POPC   GL1 4240   5.040   1.877   3.217  0.0445 -0.2818  0.2561
  328POPC   GL2 4241   5.392   1.808   3.189  0.2079  0.1118 -0.3247
  328POPC   C1A 4242   4.855   1.917   3.669 -0.0789  0.0178 -0.1471
  328POPC   D2A 4243   4.414   1.784   3.788 -0.1269 -0.1427 -0.2159
  328POPC   C3A 4244   4.401   1.674   4.200 -0.3896  0.0982  0.0054
  328POPC   C4A 4245   4.318   1.887   4.579  0.1903  0.1020  0.0010
  328POPC   C1B 4246   5.382   2.035   3.545 -0.3094 -0.2277  0.1282
  328POPC   C2B 4247   5.272   2.184   3.978  0.1093  0.0643 -0.1835
  328POPC   C3B 4248   5.101   2.369   4.390 -0.1973 -0.0497 -0.3660
  328POPC   C4B 4249   4.983   2.367   4.844 -0.1833  0.0719  0.2774
  329POPC   NC3 4250   8.201   2.598   3.297 -0.1792 -0.2394 -0.1267
  329POPC   PO4 4251   8.664   2.807   3.217 -0.1671  0.1979 -0.0067
  329POPC   GL1 4252   8.661   2.605   3.654  0.4084 -0.1094  0.1536
  329POPC   GL2 4253   8.462   2.851   3.684 -0.0337  0.2009  0.0693
  329POPC   C1A 4254   8.656   2.452   4.103  0.1763 -0.1542 -0.2072
  329POPC   D2A 4255   8.994   2.290   4.354  0.2431  0.1512  0.2237
  329POPC   C3A 4256   9.127   2.502   4.672  0.0299  0.0640  0.0056
  329POPC   C4A 4257   9.031   2.808   5.015 -0.3236  0.1705  0.0366
  329POPC   C1B 4258   8.507   3.043   4.045 -0.0746  0.1922  0.1353
  329POPC   C2B 4259   8.309   3.072   4.431 -0.3221  0.0763  0.2227
  329POPC   C3B 4260   8.129   3.218   4.865  0.0372 -0.0432  0.2475
  329POPC   C4B 4261   8.102   3.122   5.275 -0.0170 -0.2080  0.3265
  330POPC   NC3 4262   9.561   3.294   2.915 -0.1911 -0.0313  0.1648
  330POPC   PO4 4263   9.146   3.324   2.843  0.2093 -0.2485 -0.3892
  330POPC   GL1 4264   9.104   3.184   3.327 -0.3685  0.0789 -0.0260
  330POPC   GL2 4265   8.834   3.243   3.417 -0.3356 -0.0239  0.1358
  330POPC   C1A 4266   9.279   3.333   3.779  0.0019  0.2554  0.0835
  330POPC   D2A 4267   9.233   3.261   4.232  0.0112 -0.0833  0.2683
  330POPC   C3A 4268   8.869   3.396   4.342  0.0253  0.1829  0.1392
  330POPC   C4A 4269   8.388   3.534   4.452  0.1750  0.0913  0.1219
  330POPC   C1B 4270   8.960   2.947   3.779  0.0050  0.0393  0.0777
  330POPC   C2B 4271   8.965   2.831   4.212 -0.0134  0.0872 -0.1362
  330POPC   C3B 4272   8.835   2.879   4.569 -0.0720  0.2115  0.0840
  330POPC   C4B 4273   8.659   3.213   4.752  0.1115 -0.2397  0.0706
  331POPC   NC3 4274   0.048   2.341   3.303 -0.2798  0.0109  0.1607
  331POPC   PO4 4275   0.113   1.891   3.282  0.2274  0.1606 -0.1298
  331POPC   GL1 4276   0.058   1.855   3.717 -0.2612 -0.2362  0.0890
  331POPC   GL2 4277  -0.039   2.114   3.787  0.0679 -0.2208  0.0957
  331POPC   C1A 4278  -0.014   1.588   4.037 -0.0158  0.0600  0.4810
  331POPC   D2A 4279  -0.155   1.440   4.411 -0.0114 -0.1536 -0.3909
  331POPC   C3A 4280  -0.189   1.600   4.891  0.1219 -0.1747  0.1457
  331POPC   C4A 4281   0.141   1.571   5.263  0.1300 -0.2114 -0.1055
  331POPC   C1B 4282  -0.284   2.006   4.185 -0.1192 -0.0836  0.1028
  331POPC   C2B 4283  -0.258   1.975   4.565  0.0390  0.1608 -0.4477
  331POPC   C3B 4284  -0.261   2.085   4.999 -0.2375 -0.0465  0.0485
  331POPC   C4B 4285  -0.514   2.148   5.317 -0.0875 -0.2983 -0.2435
  332POPC   NC3 4286   0.074   0.066   2.919 -0.3659  0.4772  0.2505
  332POPC   PO4 4287  -0.116   0.062   3.252 -0.1131  0.2397  0.0900
  332POPC   GL1 4288  -0.031  -0.261   3.657 -0.2898  0.0928  0.1801
  332POPC   GL2 4289   0.286  -0.344   3.789  0.0957 -0.2826 -0.0947
  332POPC   C1A 4290  -0.198  -0.471   4.052 -0.0088 -0.1146 -0.0583
  332POPC   D2A 4291  -0.284  -0.387   4.474  0.0246  0.1385  0.1751
  332POPC   C3A 4292  -0.222  -0.690   4.870  0.1027  0.1548  0.0226
  332POPC   C4A 4293  -0.305  -0.607   5.246  0.2260  0.2323 -0.0812
  332POPC   C1B 4294   0.346  -0.510   4.249 -0.3380  0.0337  0.2080
  332POPC   C2B 4295   0.235  -0.369   4.632 -0.3029  0.1164  0.1053
  332POPC   C3B 4296   0.493  -0.255   4.971 -0.2341  0.0221 -0.1872
  332POPC   C4B 4297   0.902  -0.006   5.201  0.1797 -0.0718  0.0772
  333POPC   NC3 4298   7.421  10.141   3.100 -0.0523 -0.3643 -0.0316
  333POPC   PO4 4299   7.152   9.787   3.091 -0.0376  0.2949 -0.1994
  333POPC   GL1 4300   6.962   9.693   3.571  0.0478  0.1092 -0.0828
  333POPC   GL2 4301   6.682   9.610   3.686  0.0159  0.0781  0.1981
  333POPC   C1A 4302   6.893   9.700   4.087  0.0438 -0.2895  0.1423
  333POPC   D2A 4303   6.924   9.635   4.465  0.0466 -0.0932  0.0748
  333POPC   C3A 4304   6.900   9.237   4.639 -0.1732 -0.0603  0.0028
  333POPC   C4A 4305   6.513   9.347   4.668 -0.1169  0.0693  0.0594
  333POPC   C1B 4306   6.917   9.257   3.930  0.1066  0.0790  0.2290
  333POPC   C2B 4307   7.156   9.032   4.128  0.1944  0.3635  0.0929
  333POPC   C3B 4308   7.231   8.942   4.394 -0.3321  0.1157 -0.0919
  333POPC   C4B 4309   7.196   8.810   4.750 -0.1534 -0.0658 -0.2592
  334POPC   NC3 4310   8.524  10.396   3.236  0.0495 -0.1343 -0.1686
  334POPC   PO4 4311   8.346  10.809   3.105 -0.0878 -0.2738 -0.0263
  334POPC   GL1 4312   8.476  10.915   3.601  0.0518  0.0077  0.3128
  334POPC   GL2 4313   8.706  11.231   3.700 -0.0107 -0.0967 -0.2010
  334POPC   C1A 4314   8.576  10.596   3.947 -0.1441 -0.0272 -0.3264
  334POPC   D2A 4315   8.287  10.430   4.241  0.1611  0.0166  0.2170
  334POPC   C3A 4316   8.312  10.431   4.637 -0.1987  0.2094  0.1066
  334POPC   C4A 4317   8.084  10.591   4.984  0.0053 -0.1297  0.0292
  334POPC   C1B 4318   8.851  10.995   4.032 -0.0276 -0.1486 -0.0440
  334POPC   C2B 4319   8.709  10.761   4.383  0.4665 -0.1955 -0.1066
  334POPC   C3B 4320   8.784  10.598   4.771  0.2078 -0.1464  0.4106
  334POPC   C4B 4321   8.586  10.343   5.008  0.0625 -0.0867 -0.3190
  335POPC   NC3 4322   4.655   6.966   3.369 -0.2808  0.1178 -0.1639
  335POPC   PO4 4323   4.351   6.867   3.576  0.0980 -0.0336  0.0876
  335POPC   GL1 4324   4.775   6.911   3.920  0.2256  0.0026  0.2525
  335POPC   GL2 4325   4.640   7.135   4.127 -0.1545 -0.1101 -0.1243
  335POPC   C1A 4326   5.165   7.119   4.074  0.0524  0.3670 -0.0004
  335POPC   D2A 4327   5.367   7.005   4.398  0.0561 -0.2657 -0.1784
  335POPC   C3A 4328   5.167   6.896   4.919  0.1628 -0.3280  0.0993
  335POPC   C4A 4329   5.028   7.150   5.328  0.0429 -0.1091 -0.0706
  335POPC   C1B 4330   4.387   7.019   4.443 -0.2013 -0.1285 -0.1521
  335POPC   C2B 4331   4.264   7.168   4.900 -0.1398  0.2130  0.1234
  335POPC   C3B 4332   4.417   7.197   5.354 -0.0234 -0.1403  0.0859
  335POPC   C4B 4333   4.591   7.626   5.604  0.0553 -0.1800 -0.0458
  336POPC   NC3 4334   3.453   0.008   3.782 -0.1705  0.0881  0.0295
  336POPC   PO4 4335   3.037  -0.093   3.806 -0.0173  0.1911  0.0195
  336POPC   GL1 4336   2.615  -0.108   3.922 -0.1033  0.2411  0.2406
  336POPC   GL2 4337   2.684   0.080   4.210 -0.1257  0.0098  0.1303
  336POPC   C1A 4338   2.104  -0.090   4.155 -0.1749  0.4604 -0.0740
  336POPC   D2A 4339   1.664  -0.129   4.096 -0.2293  0.0335  0.1256
  336POPC   C3A 4340   1.224  -0.051   4.292 -0.2312 -0.5448  0.1193
  336POPC   C4A 4341   0.907   0.098   4.600  0.0227  0.1234 -0.0381
  336POPC   C1B 4342   2.700  -0.192   4.567 -0.1425  0.0458 -0.1333
  336POPC   C2B 4343   2.647  -0.412   4.815  0.2783  0.0306 -0.1926
  336POPC   C3B 4344   2.476  -0.703   5.111  0.1727  0.2425  0.0259
  336POPC   C4B 4345   2.580  -0.889   5.491 -0.2821  0.1529  0.1359
  337POPC   NC3 4346  10.129   2.840   3.421 -0.2091 -0.2233 -0.5977
  337POPC   PO4 4347  10.390   2.445   3.576 -0.0260  0.3061  0.2553
  337POPC   GL1 4348  10.261   2.727   3.925  0.2775 -0.4176 -0.0237
  337POPC   GL2 4349   9.972   2.617   4.204  0.0540  0.0317  0.1042
  337POPC   C1A 4350  10.323   2.950   4.334 -0.0777  0.0257 -0.2500
  337POPC   D2A 4351  10.327   3.359   4.492 -0.0429 -0.4742  0.1816
  337POPC   C3A 4352  10.395   3.250   4.853  0.0307 -0.2320  0.1322
  337POPC   C4A 4353  10.340   3.157   5.255  0.1576  0.3009  0.0637
  337POPC   C1B 4354   9.858   2.660   4.504  0.3057  0.0355  0.1997
  337POPC   C2B 4355  10.081   2.915   4.784 -0.0198 -0.0717 -0.1947
  337POPC   C3B 4356   9.942   3.289   5.034 -0.1272 -0.1477  0.0874
  337POPC   C4B 4357  10.055   3.597   5.367  0.1366  0.4078  0.3683
  338POPC   NC3 4358  10.162   5.531   3.364  0.0085  0.1214 -0.1976
  338POPC   PO4 4359   9.772   5.433   3.656 -0.1325  0.1055 -0.2034
  338POPC   GL1 4360   9.415   5.594   3.895  0.1516  0.0826  0.0270
  338POPC   GL2 4361   9.299   5.877   3.977  0.1058  0.0536  0.0108
  338POPC   C1A 4362   9.277   5.373   4.329 -0.1377  0.0399 -0.1164
  338POPC   D2A 4363   9.302   5.428   4.702 -0.0252 -0.0089 -0.1325
  338POPC   C3A 4364   9.747   5.324   4.777 -0.0131 -0.3574  0.0654
  338POPC   C4A 4365  10.246   5.305   4.743 -0.2675  0.1083 -0.3380
  338POPC   C1B 4366   9.158   5.924   4.357 -0.3255 -0.0593 -0.1095
  338POPC   C2B 4367   9.221   6.239   4.694  0.1761  0.0914 -0.2877
  338POPC   C3B 4368   9.253   6.527   4.937 -0.2475  0.0642  0.1813
  338POPC   C4B 4369   9.496   6.871   4.959  0.2850 -0.0292  0.1753
  339POPC   NC3 4370   7.924   4.172   3.566 -0.2321 -0.1906 -0.1910
  339POPC   PO4 4371   7.641   3.836   3.344  0.0446  0.0656  0.2192
  339POPC   GL1 4372   7.537   3.923   3.745  0.1973  0.4086 -0.0474
  339POPC   GL2 4373   7.469   4.219   3.774  0.2036 -0.2002  0.1723
  339POPC   C1A 4374   7.592   3.746   4.108 -0.3664  0.1353 -0.0285
  339POPC   D2A 4375   7.261   3.434   4.340  0.0003 -0.3101  0.0859
  339POPC   C3A 4376   7.342   3.078   4.662  0.2336 -0.2219  0.3519
  339POPC   C4A 4377   7.270   3.147   5.240 -0.1689 -0.1098  0.0886
  339POPC   C1B 4378   7.566   4.235   4.221 -0.0824  0.1752  0.1752
  339POPC   C2B 4379   7.732   4.265   4.532 -0.0573 -0.0406  0.3419
  339POPC   C3B 4380   7.818   4.100   4.903  0.1935 -0.0601  0.2464
  339POPC   C4B 4381   7.692   4.134   5.376 -0.2129 -0.0085 -0.2558
  340POPC   NC3 4382   6.313   9.137   2.531 -0.2279 -0.1876 -0.1348
  340POPC   PO4 4383   5.990   9.156   2.810  0.3082  0.0862  0.1315
  340POPC   GL1 4384   6.080   9.278   3.268  0.0006 -0.3110 -0.0171
  340POPC   GL2 4385   6.352   9.384   3.347 -0.1460  0.1935  0.0383
  340POPC   C1A 4386   6.028   9.012   3.679  0.1995  0.1664  0.2269
  340POPC   D2A 4387   6.163   8.758   3.966 -0.4117 -0.2321 -0.3783
  340POPC   C3A 4388   6.041   8.647   4.413  0.1091 -0.0064  0.2331
  340POPC   C4A 4389   5.840   8.561   4.700  0.1625 -0.3090 -0.1332
  340POPC   C1B 4390   6.536   9.034   3.503  0.0732  0.1753  0.0420
  340POPC   C2B 4391   6.653   8.770   3.881  0.0024  0.2069 -0.0338
  340POPC   C3B 4392   6.965   8.517   4.116  0.0559 -0.1279  0.0156
  340POPC   C4B 4393   7.224   8.180   4.217  0.3991 -0.0224  0.2631
  341POPC   NC3 4394   7.117   3.855   3.174 -0.0971  0.1724 -0.1611
  341POPC   PO4 4395   6.849   3.512   3.165 -0.1293 -0.1136 -0.2103
  341POPC   GL1 4396   6.744   3.427   3.494  0.0448  0.0938  0.3541
  341POPC   GL2 4397   6.777   3.098   3.611 -0.0283  0.0299  0.1665
  341POPC   C1A 4398   6.503   3.580   3.770 -0.2509  0.1718  0.0076
  341POPC   D2A 4399   6.095   3.626   3.862 -0.1609  0.1958 -0.2524
  341POPC   C3A 4400   5.935   3.710   4.315  0.3211  0.1386 -0.2263
  341POPC   C4A 4401   6.180   3.833   4.751 -0.0767 -0.0872  0.0123
  341POPC   C1B 4402   6.825   3.193   4.024 -0.3534  0.0294  0.0807
  341POPC   C2B 4403   6.763   3.184   4.423 -0.2672 -0.0369  0.2698
  341POPC   C3B 4404   6.759   3.044   4.882 -0.1675  0.1571  0.1020
  341POPC   C4B 4405   6.751   3.097   5.361  0.2888  0.0900 -0.0786
  342W        W 4406   9.169   8.454   9.993  0.2116 -0.1467  0.2169
  343W        W 4407   7.312   4.579   0.760  0.0789 -0.0139  0.2800
  344W        W 4408   0.218   1.596   2.840 -0.2686 -0.1528 -0.0470
  345W        W 4409   0.744   2.919   8.481 -0.1023  0.1931  0.1305
  346W        W 4410  10.226   3.798   9.937 -0.2137 -0.1293 -0.3236
  347W        W 4411   1.142   9.395   7.710  0.0990 -0.0841  0.2059
  348W        W 4412   7.880  10.686   8.677 -0.1177  0.0415  0.3177
  349W        W 4413   5.393   2.787   1.469  0.2497  0.0294 -0.2651
  350W        W 4414   2.862   0.290   8.998  0.1440  0.1051  0.0528
  351W        W 4415   1.536   3.176   2.266 -0.2326  0.0998 -0.0845
  352W        W 4416   3.010   7.663   2.317 -0.0630  0.1219  0.1320
  353W        W 4417   7.069   9.252   1.082 -0.1444 -0.0264 -0.3080
  354W        W 4418   8.149  10.746   9.131  0.0663  0.2210  0.0745
  355W        W 4419  10.185   7.836   7.783  0.2602 -0.1823 -0.3164
  356W        W 4420   1.909   9.097   2.597 -0.0035  0.0361 -0.3598
  357W        W 4421   8.975   0.543   0.338  0.0117  0.0297  0.4124
  358W        W 4422   8.528   8.161   9.798 -0.1801 -0.1164  0.0275
  359W        W 4423  10.513   5.501   8.133  0.0079 -0.1149 -0.0896
  360W        W 4424   0.635   4.378  10.673  0.4019 -0.3586  0.2583
  361W        W 4425  10.319   2.401   3.077  0.3415  0.1522  0.2901
  362W        W 4426   2.127   1.328   8.485 -0.0922  0.1295  0.0799
  363W        W 4427  10.171   1.518   7.319  0.0010  0.0291  0.0647
  364W        W 4428   7.370   2.061   0.212  0.0582 -0.0887  0.1794
  365W        W 4429   3.778   3.795  10.780  0.1519 -0.0758  0.1092
  366W        W 4430   8.273  10.332  10.520  0.1828  0.0055  0.2166
  367W        W 4431   1.771   2.906   7.970 -0.1512  0.1993 -0.0240
  368W        W 4432   0.049   4.312   7.764 -0.0481  0.0224 -0.0797
  369W        W 4433   2.616   2.701   3.360 -0.1369  0.0942 -0.0566
  370W        W 4434   8.708   0.995   8.429 -0.0979 -0.3595 -0.0144
  371W        W 4435   4.761   6.512   3.152  0.3218  0.0874  0.1862
  372W        W 4436   9.080   6.785   6.867 -0.2817  0.0628 -0.1567
  373W        W 4437   0.928  10.403   0.228  0.0576 -0.0545  0.1721
  374W        W 4438  10.268  10.037   2.765  0.1161  0.2036 -0.1353
  375W        W 4439   1.568   9.690   9.272 -0.4969 -0.0235 -0.0733
  376W        W 4440   8.002   9.706   9.286  0.2475 -0.0659  0.0620
  377W        W 4441   2.672   1.081   1.901  0.1045 -0.1019  0.1605
  378W        W 4442   6.552   7.939   7.931 -0.0922  0.1833 -0.1865
  379W        W 4443  10.052   7.016   9.181 -0.0221 -0.0239  0.0229
  380W        W 4444   4.595   3.916   1.414 -0.0760 -0.1675 -0.2540
  381W        W 4445   4.429   4.561   3.328 -0.2498  0.1874  0.0161
  382W        W 4446   4.357   3.957   8.098  0.0442  0.0763 -0.0180
  383W        W 4447   9.828   5.026   1.917  0.2630 -0.0514  0.0463
  384W        W 4448   9.600   5.696   7.677  0.0567  0.1952 -0.2382
  385W        W 4449   8.754   3.221   7.234 -0.1487  0.5219  0.2272
  386W        W 4450   6.849  10.054   9.250 -0.0839  0.0557 -0.1736
  387W        W 4451   2.403   6.619   7.652 -0.1424 -0.1041  0.1859
  388W        W 4452   7.853   9.713  10.907 -0.0331  0.0838 -0.0694
  389W        W 4453  10.443   0.596  10.597  0.3125 -0.0611 -0.1829
  390W        W 4454   7.419   4.784  10.157 -0.3023 -0.0984 -0.2084
  391W        W 4455   7.800   8.832   2.390  0.1626 -0.2479  0.1447
  392W        W 4456   1.568   1.338   9.433 -0.0002 -0.2094 -0.0451
  393W        W 4457   3.950   1.298  10.261 -0.3791 -0.0439 -0.2279
  394W        W 4458   5.653  10.113   9.997  0.2841  0.1371 -0.1059
  395W        W 4459  10.351   7.989   1.959  0.1354  0.0056 -0.1220
  396W        W 4460   3.339   1.024   3.989  0.3177 -0.2452  0.3128
  397W        W 4461   4.244   3.676   7.745 -0.1046  0.0661 -0.2346
  398W        W 4462   4.304   6.926   0.487  0.2934  0.0643  0.1581
  399W        W 4463   3.074  10.560   3.324  0.1393  0.0691  0.1618
  400W        W 4464   0.819   9.672   9.102  0.0864  0.0570 -0.0432
  401W        W 4465   0.820  10.073   2.938  0.2754  0.2103  0.2239
  402W        W 4466   7.331   1.862   2.694  0.0864 -0.0010  0.1601
  403W        W 4467   4.669  10.190   3.250 -0.0139 -0.2115 -0.1685
  404W        W 4468   8.346   8.677   1.639  0.1528 -0.2766  0.0667
  405W        W 4469   3.685   5.418   7.424  0.2028  0.1372  0.0558
  406W        W 4470   4.385   8.376   0.033  0.1253  0.1122  0.0529
  407W        W 4471   9.730   6.561   9.271  0.0714  0.1463  0.2246
  408W        W 4472   8.858   0.521   9.215 -0.2038 -0.0634  0.0534
  409W        W 4473   0.337  10.373   8.096  0.1234 -0.0069  0.2967
  410W        W 4474   8.067   9.771   3.535 -0.1703 -0.1012 -0.0804
  411W        W 4475   9.205   0.314   7.855  0.2425  0.4934 -0.0894
  412W        W 4476   4.880   2.888   1.421 -0.1507 -0.0070  0.0771
  413W        W 4477   4.248   6.270  10.474  0.1072 -0.1696  0.0428
  414W        W 4478   5.563   1.949   1.486 -0.0569 -0.1033 -0.0348
  415W        W 4479   3.481   7.292   9.699 -0.0508 -0.0467  0.1571
  416W        W 4480   6.509   4.860   2.239  0.0847  0.1609 -0.1109
  417W        W 4481   5.005   1.267   3.067 -0.4144 -0.3629 -0.1052
  418W        W 4482   0.580   0.912   8.522 -0.3437 -0.3121 -0.1891
  419W        W 4483   2.901   1.528   0.158  0.1867 -0.0676  0.3615
  420W        W 4484   2.318   0.789   9.738  0.1116 -0.0920  0.0771
  421W        W 4485   6.890   6.919   0.708  0.1766  0.4015 -0.0909
  422W        W 4486   6.824   8.957   1.894  0.0682  0.4029  0.2432
  423W        W 4487   7.362   8.319   1.492 -0.2557  0.0730  0.0489
  424W        W 4488   2.788  10.289   8.548 -0.0538  0.0287 -0.0625
  425W        W 4489   9.686   6.437   0.248 -0.1567  0.1004 -0.0039
  426W        W 4490   5.218   0.432   1.729  0.0375  0.2722  0.1576
  427W        W 4491   4.277   8.786   1.443 -0.0511  0.2064 -0.1680
  428W        W 4492   4.950   2.478   9.361  0.2343 -0.1398 -0.0350
  429W        W 4493   9.878   6.768   1.087  0.1354  0.2078  0.2591
  430W        W 4494   8.256   3.128   3.309 -0.0993  0.0523  0.2196
  431W        W 4495   7.574   0.124   0.823 -0.2435  0.0770 -0.2591
  432W        W 4496   7.534   5.415   7.799 -0.0212 -0.1722 -0.0817
  433W        W 4497   3.442  10.484   8.122  0.0380  0.1968  0.0847
  434W        W 4498   9.339   0.908   0.687 -0.2250 -0.5334  0.1500
  435W        W 4499   3.124  10.462   9.751 -0.2216 -0.2595  0.0619
  436W        W 4500   8.351   3.653   8.672  0.4382  0.0521  0.1523
  437W        W 4501   6.302   9.828  10.542 -0.1521 -0.0386  0.1896
  438W        W 4502   5.577   4.029   1.892 -0.0652  0.1579  0.4377
  439W        W 4503   3.607   6.450   1.955 -0.1658 -0.0760 -0.0352
  440W        W 4504   9.697   7.096  10.526 -0.2305  0.0210  0.3429
  441W        W 4505   1.248   6.825  10.045 -0.2535  0.2363  0.0792
  442W        W 4506   9.806   3.960   8.620  0.5492  0.1017  0.0865
  443W        W 4507   9.247   9.483   2.628  0.1422  0.1553 -0.2098
  444W        W 4508   1.621   3.941   1.320  0.3551 -0.3910 -0.0688
  445W        W 4509   4.505   2.022   2.581  0.3150 -0.6254  0.2513
  446W        W 4510   3.919   9.251  10.037 -0.0043  0.0664  0.0736
  447W        W 4511   9.669   3.044   9.680 -0.0304 -0.1782  0.0279
  448W        W 4512   8.497  10.659   0.894 -0.0789 -0.2471  0.3312
  449W        W 4513   1.513   1.491   2.309 -0.0304  0.1470  0.3137
  450W        W 4514   5.180   3.251   2.319  0.0662  0.1049  0.2628
  451W        W 4515   9.988   9.186   0.307 -0.1638 -0.1666 -0.1266
  452W        W 4516   4.946   4.386   7.379  0.0330 -0.1057 -0.0268
  453W        W 4517   7.844  10.458   7.824 -0.1993 -0.1281 -0.1827
  454W        W 4518   2.362   7.908   2.196  0.0250 -0.0493  0.2772
  455W        W 4519   6.588   9.084   0.245 -0.0460  0.1775 -0.0533
  456W        W 4520  10.363   1.754  11.015 -0.3745  0.1570  0.0640
  457W        W 4521   0.477   2.618   2.883  0.1422 -0.3781 -0.1564
  458W        W 4522   2.919   0.476   8.522 -0.0115  0.1480  0.0685
  459W        W 4523   0.469   8.336   1.400 -0.0155 -0.0517 -0.1317
  460W        W 4524   4.914   8.069  11.007 -0.4443 -0.1786  0.2786
  461W        W 4525  10.144   9.492   8.277 -0.2738  0.1844 -0.0792
  462W        W 4526   1.721   9.375   7.872  0.1577  0.0395 -0.0866
  463W        W 4527   1.830   4.667   1.029 -0.1693 -0.0835  0.0402
  464W        W 4528   8.960   9.885   2.535 -0.1656  0.1739 -0.0252
  465W        W 4529   3.258   8.742  11.298 -0.2313  0.0241 -0.0597
  466W        W 4530   7.350   2.619   9.071 -0.0553 -0.3145 -0.0880
  467W        W 4531   4.652  10.477   9.884  0.3056 -0.1538 -0.1778
  468W        W 4532   6.643   7.392   8.166  0.0207  0.3589  0.0926
  469W        W 4533   6.412   4.868   8.844 -0.0455  0.2840 -0.2010
  470W        W 4534   7.923  10.764   6.907  0.1934 -0.1288 -0.3278
  471W        W 4535   5.709   7.699   2.029  0.0105  0.0225 -0.2504
  472W        W 4536   4.429   6.058   2.443  0.3371 -0.0563  0.0443
  473W        W 4537   1.144   4.395   9.762  0.2619 -0.1814 -0.2377
  474W        W 4538   0.381   7.790   9.484 -0.0478  0.2170 -0.4435
  475W        W 4539   7.973   9.918   7.538 -0.2481 -0.0551  0.0812
  476W        W 4540   6.525   1.781   0.361 -0.0846 -0.3532 -0.0579
  477W        W 4541   6.071   8.193   3.830  0.1207 -0.1479 -0.0079
  478W        W 4542   1.127   2.269   7.641 -0.1739 -0.3787 -0.2120
  479W        W 4543   9.364   6.940   1.750 -0.1695 -0.0747  0.2810
  480W        W 4544   6.029   3.773   7.956 -0.0700 -0.0350 -0.0063
  481W        W 4545   5.224   3.738   2.178  0.0731 -0.0869 -0.1689
  482W        W 4546   0.510   7.926  10.760  0.1266 -0.1905 -0.1296
  483W        W 4547   1.202   7.539   3.141 -0.0158 -0.1817  0.0159
  484W        W 4548   9.650   7.233   8.373 -0.0058  0.0557 -0.0134
  485W        W 4549   7.723   4.165  10.503 -0.0399  0.1039 -0.0765
  486W        W 4550  10.398   0.282   2.084 -0.0285 -0.1362  0.0137
  487W        W 4551   5.738   6.067   7.626  0.2450  0.1365  0.3938
  488W        W 4552   0.275   2.679   1.757 -0.0603  0.4823  0.4160
  489W        W 4553   4.215   6.202   7.553 -0.0614  0.1759  0.1394
  490W        W 4554   3.196   2.345   9.853  0.1787 -0.0513 -0.2800
  491W        W 4555   9.001   2.891   0.510  0.0536  0.7370 -0.1938
  492W        W 4556   1.004   6.458   1.433 -0.1146  0.0280 -0.0953
  493W        W 4557   2.903  10.727  10.405 -0.1300 -0.2734 -0.1469
  494W        W 4558   5.988   3.835   0.746  0.1473  0.2052 -0.0007
  495W        W 4559   4.536   1.580   0.327  0.1615  0.3814  0.0327
  496W        W 4560   2.102   0.522  10.107 -0.2285 -0.1582 -0.2599
  497W        W 4561   8.600   2.203   9.129  0.2354  0.0539 -0.0908
  498W        W 4562   3.513   0.961  10.341  0.0264  0.0520 -0.1425
  499W        W 4563   7.090   6.010  10.175 -0.1553 -0.1982  0.1994
  500W        W 4564   0.736   4.536   3.634  0.0541  0.0975 -0.0767
  501W        W 4565   3.251   8.989   7.377  0.0165  0.2640 -0.1078
  502W        W 4566   0.176   0.055   0.547  0.2212 -0.2817  0.0967
  503W        W 4567   2.357   3.596   7.998  0.1454  0.1030 -0.2140
  504W        W 4568   2.773   3.920   2.825 -0.3846  0.0915 -0.0377
  505W        W 4569   7.790   7.542  11.269  0.2824  0.1025 -0.3020
  506W        W 4570   0.260   9.297   7.756 -0.0788 -0.2871 -0.0621
  507W        W 4571   4.431   4.416   2.849  0.2051 -0.3083 -0.0304
  508W        W 4572   6.186   4.413   1.460  0.1850  0.2985 -0.1293
  509W        W 4573   9.027   3.793  10.610 -0.1885 -0.2107  0.1504
  510W        W 4574   1.736   2.737   9.876  0.3105 -0.1058 -0.0686
  511W        W 4575   7.635   7.040   9.732  0.1883 -0.1132 -0.0224
  512W        W 4576   1.071   9.506   0.405  0.0810  0.0086  0.0060
  513W        W 4577   0.545   5.423   9.934  0.0907  0.3826 -0.2464
  514W        W 4578   9.967   4.418   1.221 -0.1240 -0.0338 -0.1625
  515W        W 4579   9.103   3.027   1.001  0.2035  0.0613  0.0746
  516W        W 4580   2.744   5.577  10.902 -0.2704  0.0649 -0.0106
  517W        W 4581   4.601   8.595   8.880 -0.0960  0.0616 -0.1493
  518W        W 4582   8.426   4.857   3.399 -0.4243  0.3104 -0.0037
  519W        W 4583   6.749   3.486  11.300 -0.3226 -0.2143  0.0333
  520W        W 4584  10.691   1.587   7.862  0.3537  0.4161 -0.0057
  521W        W 4585   2.841   3.591  10.068  0.0607 -0.1211  0.0761
  522W        W 4586   2.028   4.604   0.535 -0.1075  0.2486  0.1623
  523W        W 4587   8.986   8.805   0.212 -0.0979 -0.0920 -0.3792
  524W        W 4588   7.799   1.730   7.269 -0.2214 -0.1120  0.2160
  525W        W 4589   1.809   7.654   0.371  0.0379  0.1003  0.0531
  526W        W 4590   3.153   2.077   2.719 -0.1998  0.0388 -0.3842
  527W        W 4591   9.403   9.893   8.230 -0.0301 -0.0191 -0.0516
  528W        W 4592   2.009   4.791   2.531 -0.2186 -0.1486 -0.2051
  529W        W 4593   0.733   6.445   9.726 -0.1844  0.5439  0.0410
  530W        W 4594   8.194   7.409   2.722  0.1862 -0.1919 -0.1793
  531W        W 4595   7.563   1.794   2.241 -0.0129 -0.1454 -0.2183
  532W        W 4596   3.392   9.860   2.530  0.0405  0.1550  0.0039
  533W        W 4597   7.798   2.365   2.215  0.1782 -0.1995  0.0842
  534W        W 4598   2.558   9.612   0.125 -0.3897  0.0482 -0.0328
  535W        W 4599   8.080   1.680   1.493  0.2294  0.1295  0.0109
  536W        W 4600   1.067   9.390   3.093  0.1781 -0.1730 -0.2152
  537W        W 4601   6.592   0.339   1.957 -0.2710  0.3160  0.0262
  538W        W 4602  10.709   7.855   9.272  0.1695 -0.0080  0.0642
  539W        W 4603   4.531   3.290   3.528 -0.1236 -0.0578 -0.0330
  540W        W 4604   1.694   3.895   3.034 -0.2154 -0.1756 -0.1239
  541W        W 4605  10.156   7.818   1.371 -0.0635  0.1590 -0.0112
  542W        W 4606   5.559   7.819   1.523  0.0719 -0.0998 -0.2656
  543W        W 4607   0.918   8.064  10.452  0.3651 -0.0037  0.0709
  544W        W 4608   3.216   1.413   9.531 -0.0396  0.0526 -0.0442
  545W        W 4609   4.097   7.509   0.988 -0.1711  0.0804  0.1193
  546W        W 4610   7.877   8.309   1.717  0.0410  0.1463  0.0678
  547W        W 4611   8.996   1.234   9.925 -0.3716 -0.0725 -0.3699
  548W        W 4612   6.693   1.044   1.582  0.4047 -0.2106  0.0592
  549W        W 4613   1.761   4.963   8.785 -0.1212  0.2629  0.0120
  550W        W 4614   6.473   4.900   8.355 -0.3883 -0.1752  0.1301
  551W        W 4615   2.092   5.278  11.175  0.1176  0.0490  0.0474
  552W        W 4616   0.728   6.602   3.097 -0.0469  0.0693  0.3671
  553W        W 4617   6.469   5.312   2.515 -0.1366  0.2257 -0.0141
  554W        W 4618   0.389   7.627   8.200 -0.0674 -0.1918 -0.0013
  555W        W 4619   3.201   1.713   1.800  0.3119  0.1894  0.2953
  556W        W 4620   0.040   5.159   6.921  0.1366 -0.2085 -0.0531
  557W        W 4621   3.171   9.205   0.273  0.1285  0.3125 -0.0775
  558W        W 4622   8.475   4.303   8.097  0.1678 -0.0724  0.4492
  559W        W 4623   5.121   4.997   1.356 -0.2647  0.1687 -0.0924
  560W        W 4624   9.243  10.604   3.158  0.5284 -0.0845 -0.0162
  561W        W 4625   2.545   9.703   1.903 -0.0927 -0.0401 -0.0724
  562W        W 4626   4.676   0.115   2.365  0.1514 -0.1729  0.0502
  563W        W 4627   1.358   2.061   1.498  0.0435  0.2430 -0.0940
  564W        W 4628   8.028   6.984   0.770  0.0250 -0.1413 -0.1895
  565W        W 4629   9.810   3.302   8.796  0.1592 -0.0773 -0.4506
  566W        W 4630   9.092   9.412   6.699  0.0909 -0.1196 -0.0043
  567W        W 4631   0.241   1.004   0.554 -0.5154  0.0798 -0.1056
  568W        W 4632   2.182   1.525   8.008  0.3134 -0.1918 -0.3803
  569W        W 4633   4.056   5.294   3.048 -0.1043 -0.1598  0.1837
  570W        W 4634   0.638   5.298   2.767  0.0029 -0.0336  0.1236
  571W        W 4635   4.752   0.826   2.875  0.0238  0.0278  0.1465
  572W        W 4636   8.878   5.319   7.519  0.0279  0.0256 -0.1492
  573W        W 4637   3.459   0.071   9.692  0.1288  0.1177 -0.0436
  574W        W 4638   6.012   7.206   1.928 -0.1093  0.4432 -0.0529
  575W        W 4639   4.139   0.480  10.901 -0.0402  0.2273 -0.0934
  576W        W 4640   2.680   5.287   2.941  0.3449 -0.0499 -0.0155
  577W        W 4641   0.517   3.484  10.665 -0.4855  0.0168 -0.0043
  578W        W 4642   1.356   8.653   3.696  0.1601 -0.0084 -0.2742
  579W        W 4643   1.838   8.661   0.493  0.2755  0.1979  0.0622
  580W        W 4644   0.506   0.201  10.416 -0.0221  0.2129  0.2679
  581W        W 4645   1.327   4.886   1.081 -0.3078  0.0588  0.1327
  582W        W 4646   4.820   8.242   9.734  0.3692  0.2296  0.2806
  583W        W 4647   3.951   5.033   1.983 -0.0010 -0.2068 -0.2371
  584W        W 4648   4.566   9.211   9.057 -0.1599  0.2619  0.2490
  585W        W 4649   2.557   7.831   3.301 -0.4462  0.0041  0.0339
  586W        W 4650   7.203   2.474   9.946 -0.1748  0.0194 -0.1269
  587W        W 4651   2.357  10.123   0.042  0.2278  0.0469 -0.0339
  588W        W 4652   0.451   7.082  10.215  0.0920  0.0783  0.1189
  589W        W 4653   5.358   7.631   9.554  0.3481 -0.0337 -0.1441
  590W        W 4654   0.070   5.836   0.233  0.0019  0.1696  0.0674
  591W        W 4655   8.373   6.160   7.465  0.1354 -0.3322 -0.3026
  592W        W 4656   9.462   8.951   8.273  0.1123  0.1531 -0.3956
  593W        W 4657   3.057   8.809   0.623  0.1384 -0.0915 -0.0959
  594W        W 4658   5.501   4.889   8.408  0.0406  0.2289 -0.0021
  595W        W 4659   8.200   7.374   9.945 -0.1396 -0.1013 -0.1776
  596W        W 4660   2.434   0.353   0.433 -0.2570 -0.3002 -0.1305
  597W        W 4661   1.923   1.088  11.255  0.2000 -0.0898 -0.0915
  598W        W 4662   9.795   1.184   9.634  0.2123 -0.2178 -0.2274
  599W        W 4663   6.832   4.946   0.591 -0.2698 -0.2015 -0.0067
  600W        W 4664   0.538   8.086   3.469 -0.3134  0.0330  0.1936
  601W        W 4665  10.396   8.207   8.928  0.0977 -0.0433  0.3376
  602W        W 4666   0.313   5.567   3.083  0.3234 -0.0026 -0.0708
  603W        W 4667   7.227   7.241   1.083 -0.2043 -0.0080  0.1661
  604W        W 4668   3.318   2.328   3.206  0.3556 -0.2508 -0.0932
  605W        W 4669   0.557   8.855   1.972  0.0041 -0.3322 -0.1498
  606W        W 4670   0.760   6.653   1.050 -0.0667 -0.0619  0.2599
  607W        W 4671   3.528   1.445   2.029 -0.0242  0.0603  0.0119
  608W        W 4672   0.858  10.165   2.121 -0.1006  0.0941 -0.2288
  609W        W 4673   2.606   7.236   9.656  0.0059 -0.0118  0.6321
  610W        W 4674   8.575   3.588   2.209  0.3034 -0.2286  0.1006
  611W        W 4675   0.961   8.308   8.198  0.1063  0.0938 -0.0633
  612W        W 4676   0.529   3.892   0.161 -0.0018 -0.1339  0.1639
  613W        W 4677   7.403   3.352   7.690 -0.0349 -0.0692  0.0706
  614W        W 4678   7.885   6.888   3.369  0.0061 -0.2379  0.2017
  615W        W 4679   5.203   3.594   8.750  0.1018  0.2442  0.1126
  616W        W 4680   9.376   5.809  10.778 -0.0369 -0.2229 -0.0642
  617W        W 4681   7.695   3.446  11.257  0.0271 -0.0613  0.0500
  618W        W 4682   1.597   5.745   0.931  0.2373 -0.2519 -0.1097
  619W        W 4683   8.902   7.657   2.077  0.1475 -0.2661 -0.1619
  620W        W 4684   9.190   3.386   6.987  0.1353 -0.4406  0.1413
  621W        W 4685   0.199   2.575   9.959 -0.1504  0.0408  0.1852
  622W        W 4686  10.205  10.513   7.309  0.0173 -0.3815  0.1905
  623W        W 4687   1.214   4.947   8.466  0.0177  0.1438 -0.1663
  624W        W 4688   8.525   7.082   0.047  0.1854  0.2034 -0.0623
  625W        W 4689   2.675   9.255   1.602  0.1227 -0.0275  0.1264
  626W        W 4690   8.773   6.706  10.643 -0.0197  0.1081  0.0535
  627W        W 4691   2.963   9.118  10.205 -0.1121 -0.0567  0.0698
  628W        W 4692  10.675   5.276   7.741 -0.1573 -0.3829  0.0161
  629W        W 4693   7.382  10.087  11.086 -0.2878  0.5325  0.1194
  630W        W 4694   4.593   4.734   0.707  0.1782  0.3875 -0.2009
  631W        W 4695  10.462   6.394  11.270 -0.0867 -0.3067  0.1457
  632W        W 4696   8.836   8.608  11.006 -0.1455  0.1635  0.0645
  633W        W 4697   0.015   5.522   0.673  0.0101 -0.0790 -0.1055
  634W        W 4698   4.331   5.736   3.151  0.0091 -0.1778 -0.1190
  635W        W 4699   7.278   4.943   1.471 -0.1835 -0.0252 -0.0146
  636W        W 4700   6.371   2.807   9.464  0.1562  0.2155  0.2327
  637W        W 4701  10.286  10.748   8.697  0.1593  0.1074 -0.1821
  638W        W 4702   4.267   8.792   9.912  0.2204 -0.0165  0.0342
  639W        W 4703   0.497   9.005   0.005  0.3399  0.1038  0.2502
  640W        W 4704   2.989   0.825   8.145  0.1280 -0.0087 -0.0042
  641W        W 4705   4.044   5.350  10.875 -0.1349 -0.0162  0.0340
  642W        W 4706   5.606   4.401  10.958  0.0170  0.3541  0.0770
  643W        W 4707   9.224  10.384   2.732  0.0422 -0.1395 -0.0581
  644W        W 4708   6.755   9.305  11.072 -0.3216 -0.5279 -0.2123
  645W        W 4709   2.179   0.165   0.793  0.1379  0.1111 -0.1489
  646W        W 4710   4.440   3.068   1.784  0.2785  0.0877  0.0662
  647W        W 4711   8.595   5.663   7.799  0.1215  0.0167 -0.1867
  648W        W 4712   9.147   6.535   8.017  0.0191  0.0215  0.1588
  649W        W 4713   2.870   0.749   1.038  0.2696 -0.0318 -0.2195
  650W        W 4714   5.086   4.067   0.953 -0.0332 -0.1225 -0.0907
  651W        W 4715   6.341   8.656   8.871  0.1558 -0.4514  0.0124
  652W        W 4716  10.696   3.958  10.080  0.0988  0.5834 -0.2623
  653W        W 4717   7.350   4.469   8.813 -0.1513 -0.0061  0.0710
  654W        W 4718   0.498   3.097   1.698  0.0611  0.2316  0.0437
  655W        W 4719   5.338   0.145   8.902  0.0219 -0.4809 -0.0206
  656W        W 4720   7.256   7.003   3.741 -0.0519 -0.3136  0.0623
  657W        W 4721   8.330   4.745   7.371 -0.1869 -0.4005  0.2920
  658W        W 4722   4.916   1.423  10.109  0.0214 -0.1368  0.1422
  659W        W 4723   8.692   9.162   2.801 -0.4533  0.2496 -0.0517
  660W        W 4724   7.709   5.237   8.939  0.1861  0.1867 -0.1600
  661W        W 4725   7.249   9.076   8.424 -0.0721 -0.1782 -0.0279
  662W        W 4726   8.544   5.000  11.160  0.2897  0.0896 -0.2586
  663W        W 4727   3.552   4.656   8.288  0.0609  0.2771  0.1832
  664W        W 4728   3.366   9.421   2.797 -0.2232 -0.3797 -0.0493
  665W        W 4729   9.649   1.392   9.180 -0.1484 -0.0957  0.1124
  666W        W 4730   1.395   5.370   9.680  0.5010 -0.1280 -0.0706
  667W        W 4731   9.813   7.658   1.053  0.3670 -0.0073 -0.0317
  668W        W 4732   9.119   4.270   0.837  0.0501  0.1123  0.2033
  669W        W 4733   9.900   0.377   0.024 -0.0319  0.1569 -0.2498
  670W        W 4734   2.196   3.488   9.403  0.0275  0.0986  0.2178
  671W        W 4735   5.801   9.527  11.272  0.1736 -0.0382 -0.1004
  672W        W 4736  10.233   8.286   3.031 -0.0366 -0.1169 -0.4325
  673W        W 4737   8.563   3.751  10.966 -0.0669 -0.0282 -0.2079
  674W        W 4738   8.079   9.143  11.273  0.0155  0.1128 -0.2167
  675W        W 4739   7.656   3.416   2.276  0.2270 -0.0235  0.2381
  676W        W 4740   1.943   5.772   0.003  0.0423 -0.0948 -0.3320
  677W        W 4741   1.969   7.283   0.057 -0.1140 -0.2077  0.0372
  678W        W 4742  10.445  10.685   0.628  0.0681 -0.0298  0.2110
  679W        W 4743   6.475   1.052   7.384 -0.2279 -0.0025 -0.1822
  680W        W 4744   6.540   8.840   9.979  0.1109 -0.0463 -0.1782
  681W        W 4745   2.396   0.377   1.571  0.2141  0.0172  0.3012
  682W        W 4746   4.469   3.817   8.612 -0.4547 -0.1180 -0.1663
  683W        W 4747   5.638   1.347   0.241 -0.2527 -0.1308 -0.0078
  684W        W 4748   3.138   8.070   2.572  0.0477  0.0980  0.1644
  685W        W 4749   5.340   8.830  11.090  0.0852  0.2038 -0.1309
  686W        W 4750  10.432   2.259   8.670  0.2001  0.1603  0.3033
  687W        W 4751   3.467   0.908   8.709  0.2287  0.2183  0.0096
  688W        W 4752   2.013   5.387  10.467 -0.0050 -0.1137 -0.1832
  689W        W 4753   6.788   2.243   9.702 -0.1839  0.1857 -0.0958
  690W        W 4754  10.145   3.124   9.865  0.1936 -0.0262 -0.1826
  691W        W 4755   5.179   7.865   1.976  0.0417  0.0669  0.1069
  692W        W 4756   0.028   7.064   8.125 -0.1300  0.0499  0.1513
  693W        W 4757   5.134   5.649   0.007 -0.0719 -0.1419  0.1282
  694W        W 4758   3.299  10.183  11.079  0.0912  0.1465 -0.0018
  695W        W 4759   6.307  10.213   9.110  0.3838  0.0773 -0.1411
  696W        W 4760   2.547   2.428   1.015  0.0514  0.0267 -0.2288
  697W        W 4761   0.351   2.113   7.885 -0.0597 -0.1091 -0.0022
  698W        W 4762   8.799   3.407  10.459  0.1856 -0.0339  0.2448
  699W        W 4763   2.437   8.980  10.139  0.0334  0.2204 -0.0078
  700W        W 4764   7.626   1.852   1.397 -0.1116  0.0587  0.0040
  701W        W 4765   0.567   9.134   2.941  0.0219  0.0541 -0.3302
  702W        W 4766   0.130   8.900   2.860 -0.0620 -0.1471 -0.3920
  703W        W 4767   5.270   3.508   3.105  0.1504  0.0532 -0.2142
  704W        W 4768   5.718   4.607  10.533  0.0888  0.2818  0.2082
  705W        W 4769   6.084   7.715   1.726 -0.0779 -0.0799 -0.1358
  706W        W 4770   0.184   8.723   2.360  0.1510  0.2200  0.1337
  707W        W 4771   9.347   6.613   2.241 -0.0263 -0.1186 -0.0584
  708W        W 4772   8.708   2.992   7.874  0.2511 -0.1234  0.4901
  709W        W 4773   7.246   3.338   0.258 -0.0925 -0.0338  0.0131
  710W        W 4774  10.755   4.793   0.901  0.2088 -0.0853 -0.1928
  711W        W 4775   3.599   1.988   8.756  0.1546  0.1126  0.0305
  712W        W 4776   0.045   4.552   9.999 -0.0072 -0.1012 -0.2784
  713W        W 4777   1.465   9.143   0.476  0.0967 -0.1091 -0.2432
  714W        W 4778   4.476   3.474   2.609 -0.2350 -0.0113 -0.0195
  715W        W 4779   4.615   7.470   8.025  0.2961 -0.0279 -0.2749
  716W        W 4780  10.091   2.705   1.637  0.0905  0.0306  0.0197
  717W        W 4781   6.881   7.660   1.232  0.0991  0.1545  0.3273
  718W        W 4782   4.713   4.120  10.554 -0.1901  0.1314 -0.0632
  719W        W 4783  10.027   2.303  10.260  0.0336  0.2053  0.1567
  720W        W 4784   9.896  10.266   6.994  0.2782 -0.1144 -0.0616
  721W        W 4785   4.718   0.636   9.716 -0.1633  0.1955 -0.0378
  722W        W 4786   5.273   1.109   1.276  0.2807  0.1766 -0.5090
  723W        W 4787   3.955   7.945  10.674  0.0298  0.2078 -0.0094
  724W        W 4788   8.673   5.155   2.765 -0.4012 -0.0598  0.1503
  725W        W 4789   9.437   8.770   1.721  0.0668 -0.0812  0.0308
  726W        W 4790   8.823   9.001   0.981  0.0690 -0.0147  0.0411
  727W        W 4791   4.604   3.602  10.634 -0.0224 -0.0216 -0.1182
  728W        W 4792   2.006   2.724   8.476 -0.0092  0.4955  0.1277
  729W        W 4793   0.055   1.168   0.061  0.1278  0.0935  0.0135
  730W        W 4794   0.945   0.609   0.906  0.0903 -0.1628  0.1698
  731W        W 4795   4.993   8.784   2.053 -0.0856 -0.0887 -0.1633
  732W        W 4796   5.039   4.539   0.967  0.0891 -0.1711 -0.2209
  733W        W 4797   7.878   6.040   9.976  0.3041 -0.0490 -0.0042
  734W        W 4798   1.608   7.200   9.805  0.0885  0.5043  0.0467
  735W        W 4799   5.459   8.633   3.024  0.2869  0.1156  0.2464
  736W        W 4800   1.875   0.430   8.261 -0.0081 -0.2155 -0.0730
  737W        W 4801   9.314   5.147   1.533 -0.4601  0.2995 -0.0269
  738W        W 4802   4.116   2.718   7.527 -0.1648 -0.1393 -0.1670
  739W        W 4803   6.525   7.964   1.549 -0.0208  0.1227 -0.2869
  740W        W 4804   6.455  10.061   2.143  0.1889 -0.1891 -0.0895
  741W        W 4805   7.524   1.187   7.995  0.1855  0.1450 -0.0820
  742W        W 4806   5.097   5.594   3.000 -0.2465  0.2540 -0.0420
  743W        W 4807   7.621   4.734   0.273  0.1222  0.2385  0.1694
  744W        W 4808   1.569   2.408   7.931  0.0181 -0.2934 -0.0604
  745W        W 4809   0.672   2.477   7.700  0.1197 -0.2738  0.2138
  746W        W 4810   3.959   8.533   1.901 -0.2815  0.2170 -0.1362
  747W        W 4811   4.163   7.671   1.707 -0.2286  0.1237 -0.1021
  748W        W 4812   9.216   6.547   0.506 -0.4154 -0.1337  0.1327
  749W        W 4813   9.351   1.278   0.043 -0.2426  0.1887  0.3049
  750W        W 4814   9.652   6.929   2.567  0.1021 -0.0089 -0.0109
  751W        W 4815   9.107   6.747   8.745 -0.2750 -0.0256  0.2999
  752W        W 4816   2.043   0.137   2.540 -0.3788 -0.4201 -0.0823
  753W        W 4817   1.426   2.776   0.696  0.5154  0.2016 -0.0655
  754W        W 4818   4.927   6.541   7.925 -0.0602  0.1072  0.0825
  755W        W 4819   0.703   2.566   9.765  0.1447 -0.1954  0.1282
  756W        W 4820  10.564   2.774   7.590  0.0886  0.1686  0.0372
  757W        W 4821   7.169   7.455   8.975 -0.1594 -0.1011  0.0212
  758W        W 4822   3.008   2.425   7.991  0.2258  0.0829 -0.3365
  759W        W 4823   0.922   0.018  11.231  0.1847  0.1270  0.2292
  760W        W 4824   0.505  10.469  11.284  0.1125 -0.0535 -0.1459
  761W        W 4825   6.997   5.427   9.255 -0.1306  0.2668 -0.0528
  762W        W 4826   2.245   1.100   0.312  0.0756 -0.1824  0.1382
  763W        W 4827   6.789   5.960   1.692 -0.0251  0.0477  0.0278
  764W        W 4828   0.730   0.800   2.777 -0.1167  0.2489 -0.0222
  765W        W 4829   8.522   6.350  10.148  0.2375  0.2179 -0.1746
  766W        W 4830   5.288   4.045   8.497 -0.1857  0.0733  0.0476
  767W        W 4831   8.003   2.559  10.920 -0.0331  0.1830 -0.2524
  768W        W 4832   1.626   6.179   2.193  0.0537  0.0009  0.2080
  769W        W 4833  10.313  10.315   7.783 -0.0942  0.0634  0.2410
  770W        W 4834   0.171   0.649  11.179  0.1057 -0.5140  0.1045
  771W        W 4835   2.292   4.905   9.739  0.0623  0.3162  0.1547
  772W        W 4836   5.528   0.469  10.647  0.3633  0.2106  0.0884
  773W        W 4837   2.848   8.303  10.738  0.1705 -0.1384  0.1628
  774W        W 4838   1.452   5.263   0.690  0.2276  0.1310 -0.0846
  775W        W 4839   6.270   3.350   9.388  0.1308  0.1936  0.1253
  776W        W 4840   4.976   3.183   1.807 -0.2306 -0.1958  0.0322
  777W        W 4841   2.850   1.998   2.292 -0.0872  0.0194  0.0975
  778W        W 4842   3.108   5.341   2.572  0.3724 -0.1195  0.0631
  779W        W 4843   3.986   8.095   0.388 -0.0925  0.0885 -0.1290
  780W        W 4844   1.662   1.045   0.949 -0.1584 -0.1407  0.3406
  781W        W 4845  10.276   0.688   2.923 -0.2897 -0.2965  0.0464
  782W        W 4846   7.035   4.841   2.549  0.1210 -0.2445  0.0250
  783W        W 4847   6.750   1.829   9.431  0.3284  0.1915  0.0628
  784W        W 4848   5.424   7.370   1.286 -0.2734  0.1464  0.0141
  785W        W 4849   3.421   4.802   0.380 -0.1756  0.0314  0.2322
  786W        W 4850   7.106   4.407   1.656  0.2953 -0.1747 -0.2216
  787W        W 4851   4.124   6.085   8.172  0.0302 -0.1651  0.2244
  788W        W 4852   3.238   5.968  10.171 -0.0832  0.1562 -0.1939
  789W        W 4853   5.925   9.267   9.449  0.0796  0.1335 -0.1980
  790W        W 4854   2.675   0.518   9.417 -0.1909  0.0084 -0.3005
  791W        W 4855   7.364   1.306   2.372  0.1924  0.3720  0.1177
  792W        W 4856  10.121   6.419   8.005  0.4569 -0.4448 -0.1787
  793W        W 4857  10.184  10.192   1.483 -0.1106  0.1423 -0.0800
  794W        W 4858   6.902  10.221   2.980  0.0585  0.0593 -0.0179
  795W        W 4859   8.889   4.665   1.944 -0.0341  0.1130 -0.3378
  796W        W 4860  10.506   1.337   8.341  0.0088 -0.2221 -0.1531
  797W        W 4861   9.362   6.717  10.544  0.1783  0.4045  0.2360
  798W        W 4862   2.826   0.756   9.848 -0.3471 -0.0456  0.1069
  799W        W 4863   8.691   5.758   1.958  0.2314 -0.3916  0.1690
  800W        W 4864   6.078   6.608   0.713 -0.2732 -0.0366 -0.0262
  801W        W 4865   9.175   8.978   2.653 -0.1663  0.1869  0.0166
  802W        W 4866   4.679   6.556   9.782 -0.0499  0.0581  0.2037
  803W        W 4867   1.307   0.443   2.982  0.1970  0.4700  0.4064
  804W        W 4868   5.029   7.134   2.055  0.1670  0.3318 -0.2226
  805W        W 4869  10.519  10.587   1.452 -0.0190 -0.2203  0.0244
  806W        W 4870   3.913   8.288   0.956  0.0639  0.0654 -0.0146
  807W        W 4871   6.248   7.641  10.669  0.0125  0.3444 -0.0605
  808W        W 4872   2.824   6.051   0.907 -0.0429  0.0649  0.0770
  809W        W 4873  10.570   5.989   8.396  0.2509  0.0945 -0.0377
  810W        W 4874   4.337   1.418   8.015  0.0958 -0.0448  0.1012
  811W        W 4875   6.684   0.512   2.449  0.3188 -0.1651  0.0847
  812W        W 4876   6.131   6.071   9.862 -0.1284  0.1730  0.1140
  813W        W 4877  10.466   7.565   0.381  0.1187 -0.0372  0.0050
  814W        W 4878   9.585   7.793   9.679  0.1170  0.3221 -0.0694
  815W        W 4879   9.141  10.360   1.685 -0.0217 -0.1419 -0.1397
  816W        W 4880   5.388   2.118   8.577 -0.2293 -0.4049 -0.0781
  817W        W 4881   1.069   3.869   9.915 -0.1092  0.1096  0.1093
  818W        W 4882   5.723   1.790   8.460 -0.0239  0.2028  0.1450
  819W        W 4883   0.484   1.330   8.201  0.0211 -0.0480  0.1497
  820W        W 4884   8.702   7.689  10.054  0.0837 -0.0098 -0.1726
  821W        W 4885   6.661   3.973   9.337  0.1582  0.0089  0.1695
  822W        W 4886   9.498   4.454  10.128 -0.1319  0.0230  0.1197
  823W        W 4887   0.117  10.063   3.522  0.0926  0.0722  0.0265
  824W        W 4888   3.802   3.707   9.045  0.1711 -0.0663 -0.2613
  825W        W 4889   1.778   5.551   0.465  0.0803 -0.3178  0.3583
  826W        W 4890   2.415   4.188  10.188  0.2728 -0.0274 -0.3497
  827W        W 4891   5.621   7.099  10.664 -0.1495 -0.0591 -0.0451
  828W        W 4892   9.279   0.674  10.029 -0.1295 -0.3332 -0.0974
  829W        W 4893   2.727   1.546   1.639 -0.0167 -0.0268  0.0757
  830W        W 4894   6.574   2.155   0.765  0.3475  0.1090 -0.4228
  831W        W 4895   6.199   5.774   9.466 -0.2511 -0.3109 -0.1318
  832W        W 4896   4.412   0.977   9.490  0.3268 -0.2114  0.1886
  833W        W 4897  10.392   1.505   9.256  0.1803 -0.0965 -0.2911
  834W        W 4898   8.362   6.521   2.543  0.0310 -0.1243 -0.0417
  835W        W 4899   4.144   6.371   9.859 -0.1592 -0.5130 -0.5241
  836W        W 4900   1.585   7.630  11.130  0.0818  0.0336  0.0244
  837W        W 4901  10.280   3.362   9.442 -0.0189 -0.1026  0.1260
  838W        W 4902   3.464   9.470   9.889  0.2527  0.0504 -0.2537
  839W        W 4903   3.158   8.543   2.095  0.0116  0.0560 -0.0324
  840W        W 4904   0.838   9.726   1.620  0.0029 -0.2545  0.2596
  841W        W 4905   4.376   8.189   9.057  0.0946  0.0641  0.3204
  842W        W 4906   5.216   0.519   7.550  0.2542  0.0155  0.2044
  843W        W 4907   9.057   9.682   0.561  0.0673  0.2355  0.0705
  844W        W 4908   2.095   4.510   8.286 -0.0727  0.1284 -0.0725
  845W        W 4909  10.523   8.748   1.559 -0.1171 -0.0655 -0.1271
  846W        W 4910  10.746   5.798   9.041 -0.1839  0.0536 -0.1251
  847W        W 4911   5.875   9.158   1.009 -0.0142  0.1692 -0.0767
  848W        W 4912   1.701   1.999  11.028 -0.0177  0.3142  0.2094
  849W        W 4913   6.810  10.199   1.560 -0.3470 -0.0815 -0.2140
  850W        W 4914   3.128   1.733   8.602 -0.1886  0.3216  0.1273
  851W        W 4915   1.592   4.786   8.177 -0.0588  0.2588  0.0338
  852W        W 4916   5.370   1.369   9.163  0.0838  0.0879  0.0127
  853W        W 4917   3.865   2.100  10.893  0.0110 -0.0124  0.2586
  854W        W 4918   4.412   3.093   8.937 -0.2555 -0.3094 -0.2307
  855W        W 4919   8.573   7.190   2.036  0.0713  0.0891 -0.0216
  856W        W 4920   4.071   8.363   7.677  0.0480  0.0959  0.2793
  857W        W 4921   1.286   3.257   0.523 -0.0888 -0.2604 -0.5137
  858W        W 4922   0.741   4.230   8.958  0.1181 -0.2188  0.1751
  859W        W 4923   3.948   1.507   1.698  0.0654 -0.4391 -0.1329
  860W        W 4924   6.436   3.535   2.282 -0.3164  0.3606  0.2095
  861W        W 4925   8.701   4.110   6.857 -0.0016 -0.0418  0.4065
  862W        W 4926  10.196   7.077   9.649  0.2843 -0.0401 -0.2469
  863W        W 4927   7.066   8.855   0.403  0.2868  0.2078  0.3692
  864W        W 4928   9.846   8.496   6.945  0.1757  0.1398 -0.0219
  865W        W 4929   6.180   7.168  10.604 -0.1748  0.0707 -0.1362
  866W        W 4930   8.873   0.874   8.860  0.0906 -0.2933  0.2931
  867W        W 4931   6.902   5.493   0.535  0.3964 -0.0198  0.2741
  868W        W 4932  10.267   8.007   0.388 -0.1003  0.1482 -0.1285
  869W        W 4933   0.881   2.148   8.061 -0.1088  0.1069  0.0020
  870W        W 4934   3.854   1.696  10.636  0.0685  0.3410 -0.1233
  871W        W 4935   3.411   1.141   9.125 -0.1324  0.0432  0.1117
  872W        W 4936   8.866   9.985  10.718  0.2068  0.0064 -0.1133
  873W        W 4937   8.202   4.835   2.101  0.0967 -0.2047  0.1018
  874W        W 4938   4.927  10.367   1.420 -0.0221 -0.1426 -0.2064
  875W        W 4939   5.456   5.111   8.828 -0.3251 -0.0456  0.1188
  876W        W 4940   1.233   7.398   2.026 -0.0062  0.1097  0.1495
  877W        W 4941   2.598   7.437   1.040 -0.1998 -0.3152  0.2218
  878W        W 4942   2.082   1.912   2.874  0.2294  0.0834 -0.0966
  879W        W 4943   4.741   6.392   2.658 -0.0466 -0.2881  0.0758
  880W        W 4944   3.128   3.510   9.061 -0.0696 -0.2025  0.1564
  881W        W 4945   9.326   9.445  10.936 -0.1241 -0.0228  0.0177
  882W        W 4946   8.173   2.341   0.096  0.2226  0.1617  0.0715
  883W        W 4947  10.449   1.619   2.586  0.2541  0.0399 -0.1259
  884W        W 4948   8.865   6.117   7.369  0.1034  0.2924 -0.1154
  885W        W 4949   9.228   4.184   9.132 -0.1583  0.1559  0.1726
  886W        W 4950   2.977   3.008   1.909 -0.1228  0.3180  0.2191
  887W        W 4951   0.220   6.040   2.879 -0.0479 -0.4945  0.1723
  888W        W 4952   3.341   1.602   0.372  0.1976 -0.1083 -0.0967
  889W        W 4953   9.581   0.931   7.525  0.2257  0.1074  0.3475
  890W        W 4954   2.190  10.297   7.413  0.0570  0.0717 -0.0117
  891W        W 4955   0.878   2.100   1.191 -0.1757  0.4495  0.1229
  892W        W 4956   0.732  10.120   9.325 -0.1243 -0.0665 -0.0270
  893W        W 4957   0.276   5.080   9.023  0.0728  0.1128  0.0581
  894W        W 4958   8.340   2.939   7.492 -0.1578  0.0317  0.0097
  895W        W 4959   1.514   6.943   3.060  0.1087  0.4102 -0.0474
  896W        W 4960   8.661   5.985   1.480 -0.0103 -0.1203  0.1930
  897W        W 4961   4.484   5.099   9.647 -0.2147  0.1414  0.0418
  898W        W 4962   5.864   0.842   8.195  0.0602 -0.1286  0.0658
  899W        W 4963   1.334   9.792   2.954 -0.2067  0.2307 -0.0204
  900W        W 4964   5.628   9.759   9.543 -0.1453 -0.1877  0.0468
  901W        W 4965   0.819   2.663   2.064 -0.3700 -0.0535  0.0983
  902W        W 4966   0.421   6.152   0.078  0.1210  0.2648  0.0076
  903W        W 4967   7.364   2.112   8.757  0.0054 -0.1203  0.2452
  904W        W 4968   6.978   7.689  11.236 -0.0186 -0.0535 -0.0939
  905W        W 4969   6.371  10.623   7.899 -0.1676  0.1932 -0.0605
  906W        W 4970   6.646  10.587   0.235 -0.1447  0.3063 -0.1966
  907W        W 4971   0.700   5.245  11.239 -0.1080 -0.0947  0.3663
  908W        W 4972   1.030   7.170  11.197  0.0185 -0.0499 -0.2063
  909W        W 4973   2.904   7.293   7.662 -0.0819 -0.3782  0.0887
  910W        W 4974   5.560   6.171   9.674  0.0472  0.1429  0.1476
  911W        W 4975   5.086   8.305  10.139  0.3362 -0.4265  0.2845
  912W        W 4976  10.620   7.045   9.360 -0.1612  0.1565  0.1012
  913W        W 4977   2.140   9.395   9.709  0.1003  0.0836  0.2393
  914W        W 4978   0.897   3.902   8.048 -0.2871 -0.2196  0.1203
  915W        W 4979   6.707   8.616   0.099 -0.1383  0.0502  0.1214
  916W        W 4980   5.748   2.947  11.266 -0.1715  0.1231 -0.1008
  917W        W 4981   5.768   2.033  11.070  0.2105 -0.3162  0.2713
  918W        W 4982  10.051   8.522  10.285 -0.0821  0.2890 -0.0626
  919W        W 4983   6.356   7.791   8.404 -0.4727  0.0123 -0.1231
  920W        W 4984   4.066  10.531   0.938  0.1750  0.2622  0.4902
  921W        W 4985   9.847   5.358   7.423  0.1108  0.0072 -0.1154
  922W        W 4986   6.866   9.311   0.614  0.1562 -0.1350  0.2390
  923W        W 4987   6.815   4.465   9.579  0.1898  0.0681  0.2059
  924W        W 4988   5.440   6.802  11.140  0.0185 -0.0843 -0.1516
  925W        W 4989   1.157   9.416   8.185  0.3345  0.0512  0.1027
  926W        W 4990   7.049   1.712   8.574 -0.1674  0.3498 -0.1451
  927W        W 4991   3.080   4.447   0.490  0.2057 -0.1546  0.0848
  928W        W 4992  10.233   7.159   0.856 -0.0224  0.0989 -0.1639
  929W        W 4993   1.234  10.221  10.591 -0.1703  0.1139  0.0601
  930W        W 4994   1.615   7.828   2.053 -0.0084  0.0608  0.1180
  931W        W 4995   7.084   2.952   7.398  0.0201  0.1663  0.0653
  932W        W 4996   9.504  10.126   9.781 -0.1384  0.2933  0.3135
  933W        W 4997   1.387   6.066   1.725 -0.2090 -0.3057  0.1643
  934W        W 4998   3.884   0.730   0.226 -0.1879  0.0566 -0.0100
  935W        W 4999   1.377   7.627   3.827  0.0393 -0.1787  0.3622
  936W        W 5000   1.636   8.062   8.646  0.1321  0.1334 -0.0871
  937W        W 5001   2.619   9.715   0.772  0.0597 -0.1520 -0.0767
  938W        W 5002   6.177   1.954   8.240 -0.0033 -0.0202 -0.3322
  939W        W 5003   1.229   1.055   1.135 -0.1659 -0.1141  0.0999
  940W        W 5004   4.256   4.527   9.184  0.0836 -0.0608 -0.6924
  941W        W 5005   0.403   1.284   1.151 -0.0372 -0.0476  0.2059
  942W        W 5006   0.594  10.642   2.899  0.0492  0.0287  0.0440
  943W        W 5007   3.137   1.083   2.904  0.1290  0.0445 -0.2066
  944W        W 5008   6.083   5.666   2.592  0.1385  0.1256 -0.3764
  945W        W 5009   0.150   3.749  11.121 -0.1388  0.0166 -0.0708
  946W        W 5010   3.912   9.915   1.698 -0.1180 -0.1419  0.1862
  947W        W 5011   1.484   7.875   9.076  0.3206 -0.1221 -0.2485
  948W        W 5012   4.571   1.676   8.886 -0.1487  0.1432 -0.0416
  949W        W 5013   7.524   0.477   1.870  0.0547 -0.2634  0.1131
  950W        W 5014   0.799  10.165  10.387  0.1957  0.1547  0.0566
  951W        W 5015   7.713   6.042   1.474  0.2332 -0.2292 -0.1662
  952W        W 5016   0.709   6.953   1.430 -0.3395 -0.1468  0.0777
  953W        W 5017   5.699   2.645  10.170 -0.0447 -0.0145  0.2901
  954W        W 5018   5.603   3.962   2.628 -0.1649 -0.0908 -0.1304
  955W        W 5019   8.204  10.208   1.847 -0.1484 -0.0582  0.4365
  956W        W 5020   3.767   7.167   1.874 -0.2638 -0.0803  0.0675
  957W        W 5021   0.052   7.979   2.160 -0.0636 -0.2778  0.2953
  958W        W 5022   2.264  10.054   3.623 -0.0155 -0.1061 -0.0280
  959W        W 5023   3.909   1.158   8.914  0.0529 -0.2399  0.0748
  960W        W 5024   3.481   1.961  10.133 -0.1935  0.1040  0.3764
  961W        W 5025   9.291   0.112   0.094 -0.1480 -0.1089  0.1187
  962W        W 5026   5.986  10.683   7.645 -0.3495  0.1814  0.0476
  963W        W 5027   8.568   1.878   0.049 -0.0380  0.1495  0.0465
  964W        W 5028   5.585   7.442   9.977  0.1390 -0.0963 -0.0163
  965W        W 5029   7.421   8.016   8.207  0.0072  0.3314 -0.1133
  966W        W 5030   5.835   6.983  10.183  0.0693  0.1166  0.4022
  967W        W 5031   5.826   0.098   8.903  0.2507 -0.2080 -0.0654
  968W        W 5032   1.330   1.877   7.949  0.2217 -0.4294  0.0670
  969W        W 5033   3.746   5.127  10.032  0.0623 -0.0609 -0.0355
  970W        W 5034   2.628   3.410   8.615 -0.3268  0.0018 -0.1208
  971W        W 5035   3.737   0.569   9.722 -0.1998 -0.1238 -0.2524
  972W        W 5036   4.344   4.831   1.664  0.0378  0.2226  0.3537
  973W        W 5037  10.678   8.924   0.598  0.0113  0.0499 -0.0961
  974W        W 5038  10.439   2.319   9.963  0.1510 -0.5288  0.1569
  975W        W 5039   0.267   5.909   8.519  0.0824 -0.1816  0.0731
  976W        W 5040   4.520   4.931  11.144  0.1007  0.4415 -0.1423
  977W        W 5041   0.725   8.417  10.841 -0.0870  0.1026 -0.0783
  978W        W 5042   3.817   7.261   9.136  0.0579 -0.2520 -0.1522
  979W        W 5043  10.574   3.738   9.172  0.1838 -0.3049  0.0599
  980W        W 5044   6.516   8.613   7.894 -0.0602 -0.0340 -0.2138
  981W        W 5045   4.995   7.464   9.207  0.1398 -0.1140 -0.0294
  982W        W 5046   3.834   8.686  10.221 -0.2121  0.0194  0.0497
  983W        W 5047   3.628   8.416   2.297 -0.2193  0.1407  0.0263
  984W        W 5048  10.079   0.895   9.992 -0.3055  0.0224 -0.0473
  985W        W 5049   0.090   9.569  10.112  0.2038  0.1787 -0.0438
  986W        W 5050   3.689   9.174   0.267  0.1078 -0.2049  0.4105
  987W        W 5051   4.802   3.057  10.128 -0.1510  0.3321 -0.2475
  988W        W 5052   3.345   5.101   9.551 -0.2570  0.0413  0.0277
  989W        W 5053   0.894   1.501   1.231 -0.3861  0.0430  0.0164
  990W        W 5054   5.872   4.089   8.372  0.1380 -0.0187 -0.0867
  991W        W 5055   9.596   6.827  10.022 -0.2640 -0.3511 -0.1439
  992W        W 5056   8.303   9.431   2.165  0.0077  0.0901  0.1868
  993W        W 5057   8.461   3.679   0.913  0.0694  0.0474 -0.0614
  994W        W 5058   1.822   9.210   8.320 -0.1611 -0.0662  0.1313
  995W        W 5059   4.110   7.652   2.349 -0.4208  0.0116 -0.4730
  996W        W 5060   0.440   4.091   8.198  0.1266 -0.0742  0.0586
  997W        W 5061  10.316   9.716   2.008 -0.0422  0.1320 -0.0774
  998W        W 5062   8.485   9.174   1.405  0.1655 -0.3552  0.1146
  999W        W 5063   6.238   2.543   7.670 -0.1104  0.2096 -0.1025
 1000W        W 5064   4.282   6.702   2.603 -0.2872  0.0612 -0.1035
 1001W        W 5065   7.052   3.885   9.642 -0.0657 -0.1473 -0.1167
 1002W        W 5066   5.835   6.480   1.784  0.1762 -0.0402  0.1476
 1003W        W 5067   5.367   6.474   1.564 -0.5034  0.1288  0.2722
 1004W        W 5068   2.664   6.316   2.196  0.7040 -0.3226 -0.0491
 1005W        W 5069   7.612   8.999   0.196  0.1136  0.1153  0.1944
 1006W        W 5070   4.813   4.691  10.837 -0.1735  0.1514  0.0901
 1007W        W 5071   2.798   4.207   0.003  0.0384  0.0757 -0.1671
 1008W        W 5072   4.177   5.745   1.902 -0.2048  0.1163 -0.2555
 1009W        W 5073   5.494   9.095   8.846  0.2454  0.0513 -0.2257
 1010W        W 5074   0.873   5.676   9.082  0.1523 -0.1250 -0.0777
 1011W        W 5075   0.806   3.597   0.805 -0.1741 -0.1879 -0.0381
 1012W        W 5076   7.044   1.399   7.965 -0.0925  0.2019 -0.2370
 1013W        W 5077   0.466   7.344  10.774  0.2329 -0.1252  0.0369
 1014W        W 5078   2.193   3.368   1.238  0.2051 -0.0192 -0.1379
 1015W        W 5079   2.893   6.429   3.192 -0.1452  0.2835  0.2609
 1016W        W 5080   8.273   1.639   0.622  0.1441 -0.1907  0.0956
 1017W        W 5081   3.589   1.332   1.480  0.3522 -0.0704  0.0083
 1018W        W 5082   2.669   4.448   7.391 -0.0743  0.0113 -0.2567
 1019W        W 5083   1.767   5.710  10.814 -0.1042  0.3318 -0.0587
 1020W        W 5084   8.449   6.055   6.991  0.1536  0.0269  0.3162
 1021W        W 5085   5.649   0.712   7.358  0.3412  0.0118  0.0000
 1022W        W 5086   9.633   8.426   9.541  0.0002  0.0833 -0.0965
 1023W        W 5087   8.847   6.734  10.076 -0.2523 -0.3074 -0.3279
 1024W        W 5088   6.400   2.960   7.977  0.0080  0.0797  0.3118
 1025W        W 5089  10.178   0.529   9.586  0.0006  0.0456  0.0887
 1026W        W 5090   7.025   9.672   7.129 -0.1706  0.2237 -0.1119
 1027W        W 5091   9.516   3.515   1.267  0.2935  0.1621  0.2048
 1028W        W 5092   2.810   9.733   8.571  0.1065  0.2761  0.2541
 1029W        W 5093   9.739   2.057   2.098 -0.0940  0.3726  0.1548
 1030W        W 5094   7.524   9.208   1.546  0.5608 -0.3437 -0.0900
 1031W        W 5095   1.746   1.195   8.153  0.1401  0.5016  0.0047
 1032W        W 5096   5.572   1.337  11.075  0.0124 -0.4232  0.0047
 1033W        W 5097   5.130   4.205   2.513  0.0764  0.0073 -0.1101
 1034W        W 5098   0.239   6.226   9.642  0.0656  0.4679 -0.1792
 1035W        W 5099   3.138   7.198   2.384 -0.1076  0.0582  0.1876
 1036W        W 5100   8.795   5.229   7.984  0.0082  0.1573 -0.2307
 1037W        W 5101   2.062   4.117   8.581  0.0925  0.0598  0.0317
 1038W        W 5102   0.718   3.864   2.572 -0.2123  0.1974  0.0668
 1039W        W 5103   1.592   9.250   1.652 -0.0662  0.1726 -0.1780
 1040W        W 5104   2.028   1.943  10.633 -0.2637  0.3200  0.2199
 1041W        W 5105   4.523   6.095   1.955 -0.0350 -0.0435 -0.1988
 1042W        W 5106   7.594   8.050   9.942  0.0668 -0.3726  0.3642
 1043W        W 5107   4.563   5.940   8.287  0.0197  0.1104 -0.2215
 1044W        W 5108   2.993   8.638   1.207 -0.0240  0.1320  0.0863
 1045W        W 5109   3.972   2.909   8.913  0.1289  0.0495  0.1615
 1046W        W 5110   7.360   6.149   0.080  0.0686  0.1008  0.0994
 1047W        W 5111   3.100   2.991   0.839 -0.1276 -0.0878 -0.2790
 1048W        W 5112   8.572   9.877   0.851 -0.0054  0.4481 -0.0842
 1049W        W 5113   9.496   1.436   0.709 -0.0056 -0.0562 -0.3375
 1050W        W 5114  10.015   7.585   9.889 -0.0288 -0.2792 -0.4105
 1051W        W 5115   0.871  10.268  10.976  0.1388  0.3244 -0.2572
 1052W        W 5116   3.675   2.848   9.381 -0.0312  0.3293 -0.0761
 1053W        W 5117  10.571   1.233  10.188 -0.0436 -0.2337  0.1054
 1054W        W 5118   9.428  10.244   8.644 -0.1474  0.1844 -0.3486
 1055W        W 5119   8.299   0.459   8.953  0.1696 -0.1413  0.0403
 1056W        W 5120   1.992   2.016   7.731 -0.0107  0.0924 -0.3439
 1057W        W 5121   8.182   2.467   1.890  0.1586 -0.0870  0.0779
 1058W        W 5122   9.668   0.824   9.258  0.1930 -0.1037 -0.1105
 1059W        W 5123   5.194   1.825  10.364  0.0084 -0.2611 -0.0445
 1060W        W 5124   6.353   6.699   3.212 -0.1337 -0.0226 -0.0378
 1061W        W 5125   6.717   3.804   0.934 -0.0224  0.3012 -0.0571
 1062W        W 5126   6.121   7.880   2.201 -0.3544 -0.0991 -0.2121
 1063W        W 5127   2.392   8.987   1.895 -0.0216  0.1502 -0.0871
 1064W        W 5128   2.535   4.653   0.494 -0.2158  0.0758  0.1527
 1065W        W 5129   2.994   6.261   0.083 -0.0001  0.0533 -0.3130
 1066W        W 5130   2.859   7.857   9.180  0.0160 -0.0335  0.4094
 1067W        W 5131  10.302  10.293   8.920  0.0164 -0.0263 -0.1462
 1068W        W 5132   8.580   8.598   1.085  0.1112 -0.1378  0.0756
 1069W        W 5133   5.710   1.601   3.499 -0.4680 -0.1185 -0.4246
 1070W        W 5134   1.968   9.967   2.818 -0.0766 -0.0794  0.0588
 1071W        W 5135   3.573   8.824   9.190 -0.3286  0.0385 -0.1312
 1072W        W 5136  10.260   5.024   7.977  0.1860 -0.0952  0.2430
 1073W        W 5137   2.245   2.762   9.772 -0.1043 -0.0777  0.0118
 1074W        W 5138   3.374   3.411  11.271 -0.1301 -0.1545 -0.2511
 1075W        W 5139   3.626   7.855  10.212 -0.0916  0.0842  0.2669
 1076W        W 5140   7.186   9.809   1.632 -0.0729 -0.1523 -0.0025
 1077W        W 5141   0.855   8.750   9.628 -0.1294 -0.3137  0.4303
 1078W        W 5142   1.085   5.799   2.219  0.1017 -0.0532  0.2367
 1079W        W 5143   8.948   6.298  10.343 -0.1224  0.0312 -0.1162
 1080W        W 5144   7.423   1.615   7.700 -0.2749  0.1598 -0.2620
 1081W        W 5145  10.288  10.399   1.047 -0.0924  0.1299  0.0308
 1082W        W 5146   3.602   8.659   3.901 -0.0892  0.3325  0.0171
 1083W        W 5147   9.400   2.160  11.221  0.1372  0.2081  0.3139
 1084W        W 5148   1.259   9.226   9.202  0.1063  0.1587 -0.1809
 1085W        W 5149   9.773   3.469   2.072  0.0298  0.0354  0.4964
 1086W        W 5150   1.064   3.380   2.512  0.3383 -0.0308 -0.1367
 1087W        W 5151   5.590   5.449   0.055  0.0386  0.1661 -0.0656
 1088W        W 5152   2.672   0.643  10.743 -0.1487 -0.1550 -0.0897
 1089W        W 5153   7.570   5.829  11.057  0.0144  0.4323 -0.0128
 1090W        W 5154   2.360   3.360   0.199 -0.1158  0.0494 -0.1457
 1091W        W 5155  10.537   8.167   7.558  0.0696  0.1613 -0.0716
 1092W        W 5156   8.072   2.994   9.505  0.2603 -0.2053 -0.0855
 1093W        W 5157   6.993   5.551  10.258 -0.0345  0.1352 -0.5774
 1094W        W 5158   0.184   9.545   7.280 -0.0110  0.0600  0.0688
 1095W        W 5159   9.102   6.340   1.579 -0.0894 -0.0337  0.1269
 1096W        W 5160   3.458   0.377   2.710  0.1063  0.0905  0.1472
 1097W        W 5161   7.686   5.755   8.705  0.0397 -0.1781  0.0166
 1098W        W 5162   4.020   7.458   0.037  0.0853 -0.2243  0.1277
 1099W        W 5163   1.202   5.982   1.148  0.0268  0.0724 -0.0799
 1100W        W 5164   8.729   9.197  11.139  0.0600  0.1524 -0.0137
 1101W        W 5165  10.292   5.629   0.788 -0.2953 -0.2031  0.1338
 1102W        W 5166   8.519   4.485   9.589  0.0157 -0.2699  0.1701
 1103W        W 5167   3.384   0.339   8.403 -0.4093  0.2579 -0.3504
 1104W        W 5168   0.596  10.294   2.516 -0.0192 -0.0555 -0.1214
 1105W        W 5169   8.096   9.526   7.841 -0.0065  0.2438 -0.0751
 1106W        W 5170   9.357   1.469   7.932 -0.2630 -0.0900 -0.0537
 1107W        W 5171   5.510   8.883   9.795  0.0977 -0.0417  0.2352
 1108W        W 5172   7.885   0.083   2.730  0.2062  0.0852  0.0143
 1109W        W 5173   6.014   8.698   3.058  0.0898  0.1813 -0.7946
 1110W        W 5174   8.571   2.979   9.294  0.0624  0.1043 -0.0216
 1111W        W 5175   0.602   7.592  10.346 -0.1534  0.2895  0.1579
 1112W        W 5176   0.511   6.428   1.420 -0.2235  0.2576  0.0877
 1113W        W 5177   3.455   5.789   7.189 -0.0706  0.0042 -0.1071
 1114W        W 5178   8.327   1.686   7.318 -0.1376 -0.1131  0.3188
 1115W        W 5179   8.179   2.199  10.513  0.3386  0.1281  0.2202
 1116W        W 5180   7.938   7.977   2.146 -0.0930 -0.0487 -0.2813
 1117W        W 5181  10.687   0.727   9.321  0.1066 -0.2675 -0.1524
 1118W        W 5182   6.583   4.559   0.848  0.0389 -0.4315  0.3144
 1119W        W 5183   6.123   3.933   0.163 -0.3205  0.2033  0.2308
 1120W        W 5184   5.716  10.251   0.396 -0.2333  0.1416  0.0352
 1121W        W 5185   6.586   5.349   0.939  0.4212  0.0632 -0.0641
 1122W        W 5186   8.785   8.869   7.482  0.0553 -0.0770  0.1336
 1123W        W 5187   5.127   4.231  10.937  0.1726 -0.1538  0.0721
 1124W        W 5188   0.236   4.962  10.028 -0.6206 -0.4439 -0.2246
 1125W        W 5189   1.826   9.321  10.979  0.1108 -0.0665 -0.1542
 1126W        W 5190   7.994   2.452   0.909  0.1322 -0.2760 -0.0601
 1127W        W 5191   8.063   6.861   6.638 -0.0986 -0.0549 -0.1373
 1128W        W 5192  10.009   7.850  10.901  0.0729  0.0090  0.3072
 1129W        W 5193  10.611   1.093   9.670 -0.0945  0.1996 -0.2908
 1130W        W 5194   2.563   3.191   9.833  0.2046  0.3035  0.0266
 1131W        W 5195   8.928   0.276  10.233 -0.1716 -0.0878 -0.1214
 1132W        W 5196   0.468   3.413   2.676  0.3202 -0.3604  0.0845
 1133W        W 5197   9.014   3.705   2.536 -0.1760  0.0456 -0.1308
 1134W        W 5198   6.957   8.198   1.182 -0.0747 -0.0200  0.3918
 1135W        W 5199   8.095   6.469   1.656 -0.4371  0.1813  0.0748
 1136W        W 5200  10.483   7.246   8.563  0.1448  0.0404  0.1238
 1137W        W 5201   2.020   8.121   3.347 -0.3255 -0.1280  0.1690
 1138W        W 5202   5.035   6.721   2.367  0.2054  0.1932 -0.0333
 1139W        W 5203   0.489   3.894   2.996  0.0175 -0.0843 -0.1865
 1140W        W 5204   1.378  10.711   9.299  0.1389 -0.0035 -0.1231
 1141W        W 5205   6.960   9.527   8.569  0.1754 -0.0483  0.0165
 1142W        W 5206   0.687   8.533   8.736 -0.0418  0.0004  0.1651
 1143W        W 5207   4.856   0.670   7.878  0.1756 -0.0858 -0.0528
 1144W        W 5208   0.167   5.742  10.617 -0.2115 -0.1933  0.0458
 1145W        W 5209   1.391   9.325  10.198 -0.0864  0.0768 -0.0166
 1146W        W 5210   3.563   4.142   9.732  0.0830 -0.0749  0.1279
 1147W        W 5211   1.142   7.885   8.423  0.0353 -0.4723  0.0558
 1148W        W 5212   9.052   9.802   1.031  0.3762  0.0912 -0.2700
 1149W        W 5213   6.216   7.454   8.759  0.1884 -0.0326 -0.0067
 1150W        W 5214   5.730   0.930  10.753 -0.0654  0.1542  0.1953
 1151W        W 5215   3.687   4.799   7.772  0.3286 -0.0267  0.3302
 1152W        W 5216   5.682   6.884   0.210  0.1746  0.0547 -0.1347
 1153W        W 5217   7.919   9.430   0.274  0.1072 -0.1418 -0.3945
 1154W        W 5218   0.675   2.995   7.868  0.1085 -0.0769 -0.2088
 1155W        W 5219   9.364   6.064   0.559 -0.2882  0.1837 -0.1707
 1156W        W 5220  10.432   3.300   2.220  0.0688  0.0712  0.1185
 1157W        W 5221   7.026   6.451   8.591  0.0686 -0.4098 -0.1800
 1158W        W 5222   7.327   9.761   0.255  0.0625  0.1638  0.1234
 1159W        W 5223  10.614   9.206   1.492  0.4437  0.0688 -0.1898
 1160W        W 5224   1.041  10.414   8.800 -0.0266  0.3496  0.0481
 1161W        W 5225  10.752   3.770   9.645  0.0492 -0.1332  0.0541
 1162W        W 5226   1.558   9.837   2.505  0.3339 -0.4763  0.0358
 1163W        W 5227   7.636   4.955   3.622  0.3037  0.0127  0.1194
 1164W        W 5228   1.836   3.350   0.274  0.4002  0.0247  0.1400
 1165W        W 5229   2.218  10.403   2.663  0.4497  0.2173 -0.2643
 1166W        W 5230   7.313   7.641   0.798  0.0579 -0.2718  0.2706
 1167W        W 5231   5.108   7.147   8.752  0.0787 -0.2003 -0.0065
 1168W        W 5232   5.604   6.323  11.137  0.0865 -0.2235 -0.1831
 1169W        W 5233   2.005   8.669   9.266  0.1452  0.0506 -0.0195
 1170W        W 5234   4.715   9.794   9.893 -0.1646  0.2863  0.0782
 1171W        W 5235   0.625   5.775   2.658 -0.0009  0.0752 -0.2201
 1172W        W 5236   8.199   2.599   2.394 -0.4875  0.1627  0.0626
 1173W        W 5237   3.184   2.099   9.041  0.1520 -0.2838 -0.1093
 1174W        W 5238   7.638   8.312   8.556 -0.3154 -0.3415 -0.3400
 1175W        W 5239   3.106   0.849   1.984 -0.2250 -0.0017  0.1878
 1176W        W 5240  10.703  10.393   2.689  0.1227 -0.2843 -0.2989
 1177W        W 5241   9.630   3.130  11.114  0.0798 -0.1149  0.3303
 1178W        W 5242   1.252   4.928   9.452  0.0765  0.1403  0.0688
 1179W        W 5243   6.080   3.786  10.566 -0.1180 -0.2541  0.2593
 1180W        W 5244   9.012   4.644   8.994 -0.4755 -0.0342 -0.0146
 1181W        W 5245   3.276   2.234   1.955  0.0492 -0.0842  0.2189
 1182W        W 5246   1.461   7.986   7.439 -0.0922  0.1057  0.2392
 1183W        W 5247   5.136   4.994   9.153  0.0526 -0.1366 -0.2799
 1184W        W 5248   6.318   9.456   0.613  0.2909 -0.1192  0.0731
 1185W        W 5249   4.003   8.396  10.956  0.0610 -0.0253 -0.1062
 1186W        W 5250   1.209  10.392   7.518 -0.1129  0.4595 -0.0605
 1187W        W 5251   9.730  10.222  11.065  0.3620 -0.1417  0.0962
 1188W        W 5252  10.160   1.749   1.998 -0.1302 -0.3043 -0.2399
 1189W        W 5253   8.280   1.258   8.206  0.1612  0.1697  0.0274
 1190W        W 5254  10.607   9.155   7.596  0.0845  0.1779 -0.0257
 1191W        W 5255   7.704  10.217   8.714 -0.1937 -0.1319 -0.0490
 1192W        W 5256   8.238   4.734   1.087 -0.0425  0.1213 -0.3481
 1193W        W 5257   6.182   7.089   9.744 -0.0229 -0.1104 -0.2391
 1194W        W 5258   3.377  10.749   2.965 -0.0644  0.0934  0.2047
 1195W        W 5259   2.744   4.962   2.419  0.1014 -0.0180 -0.2606
 1196W        W 5260   5.923   2.027   7.756 -0.0571  0.0086 -0.2499
 1197W        W 5261   8.306   3.770   8.149  0.0645  0.0678 -0.0388
 1198W        W 5262   4.750   7.095  11.042  0.2535 -0.1811  0.0086
 1199W        W 5263  10.092   1.922   2.922  0.1122 -0.1567 -0.0392
 1200W        W 5264   0.836   3.479   1.662 -0.0498  0.3104 -0.1643
 1201W        W 5265   5.412   1.792  10.875 -0.0103  0.1453  0.0821
 1202W        W 5266   4.914   7.399   1.216 -0.1530 -0.2761  0.0438
 1203W        W 5267   4.924  10.451   2.437  0.1045  0.2018  0.0509
 1204W        W 5268   8.356   5.432  11.107  0.0356 -0.1526  0.3236
 1205W        W 5269   7.037   4.647   1.135 -0.3274 -0.0507 -0.0993
 1206W        W 5270   5.464   8.337   8.484  0.1285  0.1467  0.0173
 1207W        W 5271   2.748  10.191   0.405  0.0307 -0.0245  0.2479
 1208W        W 5272   1.281   1.424   0.803  0.1122  0.1963  0.0204
 1209W        W 5273   7.762   8.831   7.771 -0.0730  0.1155 -0.2056
 1210W        W 5274   0.462   3.156   9.803  0.0805  0.1970  0.2019
 1211W        W 5275   8.916   6.107   3.701 -0.0927 -0.1130 -0.0615
 1212W        W 5276   4.324   6.744   3.069 -0.0024 -0.1018  0.1625
 1213W        W 5277   9.844   8.299   0.458  0.5405 -0.1372 -0.2383
 1214W        W 5278   7.614   0.120   7.805 -0.2202  0.0001  0.2343
 1215W        W 5279   9.992   1.409  11.312 -0.0752  0.0315 -0.0393
 1216W        W 5280   0.805   7.208   0.968 -0.2258  0.0279 -0.0926
 1217W        W 5281   7.977   0.300   1.727  0.0472 -0.0296 -0.1470
 1218W        W 5282   6.611   2.502   8.471 -0.0796 -0.1654  0.1135
 1219W        W 5283   3.290   8.559   8.675  0.1729  0.0785 -0.1491
 1220W        W 5284   5.127   9.156   9.961  0.1686 -0.0316 -0.2891
 1221W        W 5285  10.365   9.459   0.409 -0.0500  0.1562  0.0729
 1222W        W 5286   1.945   5.866  10.370  0.1080  0.0855 -0.3202
 1223W        W 5287   5.998   2.309  10.693  0.0157 -0.2777  0.1446
 1224W        W 5288   0.424   1.778   1.342 -0.2329  0.3244 -0.2574
 1225W        W 5289   2.584   0.298  11.304 -0.2791  0.0601 -0.1922
 1226W        W 5290   8.353   2.547   1.245  0.2103  0.1718 -0.0976
 1227W        W 5291   4.350   8.812  11.148  0.2232  0.0892  0.2715
 1228W        W 5292   7.253   6.569   2.365  0.0763 -0.4340 -0.3694
 1229W        W 5293   2.189   0.414   2.142 -0.2419  0.2037 -0.1185
 1230W        W 5294   4.280   4.288   2.355 -0.0144 -0.1600  0.2082
 1231W        W 5295  10.076   1.284  10.317 -0.0936  0.0461 -0.0626
 1232W        W 5296   5.381  10.269   9.491 -0.1105  0.3868  0.2388
 1233W        W 5297   8.788   6.739   2.235 -0.0040  0.0474  0.2471
 1234W        W 5298   9.417   2.880   2.163 -0.1893 -0.0710 -0.0534
 1235W        W 5299   6.722  10.541   9.156  0.0352 -0.1368 -0.1131
 1236W        W 5300   0.940   8.872   0.270 -0.1617 -0.1396 -0.1370
 1237W        W 5301   0.475   4.885  10.996  0.3827  0.1269  0.1791
 1238W        W 5302   3.603   7.144   0.962  0.1545  0.0120 -0.0507
 1239W        W 5303   5.702   5.179   8.060  0.0481  0.0637 -0.0794
 1240W        W 5304   3.773   7.957   9.194 -0.2870 -0.2712 -0.0476
 1241W        W 5305   2.021  10.295   7.911  0.0864 -0.3451 -0.1558
 1242W        W 5306   7.366   3.469   3.034  0.3440 -0.1458  0.1897
 1243W        W 5307   6.834   5.760   8.565 -0.1972  0.0813 -0.0697
 1244W        W 5308   1.304   5.939  10.419  0.1520  0.1380 -0.0936
 1245W        W 5309   3.317   1.387  11.178 -0.2276 -0.5500  0.1193
 1246W        W 5310   9.122   8.178   9.542 -0.0299 -0.1435 -0.1741
 1247W        W 5311   2.956   9.718   7.246 -0.2188 -0.0005 -0.1182
 1248W        W 5312   9.552   6.065   1.172  0.0817 -0.1461 -0.1459
 1249W        W 5313   0.376   0.411   1.269  0.0447 -0.0473  0.1446
 1250W        W 5314   6.091   2.648   7.204  0.5528 -0.0025 -0.0290
 1251W        W 5315   0.537   4.790   0.999 -0.1232 -0.0736  0.2066
 1252W        W 5316   8.315   6.132   1.172 -0.2160 -0.0757  0.0902
 1253W        W 5317   0.260  10.667   7.702  0.1097 -0.2929  0.2016
 1254W        W 5318   2.069   4.016   9.903 -0.0497  0.0201  0.1484
 1255W        W 5319   2.222   5.181   8.975  0.0242 -0.3571  0.3631
 1256W        W 5320   1.567   1.400   9.990 -0.2183  0.0718  0.1160
 1257W        W 5321   7.119   5.878   3.563  0.1408 -0.0187 -0.3534
 1258W        W 5322   6.472  10.605  11.017 -0.0527  0.0360  0.0962
 1259W        W 5323   9.970   6.957   7.827 -0.0198 -0.3107 -0.0995
 1260W        W 5324   9.632   0.721   1.706  0.1289 -0.1647 -0.0889
 1261W        W 5325   3.288   4.077   1.990 -0.0077  0.2225  0.2862
 1262W        W 5326   5.069   9.441   9.089 -0.2077 -0.2600 -0.5428
 1263W        W 5327   8.261   1.016  10.437 -0.1766  0.0763 -0.1229
 1264W        W 5328   6.196  10.057   2.629  0.0604 -0.0997  0.0757
 1265W        W 5329   5.974   7.054   3.047 -0.0109 -0.0944 -0.1233
 1266W        W 5330   3.538  10.432   1.043 -0.0260  0.3137 -0.1206
 1267W        W 5331  10.685   5.032   0.507 -0.1378  0.2719  0.0653
 1268W        W 5332   3.604   9.737   9.473 -0.0159  0.3086  0.0934
 1269W        W 5333   7.532   0.648   8.782  0.0531 -0.0232  0.2247
 1270W        W 5334   3.855   9.281  10.785 -0.0308  0.0363  0.2303
 1271W        W 5335   0.633   6.274   8.555  0.3103 -0.3348  0.0456
 1272W        W 5336   8.774   5.946   3.224 -0.3309 -0.0566  0.1243
 1273W        W 5337   9.115   0.168  10.675  0.1025  0.3011  0.0080
 1274W        W 5338  10.678   7.709   7.380 -0.0447 -0.1239 -0.0437
 1275W        W 5339   6.973   4.209   0.679  0.1466 -0.0442 -0.2813
 1276W        W 5340   7.441   7.904  11.279 -0.0408 -0.1982 -0.2527
 1277W        W 5341   2.616   5.142   9.362  0.0070 -0.1585  0.0326
 1278W        W 5342   0.367  10.709   3.384  0.1533 -0.0608 -0.0308
 1279W        W 5343   2.021   2.587   9.370 -0.0618 -0.2255  0.1225
 1280W        W 5344   5.584  10.702   8.014 -0.1060  0.1666 -0.2500
 1281W        W 5345   0.945   8.755   9.097 -0.2583  0.1470 -0.0193
 1282W        W 5346  10.159   8.854   0.748  0.1561  0.0158  0.0472
 1283W        W 5347   8.424   5.492   1.438  0.2058  0.3719 -0.1690
 1284W        W 5348   5.568   8.169  10.789  0.1247 -0.4364 -0.2471
 1285W        W 5349   0.248   9.808   0.899  0.0448  0.1227  0.2181
 1286W        W 5350   0.941   7.560   2.715  0.2370  0.1708  0.2913
 1287W        W 5351   0.073   7.168   3.319 -0.0783 -0.1385  0.0153
 1288W        W 5352   4.151   4.913   0.508  0.2344 -0.0460 -0.0993
 1289W        W 5353   1.421   9.972   7.149  0.0137 -0.0167  0.1382
 1290W        W 5354   4.073   5.668   0.978  0.0959  0.0249  0.1997
 1291W        W 5355  10.509   9.955   8.163 -0.0606  0.3210  0.0384
 1292W        W 5356   2.064   8.593   2.936 -0.1385 -0.2175  0.1849
 1293W        W 5357   3.335   7.528  10.476 -0.1428 -0.2431 -0.0100
 1294W        W 5358   1.796   9.149   9.428  0.1889  0.2966  0.1694
 1295W        W 5359   3.361   8.620   8.073 -0.3689 -0.1472  0.0460
 1296W        W 5360   8.908   3.849   1.711 -0.0906  0.0757 -0.3303
 1297W        W 5361   9.375   5.802   8.615  0.0027  0.3399  0.2685
 1298W        W 5362   2.083   4.295   1.246 -0.1488  0.0949  0.0057
 1299W        W 5363   1.538   0.578   2.271 -0.0086  0.3184 -0.0032
 1300W        W 5364   4.614   1.557  11.148  0.2664 -0.0143  0.1100
 1301W        W 5365   7.620   4.317   8.366  0.0745  0.2213 -0.1333
 1302W        W 5366   4.213   1.000  10.914 -0.1101  0.0441  0.2107
 1303W        W 5367   1.399   2.032   0.507 -0.1919  0.1345  0.1285
 1304W        W 5368   1.717   1.584   7.696  0.2220  0.1764 -0.3942
 1305W        W 5369  10.390   4.167  10.757  0.0350 -0.0552 -0.0557
 1306W        W 5370   0.621   1.087   8.973 -0.1427 -0.1349  0.0756
 1307W        W 5371   2.876   0.505  10.309  0.2868  0.0360  0.2566
 1308W        W 5372   6.248   2.313   2.122  0.0164 -0.1033  0.0372
 1309W        W 5373   0.465  10.401   8.644  0.0009 -0.0716  0.0067
 1310W        W 5374   7.368   2.221   1.113 -0.2397  0.2745  0.0605
 1311W        W 5375  10.575   3.698   1.710  0.0283 -0.1090 -0.0618
 1312W        W 5376   1.759   4.144   0.844  0.0890  0.2322 -0.0904
 1313W        W 5377   4.693   5.860   2.784  0.1249  0.3903  0.0218
 1314W        W 5378   9.991  10.592   9.194  0.2064  0.1441 -0.0338
 1315W        W 5379   2.733   6.298  10.886 -0.0765 -0.0983 -0.0347
 1316W        W 5380   2.015   9.562   2.128 -0.0009  0.0445 -0.2233
 1317W        W 5381   3.302   4.467   8.880 -0.0926  0.2605  0.3135
 1318W        W 5382   3.052   4.067   1.174 -0.1657  0.3302  0.1438
 1319W        W 5383   5.799   0.844   2.971  0.0806 -0.1365 -0.2294
 1320W        W 5384   3.421   7.639   9.279  0.3575 -0.1455 -0.1158
 1321W        W 5385   2.026   8.878   1.591 -0.2516  0.0731 -0.0856
 1322W        W 5386   9.077   7.588  10.435  0.0876 -0.0278 -0.1729
 1323W        W 5387   1.001   2.653   2.837  0.2229 -0.1505 -0.2817
 1324W        W 5388   6.466   5.203   9.172 -0.1276 -0.1054 -0.2275
 1325W        W 5389   8.712   8.134  10.353 -0.2938 -0.0592 -0.0559
 1326W        W 5390   3.737   8.966   1.625 -0.2550 -0.1477  0.1281
 1327W        W 5391   3.850   5.389   9.577 -0.3040  0.0915 -0.0099
 1328W        W 5392   0.094   0.421  10.269  0.0281 -0.0973  0.1726
 1329W        W 5393   5.173   0.890  10.678 -0.0928  0.0815 -0.2158
 1330W        W 5394   2.481   3.787  11.293 -0.2277 -0.1773 -0.0728
 1331W        W 5395   1.099   2.605   8.017  0.1436  0.1360 -0.0919
 1332W        W 5396   1.673   9.925  10.303  0.3685 -0.0811  0.2226
 1333W        W 5397   9.000   1.553   7.036  0.0671  0.0872 -0.1076
 1334W        W 5398   0.242   5.467   8.247 -0.1268 -0.0099 -0.2195
 1335W        W 5399   5.495   5.937   0.170  0.0680 -0.0135  0.1937
 1336W        W 5400   6.459   1.371  11.212  0.2055  0.0177 -0.0051
 1337W        W 5401   1.202   5.425   8.218 -0.3364  0.1453  0.1433
 1338W        W 5402   1.604   9.526   9.757 -0.1411  0.0253  0.0895
 1339W        W 5403   4.884   3.707   8.319 -0.1106 -0.3346  0.1161
 1340W        W 5404   8.221   5.052   2.613  0.0062  0.4051 -0.0580
 1341W        W 5405   1.139   7.643   0.060 -0.0921 -0.1565 -0.0061
 1342W        W 5406   1.610   9.556  10.608 -0.2174 -0.1245  0.1388
 1343W        W 5407   0.091   8.934   8.183 -0.2725  0.0245  0.1927
 1344W        W 5408   4.515   8.259   7.460 -0.0829  0.4301  0.2098
 1345W        W 5409   1.984   4.929   2.056  0.0081 -0.2782  0.1871
 1346W        W 5410   1.967   7.576   7.972 -0.1948 -0.0962 -0.1746
 1347W        W 5411   5.395   9.138   9.393 -0.3336 -0.0506  0.1072
 1348W        W 5412   4.206   0.141   3.305 -0.0302  0.2310  0.1729
 1349W        W 5413   6.336   3.995   7.028 -0.2132 -0.0155  0.0988
 1350W        W 5414   5.110   4.136   1.895  0.1675  0.1018  0.1726
 1351W        W 5415   6.112   7.135   0.174 -0.3081  0.1360 -0.0233
 1352W        W 5416   7.770   2.252   0.478 -0.0542  0.0692 -0.3120
 1353W        W 5417  10.451   7.490   9.616 -0.0037  0.1257 -0.1265
 1354W        W 5418   6.792   2.193   3.377 -0.1718 -0.0830 -0.2746
 1355W        W 5419   0.074   7.558   8.710 -0.1532  0.0074  0.2796
 1356W        W 5420   1.964   4.589  11.306 -0.0273  0.2608 -0.1406
 1357W        W 5421   7.241   0.439   7.558 -0.0339  0.0725 -0.1593
 1358W        W 5422   9.634   6.315   7.942  0.0841 -0.0076 -0.1307
 1359W        W 5423   1.279   7.925   7.932  0.1127  0.0662 -0.1376
 1360W        W 5424   9.015  10.671   0.937  0.0484  0.0597  0.0269
 1361W        W 5425   9.522   1.673   1.157 -0.1688 -0.2617  0.1466
 1362W        W 5426   2.453   5.759   0.025  0.1863 -0.5862 -0.1248
 1363W        W 5427   8.172   5.289   3.575 -0.0592 -0.2851 -0.0509
 1364W        W 5428  10.404   0.861   8.090 -0.2620  0.1017 -0.1025
 1365W        W 5429   3.812   2.868   1.578  0.3380 -0.1075  0.3511
 1366W        W 5430   5.880   7.544   9.596  0.3555 -0.1169 -0.0344
 1367W        W 5431  10.535   1.883   0.720  0.3203  0.0525  0.0812
 1368W        W 5432   6.481   2.434  10.130 -0.0647  0.0923  0.2888
 1369W        W 5433   7.753   1.264   1.427 -0.2064  0.0501  0.1880
 1370W        W 5434   1.543   6.356   9.605  0.0636  0.2281  0.2493
 1371W        W 5435   1.538   4.830   7.095 -0.0840  0.1347 -0.1537
 1372W        W 5436   6.520   3.734   8.934 -0.3757 -0.4315  0.3328
 1373W        W 5437   7.842   6.193   0.256  0.0324 -0.0212 -0.2138
 1374W        W 5438   7.506   8.233  10.821  0.2087 -0.0939  0.0126
 1375W        W 5439   1.240   6.484   0.993  0.3003  0.2973  0.0683
 1376W        W 5440   6.785   8.711   7.490 -0.1216  0.1482  0.1595
 1377W        W 5441   6.717   1.006   7.886  0.0616  0.3062 -0.2192
 1378W        W 5442   5.741   0.072   2.295  0.1457  0.0859 -0.0965
 1379W        W 5443   4.253   6.913   9.688  0.0337  0.0755 -0.1791
 1380W        W 5444   5.964   1.617   1.599 -0.2128 -0.2486 -0.1207
 1381W        W 5445   0.109   9.649   2.205  0.2377 -0.0663 -0.3369
 1382W        W 5446   9.271   1.613   2.538 -0.2301 -0.1818 -0.0591
 1383W        W 5447   2.392   3.261   2.651 -0.0631 -0.1318  0.1167
 1384W        W 5448   6.593   7.848   6.647  0.1489  0.1413 -0.2629
 1385W        W 5449   4.838   7.511  10.567  0.1239 -0.1241  0.1814
 1386W        W 5450   0.894   8.652   2.298  0.0695 -0.0445  0.1610
 1387W        W 5451   4.288   8.510   8.115 -0.1843 -0.0457 -0.2296
 1388W        W 5452   7.667   0.975   0.465 -0.1900  0.3276 -0.1914
 1389W        W 5453   0.710   9.828   0.007  0.0059 -0.2722  0.0943
 1390W        W 5454   3.209   2.749  10.157  0.1111 -0.1967 -0.1826
 1391W        W 5455   2.397   6.183   1.719 -0.0871  0.2747 -0.1706
 1392W        W 5456   8.475   9.705   2.563 -0.2460  0.2506  0.3827
 1393W        W 5457   8.982   0.487  11.057  0.0158  0.3560  0.2261
 1394W        W 5458   1.960   0.093   1.650 -0.0099  0.1836  0.2209
 1395W        W 5459   9.734   8.749   3.307  0.1816 -0.1692  0.1267
 1396W        W 5460   2.149   4.397   7.500 -0.1247 -0.2663  0.0295
 1397W        W 5461   5.443  10.369   2.068 -0.0057  0.0759 -0.3445
 1398W        W 5462   9.419   8.310   7.804 -0.4046  0.0185 -0.0777
 1399W        W 5463   8.685   2.718   2.700  0.1191  0.1000 -0.0453
 1400W        W 5464   9.755   2.526   2.364 -0.0219  0.0096  0.3355
 1401W        W 5465   8.944   6.372  11.268 -0.0231  0.1080 -0.0543
 1402W        W 5466   3.097   1.191   1.645 -0.1934 -0.2766 -0.0379
 1403W        W 5467   9.598   3.660   7.808 -0.1934  0.2506 -0.2830
 1404W        W 5468   4.028   9.544   0.407  0.2486  0.4934 -0.3224
 1405W        W 5469   6.112   4.879  10.868 -0.2895 -0.0919 -0.3209
 1406W        W 5470   1.998   1.544  10.274 -0.1638  0.1481  0.1400
 1407W        W 5471   6.004   1.592  11.177  0.1040 -0.0726 -0.2319
 1408W        W 5472  10.742   6.747   7.208  0.1760 -0.1700  0.1822
 1409W        W 5473   4.960   1.086   9.706 -0.1617  0.3236  0.1475
 1410W        W 5474  10.507   6.508   8.937 -0.3317 -0.0365 -0.0323
 1411W        W 5475   5.967   0.659   9.203  0.0784 -0.1439 -0.0389
 1412W        W 5476   7.945   0.601   0.259 -0.3170  0.0313 -0.2200
 1413W        W 5477   4.475   2.975  10.682 -0.0397 -0.1897 -0.0410
 1414W        W 5478   1.633   1.836   2.620 -0.1450  0.0829  0.0258
 1415W        W 5479   9.810   7.514   7.919  0.0117  0.0063 -0.1500
 1416W        W 5480   8.496   8.454   7.292 -0.0480 -0.3311 -0.1486
 1417W        W 5481   9.920   0.122   8.356 -0.0429 -0.1367 -0.0410
 1418W        W 5482  10.035   7.645   1.788  0.1020  0.0030  0.1262
 1419W        W 5483   5.461   0.898   0.369  0.0633  0.2511 -0.0068
 1420W        W 5484   4.079   2.172   2.253  0.3343  0.0653  0.1276
 1421W        W 5485  10.126   9.063   9.094 -0.0579  0.0037 -0.1983
 1422W        W 5486   3.788   0.572  10.236  0.1587  0.0482 -0.0258
 1423W        W 5487   3.439   5.637   9.456 -0.3181 -0.1720  0.3455
 1424W        W 5488   6.917   5.214   2.254  0.3529 -0.1037  0.3024
 1425W        W 5489   0.225   4.451   1.160 -0.0996  0.1946 -0.1253
 1426W        W 5490   3.924   9.365   1.350  0.0914  0.3461  0.1413
 1427W        W 5491  10.315   5.341   9.708 -0.2958 -0.2170  0.2497
 1428W        W 5492   6.829   6.737   2.125  0.1552 -0.0899  0.1781
 1429W        W 5493   6.963   9.777  11.220 -0.0270  0.1927  0.1566
 1430W        W 5494   9.819   8.057   8.006  0.1404 -0.0460  0.3124
 1431W        W 5495   2.306   2.143   8.657 -0.0613 -0.0493 -0.0735
 1432W        W 5496   0.254   7.697   0.179  0.2595 -0.0751  0.1709
 1433W        W 5497   3.716   0.671  10.689  0.4058 -0.2379  0.0409
 1434W        W 5498   7.582   4.523   3.382  0.3384 -0.1299 -0.1908
 1435W        W 5499   7.812   1.889  10.113  0.1327 -0.1442  0.2232
 1436W        W 5500   5.450   5.456   2.124 -0.1934  0.0127 -0.4422
 1437W        W 5501   7.351   1.405  10.850 -0.6547 -0.2201 -0.5039
 1438W        W 5502   6.207   1.568   9.303 -0.1338 -0.1543  0.3345
 1439W        W 5503   9.979   3.736   9.072  0.0370 -0.1153  0.0290
 1440W        W 5504   9.342   8.110   0.466 -0.1569  0.2153 -0.0752
 1441W        W 5505   3.986   2.417   8.077 -0.0409 -0.1303 -0.1011
 1442W        W 5506   8.097   8.479   8.785 -0.3437 -0.1256  0.1225
 1443W        W 5507   7.478  10.527  10.887 -0.2168  0.3278  0.1115
 1444W        W 5508   9.003   9.347   1.326 -0.2038  0.0063  0.3234
 1445W        W 5509   0.447   0.692   9.368  0.0132  0.0816 -0.0961
 1446W        W 5510   5.303   4.792  10.703  0.4140 -0.0769 -0.0757
 1447W        W 5511   7.717   6.327   7.877  0.1944 -0.2403 -0.1465
 1448W        W 5512   0.025   6.984   8.905  0.3680 -0.2246  0.1924
 1449W        W 5513  10.725   2.509   9.519  0.3137  0.2276  0.1535
 1450W        W 5514   7.584   1.414   1.939 -0.1451 -0.2190  0.2324
 1451W        W 5515   6.946   0.310   0.273  0.0100 -0.1884 -0.1903
 1452W        W 5516   1.582   3.996   9.979  0.0593  0.0701 -0.0684
 1453W        W 5517   2.870   8.124  10.034  0.1013 -0.1391 -0.0071
 1454W        W 5518   9.840   3.783   2.491  0.1654 -0.1026  0.0033
 1455W        W 5519   2.580   8.142   1.713 -0.1682 -0.1658  0.0609
 1456W        W 5520   5.456   0.681  11.125 -0.0285 -0.3160  0.3344
 1457W        W 5521   7.854   1.936   0.914 -0.0904 -0.0573 -0.0194
 1458W        W 5522   3.446   5.482   8.751  0.4446 -0.1455 -0.2180
 1459W        W 5523  10.443   8.102   2.456  0.0407  0.0121 -0.1578
 1460W        W 5524   8.722   7.532  11.276  0.0646 -0.0544 -0.0027
 1461W        W 5525   4.972   3.713   1.757 -0.1894 -0.0857  0.2515
 1462W        W 5526   2.431  10.225   1.958 -0.2690  0.2458  0.2173
 1463W        W 5527   8.174   5.265   1.012 -0.4978  0.1882 -0.1810
 1464W        W 5528   7.125   4.262   8.435  0.1395 -0.1666 -0.1637
 1465W        W 5529   0.653   7.378   9.472  0.3263  0.1015  0.0885
 1466W        W 5530   4.394  10.413   9.455  0.0432  0.0989  0.1260
 1467W        W 5531  10.068   4.228  10.423  0.2423 -0.3098  0.0713
 1468W        W 5532   5.592   1.992   0.534 -0.0134  0.2448  0.3028
 1469W        W 5533  10.510   4.375   0.997 -0.0821  0.1496 -0.0798
 1470W        W 5534   9.067   3.278   8.468 -0.0555  0.5405 -0.1358
 1471W        W 5535   4.864   7.510   1.682  0.2740  0.1697  0.0107
 1472W        W 5536   2.165   8.291   7.543 -0.1616  0.0832 -0.0687
 1473W        W 5537   7.958   1.297  10.133  0.3509 -0.3219  0.1985
 1474W        W 5538   0.480   4.904   6.746 -0.1309  0.0186  0.1262
 1475W        W 5539   3.855   2.257   0.799  0.1261  0.0815  0.0930
 1476W        W 5540   8.834   3.223   9.945 -0.2729  0.0122 -0.0006
 1477W        W 5541   7.227   6.265   7.745 -0.0040  0.1027 -0.2174
 1478W        W 5542   5.314   2.950   2.748 -0.0772  0.0490 -0.0738
 1479W        W 5543   8.175   8.870   1.005 -0.0549 -0.0281  0.2263
 1480W        W 5544   9.461   5.045  10.978 -0.1085  0.2435  0.0775
 1481W        W 5545   1.479   0.627   0.171 -0.3802  0.4529 -0.0720
 1482W        W 5546   9.991   7.821   2.295  0.0119 -0.0308 -0.1978
 1483W        W 5547   4.218   7.792   7.587  0.1055 -0.1760 -0.1306
 1484W        W 5548   7.291   4.304  10.202  0.0884  0.0018 -0.3569
 1485W        W 5549   3.227   4.518  11.322 -0.2539 -0.2817  0.1400
 1486W        W 5550   5.505   9.231  10.348  0.0914 -0.0366 -0.3781
 1487W        W 5551   4.835   1.700   8.022  0.0020  0.1121 -0.0009
 1488W        W 5552   5.637   2.847   9.014 -0.3480  0.2047  0.2751
 1489W        W 5553   2.025   5.524   1.386  0.0858  0.0150  0.0739
 1490W        W 5554   8.624   2.061   7.668 -0.1214  0.0645 -0.0474
 1491W        W 5555   7.804   4.237   3.056 -0.2450 -0.0756  0.0476
 1492W        W 5556   0.869   6.802   1.886 -0.2698 -0.1126  0.2455
 1493W        W 5557   1.254   8.074   9.968  0.2095 -0.2032 -0.2660
 1494W        W 5558   8.241   3.225   8.937 -0.5807  0.2507 -0.0330
 1495W        W 5559   3.657   3.770   0.912 -0.1523 -0.0036  0.0547
 1496W        W 5560   7.085   0.159   9.713 -0.0628 -0.1482  0.2084
 1497W        W 5561   3.254  10.309   2.348 -0.0529  0.1357 -0.0910
 1498W        W 5562   5.142   9.490   3.028 -0.0015 -0.1745  0.1729
 1499W        W 5563   9.741  10.054   8.986  0.1578  0.0436  0.0789
 1500W        W 5564   4.181   1.530   2.312  0.4884  0.0306  0.1992
 1501W        W 5565   5.077   7.739   3.371  0.0777  0.2612  0.0941
 1502W        W 5566   3.995   0.014   2.402 -0.0749 -0.0109  0.2049
 1503W        W 5567   0.800   9.387  11.186  0.5445  0.0669 -0.2385
 1504W        W 5568  10.239   1.057   1.142  0.1289  0.1741 -0.3239
 1505W        W 5569   8.128   8.460   2.138  0.3245 -0.1208  0.1493
 1506W        W 5570   0.832   1.845   1.627 -0.0987 -0.1762 -0.0284
 1507W        W 5571   6.949   5.069  10.400  0.3334 -0.0509 -0.2707
 1508W        W 5572   1.656   4.935   2.887  0.0212  0.1178  0.1956
 1509W        W 5573   0.820   4.934   9.794 -0.1892 -0.0741 -0.3149
 1510W        W 5574   0.906   7.169  10.638  0.1302  0.1634 -0.0073
 1511W        W 5575   2.669   6.681   0.066 -0.0663  0.1847 -0.2422
 1512W        W 5576   1.430   0.556   0.735  0.1360  0.0047  0.1714
 1513W        W 5577   8.740   7.672   1.359 -0.0083  0.3905  0.0289
 1514W        W 5578   1.996   1.376   9.779 -0.0844  0.0564 -0.0720
 1515W        W 5579   4.339   2.987   2.482 -0.2076 -0.7279  0.1213
 1516W        W 5580   9.163   9.867   1.478 -0.0716  0.1050  0.3335
 1517W        W 5581   1.925   0.229  10.434 -0.0945  0.0631 -0.0764
 1518W        W 5582   6.314   8.485  10.281 -0.1556  0.2804  0.0802
 1519W        W 5583   3.692   7.923   2.508  0.0833  0.0510 -0.3046
 1520W        W 5584   3.955   7.264   0.551 -0.0413 -0.0455  0.0793
 1521W        W 5585   9.650   7.298   1.714 -0.1259 -0.1132  0.1997
 1522W        W 5586   5.588   2.485  10.950 -0.1212 -0.1096 -0.0040
 1523W        W 5587   0.766   4.397   7.907  0.0060 -0.1364 -0.1809
 1524W        W 5588   6.139  10.025   8.338 -0.3771 -0.1152  0.1658
 1525W        W 5589   9.070  10.749   9.353 -0.0793  0.2760 -0.1585
 1526W        W 5590   9.480  10.017   1.950 -0.0040 -0.0392  0.0835
 1527W        W 5591   3.004  10.603   1.018 -0.1684 -0.1019  0.0742
 1528W        W 5592   3.013   7.629   8.650  0.0297 -0.3728 -0.0359
 1529W        W 5593   2.805   9.935   9.896 -0.1350  0.2851 -0.2003
 1530W        W 5594   4.685   4.775   1.266  0.1191  0.0942  0.0177
 1531W        W 5595   4.327   8.287   9.558 -0.0471 -0.1902 -0.1467
 1532W        W 5596   1.309   1.746   0.118  0.1569 -0.0243  0.2377
 1533W        W 5597   8.966   5.164  10.217  0.0254 -0.1407 -0.0344
 1534W        W 5598   7.133   4.050   1.998  0.0043 -0.1058 -0.2425
 1535W        W 5599   2.799   2.554  11.018 -0.1594  0.0782  0.4189
 1536W        W 5600   2.983   8.631   2.913  0.4224  0.1115  0.4175
 1537W        W 5601   8.587   6.802   8.550 -0.2930 -0.2598  0.2317
 1538W        W 5602   9.541   3.502   8.452  0.3531  0.3348  0.0586
 1539W        W 5603   9.249   4.262   1.774  0.0340  0.0546  0.1597
 1540W        W 5604   1.975   6.252  11.023 -0.0171 -0.0965  0.1165
 1541W        W 5605   7.327   0.185  10.698  0.0447 -0.0765  0.2415
 1542W        W 5606   3.079   9.512   2.372  0.1140 -0.2218 -0.2899
 1543W        W 5607   9.936  10.761  10.988  0.0525 -0.0142  0.0441
 1544W        W 5608   6.770   5.114  10.878 -0.0709 -0.0862  0.2179
 1545W        W 5609   7.220   0.466   8.465 -0.2377 -0.3713  0.1855
 1546W        W 5610   7.797   3.520   7.897  0.0866 -0.1637 -0.0638
 1547W        W 5611   2.433   4.613   1.028  0.1240  0.1115  0.2174
 1548W        W 5612  10.141   7.843   9.424  0.0949 -0.2058 -0.0053
 1549W        W 5613   0.597   2.385   8.774 -0.0324  0.1106  0.1122
 1550W        W 5614  10.657   8.697  11.117 -0.1640 -0.3152  0.0935
 1551W        W 5615   1.795   0.100   2.130  0.2938 -0.0356  0.2471
 1552W        W 5616  10.665   1.995   1.169 -0.0773  0.0091  0.0674
 1553W        W 5617   5.706   8.476   1.397  0.1812 -0.1091  0.0598
 1554W        W 5618   4.493   1.716   1.296  0.2308  0.0885  0.2753
 1555W        W 5619   1.777   8.568   3.338 -0.0457  0.0210 -0.1703
 1556W        W 5620   2.879   7.982   1.264 -0.3328 -0.0076 -0.2228
 1557W        W 5621   3.698   0.195   0.217 -0.1343  0.3619  0.2525
 1558W        W 5622   1.693   6.048   0.372  0.2672 -0.2518  0.1283
 1559W        W 5623   3.051   8.396   0.278  0.1747  0.2050  0.1765
 1560W        W 5624   4.254   5.313   1.600  0.3474 -0.0820 -0.1354
 1561W        W 5625   2.474   8.790   0.712 -0.1686 -0.0969  0.3684
 1562W        W 5626   7.622   9.785   0.607 -0.3668  0.0587 -0.0552
 1563W        W 5627   1.470   1.821   9.754  0.1275 -0.0182  0.1186
 1564W        W 5628   5.995   1.995   9.134 -0.1541  0.1662 -0.1179
 1565W        W 5629   2.179  10.741  10.064 -0.0593  0.0060 -0.0028
 1566W        W 5630   9.173   3.205   1.521  0.1535 -0.0118  0.1400
 1567W        W 5631   3.639   5.271   9.125  0.0539 -0.2006 -0.1712
 1568W        W 5632   1.402   0.254   1.678 -0.1481  0.1192 -0.0699
 1569W        W 5633   0.778   6.186   0.913  0.2341  0.0587 -0.1873
 1570W        W 5634   8.830   2.341   9.653 -0.1406 -0.0591  0.3387
 1571W        W 5635  10.522   2.794   8.328  0.2448  0.1577 -0.0032
 1572W        W 5636   5.874   5.037   7.376 -0.1548 -0.0736  0.1262
 1573W        W 5637   4.603   7.883   0.013  0.0647  0.2259 -0.1097
 1574W        W 5638   2.037   0.636   0.253 -0.4409 -0.0576 -0.2161
 1575W        W 5639   3.658   5.586   8.279 -0.1518  0.2603 -0.0087
 1576W        W 5640   9.296   0.243   6.968 -0.0357  0.1876 -0.1558
 1577W        W 5641   8.523   2.874   0.801 -0.0321 -0.0406  0.1105
 1578W        W 5642   4.329   6.504   9.386 -0.2748  0.1419 -0.1211
 1579W        W 5643   8.636   5.248  10.683  0.2482  0.0095 -0.3865
 1580W        W 5644   9.062   1.067  10.948 -0.0922 -0.0194  0.1502
 1581W        W 5645   1.274   6.860  10.683 -0.0608 -0.0245  0.2303
 1582W        W 5646   7.363   1.579   1.030  0.0520 -0.0044 -0.0247
 1583W        W 5647   4.401   5.666   7.908 -0.1455 -0.0596 -0.3391
 1584W        W 5648   2.743   4.326   2.520 -0.2287 -0.1356  0.1143
 1585W        W 5649   1.560   0.985   2.563  0.1452  0.2282  0.0029
 1586W        W 5650   5.721   6.721   9.267  0.0194 -0.0484  0.2338
 1587W        W 5651   5.542   6.974   1.021 -0.0278 -0.3162  0.0706
 1588W        W 5652   3.866   5.827   8.750  0.1450  0.2338 -0.0673
 1589W        W 5653   6.999   5.694   2.162  0.1580  0.3511  0.4523
 1590W        W 5654   4.596   4.389  11.098  0.1869 -0.1199  0.0904
 1591W        W 5655   1.291   8.609   9.796  0.0010 -0.1143  0.1068
 1592W        W 5656   9.129   6.976   8.306  0.1266  0.3694 -0.1445
 1593W        W 5657   8.254   7.402   1.283 -0.2323 -0.0972  0.0842
 1594W        W 5658   7.826   1.064   2.291  0.0752  0.0305  0.1137
 1595W        W 5659  10.332   4.308   9.985  0.0575  0.3303 -0.1764
 1596W        W 5660   2.100  10.474   8.521 -0.1643  0.0932 -0.1254
 1597W        W 5661   8.204   3.272   2.013  0.1240 -0.0706 -0.0049
 1598W        W 5662   7.235   8.810   1.473 -0.0949  0.0210 -0.5219
 1599W        W 5663   4.013   6.970   1.080 -0.2542 -0.1639  0.1267
 1600W        W 5664  10.375   0.382   8.449  0.2757 -0.0396  0.0084
 1601W        W 5665   0.781   8.868   0.978 -0.0317  0.2128 -0.0760
 1602W        W 5666   7.149   2.949   1.076 -0.1550 -0.0763  0.1382
 1603W        W 5667   9.721   9.490  11.253 -0.0740  0.0536  0.0930
 1604W        W 5668   3.350   0.257   8.905  0.1583 -0.0335 -0.0437
 1605W        W 5669   6.964   4.515   2.139  0.0161 -0.2067  0.1337
 1606W        W 5670   6.842   5.118   1.309  0.0720  0.1950 -0.0818
 1607W        W 5671   4.253   4.172   8.854 -0.0026  0.1753  0.0192
 1608W        W 5672   0.304   3.637   8.325 -0.1474  0.1907 -0.0754
 1609W        W 5673   0.405   9.838   7.627  0.2920  0.0598 -0.1836
 1610W        W 5674   4.790   1.521   7.339 -0.0679 -0.2230  0.0807
 1611W        W 5675   3.163   1.713   3.159 -0.0470  0.0675  0.0768
 1612W        W 5676   0.135   2.704   1.290 -0.1194 -0.2548 -0.0210
 1613W        W 5677   8.056   5.640   0.563 -0.1093 -0.4061 -0.1801
 1614W        W 5678   3.049   4.857  10.532 -0.2502  0.0524  0.0782
 1615W        W 5679   3.596  10.308   1.559 -0.1707  0.0807  0.0422
 1616W        W 5680   6.042   3.827   2.910  0.1943 -0.0275 -0.3327
 1617W        W 5681   1.654   0.757  10.307 -0.3475 -0.1245 -0.1523
 1618W        W 5682   6.898   7.567   3.368 -0.1075  0.0794 -0.0733
 1619W        W 5683   8.908   1.944   1.773  0.2617  0.1294 -0.1185
 1620W        W 5684   6.446   2.614   8.938 -0.2511 -0.1139 -0.1108
 1621W        W 5685   7.873   8.893   1.455  0.3319  0.0616 -0.0052
 1622W        W 5686  10.323   4.533   7.125 -0.2044 -0.0388  0.0796
 1623W        W 5687   8.988   0.448   2.240  0.5416 -0.3375 -0.1433
 1624W        W 5688   2.484   5.592   1.710  0.2222 -0.1715 -0.1193
 1625W        W 5689   8.625   2.378   0.856  0.0450 -0.0866  0.2526
 1626W        W 5690   6.872  10.629   1.301  0.2179 -0.1072 -0.2614
 1627W        W 5691  10.555   2.700   2.296  0.1773 -0.0798 -0.0423
 1628W        W 5692   2.297   5.160   1.667 -0.2709  0.1269 -0.0414
 1629W        W 5693   9.586   9.819   1.196 -0.0452  0.0880  0.1286
 1630W        W 5694  10.638   8.632   7.597 -0.1287 -0.1700 -0.1080
 1631W        W 5695   4.125   0.361   9.549 -0.1692 -0.4341 -0.3550
 1632W        W 5696   6.031   1.679   1.109  0.0223 -0.0758  0.0007
 1633W        W 5697   9.152   4.580   9.477  0.1538  0.0744  0.0210
 1634W        W 5698  10.349   5.868   0.105 -0.0365  0.1857  0.0300
 1635W        W 5699   0.796   5.422   1.446  0.0307  0.6104 -0.0235
 1636W        W 5700   8.268   9.726   1.737  0.0517  0.0615  0.1936
 1637W        W 5701   9.926   3.188   1.298 -0.0362 -0.0167  0.0097
 1638W        W 5702   4.682   3.795   3.579 -0.0835  0.0536  0.1831
 1639W        W 5703   8.579   0.422   0.013 -0.0372  0.4056 -0.1992
 1640W        W 5704   8.120   3.977  10.692  0.1229  0.1472 -0.1697
 1641W        W 5705   9.064   5.949   1.193 -0.0399 -0.0842 -0.1041
 1642W        W 5706   6.423   3.647   0.515 -0.1101 -0.1008 -0.2433
 1643W        W 5707   1.634   5.185  10.843  0.1428 -0.2789 -0.1609
 1644W        W 5708   1.211   5.717   3.059  0.0714  0.2098  0.0239
 1645W        W 5709   0.435   4.654   7.623 -0.1508 -0.0615  0.2389
 1646W        W 5710   9.776   5.382   8.029  0.1035 -0.1492  0.3675
 1647W        W 5711   8.041   0.182  10.603 -0.0360  0.2869 -0.0661
 1648W        W 5712   9.775   0.752  10.391  0.1699 -0.1271  0.0916
 1649W        W 5713   0.454   0.356   7.732 -0.2530  0.0603  0.0584
 1650W        W 5714   3.748   0.127   9.196 -0.0304  0.3002  0.0089
 1651W        W 5715   8.124   6.279   2.104  0.1441 -0.1047  0.0123
 1652W        W 5716   4.079   3.380  10.745  0.0782  0.2411 -0.0603
 1653W        W 5717   4.984   3.494  10.297 -0.3021 -0.0787 -0.3610
 1654W        W 5718   3.688   8.940   3.475 -0.2322  0.1930  0.0049
 1655W        W 5719   3.430   8.182   1.235 -0.0864  0.0940 -0.2736
 1656W        W 5720   7.193   2.845   9.591 -0.0600  0.0909 -0.2476
 1657W        W 5721   1.698   2.800  10.604  0.0282 -0.1708  0.5402
 1658W        W 5722   1.302   3.432   0.056  0.0355 -0.2674  0.0043
 1659W        W 5723   0.204   6.371   3.798 -0.1150 -0.0074 -0.0937
 1660W        W 5724  10.739   3.233   0.586  0.0456  0.1740  0.0354
 1661W        W 5725   5.690  10.003  11.262  0.0483  0.0359  0.1189
 1662W        W 5726   1.749   8.977   9.931  0.1144 -0.0093  0.1915
 1663W        W 5727   8.980   2.952  10.447  0.1230 -0.3758 -0.0094
 1664W        W 5728   1.104  10.443   9.578  0.1943  0.0570 -0.0001
 1665W        W 5729   4.375   6.704  10.663 -0.3589  0.0847  0.0430
 1666W        W 5730   1.150   7.964   2.927  0.0099 -0.0718  0.0181
 1667W        W 5731   2.586   7.227   8.480  0.4980 -0.1271  0.2589
 1668W        W 5732   5.722   1.934  10.466  0.3800 -0.0436 -0.3390
 1669W        W 5733   8.857   1.640  10.211 -0.2643 -0.2836  0.0209
 1670W        W 5734   5.682   5.948   1.815 -0.1012 -0.0874  0.0881
 1671W        W 5735   7.730   6.473   9.372  0.3090 -0.0151  0.2325
 1672W        W 5736   5.939   3.830   1.302  0.0214 -0.2195  0.1264
 1673W        W 5737   1.912   4.436   2.207  0.0269  0.2284 -0.0857
 1674W        W 5738  10.118  10.644   0.185  0.1752 -0.2132  0.1858
 1675W        W 5739   8.328   5.396   9.791 -0.0462  0.0744  0.0272
 1676W        W 5740   9.148   8.050   8.130  0.0527  0.0296  0.2655
 1677W        W 5741   4.966   5.494   2.520 -0.0864  0.1924  0.0006
 1678W        W 5742  10.296   6.280   2.451  0.2792 -0.1383  0.1388
 1679W        W 5743   8.654   8.567  10.060 -0.1742 -0.0714  0.0743
 1680W        W 5744   2.516   7.925   0.930 -0.0820 -0.0976  0.1885
 1681W        W 5745   2.399   0.587   2.997 -0.0039 -0.0499 -0.2403
 1682W        W 5746   0.627   2.571   1.417 -0.0668 -0.1507 -0.0315
 1683W        W 5747   5.640   0.697  10.202  0.1353  0.2317  0.1327
 1684W        W 5748   6.583   6.306  10.157 -0.0256  0.1446  0.0203
 1685W        W 5749   8.300   4.163   0.351 -0.0903  0.0986  0.0047
 1686W        W 5750   7.101   2.182  10.681  0.3234 -0.1180  0.1358
 1687W        W 5751   0.617   2.572   0.526  0.0562  0.2005  0.4392
 1688W        W 5752   9.054  10.549  10.314 -0.1899 -0.1037  0.1457
 1689W        W 5753   6.935   4.512  10.970 -0.0109 -0.1659 -0.2395
 1690W        W 5754   2.063   2.915   1.046  0.0013  0.0806  0.0091
 1691W        W 5755   7.455   6.507   8.279  0.0894 -0.0118 -0.1042
 1692W        W 5756  10.251   0.611   9.070  0.0583 -0.2257  0.0199
 1693W        W 5757   6.239   1.224   1.860 -0.1324 -0.0904 -0.0044
 1694W        W 5758   3.948   6.897   0.100 -0.0910  0.1651 -0.0771
 1695W        W 5759   6.650   5.063   3.414 -0.0923 -0.0727  0.2906
 1696W        W 5760   4.395   2.100  10.373 -0.2852 -0.1980 -0.5062
 1697W        W 5761   1.115   9.723  10.426  0.3402  0.1247 -0.0127
 1698W        W 5762   1.536  10.581   8.745  0.1406 -0.1963  0.1127
 1699W        W 5763   8.986   6.451   2.608 -0.0157  0.0933 -0.0512
 1700W        W 5764   2.507   8.152  11.300 -0.0284  0.3597 -0.0477
 1701W        W 5765   1.168   8.961   7.936 -0.0428  0.3679  0.2558
 1702W        W 5766   9.421   3.579   3.293  0.1159 -0.0052  0.1655
 1703W        W 5767   2.723   1.009   8.525 -0.0400  0.1187  0.1311
 1704W        W 5768   8.667   7.214   7.662  0.1250  0.0391 -0.2433
 1705W        W 5769   4.488   7.204   8.411 -0.0712 -0.0931 -0.0607
 1706W        W 5770   0.376   6.917   0.713  0.0263  0.1653  0.1697
 1707W        W 5771   1.021   2.533  11.018 -0.2281  0.1794  0.1276
 1708W        W 5772   4.637   4.862   9.133 -0.0969  0.2082 -0.0810
 1709W        W 5773   9.664   0.957   6.633 -0.0922 -0.0125 -0.0982
 1710W        W 5774   2.978   9.372   3.211 -0.0602 -0.0969 -0.1403
 1711W        W 5775   7.768   4.960   1.896 -0.3624 -0.4028  0.0638
 1712W        W 5776   4.066   0.599   3.527 -0.0626  0.4295 -0.0280
 1713W        W 5777   4.421   2.510   2.569 -0.0800 -0.0609  0.2726
 1714W        W 5778   6.951   2.765   8.780 -0.1437 -0.1387  0.0668
 1715W        W 5779   0.746   0.971   2.016  0.2214  0.0589 -0.1377
 1716W        W 5780   9.066   3.713   9.617  0.1134 -0.0071  0.0049
 1717W        W 5781   7.976   1.949  10.852 -0.0454  0.0405  0.1287
 1718W        W 5782  10.069   1.817   1.155  0.0682  0.1101 -0.0727
 1719W        W 5783   1.075   6.387   9.263  0.2345  0.2505 -0.2984
 1720W        W 5784   8.361   2.484   9.494 -0.3168  0.3962 -0.3233
 1721W        W 5785   2.028   1.410  10.829  0.2872 -0.0612 -0.1964
 1722W        W 5786   4.122  10.565  10.865  0.1091 -0.2243 -0.0268
 1723W        W 5787   3.189  10.633   8.669 -0.0259 -0.2254 -0.0686
 1724W        W 5788   0.211   8.770  10.436 -0.1293 -0.1302 -0.0746
 1725W        W 5789   4.465   7.172   0.943  0.1116  0.0692  0.1361
 1726W        W 5790   3.721   6.346   8.483  0.2001  0.0140 -0.0642
 1727W        W 5791   9.789   6.893   2.073 -0.0330  0.1359 -0.1661
 1728W        W 5792   6.017   7.234   9.218  0.1186  0.2065  0.2272
 1729W        W 5793   5.382  10.393   8.965  0.0117  0.1298  0.1553
 1730W        W 5794   9.328   1.554  10.146  0.1079 -0.0284  0.0815
 1731W        W 5795   5.154   2.612   1.032  0.0181 -0.0566 -0.1225
 1732W        W 5796   4.246   5.909   1.442 -0.0432  0.2386  0.2787
 1733W        W 5797   4.152   7.188   2.537 -0.1735  0.0194 -0.1740
 1734W        W 5798   5.294   4.047   0.438 -0.1169  0.0130 -0.1912
 1735W        W 5799   0.022   8.376   7.987  0.0427 -0.3156 -0.0557
 1736W        W 5800   7.232   9.642  10.103 -0.5538 -0.2843 -0.2856
 1737W        W 5801   0.021  10.456  10.998  0.3377  0.0956 -0.2132
 1738W        W 5802   6.294   0.818   3.111 -0.0327 -0.3701  0.1092
 1739W        W 5803   8.454   0.876   9.209  0.1932 -0.0053  0.1805
 1740W        W 5804   5.727   4.220   9.125 -0.1045 -0.0133 -0.0303
 1741W        W 5805  10.301   4.803   1.123  0.0580  0.0918  0.1120
 1742W        W 5806   3.318  10.655   1.931 -0.0515 -0.0323 -0.1149
 1743W        W 5807   3.614   6.024   8.095 -0.1870  0.1854  0.0689
 1744W        W 5808  10.009   1.912  10.568 -0.1873 -0.0235  0.0108
 1745W        W 5809   5.833   2.927   6.808 -0.1732  0.0746 -0.0734
 1746W        W 5810   4.282   2.391   3.158  0.2021  0.1534  0.0958
 1747W        W 5811   1.812   9.097   0.072  0.1240 -0.5316 -0.2343
 1748W        W 5812   2.992   6.501   1.101  0.0301  0.2092  0.0366
 1749W        W 5813   6.865   3.512   9.280  0.0932 -0.0065 -0.1343
 1750W        W 5814   8.848  10.582   8.514 -0.1737  0.0261 -0.2571
 1751W        W 5815   5.582   1.772   7.980 -0.2450 -0.1283  0.3679
 1752W        W 5816   5.768  10.451   9.322 -0.3804 -0.1716 -0.1552
 1753W        W 5817   2.882   2.115   9.419 -0.0430  0.0399  0.0835
 1754W        W 5818   5.419  10.450   2.564  0.1834 -0.0428  0.0802
 1755W        W 5819   9.863   0.392   8.772  0.0980  0.1803 -0.0332
 1756W        W 5820   6.409   6.185   7.356 -0.0950  0.1368 -0.0757
 1757W        W 5821   7.017   5.411   9.785 -0.1991 -0.0213  0.0746
 1758W        W 5822   6.358   5.281   1.426 -0.1756  0.5578 -0.1193
 1759W        W 5823   6.811   8.093   3.315 -0.1447  0.1288 -0.0611
 1760W        W 5824   1.666   0.699   1.724 -0.1689 -0.1224 -0.0376
 1761W        W 5825   2.866   0.361   7.779 -0.1821  0.2584 -0.1308
 1762W        W 5826   7.324   1.371   1.476  0.2662 -0.0158 -0.2596
 1763W        W 5827   2.272  10.614  10.646 -0.2769  0.0575  0.0687
 1764W        W 5828   9.671   4.987   7.686 -0.3059  0.2278 -0.2610
 1765W        W 5829   2.300   2.149   0.610 -0.0088  0.2049 -0.0836
 1766W        W 5830   3.315   7.070  10.734 -0.2449  0.1920 -0.3087
 1767W        W 5831   2.905   4.619  10.995  0.2214 -0.3557  0.2866
 1768W        W 5832   3.256   9.178   1.931  0.1306 -0.1654  0.0583
 1769W        W 5833   4.954   5.145  10.656 -0.1706 -0.1663 -0.2197
 1770W        W 5834   6.036   0.541  11.182  0.4213 -0.0239  0.0415
 1771W        W 5835   5.144   6.147  11.112 -0.0910  0.1797 -0.1315
 1772W        W 5836   5.945   3.510   9.713  0.0348 -0.3365  0.0663
 1773W        W 5837   5.992  10.131   9.633 -0.0386 -0.0300 -0.1058
 1774W        W 5838   0.302   8.807   7.755  0.1133  0.1218 -0.2566
 1775W        W 5839   6.417   8.423   9.795 -0.0213 -0.1077 -0.0598
 1776W        W 5840   6.471   8.304   8.297  0.0059 -0.0321  0.0230
 1777W        W 5841   4.899  10.613   8.599 -0.3681 -0.2009 -0.0343
 1778W        W 5842   6.229  10.570   2.538  0.3361  0.0491  0.0095
 1779W        W 5843   2.050   0.910   2.914 -0.0351 -0.2683 -0.0265
 1780W        W 5844   7.678   3.875   1.113  0.1161 -0.2161  0.1403
 1781W        W 5845   4.645   7.529   2.144  0.0708 -0.0500  0.0740
 1782W        W 5846   4.977   3.199  11.189  0.0805 -0.0101  0.0496
 1783W        W 5847   6.912   1.849   7.726  0.2181  0.2210 -0.1653
 1784W        W 5848   9.928   8.762   8.280  0.2625  0.2495 -0.0569
 1785W        W 5849   1.899   5.777   2.996  0.3086  0.0705 -0.3131
 1786W        W 5850   7.391   2.418   2.651  0.0484  0.0838  0.0891
 1787W        W 5851   7.508   6.639   0.157 -0.1434 -0.1777  0.2608
 1788W        W 5852   3.822  10.719   1.913  0.1000 -0.1615  0.1356
 1789W        W 5853   1.120  10.099   2.551 -0.2466  0.1698  0.2995
 1790W        W 5854   7.310   1.395   9.554  0.1312 -0.2747  0.1314
 1791W        W 5855   7.018   5.532   1.046  0.2478  0.3576  0.1188
 1792W        W 5856   2.028   1.612   2.006 -0.4511 -0.0330  0.1047
 1793W        W 5857   7.236  10.683  11.306 -0.1186 -0.0655 -0.0962
 1794W        W 5858   6.857   0.800   9.277 -0.1686 -0.4904 -0.0809
 1795W        W 5859   6.082   9.690   9.874 -0.1160  0.1305 -0.0661
 1796W        W 5860   9.574   2.071   2.669 -0.3501  0.0127 -0.0765
 1797W        W 5861  10.052   7.304   1.323  0.0902 -0.0761  0.2385
 1798W        W 5862   8.521   9.903  10.308  0.0843 -0.1830 -0.1225
 1799W        W 5863   0.912   0.562   9.621  0.0154 -0.2316  0.0996
 1800W        W 5864   6.394   8.767   2.179  0.0165 -0.0750  0.1061
 1801W        W 5865   8.863   5.895   9.485  0.0748  0.0485  0.0205
 1802W        W 5866   3.661   4.780   9.279 -0.1700 -0.0042  0.0557
 1803W        W 5867   7.609   6.351   1.837  0.0712 -0.1905 -0.0107
 1804W        W 5868   9.945   7.172  10.929 -0.0537 -0.2347 -0.1481
 1805W        W 5869   6.356   0.876  11.034 -0.2438 -0.2022 -0.0503
 1806W        W 5870   5.721   3.359   9.244  0.4066 -0.1531  0.1705
 1807W        W 5871   4.415   1.536  10.114  0.2589  0.2080  0.3546
 1808W        W 5872   5.111   8.085   0.642  0.2400 -0.0977  0.0131
 1809W        W 5873  10.307   8.811   9.919  0.0456  0.0686  0.4685
 1810W        W 5874   5.318   6.888  10.267 -0.1016 -0.2968 -0.2008
 1811W        W 5875   3.936  10.678   9.591 -0.2503 -0.0906 -0.3157
 1812W        W 5876   9.105   0.738   8.447  0.0625 -0.0481 -0.2841
 1813W        W 5877   7.515   7.047  11.130 -0.1566  0.2615  0.1558
 1814W        W 5878   7.947   0.960   7.903 -0.2456 -0.0138  0.3145
 1815W        W 5879  10.083   2.865  11.321 -0.3575  0.2249 -0.1442
 1816W        W 5880   0.067   4.643   2.978 -0.3080 -0.0714 -0.0623
 1817W        W 5881   4.055  10.393   0.069 -0.1245  0.1024 -0.0596
 1818W        W 5882   2.398   3.630  10.400  0.3198 -0.1292  0.0347
 1819W        W 5883   1.089   1.407   9.668  0.2765 -0.1271  0.3419
 1820W        W 5884  10.380   1.282   1.975 -0.1794  0.0571 -0.1373
 1821W        W 5885   3.622   8.963   0.699  0.3646 -0.1678  0.2085
 1822W        W 5886   0.455   9.938   8.843  0.2138  0.0380 -0.1063
 1823W        W 5887   4.780   9.092  11.197 -0.0980  0.0009  0.1854
 1824W        W 5888   1.452   0.118   2.590  0.1903  0.0183  0.2013
 1825W        W 5889   5.609   2.563   8.536  0.0088  0.1757 -0.2464
 1826W        W 5890  10.073   5.864   8.253 -0.1385 -0.1745  0.1363
 1827W        W 5891   6.837   3.053  11.107 -0.0103 -0.0628 -0.2663
 1828W        W 5892   5.554   9.456   7.842 -0.2647  0.2018 -0.1313
 1829W        W 5893   0.880   8.164   2.505 -0.0415 -0.2713  0.0621
 1830W        W 5894   6.161   0.464   2.087 -0.1064 -0.2002 -0.0649
 1831W        W 5895   4.878   7.227  10.170  0.1698 -0.2336 -0.2100
 1832W        W 5896   3.455   3.936   8.764 -0.0837  0.2241 -0.1629
 1833W        W 5897   1.630   5.665   2.174 -0.0181 -0.3044 -0.0364
 1834W        W 5898   1.677   5.745   7.337  0.0834  0.0646 -0.2207
 1835W        W 5899   9.527   9.457   0.463  0.2028 -0.1814  0.1193
 1836W        W 5900   3.222   2.771   9.613 -0.0105  0.0215  0.1399
 1837W        W 5901   9.938  10.234  10.099  0.0534  0.0099 -0.1538
 1838W        W 5902   4.724   7.638   0.745  0.0470  0.3297  0.2660
 1839W        W 5903   4.583  10.092  10.310 -0.1785 -0.0504  0.0532
 1840W        W 5904   9.886   4.653   2.713  0.0244  0.0918 -0.1023
 1841W        W 5905   9.053   1.671   1.187 -0.1157  0.1589 -0.1885
 1842W        W 5906   8.941   9.858   8.871  0.4151  0.0361  0.1295
 1843W        W 5907   9.668   2.487   7.769  0.3887 -0.1175  0.2280
 1844W        W 5908   3.917   4.286   8.132 -0.2871  0.0075  0.3122
 1845W        W 5909   7.738   0.541   7.583 -0.0711 -0.1746  0.3080
 1846W        W 5910   3.232   3.976  10.210  0.0055 -0.1739 -0.0590
 1847W        W 5911   6.508   4.310   8.965 -0.0490  0.3204  0.3027
 1848W        W 5912   4.991   1.106   8.149 -0.1433 -0.0735  0.0232
 1849W        W 5913   2.003   9.527   0.211  0.0220 -0.2053 -0.2375
 1850W        W 5914   7.965   8.904   0.550  0.0227  0.0268 -0.0276
 1851W        W 5915   1.024   4.657   3.134 -0.0586 -0.0219 -0.1144
 1852W        W 5916   9.363   5.280   7.410  0.2725 -0.3455 -0.1788
 1853W        W 5917   2.942   4.876   0.172 -0.1626 -0.3791 -0.1412
 1854W        W 5918   5.683   8.098   0.922  0.0236  0.2058 -0.0501
 1855W        W 5919   9.102   2.461   3.876  0.4166  0.0384 -0.0090
 1856W        W 5920   7.085   9.301   0.140  0.0538  0.0421  0.0646
 1857W        W 5921  10.613   5.288   9.260  0.1670 -0.0713 -0.0332
 1858W        W 5922   0.175   1.370   9.114 -0.0374  0.0142 -0.2360
 1859W        W 5923   6.146   1.134   8.835  0.1786  0.0549 -0.0489
 1860W        W 5924  10.768   1.541   9.586  0.0374  0.0928 -0.1766
 1861W        W 5925   2.805   4.868   7.736 -0.1787  0.1367  0.3491
 1862W        W 5926   2.147  10.007   9.146  0.1063 -0.0427 -0.0788
 1863W        W 5927   3.904   3.343   8.177 -0.1106  0.2665 -0.3204
 1864W        W 5928   7.723   0.874   8.395 -0.2119 -0.2811 -0.1155
 1865W        W 5929   0.534   8.828   9.987 -0.0236  0.1128 -0.1773
 1866W        W 5930   3.157   3.548   1.514 -0.1844 -0.2702 -0.0189
 1867W        W 5931   8.118  10.385   0.205 -0.3818 -0.2853 -0.2763
 1868W        W 5932   2.594   5.978   9.164  0.5973 -0.1537 -0.2753
 1869W        W 5933   6.735   1.654  10.855 -0.0388  0.1599 -0.0407
 1870W        W 5934   0.404   2.690   6.985  0.2110  0.0370 -0.3511
 1871W        W 5935   4.864   8.603  11.078  0.0924  0.0004 -0.3762
 1872W        W 5936   5.971   1.165   1.449  0.1698 -0.0890 -0.3601
 1873W        W 5937   2.850   1.437  10.406 -0.3923  0.0317  0.0761
 1874W        W 5938  10.103   2.906   7.498 -0.0086 -0.0092  0.2384
 1875W        W 5939   5.552   1.543   1.155 -0.0324  0.0489 -0.1593
 1876W        W 5940   7.212   0.834   3.097 -0.1732  0.1099 -0.2385
 1877W        W 5941   8.454   8.666   0.156  0.0306 -0.1116  0.1757
 1878W        W 5942  10.270   6.254   1.041  0.2577 -0.0776  0.0798
 1879W        W 5943   0.204   8.194  11.159  0.2394 -0.1718 -0.3095
 1880W        W 5944  10.554   3.824   0.870 -0.0989  0.0702 -0.0837
 1881W        W 5945   5.920   3.399  11.058  0.2423  0.1621 -0.2351
 1882W        W 5946   9.293   1.134   9.017 -0.0841 -0.0930 -0.0123
 1883W        W 5947   1.885   3.795   8.148  0.0204 -0.2735  0.0950
 1884W        W 5948   3.709   7.440   1.456 -0.0719  0.5604  0.0389
 1885W        W 5949   3.913   1.509   7.717 -0.1530  0.3071 -0.1742
 1886W        W 5950   7.147  10.566   2.278  0.0010 -0.2068  0.2434
 1887W        W 5951   4.234   7.266   2.066  0.1290  0.0108  0.1132
 1888W        W 5952   6.630   8.260   8.745 -0.1734  0.2991  0.0398
 1889W        W 5953  10.029   9.713  10.314 -0.0888 -0.3148  0.2313
 1890W        W 5954   2.027   5.058   8.325 -0.2393 -0.0849  0.0967
 1891W        W 5955   9.286  10.370   7.522 -0.2320 -0.1826  0.2291
 1892W        W 5956   3.372   9.751   2.019 -0.1192 -0.2668  0.0867
 1893W        W 5957   2.548   1.667   8.557  0.1819 -0.3381 -0.2353
 1894W        W 5958   2.534   8.489   2.024 -0.0593 -0.2785  0.1690
 1895W        W 5959   0.900   3.606   9.503  0.0248  0.4183  0.0596
 1896W        W 5960   2.601  10.311  10.321  0.2069  0.6584 -0.0063
 1897W        W 5961   0.918   0.318   7.857 -0.2267 -0.0599 -0.0484
 1898W        W 5962   6.811   4.493   8.111 -0.0852  0.1983  0.2447
 1899W        W 5963   0.336   1.799   1.870  0.0820 -0.0597 -0.0403
 1900W        W 5964   5.422   9.053   2.752 -0.5112  0.0458 -0.0914
 1901W        W 5965  10.643   9.781   3.035  0.1167  0.1234  0.3009
 1902W        W 5966   5.234   2.949   8.605  0.1598  0.1720  0.0391
 1903W        W 5967   7.859   4.027   8.047 -0.0312 -0.0072 -0.1656
 1904W        W 5968   2.231   3.695   8.495  0.5066 -0.0358 -0.1727
 1905W        W 5969   5.206   1.520   2.164 -0.0000 -0.0156  0.3326
 1906W        W 5970   3.122   4.964   2.101 -0.3199 -0.3019 -0.0387
 1907W        W 5971   2.823   0.473   3.916  0.0538 -0.0916 -0.1602
 1908W        W 5972  10.085   9.248   1.667 -0.0322  0.1307  0.2128
 1909W        W 5973   1.077   2.774   8.779 -0.1838 -0.3278 -0.1745
 1910W        W 5974   1.910   0.587   0.824 -0.0882 -0.0990 -0.1899
 1911W        W 5975   9.638   9.456   8.335 -0.0421  0.0182 -0.0415
 1912W        W 5976   7.074   8.735   1.015  0.0210 -0.0656 -0.0155
 1913W        W 5977   4.719   0.170  10.177 -0.1620  0.3283  0.0262
 1914W        W 5978   8.334   9.477   2.982  0.0134 -0.0835  0.1123
 1915W        W 5979   7.606   5.952   7.568 -0.2855  0.4485 -0.2793
 1916W        W 5980   9.211   5.592   2.475  0.1029 -0.1410 -0.0222
 1917W        W 5981   2.323   0.299   9.054 -0.3573 -0.2564 -0.1011
 1918W        W 5982   2.593   9.639   2.476  0.3186 -0.1056  0.2132
 1919W        W 5983   0.608   0.073   0.331  0.1574 -0.1512  0.2511
 1920W        W 5984   7.364   1.393   0.527  0.2208  0.0156  0.0203
 1921W        W 5985   1.153   9.954   0.127  0.0623  0.0671 -0.1734
 1922W        W 5986   7.574   9.756   7.943  0.0365 -0.0182 -0.0001
 1923W        W 5987   3.185  10.195   2.878 -0.1972 -0.3226 -0.3016
 1924W        W 5988   9.153   2.511   1.709  0.4630  0.1648 -0.1866
 1925W        W 5989   4.705   5.852  11.144  0.0902  0.0048 -0.6148
 1926W        W 5990   9.594   7.590  10.663  0.0945  0.1818  0.1154
 1927W        W 5991   8.528  10.221  11.238 -0.0466  0.0816 -0.1759
 1928W        W 5992   2.937   0.204   1.790 -0.2818 -0.0370  0.1728
 1929W        W 5993  10.273   6.048  10.862 -0.3523  0.0518  0.2476
 1930W        W 5994   7.491   1.290   3.110  0.0174  0.0796 -0.2097
 1931W        W 5995   5.192   7.177   9.784 -0.0080  0.1745  0.0355
 1932W        W 5996   0.544   0.410   6.633 -0.1448  0.0741  0.0404
 1933W        W 5997   7.988   3.811   7.126  0.1237  0.1676 -0.1014
 1934W        W 5998   6.359   2.811   1.919  0.2678 -0.2788  0.0856
 1935W        W 5999   3.081   8.514   9.718  0.0490  0.1119  0.0961
 1936W        W 6000   7.405   8.655   8.138  0.1086 -0.1195  0.0465
 1937W        W 6001  10.465   0.266   0.295 -0.0054  0.1294 -0.2349
 1938W        W 6002   1.742   2.510   8.941  0.2742  0.0112  0.1232
 1939W        W 6003   6.532   2.863  10.668 -0.1986  0.0834  0.2035
 1940W        W 6004   9.760   3.163   0.312  0.0654 -0.1340 -0.0482
 1941W        W 6005   6.293   5.863  10.328 -0.0740  0.0690  0.1458
 1942W        W 6006   9.400   5.595   1.369 -0.0601  0.0041  0.2124
 1943W        W 6007   4.235   1.901   0.727 -0.0985  0.0742 -0.2442
 1944W        W 6008   3.796   4.313   9.142 -0.1765 -0.1689 -0.2055
 1945W        W 6009   7.722   2.214  11.203 -0.0429  0.0446 -0.2538
 1946W        W 6010   9.500  10.451  10.225  0.1984  0.0533  0.0280
 1947W        W 6011   2.149   5.888   0.460 -0.0293 -0.0479 -0.0801
 1948W        W 6012   0.480   1.409   2.184 -0.1112  0.0600 -0.0820
 1949W        W 6013   0.218   0.080   1.620  0.1836 -0.1956  0.2639
 1950W        W 6014   8.459   7.613   1.818  0.1718  0.0547  0.0957
 1951W        W 6015   5.975   9.368   1.471  0.0949 -0.0500  0.1157
 1952W        W 6016   3.088   7.037   8.561  0.0497 -0.0050 -0.1378
 1953W        W 6017   2.546   2.988  11.218 -0.3375 -0.0108  0.0088
 1954W        W 6018  10.372   7.499   9.070 -0.1873  0.1635  0.2330
 1955W        W 6019   2.668   0.816   0.605 -0.1111 -0.0630 -0.2832
 1956W        W 6020   3.756   0.818   4.029 -0.5910  0.1677  0.0042
 1957W        W 6021   1.827   6.219   3.352 -0.2533  0.2140  0.1062
 1958W        W 6022   0.023   4.372   8.978 -0.2092  0.1863  0.2727
 1959W        W 6023   9.309   0.959   9.597 -0.2050 -0.1223 -0.0440
 1960W        W 6024   9.325   0.473   9.523 -0.0240  0.0275  0.0741
 1961W        W 6025   3.198   3.629   8.141 -0.3144 -0.2504  0.1459
 1962W        W 6026   3.300   5.474   9.998 -0.6262  0.1033  0.1326
 1963W        W 6027   2.726   2.046   8.898  0.1042  0.0794 -0.1275
 1964W        W 6028   2.469  10.532   0.851 -0.2169 -0.1451  0.1879
 1965W        W 6029   1.688   5.133   9.337 -0.3247  0.1457  0.1192
 1966W        W 6030   0.418   4.386   8.621  0.1646 -0.0763  0.3120
 1967W        W 6031   7.157   2.306   7.812 -0.1424 -0.0232  0.0271
 1968W        W 6032   4.505   6.449   1.595 -0.0642 -0.1830  0.1904
 1969W        W 6033   4.271   2.687   2.032 -0.1255 -0.0138  0.1007
 1970W        W 6034   1.506   8.280   8.207  0.1491 -0.1234 -0.3587
 1971W        W 6035   7.945   8.520  10.877  0.3247 -0.1086  0.0300
 1972W        W 6036  10.657  10.123   1.270 -0.1363 -0.1592  0.1830
 1973W        W 6037   9.940   9.256   9.992  0.1051  0.0793 -0.0196
 1974W        W 6038   3.353   6.475   3.544 -0.2512 -0.3612  0.0802
 1975W        W 6039   4.076   5.252  10.422 -0.1768  0.1171  0.2890
 1976W        W 6040   5.730   6.942   1.530  0.1240  0.0973 -0.0751
 1977W        W 6041   9.031   9.426   7.601  0.3763  0.1110  0.1596
 1978W        W 6042   2.908   8.483   3.428  0.2937 -0.1742 -0.0461
 1979W        W 6043   8.439   3.074  10.253 -0.1249  0.2411  0.1170
 1980W        W 6044   7.199  10.688   0.471  0.4742  0.1263  0.2003
 1981W        W 6045   3.870   5.164   8.612  0.0405  0.0418 -0.1788
 1982W        W 6046   0.444   1.940  11.213 -0.0568  0.1556  0.0970
 1983W        W 6047   2.709   0.820   1.507  0.3129  0.3460  0.0753
 1984W        W 6048   4.644   5.716   9.795  0.2472  0.4357  0.3463
 1985W        W 6049   9.577   0.605   2.308  0.2434  0.2976  0.1980
 1986W        W 6050   8.893   8.816   1.502 -0.1728 -0.1444  0.1214
 1987W        W 6051   9.460  10.563   7.053 -0.1765  0.0386  0.0968
 1988W        W 6052   0.038   5.386   8.706 -0.0348  0.2244 -0.1174
 1989W        W 6053   5.268   7.797   1.041 -0.0798  0.1125  0.1198
 1990W        W 6054  10.461   4.593  10.414 -0.3518  0.1208 -0.0505
 1991W        W 6055   2.120   6.340   2.123  0.1301 -0.2050  0.0759
 1992W        W 6056   8.377   3.220   1.159  0.3141  0.3478  0.0188
 1993W        W 6057   5.162   6.931   7.669 -0.1736  0.2554 -0.2075
 1994W        W 6058   8.472   4.782   1.652 -0.4271  0.0025  0.3565
 1995W        W 6059   0.133   0.387   2.220  0.2655  0.1825  0.1000
 1996W        W 6060   6.396   9.267   9.785  0.0648  0.1357 -0.5164
 1997W        W 6061   8.080   3.236   0.180  0.2956  0.0597  0.0267
 1998W        W 6062   5.070   2.477   8.503 -0.1695 -0.1008  0.1215
 1999W        W 6063  10.605   5.250   1.038 -0.1126 -0.2933  0.0717
 2000W        W 6064   1.608   4.039   2.529 -0.0069  0.0482 -0.0789
 2001W        W 6065   6.934   0.880  10.265  0.0678 -0.1447  0.0683
 2002W        W 6066   9.260   1.627   9.112 -0.0930  0.2084  0.0209
 2003W        W 6067   9.894   5.389   8.982  0.3200  0.1358 -0.1978
 2004W        W 6068   4.686   1.089  10.503  0.1143  0.0698 -0.0665
 2005W        W 6069   5.081   4.609   2.102  0.1939 -0.0033 -0.1008
 2006W        W 6070   5.580   3.286   8.699  0.4862  0.0737 -0.0421
 2007W        W 6071   2.391   9.978   7.854  0.1879 -0.2255 -0.1449
 2008W        W 6072   8.128   2.350   8.269  0.0431 -0.3328  0.0989
 2009W        W 6073   7.926   3.260  10.276  0.1679 -0.0884  0.0946
 2010W        W 6074   1.195   6.910   2.271  0.1492 -0.2286 -0.0371
 2011W        W 6075   4.767   2.041   8.512 -0.0309 -0.3282 -0.1980
 2012W        W 6076   3.819   5.675   1.419  0.1326  0.1384  0.2222
 2013W        W 6077   0.997   1.449  10.614 -0.0880  0.0429 -0.1277
 2014W        W 6078   2.831   8.717   8.622 -0.1801  0.2484 -0.1725
 2015W        W 6079  10.542   9.793  10.433  0.0808  0.5093 -0.0862
 2016W        W 6080   0.496   0.116  10.952 -0.3595  0.2155  0.0412
 2017W        W 6081   1.636   7.671  10.605  0.2103  0.3513  0.0424
 2018W        W 6082   6.489   5.821   2.128 -0.4496 -0.0475 -0.4134
 2019W        W 6083   5.349   5.421   8.437  0.2691  0.0736 -0.2308
 2020W        W 6084   5.800   4.674   1.774 -0.1759  0.0229  0.1757
 2021W        W 6085   6.705   7.747  10.340  0.2833  0.2564 -0.0270
 2022W        W 6086   6.229   6.128   0.355 -0.1419  0.1652 -0.0948
 2023W        W 6087   0.643   1.070  10.458  0.0786  0.0022 -0.0785
 2024W        W 6088   7.525   2.641   7.429 -0.0061 -0.2066  0.1101
 2025W        W 6089   0.850   3.649   2.121 -0.1145 -0.0303 -0.1783
 2026W        W 6090   2.730   8.113   9.532 -0.1176 -0.1125 -0.1605
 2027W        W 6091   8.711   6.775   9.561  0.0291  0.0552 -0.4527
 2028W        W 6092   1.785   0.249   0.463 -0.0843  0.2778 -0.0972
 2029W        W 6093   3.433   4.399   3.340 -0.0783 -0.0259 -0.1306
 2030W        W 6094   9.662   7.843   1.515 -0.2713  0.1181 -0.0051
 2031W        W 6095  10.210   4.148   1.787 -0.3069 -0.1370 -0.1230
 2032W        W 6096   8.713   1.495   8.349  0.1350  0.2065  0.1668
 2033W        W 6097  10.225   2.933  10.315 -0.0589  0.2340 -0.1653
 2034W        W 6098   9.744   1.573   2.762 -0.0133 -0.1210 -0.3598
 2035W        W 6099   1.065   6.085   8.746 -0.0952  0.0292 -0.1201
 2036W        W 6100  10.405   7.225  11.194  0.2233 -0.1107  0.0534
 2037W        W 6101   2.015   1.079  10.311  0.1513 -0.1948  0.1368
 2038W        W 6102  10.571  10.288   3.178  0.0047  0.1808  0.2207
 2039W        W 6103  10.387   1.090   2.462  0.1186  0.1356 -0.1797
 2040W        W 6104   4.986   9.357   1.282  0.1818 -0.0853 -0.1624
 2041W        W 6105   0.299   0.910   1.473 -0.0862 -0.1272 -0.3818
 2042W        W 6106   7.590  10.662   8.260 -0.0182 -0.1627 -0.2787
 2043W        W 6107   8.250   8.933   2.130  0.2832  0.0493 -0.1678
 2044W        W 6108  10.500   1.109   8.961 -0.0318  0.0014  0.2647
 2045W        W 6109   2.492   1.853  10.164 -0.0598  0.0473  0.3222
 2046W        W 6110   7.528  10.134   2.019 -0.3305  0.4526  0.3065
 2047W        W 6111   6.895   7.244   2.263 -0.0252 -0.0100  0.0912
 2048W        W 6112   2.123   6.950   8.351  0.3967  0.4277 -0.1603
 2049W        W 6113   4.858  10.233   9.053 -0.0588 -0.1264 -0.0193
 2050W        W 6114   6.004  10.358  10.921  0.0388  0.0312 -0.1913
 2051W        W 6115   6.446   2.585  11.042  0.2552 -0.0679  0.2730
 2052W        W 6116   5.731   0.151   3.491 -0.4729 -0.2691  0.1731
 2053W        W 6117   3.392   5.925   0.318 -0.0823 -0.2703 -0.3609
 2054W        W 6118   1.284   6.752   9.570  0.0300 -0.1276  0.0703
 2055W        W 6119  10.644   9.436   8.063  0.0446 -0.1731  0.0946
 2056W        W 6120   4.552   0.147   0.898  0.0850  0.1127 -0.2056
 2057W        W 6121   1.043   1.236   2.517  0.0959 -0.0251  0.1468
 2058W        W 6122   1.300   0.054   0.630 -0.1419 -0.0420 -0.1651
 2059W        W 6123   2.929   9.717   2.862  0.1663 -0.1893 -0.1275
 2060W        W 6124   1.911   3.152   3.715  0.0725  0.0061  0.0944
 2061W        W 6125   8.153   7.910   0.681 -0.1756  0.2581  0.1842
 2062W        W 6126   2.300   4.258   0.119 -0.0568 -0.3494  0.0822
 2063W        W 6127   6.607   7.768   9.143  0.2862 -0.2736  0.1577
 2064W        W 6128   7.922   2.845   2.109 -0.0617  0.0385  0.3885
 2065W        W 6129   2.830   2.020   1.767 -0.0089  0.2213 -0.1126
 2066W        W 6130   3.194   9.193   9.377  0.2673  0.0691 -0.1813
 2067W        W 6131   3.428   3.939  11.181 -0.0821  0.0857  0.0592
 2068W        W 6132   0.520   5.598   0.876  0.0406  0.0372  0.2416
 2069W        W 6133   7.089   4.369   7.208 -0.0919 -0.0546  0.1337
 2070W        W 6134   5.205   7.891   7.978 -0.1653  0.3323 -0.1513
 2071W        W 6135   0.522   7.931   2.762  0.1392 -0.3107  0.3521
 2072W        W 6136   4.957   5.610  10.738 -0.2137 -0.0931  0.1331
 2073W        W 6137   1.525   2.658   9.407 -0.1141  0.1398 -0.1040
 2074W        W 6138  10.715   9.841   1.759  0.0528  0.0096  0.0015
 2075W        W 6139   2.542   9.833  10.365 -0.0772  0.1394 -0.2449
 2076W        W 6140   1.819   0.896   9.793  0.1856  0.4024 -0.4055
 2077W        W 6141   4.562   6.396   8.394 -0.3210  0.0245 -0.0489
 2078W        W 6142   2.640   5.485   9.008  0.0506  0.2042  0.2260
 2079W        W 6143   3.060   8.972   8.240 -0.1748  0.1261 -0.0324
 2080W        W 6144   0.643   8.491   0.002 -0.1104 -0.0297 -0.2388
 2081W        W 6145   2.785   0.137  10.889 -0.0966 -0.2970 -0.2432
 2082W        W 6146   1.795   2.007   8.708  0.2906  0.0408  0.1396
 2083W        W 6147  10.592   7.047   9.938 -0.0665 -0.1665 -0.2839
 2084W        W 6148   6.374   4.448   2.893 -0.0933  0.1576  0.1386
 2085W        W 6149   8.142   2.421   3.796  0.2117 -0.0512  0.0810
 2086W        W 6150   6.322   4.763   1.789  0.1723 -0.3208  0.0796
 2087W        W 6151   2.410   7.942  10.852  0.1002  0.0216 -0.1200
 2088W        W 6152   9.191   9.082   2.137  0.1415 -0.0252  0.2150
 2089W        W 6153   3.746   3.392   2.342 -0.2354  0.0317 -0.3098
 2090W        W 6154   6.496   4.206  10.929 -0.1170 -0.0461 -0.0309
 2091W        W 6155   8.869   1.311   2.652 -0.0424 -0.0703 -0.1528
 2092W        W 6156   0.567   9.748  10.276 -0.2843 -0.3668 -0.1057
 2093W        W 6157   3.417   4.933   8.813 -0.0839  0.1085 -0.0895
 2094W        W 6158   7.608   9.345   8.829  0.2933 -0.0746 -0.1708
 2095W        W 6159   9.847   4.520   1.723 -0.0311 -0.2260  0.0909
 2096W        W 6160   3.022   9.666   1.705  0.2073 -0.0126 -0.2863
 2097W        W 6161   3.252   1.737   2.340 -0.1067  0.1299 -0.1995
 2098W        W 6162  10.169   8.796   2.376  0.0840  0.2233 -0.2116
 2099W        W 6163   8.171  10.099   7.941 -0.1012 -0.3184 -0.0173
 2100W        W 6164   5.497   2.211  10.124  0.1894 -0.0001  0.1565
 2101W        W 6165   8.279   3.313   9.878 -0.0127  0.0411 -0.0498
 2102W        W 6166   3.825   1.986   7.800 -0.1528 -0.1033  0.0351
 2103W        W 6167   5.530   3.866   9.517  0.0659  0.1597  0.2286
 2104W        W 6168   3.522   2.307  10.561 -0.1967  0.5073 -0.2853
 2105W        W 6169   7.962   0.823   9.229  0.2431 -0.0063  0.0417
 2106W        W 6170   8.776   3.961   0.599  0.0687 -0.0536  0.0151
 2107W        W 6171   4.108   4.185   7.682  0.1424 -0.0827 -0.2264
 2108W        W 6172   5.137   6.127   3.624 -0.0572 -0.0000 -0.0440
 2109W        W 6173   6.771   9.817   0.461  0.1078  0.0246  0.3190
 2110W        W 6174   7.829   9.359   0.821  0.0088 -0.2988  0.1445
 2111W        W 6175   7.755   1.161   6.699  0.0688 -0.1946  0.4469
 2112W        W 6176   0.149   1.171   1.907 -0.0564  0.5107  0.0536
 2113W        W 6177   3.229   7.732   7.951  0.0497  0.1733  0.1256
 2114W        W 6178   9.558   0.428   7.389 -0.1288  0.1605  0.0404
 2115W        W 6179   2.140   4.796   9.308 -0.0461  0.0309  0.2914
 2116W        W 6180   5.954   7.535   0.398 -0.1077  0.0950  0.3605
 2117W        W 6181   1.488   3.044   1.745 -0.3323  0.2314 -0.2488
 2118W        W 6182   9.991   6.091   9.252 -0.3018 -0.0987 -0.0131
 2119W        W 6183   7.402   6.188   9.780 -0.0601 -0.1504 -0.0909
 2120W        W 6184   8.443   7.723   9.548  0.3583  0.0390 -0.3148
 2121W        W 6185   2.138   7.831   9.084  0.1787 -0.0582  0.3259
 2122W        W 6186  10.376   9.773   8.645 -0.0205 -0.0741  0.0388
 2123W        W 6187   1.548   1.336  10.491  0.0861  0.0353 -0.2670
 2124W        W 6188   6.435   9.560   8.567  0.0698  0.1060  0.1840
 2125W        W 6189   4.255   5.978   9.120 -0.0443 -0.0990 -0.2075
 2126W        W 6190   4.711   8.418   2.379  0.0922  0.3104 -0.0211
 2127W        W 6191   4.845   2.832   8.879 -0.2826  0.2240 -0.1057
 2128W        W 6192   3.784   9.405   1.913 -0.0938  0.1968  0.1814
 2129W        W 6193   8.441   8.273  11.143 -0.0319 -0.0025  0.1640
 2130W        W 6194   8.429   4.534  10.663  0.1197 -0.0002  0.3471
 2131W        W 6195  10.598   0.768   0.326  0.0294 -0.0109 -0.1631
 2132W        W 6196  10.526   5.837   2.748  0.0684 -0.1648 -0.1273
 2133W        W 6197   6.047   8.848   0.657 -0.0486 -0.4912 -0.1928
 2134W        W 6198  10.684   2.064   9.099 -0.1021 -0.0392  0.3006
 2135W        W 6199   7.499   9.571   1.154  0.3476 -0.1170 -0.1657
 2136W        W 6200   1.364   1.100   2.054 -0.2166  0.1168 -0.0664
 2137W        W 6201   3.560   6.575   1.077 -0.0088 -0.2322  0.2777
 2138W        W 6202   4.925   7.408   7.549 -0.0291  0.1248 -0.3348
 2139W        W 6203   7.414   1.144  11.253  0.2046 -0.1299  0.0794
 2140W        W 6204  10.669   4.881   2.413  0.0704  0.1117  0.1346
 2141W        W 6205   9.072   4.938   7.225 -0.0960 -0.0041  0.1460
 2142W        W 6206   5.307   5.925  10.051  0.0467 -0.2249 -0.1683
 2143W        W 6207   8.324   7.029   7.898 -0.2382  0.2355 -0.0104
 2144W        W 6208   0.446   3.064   0.474 -0.1728  0.0901  0.4162
 2145W        W 6209   8.466   2.275   7.021  0.0200 -0.2336  0.0009
 2146W        W 6210  10.668   3.116   9.183 -0.0637  0.0278 -0.1991
 2147W        W 6211   5.761   6.366   0.280  0.0062  0.2652  0.2124
 2148W        W 6212   0.213   1.961   8.735  0.0966  0.0320 -0.0420
 2149W        W 6213   0.070   9.704   8.553 -0.0264  0.0674  0.2905
 2150W        W 6214   1.392   3.546   1.792  0.0402  0.0126 -0.0675
 2151W        W 6215   0.531   9.737   9.782  0.1762  0.0878 -0.1025
 2152W        W 6216   4.635   3.520   7.497  0.2266 -0.1129 -0.0081
 2153W        W 6217   0.395   0.724   8.109  0.3684 -0.1077 -0.1971
 2154W        W 6218   3.030   4.540   8.085  0.0574 -0.1648  0.0157
 2155W        W 6219   1.850   0.567  11.119 -0.0171  0.0561 -0.0073
 2156W        W 6220   6.598   4.723   1.351 -0.2978  0.2005  0.0488
 2157W        W 6221   0.734   0.774   0.484 -0.1790  0.1616 -0.2002
 2158W        W 6222   2.192   3.334   0.706  0.1803 -0.0845  0.2905
 2159W        W 6223   3.078   9.403  10.734  0.3752  0.0608 -0.3008
 2160W        W 6224   6.897   9.349   3.216 -0.2242 -0.0960 -0.0300
 2161W        W 6225   6.746   2.717   9.868  0.0759  0.0960  0.0401
 2162W        W 6226   9.546   9.935  10.230 -0.0627  0.1659  0.0047
 2163W        W 6227   3.539   0.886   1.746  0.0809 -0.2272  0.1101
 2164W        W 6228   3.693   9.360   3.196  0.0054 -0.1107  0.0039
 2165W        W 6229   5.040   5.134   2.202  0.1233  0.0339  0.0699
 2166W        W 6230   6.570   6.423   7.722  0.3264  0.0639 -0.0435
 2167W        W 6231   5.514   3.871   8.050 -0.4222 -0.2224  0.0863
 2168W        W 6232   3.420   5.141   8.343  0.3685 -0.0442  0.0372
 2169W        W 6233   9.975   6.895   1.597 -0.2890  0.0889 -0.1371
 2170W        W 6234   2.087   4.292   9.062  0.0095  0.3698 -0.3933
 2171W        W 6235   7.016   1.582   0.005 -0.1884 -0.1723 -0.0596
 2172W        W 6236   2.376   7.520  10.525 -0.0429 -0.0302 -0.3421
 2173W        W 6237   4.071   8.991   9.257 -0.0817 -0.0169  0.0962
 2174W        W 6238   9.055   8.429   0.845 -0.0885 -0.3082  0.2848
 2175W        W 6239   4.353  10.400   8.945  0.1042 -0.3367 -0.2107
 2176W        W 6240   3.684   3.463   7.719 -0.1630  0.1403 -0.2165
 2177W        W 6241   5.181   8.403   1.058 -0.0203  0.0828  0.0671
 2178W        W 6242   7.481   0.963   1.871  0.2783  0.0285 -0.1109
 2179W        W 6243   9.992   8.699   2.900  0.0413 -0.1857  0.2203
 2180W        W 6244   6.378   8.394   0.657  0.0732  0.0220 -0.0478
 2181W        W 6245   4.695   5.340   8.264 -0.3076  0.1531 -0.1678
 2182W        W 6246   5.392   6.323   2.025  0.1852  0.1200  0.1151
 2183W        W 6247   5.181   4.585   7.866  0.0553 -0.3646  0.2906
 2184W        W 6248   6.106   5.782   3.096 -0.1598  0.0272 -0.1096
 2185W        W 6249   8.529   5.278   2.261 -0.1709  0.1598  0.0285
 2186W        W 6250   0.825   4.002   3.512 -0.3709  0.2850 -0.0272
 2187W        W 6251   6.968   1.035   0.781 -0.1743  0.1143 -0.0001
 2188W        W 6252   0.649   5.914   3.181 -0.1326  0.0695  0.0634
 2189W        W 6253   0.076   9.179   1.940  0.1541 -0.1283  0.0911
 2190W        W 6254   9.504   7.355   2.818  0.0221  0.0891  0.1404
 2191W        W 6255  10.558   7.093   7.707  0.0228 -0.1220 -0.0571
 2192W        W 6256   9.329   8.742   8.711 -0.1753  0.1176 -0.1553
 2193W        W 6257   4.538   8.729   9.436  0.0682  0.1636 -0.3135
 2194W        W 6258   9.854   1.212   0.430  0.0775 -0.2424 -0.1921
 2195W        W 6259   0.958  10.203   6.990  0.2883  0.2015  0.0610
 2196W        W 6260   9.696   5.883   1.683  0.3434 -0.3417 -0.1002
 2197W        W 6261   6.361   7.503   9.527 -0.3126  0.1505 -0.0727
 2198W        W 6262   8.264   8.786   9.750 -0.0980 -0.4918  0.0267
 2199W        W 6263   9.572   5.695   9.142  0.1099  0.2188  0.1726
 2200W        W 6264   2.153   9.776  10.054  0.3077  0.1658 -0.3084
 2201W        W 6265   6.414   6.814  11.012  0.2184 -0.0310  0.0142
 2202W        W 6266   1.540   4.253  11.055 -0.2130  0.1109 -0.3585
 2203W        W 6267  10.046   6.470   1.897  0.2017  0.1900 -0.1307
 2204W        W 6268   4.826   3.465   9.775  0.3090  0.0341 -0.2027
 2205W        W 6269   7.666   4.780   9.163  0.2528 -0.1623  0.0986
 2206W        W 6270   2.601   6.929   2.403  0.0447 -0.1327  0.0815
 2207W        W 6271   5.476   6.797   1.984 -0.0385 -0.1588 -0.0669
 2208W        W 6272   0.216   8.647   0.305  0.0222 -0.0122  0.2240
 2209W        W 6273   7.259   9.057   2.114 -0.1151 -0.2190  0.1001
 2210W        W 6274   7.520   3.983   8.966  0.0061 -0.2641 -0.0256
 2211W        W 6275   6.190   6.973   7.895 -0.4799 -0.0465  0.0232
 2212W        W 6276   4.284   9.937   9.656 -0.2698  0.0916  0.3742
 2213W        W 6277   0.949   3.806  10.590 -0.2364 -0.0163  0.0134
 2214W        W 6278   1.126   4.556   1.670  0.1092  0.1993 -0.0002
 2215W        W 6279  10.328   6.470  10.502  0.0014 -0.1096  0.0680
 2216W        W 6280   1.793   8.398   1.030  0.0318 -0.0891  0.3115
 2217W        W 6281   8.462   2.110   3.369  0.2764  0.1090 -0.1383
 2218W        W 6282   5.935   9.229   7.619  0.2920 -0.1582 -0.0718
 2219W        W 6283   6.965   6.199   7.328 -0.0705  0.1455  0.0927
 2220W        W 6284   5.926   0.623   8.691 -0.0524 -0.1489 -0.3249
 2221W        W 6285   8.434   0.009   0.362  0.3683 -0.1735  0.3219
 2222W        W 6286   8.627   3.356   2.930  0.0610 -0.1025  0.0630
 2223W        W 6287   4.765   8.682   8.314  0.2354 -0.0896 -0.2241
 2224W        W 6288   2.609   1.768   0.818  0.0602  0.4410  0.0352
 2225W        W 6289   6.452   7.071   2.319 -0.0600 -0.3309 -0.0566
 2226W        W 6290   9.437   0.400   8.368 -0.0300 -0.2446 -0.0853
 2227W        W 6291   1.612   1.026   3.681  0.1842  0.2574 -0.1985
 2228W        W 6292   5.680   3.671   0.386  0.0205 -0.0437 -0.0492
 2229W        W 6293   8.778   7.856   7.381 -0.0326  0.0172 -0.1536
 2230W        W 6294   9.043   4.715  10.984  0.0785 -0.0965 -0.3390
 2231W        W 6295   8.016   3.904   8.995  0.0330  0.1564 -0.2598
 2232W        W 6296   7.110   4.203   9.228 -0.3599  0.3642  0.1835
 2233W        W 6297   8.719   1.238  10.537  0.2300  0.1292  0.5007
 2234W        W 6298   4.393   5.076   8.680  0.0736 -0.0893  0.1001
 2235W        W 6299   4.478   9.377   0.564  0.0875 -0.0671 -0.0364
 2236W        W 6300   4.836   4.859   1.715  0.0432 -0.2521 -0.0315
 2237W        W 6301   8.417   8.126   1.618  0.1246 -0.5071 -0.0513
 2238W        W 6302   7.392   9.824   8.765  0.1643  0.0022  0.0828
 2239W        W 6303   2.441   7.684   9.480 -0.1864 -0.0260 -0.1009
 2240W        W 6304   3.608   8.671   7.583 -0.1840  0.1264  0.0800
 2241W        W 6305  10.178   1.363   2.879 -0.0653  0.0172 -0.0399
 2242W        W 6306   2.458   3.977   9.332 -0.0491  0.2439 -0.0622
 2243W        W 6307   5.132   0.882   9.280  0.1553  0.1343  0.0885
 2244W        W 6308   0.472   8.487   8.268 -0.2969 -0.0994  0.1487
 2245W        W 6309   4.696   6.207   8.781  0.0060  0.2980  0.1946
 2246W        W 6310   0.492   1.556   8.730 -0.0100 -0.2472  0.0986
 2247W        W 6311   9.062   1.307   0.478  0.0654  0.1204  0.0211
 2248W        W 6312   4.401   5.162   7.953  0.1639  0.1335 -0.0742
 2249W        W 6313   7.631   2.940   9.887  0.0236 -0.1940  0.1643
 2250W        W 6314   0.238   6.458   7.720 -0.1596 -0.2521 -0.1372
 2251W        W 6315   3.743   3.129   0.331  0.1474 -0.2144  0.1232
 2252W        W 6316   9.305   3.394  10.331 -0.3934 -0.1165  0.3456
 2253W        W 6317   3.599  10.474   9.992 -0.1410  0.0972 -0.0868
 2254W        W 6318   0.216  10.246   1.642 -0.0206 -0.0902 -0.0878
 2255W        W 6319   0.785   4.308   1.890  0.0077  0.3002  0.2128
 2256W        W 6320   2.959   6.975   0.384 -0.0144  0.0428 -0.0085
 2257W        W 6321   6.159   8.920  10.652 -0.1523 -0.0731  0.0122
 2258W        W 6322   8.058   5.705   0.065 -0.0810  0.0379 -0.2351
 2259W        W 6323   4.599   7.928   1.872  0.0345  0.0266 -0.1276
 2260W        W 6324   8.479   7.248   9.320 -0.0933  0.1674 -0.4332
 2261W        W 6325   9.397   2.044   7.937  0.2271  0.1112 -0.0612
 2262W        W 6326   1.141   0.220   2.096 -0.1746 -0.0507  0.4505
 2263W        W 6327   0.037   2.277   0.711 -0.0216 -0.0466 -0.0570
 2264W        W 6328   4.562   2.180   0.472  0.1491  0.0293  0.1429
 2265W        W 6329   2.682   4.927   1.364  0.0573  0.1413 -0.4605
 2266W        W 6330   6.021   3.868   2.276  0.1742  0.0587  0.0359
 2267W        W 6331   6.468  10.339   1.204  0.1025  0.2617 -0.1805
 2268W        W 6332   3.692   6.145  10.744 -0.0162  0.2541 -0.0506
 2269W        W 6333   1.558   0.522   3.553 -0.1267 -0.1468  0.2663
 2270W        W 6334   1.228   4.052   1.785  0.0257  0.5273 -0.0557
 2271W        W 6335   5.041   6.062   0.354 -0.1424 -0.0121 -0.0930
 2272W        W 6336   2.494   6.097   8.159  0.0057 -0.1190  0.0340
 2273W        W 6337   8.827  10.696  11.316 -0.1869  0.0765  0.2368
 2274W        W 6338   2.019   3.753   0.986  0.2451  0.2036 -0.0201
 2275W        W 6339   2.333   6.038  10.666 -0.1423 -0.2340  0.1042
 2276W        W 6340   1.702   4.020   2.056  0.1108  0.0098 -0.0551
 2277W        W 6341   3.584  10.208   2.038  0.0956  0.1721 -0.2325
 2278W        W 6342   9.999   4.580   0.742 -0.1680 -0.1022  0.0564
 2279W        W 6343   7.903   9.534   2.514 -0.0025  0.1224  0.0883
 2280W        W 6344   1.089   1.168   8.483  0.1743  0.0175 -0.5188
 2281W        W 6345   2.425   0.784   2.486  0.1768  0.0092  0.1584
 2282W        W 6346   1.247   1.169   7.918  0.0179  0.1571 -0.0622
 2283W        W 6347   4.152   2.814   8.379  0.2106 -0.0703 -0.2246
 2284W        W 6348  10.429   5.778   2.192  0.0354 -0.0462 -0.1462
 2285W        W 6349   0.257   1.963  10.536 -0.1902 -0.0643 -0.0843
 2286W        W 6350   6.072   4.903   1.327  0.0616 -0.0482  0.3446
 2287W        W 6351   0.975   4.581   0.895 -0.1951 -0.2249  0.1916
 2288W        W 6352   3.315   2.170   0.473 -0.3297 -0.2493 -0.0396
 2289W        W 6353   9.824   1.711   1.586  0.0783  0.0910  0.0262
 2290W        W 6354   1.018   9.885   7.487  0.1194  0.0991  0.1721
 2291W        W 6355   4.963   5.613   8.692  0.1022 -0.0304 -0.2264
 2292W        W 6356   6.426   2.295   0.291 -0.3353  0.2484 -0.2208
 2293W        W 6357   9.061  10.458   8.952  0.2884  0.1470 -0.1142
 2294W        W 6358   1.795   8.107   9.985 -0.1451 -0.0595  0.2125
 2295W        W 6359   4.656   7.332   8.924  0.1557  0.0894  0.4261
 2296W        W 6360   6.877   2.758   8.047 -0.0304 -0.0897 -0.1297
 2297W        W 6361   8.033   1.654   7.718  0.2381 -0.2174 -0.2605
 2298W        W 6362   9.345   2.882   8.611 -0.2385  0.0412 -0.1944
 2299W        W 6363   1.407   8.823   2.402 -0.0446  0.0269 -0.0165
 2300W        W 6364   6.680   2.663   0.573  0.0167 -0.3027 -0.0634
 2301W        W 6365   2.133   5.331   9.475 -0.0636  0.1703  0.1326
 2302W        W 6366   9.700   8.023  11.317  0.1807 -0.0739 -0.1670
 2303W        W 6367   7.388   5.377  10.542  0.0050 -0.1244  0.0137
 2304W        W 6368   1.438  10.564   1.374  0.0288 -0.0714  0.0392
 2305W        W 6369   1.723   7.584   7.186  0.0623 -0.1563  0.1228
 2306W        W 6370   0.379  10.391   0.612  0.2508  0.1555 -0.1573
 2307W        W 6371   9.160   2.715   7.867  0.1510  0.3155 -0.4272
 2308W        W 6372   4.715   6.004   3.254  0.0654  0.0171 -0.3590
 2309W        W 6373   5.366   0.087   9.399  0.1490  0.1251  0.0358
 2310W        W 6374   6.950   4.731   8.587 -0.0512  0.0614  0.2363
 2311W        W 6375   0.469   0.735   0.921 -0.1337 -0.1501  0.0711
 2312W        W 6376   5.574   0.062   0.777 -0.2576 -0.0318  0.2295
 2313W        W 6377   4.437   9.538   8.592 -0.1049  0.0052 -0.2103
 2314W        W 6378   2.630   6.529   2.812  0.0788  0.4366  0.2710
 2315W        W 6379   9.393  10.642   8.382  0.0950 -0.0946  0.0074
 2316W        W 6380   3.038   8.263   0.885 -0.0147  0.0649 -0.0231
 2317W        W 6381   4.798   8.873   1.200  0.2907 -0.1360 -0.1622
 2318W        W 6382   1.904   6.626   7.674  0.0707 -0.0460  0.4670
 2319W        W 6383   0.731   0.641  10.103  0.2314  0.3014 -0.1782
 2320W        W 6384   2.199   1.911   1.110 -0.1899  0.0850  0.0557
 2321W        W 6385   3.265   0.376   1.011 -0.0531 -0.0950  0.1709
 2322W        W 6386   2.357   8.688   8.832  0.0388 -0.1031  0.1521
 2323W        W 6387   4.691   6.976   1.364  0.0919 -0.0797 -0.0326
 2324W        W 6388   3.482   3.524   9.941  0.0773  0.2244  0.0983
 2325W        W 6389   9.463   8.302   1.816  0.0417 -0.0167 -0.0429
 2326W        W 6390   2.522  10.407   8.155  0.2402 -0.3199  0.0485
 2327W        W 6391   8.226   8.862   7.454  0.1655 -0.0583 -0.1920
 2328W        W 6392   2.980   1.896  10.045  0.0212 -0.5383 -0.0395
 2329W        W 6393   8.762   0.329   0.834 -0.1646  0.1614  0.1535
 2330W        W 6394   4.513   2.346   9.437  0.2540 -0.0767 -0.0736
 2331W        W 6395   9.560   8.470   0.890  0.0517 -0.1371  0.0536
 2332W        W 6396   5.080   4.612   9.517 -0.3533 -0.0532  0.0222
 2333W        W 6397   4.223   2.138   1.213  0.4208  0.1189 -0.2144
 2334W        W 6398   6.400   5.080   7.795  0.0711 -0.0019  0.0362
 2335W        W 6399   5.513   6.865   2.488 -0.3326 -0.1032 -0.0180
 2336W        W 6400   0.780   1.864   2.168 -0.1132  0.2822 -0.0827
 2337W        W 6401   8.308   5.028   8.346 -0.2712  0.1207 -0.0239
 2338W        W 6402   2.909   1.648  10.930  0.0147  0.1583 -0.0313
 2339W        W 6403   9.861  10.220   0.257 -0.1504 -0.1649  0.2458
 2340W        W 6404   8.494   0.767  10.830  0.0688  0.2233 -0.1205
 2341W        W 6405   2.976   6.208   8.900 -0.0165 -0.2502 -0.0168
 2342W        W 6406   0.489   2.039   8.366  0.2605  0.0220  0.0715
 2343W        W 6407   2.771   0.428   2.624  0.0590 -0.0149  0.0437
 2344W        W 6408   9.900  10.006   0.854  0.1023  0.1157 -0.0138
 2345W        W 6409   1.616   7.860   3.352  0.0756  0.0018  0.1952
 2346W        W 6410   4.640   6.158   7.780  0.1914 -0.1931  0.1078
 2347W        W 6411   6.262  10.224   1.677 -0.1758 -0.1833  0.1603
 2348W        W 6412   8.922   5.458   9.817  0.1156  0.2272  0.1870
 2349W        W 6413   3.424   2.923   1.218  0.3494 -0.1183  0.3335
 2350W        W 6414   8.021   3.694   1.966  0.2493  0.0945 -0.1326
 2351W        W 6415   5.799   5.823  10.174  0.4576 -0.3656  0.0775
 2352W        W 6416   3.093   3.823   0.269  0.0642  0.2683  0.1694
 2353W        W 6417   2.186  10.733   7.611 -0.0281 -0.2842  0.1486
 2354W        W 6418   9.524   4.945  10.290 -0.4592  0.0214  0.0666
 2355W        W 6419   2.219   8.163   2.681 -0.3039 -0.2559  0.1882
 2356W        W 6420   3.510   2.910  11.205 -0.0162 -0.0489  0.2135
 2357W        W 6421   9.986   5.767   1.252 -0.1955  0.4849  0.0841
 2358W        W 6422   1.032   4.360   4.024 -0.0002  0.2570  0.2008
 2359W        W 6423   6.742   5.365   8.299 -0.2928  0.4122  0.2113
 2360W        W 6424   0.598   6.422   7.339 -0.1198 -0.0134 -0.0085
 2361W        W 6425   6.817   7.134   1.428 -0.0110  0.1526 -0.0352
 2362W        W 6426   8.846   8.783   9.042 -0.0968 -0.0769  0.0020
 2363W        W 6427   4.020   6.007   0.557 -0.1563 -0.2477  0.2652
 2364W        W 6428   3.716   0.135  10.577  0.0962 -0.1261  0.3002
 2365W        W 6429   8.041   9.632   8.281  0.2294 -0.1883 -0.0060
 2366W        W 6430   0.681   4.782   0.129  0.0357 -0.1399  0.5127
 2367W        W 6431   4.182   9.721   0.981  0.0180 -0.1263 -0.1892
 2368W        W 6432   6.841   6.032   0.340 -0.3235 -0.0769  0.0129
 2369W        W 6433  10.572   6.232   9.306  0.2572  0.1412 -0.0954
 2370W        W 6434   9.178   1.745   8.354  0.2020  0.1266  0.0367
 2371W        W 6435   1.796   3.597  10.342 -0.0803  0.1676 -0.1539
 2372W        W 6436   0.017   2.269   1.913  0.0817  0.2403 -0.0366
 2373W        W 6437   1.723   6.520   0.054 -0.0261 -0.0095 -0.0713
 2374W        W 6438   3.809   0.139  10.033 -0.2862 -0.1388 -0.3666
 2375W        W 6439   9.727   7.098   0.051 -0.2737 -0.3070  0.1647
 2376W        W 6440   4.869   9.295   0.325  0.1432  0.4415  0.3438
 2377W        W 6441   8.132   4.844   8.782 -0.1226 -0.1667 -0.5173
 2378W        W 6442   4.194   0.041   9.190 -0.0045 -0.2911 -0.4066
 2379W        W 6443   2.995   4.744   8.589  0.2155 -0.0267  0.0949
 2380W        W 6444   4.959   4.325   1.426  0.0372 -0.2329 -0.1025
 2381W        W 6445   3.252   2.676   1.630  0.5121 -0.0921 -0.3568
 2382W        W 6446   3.368   5.242   7.860 -0.1396  0.0237 -0.0296
 2383W        W 6447   9.009   8.568  10.472  0.1671 -0.1914 -0.2441
 2384W        W 6448   9.740   7.818   2.784  0.0884 -0.0553  0.1355
 2385W        W 6449   7.826   0.852  11.174 -0.0451  0.1611  0.0722
 2386W        W 6450   9.979   0.603   1.292 -0.1689  0.1020  0.1963
 2387W        W 6451   0.217   7.243   1.455 -0.2729  0.0281 -0.2267
 2388W        W 6452   1.469   7.326   0.246 -0.1117 -0.1942  0.3218
 2389W        W 6453   9.090   4.094   2.792 -0.0769 -0.2383 -0.0983
 2390W        W 6454   8.635   3.431   3.809  0.1897 -0.0345  0.2927
 2391W        W 6455   2.754   2.709   9.693  0.1857  0.0677 -0.0100
 2392W        W 6456   6.585   3.101  10.185 -0.1131  0.2158 -0.2523
 2393W        W 6457   2.361   6.457   9.136 -0.1502  0.0097  0.3599
 2394W        W 6458  10.500   3.933   0.353 -0.2308  0.1227 -0.0726
 2395W        W 6459   0.795   6.710   8.361 -0.0541 -0.2085 -0.1721
 2396W        W 6460   7.346   4.174   2.855  0.2576  0.0127  0.0259
 2397W        W 6461   8.676   4.254   2.604 -0.1310  0.2977 -0.2339
 2398W        W 6462   6.681   6.648   1.567 -0.0689  0.2575 -0.4366
 2399W        W 6463  10.742   6.360   0.342  0.0698 -0.0085 -0.2266
 2400W        W 6464   5.327   2.712   2.312 -0.0789  0.1875  0.2256
 2401W        W 6465   7.919   6.477   0.686 -0.0272 -0.0390  0.0746
 2402W        W 6466   8.452   3.298  11.158 -0.1606 -0.1212 -0.0594
 2403W        W 6467   2.181  10.461   3.179 -0.0016 -0.0653  0.0445
 2404W        W 6468   7.240   5.850   0.643  0.0232 -0.1590  0.1709
 2405W        W 6469   5.159   7.011   1.562  0.0107  0.0997 -0.1607
 2406W        W 6470   9.258   8.146  10.471 -0.1769  0.3102  0.2280
 2407W        W 6471   2.403   9.486   1.216 -0.1361 -0.2656 -0.2024
 2408W        W 6472   8.554  10.736  10.378 -0.0324 -0.1329 -0.4240
 2409W        W 6473   3.701   7.612   8.767 -0.3231  0.0773 -0.1080
 2410W        W 6474   5.213   9.335   2.332  0.0118 -0.1080  0.0109
 2411W        W 6475   0.569   6.107   2.316  0.3182 -0.1623  0.1465
 2412W        W 6476   2.518   1.762   2.053  0.0188  0.0085  0.4207
 2413W        W 6477   8.485   9.702   8.092  0.2181 -0.0917  0.1737
 2414W        W 6478   7.665   4.016   2.038 -0.0965 -0.1322 -0.0909
 2415W        W 6479   1.790   2.486  11.242 -0.2476  0.0389  0.3558
 2416W        W 6480   4.814   6.461   9.192 -0.2819 -0.0579  0.0530
 2417W        W 6481   1.438   9.750   8.461 -0.1462  0.0002 -0.5222
 2418W        W 6482   5.086   7.712  10.011  0.1311 -0.0036  0.5222
 2419W        W 6483   8.437   8.691   8.318 -0.0554 -0.0598  0.0331
 2420W        W 6484   8.801  10.079   9.300  0.1849 -0.1146  0.0376
 2421W        W 6485   3.203   8.070  10.484 -0.0810 -0.2494  0.0800
 2422W        W 6486   3.373   5.724   7.712 -0.0152  0.2133  0.1196
 2423W        W 6487   1.767   1.758   8.153 -0.3648  0.1604  0.2684
 2424W        W 6488  10.033   3.710   1.586 -0.1685  0.2862  0.1431
 2425W        W 6489   0.325   9.264   1.025 -0.0631 -0.1441 -0.3632
 2426W        W 6490   3.719   4.365  11.224  0.3834 -0.0802  0.0935
 2427W        W 6491   5.748   8.773   8.530 -0.1130  0.2349 -0.1142
 2428W        W 6492   0.230   3.522  10.241 -0.1275  0.0915  0.2919
 2429W        W 6493   0.493   4.022   7.710 -0.0024 -0.1302 -0.0238
 2430W        W 6494   7.933   0.932   1.116 -0.0647 -0.0940 -0.0733
 2431W        W 6495   0.378   0.446   8.563  0.3393 -0.2052 -0.0479
 2432W        W 6496   5.869  10.332   2.310  0.0287  0.0265  0.1957
 2433W        W 6497  10.642   2.047   7.608  0.0393 -0.0555  0.0470
 2434W        W 6498   6.093   5.313   2.986  0.2041 -0.1522  0.0051
 2435W        W 6499   0.611   3.913   1.579  0.2831 -0.0353 -0.0532
 2436W        W 6500   1.114   4.597   7.575 -0.2416  0.0906 -0.1581
 2437W        W 6501   4.016   8.792   1.014  0.0578  0.3173  0.1439
 2438W        W 6502   4.115   2.136   8.793  0.0852  0.0621  0.1017
 2439W        W 6503   3.088   4.822   1.586 -0.3036  0.2662  0.1798
 2440W        W 6504   5.249   1.417   3.538 -0.2457  0.0585 -0.2895
 2441W        W 6505   7.730   7.159   7.963 -0.1241 -0.0658  0.0886
 2442W        W 6506   7.778   5.086   1.361 -0.2647  0.0784  0.1313
 2443W        W 6507   2.213   8.866   9.672 -0.2977  0.0112  0.0735
 2444W        W 6508   8.524   1.258   2.244  0.1403  0.0969 -0.2195
 2445W        W 6509   6.667   7.343   0.878  0.0725 -0.1693 -0.3410
 2446W        W 6510   5.754   8.002   8.180  0.0998  0.0275 -0.0784
 2447W        W 6511   7.457   3.282   0.906 -0.0070 -0.1291 -0.2335
 2448W        W 6512   6.870  10.363   8.038  0.1059  0.0584 -0.1711
 2449W        W 6513   7.338   0.028   8.695  0.2861 -0.2383  0.3069
 2450W        W 6514   4.629   9.570  11.183 -0.0713  0.2644  0.2608
 2451W        W 6515   6.154   9.686   1.789  0.0563  0.0800 -0.0186
 2452W        W 6516   8.589   1.407   0.353  0.1574 -0.2716 -0.0705
 2453W        W 6517   4.115   8.863   8.374 -0.0375  0.1478  0.1381
 2454W        W 6518   5.585   1.899   2.690 -0.0014  0.2303  0.1186
 2455W        W 6519   0.988   4.199  10.281 -0.3226  0.1694  0.2658
 2456W        W 6520   0.683  10.231   1.530  0.0887 -0.0087  0.1719
 2457W        W 6521   7.353   4.714   8.230 -0.0443 -0.0751 -0.3154
 2458W        W 6522   2.533   8.438   9.862 -0.0134 -0.2194 -0.1486
 2459W        W 6523  10.535   7.020   1.224 -0.0797 -0.3085 -0.1975
 2460W        W 6524   6.534   9.690   9.030 -0.1709 -0.2728  0.1257
 2461W        W 6525   9.399   3.844   2.262  0.1411 -0.2644 -0.2393
 2462W        W 6526   2.274   4.999  10.308  0.1171 -0.1535 -0.0435
 2463W        W 6527   2.935   3.934   1.670  0.2078 -0.0689  0.0691
 2464W        W 6528   4.641   1.325   2.110  0.3346 -0.3263  0.2840
 2465W        W 6529   6.995   9.594   9.064 -0.1477 -0.0376  0.2068
 2466W        W 6530   6.946   6.661   8.143  0.1238 -0.0946 -0.0014
 2467W        W 6531   8.946   6.311   8.878  0.1305 -0.0058 -0.0085
 2468W        W 6532   9.934   3.324  10.714  0.0701  0.1760 -0.0605
 2469W        W 6533   2.274   4.193   0.725 -0.0552 -0.0072  0.2991
 2470W        W 6534   7.445   6.510   7.398  0.0840 -0.1956 -0.3569
 2471W        W 6535   0.495   2.575  10.427 -0.0108 -0.0452  0.2094
 2472W        W 6536   2.891   2.761  10.559  0.1657 -0.1555  0.0759
 2473W        W 6537   3.795   0.530   7.994 -0.2464  0.2581 -0.0851
 2474W        W 6538   2.590   2.367   1.505 -0.0676 -0.2323  0.1189
 2475W        W 6539   0.351   2.900   7.405 -0.3749  0.2486  0.2582
 2476W        W 6540   2.611   4.668  10.081  0.1683 -0.2057  0.4314
 2477W        W 6541   0.078   9.906   0.432  0.1139  0.1034 -0.0650
 2478W        W 6542   9.873   4.151   9.968  0.0982  0.2412 -0.4686
 2479W        W 6543   0.086   6.291   8.699 -0.2335 -0.0682 -0.1018
 2480W        W 6544   1.694   8.602   2.015 -0.1694 -0.0376  0.4210
 2481W        W 6545   0.849   1.869   9.767  0.0794 -0.3274 -0.4789
 2482W        W 6546   7.116   7.862   2.968  0.0840  0.0886 -0.5048
 2483W        W 6547   1.668   2.584   1.520  0.0848  0.2183 -0.0856
 2484W        W 6548   6.010   3.751   9.241  0.3258 -0.0045 -0.0624
 2485W        W 6549   4.761   1.815   2.116 -0.1226  0.1614 -0.3535
 2486W        W 6550   9.995   2.651   9.865 -0.2245  0.1624 -0.1398
 2487W        W 6551   7.558   1.614   8.194 -0.0656 -0.0320 -0.1827
 2488W        W 6552   8.106   3.516   2.459  0.0632  0.0749 -0.2575
 2489W        W 6553   7.794   6.019   9.464 -0.0256  0.0541  0.3046
 2490W        W 6554   1.390   0.037   3.272  0.1371 -0.1035 -0.2379
 2491W        W 6555   3.563   9.393   2.361  0.2358 -0.0342 -0.5572
 2492W        W 6556   0.744   3.861   8.552  0.0574  0.0847  0.2002
 2493W        W 6557  10.610   0.798   2.114 -0.4218 -0.2197 -0.1106
 2494W        W 6558   6.575   9.441   2.886  0.3016  0.2438  0.1968
 2495W        W 6559   4.253   3.751  11.019  0.0326  0.1082 -0.1060
 2496W        W 6560   6.054   0.184   0.774  0.1797 -0.3152  0.2832
 2497W        W 6561   3.073   2.381   0.051 -0.2639 -0.3116 -0.1054
 2498W        W 6562   4.809  10.751   0.475  0.5838 -0.2068 -0.0062
 2499W        W 6563   5.204   5.210  10.202  0.2948 -0.0757  0.0082
 2500W        W 6564   5.840   0.146  10.902  0.2408 -0.1001 -0.0590
 2501W        W 6565   6.854   1.332   9.400  0.0463  0.0614  0.0375
 2502W        W 6566   4.932   6.667   1.895 -0.2917 -0.0221  0.0633
 2503W        W 6567   3.838  10.050  11.053 -0.0269  0.2689 -0.0762
 2504W        W 6568   6.041   8.712   7.721 -0.0657 -0.3659 -0.1422
 2505W        W 6569   8.488   8.173   7.710  0.0254  0.0525 -0.2358
 2506W        W 6570   0.094   9.400   0.592  0.2378  0.0062  0.0782
 2507W        W 6571   0.843   6.540   0.088  0.2967  0.1477  0.0425
 2508W        W 6572   6.479   6.181   8.257 -0.4512 -0.2059  0.3513
 2509W        W 6573  10.013   3.386  11.249  0.0844 -0.0944  0.3163
 2510W        W 6574   7.546   3.144  10.594 -0.0670 -0.0557 -0.1861
 2511W        W 6575   3.546   8.381   9.397  0.0986 -0.1505 -0.2354
 2512W        W 6576   1.215   9.343  10.907 -0.2616 -0.1329 -0.2044
 2513W        W 6577   1.574   3.033   8.635  0.0091  0.1741 -0.1999
 2514W        W 6578   1.970   8.194   2.030  0.1709 -0.0145 -0.0771
 2515W        W 6579   7.044   1.475   2.829  0.1168 -0.0958 -0.3897
 2516W        W 6580  10.665   3.284   8.240 -0.0352  0.0345  0.1539
 2517W        W 6581   9.927  10.498   0.697  0.0910 -0.1816 -0.1304
 2518W        W 6582   1.648   9.365   0.917 -0.1623  0.0674  0.0102
 2519W        W 6583   4.539   5.314  10.271  0.0783  0.2861  0.0768
 2520W        W 6584   1.224   8.821   1.873  0.5220 -0.3620 -0.0180
 2521W        W 6585   6.871   2.171   9.034  0.0813 -0.1046 -0.0977
 2522W        W 6586   1.622   8.704   2.837  0.0463 -0.2168  0.0346
 2523W        W 6587   8.217   3.334  10.730 -0.1450 -0.1560  0.1178
 2524W        W 6588   3.824   6.632  10.206  0.2106 -0.2068  0.1417
 2525W        W 6589   5.637   0.766   1.499  0.1444 -0.0551 -0.1907
 2526W        W 6590   7.913   6.964   1.337 -0.0244  0.1796 -0.0144
 2527W        W 6591   1.687   3.256   0.879 -0.1967  0.1327 -0.2708
 2528W        W 6592   4.962  10.455   2.935  0.1426 -0.1056 -0.2748
 2529W        W 6593   1.319   6.085   0.678  0.0901  0.2009 -0.2522
 2530W        W 6594   3.976   5.892   2.780 -0.3921  0.0137  0.0299
 2531W        W 6595   3.800  10.481   0.478 -0.0336  0.3606  0.1221
 2532W        W 6596   9.725   5.879  10.030 -0.0599 -0.0642 -0.4933
 2533W        W 6597   3.379   5.248   0.702 -0.1495 -0.3017  0.1647
 2534W        W 6598   6.559   0.095   9.757 -0.1297  0.0429 -0.0304
 2535W        W 6599   6.295   0.912   0.197  0.0940 -0.0537 -0.0951
 2536W        W 6600   6.596   9.889  10.921  0.0077  0.1535  0.1718
 2537W        W 6601   1.967   0.790   2.290  0.2767 -0.0516 -0.0272
 2538W        W 6602   2.350   3.625   9.890  0.1839 -0.2468  0.0586
 2539W        W 6603   6.112   3.175   8.315 -0.0365 -0.1263 -0.1607
 2540W        W 6604   3.433   4.074   8.268 -0.0791 -0.2416  0.0608
 2541W        W 6605   8.412   0.892   7.915  0.2252  0.3752 -0.1864
 2542W        W 6606  10.469   5.386   2.494  0.2934  0.2845  0.0156
 2543W        W 6607   6.587   3.430   2.705  0.0459  0.1436  0.0551
 2544W        W 6608   5.402   8.573   2.514  0.2223 -0.1694 -0.0489
 2545W        W 6609   9.550   9.198   7.475 -0.1038  0.0075 -0.3166
 2546W        W 6610   9.765   2.708  10.320 -0.2437 -0.1833  0.0461
 2547W        W 6611   5.986   6.554   7.690  0.1689 -0.0940  0.1574
 2548W        W 6612   4.914   0.775   2.141 -0.3765 -0.2618  0.0523
 2549W        W 6613   2.985   0.558  11.132 -0.1454  0.0236 -0.0213
 2550W        W 6614   6.010   2.771  10.869 -0.0472  0.1105  0.3090
 2551W        W 6615   8.066   0.500   8.051  0.0345  0.1390  0.1816
 2552W        W 6616  10.524   3.364  10.083 -0.0857 -0.2454 -0.1804
 2553W        W 6617   9.296   3.279   8.900  0.2867  0.2854  0.0037
 2554W        W 6618   8.487   5.966   8.194  0.1542 -0.0358 -0.1170
 2555W        W 6619   9.340   8.399   1.315 -0.0772  0.3066  0.3330
 2556W        W 6620   2.713   9.264   8.438  0.0681  0.2929  0.0812
 2557W        W 6621   6.069   1.573   7.965 -0.0889 -0.0566  0.1590
 2558W        W 6622   4.303   5.649   4.124 -0.1909 -0.0700 -0.1513
 2559W        W 6623   6.066   1.661   8.787 -0.0640 -0.2117  0.0744
 2560W        W 6624   6.241   3.568  10.147 -0.2864 -0.0106  0.2595
 2561W        W 6625   3.446   2.598   3.579  0.0138  0.0114  0.0359
 2562W        W 6626   1.540   9.650   0.039 -0.0902 -0.2171  0.2497
 2563W        W 6627   6.226   3.064   1.242  0.0096  0.2248  0.0932
 2564W        W 6628   7.773   8.885   9.574 -0.0918  0.1288 -0.1876
 2565W        W 6629  10.654   4.151   2.050 -0.1456 -0.3258 -0.0573
 2566W        W 6630   9.303   7.083   0.485  0.1747 -0.0587 -0.1160
 2567W        W 6631   0.324   9.391   8.240 -0.2353  0.0496  0.4649
 2568W        W 6632   8.970   5.087   2.354 -0.1396 -0.3928 -0.0157
 2569W        W 6633   6.939   5.824   3.014  0.1567 -0.0603  0.0813
 2570W        W 6634  10.257   0.250   1.538 -0.0961  0.2031  0.1836
 2571W        W 6635  10.337   4.886   2.912 -0.1896  0.0971  0.0403
 2572W        W 6636   1.144   0.093   1.106 -0.0000 -0.2828 -0.4427
 2573W        W 6637   6.173   1.442   0.316  0.3975 -0.1375 -0.2945
 2574W        W 6638   1.766   7.646   1.385  0.0277  0.0784 -0.0524
 2575W        W 6639   4.238   2.311  11.179  0.1553 -0.2026 -0.0469
 2576W        W 6640   8.362   3.691   0.394 -0.0779  0.1565 -0.1158
 2577W        W 6641   3.363   7.637   2.780 -0.1026 -0.1585 -0.1388
 2578W        W 6642   6.295   5.825   1.675  0.2006  0.1955  0.2064
 2579W        W 6643   5.240   9.614  10.125 -0.1429 -0.1412  0.4118
 2580W        W 6644   5.980   1.375   8.430 -0.0709  0.2364  0.3312
 2581W        W 6645   2.681   7.624   9.999 -0.3816  0.2821  0.1916
 2582W        W 6646   3.784   4.394   8.654 -0.1780 -0.0483 -0.1868
 2583W        W 6647   2.807   4.154   7.852  0.0785  0.3982  0.0413
 2584W        W 6648   7.422   2.689  10.354  0.1442  0.2525 -0.1959
 2585W        W 6649   9.338   6.809   0.075 -0.0846 -0.3512  0.2182
 2586W        W 6650   4.512   3.627   1.852  0.0492  0.1281  0.1517
 2587W        W 6651   6.507   2.615   2.423 -0.0631  0.2335  0.0264
 2588W        W 6652   7.617   4.837   8.646  0.5126  0.3281 -0.3197
 2589W        W 6653   7.037   3.843  10.161 -0.0258  0.1257 -0.0020
 2590W        W 6654   5.390   0.886   2.293 -0.3127 -0.1915 -0.1173
 2591W        W 6655   9.232   3.884   0.359  0.0284  0.2124 -0.0470
 2592W        W 6656   2.622   8.900   7.369 -0.0681 -0.2795 -0.2357
 2593W        W 6657   8.539   5.446  10.228  0.1594 -0.2797 -0.3684
 2594W        W 6658   8.117   9.283   9.537 -0.2010  0.0897  0.1278
 2595W        W 6659   9.785   8.734   7.732 -0.0634  0.2533 -0.3895
 2596W        W 6660   3.988   5.268   2.438 -0.0576  0.0203  0.3196
 2597W        W 6661  10.468   3.810   3.111 -0.0817 -0.3210  0.2046
 2598W        W 6662   4.377   4.906  10.633  0.0255 -0.0452 -0.0160
 2599W        W 6663   7.196   3.150   2.077  0.0774 -0.2115 -0.0552
 2600W        W 6664   5.665   3.057   2.442 -0.4135 -0.1898  0.0259
 2601W        W 6665   5.187   5.230   0.281  0.4167  0.2845 -0.0564
 2602W        W 6666   5.495   5.821  10.978 -0.2614 -0.0943 -0.0897
 2603W        W 6667   9.265   2.750  11.091  0.0113  0.4084 -0.0426
 2604W        W 6668   9.205  10.531  11.017  0.3313  0.0120  0.1692
 2605W        W 6669   7.492  10.732   1.970 -0.0985  0.3871 -0.1854
 2606W        W 6670   7.703   1.170  10.574  0.2112  0.2191  0.2777
 2607W        W 6671   7.127   1.700  10.481 -0.3206  0.3105  0.2663
 2608W        W 6672   3.827   0.465   8.686 -0.1895 -0.0400 -0.1720
 2609W        W 6673   9.022   4.631  10.013  0.2215  0.1281 -0.0717
 2610W        W 6674   9.827   5.803  10.474 -0.0397  0.2635  0.1150
 2611W        W 6675  10.044   3.935   7.327  0.0849  0.4596  0.1763
 2612W        W 6676   1.146   5.209   0.270  0.0191  0.1356 -0.0660
 2613W        W 6677   8.151   3.288   0.657  0.0628 -0.0077 -0.0516
 2614W        W 6678   4.294   2.460   0.850  0.2727  0.4709 -0.0994
 2615W        W 6679   9.129   7.263   0.024 -0.0036 -0.0331  0.2675
 2616W        W 6680   1.421   2.431   1.059 -0.1308  0.3521 -0.2215
 2617W        W 6681   9.401   7.749   3.175  0.1659  0.1912  0.1106
 2618W        W 6682   6.415   0.665   8.901  0.3013 -0.2314  0.0733
 2619W        W 6683   6.287   2.562   0.826  0.0157 -0.2082  0.0982
 2620W        W 6684  10.221   2.375  10.710  0.1293  0.1902 -0.1585
 2621W        W 6685   4.021   9.353   8.245  0.4870 -0.0404  0.0149
 2622W        W 6686   1.166   9.653   2.132  0.1411 -0.0424  0.1819
 2623W        W 6687   8.785   2.958  11.308  0.2503 -0.0308  0.0155
 2624W        W 6688   1.888   5.800   1.801 -0.1779 -0.0044 -0.2233
 2625W        W 6689   1.401   8.065   0.029  0.0455 -0.1535  0.6148
 2626W        W 6690   7.315   5.467   1.506  0.0397  0.0039  0.3263
 2627W        W 6691   8.389   0.067   8.609 -0.1189  0.2583 -0.0127
 2628W        W 6692   3.654   1.327   4.206  0.1128  0.1842 -0.1937
 2629W        W 6693   0.936   6.118   2.758  0.0523 -0.2843 -0.0210
 2630W        W 6694   3.910   5.704   7.798 -0.3154  0.2670  0.2000
 2631W        W 6695   2.314   9.173   0.292 -0.0523  0.2168 -0.3512
 2632W        W 6696   3.404   6.669   7.731 -0.1530 -0.0498  0.0077
 2633W        W 6697   7.814   7.574  10.279 -0.0616 -0.4687  0.3628
 2634W        W 6698   8.287   4.359   1.411  0.1954  0.0748  0.0787
 2635W        W 6699   6.718   8.057   0.139 -0.4678  0.1118 -0.0679
 2636W        W 6700   7.669   2.041   7.916 -0.0606 -0.0139  0.1481
 2637W        W 6701   6.797   8.751   9.048 -0.0700 -0.0125 -0.1952
 2638W        W 6702   7.832   6.804   7.510 -0.3829 -0.0702  0.0815
 2639W        W 6703   3.860   2.043   9.728 -0.2592  0.1797 -0.0121
 2640W        W 6704   1.845   5.260   2.453  0.2100  0.2968  0.2284
 2641W        W 6705   6.338   0.556   9.551 -0.2866 -0.2242 -0.2646
 2642W        W 6706   1.204   0.588   9.217 -0.0020  0.0300  0.1848
 2643W        W 6707   2.107   3.351  11.099 -0.1211 -0.0589 -0.2693
 2644W        W 6708   6.590   7.725   3.045 -0.3188 -0.1472 -0.4073
 2645W        W 6709  10.189   6.656  10.918 -0.0200  0.2261  0.0256
 2646W        W 6710   5.224   9.707   8.236 -0.0915  0.0210 -0.2337
 2647W        W 6711   8.372  10.732   2.476  0.0400  0.1937  0.0274
 2648W        W 6712   4.760   7.413   3.166  0.1222 -0.0643  0.1226
 2649W        W 6713   4.185   2.352   9.915  0.0502  0.0601  0.2047
 2650W        W 6714   4.282   1.954   9.223  0.1238 -0.2651  0.2563
 2651W        W 6715  10.746   7.300  10.417 -0.1982  0.1771  0.0611
 2652W        W 6716   1.422   2.630   8.398  0.1161 -0.0953  0.1499
 2653W        W 6717   6.129   3.205  10.614 -0.4593 -0.0329 -0.1320
 2654W        W 6718   3.081   9.628   9.589 -0.1950 -0.3490 -0.1466
 2655W        W 6719   8.590   5.351   9.346  0.3257  0.1506  0.1031
 2656W        W 6720   5.930   8.709   2.476  0.0185 -0.1158  0.0092
 2657W        W 6721   5.149   6.120   3.016 -0.2335 -0.0800  0.1751
 2658W        W 6722   9.447   7.602   8.957 -0.1298  0.3858 -0.2709
 2659W        W 6723   2.837   3.404  11.283 -0.0015  0.0354  0.0146
 2660W        W 6724   4.004   8.494   9.265 -0.2583 -0.0556  0.2399
 2661W        W 6725   0.059   7.676  10.849  0.1244 -0.1412  0.2605
 2662W        W 6726   7.135   0.473   2.721  0.2723  0.0582 -0.0017
 2663W        W 6727   6.586   3.376   8.277  0.0077  0.1931  0.1567
 2664W        W 6728   9.358   2.979  10.078  0.2101  0.1130  0.1438
 2665W        W 6729   4.395   8.212   8.519 -0.3792 -0.3817 -0.0019
 2666W        W 6730   5.110   8.228   7.609  0.0033 -0.2074  0.1071
 2667W        W 6731   8.019   1.355   3.098  0.1564 -0.2567 -0.2280
 2668W        W 6732   2.357  10.569   0.303  0.1618 -0.2689  0.3650
 2669W        W 6733   1.440   3.698   9.516 -0.2553  0.3497 -0.4180
 2670W        W 6734   4.536   3.923   0.759 -0.2071  0.2344  0.2175
 2671W        W 6735  10.740   4.683   1.862 -0.0131  0.2378  0.0457
 2672W        W 6736   5.137   9.263   1.794  0.1720 -0.3375 -0.0235
 2673W        W 6737   9.331   9.261   8.684 -0.1757  0.1476 -0.0783
 2674W        W 6738   6.779   8.687   8.477  0.2059 -0.3807 -0.1284
 2675W        W 6739   5.452   9.535   0.929  0.0580 -0.0926 -0.1586
 2676W        W 6740  10.644  10.489   8.136  0.1086  0.1226  0.0599
 2677W        W 6741   5.538   6.891   8.419 -0.0260  0.2318  0.3328
 2678W        W 6742   8.111   5.442  10.552  0.0016 -0.2143  0.3397
 2679W        W 6743   2.531   2.383   0.222 -0.3657  0.2232 -0.0561
 2680W        W 6744   1.194   5.774   0.239  0.0621  0.1233 -0.1680
 2681W        W 6745   2.769   5.182  10.297 -0.0640 -0.1460 -0.1623
 2682W        W 6746   6.281   4.858   3.145  0.3211  0.2906  0.1990
 2683W        W 6747   5.515   0.474   3.112  0.2443  0.0434 -0.1559
 2684W        W 6748   1.170   3.105  10.379  0.0226  0.1716 -0.2089
 2685W        W 6749   6.765   0.664   8.459  0.0172 -0.1921  0.1278
 2686W        W 6750   0.496   2.146  10.126  0.1234  0.0456 -0.2004
 2687W        W 6751   8.821   8.878   2.322  0.1430 -0.2169 -0.0795
 2688W        W 6752   5.984   8.242   7.313  0.0060  0.2572 -0.0772
 2689W        W 6753   6.896   3.087   6.968 -0.0674  0.0092 -0.0342
 2690W        W 6754   1.746   4.288   8.016 -0.1517  0.0331 -0.0847
 2691W        W 6755   6.658   1.387   7.053 -0.4218 -0.1957 -0.1849
 2692W        W 6756   0.748   7.484   8.556 -0.0297 -0.1088 -0.2595
 2693W        W 6757   4.124   7.465   8.021  0.2230  0.0606  0.2889
 2694W        W 6758   0.898   4.146   3.051 -0.0379 -0.3516  0.1904
 2695W        W 6759   5.583   3.496   3.512 -0.2301  0.4107 -0.1414
 2696W        W 6760   9.873   5.973   0.798  0.0374 -0.1602 -0.0080
 2697W        W 6761   9.421   6.317   9.970 -0.0303  0.0342 -0.3673
 2698W        W 6762   9.480   3.747   8.983 -0.0837 -0.2371 -0.3153
 2699W        W 6763   5.036   6.525   8.628  0.3430 -0.0095 -0.2891
 2700W        W 6764   1.944   3.078   2.604  0.0881  0.0144 -0.0116
 2701W        W 6765   6.039   5.239   9.586 -0.1716 -0.0577  0.1085
 2702W        W 6766   5.967   2.013   0.205 -0.1384 -0.2155 -0.1754
 2703W        W 6767   2.747   3.516   0.528 -0.0417  0.0873 -0.0099
 2704W        W 6768   7.877   3.057  11.015 -0.0568  0.0092 -0.1798
 2705W        W 6769   1.358   8.446   7.779  0.2395 -0.0675 -0.2768
 2706W        W 6770   5.676   3.514  10.479 -0.2392  0.3367 -0.2718
 2707W        W 6771   8.576   9.876   2.123 -0.0519 -0.2343  0.2174
 2708W        W 6772   7.999   3.386   7.462 -0.2053 -0.0175  0.2393
 2709W        W 6773   0.040   0.458   0.830  0.2351 -0.0739  0.0276
 2710W        W 6774   5.937   7.331   7.580  0.3279  0.1171 -0.2122
 2711W        W 6775   5.000   0.670   5.763  0.0098  0.2382  0.0593
 2712W        W 6776   0.820   8.404   1.854  0.4991  0.1745  0.4074
 2713W        W 6777   5.200   8.676   9.357 -0.1358  0.0796 -0.2782
 2714W        W 6778   6.318   0.887   8.434 -0.1968 -0.0746 -0.2529
 2715W        W 6779   8.162   3.386   2.907 -0.1093  0.1642 -0.0444
 2716W        W 6780   9.180   7.866   0.061 -0.1049 -0.1959 -0.0999
 2717W        W 6781   3.617   1.140   0.325  0.0497 -0.0242 -0.1352
 2718W        W 6782   4.595   6.124  10.075 -0.1883  0.3099  0.2640
 2719W        W 6783   6.956   5.531  10.763  0.1357 -0.0496 -0.0430
 2720W        W 6784   7.529   7.120   8.800  0.0642  0.1465 -0.0970
 2721W        W 6785   1.072   4.063   0.989 -0.1787  0.0242 -0.0619
 2722W        W 6786   7.771   6.196  10.721  0.0270  0.2203  0.0342
 2723W        W 6787   4.500   8.823   2.850  0.1797 -0.2898  0.4970
 2724W        W 6788   1.056   6.163   7.742 -0.2899 -0.3401 -0.1257
 2725W        W 6789   2.810   5.996   2.833  0.0134 -0.1075 -0.0585
 2726W        W 6790   9.140   7.930   9.017  0.0698  0.2262 -0.1157
 2727W        W 6791  10.050   5.095  11.018  0.1675 -0.2241 -0.1001
 2728W        W 6792   1.022   4.705   0.420 -0.0205  0.0706  0.3341
 2729W        W 6793   2.618   5.640   2.535 -0.1452 -0.3559 -0.2996
 2730W        W 6794   6.204   1.094   7.950 -0.2042 -0.0558  0.0194
 2731W        W 6795   9.307   9.044  10.084 -0.0289  0.3693 -0.0742
 2732W        W 6796   4.964   2.553  10.948  0.1249 -0.3219 -0.1532
 2733W        W 6797   7.903   8.018   8.878 -0.2311  0.2169 -0.2863
 2734W        W 6798  10.460   1.489   0.096 -0.0014 -0.0480  0.1293
 2735W        W 6799   8.627   4.949   9.849 -0.1364  0.3467  0.0700
 2736W        W 6800   4.516  10.550  11.229  0.3474  0.2027  0.2345
 2737W        W 6801   3.634  10.009   0.690 -0.1057  0.1242 -0.2071
 2738W        W 6802   2.745   8.632  10.380 -0.2062 -0.0070  0.4501
 2739W        W 6803   5.109   2.114   9.081  0.0970 -0.2838  0.0886
 2740W        W 6804  10.649   9.098   9.285 -0.3100  0.2974  0.1660
 2741W        W 6805   7.350   5.792   9.276 -0.3522  0.0439  0.0158
 2742W        W 6806   4.453   7.229   0.148 -0.1978 -0.5161  0.1931
 2743W        W 6807   9.311   4.542   7.504  0.1644  0.2311  0.1041
 2744W        W 6808   0.013   0.996   3.319  0.1852 -0.0896 -0.0292
 2745W        W 6809   5.586   5.158  10.571 -0.0024  0.0418 -0.2564
 2746W        W 6810   2.129   1.680   8.925  0.0137  0.0240 -0.0469
 2747W        W 6811   2.721   2.539   8.644 -0.0696 -0.0594 -0.0535
 2748W        W 6812   8.739   0.888   6.644 -0.0081  0.0483  0.3600
 2749W        W 6813  10.283   0.888   8.582  0.0591 -0.2951 -0.6806
 2750W        W 6814   4.734   3.303   2.196 -0.2908  0.3671  0.0805
 2751W        W 6815   8.472   0.481  10.421  0.4012 -0.2551  0.1391
 2752W        W 6816   7.565   0.748   1.405 -0.0886  0.3329 -0.2268
 2753W        W 6817   5.456   6.081   0.624  0.1011 -0.0661 -0.0566
 2754W        W 6818   0.895   0.408   1.428 -0.0817  0.2254 -0.0211
 2755W        W 6819   8.188   6.320   9.663 -0.2587  0.1579 -0.0502
 2756W        W 6820  10.713   8.024   2.939  0.0524 -0.1102  0.2971
 2757W        W 6821  10.709   7.231   0.787  0.0815  0.1134  0.0802
 2758W        W 6822   7.081   2.335   8.369  0.1764 -0.4312  0.1860
 2759W        W 6823   5.563   8.088   8.950 -0.1940 -0.0296 -0.1327
 2760W        W 6824   3.112   7.290   1.105 -0.2119 -0.0553  0.1936
 2761W        W 6825   8.294   5.184   0.264 -0.4124 -0.1595 -0.3364
 2762W        W 6826   2.596   5.067  10.825 -0.1822 -0.0011 -0.0852
 2763W        W 6827  10.089   4.908   7.486  0.3284  0.1041  0.1376
 2764W        W 6828   7.186   9.867   8.255  0.2386  0.4073  0.0647
 2765W        W 6829   9.974   5.165  10.413  0.1068  0.0656  0.3717
 2766W        W 6830   1.517   9.371   2.275  0.0901  0.1431 -0.1277
 2767W        W 6831   3.353  10.583   0.293 -0.2217 -0.0048  0.0636
 2768W        W 6832   8.101   3.663  11.099 -0.1313 -0.0943 -0.0657
 2769W        W 6833   8.455   6.392   8.801 -0.2728  0.0680 -0.0858
 2770W        W 6834   0.259   3.936   2.548 -0.5174 -0.0418 -0.1513
 2771W        W 6835   4.431   8.484   1.018  0.1772  0.1315  0.0029
 2772W        W 6836   4.893   8.510   7.224 -0.0514  0.2872 -0.0171
 2773W        W 6837   7.434   8.001   9.111  0.3129  0.0113  0.3568
 2774W        W 6838   4.358  10.112  11.068  0.0367 -0.3124 -0.0702
 2775W        W 6839   5.292   7.626   8.876 -0.0800 -0.0997 -0.2010
 2776W        W 6840   9.680   4.079   0.925  0.1014 -0.1637  0.0513
 2777W        W 6841   9.580   7.573  11.129 -0.2592  0.1252 -0.2078
 2778W        W 6842   8.837   9.287   8.932 -0.1608 -0.0400 -0.0720
 2779W        W 6843   9.031   2.557  10.083 -0.0618  0.0400 -0.1274
 2780W        W 6844   6.557   2.326  10.592 -0.0650 -0.0798 -0.1059
 2781W        W 6845   3.734   1.767  11.253  0.2373 -0.2815 -0.0652
 2782W        W 6846  10.242   9.547   7.735  0.1555 -0.3139  0.0630
 2783W        W 6847   7.803   3.859   8.522  0.1705 -0.0285  0.2512
 2784W        W 6848   3.199   2.536   7.509 -0.0667  0.1795 -0.1449
 2785W        W 6849  10.079   9.434   9.447  0.0535 -0.0456 -0.1597
 2786W        W 6850  10.763   2.145   8.284 -0.2471  0.1951  0.0758
 2787W        W 6851   3.550   3.548   8.445 -0.1937  0.2317 -0.1946
 2788W        W 6852   5.606   4.988   0.273 -0.0963  0.1783  0.0004
 2789W        W 6853   5.481   8.585   8.944  0.2638  0.0102 -0.1042
 2790W        W 6854   4.762   2.592   0.727 -0.1780  0.2947  0.1113
 2791W        W 6855   4.843   2.348  10.313 -0.1315 -0.0740 -0.1868
 2792W        W 6856   7.257   8.560   7.665  0.2100 -0.2107 -0.1291
 2793W        W 6857   0.196   7.582   3.038  0.3112 -0.0871 -0.0080
 2794W        W 6858   1.828   3.521   7.294  0.1941  0.0554 -0.1731
 2795W        W 6859   9.929   9.517   0.971  0.3132  0.0676  0.1359
 2796W        W 6860   6.478   5.219   0.373 -0.2939  0.0244 -0.1950
 2797W        W 6861   6.384   8.308   1.984 -0.1904  0.0326  0.2604
 2798W        W 6862   6.496   0.059   2.909  0.3997  0.0179 -0.0930
 2799W        W 6863  10.584   8.388   0.189  0.0495  0.1560  0.0917
 2800W        W 6864   4.499   0.500   9.257  0.3532 -0.3498 -0.1078
 2801W        W 6865   1.093  10.632   2.857  0.1868  0.0362 -0.0585
 2802W        W 6866   3.621  10.210   8.621  0.0997  0.0531 -0.1850
 2803W        W 6867   3.846   3.802   8.052  0.2295  0.1632 -0.0020
 2804W        W 6868   3.235  10.040   8.353  0.1439  0.0489 -0.0820
 2805W        W 6869   4.423   2.960   0.795 -0.1591 -0.1674 -0.0088
 2806W        W 6870   7.758   6.201   8.496  0.0518 -0.3430 -0.0338
 2807W        W 6871   0.966   0.401  10.514 -0.1563 -0.3963  0.4295
 2808W        W 6872   3.593   3.008   3.276  0.0411  0.2599  0.0937
 2809W        W 6873   4.600   6.977   1.830 -0.0432 -0.0897 -0.0440
 2810W        W 6874  10.382   8.633   9.421  0.0677 -0.1381  0.0609
 2811W        W 6875   0.851  10.154   7.833  0.0207 -0.4741 -0.4523
 2812W        W 6876   4.506   5.720   8.714 -0.0536  0.3603 -0.2949
 2813W        W 6877   0.219   2.732   0.819  0.2193 -0.0640  0.1488
 2814W        W 6878   7.796   5.069   8.151 -0.3032 -0.0420  0.1926
 2815W        W 6879   4.858   5.333  11.182  0.0715  0.1773 -0.1020
 2816W        W 6880   5.898  10.439   0.874 -0.2102  0.0477  0.0647
 2817W        W 6881  10.156   0.948  10.796 -0.0693 -0.2959  0.4241
 2818W        W 6882   0.052  10.208   7.741 -0.1530 -0.1395  0.1162
 2819W        W 6883   0.771   3.444   8.290  0.0598 -0.0029 -0.2439
 2820W        W 6884  10.406   8.396   6.982 -0.5062  0.0006  0.2449
 2821W        W 6885   9.104   9.349   9.599 -0.0174 -0.3089  0.4119
 2822W        W 6886   8.401   9.859   8.969  0.1254  0.0509  0.1534
 2823W        W 6887   2.140   8.581   7.102 -0.1991  0.1832 -0.0740
 2824W        W 6888   0.934   1.249   3.053  0.5434  0.1445  0.2388
 2825W        W 6889   2.730   7.499   7.193 -0.0668 -0.2428 -0.3144
 2826W        W 6890   2.408   3.062   7.874  0.1046  0.1953 -0.2746
 2827W        W 6891   9.597  10.538   1.864 -0.2065 -0.1297 -0.0525
 2828W        W 6892   3.382   2.784  10.699  0.1898  0.3311 -0.0768
 2829W        W 6893   3.502   1.421   8.640 -0.1837 -0.2590  0.2456
 2830W        W 6894   0.167   9.446   2.667 -0.2748  0.1067  0.1573
 2831W        W 6895   2.043   2.377   2.539  0.0727 -0.1712 -0.0006
 2832W        W 6896   7.084   5.601   8.012  0.5484  0.0324 -0.1917
 2833W        W 6897   5.927   4.042   9.736 -0.1375 -0.1206 -0.1921
 2834W        W 6898   2.496   5.157   0.786 -0.0740  0.4393 -0.0642
 2835W        W 6899   1.680   7.352   1.774  0.2033  0.0205 -0.1797
 2836W        W 6900   4.142   0.345   1.140  0.3977 -0.2809  0.1373
 2837W        W 6901   8.293   1.605  11.068 -0.0127  0.0447 -0.1074
 2838W        W 6902   4.636   2.241   8.958  0.0504  0.1037  0.1424
 2839W        W 6903   3.692   5.624  10.326  0.0470  0.1772  0.3966
 2840W        W 6904   3.087   1.238   0.579  0.0291  0.2411 -0.1101
 2841W        W 6905   3.653   3.508   7.118 -0.0728 -0.0866  0.2524
 2842W        W 6906   4.619   0.946   0.718 -0.1793  0.4037  0.3021
 2843W        W 6907   2.975   0.267   9.772 -0.1957  0.3268 -0.4368
 2844W        W 6908   7.360   3.585   9.211  0.1985  0.0555 -0.1201
 2845W        W 6909   0.048   2.050   7.066 -0.2837  0.4531  0.0259
 2846W        W 6910   0.688   7.966   9.958  0.1090  0.0052 -0.4759
 2847W        W 6911   4.238   1.884   0.171 -0.1210 -0.2830  0.2171
 2848W        W 6912  10.040   5.595   6.641  0.0156 -0.0242  0.0219
 2849W        W 6913   7.979   9.851   0.998 -0.0875 -0.1242 -0.1796
 2850W        W 6914   6.767   8.469   2.275  0.2029 -0.0044  0.2000
 2851W        W 6915   9.901   6.761   0.586  0.0831  0.0800 -0.0627
 2852W        W 6916   7.796   4.111   2.549  0.1624 -0.1847 -0.0479
 2853W        W 6917   1.268   4.542   8.798  0.2432 -0.0319  0.1743
 2854W        W 6918   7.259   6.470   2.822  0.0205  0.0640 -0.0920
 2855W        W 6919   5.186   3.583   9.298  0.0562  0.2022 -0.0745
 2856W        W 6920  10.513   0.137  10.032 -0.0313 -0.1673  0.1760
 2857W        W 6921   6.592   6.918   0.177 -0.0952 -0.0521  0.1478
 2858W        W 6922   7.009   6.683   7.667  0.0431 -0.2500  0.1680
 2859W        W 6923   6.806   4.280  10.049 -0.0608 -0.1047 -0.0603
 2860W        W 6924   7.070   0.253   2.051 -0.1557 -0.0879  0.1901
 2861W        W 6925  10.408   7.870  10.548 -0.0656  0.1453  0.1716
 2862W        W 6926   6.445   2.069   2.526  0.0006 -0.0370 -0.1281
 2863W        W 6927   1.587   3.116  10.172 -0.0947 -0.2611 -0.0274
 2864W        W 6928  10.022   1.484  10.824  0.0618 -0.2257 -0.0503
 2865W        W 6929   9.542   7.124   1.250 -0.0931  0.0292 -0.0848
 2866W        W 6930   7.462   3.512   8.627 -0.1173 -0.0649 -0.0391
 2867W        W 6931   8.273   8.313  10.226  0.4720  0.2234 -0.1401
 2868W        W 6932   3.297   3.345   9.478 -0.1784 -0.0338 -0.4050
 2869W        W 6933   5.508   6.561   7.872 -0.0542 -0.2434 -0.2590
 2870W        W 6934   0.947   1.951  11.059  0.1275 -0.1671  0.2896
 2871W        W 6935   1.967   3.879   7.631  0.2940  0.1827  0.3144
 2872W        W 6936   6.330   8.532  11.098  0.1098  0.3479  0.0516
 2873W        W 6937   6.918   7.919   0.740  0.0495 -0.0846  0.1509
 2874W        W 6938   6.946  10.465   9.620  0.1617 -0.4147 -0.4297
 2875W        W 6939   5.259   5.767   9.407 -0.2277  0.1411 -0.1839
 2876W        W 6940   8.807   5.486   3.110  0.2342  0.0421  0.2896
 2877W        W 6941   0.990   9.046   3.532 -0.1148 -0.0642 -0.0929
 2878W        W 6942   2.845  10.509   9.037 -0.3419 -0.3075 -0.0128
 2879W        W 6943   3.032   4.238   8.516  0.1143 -0.2885  0.1477
 2880W        W 6944   1.140   5.907   8.181 -0.1891  0.1990  0.1951
 2881W        W 6945   9.909   8.163   1.924  0.1936  0.0379  0.2467
 2882W        W 6946   8.787   2.126   1.301  0.0040 -0.2196  0.3143
 2883W        W 6947   0.972  10.306   1.171 -0.1973  0.1618  0.0125
 2884W        W 6948   0.564   3.996   1.061  0.1170 -0.0253 -0.1614
 2885W        W 6949   4.531   4.649   2.048  0.2173  0.2198  0.1992
 2886W        W 6950   7.392   9.470  10.723 -0.1845 -0.1403 -0.4907
 2887W        W 6951   9.157   2.430   0.247 -0.0582  0.0579 -0.1488
 2888W        W 6952   5.892   2.734   7.979 -0.0959 -0.2232  0.4417
 2889W        W 6953   3.666   2.631   7.166 -0.1315  0.2043 -0.0268
 2890W        W 6954   7.704   8.460   1.105  0.0220  0.0346  0.2290
 2891W        W 6955   6.117   2.327   6.825  0.1624  0.1514  0.1289
 2892W        W 6956   7.819   7.077   0.204 -0.3211 -0.1217 -0.0964
 2893W        W 6957   4.211   6.994   8.052 -0.3264 -0.1807 -0.0468
 2894W        W 6958   7.611   5.538   7.262 -0.0083 -0.1449 -0.0716
 2895W        W 6959   9.495   6.187   8.969 -0.0139 -0.1794  0.0157
 2896W        W 6960   1.710   4.832   9.733  0.1444  0.1179 -0.2630
 2897W        W 6961   5.547   7.982   0.403 -0.1404  0.0603 -0.0759
 2898W        W 6962   6.064   6.722   8.867  0.0248  0.0608 -0.2219
 2899W        W 6963   7.441   1.573  10.061 -0.3548  0.3064  0.1682
 2900W        W 6964  10.468   8.055   0.972 -0.1543 -0.0233 -0.0259
 2901W        W 6965   0.113   4.777  10.524  0.0572 -0.1395  0.2419
 2902W        W 6966   8.522   5.683   3.549  0.3396 -0.0567  0.2958
 2903W        W 6967   2.504   5.014   6.982 -0.1102 -0.1122 -0.3738
 2904W        W 6968   9.993   7.734   8.343  0.0653  0.0652  0.0840
 2905W        W 6969   9.920   2.782  10.842  0.0009  0.0395  0.0825
 2906W        W 6970   1.165   8.441  10.560  0.2840  0.0247 -0.0139
 2907W        W 6971   0.454   2.074   0.493  0.2010 -0.0006 -0.0529
 2908W        W 6972   8.137   7.557   2.216  0.2962  0.0690 -0.1632
 2909W        W 6973   6.878   5.019   9.447 -0.3138 -0.0537  0.0424
 2910W        W 6974  10.483   4.545   8.136 -0.0801 -0.0982  0.1020
 2911W        W 6975   2.030   5.614   8.595 -0.0300  0.0159  0.1938
 2912W        W 6976  10.433   8.588   8.422  0.1881 -0.1576  0.0817
 2913W        W 6977   0.692   0.442   0.010 -0.0716 -0.0243 -0.0036
 2914W        W 6978   1.509   0.264   8.533 -0.0723 -0.1737  0.0251
 2915W        W 6979   2.079   0.267   9.644 -0.3707 -0.0616 -0.1041
 2916W        W 6980   7.399   0.345   9.428 -0.2971  0.0843 -0.2349
 2917W        W 6981   4.586   5.678   2.186  0.2167  0.0600  0.0012
 2918W        W 6982   8.217   5.529   1.934 -0.0844  0.1420  0.1389
 2919W        W 6983   7.203   9.046   7.559 -0.0915  0.1379  0.6064
 2920W        W 6984   2.630  10.268   2.474  0.0992  0.0157 -0.0293
 2921W        W 6985   3.037   7.199  10.055  0.3176  0.0929 -0.1018
 2922W        W 6986   0.551   2.245   3.301 -0.1835 -0.0180 -0.1188
 2923W        W 6987   4.390   6.720  11.191 -0.2722 -0.1922 -0.0144
 2924W        W 6988   9.415   8.615   0.414 -0.1288 -0.0366 -0.0681
 2925W        W 6989   0.347   1.146   9.525  0.1058  0.2762  0.4371
 2926W        W 6990   6.009   0.535  10.591  0.2041  0.4534  0.3930
 2927W        W 6991   2.805   2.417   2.990 -0.0463 -0.1673 -0.2257
 2928W        W 6992   9.271   9.870   2.936 -0.1970  0.5028 -0.0993
 2929W        W 6993   9.712   4.126   1.998  0.0867  0.3023  0.0346
 2930W        W 6994   0.353   9.819   1.424  0.0079 -0.0327  0.0952
 2931W        W 6995   0.562   7.262   3.156  0.1556  0.2274 -0.0542
 2932W        W 6996   6.384   6.785   7.344  0.1355 -0.2623  0.0226
 2933W        W 6997   8.555  10.754   7.443  0.0232  0.2928 -0.2712
 2934W        W 6998   1.895  10.646   9.047  0.1845 -0.1526 -0.1818
 2935W        W 6999   5.046   0.144   9.777 -0.0665 -0.3572 -0.2220
 2936W        W 7000   2.014   4.571   2.992  0.2256 -0.1081 -0.1319
 2937W        W 7001   7.841   8.463   9.275 -0.1211 -0.0394  0.0267
 2938W        W 7002  10.358   5.119  10.156 -0.1851 -0.0858 -0.0621
 2939W        W 7003   4.388   7.406   9.416 -0.1413  0.1760  0.0829
 2940W        W 7004   8.447   5.152   7.610  0.2056 -0.1837  0.1193
 2941W        W 7005   1.085   9.413   8.764  0.0937  0.1168  0.0671
 2942W        W 7006   4.007   3.262   9.835 -0.0505  0.1706  0.2995
 2943W        W 7007   5.982   6.696  10.639  0.0243  0.0440 -0.0079
 2944W        W 7008   3.040  10.694   2.640  0.3790  0.3154 -0.0025
 2945W        W 7009   7.332   4.005   1.547  0.1309  0.3183 -0.1291
 2946W        W 7010   2.819   3.850  10.517  0.0108  0.1764  0.0558
 2947W        W 7011   1.027   9.192   2.214 -0.1124 -0.1290 -0.2043
 2948W        W 7012   0.978   7.364   0.433  0.0842 -0.2029 -0.2030
 2949W        W 7013   3.636   2.485   9.958 -0.1771  0.1158 -0.3312
 2950W        W 7014   6.221   1.246   2.373 -0.1555 -0.0046  0.4395
 2951W        W 7015   6.049   0.209   8.069 -0.3963 -0.0841 -0.4470
 2952W        W 7016  10.577   4.298   9.469  0.1348 -0.0558  0.1468
 2953W        W 7017   9.131   2.255   8.308 -0.2088 -0.1152  0.0934
 2954W        W 7018   7.194   7.218   7.841  0.1451  0.1040  0.3238
 2955W        W 7019   3.079   6.830   8.076 -0.5368  0.1948  0.2891
 2956W        W 7020   3.410   4.499  10.334 -0.0970 -0.3970  0.0462
 2957W        W 7021   2.788   7.753  10.514 -0.1524  0.1401 -0.2342
 2958W        W 7022   1.344   4.415   1.263  0.0262  0.1137 -0.1284
 2959W        W 7023   9.709   4.676   2.269  0.1296  0.0604  0.0921
 2960W        W 7024   2.143   7.027   2.198 -0.0275 -0.0080  0.1728
 2961W        W 7025   8.173   0.105   7.732  0.1410 -0.0405 -0.1299
 2962W        W 7026   3.244   9.034   8.709  0.3099  0.0029 -0.0577
 2963W        W 7027   3.897   9.745   9.914  0.2345  0.1382  0.2241
 2964W        W 7028   9.557   1.511   8.665  0.1685 -0.0382 -0.0917
 2965W        W 7029   1.580   6.764   2.626  0.3337 -0.1291  0.2879
 2966W        W 7030   3.546   6.627  10.650  0.0314  0.2349  0.1643
 2967W        W 7031  10.085   2.483   8.353 -0.3078 -0.1066  0.2372
 2968W        W 7032   3.886   6.470   2.859  0.2206  0.0169  0.2008
 2969W        W 7033   6.522   4.001   2.736 -0.1171 -0.1073  0.0196
 2970W        W 7034   9.175   5.190   2.830  0.1386  0.1103 -0.2118
 2971W        W 7035   0.283   3.620   0.786  0.1941 -0.1039  0.2368
 2972W        W 7036   3.204   8.010   9.601  0.1337  0.1712 -0.0667
 2973W        W 7037   6.917   7.480   0.496  0.0708 -0.0840 -0.0561
 2974W        W 7038   4.995   6.985   9.185 -0.1199 -0.0401 -0.0001
 2975W        W 7039  10.675   0.695   2.596 -0.0303  0.0964  0.3331
 2976W        W 7040   0.057   4.254  10.423  0.0790  0.0964 -0.0271
 2977W        W 7041   7.564   6.075   2.860  0.0542 -0.1828 -0.1596
 2978W        W 7042   4.060   3.186   3.321  0.2783  0.2679  0.1073
 2979W        W 7043   7.684   7.377   8.392  0.0400 -0.0848  0.3447
 2980W        W 7044   4.156   5.883   9.641  0.1147 -0.3150  0.0176
 2981W        W 7045  10.331   8.426   0.649 -0.0409  0.1621  0.3154
 2982W        W 7046   3.924   7.204   8.444  0.3155  0.0235 -0.3192
 2983W        W 7047   4.716   8.962   1.659 -0.1272 -0.0672 -0.0605
 2984W        W 7048   4.123   7.824   9.589  0.2422 -0.2418 -0.1041
 2985W        W 7049   2.755   8.828   2.332 -0.2053  0.1571 -0.3511
 2986W        W 7050   8.683   8.656   2.900  0.3382  0.1934 -0.0115
 2987W        W 7051   2.016   4.077   1.693 -0.1133  0.0881 -0.0295
 2988W        W 7052   4.121   5.156   0.059 -0.0356 -0.1114  0.0415
 2989W        W 7053   3.942   8.268   9.954  0.4289 -0.2143 -0.1110
 2990W        W 7054   9.425   9.761   8.716  0.0962 -0.1174  0.2163
 2991W        W 7055   2.754   3.545   9.582 -0.1228 -0.0954 -0.0260
 2992W        W 7056   7.487   1.999   9.767 -0.1791  0.2195 -0.3253
 2993W        W 7057   5.956   5.425  10.431 -0.0925 -0.1382 -0.1273
 2994W        W 7058   1.664   2.224   2.230  0.1878 -0.0359  0.3325
 2995W        W 7059  10.194   4.122   0.734 -0.2127  0.0390 -0.1403
 2996W        W 7060   5.430   7.367   8.436 -0.0738 -0.0267  0.0603
 2997W        W 7061   3.732   2.476   7.670  0.0573  0.1703  0.0703
 2998W        W 7062   9.625   8.593  11.259 -0.0232  0.1573 -0.0058
 2999W        W 7063   5.294  10.237  10.917  0.1925  0.2638  0.3179
 3000W        W 7064   0.735   0.195   1.816 -0.0790 -0.1152  0.2567
 3001W        W 7065   3.399   3.158   8.132  0.0073  0.2014 -0.2772
 3002W        W 7066   6.334   1.019   9.331  0.1388 -0.1665 -0.1394
 3003W        W 7067   3.987   3.840   9.878 -0.0402  0.2123 -0.1814
 3004W        W 7068   9.100   2.881   2.940  0.3484 -0.0304 -0.1611
 3005W        W 7069   9.084  10.721   6.579  0.0603  0.0652 -0.0422
 3006W        W 7070   5.182   0.604   8.882  0.0398 -0.1800  0.0045
 3007W        W 7071   8.658   6.807   9.048  0.0098  0.1324 -0.1330
 3008W        W 7072  10.222   7.389   8.094  0.1544 -0.0510 -0.0934
 3009W        W 7073   6.253   8.859   8.323 -0.4457  0.0773  0.0049
 3010W        W 7074   4.537  10.436   0.681  0.0429  0.2987  0.2029
 3011W        W 7075   9.204   1.045  10.399  0.0798 -0.3549  0.0500
 3012W        W 7076   0.868   3.529   2.964  0.1495  0.0697 -0.2970
 3013W        W 7077   0.074   0.332   6.909 -0.0198  0.0504  0.0940
 3014W        W 7078   4.309   4.446  10.526  0.0699 -0.3943 -0.2035
 3015W        W 7079   1.891   6.612   3.058 -0.0755 -0.2569  0.0926
 3016W        W 7080  10.545   9.802   0.040  0.3072 -0.0724  0.1568
 3017W        W 7081   7.103   6.942   0.239  0.2347 -0.1079  0.2228
 3018W        W 7082   6.243   8.260   2.474  0.0124  0.1008  0.0762
 3019W        W 7083   4.748   0.319   8.732 -0.2553  0.0024 -0.3443
 3020W        W 7084   9.444   5.546   9.780  0.1307 -0.0071  0.1909
 3021W        W 7085   2.086   3.078   2.103  0.2624 -0.2358  0.2373
 3022W        W 7086   2.016   2.099   0.140  0.2169  0.1237 -0.1566
 3023W        W 7087   2.669   2.645   7.734  0.0227 -0.0122 -0.0420
 3024W        W 7088   3.445   5.928   8.993  0.2346  0.1379 -0.0930
 3025W        W 7089   9.620   2.818   8.184  0.2609  0.1553  0.2034
 3026W        W 7090   6.442   8.995   3.027  0.1310  0.5209  0.1381
 3027W        W 7091   8.949   3.053   2.406 -0.0472  0.0956 -0.0459
 3028W        W 7092   0.568   9.904   7.104 -0.1455  0.2337 -0.1138
 3029W        W 7093   6.279   8.574   3.570 -0.2439  0.1465  0.0437
 3030W        W 7094   2.864   3.023   9.340 -0.0119  0.1872  0.0608
 3031W        W 7095   8.790   8.361   0.346 -0.2326 -0.2713  0.1568
 3032W        W 7096   1.587   4.098   9.070  0.1966  0.1212  0.1529
 3033W        W 7097   3.408   0.904  10.983  0.0260 -0.1537 -0.0651
 3034W        W 7098   9.774   0.708   0.830 -0.3747  0.1887  0.1446
 3035W        W 7099   1.599   4.267   9.551 -0.0320  0.0503  0.3770
 3036W        W 7100   1.141   0.853  10.532 -0.1438 -0.1127 -0.1754
 3037W        W 7101  10.302   6.098   8.845 -0.0572  0.0123  0.0272
 3038W        W 7102  10.215   9.686   1.484  0.0116  0.1319  0.2148
 3039W        W 7103   7.074   0.505   7.125 -0.2460  0.1019 -0.1594
 3040W        W 7104   7.195   5.730   7.544 -0.0695 -0.1516 -0.3642
 3041W        W 7105   9.776   6.219  10.788 -0.2028  0.1020 -0.2647
 3042W        W 7106   7.701   1.758   0.494  0.1938 -0.0210  0.3238
 3043W        W 7107  10.279   6.100   9.669  0.1300 -0.2838  0.0420
 3044W        W 7108   6.124   1.930   0.651  0.2875 -0.0857  0.0037
 3045W        W 7109   6.908   2.583  10.334  0.3690  0.1873  0.0202
 3046W        W 7110   1.323   3.608   9.013 -0.1315 -0.1137 -0.0004
 3047W        W 7111   7.265   6.047   8.650 -0.2677  0.0317 -0.3849
 3048W        W 7112   5.152   7.274   8.011 -0.1382 -0.0477  0.0977
 3049W        W 7113   4.009   1.439   0.246 -0.2588 -0.0446  0.0039
 3050W        W 7114   2.451  10.556  11.087  0.0180  0.1915 -0.1378
 3051W        W 7115   6.783   5.954   0.898 -0.1191 -0.1312  0.2803
 3052W        W 7116   4.285   3.176   7.782  0.1898 -0.0177  0.0821
 3053W        W 7117   2.509   2.550   8.211  0.3357  0.1827  0.0223
 3054W        W 7118   7.283   8.041   7.624  0.0533 -0.2227 -0.0397
 3055W        W 7119  10.231   2.528   2.588  0.1038 -0.0867 -0.0691
 3056W        W 7120   3.749   7.408  10.988 -0.2743  0.4267 -0.1559
 3057W        W 7121   4.168   3.076  10.329 -0.0929 -0.1486  0.1160
 3058W        W 7122   2.037   5.726   2.506 -0.1143  0.2257 -0.3178
 3059W        W 7123  10.718   0.358   8.081 -0.4495  0.1146  0.0798
 3060W        W 7124   0.893  10.715   3.379  0.1805 -0.2402 -0.2136
 3061W        W 7125   8.145   0.961   0.620 -0.2550  0.1088 -0.0485
 3062W        W 7126   1.784   0.033  10.912  0.2290  0.0485  0.1520
 3063W        W 7127   6.719   0.778   0.407 -0.3663  0.3576  0.0397
 3064W        W 7128   6.216   8.173   0.170  0.2700 -0.0433  0.0687
 3065W        W 7129   1.556   7.015  11.160  0.1756  0.0249  0.2182
 3066W        W 7130   4.285  10.131   2.880 -0.3245 -0.1433  0.0613
 3067W        W 7131   6.594   6.454   6.937  0.0750 -0.1592 -0.0445
 3068W        W 7132   4.692   7.692   3.905  0.2873  0.2298  0.1220
 3069W        W 7133   4.171   9.292   9.631  0.0405 -0.3227 -0.0919
 3070W        W 7134   4.404   2.825   1.329 -0.0027 -0.1861 -0.0825
 3071W        W 7135   6.908   7.193   7.446  0.2266 -0.0988 -0.0824
 3072W        W 7136   0.598   0.299   3.672 -0.0588  0.0070 -0.0371
 3073W        W 7137   9.667   8.333   3.057 -0.1780 -0.3516 -0.0391
 3074W        W 7138   0.583   6.942  11.077 -0.1748  0.0593  0.1400
 3075W        W 7139   8.000   9.170   8.609  0.4897  0.2945  0.2027
 3076W        W 7140   0.248   2.677  11.026 -0.0382  0.1954 -0.0520
 3077W        W 7141   6.505   4.659  10.232 -0.1452  0.3394  0.2354
 3078W        W 7142   3.736   2.495   1.982 -0.0067 -0.1065 -0.3615
 3079W        W 7143   5.659  10.026   2.671  0.2681 -0.2072 -0.2186
 3080W        W 7144   7.834   5.564   1.545 -0.0359  0.1375 -0.1159
 3081W        W 7145   0.585   2.970   1.096  0.1821  0.2535 -0.0600
 3082W        W 7146   6.418   5.253   1.922  0.0268 -0.2842  0.0681
 3083W        W 7147   7.239   3.380   9.680  0.0644  0.0067 -0.0143
 3084W        W 7148   2.465   5.333   7.350  0.4345 -0.0881  0.0950
 3085W        W 7149   7.506   7.540   9.885  0.0412 -0.0200 -0.1518
 3086W        W 7150   7.749   2.440   8.735  0.1315  0.1010  0.0634
 3087W        W 7151   7.277   1.226  10.407  0.0982 -0.1080  0.0391
 3088W        W 7152   7.393   9.209   7.960  0.0989 -0.1560 -0.0185
 3089W        W 7153   0.904   8.920  11.023 -0.0980 -0.1621  0.0951
 3090W        W 7154   7.978   9.492   1.343  0.0241 -0.0992 -0.5439
 3091W        W 7155   4.862   6.805  10.400 -0.2116 -0.3812 -0.0140
 3092W        W 7156   9.102   7.132   7.838 -0.2908 -0.0778 -0.4374
 3093W        W 7157   0.739   7.811   0.386  0.2991 -0.0027  0.1761
 3094W        W 7158   6.857   8.701  10.420  0.2122  0.2253 -0.1689
 3095W        W 7159   2.037   4.793  10.801 -0.0943 -0.0046  0.6766
 3096W        W 7160   2.522   3.722   0.883  0.0897 -0.0056  0.1316
 3097W        W 7161   1.260   0.629   7.673 -0.0681 -0.2384 -0.1309
 3098W        W 7162   7.954   0.825   1.767  0.1129  0.0093  0.0939
 3099W        W 7163   3.425   7.592  11.276 -0.2776  0.0262  0.0986
 3100W        W 7164   4.782   9.087   7.667 -0.1960  0.2145 -0.1136
 3101W        W 7165   7.447   0.155  10.214  0.0010  0.2881 -0.2579
 3102W        W 7166   4.715   8.427   1.436  0.1818 -0.3121  0.1397
 3103W        W 7167   3.517   7.658   0.969 -0.3680  0.0410 -0.0299
 3104W        W 7168   9.161   6.552   9.271 -0.2916 -0.0635 -0.1896
 3105W        W 7169   0.635  10.257   3.398 -0.2199 -0.1661  0.2458
 3106W        W 7170   0.643   1.786   3.169  0.3303  0.0364 -0.0769
 3107W        W 7171  10.048   4.115   2.854  0.1303 -0.0647 -0.3406
 3108W        W 7172   6.838   8.921   2.386  0.1256 -0.0151  0.2539
 3109W        W 7173   0.857   6.855   9.327  0.0527  0.2795  0.0762
 3110W        W 7174   4.773   3.305   7.998  0.2863 -0.0155  0.0452
 3111W        W 7175   6.588   6.540   0.496  0.3931 -0.2390  0.0762
 3112W        W 7176   5.233   5.485   9.827 -0.1848  0.2707 -0.1139
 3113W        W 7177  10.722   7.044  10.861  0.2479 -0.0912 -0.0169
 3114W        W 7178   4.524   2.460  10.740  0.1933  0.1392 -0.0555
 3115W        W 7179   9.484   2.435   9.974  0.0432  0.0285  0.0222
 3116W        W 7180   2.067   6.464   1.303  0.1991  0.2561  0.0469
 3117W        W 7181   8.402   9.227   0.349 -0.1413 -0.5989  0.2143
 3118W        W 7182   2.749   2.582   7.168  0.0112  0.1229 -0.1276
 3119W        W 7183  10.470   7.588   2.279 -0.0553  0.0918  0.2688
 3120W        W 7184  10.246   7.641   0.813 -0.0182  0.4088 -0.0828
 3121W        W 7185   5.969   8.389   9.113  0.4146 -0.0425 -0.1596
 3122W        W 7186   2.175   1.588   0.689 -0.4061 -0.1697 -0.3149
 3123W        W 7187  10.485   9.529  10.813 -0.1103 -0.3114  0.0975
 3124W        W 7188   9.024   9.584   8.388  0.2453 -0.0917  0.1230
 3125W        W 7189   0.673   0.115   8.732  0.1921  0.1319 -0.0909
 3126W        W 7190   0.752  10.666   7.615 -0.1384 -0.1677 -0.1771
 3127W        W 7191  10.497  10.258   1.878  0.0970  0.0999  0.1204
 3128W        W 7192   5.209   8.465  10.630  0.2049  0.1520  0.1093
 3129W        W 7193  10.493   6.699   2.057 -0.0648 -0.1452  0.0475
 3130W        W 7194   5.449   7.352   2.295  0.1526  0.2719 -0.2806
 3131W        W 7195  10.693  10.628   8.965  0.1339 -0.1547 -0.2052
 3132W        W 7196   9.045  10.014  10.148  0.2064  0.1510 -0.0618
 3133W        W 7197   5.877   1.466  10.672 -0.0772 -0.0982  0.1250
 3134W        W 7198   3.571   2.979   9.888 -0.1425 -0.1711 -0.0542
 3135W        W 7199   7.687   4.996  10.642  0.1330 -0.1821 -0.1700
 3136W        W 7200  10.596   5.460   3.066  0.1888  0.0749  0.0287
 3137W        W 7201   7.193   5.903   1.364  0.0852  0.1293 -0.1529
 3138W        W 7202   1.691   5.223   1.152  0.4167  0.0828 -0.0936
 3139W        W 7203   9.272   7.173   3.349 -0.2321 -0.1887  0.3229
 3140W        W 7204   1.121   2.672   0.268 -0.1222  0.4004  0.1543
 3141W        W 7205   7.222   7.025  10.687 -0.1292 -0.0356  0.0485
 3142W        W 7206   0.434   3.618   9.639  0.0962 -0.0123  0.0762
 3143W        W 7207   4.454   5.536   0.136  0.0855 -0.4756  0.2927
 3144W        W 7208   3.628   0.582   9.188 -0.0622 -0.0094  0.2585
 3145W        W 7209   0.342   5.631   1.426  0.1211  0.1355 -0.0791
 3146W        W 7210   5.180   2.632   9.954 -0.0591  0.0304 -0.2790
 3147W        W 7211   7.554   3.952  10.969  0.2105  0.3224 -0.1995
 3148W        W 7212   6.900   2.179   0.390  0.3262 -0.2281  0.1554
 3149W        W 7213   4.587   4.340   1.093  0.1008 -0.4935  0.2064
 3150W        W 7214   8.136   4.366   7.666 -0.2916  0.0739 -0.0875
 3151W        W 7215   7.671  10.613   9.140 -0.0485  0.3374 -0.0642
 3152W        W 7216   3.512   7.853  10.871  0.0258 -0.0196  0.0993
 3153W        W 7217   2.639   7.907   2.671 -0.3708 -0.1984  0.3794
 3154W        W 7218   0.233   2.201   1.460  0.2852  0.0157 -0.0370
 3155W        W 7219   9.114   4.188   9.810  0.0440 -0.1935 -0.1335
 3156W        W 7220   8.314   1.807  10.191 -0.2407  0.2110 -0.2336
 3157W        W 7221   1.941   7.370   9.349 -0.0380 -0.1477  0.2584
 3158W        W 7222   5.147   1.935   1.210 -0.1431 -0.0754 -0.2485
 3159W        W 7223   7.587   2.257   1.736  0.1769 -0.0720 -0.2203
 3160W        W 7224   4.202   2.502   0.349 -0.1632 -0.0284  0.0014
 3161W        W 7225   9.092   2.075   9.958  0.2778  0.0750 -0.0616
 3162W        W 7226   7.703   7.549   9.047  0.2589 -0.2249  0.0650
 3163W        W 7227   1.742   8.213   2.955  0.4302  0.2805  0.1687
 3164W        W 7228   4.910   5.671  10.210 -0.0026  0.4266 -0.0733
 3165W        W 7229   8.553   9.109   9.364 -0.0146 -0.0494 -0.0966
 3166W        W 7230  10.472   9.416   8.961 -0.2759 -0.0413 -0.3595
 3167W        W 7231   9.191   7.710   7.725 -0.0677 -0.0563 -0.1731
 3168W        W 7232   5.264   3.113   9.119  0.2382  0.0157  0.1681
 3169W        W 7233   4.573   4.774   8.260  0.1150 -0.1112 -0.0892
 3170W        W 7234   0.640   7.472  11.302 -0.1544  0.0601  0.0835
 3171W        W 7235   7.537   3.175   8.263 -0.1942  0.0607  0.2827
 3172W        W 7236   5.073   3.720   7.347  0.0812  0.2006  0.0920
 3173W        W 7237   7.515   6.273  10.277 -0.0845 -0.0838 -0.6907
 3174W        W 7238   5.613   7.516   7.960  0.2729  0.0706  0.0924
 3175W        W 7239   9.623   9.223   3.506 -0.2270  0.4670 -0.1363
 3176W        W 7240   4.954   9.939  10.624 -0.2515 -0.2009  0.0574
 3177W        W 7241   0.085   8.280   0.711 -0.1912 -0.0651  0.0156
 3178W        W 7242   4.834   7.898   2.932 -0.0899 -0.1487 -0.1652
 3179W        W 7243   7.351   5.161   0.439 -0.0467 -0.0283  0.1512
 3180W        W 7244   9.619   8.194  10.053 -0.0712  0.0973 -0.0816
 3181W        W 7245   7.649   1.740  10.542 -0.1119  0.1480 -0.1979
 3182W        W 7246   4.650   9.209   2.130 -0.1021 -0.1483  0.4134
 3183W        W 7247   4.377   6.751  10.159  0.0411  0.1340 -0.4404
 3184W        W 7248   7.083   9.559   9.542 -0.0230 -0.1646  0.0664
 3185W        W 7249   6.285   3.066   0.687  0.2159  0.1492  0.0568
 3186W        W 7250   5.689   3.362   7.775 -0.4628  0.0432 -0.3549
 3187W        W 7251   8.402   4.762   7.884  0.3484  0.1074 -0.1534
 3188W        W 7252   5.531   7.477   3.330  0.2633 -0.1065 -0.0411
 3189W        W 7253   3.316   7.502   1.958 -0.1792  0.1851  0.2410
 3190W        W 7254   9.895   9.218   7.953  0.2122  0.0766  0.2668
 3191W        W 7255   5.525   4.915   2.185 -0.1109 -0.0166  0.1964
 3192W        W 7256   6.906   1.668   1.692 -0.1737 -0.2773  0.1060
 3193W        W 7257   2.165   4.485   3.443  0.1040 -0.0601 -0.1102
 3194W        W 7258   5.678   2.243   2.344  0.0241  0.0353  0.0686
 3195W        W 7259   4.528  10.177   8.475  0.1496 -0.3347  0.0342
 3196W        W 7260   7.482   3.933   9.908 -0.0013 -0.1989 -0.0501
 3197W        W 7261   2.565   8.240   9.023  0.1668 -0.0302 -0.3904
 3198W        W 7262   5.568   0.921   8.959  0.2582  0.0103  0.2681
 3199W        W 7263   3.048   8.786   9.089 -0.0129  0.2337 -0.0047
 3200W        W 7264   7.049   9.487   2.709 -0.1139 -0.4717 -0.4594
 3201W        W 7265   1.715   4.983   0.197 -0.1176  0.1016  0.0574
 3202W        W 7266   2.466   2.172   2.692  0.1471 -0.0422 -0.1534
 3203W        W 7267   7.465   6.759   0.911  0.0557 -0.4077 -0.0707
 3204W        W 7268   8.721   6.791   8.073  0.0372  0.2663  0.1483
 3205W        W 7269  10.640   2.227   2.446 -0.1594 -0.1278  0.3511
 3206W        W 7270   6.597   9.186  10.530 -0.0301 -0.0096  0.2185
 3207W        W 7271   7.712   2.633   9.507 -0.0086 -0.2268  0.4395
 3208W        W 7272  10.009   9.151   3.184  0.0220 -0.1804 -0.0615
 3209W        W 7273   4.489   1.315   2.971 -0.2198  0.1020 -0.1212
 3210W        W 7274   8.373   4.982  10.336 -0.3291  0.1857  0.5003
 3211W        W 7275   4.912   5.810   7.627  0.0064 -0.0517  0.1636
 3212W        W 7276   9.408   1.545   9.641 -0.0104  0.0851 -0.1855
 3213W        W 7277   2.833   1.321   3.205 -0.0665  0.1519  0.1453
 3214W        W 7278  10.360   5.116   8.837  0.1495  0.0621  0.1065
 3215W        W 7279   5.467   3.011   1.980  0.2099 -0.3693  0.5945
 3216W        W 7280   0.561   6.022   7.074  0.0928 -0.4342 -0.0318
 3217W        W 7281   7.844   4.173   1.571 -0.1839 -0.1786  0.0654
 3218W        W 7282   4.814   2.336   3.404 -0.0323  0.0037  0.0178
 3219W        W 7283   3.022   9.956  10.605  0.1778 -0.2666  0.2774
 3220W        W 7284   6.644   7.774   2.482  0.1330  0.0594  0.1673
 3221W        W 7285   9.545  10.641   9.027  0.2550 -0.2854 -0.2512
 3222W        W 7286   5.208   0.641   9.787  0.0772  0.1029  0.1721
 3223W        W 7287   1.674  10.418   2.410  0.3459  0.4397 -0.0582
 3224W        W 7288   0.137   7.417   9.198 -0.1294  0.3109  0.2281
 3225W        W 7289   6.276   6.985   6.770  0.2457 -0.1409 -0.0534
 3226W        W 7290  10.727   5.908   3.810 -0.0047  0.1842 -0.0717
 3227W        W 7291   2.756   6.668   8.393 -0.0841 -0.1554 -0.0792
 3228W        W 7292  10.451   2.940   1.288 -0.2267  0.0827 -0.0095
 3229W        W 7293   5.580   0.527   0.667  0.2352 -0.2981 -0.0912
 3230W        W 7294   7.218   1.933   8.129  0.2144 -0.0012 -0.0694
 3231W        W 7295   3.746   8.527   0.445 -0.3972  0.1026 -0.0467
 3232W        W 7296   5.263   3.882   3.484 -0.0023 -0.1642 -0.1236
 3233W        W 7297   6.402   1.960   7.733 -0.1740 -0.0159  0.1694
 3234W        W 7298   5.076   4.592   8.333  0.0594 -0.0973 -0.0468
 3235W        W 7299   4.678   2.386   1.197 -0.1489 -0.1088  0.2445
 3236W        W 7300   9.787   7.818   0.568  0.2607  0.0559  0.0291
 3237W        W 7301  10.094   5.731   2.511  0.0828 -0.1797 -0.3222
 3238W        W 7302   5.972   9.767   0.274 -0.1981 -0.2808  0.0544
 3239W        W 7303   2.336   2.679   2.899 -0.0295  0.0930  0.2400
 3240W        W 7304   8.421   8.934  10.220 -0.4643  0.1385 -0.1508
 3241W        W 7305   7.438  10.334   1.504  0.0369 -0.1036 -0.0236
 3242W        W 7306   6.318   3.098  11.185 -0.3262  0.0559 -0.2586
 3243W        W 7307   0.877   0.961  10.945 -0.1049  0.2749  0.2604
 3244W        W 7308   5.246   7.547   2.914 -0.1563 -0.1036 -0.0736
 3245W        W 7309   6.571   4.823  11.228  0.0231 -0.0098 -0.1995
 3246W        W 7310   9.629   6.734   7.081 -0.0026 -0.0911 -0.0262
 3247W        W 7311   5.978   0.507   0.352 -0.1809  0.1821 -0.0043
 3248W        W 7312   2.262   8.679  10.529  0.2420  0.2337 -0.0859
 3249W        W 7313   8.876   6.741   7.611 -0.0394 -0.0468  0.0760
 3250W        W 7314   0.677   5.704  10.352  0.1875 -0.2067 -0.2935
 3251W        W 7315   9.174   2.654   3.462 -0.0564 -0.0450  0.1084
 3252W        W 7316   5.090   1.896   2.499  0.6243  0.4146 -0.1846
 3253W        W 7317   6.829   0.075   7.242  0.0379 -0.2276  0.3580
 3254W        W 7318   9.877   7.171   7.166 -0.1348  0.1007  0.1606
 3255W        W 7319   3.070   7.062   9.463  0.4070 -0.1307  0.2707
 3256W        W 7320   2.795   3.356   8.146 -0.1641 -0.1549  0.0223
 3257W        W 7321   7.567   8.811   7.213  0.0113  0.0828 -0.3844
 3258W        W 7322   2.602   1.042   2.880 -0.0303  0.0824  0.1459
 3259W        W 7323   4.769   5.164   0.833 -0.1791  0.2423 -0.1001
 3260W        W 7324   0.851   6.019  11.275  0.0721 -0.2257  0.3372
 3261W        W 7325   7.238   1.972   0.692 -0.1420  0.1200 -0.0155
 3262W        W 7326   6.116   9.754   9.306 -0.1544 -0.1188  0.2083
 3263W        W 7327   2.068   7.552   9.816  0.3977 -0.1158 -0.2061
 3264W        W 7328   7.822   6.548   9.861 -0.2102  0.1994 -0.0059
 3265W        W 7329   5.139   5.067   8.151  0.0596 -0.5405  0.1395
 3266W        W 7330   8.132   7.259   1.815  0.0741  0.3254 -0.0194
 3267W        W 7331   3.755   3.574   9.527 -0.2768  0.3648  0.2348
 3268W        W 7332   6.388   6.558   9.772  0.1117 -0.1537  0.0762
 3269W        W 7333   3.949  10.518  10.392  0.1724  0.0247 -0.0476
 3270W        W 7334   5.300   3.113  10.168 -0.0083 -0.0016 -0.2488
 3271W        W 7335   3.338   3.871   7.756 -0.2224 -0.2796 -0.0279
 3272W        W 7336   1.305   0.139   7.484  0.0859 -0.0007  0.0292
 3273W        W 7337   5.183   6.063   8.833 -0.2832 -0.0426  0.0783
 3274W        W 7338   5.045   4.866  11.271 -0.0060  0.1045 -0.1600
 3275W        W 7339   1.536  10.639   9.735 -0.1703  0.2379  0.0629
 3276W        W 7340   9.552   8.381   8.301 -0.0123 -0.1060 -0.0028
 3277W        W 7341   3.527  10.473   7.631 -0.1609 -0.2179  0.1799
 3278W        W 7342   5.539  10.566   3.164  0.2705  0.0150  0.3016
 3279W        W 7343   1.679   7.164   2.323 -0.1308  0.0728  0.3252
 3280W        W 7344   9.274   5.067   9.802  0.0322 -0.0374  0.1154
 3281W        W 7345   9.322   6.483   7.365 -0.0242  0.4847 -0.0515
 3282W        W 7346   1.034   3.313   9.902  0.1313  0.0901 -0.1924
 3283W        W 7347   3.326   0.064   1.430 -0.0364  0.1042 -0.0230
 3284W        W 7348   2.486   6.283   8.643 -0.3398 -0.0190 -0.1254
 3285W        W 7349   9.910   1.094   1.493  0.4354  0.2111 -0.0972
 3286W        W 7350   5.117   2.640   1.856 -0.1814 -0.1385  0.2780
 3287W        W 7351   3.343   6.659   0.230 -0.1285  0.1359  0.2666
 3288W        W 7352   8.097   6.088   2.691  0.1405  0.3626  0.3524
 3289W        W 7353   1.394   5.958   2.659 -0.2151  0.3034 -0.2354
 3290W        W 7354   1.485   0.264   7.999 -0.1234 -0.1258  0.1588
 3291W        W 7355   0.819   5.267   8.738  0.0236 -0.1834  0.3654
 3292W        W 7356   8.656   6.360   7.857  0.0667  0.1545  0.3298
 3293W        W 7357   7.829   3.449   8.959 -0.0258 -0.1708 -0.1864
 3294W        W 7358   6.477   0.249   0.478 -0.0776  0.3134 -0.0533
 3295W        W 7359   5.465   1.265  10.500 -0.1184 -0.0217  0.0770
 3296W        W 7360  10.403   3.439   1.229 -0.3028 -0.0766 -0.0289
 3297W        W 7361   1.597   6.969   7.893  0.0200 -0.4087  0.1562
 3298W        W 7362   8.538   2.210   2.126 -0.1384  0.0312  0.5266
 3299W        W 7363   7.692   0.260   1.306  0.0381 -0.3496  0.2527
 3300W        W 7364   8.443   2.123  10.923 -0.3780 -0.0562  0.2941
 3301W        W 7365   5.562  10.028   0.819  0.0998  0.0086 -0.0610
 3302W        W 7366   8.746   2.197   0.355  0.2585 -0.0434 -0.1550
 3303W        W 7367   5.504   0.544   9.329 -0.0827 -0.1694 -0.0278
 3304W        W 7368   8.680   6.555   7.201  0.1799  0.1638  0.0815
 3305W        W 7369   5.519   5.289   9.401  0.0537  0.2447  0.1260
 3306W        W 7370   4.622   8.707   3.355 -0.1076  0.1331  0.0642
 3307W        W 7371   6.385   5.694   0.645  0.3063  0.1022 -0.0048
 3308W        W 7372   2.183   6.011   0.938  0.0617 -0.2049  0.1387
 3309W        W 7373   0.929   4.764   2.194 -0.0092  0.2102 -0.4101
 3310W        W 7374   3.528   1.999   3.614  0.0295 -0.0221  0.0984
 3311W        W 7375   1.995   2.850  10.963 -0.2958 -0.0464 -0.0914
 3312W        W 7376   7.929   2.521   7.737 -0.2703  0.0147 -0.0255
 3313W        W 7377   2.542   9.022  10.811 -0.0327  0.4109  0.1001
 3314W        W 7378   8.822   2.454  11.171  0.1993 -0.2553 -0.0119
 3315W        W 7379   8.289  10.121   9.431  0.1941  0.1454  0.0337
 3316W        W 7380   7.837   2.671   1.597  0.0996  0.0337 -0.2467
 3317W        W 7381   5.375   5.098   1.744 -0.1162 -0.0560  0.0115
 3318W        W 7382   2.211   4.041   2.183  0.0940  0.1213  0.4522
 3319W        W 7383   0.621   2.327  10.901  0.3608  0.3111  0.0945
 3320W        W 7384   6.087   9.598   2.559 -0.0606 -0.0536 -0.3243
 3321W        W 7385   1.043   0.774   2.363 -0.0379  0.1296  0.3695
 3322W        W 7386   9.648   6.978   9.476  0.3029  0.0688  0.1039
 3323W        W 7387   4.123  10.066   0.630 -0.2203  0.1781  0.0552
 3324W        W 7388   3.333   6.505   1.526 -0.1872  0.3213  0.1383
 3325W        W 7389   9.879   1.893  11.208  0.0852  0.2829  0.4014
 3326W        W 7390   5.735   8.227   2.291  0.1097 -0.1227 -0.0088
 3327W        W 7391   3.630   7.403  10.112 -0.2645 -0.2731 -0.1370
 3328W        W 7392   3.327   0.527   3.925 -0.2536  0.0295 -0.1256
 3329W        W 7393   8.285   0.233   9.915 -0.2493 -0.2393  0.0104
 3330W        W 7394   2.031   2.129   9.135  0.0441  0.2972  0.2042
 3331W        W 7395   4.709   4.604   2.501  0.0873 -0.0242 -0.0246
 3332W        W 7396   3.904   2.028   8.318 -0.0058 -0.0543 -0.2354
 3333W        W 7397   1.128   3.767   1.376 -0.0012  0.1133  0.0766
 3334W        W 7398   9.155   5.304  10.682 -0.2663  0.1505 -0.1607
 3335W        W 7399   1.363   3.664  10.858  0.1521  0.2713  0.1825
 3336W        W 7400   4.141   1.051   0.595 -0.0289 -0.3034 -0.2863
 3337W        W 7401   6.499   0.070   0.972  0.0849  0.0002  0.2046
 3338W        W 7402   5.696   7.021   9.641 -0.1193 -0.0725  0.1349
 3339W        W 7403   8.243   2.070   2.507  0.0465  0.1354  0.0632
 3340W        W 7404   9.740   9.850  10.725 -0.2664  0.1731 -0.1892
 3341W        W 7405   2.430   1.585  10.580  0.3812  0.1053 -0.0800
 3342W        W 7406   4.929   4.984   8.665 -0.1051  0.1813  0.0801
 3343W        W 7407   1.719  10.079   8.915  0.2097  0.2106 -0.2538
 3344W        W 7408   7.243   2.313   9.459  0.0264  0.2306  0.0843
 3345W        W 7409   9.605   4.361   0.450 -0.0532  0.2386 -0.2294
 3346W        W 7410   9.147   9.243   3.098 -0.0880  0.0149  0.1784
 3347W        W 7411   6.292   2.188   3.243 -0.0364  0.0853  0.1049
 3348W        W 7412   9.477   2.864   9.193 -0.0960 -0.1521  0.1096
 3349W        W 7413   1.433   9.800   0.525 -0.1183  0.1407 -0.0722
 3350W        W 7414   4.158  10.219   2.090  0.3385 -0.0027  0.1650
 3351W        W 7415   9.923   5.746  11.074  0.2137  0.1106 -0.1512
 3352W        W 7416   2.588   3.515   9.072 -0.1605 -0.1381  0.3502
 3353W        W 7417  10.658   7.553   1.203 -0.1188 -0.2065 -0.2154
 3354W        W 7418   2.270   0.890   8.234  0.0200 -0.5149 -0.0803
 3355W        W 7419   9.566   4.568   0.009 -0.0905 -0.1342  0.0453
 3356W        W 7420   3.060   9.405   7.691 -0.1098 -0.3203 -0.3483
 3357W        W 7421   9.789   1.585   9.961  0.0002 -0.2001 -0.1420
 3358W        W 7422   5.147   2.924   8.097  0.2577  0.1369 -0.0647
 3359W        W 7423   3.962   8.573   2.795  0.2169 -0.1519 -0.0816
 3360W        W 7424   6.539   6.882   2.792  0.1538 -0.3168 -0.1705
 3361W        W 7425   3.723   9.596   0.919 -0.0385  0.1051  0.0639
 3362W        W 7426   7.971   3.890   0.750  0.0563  0.2568  0.1288
 3363W        W 7427   3.861   6.250   8.961 -0.0385 -0.3490  0.3027
 3364W        W 7428   9.269   9.044   9.110 -0.0372 -0.1573  0.2153
 3365W        W 7429   7.373   3.592   1.934 -0.1033 -0.0684  0.0472
 3366W        W 7430   1.001   3.783  11.288 -0.0761  0.1605  0.0722
 3367W        W 7431   5.645   8.085   9.463  0.1276 -0.0945 -0.0627
 3368W        W 7432   7.014   9.562   2.052 -0.2044 -0.0247 -0.0570
 3369W        W 7433   4.672   1.062   1.182  0.1695  0.1430  0.0408
 3370W        W 7434   5.904   5.144   1.840  0.1268 -0.0859 -0.1877
 3371W        W 7435   6.077   2.044   9.690 -0.0286  0.3043 -0.1899
 3372W        W 7436   1.536   4.848   1.984  0.2903  0.0220  0.1751
 3373W        W 7437   9.794   0.558   3.387 -0.3091 -0.1788 -0.0282
 3374W        W 7438   4.535  10.596   1.917  0.2423  0.3880  0.4159
 3375W        W 7439   6.034   4.564   8.989  0.1080  0.2833  0.0994
 3376W        W 7440   8.849   2.058   6.655 -0.2458 -0.0635  0.1752
 3377W        W 7441   2.519   1.226   9.495 -0.0295 -0.4289  0.0443
 3378W        W 7442   4.671   9.577   9.406  0.0183 -0.0670 -0.2278
 3379W        W 7443   7.769   3.578  10.722 -0.3010  0.1588 -0.1563
 3380W        W 7444   4.392   3.467   8.231  0.0135  0.1004  0.1203
 3381W        W 7445   8.073   8.426   0.777  0.0138 -0.0351 -0.0448
 3382W        W 7446   1.453   2.150   8.360  0.1283 -0.2636 -0.2237
 3383W        W 7447  10.185   0.322   3.250  0.2270 -0.0976 -0.1903
 3384W        W 7448   8.940   0.689  10.585  0.2086  0.2745  0.0015
 3385W        W 7449   7.235   0.573  11.296 -0.0299  0.0167 -0.0915
 3386W        W 7450   9.471   1.144   2.339  0.0104  0.0639  0.0597
 3387W        W 7451   4.531   4.889   2.969 -0.1786 -0.0010  0.1037
 3388W        W 7452  10.137   2.055   2.446  0.1927  0.1075  0.0254
 3389W        W 7453   8.833   6.737   0.253  0.1301  0.0973  0.0165
 3390W        W 7454   5.257   8.162   3.012  0.3591 -0.1852 -0.4515
 3391W        W 7455   2.149   2.602   7.877  0.0283  0.0793 -0.0399
 3392W        W 7456   1.177   9.043   1.333 -0.0724 -0.2804  0.2439
 3393W        W 7457   0.509   0.940   0.070  0.2177  0.0755  0.2076
 3394W        W 7458   9.836   6.278   8.424 -0.0755  0.0156  0.3339
 3395W        W 7459   0.295   8.838   1.375 -0.0018 -0.0511  0.0859
 3396W        W 7460   3.235   0.460  10.687 -0.2457 -0.1331 -0.4971
 3397W        W 7461   8.348   5.788   3.044  0.0899 -0.1233  0.1587
 3398W        W 7462   7.157   7.174   9.772  0.0314  0.0400 -0.2698
 3399W        W 7463   4.694   0.166   3.413 -0.0517  0.0045  0.1157
 3400W        W 7464   2.614  10.274   9.428  0.1599  0.0301  0.1324
 3401W        W 7465   9.251   1.699   7.448  0.3748 -0.1965 -0.2359
 3402W        W 7466   5.363   7.870  11.237  0.3514 -0.1864 -0.2262
 3403W        W 7467   1.168   9.294   0.869 -0.2517 -0.2241 -0.0767
 3404W        W 7468   8.778   3.505   0.133  0.2145 -0.1575 -0.0217
 3405W        W 7469   0.217   8.331  10.682 -0.2015 -0.0575 -0.2218
 3406W        W 7470  10.309   4.364   7.632 -0.1295 -0.2805 -0.2988
 3407W        W 7471   9.898   8.292   7.455 -0.0307 -0.1475  0.0872
 3408W        W 7472   2.349   8.831  11.272 -0.0807  0.1457 -0.0213
 3409W        W 7473   5.334   7.420  10.405 -0.4048 -0.3733 -0.0282
 3410W        W 7474   0.586   4.853   3.104 -0.2316 -0.1192 -0.0395
 3411W        W 7475   3.443   6.143   9.447 -0.0245 -0.1211  0.2220
 3412W        W 7476   0.493   7.763   8.941  0.0785  0.0189  0.0507
 3413W        W 7477   0.885   4.816   2.693  0.1071  0.1022 -0.1711
 3414W        W 7478  10.412   0.273   2.724  0.0700  0.2258  0.0433
 3415W        W 7479   8.222   7.701   6.639  0.0355  0.0708 -0.0337
 3416W        W 7480   3.288   6.835   9.859  0.2938  0.2637 -0.2528
 3417W        W 7481   9.866   6.360   9.714  0.2093 -0.3047  0.2328
 3418W        W 7482   8.603   9.726   0.344 -0.0697 -0.1332  0.0952
 3419W        W 7483   5.764   7.740   8.608  0.1416 -0.0524  0.4949
 3420W        W 7484   2.493   8.704   1.492  0.0211 -0.4440  0.4724
 3421W        W 7485   8.506   6.314  10.664 -0.0423 -0.0540 -0.0405
 3422W        W 7486   7.220   0.907   7.755 -0.0401  0.1304 -0.0414
 3423W        W 7487   9.308   2.574  10.484  0.0003  0.0372 -0.0427
 3424W        W 7488   3.427   5.538   1.170  0.2142  0.0200 -0.2329
 3425W        W 7489   7.763   3.003   7.708  0.1777  0.1017  0.0562
 3426W        W 7490   9.797  10.227   7.630  0.3161  0.1887 -0.3881
 3427W        W 7491   3.584   4.768   3.093 -0.0959  0.0342 -0.0055
 3428W        W 7492   3.444   8.635   1.015  0.0956  0.0371  0.0809
 3429W        W 7493   1.128   8.333   8.699 -0.1777  0.0204 -0.0833
 3430W        W 7494   8.387   6.802   1.453  0.3677  0.0702  0.0330
 3431W        W 7495   8.556   9.570   8.572 -0.1917 -0.3045 -0.1346
 3432W        W 7496   5.704   7.123   8.801  0.1125 -0.2691  0.2245
 3433W        W 7497   7.801   7.795  10.788  0.1197 -0.2981 -0.3678
 3434W        W 7498   0.735   8.796  10.514 -0.2619  0.1100 -0.0699
 3435W        W 7499   9.301   8.556  10.844  0.2827  0.1355  0.3965
 3436W        W 7500   6.781   1.098  10.683 -0.2753 -0.0144  0.0238
 3437W        W 7501   4.118   8.242   2.444 -0.0896  0.2107  0.0259
 3438W        W 7502   9.322  10.177  10.601 -0.0030 -0.3535 -0.1230
 3439W        W 7503   7.327  10.143   9.441 -0.1250  0.0312  0.0801
 3440W        W 7504   1.437   1.500   8.437 -0.1516  0.1403 -0.0432
 3441W        W 7505   8.811   9.406   2.364 -0.1303  0.2162  0.3235
 3442W        W 7506  10.222   4.634   2.022  0.2138  0.2179 -0.1806
 3443W        W 7507   4.270   0.150   1.610  0.1868 -0.1685  0.3809
 3444W        W 7508   1.335   7.835   0.534  0.2337  0.1962 -0.3143
 3445W        W 7509   8.164   8.670   2.734  0.3282  0.2313  0.0215
 3446W        W 7510   4.214   6.116   8.648 -0.0133  0.1461 -0.1270
 3447W        W 7511   7.451   9.023  10.325 -0.0221 -0.0409  0.3150
 3448W        W 7512   6.617   7.383   0.123  0.0737 -0.1785 -0.0928
 3449W        W 7513  10.662   7.575   8.221  0.2703 -0.2589 -0.2679
 3450W        W 7514  10.025   6.225  11.229  0.0161 -0.1107  0.0728
 3451W        W 7515   0.494   7.757   1.387 -0.1148 -0.3930 -0.0141
 3452W        W 7516  10.146   2.900   7.981 -0.0738  0.1435 -0.3059
 3453W        W 7517  10.132   6.143  10.164  0.1218 -0.3026  0.2910
 3454W        W 7518   5.426   4.931   3.046  0.0751 -0.0487 -0.2966
 3455W        W 7519   3.211   6.284  10.656 -0.0057 -0.0314  0.2167
 3456W        W 7520   2.774   9.185   8.922 -0.0344  0.2470 -0.1193
 3457W        W 7521   5.108   5.560   1.118 -0.2026 -0.0820 -0.3552
 3458W        W 7522   6.273   0.367   8.447 -0.0364 -0.0299 -0.1316
 3459W        W 7523   2.469   4.365   1.838  0.2177  0.3512 -0.1768
 3460W        W 7524   6.993  10.125   2.031 -0.0458 -0.1970  0.1388
 3461W        W 7525   6.898   8.330   6.697 -0.0453 -0.1510 -0.1563
 3462W        W 7526   6.818   3.486   9.951 -0.1810 -0.0576 -0.1046
 3463W        W 7527   8.526   9.280   9.862 -0.1436  0.1645 -0.0639
 3464W        W 7528   2.512   8.168  10.417 -0.0160  0.1210 -0.0553
 3465W        W 7529   5.461   3.006   3.263 -0.1121 -0.2125  0.0981
 3466W        W 7530   4.298   4.379   0.527 -0.0172 -0.2733 -0.3932
 3467W        W 7531   3.092   0.253   2.284  0.0263  0.3452  0.0255
 3468W        W 7532   9.704   5.073   2.889  0.2788 -0.3963  0.1070
 3469W        W 7533   1.962   2.268   8.310 -0.0399  0.3137  0.0995
 3470W        W 7534   0.709   9.585   7.951  0.0707 -0.0598  0.0092
 3471W        W 7535   8.120   1.096   2.653 -0.0747  0.0413 -0.0663
 3472W        W 7536   0.847   7.262   2.307 -0.0488  0.1405 -0.1517
 3473W        W 7537   4.753   3.632   0.122  0.0115  0.0768  0.1783
 3474W        W 7538   2.418   1.317  10.099  0.0024 -0.0125  0.2392
 3475W        W 7539   3.836   8.516   1.420 -0.0292 -0.1644  0.2652
 3476W        W 7540   0.098   8.557   8.585  0.0192  0.3453 -0.1128
 3477W        W 7541   3.966   7.381   9.734  0.0770  0.0257  0.0889
 3478W        W 7542   3.402   5.973   8.520  0.0969 -0.0044 -0.1264
 3479W        W 7543   9.331   0.074   9.883 -0.1024 -0.3518 -0.1913
 3480W        W 7544   8.733   8.651   7.890  0.0765  0.1454 -0.0144
 3481W        W 7545   3.322   3.597   2.255  0.1931  0.1931  0.3685
 3482W        W 7546   7.441   5.970   8.154 -0.0314 -0.0726 -0.3968
 3483W        W 7547   0.809   4.714   8.757  0.2692 -0.0457 -0.1654
 3484W        W 7548   3.160   5.602   8.230 -0.0084  0.0940  0.2078
 3485W        W 7549   4.868   8.365   0.185  0.2848 -0.0660  0.2554
 3486W        W 7550   4.433   4.101   1.895 -0.0975 -0.0733 -0.3452
 3487W        W 7551   9.525   6.579   1.368 -0.0625 -0.1089 -0.0594
 3488W        W 7552   9.198   0.327   2.723  0.2023  0.0831 -0.1136
 3489W        W 7553   0.393   6.975   9.381  0.0578 -0.0545 -0.0482
 3490W        W 7554   9.286   8.019   7.340  0.1075  0.4061 -0.0278
 3491W        W 7555   5.795   3.830  10.139  0.1680 -0.0571  0.1175
 3492W        W 7556   0.785  10.571  10.066  0.0393  0.2578 -0.1809
 3493W        W 7557   5.543   2.465   0.207  0.0481 -0.0611 -0.1661
 3494W        W 7558   9.912   5.691   9.613 -0.1294  0.1183  0.2323
 3495W        W 7559   6.212  10.593   9.484  0.1195 -0.2548 -0.0059
 3496W        W 7560   4.719   1.672  10.501  0.0021  0.1768  0.1386
 3497W        W 7561   2.783   6.005  10.426 -0.0108  0.1071 -0.1445
 3498W        W 7562   6.670   2.337   1.244 -0.2322  0.0061  0.0473
 3499W        W 7563   0.559   4.295   2.342  0.0231  0.1628 -0.0300
 3500W        W 7564   7.720   0.017   9.811  0.0066 -0.0703  0.0143
 3501W        W 7565   0.961   1.343   0.349  0.0412 -0.4425 -0.0576
 3502W        W 7566   0.151   6.496   3.200 -0.1205 -0.2060 -0.1773
 3503W        W 7567   0.742   4.377   1.333 -0.0819  0.4728 -0.0794
 3504W        W 7568   9.872   5.861   0.270 -0.2859  0.4927 -0.3149
 3505W        W 7569   6.279   4.165  10.157 -0.3140  0.0931 -0.2926
 3506W        W 7570   5.027   8.327   8.777 -0.0454 -0.2355 -0.1106
 3507W        W 7571   2.788   0.242   1.300  0.2075  0.1503  0.0670
 3508W        W 7572   2.800   9.231   2.085 -0.0622 -0.2488 -0.1055
 3509W        W 7573   3.810   1.011   9.420 -0.2322  0.0231  0.2123
 3510W        W 7574   0.570   3.920  10.952  0.1343 -0.0890  0.3556
 3511W        W 7575   5.839   9.847   2.205 -0.0887 -0.0880 -0.1119
 3512W        W 7576   4.749   3.397   8.671  0.5310 -0.0686  0.0055
 3513W        W 7577   6.316   3.392   7.745  0.0165 -0.1557  0.0129
 3514W        W 7578   8.976   3.321  10.900  0.0648  0.1808  0.0381
 3515W        W 7579   5.626   2.988   8.308  0.2811  0.0240 -0.3660
 3516W        W 7580   8.400   9.178   8.268  0.1310 -0.2441 -0.1997
 3517W        W 7581   2.634   4.045   9.791 -0.0800 -0.0139 -0.0634
 3518W        W 7582   0.905   6.160   0.438  0.0914  0.0617  0.1495
 3519W        W 7583   7.650  10.024  10.094 -0.0794 -0.0193 -0.0883
 3520W        W 7584   5.400   3.227   0.429 -0.0655 -0.1418  0.1771
 3521W        W 7585   7.170   0.915   8.222  0.2087  0.0263 -0.0778
 3522W        W 7586   3.731  10.044   0.205 -0.0178  0.1468  0.1436
 3523W        W 7587   6.114   6.604   0.090 -0.4281  0.0773 -0.2283
 3524W        W 7588  10.263   5.657  10.155  0.1158  0.0864  0.2496
 3525W        W 7589   6.669   9.172   8.831 -0.0540 -0.0704  0.0538
 3526W        W 7590   9.339   8.835   6.799  0.1029 -0.1844 -0.0098
 3527W        W 7591   7.119   8.388   8.629  0.0453 -0.0792 -0.0580
 3528W        W 7592   2.683   9.315   9.429  0.0725 -0.0192 -0.0538
 3529W        W 7593   3.252   4.959  10.057 -0.1680 -0.2624 -0.3998
 3530W        W 7594   3.116   5.651   2.938 -0.2872 -0.0019 -0.1538
 3531W        W 7595   0.968   1.462   8.939  0.1157  0.1441  0.2220
 3532W        W 7596   5.331   9.886   1.880  0.2325 -0.1162 -0.2439
 3533W        W 7597   9.675   3.004   1.711  0.2564  0.1885  0.1407
 3534W        W 7598   7.480   3.966   0.550  0.3589  0.2751  0.0274
 3535W        W 7599  10.257   8.094   3.566 -0.0764  0.3276  0.0183
 3536W        W 7600   4.675   4.555   8.743  0.0730  0.1534 -0.0771
 3537W        W 7601   2.942   6.114   8.407  0.2209 -0.1627  0.0893
 3538W        W 7602   5.463   5.592   1.548  0.1686  0.0806 -0.1446
 3539W        W 7603  10.755   2.545   2.845 -0.1332 -0.1885 -0.2447
 3540W        W 7604   7.345   7.623  10.433  0.1205  0.0625 -0.2285
 3541W        W 7605  10.056   4.321   0.231  0.1070 -0.0063 -0.3236
 3542W        W 7606  10.382   6.574   1.511 -0.0447 -0.0320  0.1061
 3543W        W 7607   3.726   6.807   8.743  0.0323 -0.2247  0.1073
 3544W        W 7608  10.514   9.759   9.508  0.3429 -0.4669  0.0691
 3545W        W 7609   9.743   2.055   0.888 -0.2545  0.1842  0.0825
 3546W        W 7610   1.533   6.570   1.425 -0.0101  0.0100  0.2708
 3547W        W 7611   6.511  10.233   9.660 -0.1706 -0.2422 -0.2551
 3548W        W 7612   0.253   0.918   2.899  0.0262  0.0285  0.0728
 3549W        W 7613   4.706   8.485  10.556  0.0503  0.2390  0.0376
 3550W        W 7614   6.272   4.962   0.804  0.1043 -0.0313 -0.1122
 3551W        W 7615   0.125   6.600   9.223  0.2997 -0.3552  0.0962
 3552W        W 7616   5.777   8.168   1.775  0.2990  0.3966 -0.0830
 3553W        W 7617   4.467   9.908   9.020 -0.2090 -0.0352  0.0721
 3554W        W 7618   0.632   9.827   0.501 -0.1518 -0.2256  0.0824
 3555W        W 7619   5.910   0.775   1.016  0.2064  0.0180 -0.0944
 3556W        W 7620   3.581   7.482   3.277 -0.2829  0.0299  0.1045
 3557W        W 7621   0.302   3.862   8.787  0.0031 -0.2400 -0.1405
 3558W        W 7622   5.436  10.223  10.406  0.1309 -0.0354  0.2868
 3559W        W 7623   4.309   3.570   1.109  0.0698  0.1270 -0.1987
 3560W        W 7624  10.179   1.989   9.090  0.1137 -0.0468 -0.1797
 3561W        W 7625   3.265   6.328   8.088 -0.2506 -0.0665 -0.0497
 3562W        W 7626   3.132   0.138  11.285 -0.1770  0.1532 -0.0353
 3563W        W 7627   0.814   2.316   0.070  0.2894  0.0421  0.2997
 3564W        W 7628   6.036   3.445   2.590 -0.1171 -0.1050  0.2300
 3565W        W 7629   0.954   4.543   9.261 -0.2702  0.1243 -0.1822
 3566W        W 7630   5.920   7.375   1.385  0.1223  0.2899  0.1205
 3567W        W 7631   7.144   0.092   8.064  0.1604 -0.1119  0.1518
 3568W        W 7632   2.120   5.498   0.861  0.1696 -0.0188 -0.1581
 3569W        W 7633   8.911   9.089   8.490 -0.0870 -0.2274  0.4244
 3570W        W 7634   7.755   6.955   9.239 -0.0528 -0.0098  0.0968
 3571W        W 7635   6.764  10.340   2.492 -0.0270  0.2734 -0.1600
 3572W        W 7636   8.983   3.473   7.635  0.0829 -0.0285  0.1432
 3573W        W 7637   7.042   8.294   9.858 -0.2338 -0.5607 -0.2349
 3574W        W 7638   8.130   6.920   2.888 -0.1144 -0.1421 -0.0652
 3575W        W 7639   8.169   7.678   9.127  0.1140  0.1485  0.0008
 3576W        W 7640   9.587   1.212   1.840  0.1138 -0.0105  0.1708
 3577W        W 7641   0.694   9.159   9.016  0.0939  0.1989 -0.0006
 3578W        W 7642   9.718   6.675  10.965 -0.0397 -0.0219 -0.1708
 3579W        W 7643  10.749  10.444   0.240  0.0730 -0.1379 -0.0121
 3580W        W 7644   2.874   6.476   3.733 -0.2414  0.0274 -0.0933
 3581W        W 7645   0.065   3.066  11.221  0.2157  0.0956 -0.0242
 3582W        W 7646   4.455   7.174  10.465  0.1122 -0.3710 -0.0016
 3583W        W 7647   1.033   2.629  10.539  0.1246  0.0065  0.5413
 3584W        W 7648   7.710   3.820   9.490  0.0424  0.0305 -0.0898
 3585W        W 7649   3.220   0.777   9.558  0.1068 -0.0574  0.3050
 3586W        W 7650   8.491   7.625   3.101 -0.2417 -0.1699  0.2840
 3587W        W 7651   8.772   5.036   8.733  0.0069 -0.0905 -0.0498
 3588W        W 7652   6.192   4.468   8.492 -0.1202  0.3825 -0.4781
 3589W        W 7653   0.121   7.983   1.156  0.2927 -0.1559 -0.0031
 3590W        W 7654   5.389   5.102   7.649 -0.0369  0.1798 -0.0079
 3591W        W 7655   4.739  10.380  10.770 -0.1252  0.1238 -0.3128
 3592W        W 7656   1.696   6.898   9.397 -0.2107  0.2191 -0.0009
 3593W        W 7657   1.349   7.770   1.647 -0.0524 -0.1522 -0.2777
 3594W        W 7658   8.649   7.700  10.740  0.0017  0.1298  0.0150
 3595W        W 7659   8.348   5.839   9.498  0.0981  0.2147  0.1417
 3596W        W 7660   3.752   1.800   0.564  0.0348  0.0214 -0.0035
 3597W        W 7661   0.877   0.915   8.068 -0.0835  0.3592 -0.2877
 3598W        W 7662   1.088   1.496   2.045  0.0579  0.1046  0.0569
 3599W        W 7663   2.429   8.477   4.194  0.2492 -0.0329  0.1480
 3600W        W 7664   3.766   6.282   0.247 -0.1282  0.4246  0.0198
 3601W        W 7665   0.647   7.696   2.291 -0.0529  0.1057  0.2774
 3602W        W 7666   8.048   9.902   2.783  0.0365  0.0551 -0.0475
 3603W        W 7667   7.322   8.295   0.821  0.1686 -0.0739 -0.0903
 3604W        W 7668   5.765  10.000  10.769  0.2594  0.4282  0.3248
 3605W        W 7669   3.687   5.667   0.635  0.2928 -0.0966 -0.0716
 3606W        W 7670   3.581   3.272  10.814  0.0523 -0.1017 -0.0961
 3607W        W 7671   9.064   5.176  11.198  0.1742 -0.0149  0.0945
 3608W        W 7672   7.845   7.439   9.544 -0.4078  0.0768 -0.2502
 3609W        W 7673   1.189   1.593   7.547  0.2042  0.1629  0.1119
 3610W        W 7674   2.127   9.779  11.102 -0.0165 -0.0629  0.0714
 3611W        W 7675   2.110   7.048   7.810  0.3294  0.0976  0.2410
 3612W        W 7676  10.689   9.715   7.669  0.0455  0.2307  0.1445
 3613W        W 7677   5.296   4.599   1.678  0.2558 -0.3687 -0.2340
 3614W        W 7678   8.665   1.710   9.192  0.2234  0.2759 -0.0925
 3615W        W 7679   8.769   8.179   9.200 -0.0351  0.0550  0.1020
 3616W        W 7680   7.629   6.739  10.628  0.0401 -0.1552 -0.0577
 3617W        W 7681   1.238   9.204   0.060 -0.1244 -0.0670 -0.0292
 3618W        W 7682   8.388   9.908  10.797 -0.0469  0.0754  0.0929
 3619W        W 7683   4.631  10.139   2.214 -0.2411 -0.0913 -0.1854
 3620W        W 7684  10.101   8.401  11.286 -0.0392 -0.1343  0.1825
 3621W        W 7685   8.983   7.219  10.683  0.4297  0.0078 -0.1118
 3622W        W 7686   8.493   4.330   2.128  0.0917  0.0622 -0.0058
 3623W        W 7687   4.561   1.019  10.030  0.0346 -0.0774  0.0447
 3624W        W 7688   8.599   1.664   1.377  0.3963 -0.1640 -0.1285
 3625W        W 7689   4.109   6.633   8.401  0.1102 -0.0269 -0.3412
 3626W        W 7690   0.078   1.073   7.981  0.1615 -0.0049 -0.0735
 3627W        W 7691   3.943   8.069   8.659  0.0693  0.2550 -0.1244
 3628W        W 7692   3.918   6.064   3.255  0.0176  0.0942 -0.2233
 3629W        W 7693   6.600   3.312  10.726 -0.2408 -0.0352  0.0036
 3630W        W 7694   1.446   7.241  10.360 -0.4747  0.2767  0.3836
 3631W        W 7695   8.570   3.201   0.437 -0.0361  0.0373  0.1090
 3632W        W 7696   8.107   3.789   9.794  0.0524 -0.3025  0.0618
 3633W        W 7697   2.055   7.791   1.746 -0.4194 -0.5853 -0.3303
 3634W        W 7698   7.108   3.723   7.830  0.0262 -0.2562  0.0838
 3635W        W 7699   5.919   8.874   9.013  0.0661  0.2143  0.0786
 3636W        W 7700   9.977   8.873   9.562  0.2658 -0.0487  0.3742
 3637W        W 7701   7.341   6.648  10.047 -0.0022 -0.1677 -0.4129
 3638W        W 7702   8.266   9.131   2.624 -0.2104 -0.2350  0.0160
 3639W        W 7703   8.475   0.730   0.979  0.0795 -0.1028 -0.0324
 3640W        W 7704   8.181   6.491   8.427 -0.3991  0.3491 -0.0202
 3641W        W 7705   2.369   9.174   2.415 -0.0503  0.2426  0.2052
 3642W        W 7706   6.598   6.468  10.599 -0.1372 -0.0947  0.0167
 3643W        W 7707   9.417   0.710  10.758 -0.1034 -0.0359  0.0169
 3644W        W 7708   2.869   4.998   9.769  0.2657  0.0362  0.0698
 3645W        W 7709   5.744  10.761  10.271  0.1272 -0.0249  0.1182
 3646W        W 7710   5.180   5.874   2.038  0.1514  0.0376  0.1230
 3647W        W 7711   8.164  10.156   9.973  0.1174  0.2308  0.0337
 3648W        W 7712   1.374   3.074   9.130 -0.3269  0.0043 -0.1479
 3649W        W 7713   7.102   5.778  11.162  0.3178 -0.0102  0.0815
 3650W        W 7714   2.831   2.082   8.357 -0.1866  0.1376 -0.0467
 3651W        W 7715  10.022   9.366   2.264 -0.2559 -0.4988 -0.0574
 3652W        W 7716   8.186  10.134   8.462 -0.2120 -0.1768 -0.0077
 3653W        W 7717   9.430   5.515  10.278  0.2291  0.1078  0.0277
 3654W        W 7718   2.409   2.292  10.329 -0.1375 -0.1116  0.0210
 3655W        W 7719   3.241   7.682   1.459 -0.1250 -0.4896 -0.1773
 3656W        W 7720  10.568   7.366   2.800  0.0889  0.0441 -0.0539
 3657W        W 7721   2.223   9.349   7.886  0.0089  0.1893  0.2728
 3658W        W 7722   0.244   6.783   1.180  0.3245  0.0850 -0.0032
 3659W        W 7723   3.711   0.723   0.670  0.1723 -0.1276 -0.0223
 3660W        W 7724   6.277   9.449  10.956 -0.2430  0.0705 -0.2193
 3661W        W 7725   8.949   4.190   8.069 -0.5411 -0.1416 -0.0262
 3662W        W 7726   2.083   8.257   8.779  0.1403  0.2274  0.2624
 3663W        W 7727  10.361   3.695  10.954 -0.0868  0.1792  0.1368
 3664W        W 7728   5.408   3.616   0.893 -0.3411 -0.1786 -0.0171
 3665W        W 7729   2.658   8.404   2.594  0.5019  0.0927 -0.2575
 3666W        W 7730   0.123   8.584   7.066  0.0638  0.0472 -0.2547
 3667W        W 7731   6.765   6.408   2.588  0.4326  0.0594 -0.0414
 3668W        W 7732   5.959   4.686   2.200 -0.1833  0.0524 -0.0646
 3669W        W 7733   7.239   2.754   8.405  0.2843 -0.0184 -0.0107
 3670W        W 7734   4.695   3.341   9.287  0.1220  0.0367 -0.2562
 3671W        W 7735   1.210   3.995   8.755 -0.2141  0.0294  0.0090
 3672W        W 7736   9.884   6.584  10.427  0.2351  0.2974  0.0754
 3673W        W 7737   8.862  10.644   7.807 -0.2068  0.0362  0.1934
 3674W        W 7738   9.284   7.617   2.411  0.3361 -0.1693 -0.0260
 3675W        W 7739  10.714   9.136   0.052 -0.3239 -0.0372 -0.0181
 3676W        W 7740   2.776   3.550   2.477  0.0584  0.0637 -0.0299
 3677W        W 7741   8.137   9.225   1.753  0.2411 -0.2451  0.0632
 3678W        W 7742   1.009   8.589   1.397 -0.2803 -0.0897  0.0881
 3679W        W 7743   4.335   8.868   2.329  0.0005  0.0475  0.0874
 3680W        W 7744   0.030   5.335   9.786 -0.3631 -0.1079  0.1927
 3681W        W 7745   8.616   2.941  10.806  0.2210 -0.1107 -0.0398
 3682W        W 7746   8.218   8.262   0.330  0.0223 -0.0607 -0.0414
 3683W        W 7747  10.511   1.930  10.523 -0.0901  0.0827 -0.0672
 3684W        W 7748   9.229   6.951   7.342 -0.1610 -0.0093  0.0397
 3685W        W 7749   4.325   5.402   0.580 -0.1444  0.1780  0.0286
 3686W        W 7750   2.349   1.434   1.123  0.2353 -0.0152 -0.2654
 3687W        W 7751   9.783   0.277   9.318 -0.0127 -0.2948  0.0423
 3688W        W 7752   2.830   5.610  10.065  0.2925  0.1460 -0.3088
 3689W        W 7753   1.141   8.716   7.413 -0.0508  0.0578  0.1583
 3690W        W 7754   3.025   3.144   9.861 -0.1327  0.2480 -0.3450
 3691W        W 7755   0.452   2.960   3.899  0.0936  0.3710 -0.0139
 3692W        W 7756   5.171   2.796   0.042  0.0866  0.1065 -0.4347
 3693W        W 7757   3.993   3.409   0.699 -0.0147 -0.2392  0.4203
 3694W        W 7758   6.890   4.033   2.439  0.0359 -0.2156  0.2322
 3695W        W 7759   8.839   6.781   0.855 -0.0283 -0.2963 -0.1210
 3696W        W 7760   6.970   0.632  10.791 -0.2636  0.3389 -0.1743
 3697W        W 7761   6.597   8.855   0.788  0.0879  0.0839 -0.0777
 3698W        W 7762   0.581   3.476   1.244 -0.0154  0.2776  0.0933
 3699W        W 7763   6.313   9.284   9.169  0.0713  0.1577 -0.0125
 3700W        W 7764   4.815   7.862   7.692 -0.3227  0.1374  0.2333
 3701W        W 7765   2.135   8.366   1.566  0.1543 -0.2450  0.1112
 3702W        W 7766   2.804   2.019   0.459 -0.3681 -0.1185  0.1811
 3703W        W 7767   8.710   9.531   1.769  0.0593  0.0481 -0.2582
 3704W        W 7768   7.870   6.614  11.072 -0.4807  0.3451 -0.0221
 3705W        W 7769  10.268   1.777   8.222 -0.0853 -0.0238 -0.2018
 3706W        W 7770   2.123   6.899   0.861  0.1133 -0.1762  0.0290
 3707W        W 7771   9.065   7.475   7.271 -0.1083  0.2373 -0.3200
 3708W        W 7772   8.644   7.692   9.007 -0.0832  0.0410  0.0076
 3709W        W 7773   2.707   1.908   1.261  0.1322 -0.1591 -0.2342
 3710W        W 7774   7.161   3.587   1.152  0.2264  0.1007 -0.0453
 3711W        W 7775   6.088   1.789   6.973  0.0994  0.3275  0.0466
 3712W        W 7776  10.425   9.324   0.891  0.3181 -0.0431  0.0990
 3713W        W 7777   1.129   8.504  11.105 -0.1191  0.0527 -0.3013
 3714W        W 7778   2.553   7.165   0.039 -0.1603 -0.0269 -0.2095
 3715W        W 7779   0.380   6.715   8.128 -0.0526 -0.0030  0.0071
 3716W        W 7780   0.880   8.655   4.012 -0.1384 -0.1603  0.1101
 3717W        W 7781   7.434   1.258   8.489 -0.1147  0.2595 -0.0373
 3718W        W 7782   0.138   7.283   7.230  0.0785 -0.3019 -0.0820
 3719W        W 7783   6.000   6.945   2.570  0.2439  0.0395 -0.0266
 3720W        W 7784   9.662   6.916   3.091 -0.2937 -0.2611 -0.0132
 3721W        W 7785   5.366   0.731   8.269  0.1661 -0.1690 -0.0475
 3722W        W 7786   1.194   9.842  10.953  0.2299  0.2628 -0.0324
 3723W        W 7787   8.898   7.324   2.438 -0.1094  0.5804  0.1709
 3724W        W 7788   1.966   9.835   9.593  0.1282  0.0243  0.0815
 3725W        W 7789   0.715   4.223   0.634 -0.1871  0.1690 -0.2797
 3726W        W 7790   2.457   2.881   1.341  0.0992 -0.1412 -0.0808
 3727W        W 7791   8.178   7.442   7.840  0.0409 -0.0537 -0.0452
 3728W        W 7792   3.444   7.293   7.902  0.0568  0.4134  0.2597
 3729W        W 7793   6.187   5.289   8.211  0.1494  0.2075 -0.1003
 3730W        W 7794   6.169   2.781  10.354 -0.0761 -0.2203  0.4112
 3731W        W 7795   2.106   6.593   8.666  0.1110  0.2583  0.0596
 3732W        W 7796   8.491   5.770   0.380  0.1957 -0.1500 -0.0812
 3733W        W 7797   0.553   5.139   0.509  0.0802 -0.2831 -0.0989
 3734W        W 7798  10.300   5.375   0.350 -0.0885 -0.2887  0.2047
 3735W        W 7799   4.640   2.554   1.670  0.1111  0.1925  0.2341
 3736W        W 7800   6.155   7.825   6.946  0.0960  0.2801  0.0445
 3737W        W 7801   6.461   2.048   8.616  0.0094 -0.0936  0.0796
 3738W        W 7802   5.771   9.961   1.680  0.0693 -0.1117 -0.1476
 3739W        W 7803   3.627   3.421   1.310  0.0006 -0.0699 -0.1297
 3740W        W 7804   2.741   8.629  11.084  0.0853  0.0785  0.0466
 3741W        W 7805   8.456   1.664   1.953 -0.0901  0.3607  0.2942
 3742W        W 7806   0.125   4.221  10.979  0.2894 -0.1375 -0.1608
 3743W        W 7807   2.419   6.406   0.795 -0.3037 -0.0507 -0.0093
 3744W        W 7808   9.010   7.680   0.598 -0.0982 -0.2141  0.1499
 3745W        W 7809   4.203   3.941  10.540  0.0851  0.0881 -0.0790
 3746W        W 7810   2.924   6.221   1.538 -0.3086  0.2909 -0.0487
 3747W        W 7811   8.005   9.872   2.142 -0.1120 -0.2150  0.2692
 3748W        W 7812   9.613   4.329   9.537 -0.1544 -0.3685 -0.0029
 3749W        W 7813   9.305   6.423  10.931 -0.0920 -0.4038  0.0925
 3750W        W 7814   2.941   2.871   8.196  0.0764  0.1997  0.0265
 3751W        W 7815   2.834   0.030   0.371  0.1082 -0.0796 -0.1258
 3752W        W 7816  10.010   4.675  10.178  0.0771 -0.0142 -0.1808
 3753W        W 7817   3.027   0.836   3.614 -0.0861 -0.1664  0.2824
 3754W        W 7818   7.674   4.834  11.115  0.0338 -0.0164  0.0809
 3755W        W 7819   5.666   4.463   8.675  0.0279 -0.2545  0.4382
 3756W        W 7820   8.079  10.256   9.012 -0.0036  0.1654 -0.0816
 3757W        W 7821  10.176   9.840   9.123 -0.0464  0.3917 -0.0751
 3758W        W 7822   5.687   4.273   1.430 -0.2460 -0.0130 -0.1923
 3759W        W 7823   2.767   8.911   9.788  0.3245  0.2046  0.1158
 3760W        W 7824   9.934   9.704   0.414 -0.0991 -0.0642  0.2641
 3761W        W 7825   9.329   3.318   0.484  0.0351  0.0274  0.1947
 3762W        W 7826   9.949   9.771   9.839 -0.0660  0.1935  0.1596
 3763W        W 7827   5.439   8.479   1.989 -0.2469 -0.1821 -0.1678
 3764W        W 7828  10.142   2.241   0.642  0.0620  0.0627  0.1590
 3765W        W 7829   4.917   9.854   1.430 -0.0987  0.3276 -0.3635
 3766W        W 7830   6.280  10.535  10.078  0.0358  0.0824 -0.0564
 3767W        W 7831   6.018   2.207  10.189 -0.2268  0.6244 -0.1343
 3768W        W 7832   6.356   5.340  11.023 -0.1264 -0.1307  0.1806
 3769W        W 7833   4.198   7.083   8.812  0.2811 -0.0123 -0.0654
 3770W        W 7834  10.315   1.929   0.250 -0.3066 -0.0850 -0.1835
 3771W        W 7835   3.610   0.233   3.341 -0.0125 -0.0496  0.1641
 3772W        W 7836   2.963   5.739   0.100 -0.3807  0.2621 -0.1395
 3773W        W 7837   9.792   4.199   9.075 -0.3846  0.1147 -0.1371
 3774W        W 7838   2.738   2.952   0.394  0.2885 -0.0323 -0.1536
 3775W        W 7839   8.579   5.326   0.682  0.3245 -0.1539  0.1888
 3776W        W 7840   6.203   6.322  10.849 -0.1506  0.3157 -0.0763
 3777W        W 7841   3.759   0.176   0.800 -0.2212 -0.0056 -0.1417
 3778W        W 7842   4.136   1.501  11.058  0.0258 -0.2512 -0.0665
 3779W        W 7843   1.936   4.921   3.389  0.1363 -0.1607 -0.0258
 3780W        W 7844   5.561   4.913  11.104  0.0031  0.1038  0.0983
 3781W        W 7845   4.241   7.263   7.577 -0.2242  0.2895  0.0748
 3782W        W 7846   7.390   5.844   1.869 -0.0593  0.2119 -0.0230
 3783W        W 7847   8.142   6.676   0.192 -0.1657  0.1120  0.1523
 3784W        W 7848   4.899   7.594  11.070 -0.0194  0.3014  0.1523
 3785W        W 7849   6.423   4.643   9.291 -0.1558 -0.1704  0.0597
 3786W        W 7850  10.013   8.336   2.429 -0.0176 -0.0690  0.2945
 3787W        W 7851   9.897   0.440   2.743  0.4091  0.1580  0.0380
 3788W        W 7852   5.572   8.614   0.942 -0.1449 -0.3673  0.0178
 3789W        W 7853   6.553   5.476   2.995 -0.1071  0.2983 -0.1863
 3790W        W 7854   5.217   6.631   2.874  0.0885  0.0432 -0.0107
 3791W        W 7855   5.871  10.076   1.225  0.0667 -0.0075  0.2481
 3792W        W 7856  10.303   2.839   8.791 -0.2100  0.7554 -0.0154
 3793W        W 7857   1.770  10.342  10.692  0.4098 -0.2172  0.0119
 3794W        W 7858  10.076   8.378   9.771 -0.0170  0.3101 -0.0607
 3795W        W 7859   1.836  10.529   0.667  0.2274 -0.2638  0.0593
 3796W        W 7860  10.111   5.434   1.922 -0.2655  0.0146  0.2343
 3797W        W 7861   3.108   4.442   7.008  0.1130  0.0330  0.0477
 3798W        W 7862   5.788   6.444   2.344 -0.3518  0.0186  0.0529
 3799W        W 7863   9.168   2.079   2.266  0.2660  0.2066  0.1151
 3800W        W 7864   7.115   7.850  10.072  0.0749  0.0975 -0.3021
 3801W        W 7865   9.859   7.487   9.322  0.0268  0.1025 -0.0933
 3802W        W 7866  10.488   2.660   0.796  0.1732 -0.0611  0.1205
 3803W        W 7867   5.990   8.452  10.622  0.0257  0.2811  0.1244
 3804W        W 7868   7.270   1.018   3.602  0.3591  0.1576 -0.3133
 3805W        W 7869   7.484   1.029  10.002  0.1555  0.0217 -0.1092
 3806W        W 7870   0.670   5.663   0.308 -0.1656  0.1995  0.0190
 3807W        W 7871   9.954   4.605   7.850 -0.0173  0.1124 -0.1098
 3808W        W 7872   0.500   4.424   2.833 -0.4415  0.1433  0.1996
 3809W        W 7873   3.751   1.763   2.468  0.0103  0.1780 -0.2025
 3810W        W 7874   3.597   3.746   1.791 -0.0853  0.1137 -0.1205
 3811W        W 7875   7.303   7.320   1.600 -0.1209  0.0620  0.1793
 3812W        W 7876   7.370   1.813   1.819 -0.0596 -0.0247 -0.1642
 3813W        W 7877   4.984   8.691   9.804 -0.0482 -0.0834  0.3321
 3814W        W 7878  10.605   5.320   1.944  0.0275  0.3132  0.1434
 3815W        W 7879  10.750   9.989  10.848  0.1347 -0.2029 -0.1453
 3816W        W 7880  10.542   5.818   1.146 -0.1025 -0.1334 -0.1404
 3817W        W 7881   0.898   0.984   9.372  0.1761 -0.0851  0.0853
 3818W        W 7882   0.831   9.833   1.092  0.1808  0.0443 -0.0089
 3819W        W 7883   4.036   3.876   1.973  0.1305 -0.1786 -0.0925
 3820W        W 7884   6.469   7.760   0.459  0.1858 -0.3552  0.2292
 3821W        W 7885   9.349   0.729   7.057  0.2535 -0.0865  0.1513
 3822W        W 7886   2.513   9.533   7.485 -0.0174  0.1267 -0.0912
 3823W        W 7887   7.577   1.585   0.082  0.2862 -0.2286  0.0079
 3824W        W 7888   9.617   6.390   0.824  0.0872  0.1938  0.2281
 3825W        W 7889   1.573   7.673  10.028 -0.0702 -0.3204 -0.0250
 3826W        W 7890   8.459   4.662   2.935 -0.0412 -0.0060  0.1792
 3827W        W 7891   6.799   4.863   1.790 -0.2310 -0.1725 -0.3825
 3828W        W 7892   8.573  10.304   8.918 -0.0456  0.4292  0.1585
 3829W        W 7893   2.512   7.069   7.438 -0.0983  0.2887 -0.0018
 3830W        W 7894   7.808   3.797  10.223 -0.3146  0.0747  0.2267
 3831W        W 7895   5.142   7.972   9.211  0.1599 -0.1233  0.0271
 3832W        W 7896   7.848   2.809   8.160  0.0977 -0.0628 -0.1648
 3833W        W 7897   5.265   3.874   1.354  0.1092 -0.1519 -0.1499
 3834W        W 7898   7.763  10.540   2.326  0.3013  0.0999 -0.1040
 3835W        W 7899   3.893   4.726   1.568 -0.1867 -0.1325 -0.0901
 3836W        W 7900   6.349   4.377   0.173  0.0070  0.0453  0.1835
 3837W        W 7901   9.223   2.009  10.603 -0.0067  0.0796  0.2695
 3838W        W 7902   7.595   5.722   0.251 -0.0548 -0.2126 -0.0727
 3839W        W 7903   2.631   3.156   0.920 -0.0706  0.2356  0.5182
 3840W        W 7904   7.522   4.666   2.813 -0.3899 -0.0761  0.0529
 3841W        W 7905   9.445   5.073   0.191  0.2022 -0.2058 -0.0612
 3842W        W 7906   3.064   1.729   0.798 -0.1748  0.1739  0.2444
 3843W        W 7907   5.301   6.356   2.500  0.0918 -0.1741  0.3232
 3844W        W 7908  10.570   4.485   0.529 -0.2778  0.0289 -0.1163
 3845W        W 7909   7.258   8.264  10.320 -0.1576 -0.1204 -0.0774
 3846W        W 7910   8.469   0.690   7.071  0.0943 -0.3005  0.1312
 3847W        W 7911   4.773   8.145   1.029  0.0005 -0.0731  0.0290
 3848W        W 7912   8.643   0.253  10.822 -0.0185  0.2207  0.3437
 3849W        W 7913   2.752   9.982   8.170  0.0120  0.3641  0.0765
 3850W        W 7914   1.730   6.680   2.155  0.1780 -0.1753  0.0060
 3851W        W 7915   0.883   2.586   3.340  0.1819  0.2597  0.0409
 3852W        W 7916   8.120   2.828   9.993 -0.2248  0.2362 -0.0928
 3853W        W 7917   6.280   4.224   8.057 -0.3696  0.1976  0.2631
 3854W        W 7918   5.362   6.383   9.237 -0.0361  0.2012  0.1973
 3855W        W 7919   5.334   7.812   7.433  0.1937 -0.2256 -0.1976
 3856W        W 7920   8.578   2.637   0.289 -0.2714  0.0080 -0.0158
 3857W        W 7921   8.385   8.920   6.994  0.3066 -0.1776  0.0947
 3858W        W 7922   3.120   0.367   3.534  0.1577  0.0329  0.0086
 3859W        W 7923   2.246   7.506   2.586  0.0949  0.0685  0.0388
 3860W        W 7924   9.833   7.272   0.542  0.1043  0.1126 -0.2509
 3861W        W 7925   9.646   5.525   2.663  0.1331 -0.1546  0.3784
 3862W        W 7926   7.590   2.987   0.397 -0.0014 -0.0934  0.0511
 3863W        W 7927   5.369   3.047   0.981  0.2269  0.0699 -0.0838
 3864W        W 7928  10.334   0.549  11.151 -0.0174 -0.1621 -0.2547
 3865W        W 7929   1.340   4.536   0.103 -0.0539 -0.2086  0.0119
 3866W        W 7930   0.750   2.672   9.149  0.1099  0.5409  0.1840
 3867W        W 7931   2.564   0.048   2.350  0.2033 -0.1324 -0.1602
 3868W        W 7932   2.167   7.018   9.824 -0.3216  0.0234  0.0334
 3869W        W 7933   8.218   1.499  10.578  0.4385  0.0302 -0.1923
 3870W        W 7934   6.232   7.523   0.923  0.0366  0.2931 -0.0468
 3871W        W 7935   4.515   9.733  10.720 -0.0694  0.1602 -0.4089
 3872W        W 7936   0.424   1.327   3.184 -0.0651  0.1629  0.1804
 3873W        W 7937   3.900   5.141   8.061  0.4043  0.0682 -0.2341
 3874W        W 7938   2.204   7.083  10.957 -0.2533 -0.0092 -0.0860
 3875W        W 7939   9.835   4.951   8.734  0.1665  0.0170  0.1732
 3876W        W 7940   6.544   0.211  10.219  0.2099  0.1096  0.2040
 3877W        W 7941   6.001   3.297   0.263 -0.0148  0.0867  0.1450
 3878W        W 7942   1.892   9.794   8.069 -0.1064  0.3136 -0.0120
 3879W        W 7943   5.776   2.872   0.436  0.1677  0.0250 -0.0924
 3880W        W 7944   7.191  10.669   9.235  0.2089 -0.2459  0.3248
 3881W        W 7945   1.374  10.465   7.067  0.0620 -0.0452  0.3229
 3882W        W 7946   0.454  10.125  10.738  0.3793  0.4011  0.0580
 3883W        W 7947   1.917   9.751   8.599 -0.0965 -0.1411  0.2774
 3884W        W 7948   9.976   2.699   1.059 -0.1056 -0.1325 -0.0628
 3885W        W 7949   2.222   0.738   9.231  0.1056  0.0110 -0.0126
 3886W        W 7950   2.949   6.732  10.571  0.1909 -0.1262 -0.0321
 3887W        W 7951   4.958   1.882   0.367 -0.3423  0.0995  0.0891
 3888W        W 7952   8.971   1.743   7.896  0.0682 -0.0240 -0.1007
 3889W        W 7953   8.296   6.617   0.999  0.0154 -0.1187  0.1954
 3890W        W 7954   7.221   9.978   2.539  0.0666  0.0411  0.2537
 3891W        W 7955   5.328   9.866   9.151 -0.1210 -0.1821 -0.1116
 3892W        W 7956   2.363   9.691   8.335  0.2000  0.0872  0.2832
 3893W        W 7957   6.329   4.147   1.083  0.3228 -0.2697 -0.2370
 3894W        W 7958   2.538   1.352   8.974 -0.0021 -0.4311  0.0401
 3895W        W 7959   4.199   4.600   0.060 -0.0775 -0.0297 -0.2112
 3896W        W 7960   7.857   2.581   2.839  0.1804  0.2907 -0.0392
 3897W        W 7961   9.633   4.495   8.676  0.2620  0.1573 -0.1128
 3898W        W 7962   3.918   2.824   0.697 -0.0648 -0.0530  0.3620
 3899W        W 7963   3.531   9.666   1.545  0.1196  0.0950  0.0533
 3900W        W 7964   6.160   7.077   1.091 -0.1762  0.3492  0.0970
 3901W        W 7965   1.142   7.271   9.568 -0.0433 -0.0239 -0.0563
 3902W        W 7966  10.471   8.571   2.683 -0.1861 -0.1297 -0.1548
 3903W        W 7967   7.171   7.876   9.510  0.0913  0.0722  0.2588
 3904W        W 7968  10.745  10.494   7.348  0.1686  0.0473  0.0215
 3905W        W 7969   1.306   7.340  10.807 -0.0724  0.0224 -0.2632
 3906W        W 7970   5.874   6.268   8.088 -0.1644  0.1485  0.0986
 3907W        W 7971   1.081   9.286   1.726  0.1593 -0.1520 -0.2565
 3908W        W 7972   3.165   3.267   0.433  0.0738  0.2237  0.0804
 3909W        W 7973   6.097   4.069   8.766 -0.2997 -0.0830 -0.1092
 3910W        W 7974   0.050   3.526   2.927 -0.0736 -0.2255 -0.1723
 3911W        W 7975   0.587   8.107   8.609  0.0125  0.4186 -0.2106
 3912W        W 7976   0.009   4.798   8.667  0.4016 -0.0441 -0.2285
 3913W        W 7977   3.208  10.095   0.261  0.0696  0.1511  0.3139
 3914W        W 7978   5.553   4.684   9.148  0.0996  0.1633 -0.2230
 3915W        W 7979   9.979   1.325   8.450  0.0029  0.2214  0.1970
 3916W        W 7980   7.007   0.687   1.801  0.0968  0.3141 -0.0253
 3917W        W 7981   4.271  10.729   9.982 -0.2008 -0.0790 -0.4441
 3918W        W 7982  10.294   8.805   0.230  0.0755  0.0410  0.1802
 3919W        W 7983  10.452   7.867  11.231 -0.0146 -0.3368  0.1519
 3920W        W 7984   9.694  10.389   2.368  0.1018  0.3947  0.0702
 3921W        W 7985  10.386   3.320   3.216  0.1313 -0.0568  0.1579
 3922W        W 7986   1.965   6.080   9.395  0.0610  0.4858 -0.0315
 3923W        W 7987   4.836   8.545   0.694  0.0441 -0.1610  0.4081
 3924W        W 7988   9.122   4.318   0.117  0.0691 -0.1112  0.0867
 3925W        W 7989   0.074   6.980   0.325 -0.3362 -0.2814 -0.0570
 3926W        W 7990   7.784   7.511   1.454  0.1939  0.2371 -0.2628
 3927W        W 7991   4.844   3.621   1.077 -0.0191  0.2268  0.1560
 3928W        W 7992   0.654   0.431   2.241  0.2424 -0.0705 -0.3192
 3929W        W 7993   1.389   1.556   1.366  0.1702 -0.1732 -0.1843
 3930W        W 7994   3.620   1.847   1.473  0.0455  0.1995  0.3374
 3931W        W 7995   2.690   6.088   0.445 -0.0587 -0.3147 -0.2597
 3932W        W 7996   3.817  10.158   8.103  0.0421 -0.2055 -0.0980
 3933W        W 7997   3.380   8.241  10.006  0.1182 -0.2132 -0.1096
 3934W        W 7998   3.931   2.584   1.197 -0.0784 -0.4040 -0.1096
 3935W        W 7999   2.590   4.337   3.038  0.1295 -0.3061  0.2611
 3936W        W 8000   6.015   8.385   1.050 -0.4621  0.0939  0.1471
 3937W        W 8001   7.995   4.623  10.417  0.0641  0.1128  0.0702
 3938W        W 8002   6.083   7.870   2.748 -0.0249 -0.0266 -0.1156
 3939W        W 8003   7.182  10.215   0.626  0.2299  0.0873 -0.2650
 3940W        W 8004   4.513   1.898   3.176  0.2628 -0.0100  0.0140
 3941W        W 8005   0.819  10.641  10.649  0.0324 -0.3575 -0.1844
 3942W        W 8006   6.024   8.261   8.578 -0.0459  0.0191 -0.0824
 3943W        W 8007   6.551   5.848  10.971 -0.1213  0.1020 -0.1257
 3944W        W 8008   1.250   0.631   9.998  0.4567  0.0321 -0.3160
 3945W        W 8009   4.572   8.793   0.277  0.2226 -0.3721 -0.0988
 3946W        W 8010   9.457   2.827   1.313  0.1623 -0.2054 -0.1347
 3947W        W 8011   5.639   5.712   1.086  0.1585  0.0321 -0.1068
 3948W        W 8012   7.737   7.360   7.510 -0.4228  0.1025  0.0655
 3949W        W 8013   1.826   2.650   2.007  0.0840 -0.1182 -0.0716
 3950W        W 8014   4.237   0.809   1.053 -0.1525  0.0876  0.0575
 3951W        W 8015   2.079   9.786  10.592 -0.2200  0.1705  0.1187
 3952W        W 8016  10.216   1.826   7.702  0.0588  0.0139 -0.2187
 3953W        W 8017   1.467   3.850   7.859  0.3452  0.1386  0.1836
 3954W        W 8018   5.051   3.571  10.871  0.0364 -0.2582 -0.0237
 3955W        W 8019   9.304   8.096   2.822 -0.0624  0.0857 -0.0112
 3956W        W 8020   3.059   3.193  10.852  0.0589  0.0815  0.1410
 3957W        W 8021   9.187   3.774   8.627  0.4220  0.0690  0.1604
 3958W        W 8022   6.784   5.985   7.736  0.0270 -0.0449  0.3724
 3959W        W 8023   3.392   0.395   1.890 -0.0492 -0.1453 -0.2751
 3960W        W 8024   2.898   5.301   1.600  0.2040  0.1178 -0.1152
 3961W        W 8025   3.163   1.591   1.311 -0.0592 -0.2130  0.1339
 3962W        W 8026   9.415   6.226  10.475  0.1751  0.2815  0.0663
 3963W        W 8027  10.468   8.145   9.608 -0.0951  0.2084  0.1562
 3964W        W 8028   2.965   2.545   9.173  0.1230 -0.3315 -0.1001
 3965W        W 8029   4.007   2.362  10.402  0.0591  0.2349 -0.3483
 3966W        W 8030   1.205   6.887   0.233  0.3084 -0.1230  0.0677
 3967W        W 8031   5.063   3.593   0.554 -0.0546 -0.3292  0.3015
 3968W        W 8032   1.814   8.027   7.774 -0.0535  0.2007 -0.0286
 3969W        W 8033   2.166   9.299  10.648  0.2526 -0.3159  0.1030
 3970W        W 8034   1.164   1.862   2.466  0.2269  0.0635  0.0031
 3971W        W 8035   7.788   7.954   7.392 -0.0249 -0.2922  0.1519
 3972W        W 8036   0.086   0.250   7.438  0.1353 -0.0302 -0.2514
 3973W        W 8037   6.482   7.281  10.201  0.1289  0.0907 -0.2785
 3974W        W 8038   6.027   7.541  10.206 -0.2455  0.3920 -0.1654
 3975W        W 8039   1.910   7.928   9.498  0.0154  0.1411 -0.1280
 3976W        W 8040   4.307   0.087   8.706 -0.2161 -0.0071  0.6314
 3977W        W 8041   5.989   1.099  10.341  0.1674 -0.2217 -0.2049
 3978W        W 8042   1.399   7.556   0.961 -0.0314 -0.0456 -0.0607
 3979W        W 8043   0.176   4.288   0.210 -0.3452 -0.1009 -0.1366
 3980W        W 8044   8.169   6.465   3.049  0.1557 -0.0936  0.1856
 3981W        W 8045   5.081   4.426  10.420  0.2612  0.1182 -0.3289
 3982W        W 8046   0.553   1.675  10.846  0.1249  0.3593  0.0332
 3983W        W 8047   5.721   7.606   0.960  0.1209  0.0028  0.0704
 3984W        W 8048   2.637   4.911   8.895  0.2532 -0.1994  0.2213
 3985W        W 8049   7.702   3.489   0.478 -0.1312  0.0326  0.0036
 3986W        W 8050   4.653   6.928   7.838 -0.0030 -0.2071 -0.2046
 3987W        W 8051   6.429   1.394   8.573  0.1447 -0.0082  0.1921
 3988W        W 8052   4.452  10.592  10.414  0.1559 -0.0413  0.2197
 3989W        W 8053   6.343   0.822   2.612 -0.0864 -0.2998  0.0459
 3990W        W 8054   6.909   6.224  10.966  0.0649 -0.0318  0.2357
 3991W        W 8055   1.862   0.473   2.874  0.2198  0.0289 -0.2412
 3992W        W 8056   9.996   0.040   2.394  0.0754 -0.0026 -0.0837
 3993W        W 8057   4.064   5.864  10.872 -0.1358 -0.0829 -0.1058
 3994W        W 8058   6.219  10.752   2.067  0.0466  0.1472 -0.1434
 3995W        W 8059   9.660   5.191   9.438 -0.0020 -0.1853  0.1265
 3996W        W 8060  10.264   3.271   1.701  0.2932  0.1010 -0.1629
 3997W        W 8061   4.098   5.063   9.224  0.3340 -0.1970  0.0786
 3998W        W 8062   4.789   8.529   7.805 -0.1360  0.0024  0.1703
 3999W        W 8063   4.355   8.830   7.750 -0.2232 -0.1279 -0.1703
 4000W        W 8064   0.344   2.093   2.851 -0.0982  0.2489  0.2471
 4001W        W 8065   2.042   0.117   0.023 -0.0217 -0.0905 -0.1328
 4002W        W 8066   6.791   0.538   9.868 -0.1176 -0.0527  0.0107
 4003W        W 8067   3.268   5.541   3.492  0.0163  0.0350  0.1028
 4004W        W 8068   2.900   0.186   3.069 -0.3217 -0.1241  0.0055
 4005W        W 8069   1.929   8.415   8.000 -0.0468 -0.1379  0.2784
 4006W        W 8070   7.555   6.155   2.269  0.4039  0.0759 -0.1352
 4007W        W 8071   7.964   6.724   8.024 -0.1908 -0.0938  0.0582
 4008W        W 8072   8.668   4.030   1.286  0.1150 -0.2419 -0.2114
 4009W        W 8073   2.041   3.004   1.561 -0.0957 -0.0278 -0.2749
 4010W        W 8074   1.573   4.344   7.503 -0.1989 -0.3114 -0.1020
 4011W        W 8075   2.397   1.118  10.619  0.1194 -0.0624  0.0361
 4012W        W 8076   8.165   5.021  10.794  0.0270  0.0057  0.0443
 4013W        W 8077   6.933   8.878   7.990 -0.0864 -0.1229  0.1039
 4014W        W 8078   2.099   7.510   1.043  0.1058 -0.3096  0.1976
 4015W        W 8079   6.337  10.720   8.718 -0.3093  0.0363  0.1347
 4016W        W 8080   3.137   5.147  11.064 -0.2313 -0.0149 -0.2547
 4017W        W 8081   4.500   5.854   0.519 -0.0922 -0.3945 -0.0194
 4018W        W 8082   2.041   9.158   1.168  0.3892  0.0490 -0.2200
 4019W        W 8083   6.480   7.109   1.808  0.1044  0.0403  0.0285
 4020W        W 8084   0.413   0.404   2.661 -0.0131  0.2410 -0.0063
 4021W        W 8085   9.994   6.877   8.570  0.2364 -0.0817  0.0388
 4022W        W 8086   3.419   2.373   9.425  0.3159  0.0018 -0.1425
 4023W        W 8087   4.960   8.951   2.533  0.0364 -0.4342 -0.2430
 4024W        W 8088   6.947   8.773   3.291 -0.1613  0.0033 -0.0883
 4025W        W 8089   8.502   7.220  10.861 -0.1657  0.2288 -0.2263
 4026W        W 8090   2.214   9.953   2.357 -0.1288  0.0298  0.2727
 4027W        W 8091   8.676   6.472   1.274 -0.0402  0.1213  0.1336
 4028W        W 8092   8.555   5.913   9.914  0.0328 -0.2561  0.0962
 4029W        W 8093   9.118   0.696   7.567  0.0200 -0.4656 -0.1059
 4030W        W 8094  10.279   5.004   1.669 -0.3975 -0.2302 -0.1308
 4031W        W 8095   3.444   3.897   9.322 -0.2069 -0.1238  0.2425
 4032W        W 8096   1.813  10.748   2.984 -0.0327 -0.0566  0.0778
 4033W        W 8097   6.549   0.671  10.509 -0.3025 -0.2836 -0.0791
 4034W        W 8098   5.963   2.415   0.500  0.3027 -0.1315  0.0784
 4035W        W 8099   0.200   2.977  10.311 -0.0608 -0.2440  0.1527
 4036W        W 8100  10.740   9.327   6.905  0.0342  0.0516 -0.2037
 4037W        W 8101   8.390   0.922   0.050  0.0459 -0.3205 -0.0364
 4038W        W 8102   7.535  10.100   1.053  0.1369 -0.0651 -0.1204
 4039W        W 8103   1.778   7.879   0.831  0.0514 -0.0115  0.1314
 4040W        W 8104   1.362   0.833  11.074  0.0761  0.1234 -0.3482
 4041W        W 8105   9.705   5.489   3.137  0.3504  0.0149 -0.1938
 4042W        W 8106   2.817   7.390   2.715  0.0902  0.0037 -0.3018
 4043W        W 8107   1.013   9.911   8.702  0.2117  0.4088  0.1350
 4044W        W 8108   6.547   2.418   2.885  0.2797 -0.3573  0.0308
 4045W        W 8109   0.547  10.490   9.611 -0.0951  0.1214  0.0954
 4046W        W 8110   4.946  10.580   0.961 -0.0751  0.0312  0.0351
 4047W        W 8111   6.668   1.157   8.926  0.1773  0.2882 -0.0502
 4048W        W 8112   9.980   2.970   9.223  0.0974 -0.0533 -0.0752
 4049W        W 8113   3.615   2.648   2.939 -0.1810  0.0519  0.0308
 4050W        W 8114   2.206   9.394   1.645  0.2706  0.1047  0.3722
 4051W        W 8115   5.242   7.707   3.816 -0.0458  0.1583 -0.1571
 4052W        W 8116   4.244   4.681   1.059 -0.0051  0.0757 -0.0721
 4053W        W 8117   5.986   5.932   7.246  0.0176 -0.1857  0.0456
 4054W        W 8118   7.466   6.998   2.256  0.1040  0.1263  0.3066
 4055W        W 8119   3.157   3.459   7.409  0.3061 -0.2376 -0.1461
 4056W        W 8120   6.899  10.680  10.624  0.0955  0.0011  0.1116
 4057W        W 8121   7.657   6.122   8.981 -0.3731  0.0320  0.0964
 4058W        W 8122   4.324   0.234   2.762  0.1111  0.2003 -0.1605
 4059W        W 8123  10.557   6.357   3.546 -0.1018  0.0289  0.0218
 4060W        W 8124   5.515   1.349   8.699 -0.0202 -0.2795  0.2339
 4061W        W 8125   5.397   9.877   1.317 -0.4441  0.2478  0.0601
 4062W        W 8126   8.014   7.105  10.296  0.1818 -0.0293  0.0245
 4063W        W 8127   0.526   0.594  10.785  0.0429  0.0802 -0.1021
 4064W        W 8128   7.394   0.875  10.829  0.0762  0.2035  0.1190
 4065W        W 8129   4.039   4.388   9.652  0.1371  0.0075 -0.4975
 4066W        W 8130   3.179   0.758   2.587 -0.1815  0.0544  0.1369
 4067W        W 8131  10.544   4.019   2.537  0.2133  0.1021 -0.3336
 4068W        W 8132   0.251   1.714   0.868 -0.2221  0.0656  0.0450
 4069W        W 8133   8.510   4.523   8.719  0.3853  0.0096  0.0672
 4070W        W 8134   4.423   3.623  10.103  0.2164 -0.1154  0.2391
 4071W        W 8135   1.846  10.055   1.997 -0.0227 -0.0181 -0.1292
 4072W        W 8136   7.057   8.121   2.423 -0.0158 -0.0685  0.2397
 4073W        W 8137   9.237   6.114   7.699 -0.1123 -0.0690 -0.0705
 4074W        W 8138  10.758   9.088  10.833  0.1723 -0.2262 -0.2857
 4075W        W 8139  10.622   5.778   9.552 -0.1462 -0.2802 -0.2441
 4076W        W 8140   8.847   5.811   2.733 -0.1472 -0.2689  0.2577
 4077W        W 8141   9.785   3.292   8.113  0.0756 -0.1816  0.1564
 4078W        W 8142   6.973   4.850   9.937  0.0374  0.2265  0.1796
 4079W        W 8143  10.331   3.971   1.289  0.0465  0.0106 -0.0444
 4080W        W 8144   7.420   6.603   8.838 -0.1593 -0.3849 -0.0077
 4081W        W 8145   1.302   5.561   8.742  0.1748  0.0976 -0.1837
 4082W        W 8146   0.321   3.945   9.272 -0.2294 -0.0468  0.1184
 4083W        W 8147   4.401   4.150   3.722 -0.1711 -0.0020 -0.1381
 4084W        W 8148   3.033   3.738   8.621 -0.1056 -0.2096  0.2532
 4085W        W 8149  10.469   0.003  11.154  0.0865  0.3378 -0.0273
 4086W        W 8150   0.127  10.729   8.523  0.1585  0.0207  0.2268
 4087W        W 8151   4.344   1.286   8.645 -0.1274 -0.3977  0.2963
 4088W        W 8152   0.738   4.086   9.544 -0.0278  0.3019  0.0284
 4089W        W 8153   5.934   8.999  11.089  0.0082  0.3635 -0.0379
 4090W        W 8154   2.699   9.229   0.575 -0.1097  0.1083 -0.1207
 4091W        W 8155   5.354  10.584   9.973  0.2488 -0.0744 -0.1931
 4092W        W 8156   3.789   7.746   8.269 -0.1381 -0.1412  0.0616
 4093W        W 8157   9.679   7.868   7.543 -0.1172  0.0422  0.0632
 4094W        W 8158   7.506   9.171   2.586  0.0569  0.1517  0.0915
 4095W        W 8159   0.282   0.776   9.892  0.1925 -0.1657 -0.2039
 4096W        W 8160   9.152   7.698  10.915 -0.1833 -0.0660 -0.1857
 4097W        W 8161   0.830   0.137   9.369 -0.0491 -0.0647 -0.0725
 4098W        W 8162   2.350   6.567  10.918  0.0605 -0.0995  0.1702
 4099W        W 8163   1.135   3.240   1.041 -0.1172  0.1707  0.2445
 4100W        W 8164   1.000   9.548   2.563  0.1450  0.2141  0.4734
 4101W        W 8165   3.711   9.599  10.383 -0.1087 -0.1377  0.1702
 4102W        W 8166   9.949   1.392   0.976  0.0413  0.2037 -0.0147
 4103W        W 8167   2.153   3.724   8.998  0.4388 -0.1640  0.3451
 4104W        W 8168   1.363   2.292   0.028 -0.0392 -0.1486 -0.0619
 4105W        W 8169   3.983   9.481   9.163 -0.1676 -0.2596 -0.0505
 4106W        W 8170   4.074  10.196   3.326 -0.1188  0.1542  0.2715
 4107W        W 8171   2.605   9.459   9.959  0.1319  0.0803 -0.1003
 4108W        W 8172   2.512   6.853   0.484  0.2458  0.2509 -0.1147
 4109W        W 8173   3.205   4.518   2.334 -0.0922 -0.1538 -0.0844
 4110W        W 8174   1.510   7.518   7.675 -0.3586  0.2073 -0.0439
 4111W        W 8175   6.905   1.006  11.149  0.2144 -0.1966  0.2825
 4112W        W 8176   8.929   6.866  11.081  0.0538 -0.0486 -0.2735
 4113W        W 8177   9.589   4.220   2.540 -0.1884  0.0689  0.1374
 4114W        W 8178   8.626   4.771   2.380  0.0963  0.1762 -0.0916
 4115W        W 8179   3.040   1.203   9.996  0.0733 -0.3089 -0.1023
 4116W        W 8180   3.185   9.765   0.814 -0.3512 -0.0551 -0.2324
 4117W        W 8181   8.573   5.754  10.673  0.2867  0.1697  0.2366
 4118W        W 8182   4.684   6.841   8.721  0.2657  0.2443 -0.3234
 4119W        W 8183   8.595   9.878   9.835 -0.0903 -0.0035  0.1632
 4120W        W 8184   8.825   0.677   7.998 -0.3080  0.1278  0.2759
 4121W        W 8185   7.590   9.270   9.377 -0.1103 -0.2872  0.1059
 4122W        W 8186   0.247   9.455   9.007  0.1653  0.0938 -0.0877
 4123W        W 8187   5.074  10.521   8.115  0.0561  0.3125 -0.0778
 4124W        W 8188   7.949   5.813   8.291 -0.0951  0.1450 -0.0293
 4125W        W 8189   4.285   1.865  10.788 -0.1477  0.0503 -0.0712
 4126W        W 8190   0.312   3.530   1.725 -0.1493 -0.0713  0.0374
 4127W        W 8191   8.186   4.786   0.570 -0.1929  0.0100  0.0774
 4128W        W 8192   1.871   3.488   1.895 -0.0457 -0.1726 -0.0171
 4129W        W 8193  10.476   1.446  10.609  0.1285 -0.2068  0.0361
 4130W        W 8194   5.002   1.245   0.418  0.1299  0.2514 -0.1553
 4131W        W 8195   3.921   6.888   2.251  0.3516  0.0945  0.1964
 4132W        W 8196   3.271   6.310   0.697 -0.1573 -0.1821  0.0435
 4133W        W 8197   8.468   3.789   2.722  0.2776 -0.2083  0.1588
 4134W        W 8198   3.724   9.044   2.703 -0.0743  0.2613  0.2165
 4135W        W 8199   9.144   1.257   8.312 -0.1689  0.1827  0.1233
 4136W        W 8200   0.763   4.989   9.140 -0.0985 -0.2052 -0.0430
 4137W        W 8201   9.440   9.952   2.495 -0.0139  0.0573  0.0607
 4138W        W 8202   0.380   7.488   0.998 -0.0583  0.0776 -0.0370
 4139W        W 8203   0.799   6.603   2.303 -0.1704 -0.1081 -0.1497
 4140W        W 8204   5.639   4.120  10.540 -0.2670  0.4150 -0.0736
 4141W        W 8205  10.042   0.257   0.576  0.1214  0.0239  0.1395
 4142W        W 8206   2.054   7.795   2.979  0.0628 -0.0030  0.1114
 4143W        W 8207   0.365   5.192   1.198  0.1284  0.2200  0.2231
 4144W        W 8208   9.481   0.295  10.311 -0.4089  0.0194 -0.0442
 4145W        W 8209   6.186   8.196   3.149  0.1150 -0.2240 -0.0434
 4146W        W 8210   1.210   6.897   1.238  0.3367  0.4204  0.0292
 4147W        W 8211   1.639   2.695   2.491 -0.1721  0.1947 -0.0807
 4148W        W 8212   0.681   1.750   2.693  0.1769 -0.1856 -0.0288
 4149W        W 8213  10.058   5.018   2.418  0.1555 -0.1105  0.0699
 4150W        W 8214   6.915   7.453  10.756  0.0060  0.1201  0.2107
 4151W        W 8215   7.237   3.559  10.977  0.1807  0.2519 -0.3411
 4152W        W 8216   4.897   3.080   0.396 -0.1192 -0.0185  0.0065
 4153W        W 8217   1.316   8.346   1.763 -0.2208  0.0533  0.4182
 4154W        W 8218  10.537   4.762   9.143 -0.1924 -0.1718 -0.2548
 4155W        W 8219   9.741   1.698   8.179  0.1901 -0.0771  0.1599
 4156W        W 8220   1.149  10.659   7.980 -0.0543  0.3639  0.1809
 4157W        W 8221   7.607   1.652   8.932 -0.0179  0.1359 -0.0820
 4158W        W 8222   5.091   0.971   3.700  0.1656 -0.0148 -0.1018
 4159W        W 8223   0.996   5.600  11.133  0.3183  0.3568  0.1298
 4160W        W 8224   5.497   1.418   1.671 -0.0081  0.1444  0.3891
 4161W        W 8225   3.528   5.495  10.988  0.0376  0.2276  0.0619
 4162W        W 8226   8.757   1.433  11.089 -0.0625  0.0391  0.3103
 4163W        W 8227   2.155   1.055   8.885 -0.0745  0.2717 -0.2796
 4164W        W 8228   6.960   5.014   8.040 -0.1666  0.0527 -0.0544
 4165W        W 8229   1.240   3.610   8.439  0.1361 -0.0910 -0.2096
 4166W        W 8230   8.086   7.894   9.911  0.0217 -0.2858  0.0546
 4167W        W 8231   9.264   5.679   3.022 -0.0642 -0.0588 -0.1936
 4168W        W 8232   4.131   7.116   6.769 -0.0576 -0.1763 -0.0533
 4169W        W 8233   5.216   1.016  10.131 -0.0661  0.2580 -0.1872
 4170W        W 8234   9.814   0.934  11.185 -0.1272  0.2725 -0.0427
 4171W        W 8235   9.936  10.668   7.850  0.2708 -0.0009 -0.2418
 4172W        W 8236   6.644   5.894   9.908 -0.2832 -0.0458  0.0037
 4173W        W 8237   5.250   5.969   1.313 -0.0623  0.0752 -0.1264
 4174W        W 8238   9.675   0.450   7.874 -0.1429 -0.0704 -0.3638
 4175W        W 8239   2.237   6.998   2.872 -0.1560 -0.0854 -0.0775
 4176W        W 8240   2.674   4.414   8.950 -0.1393  0.2412 -0.3578
 4177W        W 8241   7.201   6.292   9.179  0.1675  0.2121 -0.1569
 4178W        W 8242   2.393   6.040  10.079  0.0915 -0.1423  0.0720
 4179W        W 8243  10.613   4.641  10.933 -0.2518  0.1125 -0.1082
 4180W        W 8244   0.573   7.157   7.961  0.0596  0.2080 -0.0854
 4181W        W 8245   0.574   3.900   9.999 -0.0390 -0.5658  0.1096
 4182W        W 8246   7.450   7.766   8.651  0.3452 -0.0153 -0.1935
 4183W        W 8247   1.677   9.947  10.923  0.0870  0.0211  0.1694
 4184W        W 8248   5.827  10.564   9.813 -0.1934  0.4826 -0.0181
 4185W        W 8249  10.405   4.532   1.539  0.4139  0.0780  0.3514
 4186W        W 8250   2.716   1.222   3.783 -0.1904 -0.1271  0.1168
 4187W        W 8251   5.435   7.846   6.915  0.1317 -0.1758  0.0190
 4188W        W 8252   2.231   1.828  11.084  0.0914  0.0854 -0.1858
 4189W        W 8253  10.177   0.721   7.314  0.2539 -0.0199 -0.2366
 4190W        W 8254   3.140   8.232   7.738 -0.0050  0.2206 -0.1726
 4191W        W 8255   8.093   4.256   6.875  0.4443  0.0696 -0.4920
 4192W        W 8256   0.063   3.266  10.708 -0.1277  0.2217  0.3236
 4193W        W 8257   8.434   7.989   2.172  0.0457 -0.0603 -0.3776
 4194W        W 8258   3.507   1.477   0.872  0.1581  0.0237  0.0955
 4195W        W 8259  10.418   9.185   3.549 -0.0720 -0.1827  0.0315
 4196W        W 8260   5.242   0.574   1.214 -0.1628 -0.0106 -0.5064
 4197W        W 8261   2.541   5.646   9.585  0.1246  0.2866 -0.1577
 4198W        W 8262   3.590   8.813  10.756  0.0271  0.1459  0.3568
 4199W        W 8263   1.741   8.072  10.937 -0.0437 -0.0306 -0.0701
 4200W        W 8264   9.892   5.361   0.071 -0.1523  0.1906 -0.2433
 4201W        W 8265   8.660   1.589   3.376  0.1798  0.0244 -0.0493
 4202W        W 8266   1.003   2.994   1.492  0.2282  0.2454 -0.1067
 4203W        W 8267   2.894   3.481   1.939  0.1175 -0.3797 -0.0130
 4204W        W 8268   2.642   0.828   8.963 -0.3620 -0.3030  0.4032
 4205W        W 8269   2.826   4.604   3.533  0.1357  0.1254 -0.0012
 4206W        W 8270   5.084   2.154  11.222  0.0832 -0.0491 -0.1562
 4207W        W 8271   8.731   7.651   7.891  0.2009 -0.2401 -0.1685
 4208W        W 8272   9.415   4.731   2.655 -0.1033  0.0116 -0.4860
 4209W        W 8273   1.929   0.537   1.358 -0.0455  0.1296 -0.0271
 4210W        W 8274  10.215   3.158   0.868  0.2706 -0.1464 -0.1655
 4211W        W 8275   6.729   3.323   1.306  0.0576  0.0915 -0.0206
 4212W        W 8276   0.330   8.705   9.038 -0.1102 -0.2505 -0.1510
 4213W        W 8277   9.230   9.701  10.498 -0.0957  0.2263 -0.0510
 4214W        W 8278   9.168   7.741   6.841  0.5360 -0.0043 -0.1023
 4215W        W 8279   2.943   9.611   1.202 -0.0818  0.2154  0.0747
 4216W        W 8280   3.530   6.050   2.928 -0.2490 -0.0350  0.0545
 4217W        W 8281   7.296   7.570   7.444 -0.0767  0.1995  0.0685
 4218W        W 8282   6.918   2.548   2.121 -0.5727 -0.1424 -0.1075
 4219W        W 8283   3.454   2.526   0.877  0.0999 -0.3098  0.2877
 4220W        W 8284   2.092   6.470   0.431  0.0406 -0.1855 -0.0486
 4221W        W 8285   4.459   3.093   9.776 -0.0222  0.0115 -0.0161
 4222W        W 8286   8.024   6.395  10.358  0.1606  0.0099  0.1949
 4223W        W 8287   5.262   1.476   2.658 -0.0384  0.2019  0.2975
 4224W        W 8288   9.342   0.723  11.315  0.0001 -0.2678  0.2330
 4225W        W 8289   4.956   9.453  10.849 -0.0035 -0.0699 -0.2398
 4226W        W 8290   5.889   0.207   9.486  0.2060  0.1204 -0.1983
 4227W        W 8291   0.717   1.932   9.024 -0.0497 -0.0419 -0.0330
 4228W        W 8292   5.527   3.772  10.901  0.3222 -0.2115 -0.1633
 4229W        W 8293   5.623   4.093   1.004  0.2798 -0.0921  0.0752
 4230W        W 8294   7.827   1.191   9.635  0.1850  0.1028 -0.0310
 4231W        W 8295   9.999   6.352   2.855  0.1495 -0.1198 -0.0829
 4232W        W 8296   0.508   3.547   7.912  0.0507  0.2215  0.0260
 4233W        W 8297   8.546  10.424   8.162  0.2150 -0.1461  0.1988
 4234W        W 8298   5.217   0.063   2.205 -0.0009  0.1013  0.0479
 4235W        W 8299   1.411   4.381   3.016  0.0190  0.0008 -0.1284
 4236W        W 8300   0.678   7.339   7.429  0.0387 -0.2243 -0.0303
 4237W        W 8301   2.646   2.952   8.855 -0.1315 -0.1894 -0.0904
 4238W        W 8302   5.813   2.517   1.335  0.2718  0.1904 -0.4692
 4239W        W 8303   5.846   2.923   9.528  0.1161  0.1593  0.0122
 4240W        W 8304   3.438   1.764  10.851  0.0776  0.0850 -0.0347
 4241W        W 8305   2.161   9.567   0.752  0.1824  0.0796 -0.1811
 4242W        W 8306   9.489   6.044   2.351 -0.1018  0.0606 -0.1209
 4243W        W 8307   9.177   1.187   7.427  0.0237  0.0917  0.1393
 4244W        W 8308   6.411   1.412   1.434  0.0858  0.0508  0.0692
 4245W        W 8309   6.046   6.356  10.236 -0.1053  0.4483 -0.3932
 4246W        W 8310   1.261   4.995  10.508 -0.0908  0.0298 -0.1293
 4247W        W 8311   6.880   2.101  10.218 -0.1277  0.2157  0.2177
 4248W        W 8312   6.015   5.773   8.177  0.0978 -0.0001 -0.1633
 4249W        W 8313   6.135   6.303   8.601 -0.2302  0.1286 -0.2109
 4250W        W 8314   3.855  10.443   9.013  0.0248  0.0134  0.0542
 4251W        W 8315  10.269   4.110   8.599 -0.1899 -0.2161 -0.0629
 4252W        W 8316   7.196   5.146   8.471 -0.2809 -0.2606 -0.2545
 4253W        W 8317   5.970   1.378   9.675 -0.0128  0.0760 -0.3318
 4254W        W 8318   7.563   8.528  11.209 -0.0391  0.2146  0.2519
 4255W        W 8319   1.071   5.548   2.634  0.0569  0.0223  0.2469
 4256W        W 8320   9.380   7.191   2.192  0.2278  0.1837 -0.2822
 4257W        W 8321   2.445   7.638   1.425  0.1770  0.1429 -0.0100
 4258W        W 8322   0.487  10.157   9.977  0.1867  0.1983  0.0277
 4259W        W 8323   9.316   9.405   0.951  0.0021 -0.2311  0.2164
 4260W        W 8324   6.273   7.702  11.285  0.0148  0.0143 -0.0978
 4261W        W 8325   9.093   2.090   3.275 -0.1156 -0.2178  0.0735
 4262W        W 8326   9.879   4.863   1.354 -0.0733  0.0944  0.1578
 4263W        W 8327   3.728   4.736   0.919 -0.1267  0.0022  0.2393
 4264W        W 8328   5.108   9.611   7.726  0.1170 -0.0418  0.2376
 4265W        W 8329   2.923   1.043  10.945  0.2582  0.2121 -0.0924
 4266W        W 8330   9.936   3.867  10.792  0.2312 -0.0802 -0.2673
 4267W        W 8331   2.517   4.450   9.442 -0.0238 -0.0689  0.0525
 4268W        W 8332   1.295   8.030   1.116 -0.0416  0.0833 -0.0593
 4269W        W 8333   9.478   1.669  10.987  0.0989 -0.1342 -0.1293
 4270W        W 8334   4.986   8.312   1.838 -0.0914 -0.1207 -0.2729
 4271W        W 8335   2.652  10.656   9.856 -0.0077  0.0236 -0.1990
 4272W        W 8336   6.887   4.664   9.035  0.1793  0.0155  0.0550
 4273W        W 8337   6.138   8.212   7.844  0.1033  0.0261  0.2004
 4274W        W 8338   5.551   4.893   9.637 -0.0020  0.0020 -0.3142
 4275W        W 8339   2.608   0.774   7.864 -0.0252  0.0007  0.0322
 4276W        W 8340   7.243   0.807   2.258  0.0004 -0.0360  0.1423
 4277W        W 8341   2.835   5.375   7.729  0.0201 -0.1390 -0.1019
 4278W        W 8342   1.281   6.944   7.154  0.4331 -0.2368  0.0580
 4279W        W 8343   6.260   6.130   9.049 -0.3549  0.0400 -0.0317
 4280W        W 8344   1.557   4.518  10.101 -0.0771  0.1068  0.2426
 4281W        W 8345   9.943   2.192   9.772 -0.2859 -0.1305  0.1571
 4282W        W 8346   7.562   7.689   6.986 -0.0807  0.0440 -0.1582
 4283W        W 8347   4.862   9.783   8.717 -0.0622  0.0864  0.1304
 4284W        W 8348   3.779   7.051   2.968  0.0056 -0.1370 -0.1046
 4285W        W 8349   6.229   2.207   1.141  0.1912  0.1689 -0.0235
 4286W        W 8350   8.304   7.701   8.234  0.2838 -0.1535 -0.0496
 4287W        W 8351   0.826   1.414   7.818  0.3248 -0.1160  0.0770
 4288W        W 8352   0.021   2.420  10.435 -0.0250 -0.1336 -0.1461
 4289W        W 8353   9.290   7.567   1.312 -0.2410 -0.0558 -0.1202
 4290W        W 8354   8.831   5.151   1.868  0.3269 -0.1935  0.2122
 4291W        W 8355   5.205   2.202   2.128  0.1394 -0.3067 -0.1053
 4292W        W 8356   6.518   6.553   8.964  0.0551 -0.1966  0.6383
 4293W        W 8357   1.448   7.665   9.553 -0.0425 -0.0140  0.2919
 4294W        W 8358   0.192   7.383   9.763  0.2344 -0.0955  0.1296
 4295W        W 8359   8.973   6.135   2.184 -0.2590  0.0750 -0.0936
 4296W        W 8360   6.690   6.962   7.874  0.0335 -0.0181 -0.1104
 4297W        W 8361   5.856   3.207  10.142  0.0809  0.0182 -0.2519
 4298W        W 8362   9.553   7.898   8.519  0.1142  0.0987  0.0393
 4299W        W 8363   9.845   8.311   1.448  0.1216  0.0684  0.1397
 4300W        W 8364   6.704   9.188   7.411 -0.1922 -0.1031  0.0606
 4301W        W 8365   9.721   9.597   1.698 -0.1446 -0.3098  0.1448
 4302W        W 8366   7.449   6.352   0.603  0.2998 -0.0331  0.0468
 4303W        W 8367   9.388  10.336   0.103  0.1222 -0.2350 -0.1704
 4304W        W 8368   6.729   4.204  10.509 -0.0438 -0.3004  0.0571
 4305W        W 8369   9.675   9.132   1.938 -0.0382  0.2819  0.0638
 4306W        W 8370   7.753   5.338   0.818 -0.2205  0.4560 -0.0237
 4307W        W 8371   0.980   8.969  10.125  0.1818  0.3049  0.0179
 4308W        W 8372   6.133  10.731  10.577 -0.0162 -0.2622  0.2229
 4309W        W 8373   5.551   1.118   0.844 -0.0542  0.0912  0.0104
 4310W        W 8374   8.989   4.874   0.970 -0.1460  0.0125  0.2498
 4311W        W 8375   0.901   4.918   1.339 -0.2043  0.0877  0.0240
 4312W        W 8376   6.089   8.080  10.925 -0.2956 -0.0358  0.1082
 4313W        W 8377   7.242   4.689   9.373 -0.1091  0.1340 -0.0035
 4314W        W 8378   2.857   2.173   3.443  0.1121 -0.1241 -0.3062
 4315W        W 8379   5.938   5.233   2.410  0.2077  0.1552 -0.2560
 4316W        W 8380  10.740   0.553   1.618  0.1497  0.2807  0.0618
 4317W        W 8381   5.953   1.119   7.465  0.0396  0.0773 -0.0329
 4318W        W 8382  10.701  10.225   0.776 -0.1401 -0.3240 -0.0047
 4319W        W 8383   8.076   1.730   8.226 -0.2683  0.1449  0.1528
 4320W        W 8384   7.836   6.453   1.209  0.2392 -0.0846  0.2790
 4321W        W 8385   5.293   0.211  11.025  0.0636  0.1787 -0.0759
 4322W        W 8386  10.154   5.362   2.901  0.0279  0.1834 -0.0954
 4323W        W 8387   1.168   3.041   8.288  0.0767  0.3581 -0.1820
 4324W        W 8388   0.006   1.437   0.562  0.1618 -0.2354  0.0916
 4325W        W 8389   0.009   0.275  10.861  0.0760  0.0517 -0.0949
 4326W        W 8390   6.864   6.771  10.170  0.0972  0.0741  0.0938
 4327W        W 8391   2.465   2.360   9.234 -0.0321  0.2229 -0.0698
 4328W        W 8392   2.363   8.917   8.349 -0.1045  0.1248  0.2776
 4329W        W 8393   5.415   9.722  10.627  0.0011  0.0739 -0.0436
 4330W        W 8394   5.122   7.145   2.617 -0.4225 -0.0698  0.2162
 4331W        W 8395   9.588   1.629  10.553 -0.0838  0.1862  0.3939
 4332W        W 8396   6.604   5.676   9.014  0.2535 -0.2727 -0.3796
 4333W        W 8397   2.591   6.610   7.142 -0.3311  0.2655  0.1023
 4334W        W 8398   4.933   7.466   8.451  0.0919 -0.0849  0.0653
 4335W        W 8399   8.578   6.245   1.917 -0.0524  0.0921  0.1548
 4336W        W 8400   5.345   3.678   9.953  0.3790  0.1130  0.0597
 4337W        W 8401  10.182   3.374   7.792 -0.0660 -0.2270  0.3971
 4338W        W 8402   4.533   6.618   0.948  0.2142  0.0269 -0.2697
 4339W        W 8403   4.715   4.289   9.203  0.0385 -0.2857  0.1518
 4340W        W 8404   1.842   5.694   3.512  0.0063  0.1922  0.2378
 4341W        W 8405   2.733   3.450   2.984  0.2924  0.0318  0.2095
 4342W        W 8406   0.598   0.112   8.226  0.1189 -0.0616 -0.0553
 4343W        W 8407   7.764   4.555   7.928 -0.0081 -0.1508 -0.3643
 4344W        W 8408   7.185   7.561   2.051  0.2468  0.1521  0.0379
 4345W        W 8409   5.266   5.037   0.817  0.2142  0.3059  0.1390
 4346W        W 8410   3.009   2.191   0.898  0.0708  0.1005 -0.3428
 4347W        W 8411   4.158   0.964   3.210  0.2119 -0.2231  0.4701
 4348W        W 8412   3.688   6.128   1.523  0.1728 -0.1174 -0.1814
 4349W        W 8413   5.548   7.910   2.617  0.1960  0.1152 -0.4934
 4350W        W 8414   9.833   2.555   7.239  0.1034 -0.0426  0.0257
 4351W        W 8415   6.581   3.717  10.437 -0.0810  0.1269 -0.0210
 4352W        W 8416   5.811   4.211   0.460  0.3877 -0.4701 -0.0139
 4353W        W 8417   2.400   7.639   0.044  0.2032 -0.3929 -0.1423
 4354W        W 8418   3.846   6.125   1.034 -0.0188  0.1138  0.2176
 4355W        W 8419   1.840   7.713   6.714 -0.1586  0.2505  0.2920
 4356W        W 8420   4.945   6.199   1.689  0.4545  0.0370  0.0450
 4357W        W 8421   2.687   9.526   8.008  0.1949 -0.0522 -0.1619
 4358W        W 8422   7.023   1.764   9.829 -0.0782  0.2585 -0.0867
 4359W        W 8423   3.874   1.093  11.219  0.2313 -0.2809  0.0263
 4360W        W 8424   0.399   4.871   2.589  0.1469  0.1458 -0.0819
 4361W        W 8425  10.214   1.796  10.116 -0.0096  0.0250  0.0613
 4362W        W 8426   7.393   7.383   9.398  0.1751 -0.0580  0.2647
 4363W        W 8427   6.158   6.231   2.635 -0.2242 -0.1045 -0.0146
 4364W        W 8428   8.314   9.354   8.954  0.3541  0.2300 -0.3849
 4365W        W 8429   9.889   0.683   8.289  0.0722 -0.1218 -0.1191
 4366W        W 8430   0.681   9.411   0.721  0.1272 -0.1010  0.0540
 4367W        W 8431   6.432   0.326   3.393  0.1648 -0.0433 -0.2341
 4368W        W 8432   6.367  10.338   2.949  0.1676  0.1886 -0.1499
 4369W        W 8433   1.758   7.283   0.747 -0.0071  0.3526  0.1013
 4370W        W 8434   6.586   1.006   9.729  0.0929  0.3486  0.0618
 4371W        W 8435   0.181   6.279   8.208  0.2586 -0.2844 -0.3344
 4372W        W 8436   0.833   5.457   3.828  0.0070  0.5854 -0.0596
 4373W        W 8437   1.309   5.181   1.557 -0.2290 -0.1459  0.4611
 4374W        W 8438   7.236   7.944   0.413 -0.0771 -0.1199  0.2803
 4375W        W 8439   1.570   4.725  10.968  0.1121  0.3002  0.4019
 4376W        W 8440   1.677   6.314   0.906 -0.0135 -0.0300 -0.1453
 4377W        W 8441   9.131   2.917   7.004  0.2353 -0.4169  0.0163
 4378W        W 8442   5.057   4.721   0.480 -0.1093  0.1592 -0.0988
 4379W        W 8443   9.978   7.377   8.739 -0.0113  0.0386  0.1464
 4380W        W 8444   4.614   7.019   2.350  0.0903  0.2515  0.0519
 4381W        W 8445   1.575   8.749   1.525  0.2538  0.0925 -0.1039
 4382W        W 8446   3.171   5.869  10.950 -0.2824  0.4953  0.1325
 4383W        W 8447   8.306   2.795  11.195  0.1252  0.2998 -0.1356
 4384W        W 8448   6.834   8.217   7.598 -0.0721 -0.0345 -0.2558
 4385W        W 8449   2.029   6.426  10.408 -0.0745  0.1429  0.1112
 4386W        W 8450   2.149   1.030   7.804 -0.2404 -0.0783 -0.2619
 4387W        W 8451   1.904   0.626   8.735  0.0825 -0.1436  0.1230
 4388W        W 8452   3.879   6.317   9.477 -0.3258  0.1428  0.0433
 4389W        W 8453   4.421  10.144   1.044  0.1076 -0.3587 -0.1785
 4390W        W 8454   1.199   1.129  10.111 -0.1642 -0.0408 -0.3870
 4391W        W 8455   2.806   2.467   2.475 -0.0267 -0.0464  0.2346
 4392W        W 8456   5.312   8.770  10.224 -0.2350  0.2119  0.3212
 4393W        W 8457   3.240   5.218   3.081  0.0813  0.0355 -0.0878
 4394W        W 8458   6.654   9.904   2.681  0.0088 -0.0599 -0.3452
 4395W        W 8459   5.585   9.218   8.380 -0.0276 -0.2389  0.1059
 4396W        W 8460   6.549   3.809   7.990 -0.1419 -0.1208  0.3965
 4397W        W 8461   2.056   1.905   3.402  0.2752  0.2856  0.0335
 4398W        W 8462   8.657   4.496  11.307  0.0673  0.1089  0.1788
 4399W        W 8463   3.388   8.570   3.319  0.1123 -0.1392 -0.2301
 4400W        W 8464   0.296   2.855   9.454 -0.1257  0.0688  0.2733
 4401W        W 8465   0.056   6.744   8.484 -0.0995  0.0936  0.2201
 4402W        W 8466   9.534   3.549  10.885 -0.0454  0.3745  0.0374
 4403W        W 8467   5.592   3.532   1.642 -0.1404  0.0391  0.2487
 4404W        W 8468   7.044   2.429   0.831  0.2446 -0.0756  0.0860
 4405W        W 8469   7.971  10.212   7.138 -0.0756  0.0732  0.1359
 4406W        W 8470   4.756   6.704   7.432 -0.2415  0.0259  0.0156
 4407W        W 8471   8.761   4.541   7.126  0.0416 -0.0463 -0.1807
 4408W        W 8472   1.984  10.491   1.163 -0.0710  0.1650  0.2643
 4409W        W 8473   2.320   6.233   0.039 -0.0339 -0.0121 -0.0884
 4410W        W 8474   9.517   8.551   2.662  0.1004 -0.1498 -0.1039
 4411W        W 8475   7.035   7.951   1.655 -0.2278 -0.2409 -0.0096
 4412W        W 8476   9.176   5.563   7.828  0.2918  0.5388 -0.3509
 4413W        W 8477   4.769   4.842   7.822 -0.0313  0.2088 -0.0088
 4414W        W 8478   8.034   1.867   0.107  0.4475  0.1759 -0.1362
 4415W        W 8479   4.719   2.509   0.122  0.2800 -0.0181  0.1120
 4416W        W 8480   9.273   1.540   1.607  0.0853 -0.2533 -0.1439
 4417W        W 8481   7.315   1.922  11.074 -0.1653 -0.1098 -0.0418
 4418W        W 8482   8.521  10.213   0.468 -0.0232  0.1832  0.3850
 4419W        W 8483   0.535   4.536   9.676  0.0856 -0.0511  0.1556
 4420W        W 8484   5.130   6.654   3.521  0.1577 -0.3987  0.1070
 4421W        W 8485   0.088   4.695   9.525  0.0748 -0.3413 -0.2272
 4422W        W 8486   0.017   3.798  10.663  0.0724  0.0221  0.2376
 4423W        W 8487   5.763   2.106   1.085 -0.3151 -0.2617 -0.0077
 4424W        W 8488   7.821   6.503   2.645 -0.1478  0.2252  0.0802
 4425W        W 8489   8.716   6.190   0.785 -0.1455 -0.0697  0.1460
 4426W        W 8490   6.547   6.348  11.234 -0.0037 -0.0719  0.2221
 4427W        W 8491   2.391   1.732   0.257 -0.2385 -0.0362  0.1057
 4428W        W 8492   9.860   5.294   9.905  0.3585 -0.1981 -0.0806
 4429W        W 8493   1.159   6.399  10.403  0.1241  0.1173 -0.1443
 4430W        W 8494   2.242   2.662   8.869 -0.1376 -0.0591 -0.0846
 4431W        W 8495   7.162   6.366   1.627  0.1341  0.0386  0.1005
 4432W        W 8496   3.684   9.621  11.281 -0.0718 -0.1049 -0.0937
 4433W        W 8497  10.061   6.009   7.566  0.0438  0.0347  0.1091
 4434W        W 8498   3.803  10.223   9.609 -0.4090  0.1839  0.0654
 4435W        W 8499   7.869   7.940   1.279 -0.2897 -0.0703 -0.0281
 4436W        W 8500   0.777   3.072   2.800 -0.0325  0.2128  0.1432
 4437W        W 8501   8.162   3.179   8.038  0.3470 -0.1193 -0.1001
 4438W        W 8502   9.399   2.117   1.702  0.1310  0.0883  0.2940
 4439W        W 8503   4.683   5.337   8.988  0.1026 -0.0590 -0.0401
 4440W        W 8504   7.467   7.149   0.592 -0.0722 -0.2091  0.1097
 4441W        W 8505   6.315   3.357   1.620  0.0534  0.3766 -0.0739
 4442W        W 8506   2.564   9.755   9.490  0.0253 -0.0837 -0.1310
 4443W        W 8507  10.216   7.782   2.842  0.0291  0.0973 -0.0537
 4444W        W 8508   4.046   6.475   1.335 -0.4547  0.2388  0.0582
 4445W        W 8509   5.459   6.402   1.044  0.0994 -0.0199 -0.2463
 4446W        W 8510   4.936   1.143   2.543  0.3285  0.1394  0.0356
 4447W        W 8511   6.343   3.748  10.994  0.0860  0.5272  0.0898
 4448W        W 8512   2.264   0.230  10.928  0.0388  0.1644 -0.0644
 4449W        W 8513   9.720   2.409   1.367 -0.2432 -0.1057  0.0007
 4450W        W 8514   6.122   0.326   9.951 -0.0154 -0.2976  0.0113
 4451W        W 8515   7.949   0.029   0.415 -0.1597 -0.2356  0.1354
 4452W        W 8516   0.926   2.955   0.675 -0.0794 -0.1597  0.2203
 4453W        W 8517   1.486  10.426   0.324 -0.0307  0.1178  0.1384
 4454W        W 8518   0.963   2.639   1.081 -0.2669 -0.0654  0.0768
 4455W        W 8519   8.449   3.428   7.730  0.0248 -0.0873 -0.0540
 4456W        W 8520   5.973   1.024   0.535  0.2180  0.1851  0.0788
 4457W        W 8521   6.257   3.710   8.421  0.1842 -0.2011  0.0661
 4458W        W 8522   2.847   1.099   2.478 -0.0805  0.0476  0.3153
 4459W        W 8523   1.022  10.137   0.665 -0.1721 -0.1427 -0.0629
 4460W        W 8524   3.839   1.522   9.382 -0.0918  0.1540 -0.0024
 4461W        W 8525   2.879  10.103   1.033  0.1850  0.0878  0.1596
 4462W        W 8526   3.171   2.156   1.405 -0.0890  0.3021 -0.0482
 4463W        W 8527   5.821   8.267   2.834 -0.1280 -0.1298  0.1337
 4464W        W 8528   2.221   0.852   1.834 -0.1223  0.2182  0.1575
 4465W        W 8529  10.400   3.348  10.558 -0.0880  0.0199  0.0443
 4466W        W 8530   8.528   8.463   2.475  0.2483  0.0545 -0.2016
 4467W        W 8531   4.033   4.560   1.996 -0.1759 -0.1563 -0.0118
 4468W        W 8532   6.395   4.113   0.614 -0.1427 -0.0924 -0.3198
 4469W        W 8533   3.623   2.996   8.523 -0.0965 -0.1412  0.0961
 4470W        W 8534   2.250   6.907  10.520 -0.0435 -0.1208  0.1979
 4471W        W 8535   2.622   2.007  10.675  0.3016 -0.1190 -0.5362
 4472W        W 8536   7.210   6.245   3.262 -0.1628 -0.3884 -0.1720
 4473W        W 8537  10.060   9.156   7.461  0.1401  0.1402 -0.1696
 4474W        W 8538  10.426   1.896   9.680  0.1240  0.0417  0.1228
 4475W        W 8539   8.003   1.591   2.241 -0.4071  0.1753 -0.0612
 4476W        W 8540   8.423   4.153   7.283  0.0068  0.1170  0.1551
 4477W        W 8541   9.851   6.438   2.345  0.1833 -0.0828 -0.2510
 4478W        W 8542  10.327   6.985  10.562  0.2005  0.0507  0.0476
 4479W        W 8543   4.496   8.901   0.785 -0.3682 -0.0613  0.1407
 4480W        W 8544   6.052   5.642   8.989 -0.4399 -0.0881 -0.0954
 4481W        W 8545   4.337   7.784   2.875 -0.1859  0.3524  0.0512
 4482W        W 8546   3.467   2.696   0.319  0.1606 -0.0181  0.2969
 4483W        W 8547   6.470   9.318   1.611  0.0025 -0.0324 -0.2227
 4484W        W 8548   8.129   1.781   8.828  0.0396  0.1148  0.5329
 4485W        W 8549   0.755   1.043   9.826 -0.2040  0.0376  0.0119
 4486W        W 8550   0.175   8.971   3.484  0.3703 -0.2600 -0.1099
 4487W        W 8551   8.341   8.661   9.176  0.1252 -0.1871 -0.1204
 4488W        W 8552   4.369   2.991   0.307  0.1215 -0.2347  0.0582
 4489W        W 8553   6.147   1.822   2.003 -0.3375 -0.0943  0.0115
 4490W        W 8554   7.540   0.987   2.710  0.3987  0.2518 -0.0609
 4491W        W 8555   5.821   1.425   2.123 -0.0762 -0.1527  0.1849
 4492W        W 8556   5.837  10.698   0.404 -0.2921 -0.1215 -0.0393
 4493W        W 8557   0.986   2.313  10.144 -0.1178  0.1519  0.2888
 4494W        W 8558   6.095   5.531   0.071 -0.1625  0.0495  0.0530
 4495W        W 8559   1.788  10.232   9.872 -0.3032 -0.0919 -0.1093
 4496W        W 8560  10.538   5.979  10.417 -0.0981  0.3265  0.1833
 4497W        W 8561   7.891   8.192  11.269  0.0619  0.3664  0.1089
 4498W        W 8562   5.154   2.645   3.105 -0.0771  0.0370  0.2536
 4499W        W 8563   4.395   2.780  11.169  0.2081  0.0126  0.1677
 4500W        W 8564   3.926   0.472   1.857  0.2118  0.0632 -0.3473
 4501W        W 8565   4.749   5.811   9.155 -0.1067  0.0087 -0.1036
 4502W        W 8566   2.867   0.715   3.160  0.2946  0.1442 -0.1270
 4503W        W 8567   7.974   4.665   1.556  0.1448  0.0811 -0.1438
 4504W        W 8568   5.012  10.128   8.451 -0.2154  0.1437 -0.0208
 4505W        W 8569   5.116   1.152   1.841  0.1662 -0.0047 -0.2792
 4506W        W 8570   2.828   6.765  10.086 -0.0287 -0.2927  0.3035
 4507W        W 8571   0.927   7.417   9.012  0.0575  0.2893  0.0460
 4508W        W 8572  10.486   0.216   9.278 -0.1269  0.1661 -0.1275
 4509W        W 8573   9.950   3.200   2.452  0.1994  0.1098  0.5838
 4510W        W 8574   1.184   1.253   3.844 -0.1885 -0.1478  0.2692
 4511W        W 8575   3.527   4.617   9.798 -0.2642 -0.1366 -0.0321
 4512W        W 8576   3.535   4.390   2.743  0.0228 -0.1361  0.1243
 4513W        W 8577   1.950   2.439   0.931 -0.0536  0.1804 -0.3094
 4514W        W 8578   6.705   1.768   8.202 -0.0441 -0.2349 -0.3543
 4515W        W 8579   8.712  10.020   1.631 -0.0647  0.0893 -0.0217
 4516W        W 8580   0.458   9.273  10.212 -0.0340 -0.0839  0.1716
 4517W        W 8581   1.013   4.329   2.586  0.3101  0.1787 -0.1164
 4518W        W 8582   7.514   9.721   9.719 -0.2920 -0.0235  0.3344
 4519W        W 8583   3.512   5.191   2.305 -0.0735 -0.2197  0.0604
 4520W        W 8584   9.738   1.195   8.034 -0.2302  0.2119 -0.2071
 4521W        W 8585   5.729   4.753   7.757  0.0620  0.1377  0.2436
 4522W        W 8586  10.683   1.652   2.116 -0.3065  0.1728 -0.0205
 4523W        W 8587   0.462   8.949   8.596  0.0278 -0.3441 -0.1457
 4524W        W 8588   0.992   7.218  10.070 -0.1758 -0.0676  0.3137
 4525W        W 8589   9.061   1.697   0.180  0.1146  0.6477  0.1240
 4526W        W 8590   6.452   7.297   7.579  0.0508  0.0181  0.1761
 4527W        W 8591   2.776   2.924   2.866 -0.0610 -0.3654 -0.1314
 4528W        W 8592   6.449  10.318  10.587 -0.0932  0.0651 -0.1058
 4529W        W 8593   8.936   3.461   0.681  0.2927  0.3283  0.1551
 4530W        W 8594   1.484   8.735   9.347  0.0166  0.1363 -0.1502
 4531W        W 8595   4.690   2.062   1.640  0.2394  0.0669 -0.1164
 4532W        W 8596   0.609   2.242   1.851  0.0805 -0.0838  0.1764
 4533W        W 8597   9.430   3.722   1.745  0.4559  0.1365  0.3651
 4534W        W 8598   2.138  10.458   9.464  0.0068 -0.0591  0.1506
 4535W        W 8599   1.760   3.566   8.621  0.0718 -0.2010  0.1249
 4536W        W 8600   5.536  10.035   8.661  0.0734 -0.1399  0.2230
 4537W        W 8601   2.243   7.825   0.543  0.1365 -0.5018 -0.2051
 4538W        W 8602   9.117   5.959   9.956 -0.0464 -0.0534  0.5060
 4539W        W 8603   9.431  10.653   7.868  0.0701 -0.2220 -0.0340
 4540W        W 8604   9.938   0.427  10.689  0.2747  0.1555 -0.2291
 4541W        W 8605   2.853   6.218  10.015 -0.0511 -0.2572  0.0380
 4542W        W 8606   6.899   3.708   1.712 -0.1184  0.0815 -0.2648
 4543W        W 8607   9.036   4.282  10.337  0.0019 -0.4153  0.0468
 4544W        W 8608   0.432   4.999   8.507  0.0474  0.2025  0.1363
 4545W        W 8609   9.770   4.920   8.231  0.1884  0.2393 -0.0484
 4546W        W 8610   0.144   8.248   2.580  0.1905 -0.2195  0.1217
 4547W        W 8611   5.181   1.529   9.665 -0.3941 -0.0117  0.1604
 4548W        W 8612   7.588   5.054   7.326  0.1047  0.0366 -0.2046
 4549W        W 8613   1.202   9.895   8.068  0.2612  0.1600  0.0395
 4550W        W 8614   3.470   9.163  10.427  0.2236  0.3611  0.3437
 4551W        W 8615   8.485   4.824   9.124  0.0841  0.1443  0.0973
 4552W        W 8616   0.123   2.494   8.623 -0.0978  0.0266 -0.3037
 4553W        W 8617   5.973   5.803  10.776  0.2433 -0.0501 -0.0170
 4554W        W 8618   7.610   3.119   9.301  0.0440 -0.0714 -0.2510
 4555W        W 8619   8.497   5.980   2.333  0.2818 -0.0115  0.0422
 4556W        W 8620   0.751   3.670   9.028  0.0179 -0.0145 -0.3499
 4557W        W 8621   1.302   5.453   9.219  0.1948  0.1921 -0.0990
 4558W        W 8622   6.422   9.309   1.081  0.1802 -0.0806 -0.0048
 4559W        W 8623   2.194   6.619   2.602  0.1569  0.2158 -0.0729
 4560W        W 8624  10.439   8.014   8.162 -0.0168 -0.2658 -0.0447
 4561W        W 8625  10.763   8.441   9.921  0.3664  0.2091  0.2273
 4562W        W 8626   3.805   4.831  10.507 -0.4311 -0.1343  0.1801
 4563W        W 8627   6.985   7.246  10.314  0.1184  0.0202  0.1374
 4564W        W 8628   1.194   8.451   2.799  0.0782  0.0167  0.1845
 4565W        W 8629   4.286   7.978   0.882 -0.1467 -0.1332 -0.0261
 4566W        W 8630   7.976  10.218  10.954  0.2862 -0.0210  0.2008
 4567W        W 8631   8.221   7.330   0.311  0.1527 -0.0783 -0.2043
 4568W        W 8632   4.240   0.785   2.670  0.1935 -0.0592  0.1468
 4569W        W 8633   0.399   6.089   0.566  0.1997 -0.0415  0.0796
 4570W        W 8634   2.295   2.378  11.073 -0.1508 -0.0681  0.1822
 4571W        W 8635   3.687  10.054  10.303 -0.1713 -0.2640 -0.1290
 4572W        W 8636   8.797   1.742   0.718 -0.2034  0.1489 -0.1339
 4573W        W 8637   7.786  10.004   0.034 -0.1704 -0.0292  0.1354
 4574W        W 8638   3.653   8.382   8.901 -0.3062 -0.3554 -0.3313
 4575W        W 8639   8.793   9.579   7.170 -0.1298  0.0044  0.2489
 4576W        W 8640   1.980   8.047   8.328  0.1328 -0.0426 -0.0686
 4577W        W 8641   0.336   8.751  10.923 -0.1159  0.2752  0.1618
 4578W        W 8642   8.977   5.774   0.659  0.2710  0.1676  0.2520
 4579W        W 8643   1.609   3.728   0.473 -0.1100  0.2123 -0.1574
 4580W        W 8644   4.564   2.836   9.361 -0.2317  0.0031 -0.2899
 4581W        W 8645   1.417   3.172   3.582 -0.1084  0.1699 -0.2568
 4582W        W 8646   7.121   0.958   9.681 -0.0622  0.2735 -0.0447
 4583W        W 8647  10.064   2.154   1.654  0.1907  0.2384  0.2446
 4584W        W 8648   7.767   0.578   0.781  0.1327 -0.3422  0.1084
 4585W        W 8649   8.767   2.437   7.993  0.0583  0.1953  0.1343
 4586W        W 8650   1.881   9.410  10.214 -0.0278 -0.0403  0.4198
 4587W        W 8651   8.364   1.981   1.064 -0.1183 -0.0863  0.0134
 4588W        W 8652   1.623   8.599   8.804  0.3014 -0.0644 -0.7442
 4589W        W 8653   1.370   0.076   0.062  0.1346  0.0490 -0.0379
 4590W        W 8654   7.296   2.563   0.330 -0.2488  0.0580 -0.0658
 4591W        W 8655   2.271   7.255   8.897  0.0167  0.0388 -0.2744
 4592W        W 8656   8.179   2.231   8.878 -0.2515 -0.3000 -0.0344
 4593W        W 8657  10.541   6.164   1.919  0.0506 -0.6049  0.0953
 4594W        W 8658  10.263   5.668   9.255 -0.2716  0.1400  0.1320
 4595W        W 8659   6.658   7.047   9.730  0.0632 -0.1201 -0.2850
 4596W        W 8660   5.880   5.286  10.983  0.0654  0.1758  0.0397
 4597W        W 8661   3.451   1.496   2.816 -0.0628  0.0294  0.1544
 4598W        W 8662   8.669   6.254   0.302 -0.0903  0.3703 -0.1950
 4599W        W 8663   0.097   3.719   7.386  0.2940 -0.2148  0.1289
 4600W        W 8664   8.787   4.984   0.276  0.2393  0.0162 -0.1262
 4601W        W 8665   8.973  10.164   3.197  0.3153  0.1436 -0.1411
 4602W        W 8666   4.123   8.926   0.426  0.5657 -0.2725 -0.3015
 4603W        W 8667   6.644   5.259  10.084  0.2434 -0.1728 -0.0243
 4604W        W 8668   1.773   8.431  11.306  0.0069 -0.0999  0.0532
 4605W        W 8669   7.274   3.936   0.057 -0.1075 -0.2246  0.2427
 4606W        W 8670   8.947   2.597   1.250 -0.2691  0.0346 -0.0776
 4607W        W 8671   3.112   5.243   9.095  0.2102 -0.0977 -0.0056
 4608W        W 8672   1.426   2.909   1.234 -0.1064 -0.0026  0.1104
 4609W        W 8673   5.154   0.126   3.353 -0.0250 -0.1084 -0.1485
 4610W        W 8674   9.176   2.484   0.806 -0.0703 -0.1071  0.1758
 4611W        W 8675   5.846   1.177   9.264 -0.0342  0.0393  0.0410
 4612W        W 8676   5.649   0.495   1.992 -0.2294  0.1257  0.0212
 4613W        W 8677   0.955   7.764   9.345 -0.1980 -0.1301 -0.1750
 4614W        W 8678   4.946   0.325  10.645  0.2319  0.1591 -0.2860
 4615W        W 8679   9.295   0.309   0.789 -0.0106  0.0466  0.3249
 4616W        W 8680   5.435   5.654  10.509 -0.2212 -0.0042  0.1446
 4617W        W 8681   7.977   5.676   9.151  0.1993  0.1929 -0.2454
 4618W        W 8682   9.512   5.175   2.350  0.0380  0.1368  0.3311
 4619W        W 8683   3.829   7.023  10.625 -0.0561  0.3314 -0.2557
 4620W        W 8684   3.620   1.942   2.929 -0.0996 -0.1016  0.3080
 4621W        W 8685   4.768   7.164   0.575 -0.0049 -0.1829 -0.2258
 4622W        W 8686   6.109   8.677   0.193 -0.0922  0.1383  0.3362
 4623W        W 8687   8.941   6.096  10.860 -0.0398  0.0217  0.0396
 4624W        W 8688   7.043   2.155   1.626  0.3340 -0.0227  0.2050
 4625W        W 8689  10.674   2.102  10.940  0.1217 -0.5440 -0.0616
 4626W        W 8690   9.142  10.314   2.269 -0.0119  0.1644  0.1571
 4627W        W 8691   4.239   6.002   0.110  0.1147 -0.1240 -0.6042
 4628W        W 8692   9.157   7.449   9.914  0.1450  0.0493  0.0306
 4629W        W 8693   4.660   5.108   0.323 -0.3890  0.4371 -0.1110
 4630W        W 8694   4.046   2.776   9.840 -0.1020 -0.0772 -0.1273
 4631W        W 8695   7.890  10.548   1.729  0.0074  0.0049  0.0813
 4632W        W 8696   3.971   8.097   2.970  0.0735 -0.0374  0.0700
 4633W        W 8697   1.589   3.282  10.623  0.1484  0.0395  0.0403
 4634W        W 8698   7.093   7.952  10.664 -0.3102  0.1282 -0.0631
 4635W        W 8699   1.168   5.423   1.104  0.0950 -0.0312 -0.1748
 4636W        W 8700   9.192   5.472   1.982 -0.0495 -0.0992  0.3522
 4637W        W 8701  10.386   8.994   1.946  0.1603  0.2630  0.0985
 4638W        W 8702   8.210   0.927   8.733 -0.1057  0.3393 -0.0928
 4639W        W 8703   1.833   1.949   0.736 -0.2782 -0.1436  0.1062
 4640W        W 8704   2.895   5.328   0.990  0.0778 -0.1733 -0.0016
 4641W        W 8705   0.714   5.740   8.047  0.0652  0.0120 -0.0433
 4642W        W 8706   7.584   3.080   1.345  0.2223 -0.1578 -0.2442
 4643W        W 8707   3.448   5.448   0.162  0.1468  0.1983  0.0269
 4644W        W 8708   8.887   5.517   1.538  0.2031  0.1024 -0.0804
 4645W        W 8709   8.646   7.274   8.742  0.1222 -0.1513 -0.1962
 4646W        W 8710  10.723   4.141   1.481 -0.1196 -0.0388  0.2168
 4647W        W 8711   5.074   7.931   8.461  0.0302  0.0518 -0.1128
 4648W        W 8712   7.787   6.023   0.789  0.1988  0.1727  0.0952
 4649W        W 8713   1.639   3.195  11.106 -0.0026 -0.0322 -0.1816
 4650W        W 8714   5.415   9.002   0.649 -0.2291  0.0670 -0.1942
 4651W        W 8715   9.837   8.073  10.455 -0.0096 -0.3712  0.0126
 4652W        W 8716   0.228  10.715   2.434 -0.2797 -0.0944 -0.1311
 4653W        W 8717  10.176   7.367   7.547  0.0011  0.0707 -0.1798
 4654W        W 8718   0.081   1.776   0.198  0.4021  0.0865 -0.2133
 4655W        W 8719   7.400   2.171  10.264 -0.1935  0.3803 -0.0553
 4656W        W 8720   0.137   2.103   9.745 -0.0414  0.0899 -0.0269
 4657W        W 8721   9.522   4.099  10.499  0.0696 -0.3099  0.0078
 4658W        W 8722   3.122   4.239  10.742 -0.2323  0.3939  0.1211
 4659W        W 8723   7.584   3.553   1.498  0.3400 -0.0238  0.1565
 4660W        W 8724   1.592   1.020   8.584 -0.1688 -0.1563  0.1775
 4661W        W 8725  10.034   8.287   8.425  0.0246 -0.0167  0.1084
 4662W        W 8726   6.288   8.810   9.390 -0.0804 -0.2297  0.5586
 4663W        W 8727   1.410   8.172   3.781  0.3829 -0.0199  0.2232
 4664W        W 8728   0.873   6.275   1.899  0.1345 -0.2994 -0.3266
 4665W        W 8729   3.917   7.543   2.825  0.0369 -0.1602 -0.0438
 4666W        W 8730   1.072   6.102   9.918 -0.1211 -0.4214 -0.2975
 4667W        W 8731   2.654   9.354  10.461 -0.2459 -0.1278  0.2357
 4668W        W 8732   4.014   4.117   2.835  0.1359  0.1077 -0.0474
 4669W        W 8733   2.372   3.558   2.179 -0.0559 -0.0929 -0.0121
 4670W        W 8734   6.260   7.754   7.483  0.1996  0.0986  0.0600
 4671W        W 8735   6.964   5.432   2.734 -0.3463 -0.0510 -0.2194
 4672W        W 8736   5.465   5.658   8.888  0.2045 -0.1692  0.0234
 4673W        W 8737   4.581   5.881  10.611 -0.2425 -0.0040 -0.3362
 4674W        W 8738   7.779   7.535   0.938 -0.2686 -0.0335 -0.1082
 4675W        W 8739   2.291   3.822   2.694  0.2032  0.0309  0.2793
 4676W        W 8740   1.086   0.115   9.860 -0.2350 -0.2600 -0.0701
 4677W        W 8741   5.982   6.725   8.244  0.0946 -0.0771 -0.1948
 4678W        W 8742   0.907   8.455  10.129 -0.2410  0.2097  0.3193
 4679W        W 8743   8.758  10.463  10.799  0.3447 -0.2807  0.0430
 4680W        W 8744  10.763   4.116   8.442 -0.2742  0.1652 -0.0920
 4681W        W 8745   0.469   6.540   0.400  0.0176 -0.2910  0.1598
 4682W        W 8746   9.139   4.669   0.487  0.1504  0.0498 -0.0062
 4683W        W 8747   0.770   3.375   0.295 -0.2138  0.0210  0.0392
 4684W        W 8748   2.785   0.294   0.829 -0.0969 -0.0719  0.0291
 4685W        W 8749   9.402   7.083  10.926  0.1256  0.1264 -0.0826
 4686W        W 8750   9.440   8.178   2.299 -0.0166 -0.4853  0.3042
 4687W        W 8751   1.324   2.599   1.971 -0.1068 -0.0869 -0.2506
 4688W        W 8752   1.397   1.234   0.120  0.2064  0.2271  0.1028
 4689W        W 8753   2.280   4.932   0.174 -0.0732  0.0219 -0.0495
 4690W        W 8754   5.339   1.538   0.588  0.0961  0.0881 -0.1966
 4691W        W 8755   8.653   9.090   1.922  0.2473  0.0531  0.2372
 4692W        W 8756   3.543   2.217   2.384  0.2064 -0.3314  0.0545
 4693W        W 8757   3.161   7.901   0.319  0.4175 -0.2598 -0.0422
 4694W        W 8758   4.219   3.390   2.178 -0.2420  0.0207  0.2324
 4695W        W 8759   4.840   9.085   9.466  0.2895 -0.1276 -0.0805
 4696W        W 8760   4.016   3.097   1.127  0.1760 -0.1520  0.0505
 4697W        W 8761  10.137   9.069   1.247  0.3869 -0.2764 -0.1111
 4698W        W 8762   2.595   1.678   3.512  0.0420 -0.0370  0.3106
 4699W        W 8763   8.967  10.068   0.248  0.0114 -0.0714  0.1638
 4700W        W 8764   8.153   0.477   1.235 -0.0752 -0.0227  0.1596
 4701W        W 8765   9.821   5.423   1.543  0.0676  0.3323  0.1908
 4702W        W 8766   8.163   5.145   1.667 -0.0223  0.1877  0.1202
 4703W        W 8767   0.928   9.257  10.529 -0.1810 -0.0842  0.0721
 4704W        W 8768  10.053   7.486  10.422  0.1109 -0.2522  0.1117
 4705W        W 8769   4.766   7.890   8.824  0.0801 -0.1779 -0.2476
 4706W        W 8770   1.841   1.756   9.386 -0.2157  0.2676  0.0595
 4707W        W 8771   1.427   8.702   0.229 -0.3068 -0.1286 -0.1850
 4708W        W 8772   3.601   6.841   8.222  0.1306 -0.1051  0.1026
 4709W        W 8773   9.279   8.757   9.590  0.0862 -0.2754 -0.1777
 4710W        W 8774   8.980   5.637  11.015  0.2251 -0.1680  0.3208
 4711W        W 8775   7.427   2.207   3.120  0.1095 -0.2811  0.1593
 4712W        W 8776   0.454   4.733   2.083 -0.2056  0.1246 -0.3120
 4713W        W 8777   8.373  10.158   1.314  0.1058 -0.0347 -0.2436
 4714W        W 8778   2.882   7.600   0.047  0.3455 -0.0721  0.1381
 4715W        W 8779   2.848   5.117   8.153 -0.1726  0.2325 -0.1914
 4716W        W 8780   2.362   2.710   0.621  0.3349  0.0819 -0.3308
 4717W        W 8781   2.245   8.260   9.440  0.0529 -0.3213 -0.1360
 4718W        W 8782   2.981   5.942   7.903 -0.1909 -0.1432  0.1511
 4719W        W 8783   8.612   6.324   9.308 -0.2769 -0.0167  0.0157
 4720W        W 8784   4.937   0.364   9.299 -0.2022  0.0363 -0.2308
 4721W        W 8785   2.496   1.327  11.101 -0.3016 -0.3131 -0.3151
 4722W        W 8786   0.801   6.924   2.700  0.1019 -0.0843  0.2787
 4723W        W 8787   0.508   7.750   7.630 -0.0660 -0.0337 -0.3381
 4724W        W 8788   3.969   3.372   8.699  0.1764  0.1363  0.1103
 4725W        W 8789   0.064  10.073   9.710 -0.2902 -0.0727 -0.0616
 4726W        W 8790   1.203   6.420   8.229  0.0899  0.3488  0.1580
 4727W        W 8791   8.308   4.171  11.193  0.1855 -0.1428  0.3118
 4728W        W 8792   4.718   0.409   1.841 -0.0154  0.1482 -0.2437
 4729W        W 8793  10.433   9.248  10.368 -0.3992 -0.3647  0.1090
 4730W        W 8794   9.579   1.082   1.099 -0.0892 -0.0742 -0.1650
 4731W        W 8795   3.420   9.093   7.861  0.3925 -0.0258  0.1811
 4732W        W 8796   7.193   4.194  10.696  0.0381  0.1144 -0.2267
 4733W        W 8797   5.142   1.047   8.589  0.1296 -0.0535  0.1506
 4734W        W 8798   0.088   2.263   0.148  0.3677  0.1181  0.0578
 4735W        W 8799   2.528   6.449  10.493  0.0022  0.0651  0.1309
 4736W        W 8800   4.386   7.572  10.955  0.0509  0.2271 -0.3011
 4737W        W 8801   9.737   8.767   1.190  0.1302  0.1739  0.0121
 4738W        W 8802   5.937  10.284   7.917 -0.0488 -0.0790 -0.0501
 4739W        W 8803   0.139   4.748   0.082 -0.0507 -0.2331  0.0718
 4740W        W 8804   0.889   5.395   9.505 -0.2894  0.0175  0.0516
 4741W        W 8805   4.839   4.177   8.197  0.0619  0.1685 -0.0059
 4742W        W 8806   1.128   2.488   1.549  0.2742  0.1004  0.3704
 4743W        W 8807   3.736   0.859   2.774 -0.1189  0.0209 -0.1587
 4744W        W 8808  10.305   1.254   0.549  0.0276 -0.1309 -0.1643
 4745W        W 8809   1.984   4.805   7.874 -0.1341 -0.1939 -0.1900
 4746W        W 8810   3.103   8.860  10.783 -0.1762  0.0469 -0.2361
 4747W        W 8811   6.460   8.333   9.254 -0.1296  0.1501  0.0226
 4748W        W 8812   8.033   7.172  11.103 -0.0228 -0.0399  0.3909
 4749W        W 8813   5.847   0.791   9.734  0.1517  0.1576 -0.1281
 4750W        W 8814   7.516   3.027   8.755 -0.1044  0.0533  0.2953
 4751W        W 8815   4.389   5.508   9.388  0.3256 -0.0393  0.1159
 4752W        W 8816   8.933   9.063   8.018 -0.1670  0.0672  0.0231
 4753W        W 8817   7.990   9.677   9.872 -0.0891  0.0837 -0.1134
 4754W        W 8818   3.699   4.209   2.247 -0.1066  0.0351  0.1431
 4755W        W 8819   6.799   4.191   1.289 -0.2129 -0.3441  0.2754
 4756W        W 8820   7.340   4.346   9.708  0.0254 -0.0424 -0.1684
 4757W        W 8821   1.974   8.827  10.933 -0.2470  0.0110  0.1397
 4758W        W 8822   4.138   1.443   3.381  0.0208 -0.0781 -0.2143
 4759W        W 8823   8.968   2.877   9.012 -0.1628  0.2256 -0.0352
 4760W        W 8824   5.022   2.971   9.561  0.1143  0.1685  0.1356
 4761W        W 8825   1.407   9.269   2.760 -0.2166  0.0808 -0.0150
 4762W        W 8826   6.907   2.596  10.928 -0.0702 -0.0395  0.0344
 4763W        W 8827   3.808   0.028   1.366 -0.3078 -0.0777  0.0897
 4764W        W 8828   0.747   3.491  10.245 -0.1325  0.1824  0.0012
 4765W        W 8829   0.064   1.282   2.425 -0.1112 -0.1034  0.0673
 4766W        W 8830   3.693   5.937  11.193 -0.3554 -0.1501 -0.3562
 4767W        W 8831   5.207   0.266  10.258 -0.0742  0.0053 -0.0033
 4768W        W 8832   9.424   1.189   2.852 -0.2120 -0.1190  0.2635
 4769W        W 8833   4.083   0.694   9.115 -0.2788  0.1722 -0.0024
 4770W        W 8834   5.748   2.229   8.151 -0.1622 -0.0838  0.0470
 4771W        W 8835   3.599   4.720   3.663 -0.0303 -0.2054 -0.1182
 4772W        W 8836   9.918   6.315   1.420  0.0975  0.0339 -0.4526
 4773W        W 8837   8.067   6.933   2.390 -0.1089  0.1029 -0.0461
 4774W        W 8838   7.093   0.874   8.760 -0.3395 -0.1527 -0.2617
 4775W        W 8839   8.818  10.757   9.879 -0.1430 -0.1378 -0.0780
 4776W        W 8840   3.882   9.815   2.265 -0.1733 -0.2054 -0.2571
 4777W        W 8841   4.866   1.270   9.126  0.1032  0.1588 -0.3523
 4778W        W 8842   3.469   8.147   0.005  0.3314  0.0918 -0.0765
 4779W        W 8843   9.933  10.764  10.309  0.0398  0.2164  0.0577
 4780W        W 8844   4.069   6.286   1.795  0.3623 -0.0737 -0.1800
 4781W        W 8845   4.087  10.025   8.736 -0.1236 -0.1628 -0.2492
 4782W        W 8846   4.182  10.237  10.030  0.0697 -0.0016  0.1292
 4783W        W 8847   8.144   8.259   8.331 -0.1425 -0.1975  0.2936
 4784W        W 8848   5.901   1.629   3.056  0.2155 -0.1228  0.1158
 4785W        W 8849   3.977   2.750  10.810  0.1801 -0.0139 -0.2731
 4786W        W 8850   1.974   8.642   8.465  0.0647 -0.1094  0.0057
 4787W        W 8851   2.884   9.197  11.188  0.1568  0.0870  0.0476
 4788W        W 8852   2.525   8.865   2.773  0.3066  0.3022 -0.5183
 4789W        W 8853   3.303  10.015   1.263  0.0310  0.2813 -0.0510
 4790W        W 8854   6.992   3.671   2.729  0.1614  0.0980 -0.2387
 4791W        W 8855   5.587   1.860   2.006  0.1502  0.4829  0.0563
 4792W        W 8856   8.102   9.961   0.448  0.0434  0.0306  0.2135
 4793W        W 8857   5.506   2.360   1.782 -0.1571 -0.3567 -0.0816
 4794W        W 8858   1.012  10.526   1.797  0.2705  0.2779 -0.0921
 4795W        W 8859   7.723   4.298   9.327 -0.2416 -0.0572  0.1463
 4796W        W 8860   9.984   9.511   8.747 -0.0143  0.0232 -0.1554
 4797W        W 8861   3.878   3.516  10.291  0.0227  0.1809  0.0260
 4798W        W 8862   7.529   9.744   3.473  0.2475  0.4104 -0.0548
 4799W        W 8863   2.796   4.432   1.393 -0.3370  0.0568 -0.0373
 4800W        W 8864   8.364   6.724   1.993  0.2107 -0.0306 -0.1507
 4801W        W 8865   0.060   1.767  10.139  0.1032 -0.1180  0.2119
 4802W        W 8866   4.811   3.805   7.837  0.1164  0.2547  0.0988
 4803W        W 8867   1.513   5.636   1.453 -0.0465  0.1586  0.2013
 4804W        W 8868   4.336   9.666  10.199  0.0788  0.2548 -0.0645
 4805W        W 8869   6.125   1.557  10.131  0.2252 -0.5074 -0.1077
 4806W        W 8870   6.272   2.796   0.249 -0.0350  0.0300  0.0302
 4807W        W 8871   1.483   5.493  11.246 -0.1960  0.1738  0.0660
 4808W        W 8872   3.890  10.652   3.647 -0.0407 -0.0303  0.0138
 4809W        W 8873   9.839   2.413   2.875 -0.1420 -0.0657 -0.0091
 4810W        W 8874   8.182  10.281   0.801 -0.1824  0.0096  0.0223
 4811W        W 8875   1.633   1.475   0.512 -0.2552 -0.0408 -0.0264
 4812W        W 8876   1.799  10.036   0.270 -0.3254  0.0787 -0.0453
 4813W        W 8877   3.043   4.013   9.561 -0.0204 -0.2141  0.0667
 4814W        W 8878   4.496   5.433  10.847 -0.3718  0.0385 -0.0398
 4815W        W 8879   5.279  10.233   0.082 -0.2585  0.2260 -0.1409
 4816W        W 8880   8.424   0.630   8.402  0.0058 -0.1961  0.0047
 4817W        W 8881   5.537  10.561   8.494 -0.2728  0.0830 -0.1692
 4818W        W 8882   2.602   5.593   8.144 -0.1203  0.0078  0.0047
 4819W        W 8883   4.229   9.231   0.037  0.1617 -0.0607 -0.2231
 4820W        W 8884   5.240   6.494   0.159 -0.2671  0.0229 -0.1508
 4821W        W 8885   0.559   3.462  11.147  0.0216 -0.2019  0.1774
 4822W        W 8886   3.837   9.570   8.658 -0.2661 -0.1339  0.1065
 4823W        W 8887   8.718   3.427   8.147 -0.5995 -0.0877 -0.3731
 4824W        W 8888  10.378  10.394  10.683 -0.1821  0.1854 -0.0876
 4825W        W 8889   2.394   8.132   7.128 -0.3131  0.0477  0.5176
 4826W        W 8890   2.925   7.159   1.944  0.1232  0.0291  0.1236
 4827W        W 8891   7.095   0.922   1.380  0.2830  0.1576 -0.0793
 4828W        W 8892   5.021   0.632   3.212 -0.0105 -0.0723 -0.0632
 4829W        W 8893   6.749   2.560   7.598 -0.0111 -0.1783  0.1233
 4830W        W 8894   3.529   6.784   2.556 -0.1522  0.0458 -0.0688
 4831W        W 8895   9.687   0.656   9.792  0.0849  0.1694  0.3693
 4832W        W 8896   7.512   5.482   8.344  0.0775 -0.1899  0.0926
 4833W        W 8897   5.838   1.518   0.677  0.0600 -0.0709 -0.0647
 4834W        W 8898   6.764   8.930   1.333  0.0120  0.3187 -0.2569
 4835W        W 8899   4.149  10.045  10.555  0.0932  0.0570  0.0931
 4836W        W 8900   8.058   2.867   8.630  0.0066 -0.0224  0.1551
 4837W        W 8901   7.893   0.681  10.710 -0.1486  0.1011  0.0890
 4838W        W 8902   3.318   0.626  10.036  0.4057 -0.2004 -0.1295
 4839W        W 8903   1.329   5.273   2.072  0.1895 -0.2468 -0.2812
 4840W        W 8904   7.890   5.629   2.700  0.0513 -0.2277 -0.2091
 4841W        W 8905  10.185   6.255   0.411  0.0292 -0.0497 -0.0514
 4842W        W 8906   8.237   0.574   7.575 -0.3066  0.3052  0.0793
 4843W        W 8907   4.619   2.037  11.245 -0.1765  0.1256 -0.1450
 4844W        W 8908   8.127   0.400  11.139  0.0569  0.0258  0.0005
 4845W        W 8909   8.810   7.245   0.421  0.2112 -0.2999  0.1105
 4846W        W 8910   4.594   3.365   1.440 -0.3184  0.1279  0.0507
 4847W        W 8911   7.445   3.353  10.114 -0.0245  0.2661 -0.1409
 4848W        W 8912   6.829   9.657   1.135 -0.2693 -0.0025  0.0131
 4849W        W 8913   9.114   1.509  10.676 -0.1442 -0.2100 -0.0931
 4850W        W 8914   7.012   9.248  10.237  0.1676  0.0195 -0.0376
 4851W        W 8915   0.122   5.244  10.881 -0.2710 -0.1089 -0.0572
 4852W        W 8916   7.994   3.337   8.460 -0.1726 -0.0562  0.0213
 4853W        W 8917   9.852   2.134   0.264 -0.0378  0.1045 -0.2304
 4854W        W 8918   5.361   7.938  10.326 -0.1644 -0.0979 -0.1914
 4855W        W 8919  10.588   9.091   2.493 -0.2098 -0.1288  0.0283
 4856W        W 8920   6.575   1.470   7.842 -0.1432 -0.0758  0.4900
 4857W        W 8921   5.493   4.640   1.208  0.2383  0.1003  0.0199
 4858W        W 8922   9.482   9.882   0.185  0.1637  0.1720 -0.3060
 4859W        W 8923   2.208   4.676   1.473 -0.1447 -0.2463  0.0427
 4860W        W 8924   3.167   3.991   0.712 -0.0811 -0.0085  0.2000
 4861W        W 8925   9.906   8.941  11.183  0.1065 -0.0608  0.3864
 4862W        W 8926   2.674   9.961   1.474 -0.0490  0.1389  0.3062
 4863W        W 8927   2.906   1.109   9.252  0.0806  0.2079  0.1350
 4864W        W 8928   8.680  10.667   1.424 -0.1548 -0.1913  0.0319
 4865W        W 8929   4.553   7.811   3.324 -0.2532  0.0909 -0.1448
 4866W        W 8930   6.409   6.276   0.864 -0.0993  0.1234 -0.2669
 4867W        W 8931   8.996   5.764  10.412  0.1097  0.3568 -0.1795
 4868W        W 8932   3.127   7.414   0.490  0.0455 -0.2979  0.1188
 4869W        W 8933   6.734   7.936   2.030 -0.1415  0.1754  0.0904
 4870W        W 8934   4.104  10.418   8.464 -0.0627 -0.3018 -0.1273
 4871W        W 8935   7.448   4.455   7.570 -0.2272  0.2188  0.2037
 4872W        W 8936   2.178   8.274   0.769 -0.1733  0.2039  0.0514
 4873W        W 8937   7.947   9.010   9.124 -0.1736  0.2058  0.1628
 4874W        W 8938  10.361   0.068  10.562 -0.1259  0.2108 -0.2050
 4875W        W 8939  10.231   4.804   8.449  0.1234  0.1655 -0.1517
 4876W        W 8940  10.696   0.386   8.845  0.0935 -0.0139  0.0808
 4877W        W 8941   4.783   0.848   0.214 -0.0058 -0.1537  0.3612
 4878W        W 8942   6.853   6.216   2.149  0.0873 -0.0290 -0.2193
 4879W        W 8943   7.883   7.845   8.438  0.1313 -0.0928  0.0785
 4880W        W 8944   1.606   5.823   9.857  0.0678  0.2215 -0.2541
 4881W        W 8945   2.148   6.833   0.066 -0.1549 -0.0570 -0.1156
 4882W        W 8946   0.448  10.273   7.424 -0.2261  0.1021 -0.1207
 4883W        W 8947   6.881   3.107   2.958 -0.0277 -0.0671  0.0223
 4884W        W 8948   9.509   0.280  11.000 -0.1585  0.1072  0.0838
 4885W        W 8949   3.015   3.532   0.955 -0.1212  0.0005 -0.1715
 4886W        W 8950   5.987   4.319   2.530 -0.1298 -0.0803 -0.2223
 4887W        W 8951   9.986   1.702   9.484 -0.1993 -0.2499 -0.0738
 4888W        W 8952   4.969  10.514   9.476 -0.1946 -0.0847  0.1631
 4889W        W 8953  10.070   3.988   9.523 -0.1268  0.0081  0.2431
 4890W        W 8954   6.096  10.362   0.132  0.3078 -0.0294 -0.0768
 4891W        W 8955   8.609   0.319   2.716 -0.1753 -0.3332  0.1597
 4892W        W 8956   5.930   1.044  11.259 -0.2842  0.1564 -0.2368
 4893W        W 8957   5.448   4.383   2.787  0.1297 -0.1082 -0.4398
 4894W        W 8958   6.771   3.211   7.677  0.1875 -0.0431 -0.3538
 4895W        W 8959   3.367   8.638   1.607  0.1378  0.1311 -0.0768
 4896W        W 8960   5.748   4.922   0.874  0.2982  0.0348  0.1179
 4897W        W 8961   1.793   7.914   2.456 -0.1236  0.0286 -0.1228
 4898W        W 8962   2.788   5.320   0.423  0.2206  0.2877 -0.0664
 4899W        W 8963   5.915   8.610   1.939 -0.1369 -0.1195  0.1551
 4900W        W 8964   8.480   2.649   8.964  0.1816  0.1459  0.1272
 4901W        W 8965   0.154   4.187   0.704  0.0074 -0.3818 -0.0995
 4902W        W 8966   1.570   2.007  10.333 -0.0370  0.1629  0.1228
 4903W        W 8967   7.346   8.656   2.368  0.2029  0.1223  0.0938
 4904W        W 8968   4.811   2.055  10.814  0.0284  0.0364  0.2030
 4905W        W 8969   4.600   8.102   0.472  0.0935 -0.2052  0.1800
 4906W        W 8970   3.341   0.617   3.086 -0.2556 -0.1342 -0.2758
 4907W        W 8971   9.243   9.029   0.636 -0.2798 -0.2311 -0.2121
 4908W        W 8972   2.417   1.829   9.334  0.1371 -0.1372 -0.1156
 4909W        W 8973   0.819   6.677   7.869 -0.1521 -0.2003  0.1669
 4910W        W 8974   5.185   0.490   0.229  0.0022 -0.0723 -0.1389
 4911W        W 8975   8.757   0.424   8.717  0.0660  0.0123 -0.0189
 4912W        W 8976   3.418   2.666   8.004 -0.1061 -0.0786 -0.1549
 4913W        W 8977   5.555   1.238   8.199 -0.0748 -0.1675  0.0562
 4914W        W 8978   5.630   6.215  10.663  0.0014 -0.1189  0.1300
 4915W        W 8979   6.284   2.634   1.437 -0.1182  0.0197  0.1011
 4916W        W 8980   1.195   6.320   2.363  0.0730  0.1262  0.1764
 4917W        W 8981  10.021   2.407   8.883  0.1063  0.1314  0.1952
 4918W        W 8982   6.616   1.426   2.092  0.1283 -0.2134 -0.3900
 4919W        W 8983   9.082   3.777  11.133  0.2041  0.1247  0.4917
 4920W        W 8984   1.178   8.740   0.682  0.0034  0.1487  0.0217
 4921W        W 8985  10.665   5.035   8.261  0.0357 -0.2456  0.4121
 4922W        W 8986   1.382   0.608   1.290  0.0721 -0.0846 -0.3639
 4923W        W 8987   7.505   9.747   2.792 -0.0352  0.0948 -0.0850
 4924W        W 8988   6.393   7.046   8.460  0.0178  0.1137  0.0107
 4925W        W 8989   3.794   1.100   1.085 -0.2119 -0.2633  0.2759
 4926W        W 8990   9.871   5.864   8.785  0.3365 -0.1571  0.1204
 4927W        W 8991   6.360  10.748   1.524  0.2687 -0.1664  0.0934
 4928W        W 8992   9.463   7.799   1.969 -0.1348  0.1095  0.2357
 4929W        W 8993   6.865   9.981   8.742  0.0451  0.2348 -0.0646
 4930W        W 8994   0.832   8.564   7.790 -0.1260  0.2467 -0.2249
 4931W        W 8995   4.612   6.118   9.518  0.2046 -0.1220  0.1516
 4932W        W 8996   9.044   5.960   8.156 -0.1459 -0.0094 -0.1254
 4933W        W 8997   6.515   0.919   2.094 -0.4391 -0.0589  0.1291
 4934W        W 8998   4.674   0.474   0.540  0.0566  0.1472  0.0969
 4935W        W 8999   0.600   9.367   3.391  0.1371 -0.0974 -0.0210
 4936W        W 9000   1.672  10.601  10.299 -0.2003 -0.1971  0.0448
 4937W        W 9001   2.577   0.013   7.863  0.3021 -0.0524 -0.0765
 4938W        W 9002   1.499   2.079   9.146 -0.1575 -0.2538 -0.1422
 4939W        W 9003   4.252   6.469   0.246  0.1201  0.1495 -0.0747
 4940W        W 9004   1.816   6.001   1.319  0.1021 -0.3421  0.2500
 4941W        W 9005   1.246   0.936   0.535  0.3004 -0.3026 -0.1243
 4942W        W 9006   6.340   8.744   1.702  0.0497 -0.0049 -0.1276
 4943W        W 9007   9.468   1.669   2.064 -0.0261  0.3193  0.0645
 4944W        W 9008   2.918   4.824   3.075  0.1849 -0.1848  0.0507
 4945W        W 9009   4.851   4.075   8.739 -0.1580 -0.1329  0.1976
 4946W        W 9010   1.334   7.157   3.536  0.1740  0.0365  0.0960
 4947W        W 9011   7.716   7.293  10.676 -0.1291  0.0816 -0.1107
 4948W        W 9012  10.575   2.014   2.903  0.3665 -0.0907 -0.0881
 4949W        W 9013   8.287   4.310   9.111 -0.1124 -0.1352 -0.2603
 4950W        W 9014   7.507   2.699  10.933 -0.3472  0.0313 -0.1646
 4951W        W 9015   7.774   3.402   9.745  0.3439 -0.0362  0.0327
 4952W        W 9016   9.153   6.394   1.075  0.0889  0.0142 -0.0832
 4953W        W 9017   5.950   0.240   1.699 -0.4308  0.0583  0.2314
 4954W        W 9018   0.934   8.864   8.416 -0.0717  0.0690  0.0581
 4955W        W 9019   6.868   1.105   2.426 -0.3298 -0.3109  0.1538
 4956W        W 9020   7.867   3.886   0.219  0.0230  0.0113 -0.0779
 4957W        W 9021   0.212   9.882   8.078 -0.3700  0.2302 -0.4080
 4958W        W 9022   4.838  10.053  11.158  0.1039  0.3148 -0.2165
 4959W        W 9023   6.789   6.745   9.329 -0.0384  0.0001  0.0923
 4960W        W 9024   1.299   9.557   1.338  0.1544  0.2519  0.1794
 4961W        W 9025   4.744   8.147   8.099 -0.1017 -0.0036  0.0208
 4962W        W 9026   4.101   0.847   9.900 -0.3216 -0.0168  0.2281
 4963W        W 9027   1.989   2.244  10.136  0.2557  0.2235 -0.0693
 4964W        W 9028   2.962   7.324   8.143  0.0197  0.0531  0.1692
 4965W        W 9029   2.556   4.818   8.375  0.0056  0.1221 -0.0925
 4966W        W 9030   1.565   4.070   8.391  0.0770 -0.0516  0.0419
 4967W        W 9031   4.882   9.784   0.247 -0.0382 -0.4152 -0.2788
 4968W        W 9032   3.877  10.052   1.195  0.3115  0.0685  0.1863
 4969W        W 9033   1.202   0.690   8.710  0.1513  0.2619  0.2098
 4970W        W 9034   6.313   4.449   9.797  0.1075 -0.2464  0.0654
 4971W        W 9035   2.546   4.265   8.454 -0.0761  0.1870 -0.0013
 4972W        W 9036   8.210   1.950   9.331 -0.0033 -0.0859  0.2469
 4973W        W 9037   5.983   2.194   1.679 -0.1582  0.0203  0.1140
 4974W        W 9038   4.203   1.300   1.275 -0.1090  0.0116  0.0677
 4975W        W 9039   7.775   4.752   2.320  0.2216 -0.1986 -0.3686
 4976W        W 9040   7.800  10.531   1.141 -0.0296  0.0143  0.0684
 4977W        W 9041   9.211   4.937   8.543  0.1031 -0.0437  0.0947
 4978W        W 9042   0.840   6.810  10.310  0.3925 -0.3258 -0.0192
 4979W        W 9043  10.266   9.066   8.563 -0.0242 -0.2729  0.0288
 4980W        W 9044   5.604   8.930   1.647  0.3665 -0.0930 -0.2579
 4981W        W 9045   0.626   6.225  10.315  0.0987  0.0935  0.0797
 4982W        W 9046   4.920   6.486   1.252 -0.0882 -0.1382 -0.1809
 4983W        W 9047   7.284   2.201   2.159 -0.1044 -0.0501 -0.0107
 4984W        W 9048   9.589   4.053   0.055 -0.0704  0.0366 -0.3313
 4985W        W 9049   9.188   3.167   0.030  0.1925 -0.6122  0.1125
 4986W        W 9050   9.810   9.020   8.706  0.2551 -0.3199  0.1550
 4987W        W 9051   2.377   8.014   8.008  0.0686 -0.0096  0.1100
 4988W        W 9052   6.550  10.223   6.990 -0.0928 -0.0923  0.3276
 4989W        W 9053   4.215   2.251   7.607  0.2001 -0.4649 -0.0119
 4990W        W 9054   7.237   5.058   9.048  0.1480  0.1804 -0.0493
 4991W        W 9055   5.106   0.827   0.770 -0.3334  0.2064 -0.1673
 4992W        W 9056   5.380  10.294   1.592  0.1180 -0.0566 -0.0428
 4993W        W 9057   8.920  10.761   2.449 -0.3237 -0.2115  0.2174
 4994W        W 9058   0.940   5.065   0.806  0.0227  0.6542  0.0740
 4995W        W 9059   0.907   7.616  10.841 -0.1192  0.1998 -0.1871
 4996W        W 9060   7.766   1.686   9.484  0.0963 -0.0100 -0.1474
 4997W        W 9061   4.365   0.915   2.063 -0.1272  0.0881 -0.1725
 4998W        W 9062   0.284   9.792   9.347  0.1168 -0.0525 -0.0324
 4999W        W 9063   2.812   8.115   2.183 -0.1627  0.0420 -0.1251
 5000W        W 9064   8.845   0.546   9.789  0.0403  0.1615 -0.0124
 5001W        W 9065   6.748   2.696   3.306 -0.2417 -0.2619  0.1506
 5002W        W 9066   1.560   2.862   0.182 -0.2129  0.1431  0.0762
 5003W        W 9067  10.404  10.022   9.948 -0.4007  0.0136  0.0507
 5004W        W 9068   0.438   8.976   0.582  0.0425  0.1407  0.0677
 5005W        W 9069   7.564  10.374   0.200  0.0570  0.1341  0.0978
 5006W        W 9070   2.736   1.891   2.997  0.1329  0.0367  0.0514
 5007W        W 9071   3.249   8.638  10.338 -0.3723 -0.2802 -0.2585
 5008W        W 9072   0.347   7.182   8.527  0.0095  0.1052  0.2839
 5009W        W 9073   4.415   2.648   7.955 -0.0509  0.0844  0.1910
 5010W        W 9074   8.702   4.513   1.159 -0.1269 -0.0335  0.2083
 5011W        W 9075   4.088   8.145   7.186  0.0269  0.2863  0.1216
 5012W        W 9076   0.389   6.760  10.644  0.0237 -0.1789 -0.1551
 5013W        W 9077   3.995   4.696   2.872  0.0362 -0.1490  0.0544
 5014W        W 9078   7.469   7.176  10.208 -0.3369  0.0332 -0.3081
 5015W        W 9079   9.004   2.448   8.781 -0.2935 -0.0147  0.0903
 5016W        W 9080   2.413   3.468   7.511  0.0784  0.0874  0.2023
 5017W        W 9081   7.256   4.899   2.012  0.1263 -0.1373 -0.1674
 5018W        W 9082   1.115   7.125   7.659 -0.1124  0.1338 -0.1226
 5019W        W 9083   4.634   9.320   9.871  0.1539 -0.0087 -0.0576
 5020W        W 9084   2.370   2.730  10.638  0.0426 -0.1649 -0.0430
 5021W        W 9085   1.446   4.039  10.515  0.0455 -0.1920 -0.0000
 5022W        W 9086  10.257   2.235  11.167  0.0160 -0.3809  0.1799
 5023W        W 9087   1.220   7.977  10.849  0.2563 -0.1668  0.0674
 5024W        W 9088   9.263   1.985   8.748 -0.3221  0.1086 -0.0262
 5025W        W 9089  10.661   1.617   8.779  0.0682 -0.0470  0.0119
 5026W        W 9090   8.620   0.924   7.498 -0.1582  0.0267  0.1124
 5027W        W 9091   9.877   3.540   9.729 -0.0905 -0.0222  0.1036
 5028W        W 9092   4.213   4.789   2.438  0.2445 -0.2803 -0.1537
 5029W        W 9093   6.976   7.185  11.169 -0.0826 -0.2878 -0.1306
 5030W        W 9094   0.180  10.201   2.180  0.0051  0.0356 -0.0469
 5031W        W 9095   0.289   5.556   9.330 -0.1055 -0.0212  0.0654
 5032W        W 9096   1.593   5.272   7.983  0.2133 -0.0884  0.0189
 5033W        W 9097   7.352   6.294   1.129 -0.0385  0.0412 -0.0326
 5034W        W 9098   5.732   0.259   8.438 -0.2851  0.1325 -0.1576
 5035W        W 9099   4.011   3.992   0.507  0.1216 -0.1386 -0.0019
 5036W        W 9100   5.372   4.504   0.169 -0.1595 -0.0945 -0.2880
 5037W        W 9101   5.493   7.367   0.254 -0.1479 -0.0542  0.1082
 5038W        W 9102   0.480   6.490   2.711 -0.1317 -0.0470 -0.1804
 5039W        W 9103   7.108   3.025  10.062  0.1363  0.0805  0.0252
 5040W        W 9104   0.482   3.312   8.717  0.0218 -0.0243  0.0727
 5041W        W 9105   8.873   1.663   9.712  0.2487  0.1401  0.1231
 5042W        W 9106   5.847   6.601   9.841 -0.0819 -0.0267  0.1947
 5043W        W 9107   2.939   3.077   1.310 -0.2079 -0.2593 -0.0189
 5044W        W 9108   9.898   0.395   2.004  0.2112  0.2641  0.2142
 5045W        W 9109   2.392   6.733   1.824  0.0163 -0.0010  0.1731
 5046W        W 9110   7.041   1.674   2.297  0.0387 -0.1740  0.0649
 5047W        W 9111   4.724   6.045   1.293 -0.1998 -0.6296  0.1981
 5048W        W 9112   8.958   2.997   1.914  0.0489 -0.1157 -0.2766
 5049W        W 9113   1.605   4.355   1.701 -0.1854 -0.1544 -0.1836
 5050W        W 9114   2.765   7.868   8.264 -0.1413  0.2130 -0.3519
 5051W        W 9115   0.558   5.981   9.911 -0.1051  0.0477 -0.2605
 5052W        W 9116   1.480   8.203   9.581 -0.0721 -0.0230  0.1791
 5053W        W 9117   3.605   3.955   3.759  0.0113  0.3375 -0.0207
 5054W        W 9118   9.257   2.466   2.578  0.0168  0.0053  0.2284
 5055W        W 9119   5.350  10.674  10.639 -0.1010 -0.0915 -0.2164
 5056W        W 9120   6.438   3.866   9.747  0.0334  0.0049  0.0985
 5057W        W 9121   6.283   4.037   7.591 -0.1305 -0.2335 -0.2119
 5058W        W 9122   0.177   5.559   2.563 -0.0788 -0.3542 -0.0655
 5059W        W 9123   6.549   5.445   9.577 -0.3181  0.0503 -0.1023
 5060W        W 9124   2.356   6.555  10.018  0.1281 -0.1651 -0.0398
 5061W        W 9125   5.003   7.288   3.655  0.1910  0.0835 -0.1219
 5062W        W 9126   2.417   8.353   8.438  0.1393 -0.0109  0.1545
 5063W        W 9127   2.273   4.579   8.721 -0.1482 -0.0049 -0.1451
 5064W        W 9128   4.887   3.060   0.930 -0.0409 -0.0631 -0.0478
 5065W        W 9129   3.767   6.113   7.565 -0.1797  0.3336 -0.2564
 5066W        W 9130   8.263   5.955  10.349 -0.3648 -0.0771 -0.4613
 5067W        W 9131   8.879   3.482   1.224  0.1868 -0.1760 -0.0221
 5068W        W 9132   4.114   4.155   0.995  0.1363 -0.1403  0.1032
 5069W        W 9133   8.777   3.374   8.803 -0.1563 -0.1099 -0.4432
 5070W        W 9134   6.554   8.398  10.704  0.2992 -0.1079 -0.1130
 5071W        W 9135   9.968   3.741   8.219  0.0150  0.0447 -0.2016
 5072W        W 9136   7.943   5.806   2.186  0.0778 -0.0856  0.1226
 5073W        W 9137   7.102   3.083   9.173 -0.2632  0.0113  0.1000
 5074W        W 9138   9.279   3.120   7.460 -0.1572  0.0492 -0.2464
 5075W        W 9139   2.742   8.855   0.239  0.1655 -0.0242  0.0055
 5076W        W 9140   8.099   5.813  10.862 -0.1083  0.4034 -0.4147
 5077W        W 9141   6.740   9.635  10.097  0.0963  0.1400 -0.2187
 5078W        W 9142   3.807   6.949   7.761 -0.0523  0.2996 -0.4605
 5079W        W 9143   7.328   2.792   2.974 -0.0214  0.2091  0.0333
 5080W        W 9144   6.741   5.946  10.557  0.0094 -0.1605  0.1496
 5081W        W 9145  10.276   0.165   1.024  0.2023 -0.3262 -0.0878
 5082W        W 9146   4.167   0.252  10.429 -0.1360 -0.1178 -0.2463
 5083W        W 9147   1.123   0.217   8.909 -0.0299 -0.1248  0.1938
 5084W        W 9148   5.794   8.491  11.147  0.1102  0.4540 -0.1436
 5085W        W 9149   5.124   2.064   8.175  0.0876 -0.3619 -0.1763
 5086W        W 9150   0.024   5.116   2.804 -0.4294  0.2984 -0.1200
 5087W        W 9151   5.131   1.773   1.732 -0.0809 -0.1686  0.2179
 5088W        W 9152   8.391   2.487   7.535  0.3869  0.0151 -0.3598
 5089W        W 9153   2.088   4.304  10.909  0.1969 -0.0281 -0.3204
 5090W        W 9154   2.802   3.669   7.708 -0.1856 -0.3519 -0.2489
 5091W        W 9155   9.237   4.563   6.988 -0.0397 -0.0289 -0.0827
 5092W        W 9156   4.671   7.869   9.369 -0.6258  0.3374 -0.1015
 5093W        W 9157   6.808   3.048   2.410  0.3922 -0.2271  0.0772
 5094W        W 9158   4.019   4.682  10.935  0.1271 -0.2919  0.0012
 5095W        W 9159   7.726   9.222   2.052  0.0939  0.0669  0.2692
 5096W        W 9160  10.243   8.409   7.939  0.2426  0.0960 -0.4480
 5097W        W 9161   8.261  10.361   7.556  0.1476  0.2527  0.1592
 5098W        W 9162   4.461   2.394   8.422 -0.0696  0.1664  0.2814
 5099W        W 9163   8.684   2.226   2.582  0.2054  0.2062  0.2172
 5100W        W 9164   8.496   0.376   2.197  0.0931 -0.3663  0.2573
 5101W        W 9165  10.765   9.221   8.585 -0.0913  0.1386 -0.2524
 5102W        W 9166  10.488   7.619  10.087  0.0022 -0.2890 -0.0320
 5103W        W 9167   4.736   9.488   2.583  0.1087 -0.0969  0.3286
 5104W        W 9168   7.695   7.650   0.421 -0.2244 -0.0314 -0.1331
 5105W        W 9169   1.858   1.688   1.492  0.0927  0.1380 -0.1050
 5106W        W 9170   5.109   4.856   7.324 -0.4276  0.0194  0.0640
 5107W        W 9171  10.331   0.661   0.769  0.1132 -0.2160  0.2098
 5108W        W 9172   6.794   8.420   1.640 -0.3159 -0.0774  0.3889
 5109W        W 9173  10.245   3.262   8.476 -0.1953  0.0750  0.1273
 5110W        W 9174   3.739   4.390   1.253  0.0256  0.0398  0.0002
 5111W        W 9175   0.741  10.742   2.278  0.0769 -0.2152 -0.2674
 5112W        W 9176  10.191   2.425   2.036  0.3007  0.0308  0.0950
 5113W        W 9177   9.703  10.287   8.150  0.0054 -0.0830 -0.1380
 5114W        W 9178   4.718   0.924   8.790 -0.0339 -0.0863  0.0405
 5115W        W 9179   8.454   0.553   0.487 -0.1063 -0.2172 -0.1229
 5116W        W 9180   8.486   2.845   2.044 -0.1040  0.2125 -0.0254
 5117W        W 9181   7.247   4.228   7.945  0.0265  0.1250  0.0325
 5118W        W 9182   4.003   4.765   8.836 -0.0184  0.0408 -0.2680
 5119W        W 9183   6.815   1.381   1.169  0.2203  0.0885 -0.1083
 5120W        W 9184   9.690   9.042   2.459 -0.4770 -0.0099 -0.0924
 5121W        W 9185   5.887   6.588   1.209 -0.1100 -0.1825  0.2207
 5122W        W 9186   4.367   4.085   0.096 -0.1152 -0.0280  0.0259
 5123W        W 9187   8.555   7.737   2.569  0.0547 -0.0096 -0.0226
 5124W        W 9188   3.090   7.480  10.935  0.1463  0.0367  0.0851
 5125W        W 9189   7.487   9.615   2.256  0.2106 -0.3166  0.0771
 5126W        W 9190   4.990   5.395   1.791  0.2881  0.0425  0.1216
 5127W        W 9191   6.826   7.370   9.363 -0.1631 -0.1840 -0.1434
 5128W        W 9192   7.744   0.389   8.425 -0.1800  0.3399 -0.0708
 5129W        W 9193   2.439   3.984   7.485 -0.1420 -0.1995 -0.0371
 5130W        W 9194   4.318   3.518   9.506 -0.0415 -0.1855  0.1456
 5131W        W 9195   3.800  10.243   2.555 -0.0808  0.0066  0.4021
 5132W        W 9196  10.352   9.437   9.858  0.2169  0.2393 -0.0644
 5133W        W 9197   0.001   3.254   1.559  0.2705 -0.0242 -0.0332
 5134W        W 9198   4.505   8.543   1.882  0.1628  0.3190  0.3158
 5135W        W 9199   5.901   6.911  11.054  0.1461 -0.2351 -0.0764
 5136W        W 9200   0.637   6.239   8.043 -0.0267  0.0668 -0.1849
 5137W        W 9201   2.268   7.675   7.025  0.1229  0.0176 -0.1704
 5138W        W 9202   9.530   0.458   0.361 -0.3861  0.0893 -0.2320
 5139W        W 9203   1.891   2.871   0.525  0.0426 -0.3169 -0.0065
 5140W        W 9204  10.431   3.063   2.755 -0.1084  0.0357 -0.1641
 5141W        W 9205   1.557   8.554  10.222 -0.1103  0.0606 -0.1979
 5142W        W 9206   4.569   0.676  10.767 -0.1008 -0.2140  0.0873
 5143W        W 9207   6.645   2.437   1.730  0.1268  0.1021  0.1117
 5144W        W 9208   7.530   7.951   1.724  0.0111 -0.1992 -0.1994
 5145W        W 9209   1.362   7.876   6.863  0.1037  0.0431 -0.3102
 5146W        W 9210   9.161   5.491   9.361 -0.1113  0.0744  0.1168
 5147W        W 9211   6.797   2.080  11.048  0.2704 -0.0646 -0.1577
 5148W        W 9212   1.941  10.264  11.155  0.1155  0.2811  0.0163
 5149W        W 9213   4.987   3.694   2.599 -0.1493  0.3238 -0.0669
 5150W        W 9214   3.022   2.530   0.558 -0.0707  0.2279  0.0845
 5151W        W 9215   0.133   3.016   2.663 -0.0952 -0.2290  0.2399
 5152W        W 9216   8.057   0.088   0.885  0.1928 -0.0425  0.1135
 5153W        W 9217   3.432   4.697  10.853 -0.0152  0.0732 -0.1269
 5154W        W 9218   8.100   1.307   1.868 -0.1504 -0.1067  0.0860
 5155W        W 9219   9.426   0.707   2.915 -0.0886 -0.1350  0.2321
 5156W        W 9220   5.544   2.754   7.160  0.0123 -0.2121  0.1488
 5157W        W 9221   4.867   0.650  10.257  0.0790 -0.0731 -0.0591
 5158W        W 9222   5.454  10.380   1.114  0.1141 -0.0035  0.1843
 5159W        W 9223   3.107   5.944   2.410  0.1541  0.3794 -0.0214
 5160W        W 9224   4.132   9.121   8.779 -0.1413 -0.1367  0.1115
 5161W        W 9225   7.920   5.170   9.732  0.2220 -0.0298  0.1196
 5162W        W 9226   0.406   6.613   8.795 -0.0317  0.1780  0.2015
 5163W        W 9227   6.483   5.689   8.028  0.1909 -0.0534  0.0209
 5164W        W 9228   9.695   2.258  10.695 -0.0687  0.1863 -0.2804
 5165W        W 9229   7.129   6.046   2.518 -0.0732 -0.2007  0.0136
 5166W        W 9230   8.735   4.029   0.084  0.3744  0.0939 -0.0471
 5167W        W 9231  10.598   2.785  10.680 -0.0794 -0.2885  0.1874
 5168W        W 9232   7.831   5.383  10.991  0.1185  0.3538 -0.0594
 5169W        W 9233   8.328   6.764   9.958  0.2400  0.0088  0.2158
 5170W        W 9234   1.320   2.872  10.935 -0.1451  0.1502  0.1378
 5171W        W 9235   3.664   5.892   9.845 -0.1312  0.1472  0.1568
 5172W        W 9236   9.384   5.123   8.989  0.0724 -0.1086  0.1093
 5173W        W 9237   9.927   0.941   2.592 -0.0073 -0.0793 -0.1774
 5174W        W 9238   7.917   8.709   8.307  0.2910  0.0036  0.3539
 5175W        W 9239   1.190   8.817   6.928  0.0259 -0.0990  0.0621
 5176W        W 9240   0.993   7.724   7.628 -0.0969  0.1085 -0.2494
 5177W        W 9241   1.932   5.061   0.684  0.0727 -0.4677  0.2734
 5178W        W 9242   8.065   4.696   9.450 -0.1367 -0.2308 -0.1742
 5179W        W 9243   8.214   7.062   8.960  0.1354  0.0257  0.4453
 5180W        W 9244   0.210   7.518   2.067  0.4393 -0.2761  0.0743
 5181W        W 9245   8.865   7.791   8.484  0.0806 -0.1278 -0.0500
 5182W        W 9246   0.060   8.377   9.332 -0.3266  0.0864 -0.2222
 5183W        W 9247   5.228   2.218  10.675 -0.1121 -0.1949  0.1829
 5184W        W 9248   5.242   3.878  10.462 -0.1249  0.2971  0.3496
 5185W        W 9249   7.613   4.767   9.705 -0.1031  0.2922  0.0367
 5186W        W 9250   4.179   1.758   2.834 -0.0873 -0.0134  0.0036
 5187W        W 9251   1.598   7.181   8.391 -0.0590  0.0314  0.0589
 5188W        W 9252   8.103  10.630  10.147  0.0998  0.0158  0.1494
 5189W        W 9253   3.607   5.602   3.057  0.2360  0.1483  0.2112
 5190W        W 9254   1.345   1.860  10.709 -0.2207  0.1682 -0.2331
 5191W        W 9255   3.330   8.264   3.690  0.4680  0.0598  0.0870
 5192W        W 9256   5.896   7.133   0.688  0.2884 -0.3582  0.1921
 5193W        W 9257   8.487   8.026   3.385 -0.2221  0.0785 -0.0583
 5194W        W 9258   1.548   6.284  10.125 -0.1497 -0.2001 -0.2791
 5195W        W 9259   4.514   0.889   8.292  0.4089 -0.6391  0.1907
 5196W        W 9260   8.468   3.159   2.511 -0.0292  0.3761 -0.1247
 5197W        W 9261   8.254   6.651   9.308 -0.3365 -0.0223  0.2840
 5198W        W 9262   1.433   9.970   9.686 -0.0349  0.0686 -0.3776
 5199W        W 9263   4.414  10.528   3.540 -0.1510 -0.2676  0.0799
 5200W        W 9264   0.003   3.524   3.468 -0.1388  0.1079 -0.1140
 5201W        W 9265   6.087   4.242   1.958  0.1867  0.2835  0.1381
 5202W        W 9266   6.090   5.010   0.064 -0.0406 -0.2679  0.0048
 5203W        W 9267   4.156   4.228  10.986  0.0858  0.2253 -0.0179
 5204W        W 9268   0.443   7.965   1.849  0.0148  0.0356 -0.0719
 5205W        W 9269   3.330   6.094   1.130  0.2100  0.1397  0.1693
 5206W        W 9270   6.442   5.389  10.532 -0.0879 -0.3150 -0.0390
 5207W        W 9271   2.308   6.579   8.154  0.1922  0.0177  0.1715
 5208W        W 9272   6.194   6.646   2.125  0.1180 -0.1213 -0.4005
 5209W        W 9273  10.185   1.035   9.364 -0.0222  0.4214  0.3779
 5210W        W 9274   0.146  10.161  10.345  0.2406  0.0185  0.1522
 5211W        W 9275   7.940   9.774   8.738  0.1827 -0.0325  0.2168
 5212W        W 9276   4.819   3.119   2.692 -0.1069 -0.1939 -0.3237
 5213W        W 9277  10.240   0.725   1.693  0.1314 -0.2288 -0.0867
 5214W        W 9278   5.890  10.634   1.335  0.0902 -0.2123  0.2099
 5215W        W 9279   7.116   8.568   1.949 -0.0294 -0.1740 -0.0341
 5216W        W 9280   9.101  10.316   8.178  0.0114  0.0192 -0.0245
 5217W        W 9281   6.412   1.930  10.099 -0.4068  0.0771  0.1684
 5218W        W 9282   2.644   3.123   2.224 -0.0289 -0.2150 -0.2541
 5219W        W 9283   7.515   2.397   8.190 -0.0972  0.0332  0.0491
 5220W        W 9284   2.504   4.028   1.224 -0.0104 -0.2271  0.1443
 5221W        W 9285   3.422   1.164   2.440 -0.1169 -0.0537  0.0407
 5222W        W 9286   3.954   2.661   2.409 -0.0721 -0.0526 -0.0870
 5223W        W 9287   5.963   4.724   9.480  0.0739 -0.2333 -0.4016
 5224W        W 9288  10.216  10.602   9.713 -0.2453  0.0044  0.2660
 5225W        W 9289   5.748   3.305   1.192  0.4615  0.0986  0.1193
 5226W        W 9290   7.339   7.562  10.966 -0.0173  0.0933  0.0660
 5227W        W 9291   7.877   6.324   7.433  0.0327 -0.1296 -0.4010
 5228W        W 9292   6.917   2.167   2.470  0.1327  0.0096 -0.0010
 5229W        W 9293   6.177   8.865   1.157 -0.2578  0.3563 -0.2603
 5230W        W 9294   7.022   3.003  10.653 -0.3098  0.0309  0.1787
 5231W        W 9295   6.560   1.500   9.852 -0.2974  0.0571  0.0905
 5232W        W 9296   0.178   7.321  11.201 -0.0877 -0.2878 -0.0680
 5233W        W 9297   8.009   0.194   2.241 -0.0533  0.2653  0.0451
 5234W        W 9298   8.714   4.352   1.637  0.0433  0.1094 -0.1620
 5235W        W 9299   2.167   1.025   1.305 -0.1048 -0.1357 -0.6125
 5236W        W 9300   5.117   7.147  10.733 -0.1738  0.1348 -0.0593
 5237W        W 9301   9.450   3.368   2.417 -0.0130  0.2282 -0.0205
 5238W        W 9302   4.511  10.596   1.297  0.1188 -0.0960 -0.0592
 5239W        W 9303   0.132   6.291  10.457 -0.0720  0.0247 -0.0963
 5240W        W 9304   4.888   1.452   1.462 -0.1505 -0.0818 -0.1470
 5241W        W 9305   1.430   3.169   9.633  0.1110  0.1357  0.2679
 5242W        W 9306   1.177   5.194   3.049 -0.0746  0.0467 -0.0998
 5243W        W 9307   1.322   0.924   9.652  0.0747 -0.1430 -0.0913
 5244W        W 9308   9.380   5.516   0.390  0.0327  0.0557  0.0300
 5245W        W 9309   3.387  10.012   7.796  0.1704 -0.0007  0.2328
 5246W        W 9310   2.442  10.770   1.882  0.0384 -0.2901  0.0235
 5247W        W 9311   0.738   9.728  10.782 -0.1371 -0.3331  0.0837
 5248W        W 9312   7.192   0.366   8.997  0.0377  0.0209 -0.0276
 5249W        W 9313   1.285  10.760  10.896  0.0979  0.1062  0.3705
 5250W        W 9314   3.950   3.882   8.584 -0.2315 -0.4158  0.0232
 5251W        W 9315   3.530   3.278   0.822 -0.3043  0.1764 -0.1154
 5252W        W 9316   4.170   8.384  10.441  0.2976  0.0627  0.1997
 5253W        W 9317   3.465   6.326  11.150 -0.3789 -0.0338  0.2122
 5254W        W 9318   3.348   9.331   3.599 -0.0435  0.1729  0.0299
 5255W        W 9319   4.692   1.971   0.921  0.2116 -0.0705  0.2278
 5256W        W 9320  10.524   4.995   7.259 -0.1345  0.0062  0.1376
 5257W        W 9321   3.227   3.269  10.313 -0.0320 -0.1070 -0.1158
 5258W        W 9322   3.685   8.280  10.528  0.1939 -0.0864  0.1849
 5259W        W 9323   3.660   7.751   0.395 -0.3305  0.0927 -0.0571
 5260W        W 9324   8.111   7.034   9.567 -0.1266  0.1025  0.2072
 5261W        W 9325   6.152   9.939  11.151 -0.1269  0.2538 -0.2155
 5262W        W 9326   6.695   2.017   2.016  0.0284 -0.0348  0.1956
 5263W        W 9327   8.388   8.084   8.838  0.0057  0.0573 -0.1735
 5264W        W 9328   0.609   9.475   8.594  0.3263 -0.3073 -0.4026
 5265W        W 9329  10.167   0.321   7.959 -0.1440 -0.1401  0.2503
 5266W        W 9330   3.658   3.248   9.133 -0.0363  0.0314  0.1575
 5267W        W 9331   2.474   5.570  10.428 -0.0340 -0.0306 -0.1350
 5268W        W 9332   9.017   5.449   1.022  0.0656  0.1107 -0.0788
 5269W        W 9333   2.575   3.915   8.782  0.3028  0.0499  0.0671
 5270W        W 9334   8.602   6.751   2.951  0.1398  0.1126 -0.0475
 5271W        W 9335   7.993   8.626   0.055 -0.0600  0.0725 -0.2583
 5272W        W 9336   5.746   9.488   9.055 -0.5617  0.1981  0.1066
 5273W        W 9337   0.592   8.573   7.360 -0.3109 -0.0925  0.1070
 5274W        W 9338   9.155   6.936   2.606  0.0834  0.0219  0.0586
 5275W        W 9339   4.044   9.242   0.822  0.2287 -0.0957  0.1049
 5276W        W 9340  10.031   7.547   0.036 -0.0889  0.1434 -0.0255
 5277W        W 9341   9.954   9.882   2.386  0.1796  0.0018  0.0204
 5278W        W 9342   0.045   7.887   9.845 -0.1370  0.2881  0.2305
 5279W        W 9343   0.088   3.164   1.083 -0.2956  0.3925 -0.2184
 5280W        W 9344   9.875   0.186   9.792 -0.0962 -0.3025 -0.1651
 5281W        W 9345   7.886   0.420  10.128 -0.0751  0.0024  0.0244
 5282W        W 9346   9.286   2.219   1.186 -0.1905  0.3319  0.3021
 5283W        W 9347   4.401   2.291   3.714  0.0969 -0.2738 -0.0225
 5284W        W 9348   5.410   2.698   9.483 -0.0564 -0.0835  0.3060
 5285W        W 9349   5.725   7.650   9.129 -0.0295 -0.3423  0.1863
 5286W        W 9350   8.585   3.978  10.474 -0.1528  0.0914 -0.0408
 5287W        W 9351   2.673   9.042   7.888 -0.1974 -0.0071 -0.2268
 5288W        W 9352   5.775   4.351  10.113  0.1733 -0.2431 -0.4753
 5289W        W 9353   1.567   1.615   8.980 -0.1836  0.0499 -0.2509
 5290W        W 9354   0.762   1.158   0.832 -0.0586 -0.2491 -0.1285
 5291W        W 9355   1.121   9.635   9.520 -0.0705  0.0335 -0.0305
 5292W        W 9356  10.518   7.550   1.783 -0.1755 -0.2040 -0.1556
 5293W        W 9357   4.665   7.459   2.690 -0.2142 -0.1138  0.0716
 5294W        W 9358   7.573   6.746   6.912  0.1546  0.0822 -0.6714
 5295W        W 9359   5.742   7.485   2.806  0.0666 -0.3267  0.1098
 5296W        W 9360   9.207   8.246   8.659  0.2872  0.1434  0.0917
 5297W        W 9361   8.342   2.748   8.084 -0.1463  0.0192  0.1466
 5298W        W 9362   2.275   3.760  10.860 -0.2482 -0.2454  0.1261
 5299W        W 9363   0.604   3.023   2.359  0.2000  0.3199 -0.0067
 5300W        W 9364   7.702   5.741  10.439  0.0071  0.0855 -0.0945
 5301W        W 9365   4.890   7.976  10.438  0.0913 -0.1089 -0.3616
 5302W        W 9366   5.574   8.348  10.270 -0.1789  0.0706  0.0556
 5303W        W 9367   4.668   9.457   1.631 -0.0481 -0.2071 -0.0943
 5304W        W 9368   3.890   5.130   1.292  0.2115  0.2107 -0.0580
 5305W        W 9369   6.532  10.111  10.125 -0.1475  0.1672 -0.0891
 5306W        W 9370   3.568   0.688   3.545  0.2196 -0.2776  0.2004
 5307W        W 9371   7.491   2.830   2.374 -0.0730 -0.1809  0.0722
 5308W        W 9372   1.715   1.140   1.462  0.1952 -0.1139  0.0235
 5309W        W 9373   5.397   6.745   8.883  0.3090 -0.2420  0.1870
 5310W        W 9374   7.291   0.489   1.092 -0.2678 -0.1551  0.0752
 5311W        W 9375   1.825   6.314   1.746  0.3537 -0.1430 -0.1850
 5312W        W 9376   0.594   0.247   9.835  0.0760 -0.0409 -0.0695
 5313W        W 9377   5.013   5.013   9.760 -0.2608  0.0674 -0.2163
 5314W        W 9378   9.340  10.164   9.295  0.1190 -0.0687  0.1341
 5315W        W 9379   0.364  10.285   1.151  0.0865  0.0261 -0.0992
 5316W        W 9380   1.165   2.054   7.202 -0.1438 -0.0411  0.2644
 5317W        W 9381  10.436   6.057   7.886  0.1633 -0.1948 -0.1245
 5318W        W 9382   7.058   9.301   1.604  0.0059  0.0520  0.1976
 5319W        W 9383   0.470   6.300  10.913 -0.1851  0.0893  0.0559
 5320W        W 9384   0.868   5.222  10.254 -0.1490 -0.0824 -0.0917
 5321W        W 9385   6.585   9.719   9.547 -0.1282  0.0530 -0.1385
 5322W        W 9386   2.090   5.492   8.093 -0.1971 -0.0715  0.1765
 5323W        W 9387   9.223   1.053   1.471  0.2132 -0.1401 -0.0912
 5324W        W 9388   4.099   2.771   2.892  0.0423 -0.0233  0.0870
 5325W        W 9389   6.789   6.040   6.839  0.2493  0.1464  0.2166
 5326W        W 9390  10.332   5.591   8.698 -0.2157  0.0781  0.1250
 5327W        W 9391   6.140   4.279  10.611 -0.0460  0.0982  0.0179
 5328W        W 9392   3.398   9.244  11.112 -0.3029 -0.0901  0.0606
 5329W        W 9393   8.838   1.226   9.230  0.0570 -0.1003 -0.0974
 5330W        W 9394   5.012   1.419  10.786 -0.0988  0.2549 -0.2425
 5331W        W 9395   6.801   4.517   0.252  0.0948  0.1494 -0.1563
 5332W        W 9396   0.501  10.486   1.945  0.2216  0.2375 -0.0810
 5333W        W 9397   0.749   1.782   0.768  0.1324 -0.0995 -0.2018
 5334W        W 9398   4.011   1.885  10.195  0.0476  0.1273  0.2578
 5335W        W 9399  10.761   0.970   1.024  0.0707  0.0410  0.0226
 5336W        W 9400   1.391   3.692   0.941 -0.0144 -0.0293  0.2799
 5337W        W 9401   4.351   2.613   8.825 -0.0192 -0.2795 -0.4800
 5338W        W 9402   2.451   0.257  10.460  0.2125 -0.0358 -0.1158
 5339W        W 9403   0.518   8.100   8.001 -0.3232 -0.0964 -0.0478
 5340W        W 9404   9.628   5.984   2.889 -0.0765  0.1564 -0.0775
 5341W        W 9405  10.500   2.620  11.094  0.0266 -0.0667 -0.0385
 5342W        W 9406   5.001   6.391  10.140 -0.2302  0.0316  0.0392
 5343W        W 9407   7.231   4.947  10.847 -0.3197 -0.0859 -0.3195
 5344W        W 9408   4.664   6.505   3.649 -0.0159  0.1482  0.3037
 5345W        W 9409   4.186   1.916   1.695  0.2136 -0.1158  0.2160
 5346W        W 9410   6.758   3.099   9.570  0.1004  0.1101 -0.0266
 5347W        W 9411   7.760   3.674   2.821  0.2067  0.2810 -0.3059
 5348W        W 9412   2.742   6.961  10.953 -0.4792 -0.0870 -0.0007
 5349W        W 9413   8.491   8.746   0.630  0.0555  0.1034  0.3224
 5350W        W 9414   7.106   8.815   9.993  0.1106 -0.0346 -0.3762
 5351W        W 9415   5.924   6.127   0.854  0.1978 -0.3400  0.1187
 5352W        W 9416   0.419   2.223   0.997  0.2910 -0.1657  0.1773
 5353W        W 9417  10.333   3.110   0.292  0.1179 -0.0621 -0.0755
 5354W        W 9418   0.867   1.598   8.390 -0.0334 -0.0224  0.0069
 5355W        W 9419   1.178   1.670  10.178 -0.1003 -0.0347  0.1323
 5356W        W 9420   6.082   2.106   7.298 -0.0367 -0.3073 -0.2487
 5357W        W 9421   0.236   6.453   0.819 -0.0050 -0.0261  0.0944
 5358W        W 9422   3.083   3.139   2.414 -0.2113 -0.3918  0.2359
 5359W        W 9423   9.987   2.943   2.922 -0.2925 -0.1499 -0.0788
 5360W        W 9424  10.290   1.042   0.014  0.0736  0.3765  0.0308
 5361W        W 9425   5.227   0.061   2.743 -0.2003 -0.3395 -0.3322
 5362W        W 9426   3.599  10.412   3.266  0.2262  0.2549 -0.2683
 5363W        W 9427   1.567   1.793   1.923 -0.1798 -0.0142 -0.1125
 5364W        W 9428   2.872  10.512   2.079 -0.2346  0.1554 -0.1196
 5365W        W 9429   8.733   7.273   8.264 -0.1989 -0.1266  0.0296
 5366W        W 9430   2.668   8.602   9.346  0.1141 -0.0749 -0.0502
 5367W        W 9431   2.992   5.718   8.738 -0.0984 -0.4237  0.4160
 5368W        W 9432   6.095   3.688   7.281  0.0757  0.0074 -0.0346
 5369W        W 9433   7.634   7.071   2.939 -0.2567  0.1145  0.0399
 5370W        W 9434   7.992   5.398   8.553 -0.1654 -0.0546  0.0639
 5371W        W 9435   0.398   6.920   2.374  0.2395  0.3133  0.2191
 5372W        W 9436   8.966   4.844   7.707 -0.2369 -0.1059 -0.1771
 5373W        W 9437   9.145   2.858   9.693  0.4351  0.2065 -0.5081
 5374W        W 9438   6.506   8.631   2.663  0.2484 -0.2288 -0.0163
 5375W        W 9439   8.314   9.379   0.843 -0.1705 -0.2845  0.0041
 5376W        W 9440   8.562   5.762   1.001 -0.2492  0.1370 -0.2569
 5377W        W 9441   9.515   4.587   0.899  0.2222  0.0619 -0.0330
 5378W        W 9442   1.147   2.092   1.956  0.0215  0.1429  0.0525
 5379W        W 9443   3.518   9.360   9.006 -0.1469 -0.1081  0.0502
 5380W        W 9444   1.286   5.096   2.518 -0.1130 -0.2640  0.0838
 5381W        W 9445   7.424   0.522   8.037  0.1400 -0.0662  0.2424
 5382W        W 9446   0.268   6.920   2.899 -0.0474 -0.0468 -0.0118
 5383W        W 9447   1.284  10.339   8.378 -0.0243  0.1452 -0.0444
 5384W        W 9448   3.824   2.231   0.241  0.0434  0.0640 -0.0502
 5385W        W 9449   6.349   7.003   0.624 -0.0849 -0.3914  0.0858
 5386W        W 9450   3.839   6.146  10.257 -0.0541  0.0836  0.1078
 5387W        W 9451   3.971   6.797   9.209 -0.0674 -0.1572  0.0165
 5388W        W 9452   0.078   3.836   7.907  0.0146  0.0512 -0.0430
 5389W        W 9453   8.709   2.179  10.283 -0.2282 -0.0379 -0.2100
 5390W        W 9454   1.570   9.448   8.848  0.1502 -0.2569  0.2354
 5391W        W 9455   0.536   6.023   9.020  0.1575 -0.0549  0.3752
 5392W        W 9456   3.930   1.003   2.334  0.1540 -0.0464  0.0875
 5393W        W 9457   2.486   9.368   2.975 -0.2173 -0.2561  0.2300
 5394W        W 9458  10.253   3.514   0.556 -0.1820 -0.0400  0.3199
 5395W        W 9459   2.122   5.248   2.937  0.1455  0.0071 -0.0169
 5396W        W 9460   1.133   5.611  10.030  0.2589  0.1067  0.1231
 5397W        W 9461  10.024   5.306   1.107 -0.1556  0.0004  0.1395
 5398W        W 9462   6.069   6.065   2.073 -0.0046  0.0472 -0.1564
 5399W        W 9463   8.734   8.449   8.663 -0.0466 -0.1247 -0.0326
 5400W        W 9464   3.511   6.177   2.415 -0.0166 -0.3272  0.5823
 5401W        W 9465   8.600  10.524   9.450  0.1518 -0.1981 -0.1707
 5402W        W 9466   3.912   5.953   4.029 -0.0674  0.1282 -0.2722
 5403W        W 9467   1.916   4.203  10.409 -0.0445 -0.2986 -0.3614
 5404W        W 9468   0.145   8.543   1.896 -0.2657  0.4656  0.0287
 5405W        W 9469   8.170   3.906   1.280  0.3130 -0.2638 -0.0555
 5406W        W 9470   5.583   4.403   2.213  0.0670 -0.1238  0.1337
 5407W        W 9471   5.525   4.553   0.673  0.0965 -0.0458  0.2174
 5408W        W 9472   9.684   4.989   0.623  0.1214 -0.1930  0.0360
 5409W        W 9473   3.279   4.890   2.706  0.0444  0.3017 -0.1950
 5410W        W 9474   4.308   5.175   1.038  0.2872  0.3144 -0.1153
 5411W        W 9475   4.691   1.095  11.002  0.1620  0.2590  0.0627
 5412W        W 9476   0.035  10.682   1.005 -0.0490  0.0044 -0.0558
 5413W        W 9477   1.008   2.366   8.486  0.0409  0.3245 -0.0946
 5414W        W 9478   6.947   3.723   0.527 -0.1547  0.0283  0.1725
 5415W        W 9479   0.610   5.544  10.805 -0.0203 -0.0931 -0.0386
 5416W        W 9480   3.759   9.983   3.005 -0.3321 -0.2832 -0.1942
 5417W        W 9481  10.473   0.593   1.240 -0.0025 -0.0582 -0.1370
 5418W        W 9482  10.029   7.879   8.873  0.0066 -0.0812 -0.1724
 5419W        W 9483   7.291   5.084   0.915 -0.2931  0.2479 -0.1990
 5420W        W 9484  10.548   0.648   9.903 -0.0998 -0.3220  0.0498
 5421W        W 9485   3.643  10.580  11.169 -0.1568  0.2383 -0.1684
 5422W        W 9486   3.701   8.858   8.624 -0.1093  0.2120 -0.2797
 5423W        W 9487   6.228   3.473   0.947 -0.0096  0.0175  0.0932
 5424W        W 9488   6.841   8.421   0.635 -0.2772  0.2230  0.1504
 5425W        W 9489   9.403   7.453   0.854 -0.2713  0.0682  0.3129
 5426W        W 9490   3.377   5.217   6.863 -0.2844  0.0128  0.0469
 5427W        W 9491   9.439   0.581   1.227  0.1466 -0.1195 -0.2727
 5428W        W 9492  10.189   6.770   6.910 -0.0526  0.1926  0.1137
 5429W        W 9493   3.195  10.276  10.238 -0.1856 -0.5437  0.3557
 5430W        W 9494   8.453   2.579  10.414  0.1057 -0.1463 -0.3051
 5431W        W 9495   6.010   4.142  11.053 -0.0243 -0.0208 -0.0517
 5432W        W 9496   0.054   9.353   9.648 -0.1716 -0.2602 -0.2438
 5433W        W 9497   4.592   0.115   9.582  0.2296 -0.0219 -0.0019
 5434W        W 9498   9.073   6.870   1.309 -0.0568 -0.2181 -0.1708
 5435W        W 9499   1.594   7.681   8.284  0.2930 -0.0199  0.1675
 5436W        W 9500   0.284   2.375   9.178  0.1495 -0.0297  0.0746
 5437W        W 9501   6.894   4.321   2.878  0.1906 -0.1161  0.1172
 5438W        W 9502   1.479   0.447  10.692 -0.1045 -0.2565 -0.2188
 5439W        W 9503   9.192   0.157   8.900 -0.0078 -0.0138  0.0313
 5440W        W 9504   4.058   5.023   7.452  0.3376 -0.2555  0.1509
 5441W        W 9505   6.541   4.681  10.726 -0.2317 -0.0472 -0.1588
 5442W        W 9506   2.386  10.144  10.780  0.1301  0.0414 -0.3186
 5443W        W 9507   0.220  10.296   9.139 -0.1245  0.0591  0.1537
 5444W        W 9508   7.923   4.355   1.097 -0.3674  0.0198 -0.1458
 5445W        W 9509   9.953   1.383   2.294 -0.0964 -0.0713  0.0589
 5446W        W 9510  10.678   9.873   9.067 -0.1761 -0.0964  0.1339
 5447W        W 9511   5.337   4.926   3.606 -0.0536  0.3436  0.0827
 5448W        W 9512   6.654   0.482   1.492  0.1100  0.1419 -0.0753
 5449W        W 9513   2.433   0.057   2.878 -0.1580 -0.0979  0.2097
 5450W        W 9514   9.399   7.958   0.948  0.1823  0.0207  0.0726
 5451W        W 9515  10.368   7.442  10.781  0.1487  0.0821  0.3125
 5452W        W 9516   3.697   5.499   1.896 -0.0952  0.1821  0.0354
 5453W        W 9517   0.494   3.943  10.460 -0.0293 -0.0364 -0.3951
 5454W        W 9518   4.339   4.807  10.116  0.0909 -0.1321 -0.0322
 5455W        W 9519   3.612   2.960   2.563 -0.2554  0.0443 -0.0524
 5456W        W 9520   6.027   5.345   1.028 -0.0504 -0.1386 -0.0349
 5457W        W 9521   9.266   7.575   8.256 -0.0126  0.0441 -0.1068
 5458W        W 9522   2.983   5.417   9.570 -0.1437  0.3402  0.4199
 5459W        W 9523   4.585   5.631   1.007 -0.0014  0.0845 -0.3047
 5460W        W 9524   5.072   9.687   0.685  0.4293  0.2311  0.0955
 5461W        W 9525   3.224  10.676  10.838 -0.1396 -0.0134  0.0932
 5462W        W 9526   0.855   8.356   0.929  0.0644  0.0828 -0.0488
 5463W        W 9527   5.626   1.773   9.465 -0.0785  0.2002  0.1396
 5464W        W 9528   1.106   5.462  10.651  0.1253  0.1958  0.0258
 5465W        W 9529   1.733   4.437   8.710  0.0749  0.0579  0.1745
 5466W        W 9530   1.293   4.016   3.357 -0.0967 -0.1190  0.0798
 5467W        W 9531   4.386   8.082  10.845 -0.3908  0.1615  0.0730
 5468W        W 9532   9.620  10.251   1.480 -0.1992  0.3026  0.2106
 5469W        W 9533   9.570   6.729   8.341  0.0070  0.2115  0.3286
 5470W        W 9534   3.770   6.857   9.781 -0.2211 -0.2264 -0.0302
 5471W        W 9535   4.595   9.853   0.667  0.1709  0.1044  0.1249
 5472W        W 9536   0.013   9.003  10.021 -0.1846  0.2563  0.0986
 5473W        W 9537   8.684   8.229   8.245 -0.2523  0.2202 -0.0168
 5474W        W 9538   2.157   7.288   0.470  0.0348 -0.2988 -0.0608
 5475W        W 9539   9.110   7.071   9.170  0.1353  0.0866  0.2699
 5476W        W 9540   8.716   7.198   1.516  0.0627  0.1295  0.0606
 5477W        W 9541   9.457   5.653   0.862  0.1247  0.0176 -0.1269
 5478W        W 9542   1.689   0.139   1.036  0.3024  0.1099  0.3559
 5479W        W 9543   5.965   4.464   0.966  0.1066 -0.0024 -0.0901
 5480W        W 9544   2.727   0.045   9.405  0.1566  0.0739 -0.0651
 5481W        W 9545  10.036   1.557   8.888  0.0648 -0.1048 -0.4389
 5482W        W 9546   9.968   1.058   8.890 -0.4670 -0.1902  0.0060
 5483W        W 9547   9.224   4.570   1.405  0.2475  0.1532 -0.1117
 5484W        W 9548   6.019   6.352   9.441  0.0408  0.0121  0.0493
 5485W        W 9549   8.057   0.994   7.112 -0.1783 -0.0340  0.2152
 5486W        W 9550   8.626   0.370   1.263 -0.1250 -0.0260 -0.0792
 5487W        W 9551   6.353   5.834   8.509  0.0990  0.1053 -0.2251
 5488W        W 9552   2.954   6.289   9.396 -0.1132  0.1146 -0.1199
 5489W        W 9553   3.826   2.925   8.003  0.1861 -0.1452  0.3940
 5490W        W 9554   7.210  10.658   7.602 -0.1951 -0.0597  0.3121
 5491W        W 9555   8.215   7.183   7.423 -0.0033 -0.2802 -0.1213
 5492W        W 9556   9.205   5.916   1.731 -0.2353  0.1434 -0.0867
 5493W        W 9557   8.906   8.143  10.837  0.1357  0.0921 -0.3177
 5494W        W 9558   9.485   8.614  10.374  0.1129  0.1842  0.0926
 5495W        W 9559   6.633   5.721   1.322 -0.1631  0.1019  0.0815
 5496W        W 9560   2.307   7.999   9.934 -0.1088  0.3953  0.2115
 5497W        W 9561   4.731   3.577   3.161  0.2736 -0.3405 -0.0666
 5498W        W 9562   6.657   0.090   8.264  0.0002 -0.0142  0.1699
 5499W        W 9563   8.696   9.033  10.641  0.0009  0.2810 -0.0160
 5500W        W 9564   4.478   5.179   2.014  0.4324 -0.1128  0.1014
 5501W        W 9565   1.473   5.949   9.067 -0.0466 -0.0708  0.1424
 5502W        W 9566   4.304   1.376  10.596  0.0904  0.2655 -0.2303
 5503W        W 9567   5.973   2.514   9.210 -0.0746 -0.1886  0.0816
 5504W        W 9568   4.756   1.520   3.487 -0.0348  0.0752  0.0663
 5505W        W 9569   1.751  10.178   8.392  0.1457  0.0531 -0.3677
 5506W        W 9570   9.279   8.941   1.147  0.0448 -0.0547  0.2633
 5507W        W 9571   3.320   8.399  10.899  0.0735 -0.0145 -0.0207
 5508W        W 9572   2.304   0.836  11.083 -0.0599 -0.3143  0.2079
 5509W        W 9573   9.549   2.843   0.804  0.0801  0.0585  0.0498
 5510W        W 9574   3.524   7.150   0.220 -0.1245  0.1015 -0.3176
 5511W        W 9575   0.743   8.273   9.195  0.1990  0.0855  0.0026
 5512W        W 9576   3.154   0.691   9.029 -0.1355 -0.2336  0.0053
 5513W        W 9577   0.478   3.506   3.791 -0.1544 -0.2045  0.1389
 5514W        W 9578   1.062   0.367   0.320 -0.0549 -0.1179  0.2379
 5515W        W 9579   5.765   5.625   9.707 -0.1721 -0.0990  0.0731
 5516W        W 9580   6.948  10.050  10.447 -0.2853 -0.3154  0.0215
 5517W        W 9581   4.065   7.992  11.244  0.1753  0.0780  0.2104
 5518W        W 9582   4.450   5.985   7.116  0.0879 -0.1218  0.0184
 5519W        W 9583   3.856   5.215   0.713  0.3169 -0.1818 -0.0871
 5520W        W 9584   6.190   5.512   9.981  0.1257  0.1218  0.1615
 5521W        W 9585   1.592   5.765   8.266  0.2658 -0.2165  0.0331
 5522W        W 9586   9.968   2.124   8.055  0.2469 -0.3239  0.1144
 5523W        W 9587   0.479   9.430   0.253 -0.0806 -0.0803 -0.3272
 5524W        W 9588   7.896   1.944   1.902  0.0473  0.5786 -0.3711
 5525W        W 9589   4.282   1.352   9.169 -0.2510  0.2309  0.1100
 5526W        W 9590   8.003   8.012   7.887 -0.2166 -0.0795  0.0620
 5527W        W 9591   9.814   7.378   2.204  0.0399  0.1400  0.1655
 5528W        W 9592   3.926   9.015   7.930 -0.2117 -0.2172 -0.0019
 5529W        W 9593   6.860   6.297   6.361  0.0841  0.0206  0.0366
 5530W        W 9594   5.429   8.963   2.115 -0.2569  0.1984  0.1188
 5531W        W 9595   2.450   4.662  11.075  0.5124  0.0299  0.1079
 5532W        W 9596   1.322   5.904  10.965  0.3413 -0.1262  0.2844
 5533W        W 9597   5.626   9.352   9.850 -0.4012  0.2585  0.1979
 5534W        W 9598   7.017   9.986   7.734 -0.1843  0.0705 -0.1234
 5535W        W 9599   8.122   6.867  10.704  0.1641  0.4453  0.1406
 5536W        W 9600   9.970   4.309  11.028 -0.1419  0.0480 -0.1587
 5537W        W 9601   4.385   4.133  10.146  0.0836  0.2148  0.0026
 5538W        W 9602   1.595   0.303  10.045  0.1062  0.2419 -0.2531
 5539W        W 9603   2.118   3.246  10.606  0.2067 -0.0646 -0.1526
 5540W        W 9604   0.431   4.568   9.167  0.1062 -0.2348 -0.0805
 5541W        W 9605   9.944  10.609   1.372 -0.0739 -0.0056 -0.0492
 5542W        W 9606   2.616   3.999   0.471 -0.2093  0.0389  0.2400
 5543W        W 9607   2.949   8.670   7.700 -0.0164 -0.1572  0.0363
 5544W        W 9608   5.365   9.230   0.145  0.5270  0.0767  0.1200
 5545W        W 9609   0.282   1.830   7.466 -0.1192  0.0704  0.1730
 5546W        W 9610   8.012   4.603   8.351  0.1267 -0.1088 -0.0325
 5547W        W 9611  10.721   0.714   8.455 -0.2621  0.0930 -0.1055
 5548W        W 9612   2.161   8.688   2.448  0.0382 -0.0409  0.2706
 5549W        W 9613   4.134   6.792   1.799  0.2287  0.1132  0.1588
 5550W        W 9614   0.502   4.388  10.180  0.2139 -0.1103  0.1784
 5551W        W 9615   1.639   6.821   0.900 -0.1992  0.1529  0.0779
 5552W        W 9616   2.616   3.417  10.836  0.0931 -0.0609 -0.0918
 5553W        W 9617   3.318   0.685   7.834 -0.0190 -0.1556  0.0101
 5554W        W 9618   4.339   6.239   2.978 -0.2902  0.0469  0.2808
 5555W        W 9619   7.803   8.322   2.480  0.0587 -0.2717 -0.1021
 5556W        W 9620   6.907   5.869   9.480  0.0458 -0.0759 -0.0975
 5557W        W 9621   9.461   6.107  11.263  0.2308  0.2573 -0.0108
 5558W        W 9622   7.160   8.812  11.226  0.5875  0.0747  0.2684
 5559W        W 9623   3.226   4.050   2.518  0.1239  0.0092  0.0356
 5560W        W 9624   9.315   7.420   9.435  0.1217 -0.0045  0.0039
 5561W        W 9625   7.708  10.133   2.522  0.2046 -0.1035 -0.2385
 5562W        W 9626   6.868  10.293  10.959  0.2182  0.0996  0.0270
 5563W        W 9627   7.010   1.373   3.330 -0.0497  0.2383 -0.0050
 5564W        W 9628  10.748   6.491  10.859 -0.0892 -0.0828 -0.3177
 5565W        W 9629   9.624   1.647   0.240 -0.3008 -0.0595 -0.2221
 5566W        W 9630   3.419   5.196  10.518  0.1724 -0.1093  0.2009
 5567W        W 9631   0.959   7.906   2.002 -0.1503 -0.1371 -0.2285
 5568W        W 9632   6.977   4.669   7.644  0.0689 -0.2298  0.2414
 5569W        W 9633  10.206   1.364   7.839 -0.1918  0.3057 -0.0619
 5570W        W 9634   6.599   4.924   7.327  0.1361 -0.0062  0.2148
 5571W        W 9635   3.638   3.499   3.113 -0.0260  0.2327  0.1878
 5572W        W 9636   7.956   2.779  10.449  0.2058 -0.0651  0.2371
 5573W        W 9637   8.388   5.349   8.918 -0.0699 -0.3218  0.2815
 5574W        W 9638   1.119   3.778   0.450 -0.0640 -0.0489 -0.1336
 5575W        W 9639  10.584   1.441   1.044 -0.1316 -0.3980  0.4229
 5576W        W 9640   9.856   5.445   0.561  0.0343 -0.0005 -0.3238
 5577W        W 9641   5.075   7.655   2.455  0.0350 -0.0662 -0.1094
 5578W        W 9642   5.348   0.961   2.771  0.3408 -0.0343  0.0429
 5579W        W 9643   8.477   1.312   8.864  0.0243 -0.1883  0.0774
 5580W        W 9644  10.423   3.990   8.135  0.0996  0.3660  0.3445
 5581W        W 9645   6.014   7.879   1.256  0.3167  0.0118  0.3269
 5582W        W 9646   6.798   4.117   0.005  0.0603 -0.0424  0.0322
 5583W        W 9647   4.093   1.298   9.717 -0.1777  0.0918  0.2236
 5584W        W 9648   4.382   7.679   8.460 -0.0732 -0.3715 -0.1048
 5585W        W 9649   6.228   3.073   9.826 -0.3263 -0.0307  0.3228
 5586W        W 9650  10.043   8.717   1.644  0.0605  0.1782 -0.1955
 5587W        W 9651   5.931   2.960   7.583  0.2552  0.1743  0.3439
 5588W        W 9652   4.354   0.607   0.039  0.0066  0.0381 -0.1224
 5589W        W 9653   7.220   1.320   9.006  0.0136  0.1171 -0.1459
 5590W        W 9654   8.176   4.163   8.565 -0.2057 -0.2483  0.2220
 5591W        W 9655   8.318  10.676  10.945  0.3240 -0.3861  0.1532
 5592W        W 9656   0.297   8.514   3.634 -0.0684 -0.2240 -0.1355
 5593W        W 9657   1.765   0.998   0.480  0.1259 -0.0646 -0.4364
 5594W        W 9658   3.566  10.398  10.691  0.1781 -0.0955 -0.0439
 5595W        W 9659   0.371   5.092   9.524  0.3769  0.2464 -0.3383
 5596W        W 9660   2.703   5.347   2.083 -0.0239  0.3584  0.0869
 5597W        W 9661   0.893   7.722   1.024  0.1719  0.2213 -0.3248
 5598W        W 9662   2.734   6.954   0.917 -0.4501 -0.3427  0.3309
 5599W        W 9663   3.371   1.482  10.244  0.3839 -0.1228  0.0551
 5600W        W 9664   4.911   7.935   1.459  0.2245 -0.0178  0.0021
 5601W        W 9665   7.404   9.350   3.182 -0.1180 -0.3082 -0.1910
 5602W        W 9666   7.522   8.534   9.998  0.1410 -0.2125  0.1740
 5603W        W 9667   9.968   8.199   0.974 -0.2248 -0.0305  0.1097
 5604W        W 9668   3.026   6.692   2.306 -0.1111 -0.2001 -0.5339
 5605W        W 9669   5.909  10.216   3.086  0.0246  0.0661  0.4439
 5606W        W 9670  10.183   5.991   1.673  0.0339  0.4377 -0.0892
 5607W        W 9671   0.996   3.050  11.261 -0.2432 -0.2506  0.4176
 5608W        W 9672   0.480   9.115   2.426  0.1078  0.0073  0.0234
 5609W        W 9673   9.057   3.469   2.095 -0.2124 -0.2585 -0.0984
 5610W        W 9674   0.577   6.444   9.269 -0.1845  0.0252 -0.1133
 5611W        W 9675   7.148   7.439   8.328 -0.2449 -0.2797 -0.0768
 5612W        W 9676   0.419   5.455   7.775  0.1432  0.2929  0.0817
 5613W        W 9677   5.869   2.931   1.623  0.0346  0.0405 -0.0864
 5614W        W 9678   5.727   9.417   0.561 -0.0786  0.0109 -0.2111
 5615W        W 9679   2.313   5.184   2.504  0.0178 -0.0189  0.0561
 5616W        W 9680   7.913   1.422   8.581  0.0018 -0.0969 -0.5636
 5617W        W 9681   3.599   4.254   0.747  0.3732 -0.1667 -0.1100
 5618W        W 9682   2.107   6.219   7.858 -0.0436 -0.0219 -0.1530
 5619W        W 9683   4.369   4.333   8.393 -0.2682  0.1866  0.1044
 5620W        W 9684  10.736   6.268   1.326 -0.1491  0.1193  0.2985
 5621W        W 9685  10.556   5.561  11.050  0.0126 -0.3756  0.1005
 5622W        W 9686  10.422   9.478   7.273  0.0240  0.2373  0.0467
 5623W        W 9687   4.974  10.491  10.338 -0.0067 -0.1359  0.1830
 5624W        W 9688   6.279  10.556   0.564  0.1509  0.1246 -0.1327
 5625W        W 9689   2.185   8.381  10.971 -0.1892  0.0931  0.0080
 5626W        W 9690   0.843   1.935  10.511  0.3338  0.0357  0.2165
 5627W        W 9691   7.611   7.703   2.952 -0.2365 -0.2972 -0.1604
 5628W        W 9692  10.011  10.110   9.495  0.2487  0.3168  0.1117
 5629W        W 9693  10.628   6.290  10.009 -0.1142  0.0704 -0.2187
 5630W        W 9694  10.267   8.906  10.722  0.2277 -0.1993 -0.2214
 5631W        W 9695   5.147   9.076   8.080 -0.0466 -0.0289  0.0644
 5632W        W 9696   4.396   7.756  10.460 -0.0068  0.2544 -0.0995
 5633W        W 9697   7.439   6.752   7.868  0.1787 -0.0720  0.4722
 5634W        W 9698  10.538   3.513   0.057 -0.0495 -0.1444  0.4304
 5635W        W 9699   8.710   0.020   9.014  0.2934  0.1918  0.0221
 5636W        W 9700   3.776   2.047   9.231 -0.0695  0.3636 -0.0865
 5637W        W 9701   4.443   9.242   1.227  0.2073 -0.1036  0.1025
 5638W        W 9702   6.484   1.152  10.284  0.1435  0.1840  0.3348
 5639W        W 9703   6.968   7.043   8.728 -0.1146 -0.1328  0.0578
 5640W        W 9704   3.104   7.132  11.268  0.0374  0.1149  0.0409
 5641W        W 9705   6.688   9.180   8.297 -0.1355  0.1457  0.1098
 5642W        W 9706   4.436   3.304  11.142 -0.3604  0.2098 -0.0028
 5643W        W 9707   9.784   8.615   2.098  0.3052 -0.0588  0.0670
 5644W        W 9708   4.923  10.031   9.503 -0.1452  0.3610 -0.0283
 5645W        W 9709   9.366   9.319   7.950  0.0127 -0.1500  0.0029
 5646W        W 9710   3.403   7.428   8.367  0.0629 -0.0906 -0.0754
 5647W        W 9711   3.697   3.971  10.256  0.3150  0.2200  0.0912
 5648W        W 9712   8.803   4.761   8.205 -0.1094 -0.0873  0.2593
 5649W        W 9713   8.390   5.541   2.589 -0.0626 -0.1012 -0.2207
 5650W        W 9714   8.591   3.419   1.679 -0.2512 -0.0919 -0.1504
 5651W        W 9715   8.610   9.680   7.608 -0.2692  0.1080 -0.1815
 5652W        W 9716   6.042   8.075  10.305 -0.0577  0.3379 -0.2696
 5653W        W 9717   8.576   5.864  11.183 -0.1735  0.1799 -0.0730
 5654W        W 9718   3.510   5.097   1.617  0.2040  0.0292 -0.0758
 5655W        W 9719   6.786   9.183   9.315  0.2315 -0.0772  0.2856
 5656W        W 9720   4.836   0.239   1.365  0.0022 -0.1415 -0.0710
 5657W        W 9721   1.548   4.615   9.179  0.2037 -0.4545 -0.1179
 5658W        W 9722   3.847   9.579   2.755  0.1058  0.2679  0.0725
 5659W        W 9723   8.427   6.684  11.069 -0.0037  0.4453 -0.0164
 5660W        W 9724   7.366  10.427   9.941 -0.1950  0.0693 -0.3806
 5661W        W 9725   4.361   5.533   2.604 -0.0035 -0.1075  0.0472
 5662W        W 9726   5.271   6.590  10.631 -0.0640 -0.1386 -0.1562
 5663W        W 9727   1.549   3.363   8.096  0.2703 -0.0778 -0.2051
 5664W        W 9728   5.006   6.037   0.858  0.0430 -0.0158 -0.1407
 5665W        W 9729   1.172   2.874   2.425  0.0856  0.4972 -0.3972
 5666W        W 9730  10.270   5.520  10.648  0.2679  0.2129  0.1052
 5667W        W 9731   6.078   9.259  10.224 -0.2965  0.2537  0.0398
 5668W        W 9732   4.832   0.236   2.947  0.2250  0.0362 -0.3317
 5669W        W 9733  10.141   6.848   2.426  0.1398 -0.1613  0.2211
 5670W        W 9734   1.942   5.308   7.633 -0.0788 -0.0722  0.3154
 5671W        W 9735  10.506  10.736   2.399 -0.0379  0.0444  0.0076
 5672W        W 9736   9.633   6.492   3.272  0.0076  0.1246  0.0286
 5673W        W 9737   3.353   7.229   8.906 -0.2019  0.2923  0.0094
 5674W        W 9738  10.118   6.398   3.318 -0.1176  0.4308  0.0177
 5675W        W 9739   1.800   5.771   7.801 -0.0245 -0.0192 -0.2616
 5676W        W 9740   6.595   5.894   2.620  0.2642  0.1133 -0.1121
 5677W        W 9741   1.840   7.482   8.808 -0.1614 -0.0431  0.0303
 5678W        W 9742   2.110   8.566  10.070 -0.0229  0.0191  0.0810
 5679W        W 9743   1.309   6.436  10.983 -0.0029 -0.1717 -0.3468
 5680W        W 9744   3.671   5.185   2.816  0.4022  0.3838  0.2260
 5681W        W 9745   3.182   2.701   2.685  0.1484 -0.0675 -0.2278
 5682W        W 9746   2.485   9.931   2.840  0.5077 -0.1553  0.2671
 5683W        W 9747   0.144   0.910  10.448  0.1115  0.1125  0.3407
 5684W        W 9748   3.417   6.898   2.035  0.0632 -0.0956  0.1138
 5685W        W 9749   3.519   0.974   8.224  0.0548 -0.0282  0.1346
 5686W        W 9750   1.389   4.380   2.178  0.2591 -0.0833 -0.0357
 5687W        W 9751   8.099   4.740   9.942 -0.6523 -0.0524 -0.0883
 5688W        W 9752   2.920   1.623   9.222 -0.3477 -0.1271 -0.0759
 5689W        W 9753   3.502   3.943   1.352 -0.1594 -0.1449  0.2528
 5690W        W 9754   3.076   4.328   2.917  0.0061 -0.0502 -0.3519
 5691W        W 9755   7.563   8.312   2.075  0.4495  0.1591 -0.0918
 5692W        W 9756   2.456   4.576  10.529 -0.3130  0.0749  0.1040
 5693W        W 9757   1.322   5.047   8.948  0.0297  0.0145  0.1498
 5694W        W 9758   2.250  10.006   0.519  0.1370  0.2622  0.1265
 5695W        W 9759   3.899   4.463  10.140 -0.2535  0.3000  0.0603
 5696W        W 9760   6.586  10.147   0.016  0.0950  0.3838 -0.1544
 5697W        W 9761   7.420   0.160   2.416  0.3782  0.0246 -0.1639
 5698W        W 9762   5.243   5.897   2.601  0.0963 -0.1982  0.4124
 5699W        W 9763   4.135   5.473   8.968  0.4279  0.1027  0.2420
 5700W        W 9764   8.199   5.949   8.692  0.0166  0.3176 -0.0043
 5701W        W 9765   4.855   9.698   2.043 -0.2882 -0.0986  0.1007
 5702W        W 9766   3.328   9.659   8.628 -0.2317 -0.2071  0.1830
 5703W        W 9767   0.824  10.396   8.302 -0.1603 -0.2100  0.3856
 5704W        W 9768   3.252   2.934   9.030  0.0049 -0.0280  0.0019
 5705W        W 9769   9.070   4.466   2.348  0.0178 -0.1119  0.3483
 5706W        W 9770   1.773   9.599   1.391 -0.2551  0.1979  0.0720
 5707W        W 9771   6.553   4.405   7.220  0.2592  0.3480  0.1716
 5708W        W 9772   9.618   3.004   7.114 -0.0228 -0.0919  0.0547
 5709W        W 9773   2.412   5.859   2.138  0.0617 -0.3219 -0.0881
 5710W        W 9774   5.527   5.909   8.241  0.2668  0.0814  0.1900
 5711W        W 9775   1.444   8.948  11.027 -0.0229 -0.0998 -0.1912
 5712W        W 9776   1.326   0.695   8.228  0.0001 -0.1810  0.3319
 5713W        W 9777   6.798   7.334   2.761  0.0623 -0.0906  0.1935
 5714W        W 9778   8.978   0.248   8.276  0.0003  0.0031  0.0126
 5715W        W 9779   1.558   2.016   7.524 -0.0156 -0.2688  0.2378
 5716W        W 9780   7.500   8.798   0.650  0.0083  0.2504 -0.0708
 5717W        W 9781   2.012   8.931   7.989  0.0722 -0.1324  0.0200
 5718W        W 9782   2.192   8.695   1.061  0.1845 -0.0009  0.1358
 5719W        W 9783   0.853   5.308   2.274  0.1921 -0.1134  0.3006
 5720W        W 9784   3.947   5.624   0.211 -0.1608 -0.2531 -0.2141
 5721W        W 9785   3.331  10.529   9.136 -0.2225  0.0236  0.0222
 5722W        W 9786   1.946   8.282  10.514 -0.0180 -0.0571  0.1487
 5723W        W 9787  10.023   9.348  10.757 -0.4486 -0.0450  0.0374
 5724W        W 9788   5.937  10.359   8.742  0.0970  0.2193 -0.0434
 5725W        W 9789   4.120   7.498   7.139 -0.0398 -0.2570  0.0001
 5726W        W 9790   7.854   4.315   0.041  0.3548 -0.0185  0.2112
 5727W        W 9791  10.056   5.297   8.381  0.1653 -0.0096  0.0806
 5728W        W 9792   3.083   1.195   7.797  0.1825 -0.4417 -0.2357
 5729W        W 9793   5.106   8.147   2.398 -0.2269 -0.0359  0.0063
 5730W        W 9794   0.961   4.614  10.984  0.0783 -0.3316  0.2908
 5731W        W 9795   3.295   2.677   2.184  0.0162  0.0678  0.3428
 5732W        W 9796   8.295   7.692  11.066 -0.0677  0.0932 -0.4001
 5733W        W 9797   4.977   1.355   0.956 -0.2583 -0.0487 -0.3402
 5734W        W 9798   9.938   8.970  10.346  0.1312  0.1388  0.1114
 5735W        W 9799   4.290   0.429   8.260  0.1007 -0.0767 -0.1516
 5736W        W 9800   9.433   3.405   9.825  0.2105 -0.3086  0.1178
 5737W        W 9801   8.486   2.014   9.716  0.2791 -0.4170 -0.1819
 5738W        W 9802   0.608  10.583   9.125  0.1819  0.1649  0.1096
 5739W        W 9803   7.484  10.531   2.781 -0.2172 -0.0793  0.0924
 5740W        W 9804   8.688  10.430   2.041 -0.0146  0.1146 -0.1350
 5741W        W 9805   7.643   2.287  10.683  0.1944  0.1084 -0.1840
 5742W        W 9806  10.105  10.673   1.919  0.0850 -0.2685  0.1355
 5743W        W 9807   2.958  10.728   7.491  0.1065 -0.1812 -0.0578
 5744W        W 9808   8.230   8.189  10.719  0.2798  0.1219  0.0934
 5745W        W 9809   6.791   2.881   1.616  0.0861 -0.2526 -0.0524
 5746W        W 9810   6.281   6.038   6.872  0.1508  0.3360 -0.2405
 5747W        W 9811   2.065   1.339   9.294  0.1383 -0.3172  0.0625
 5748W        W 9812   8.377   0.027   1.860 -0.0594 -0.0888  0.0984
 5749W        W 9813   9.681   3.368   9.280 -0.1307  0.0500  0.1593
 5750W        W 9814   7.537   4.525   1.871  0.0428  0.2254  0.1362
 5751W        W 9815   7.416   8.191   2.817 -0.1103 -0.2940  0.4193
 5752W        W 9816   6.190   0.698   1.635  0.1767  0.2155 -0.1016
 5753W        W 9817   8.151   6.228  11.135  0.2270  0.0534  0.4028
 5754W        W 9818   0.056   6.495   2.378 -0.1923  0.2212  0.1949
 5755W        W 9819   6.447   7.514   2.084  0.0073 -0.1436 -0.3488
 5756W        W 9820   9.658   2.974   7.702  0.1665  0.1485 -0.0862
 5757W        W 9821   3.116  10.159   1.755 -0.2553  0.2041  0.1121
 5758W        W 9822   8.247   2.139   0.581 -0.0822  0.0348 -0.0526
 5759W        W 9823   3.147   6.352   1.993 -0.1661 -0.1941  0.2597
 5760W        W 9824   2.567   6.651   1.306 -0.0991  0.1462  0.0254
 5761W        W 9825   9.951   1.915   8.609 -0.0873 -0.1646 -0.2109
 5762W        W 9826   9.612   2.327   8.469 -0.1169  0.0560  0.3840
 5763W        W 9827   5.165   1.025  11.277  0.1853  0.3695  0.3101
 5764W        W 9828   9.735   4.793   9.767  0.1653 -0.0680  0.2159
 5765W        W 9829   8.725   0.895   1.954 -0.0996  0.0125 -0.0239
 5766W        W 9830  10.544  10.021   2.350  0.3073  0.0747 -0.0530
 5767W        W 9831   2.137  10.540   3.695  0.0716 -0.4343 -0.0826
 5768W        W 9832   0.676   6.944   9.802 -0.1016 -0.0763 -0.0943
 5769W        W 9833   8.577   0.809   2.503 -0.0545 -0.1620  0.4764
 5770W        W 9834   3.264   0.173   0.574  0.0455 -0.2019 -0.0170
 5771W        W 9835   6.906  10.534   8.690 -0.0608  0.2009 -0.2614
 5772W        W 9836   0.957   8.249   9.605 -0.1487  0.1790  0.1163
 5773W        W 9837   8.172   6.186   9.165 -0.0767  0.1132 -0.1509
 5774W        W 9838  10.502   0.041   7.694 -0.0856  0.3729  0.0251
 5775W        W 9839   7.782  10.638   3.160 -0.0433 -0.2456 -0.1394
 5776W        W 9840   9.702   4.126   1.492 -0.1685 -0.0998 -0.1706
 5777W        W 9841   0.411   5.187  10.447 -0.0271 -0.1219  0.4011
 5778W        W 9842   2.166   9.092   4.050 -0.1628  0.1927  0.0065
 5779W        W 9843   2.009   0.150   8.658 -0.0854 -0.0310 -0.1080
 5780W        W 9844   3.213  10.268   0.711  0.0693  0.2050  0.1395
 5781W        W 9845  10.048   4.197   2.329  0.0761  0.2606 -0.1245
 5782W        W 9846   3.121   9.559   8.183  0.2125 -0.4504 -0.1051
 5783W        W 9847   7.125   2.953   0.582  0.1355  0.0811 -0.0393
 5784W        W 9848   1.257   4.262   0.565 -0.0738 -0.3339 -0.1394
 5785W        W 9849   4.542   8.240  10.126  0.0835  0.0463 -0.1857
 5786W        W 9850   2.947   8.172   8.639 -0.0816 -0.0435 -0.0248
 5787W        W 9851   6.182   4.830   2.676  0.0906 -0.1103  0.1117
 5788W        W 9852   9.872   9.943   8.462 -0.1369  0.2206  0.1107
 5789W        W 9853   4.465   7.700   1.301 -0.1145 -0.0790 -0.1686
 5790W        W 9854   1.914   8.989   8.924  0.0249 -0.2627  0.0854
 5791W        W 9855   7.479   0.670  10.384 -0.3621  0.3308 -0.0368
 5792W        W 9856   8.331   8.835  10.999 -0.2698  0.1488 -0.1722
 5793W        W 9857   2.282  10.071   1.081  0.0616  0.0350  0.3460
 5794W        W 9858   9.598   1.156  10.804  0.0722 -0.0041  0.1627
 5795W        W 9859   4.083   8.803  10.646  0.0199 -0.1416  0.0419
 5796W        W 9860   0.340   4.636   0.525 -0.1840  0.1559 -0.1739
 5797W        W 9861   1.970   7.492   2.148 -0.3252  0.2622  0.0214
 5798W        W 9862   4.511   4.610   9.611 -0.0483  0.1146 -0.2212
 5799W        W 9863   4.910   2.533   2.510  0.0517 -0.2514 -0.2049
 5800W        W 9864   8.218   2.113   7.881  0.0363  0.0288  0.0184
 5801W        W 9865   0.620   9.246   9.622 -0.0983 -0.0674  0.1963
 5802W        W 9866   9.395   4.077   8.286  0.1794  0.2286  0.1747
 5803W        W 9867   4.460   0.667   1.536 -0.3004 -0.2313 -0.2283
 5804W        W 9868   6.505   1.684   0.955 -0.0869  0.2099 -0.0913
 5805W        W 9869   4.576   4.319   7.792 -0.3043 -0.1181  0.1175
 5806W        W 9870   1.309   3.558  10.270  0.1246 -0.1096 -0.0405
 5807W        W 9871   9.719   3.252   0.812 -0.3820 -0.5716  0.0296
 5808W        W 9872   1.572   6.178   7.899 -0.2220 -0.2935  0.0698
 5809W        W 9873   8.640   1.762  10.682 -0.0757  0.1305  0.2494
 5810W        W 9874   7.525   5.676   2.416  0.3964  0.1473  0.0950
 5811W        W 9875   4.704   6.306   0.033  0.2505  0.1137 -0.1069
 5812W        W 9876   1.767   1.651   3.126  0.0833  0.1039 -0.1326
 5813W        W 9877   6.527   6.235   9.425 -0.1790 -0.4268 -0.0083
 5814W        W 9878   8.837   4.792  10.525  0.0307 -0.2280  0.1270
 5815W        W 9879   0.214   1.391  10.486  0.0263  0.1414  0.0861
 5816W        W 9880   9.468   9.760   7.693 -0.2282 -0.1970 -0.0682
 5817W        W 9881   3.896   3.303  11.224 -0.1817  0.0172  0.0942
 5818W        W 9882   8.845   5.884   8.604  0.2947 -0.1518  0.0377
 5819W        W 9883   0.249   6.659  11.255  0.1243  0.1175  0.1709
 5820W        W 9884   7.575   8.989   1.086  0.0962 -0.3489  0.3478
 5821W        W 9885   9.344   6.840   0.926  0.0983  0.0310  0.2189
 5822W        W 9886   6.140   2.569   9.838 -0.0721  0.0234 -0.1086
 5823W        W 9887   7.306   0.553   9.971 -0.0979  0.1064  0.2769
 5824W        W 9888   9.167   7.371   1.712  0.1318 -0.1457  0.0674
 5825W        W 9889  10.685   7.138   2.301  0.1329  0.0259 -0.2087
 5826W        W 9890   9.845   7.041   6.685  0.4081 -0.1096  0.0530
 5827W        W 9891   8.947   4.701   2.736  0.3079  0.1904 -0.4590
 5828W        W 9892   0.865   6.583  10.798 -0.0687  0.1026  0.2010
 5829W        W 9893   8.987   3.714   9.136  0.1930  0.2394 -0.0219
 5830W        W 9894   8.627   4.587   0.524 -0.1532 -0.1936  0.1494
 5831W        W 9895   2.654   0.556   2.013  0.0861 -0.2186 -0.0961
 5832W        W 9896  10.254   8.583   1.157 -0.3654  0.0017  0.1234
 5833W        W 9897   1.123   3.064   3.185 -0.0984 -0.3419  0.1928
 5834W        W 9898   0.824   5.958   1.503  0.1844 -0.2258  0.0116
 5835W        W 9899   1.598   7.189   1.296  0.0402  0.0539 -0.0992
 5836W        W 9900   2.112   1.917   2.364  0.0634  0.1048 -0.1876
 5837W        W 9901   3.545   1.103   9.844  0.1483  0.0086 -0.2060
 5838W        W 9902   9.311   0.837   8.012 -0.0673 -0.0569 -0.0216
 5839W        W 9903   7.009   6.684   1.216 -0.0779 -0.1040  0.0578
 5840W        W 9904  10.752   8.420   1.279  0.3148  0.0969 -0.2136
 5841W        W 9905   2.963   0.482   0.331 -0.0525  0.1017  0.1497
 5842W        W 9906   0.223   9.506  11.160  0.0272  0.2032  0.1126
 5843W        W 9907   7.609   8.562  10.485 -0.1016 -0.0396  0.2008
 5844W        W 9908   3.673   0.293  11.034 -0.2113  0.5169 -0.2776
 5845W        W 9909   3.021   2.874  11.314 -0.1439  0.1108  0.1034
 5846W        W 9910   9.334   4.570   8.168 -0.3774  0.1639 -0.1044
 5847W        W 9911   9.352   0.332   3.214 -0.0719 -0.0981  0.1168
 5848W        W 9912   2.093   3.238  10.121  0.0896  0.1394  0.2987
 5849W        W 9913   2.929  10.475  11.271 -0.0465  0.1932 -0.3336
 5850W        W 9914   0.676   1.269   6.788 -0.1483 -0.4017 -0.2441
 5851W        W 9915   2.557   6.828   8.826 -0.3664 -0.2208 -0.4502
 5852W        W 9916   2.052   3.529   3.040  0.1001 -0.0711  0.0063
 5853W        W 9917   2.215   5.700   9.139  0.0095 -0.2780  0.0502
 5854W        W 9918   5.525   6.372  10.204  0.0708  0.0882  0.1532
 5855W        W 9919   9.544   1.022   8.520 -0.0855 -0.2135 -0.1087
 5856W        W 9920   2.929   2.308  10.274 -0.0476 -0.3393 -0.1302
 5857W        W 9921   6.334   3.474   3.139 -0.1931  0.0113 -0.1866
 5858W        W 9922   1.990   3.784  11.289 -0.1999  0.3845 -0.4332
 5859W        W 9923   5.622   5.641   2.836  0.2793  0.2489 -0.1942
 5860W        W 9924   3.590   9.853   8.995 -0.0277  0.1207 -0.0046
 5861W        W 9925   2.522   8.274   1.225 -0.0524 -0.1981  0.1283
 5862W        W 9926   8.562   4.437  10.135 -0.0615 -0.0756 -0.1734
 5863W        W 9927   2.963   1.530   2.704 -0.1620  0.0150  0.0728
 5864W        W 9928   1.535   9.058   3.302  0.0782 -0.2054  0.1302
 5865W        W 9929   7.955   6.612   8.880 -0.3323  0.1328  0.3464
 5866W        W 9930   9.909   4.676  10.663 -0.3637  0.1469  0.3745
 5867W        W 9931   5.180   2.211   9.739  0.2720  0.0386 -0.2154
 5868W        W 9932   3.996   6.368   2.322 -0.1430 -0.0741  0.2762
 5869W        W 9933   2.318   9.074   9.213 -0.0264 -0.4268 -0.0341
 5870W        W 9934   1.746  10.062   1.392 -0.1023 -0.2544 -0.0634
 5871W        W 9935   3.009   4.530   9.752 -0.3201  0.1012  0.1172
 5872W        W 9936   5.851  10.455   1.776 -0.1585  0.3404  0.0153
 5873W        W 9937   5.525   0.022   1.834 -0.1374  0.0256  0.3166
 5874W        W 9938   8.673   7.079   7.195  0.2263  0.1709  0.1367
 5875W        W 9939   4.810   1.907   9.424 -0.2061 -0.1870 -0.1364
 5876W        W 9940  10.548   6.825   2.675 -0.0197  0.2682 -0.2532
 5877W        W 9941   2.682   2.060  11.207  0.0314  0.2526 -0.0354
 5878W        W 9942   4.118   3.796   2.484  0.0001  0.1200 -0.0680
 5879W        W 9943   4.328   9.134  10.303  0.2055  0.1054 -0.1926
 5880W        W 9944   2.247   2.268   2.087 -0.2099  0.0027  0.3688
 5881W        W 9945   8.006   6.068   3.257 -0.0521  0.0822  0.0314
 5882W        W 9946   1.552   6.219   8.530 -0.2943  0.0042 -0.0905
 5883W        W 9947   0.487   6.034   7.617 -0.0785  0.2395  0.3306
 5884W        W 9948   7.957   2.968   1.031 -0.2043 -0.1164 -0.0482
 5885W        W 9949   4.676   4.629   0.224  0.0054  0.0622  0.2800
 5886W        W 9950   3.449   6.635   9.343 -0.1419 -0.1745 -0.1270
 5887W        W 9951  10.443   8.265  10.861 -0.1513  0.3070 -0.1543
 5888W        W 9952   4.821   4.850  10.259 -0.0422  0.0039  0.0444
 5889W        W 9953   1.710   6.757   3.501  0.1236  0.0098  0.0462
 5890W        W 9954   5.243   4.761   2.532 -0.0047  0.3099 -0.1123
 5891W        W 9955   3.674   1.582   9.877  0.2321 -0.2021  0.2214
 5892W        W 9956   9.553   2.840   2.711  0.0714 -0.0725 -0.2390
 5893W        W 9957   5.269   4.041   9.064 -0.1860 -0.3095 -0.0503
 5894W        W 9958   9.122   1.210   1.006 -0.1524 -0.1315 -0.2898
 5895W        W 9959   5.641   8.804   0.211  0.1190 -0.0406  0.2452
 5896W        W 9960   2.986   2.583   1.221  0.0145 -0.2420  0.1278
 5897W        W 9961   9.614   1.154  10.090 -0.1908  0.4272  0.1234
 5898W        W 9962  10.770   3.646   2.231  0.3099 -0.1967 -0.0281
 5899W        W 9963   7.932   5.087  10.210  0.0399  0.0095 -0.0518
 5900W        W 9964   9.691   2.495   1.865 -0.0372  0.0622  0.1494
 5901W        W 9965   9.520   3.582   0.097 -0.1205  0.4122  0.1696
 5902W        W 9966   6.022   5.543   6.899 -0.2117 -0.3546 -0.2690
 5903W        W 9967   1.731   8.258   9.148 -0.1592 -0.2877 -0.0838
 5904W        W 9968  10.177  10.350   2.345 -0.2970  0.1498  0.3574
 5905W        W 9969  10.428   7.805   8.591 -0.0507  0.0319 -0.0334
 5906W        W 9970   1.689  10.264   9.369  0.2300  0.0042  0.2120
 5907W        W 9971   6.697   0.884   6.984  0.1920  0.1217 -0.0282
 5908W        W 9972   0.210   4.168   9.709 -0.0805  0.0378 -0.1035
 5909W        W 9973   8.284   0.838   2.139  0.5507  0.0009  0.2051
 5910W        W 9974   3.248   9.011   2.399  0.1179 -0.0308 -0.1368
 5911W        W 9975   2.462   5.940   1.309 -0.0929 -0.6569 -0.0289
 5912W        W 9976   5.142   2.277   0.580  0.2118  0.3974 -0.1534
 5913W        W 9977   9.715   0.192   1.609 -0.3247 -0.3416  0.1235
 5914W        W 9978   9.623   7.315   9.802  0.0557 -0.0002 -0.0482
 5915W        W 9979   4.719   0.620   1.072  0.0054  0.2217 -0.1216
 5916W        W 9980   3.226   1.886  11.321 -0.1342  0.1678  0.1175
 5917W        W 9981   9.577   5.825   8.168  0.1437 -0.1735  0.1121
 5918W        W 9982   3.498   5.641   2.554  0.3003 -0.1644 -0.0435
 5919W        W 9983   4.279   8.463   0.512  0.0946  0.1860  0.1687
 5920W        W 9984   0.018   3.285   9.646 -0.0440  0.1751 -0.3458
 5921W        W 9985   6.026   9.232   8.644 -0.0150  0.4273 -0.0046
 5922W        W 9986   8.669   8.519   9.523 -0.3225  0.0490  0.4055
 5923W        W 9987  10.461   9.486   6.378  0.2901 -0.1550  0.1206
 5924W        W 9988   2.023   6.056   8.316 -0.2221  0.0266  0.1471
 5925W        W 9989   7.000   3.846   8.914 -0.1777 -0.2811 -0.0867
 5926W        W 9990   7.244   5.539   8.837 -0.3743  0.1599  0.1556
 5927W        W 9991   6.685   7.086   7.018  0.1152 -0.1281 -0.0953
 5928W        W 9992   6.780   7.530   1.715  0.1646  0.0941  0.0839
 5929W        W 9993   7.210   8.610  10.752  0.2262 -0.4010  0.0617
 5930W        W 9994   2.994   0.916  10.470 -0.1936 -0.2273 -0.0024
 5931W        W 9995   5.916   8.407   9.916  0.1128  0.1893 -0.1039
 5932W        W 9996   7.161   0.980   0.311  0.0759 -0.3236 -0.0229
 5933W        W 9997   7.883   4.409   8.865  0.0965  0.0549 -0.0992
 5934W        W 9998   8.958  10.204   0.737 -0.0611 -0.0647 -0.1915
 5935W        W 9999   6.785  10.503   0.752 -0.0524  0.2858  0.0631
 5936W        W10000   6.138   1.227   7.019 -0.1702 -0.1162  0.0358
 5937W        W10001   1.041   3.181   2.032 -0.0054  0.1462 -0.1150
 5938W        W10002   8.580   7.107  10.303  0.1325 -0.0455 -0.2164
 5939W        W10003   6.616   4.331   1.744  0.0778  0.0503 -0.4245
 5940W        W10004   8.956   0.013   1.862 -0.1801 -0.2121 -0.2436
 5941W        W10005   1.134   3.998   2.284 -0.1505  0.0697 -0.1545
 5942W        W10006   1.705   4.822   1.506  0.3810  0.0034 -0.1276
 5943W        W10007   4.599   1.458   9.672  0.1717  0.1797 -0.0854
 5944W        W10008  10.059   8.617   8.768  0.0620 -0.2388 -0.0070
 5945W        W10009   3.037   4.005   9.040  0.0179 -0.0954 -0.1347
 5946W        W10010   2.320   1.279   2.279 -0.0070 -0.0544 -0.1087
 5947W        W10011   6.412   2.950   7.420 -0.1428 -0.2405  0.0045
 5948W        W10012   7.253  10.442  10.410  0.2679  0.0126  0.0461
 5949W        W10013   1.244   1.092   9.024  0.2242  0.1675  0.0927
 5950W        W10014   9.520   3.859   2.915 -0.0074 -0.0794 -0.0640
 5951W        W10015   5.753   0.980   1.901  0.0310 -0.0107 -0.0351
 5952W        W10016   8.275   1.197   1.333 -0.3875 -0.0892  0.0534
 5953W        W10017   5.585   6.647   0.644 -0.0660  0.1093 -0.1316
 5954W        W10018   2.836   7.251  10.510 -0.0551  0.0755 -0.0779
 5955W        W10019   0.986   0.909   0.116  0.0180  0.0975 -0.1468
 5956W        W10020  10.388   2.456   0.262  0.0220 -0.0924  0.0449
 5957W        W10021   0.695   7.728   3.158 -0.1023 -0.3508 -0.1396
 5958W        W10022   0.435   9.338   1.525  0.0200 -0.0648 -0.0327
 5959W        W10023  10.731   5.013   1.427 -0.0516  0.0890 -0.1602
 5960W        W10024   1.151   0.685   1.873  0.1356  0.1107  0.1587
 5961W        W10025   3.011   5.771   9.210 -0.1313 -0.1310  0.0979
 5962W        W10026   1.841   7.316   2.816 -0.1111 -0.0176 -0.0106
 5963W        W10027   7.437   2.744   1.903  0.0713 -0.0242 -0.0143
 5964W        W10028   6.329   0.646   0.749 -0.0276  0.0164 -0.1069
 5965W        W10029   7.380   0.829   9.273  0.3919  0.0843 -0.1001
 5966W        W10030   1.444   3.915   0.054  0.1868  0.0837 -0.1283
 5967W        W10031   0.867   5.809   7.390  0.0682 -0.1080  0.0198
 5968W        W10032  10.053   8.355   9.254  0.4750  0.0613 -0.0729
 5969W        W10033   1.765   7.192  10.758 -0.0347 -0.2123 -0.1678
 5970W        W10034   4.236   4.334   1.469 -0.2301  0.1387 -0.0170
 5971W        W10035   4.407   7.279   9.960 -0.1746 -0.3932  0.0228
 5972W        W10036   7.751   2.704   3.360  0.0826 -0.1768  0.1469
 5973W        W10037   7.211   6.907   1.831  0.3257 -0.1614 -0.1790
 5974W        W10038   7.214   6.960   9.120 -0.0889  0.3057 -0.1188
 5975W        W10039   3.336   8.982   9.897  0.1355 -0.0444  0.1681
 5976W        W10040   6.862  10.567  10.119  0.0734  0.1293 -0.0783
 5977W        W10041   0.658   9.419   2.031 -0.0330  0.2278  0.0152
 5978W        W10042   6.575   3.068   9.075  0.1112  0.0985 -0.3414
 5979W        W10043  10.329   9.952   7.392  0.6055  0.1439 -0.0398
 5980W        W10044   7.685   9.436  10.320  0.1349  0.3903  0.0614
 5981W        W10045   5.951   7.384  11.003 -0.3893 -0.5804 -0.0423
 5982W        W10046   8.348   4.251   0.886  0.1506  0.1231  0.0998
 5983W        W10047   0.290   6.920   7.549 -0.0907 -0.0760 -0.0731
 5984W        W10048   6.970   3.349   8.701  0.1638 -0.0271 -0.0620
 5985W        W10049   1.928   1.578   0.113  0.1163  0.1300 -0.0663
 5986W        W10050   0.613   7.062   8.928 -0.1586 -0.3684  0.1445
 5987W        W10051   4.314   7.256   3.055  0.1531 -0.0021 -0.1679
 5988W        W10052   9.117   9.393   0.117  0.0297  0.3870 -0.1990
 5989W        W10053   0.001  10.669   2.004 -0.0364 -0.2889 -0.2780
 5990W        W10054   7.520   5.263   9.436  0.0883  0.3263  0.0132
 5991W        W10055   4.531   7.806   9.900  0.0211 -0.0269  0.3313
 5992W        W10056   1.920   3.009   9.071 -0.1997  0.0249  0.0561
 5993W        W10057   1.625   1.121   7.524  0.0205  0.0031  0.0144
 5994W        W10058   7.606   8.904  10.891 -0.2146  0.1527 -0.1665
 5995W        W10059   1.975   7.804  10.292 -0.3451  0.0519  0.3246
 5996W        W10060   3.977   6.514  10.908 -0.3622 -0.1222 -0.2742
 5997W        W10061   8.675   8.508   1.973 -0.1638  0.1258 -0.1256
 5998W        W10062   5.798  10.020   9.081  0.0997  0.3891 -0.0939
 5999W        W10063   6.666   9.902   8.307  0.1244  0.2634 -0.3082
 6000W        W10064   4.864   5.429   9.445  0.0783  0.3335 -0.0509
 6001W        W10065   4.961   5.610   0.581  0.1733 -0.0114  0.1813
 6002W        W10066   5.582   0.304   9.885 -0.0283  0.2596 -0.2549
 6003W        W10067   6.102   3.764   1.760  0.0795 -0.2076 -0.0812
 6004W        W10068   1.301   4.930   9.985  0.1620 -0.2218  0.0665
 6005W        W10069   5.989   4.884   8.590 -0.1519 -0.0310 -0.0548
 6006W        W10070   6.779   5.198   8.773 -0.2142  0.1290  0.0147
 6007W        W10071  10.290   2.367   9.452  0.2927  0.0130  0.1066
 6008W        W10072   2.001   7.982   0.024 -0.0229  0.0938  0.1576
 6009W        W10073   6.494   9.605   0.123  0.1204  0.1134  0.1705
 6010W        W10074   4.645   5.706   1.678 -0.0089  0.0790  0.2935
 6011W        W10075   6.782   3.306   0.783 -0.4283 -0.2362 -0.1515
 6012W        W10076   8.761   5.445   0.139 -0.0545 -0.1531 -0.1385
 6013W        W10077   7.396   6.469  11.006 -0.0429  0.0396 -0.0555
 6014W        W10078   5.476   6.394   3.251 -0.0670  0.0773  0.0119
 6015W        W10079   0.456   5.589   8.840 -0.0625 -0.0288 -0.2301
 6016W        W10080   8.737   2.976   1.451  0.1445  0.0168 -0.1727
 6017W        W10081  10.541   2.777   1.778  0.2353 -0.1947 -0.2058
 6018W        W10082   7.394   3.836   2.434  0.0604 -0.2400  0.1488
 6019W        W10083   0.299   1.956   2.362  0.3230  0.3961  0.0065
 6020W        W10084   0.791   5.724   8.542  0.1183 -0.0688  0.0067
 6021W        W10085   0.889   5.111   1.838  0.1171  0.0653  0.3575
 6022W        W10086   7.867   3.440   1.094  0.1828 -0.0526  0.1768
 6023W        W10087   1.782   6.919   8.906  0.3112 -0.1683 -0.0644
 6024W        W10088   6.972   1.297  10.005 -0.1270 -0.2535 -0.0834
 6025W        W10089   4.039   2.512   9.291  0.0236 -0.0289 -0.4068
 6026W        W10090   9.975   3.684   1.035  0.2836  0.1970 -0.0925
 6027W        W10091   5.424   2.567   8.021 -0.2457  0.0375 -0.0409
 6028W        W10092   4.586   3.434   0.563 -0.1093 -0.2922  0.2445
 6029W        W10093   9.348   4.876   1.980  0.0523 -0.0591  0.2565
 6030W        W10094   5.421   5.235   2.604  0.0145 -0.0937 -0.2556
 6031W        W10095   2.914   9.198   2.745 -0.1280  0.1357 -0.2102
 6032W        W10096   5.893   8.493   8.188  0.2296  0.1914  0.1157
 6033W        W10097   8.720   0.365   7.619  0.0457  0.2918  0.1861
 6034W        W10098   4.656   9.617   1.070 -0.3752  0.2774  0.0030
 6035W        W10099   1.993   9.080   0.632 -0.0449  0.0148 -0.1204
 6036W        W10100   1.736   2.404   0.413  0.0296  0.4334 -0.1612
 6037W        W10101   2.136   2.726   0.151 -0.0334 -0.0972  0.0732
 6038W        W10102   7.812   4.381   0.617  0.3200 -0.0775  0.1995
 6039W        W10103   6.358   8.567   7.400  0.1626  0.2960  0.1228
 6040W        W10104   4.108   4.728   8.377  0.2971 -0.2106  0.2865
 6041W        W10105   5.058   8.829   0.197  0.0693  0.2219  0.1416
 6042W        W10106   0.728   5.033   7.691  0.2505 -0.0772  0.1316
 6043W        W10107  10.721  10.199   8.536 -0.1260 -0.0525  0.1384
 6044W        W10108   4.945   0.653   8.441  0.1610  0.2966  0.1253
 6045W        W10109   3.685   3.823   2.673  0.2533  0.0804  0.0814
 6046W        W10110   3.453   3.255   1.926  0.3979 -0.1939  0.1017
 6047W        W10111   6.157   9.200   0.259  0.3436  0.1963  0.0125
 6048W        W10112   1.508  10.257   2.871 -0.0957 -0.0332 -0.0038
 6049W        W10113   5.886   0.794   2.405  0.0255  0.0632  0.3785
 6050W        W10114   6.995   8.354   8.073  0.1754  0.3098  0.2501
 6051W        W10115   1.023   8.299   0.270 -0.1072 -0.0985  0.0222
 6052W        W10116   2.064  10.383   1.668  0.1313 -0.0039 -0.2810
 6053W        W10117   6.495   0.413   0.024 -0.2675 -0.0377 -0.2550
 6054W        W10118   7.833   1.327   0.787  0.0729 -0.0595 -0.1530
 6055W        W10119  10.078   6.713   0.122 -0.0061 -0.3887  0.1350
 6056W        W10120   0.314   4.314   1.828 -0.2503 -0.0017 -0.1246
 6057W        W10121   6.751   4.986   2.954  0.1278 -0.2261 -0.0320
 6058W        W10122   2.690   3.943   2.148 -0.1276  0.2140 -0.1182
 6059W        W10123   8.537   7.049   2.573  0.1074  0.1962 -0.0478
 6060W        W10124   6.067   2.783   8.623 -0.0071 -0.0609 -0.0944
 6061W        W10125   2.144   1.111   0.792  0.1380  0.0156 -0.0504
 6062W        W10126   5.282   4.104   7.642  0.2703 -0.2313  0.2797
 6063W        W10127  10.285   4.141   9.108  0.0888 -0.2684  0.2362
 6064W        W10128   5.084   3.059  10.669  0.1430  0.1951  0.1758
 6065W        W10129   8.916   6.360   9.730  0.1266 -0.1368  0.0276
 6066W        W10130   6.656   3.994   3.278 -0.2412 -0.1223 -0.0260
 6067W        W10131   3.193   9.712  11.178  0.2094 -0.3140  0.0680
 6068W        W10132   5.867   5.810   0.453 -0.1475  0.0013  0.0964
 6069W        W10133   9.571  10.579   9.558  0.1537  0.0063 -0.1663
 6070W        W10134   0.165   7.435   7.741 -0.3116  0.1943 -0.1976
 6071W        W10135   1.576   8.873   1.000  0.2620 -0.0335  0.3689
 6072W        W10136   9.561   5.333   8.498  0.0735 -0.1112 -0.0475
 6073W        W10137   8.252   7.744  10.483  0.3842 -0.0600 -0.2503
 6074W        W10138   6.567   8.520   3.146  0.1612 -0.0248 -0.0622
 6075W        W10139   5.201   8.766   8.516 -0.0894 -0.1565  0.2561
 6076W        W10140   3.127   5.896   9.698  0.1720 -0.1447  0.1253
 6077W        W10141   5.974   9.225   8.077  0.0092 -0.0519 -0.1041
 6078W        W10142   9.721   9.067   0.813  0.3787 -0.2115  0.0927
 6079W        W10143   0.011   4.162   2.924  0.2341 -0.1836 -0.3152
 6080W        W10144   1.295   8.333   3.288  0.0797  0.1098 -0.0937
 6081W        W10145   8.331   7.937   1.129 -0.0742  0.1583 -0.1301
 6082W        W10146   5.590   8.972   3.394  0.0289  0.1943  0.1129
 6083W        W10147   4.814   8.359   9.252 -0.0047 -0.1863 -0.1734
 6084W        W10148   1.814   6.697  10.842 -0.2436  0.1520 -0.1819
 6085W        W10149   1.758   2.116   1.261 -0.0998 -0.1683 -0.0920
 6086W        W10150   9.079   7.848   1.668 -0.0590  0.1430  0.1948
 6087W        W10151   1.820   8.954  10.479  0.1608  0.0369  0.0563
 6088W        W10152   7.192   0.265   1.516 -0.2292  0.1052  0.0291
 6089W        W10153   6.328   0.187   9.122 -0.3501 -0.2130 -0.0745
 6090W        W10154   7.576   9.494  11.217 -0.1402 -0.2104  0.0683
 6091W        W10155   2.308   9.305  11.141 -0.0569 -0.1186  0.2186
 6092W        W10156   5.367   8.355   9.746 -0.0118 -0.1361 -0.2767
 6093W        W10157   0.890   4.730  10.257 -0.0379 -0.1294  0.0146
 6094W        W10158   8.219   1.240   7.529  0.0214 -0.1005 -0.0418
 6095W        W10159   2.599  10.446   3.427 -0.0071 -0.1421 -0.0810
 6096W        W10160   3.990   7.097  10.171 -0.1860  0.1228  0.0360
 6097W        W10161   5.671   3.790   8.854 -0.0809  0.1666 -0.1374
 6098W        W10162   2.334  10.239   9.876 -0.4231 -0.3112 -0.1122
 6099W        W10163   3.901   7.915   1.248  0.1548  0.1918 -0.1049
 6100W        W10164   5.838   3.298   0.702  0.2234  0.1257 -0.0399
 6101W        W10165  10.698   1.040  10.883  0.3215  0.3493 -0.2875
 6102W        W10166   3.379  10.026   9.825 -0.2563  0.0765 -0.2958
 6103W        W10167   6.665   8.777   6.888 -0.0223 -0.2808 -0.1385
 6104W        W10168   0.158   7.864  10.419  0.0150 -0.0679 -0.0968
 6105W        W10169   8.090   5.154   9.237  0.0609 -0.0340 -0.0683
 6106W        W10170   2.705   3.507   1.365  0.0428 -0.0910 -0.0822
 6107W        W10171   2.300   7.786   7.573  0.1104  0.0425  0.1645
 6108W        W10172   3.804   3.957   3.262  0.2092  0.0799 -0.4459
 6109W        W10173   8.795   6.384   8.363 -0.2650  0.1042 -0.1148
 6110W        W10174   4.874   2.488   7.983 -0.2667  0.1075 -0.2798
 6111W        W10175   7.881   7.959   9.459  0.3633 -0.4670 -0.0368
 6112W        W10176   5.680  10.559  11.257 -0.0422 -0.0105  0.0241
 6113W        W10177   1.309  10.353  10.084 -0.0905 -0.1163 -0.0739
 6114W        W10178   8.750   1.924   8.702 -0.1581  0.0275  0.3174
 6115W        W10179   5.577   6.365   8.535 -0.1200  0.1553 -0.0678
 6116W        W10180   8.607  10.372  10.039 -0.2831 -0.2621  0.1271
 6117W        W10181   0.911   1.392  11.190 -0.0782  0.1759  0.4133
 6118W        W10182   6.652   2.837   1.084 -0.0830 -0.1071 -0.0068
 6119W        W10183   3.893   3.024   2.067  0.0369 -0.0724 -0.0998
 6120W        W10184   0.979   8.988   2.712 -0.4048  0.0877 -0.1520
 6121W        W10185   8.737   5.238   3.641 -0.1427  0.1712  0.0644
 6122W        W10186   6.793   9.426   7.912  0.0996  0.1158  0.0687
 6123W        W10187   4.285   8.219   1.532 -0.0430 -0.4238 -0.1667
 6124W        W10188   2.993   4.792   9.223  0.1418  0.5671 -0.0610
 6125W        W10189   9.075   9.639   3.465 -0.1645 -0.0725 -0.0027
 6126W        W10190   9.239   3.222   7.981 -0.1988  0.4258  0.3826
 6127W        W10191   7.321   6.727   9.544  0.0721 -0.3680 -0.0561
 6128W        W10192   2.360   3.551   3.562 -0.2123  0.0122 -0.3110
 6129W        W10193   6.245   1.897  10.562 -0.1672  0.0376  0.2219
 6130W        W10194   7.008   8.474   2.891 -0.2817 -0.1327  0.2389
 6131W        W10195   1.842   8.474   9.660 -0.0269  0.0431 -0.0672
 6132W        W10196   3.266   4.515   1.040  0.2095  0.5277  0.0633
 6133W        W10197   0.126   3.137   2.133 -0.0632  0.2558  0.2149
 6134W        W10198   5.495   7.354   1.729  0.5217  0.2021  0.0329
 6135W        W10199   4.322   0.342   2.138  0.0194  0.0720 -0.5087
 6136W        W10200   2.159   3.837   0.410  0.2992  0.1922  0.4992
 6137W        W10201   1.027   6.200   3.276 -0.0739  0.1561 -0.0498
 6138W        W10202   5.109   0.243   0.820  0.0119  0.0766 -0.0414
 6139W        W10203   6.617  10.540   1.875  0.0262  0.0131  0.1575
 6140W        W10204   5.291   3.352   8.290 -0.2879  0.2453 -0.1986
 6141W        W10205   7.737   4.400  10.069  0.0653 -0.0041 -0.2093
 6142W        W10206  10.317  10.638   6.667  0.2138  0.0733  0.3211
 6143W        W10207   2.139   0.653  10.610 -0.0585  0.0969 -0.0856
 6144W        W10208   3.146   4.508   7.588 -0.0851 -0.0558  0.2691
 6145W        W10209   1.150   4.983   7.933 -0.0003 -0.1854 -0.0343
 6146W        W10210   6.875   6.737  10.944 -0.1009  0.2829 -0.0671
 6147W        W10211   8.221   3.952   2.360  0.0957 -0.0118  0.3973
 6148W        W10212   3.187   2.392   8.561 -0.1364 -0.0009  0.5032
 6149W        W10213   1.950   3.104   9.594  0.2297  0.1348  0.1221
 6150W        W10214   1.524   5.448  10.373  0.1897  0.0532  0.2705
 6151W        W10215   4.914   9.226   0.814 -0.1715  0.2963  0.1853
 6152W        W10216   2.890   6.695   1.745 -0.1352 -0.0491  0.2248
 6153W        W10217   6.605   1.677   8.927  0.0651 -0.2372  0.1494
 6154W        W10218   7.414   4.388   2.355  0.1038 -0.1129  0.0929
 6155W        W10219   1.382   2.895   7.692  0.1228  0.2147 -0.0837
 6156W        W10220   2.151   1.873   9.807 -0.1801  0.0710  0.0445
 6157W        W10221   8.721  10.061   8.469  0.1754 -0.3951  0.3283
 6158W        W10222   7.710   6.949   1.816  0.0335 -0.0765  0.1308
 6159W        W10223   3.524   2.223   8.159  0.0760 -0.0466 -0.3727
 6160W        W10224  10.195   5.011   0.664  0.5093 -0.1146  0.0688
 6161W        W10225   0.794   0.913   1.292 -0.4185 -0.1980 -0.0173
 6162W        W10226   8.409   0.538   1.692 -0.1274 -0.1873 -0.0931
 6163W        W10227   4.365   0.599   8.725 -0.1975 -0.2500 -0.3705
 6164W        W10228   7.978   7.869   2.637  0.3875  0.0390 -0.1044
 6165W        W10229   7.345   6.965   8.338 -0.2270 -0.0519  0.0183
 6166W        W10230   2.040   6.062   8.847  0.0733  0.1088  0.0128
 6167W        W10231   1.091   5.624   1.770 -0.0830  0.1083  0.0341
 6168W        W10232   1.036   0.486  11.011  0.3972 -0.0445  0.1816
 6169W        W10233   8.661   0.827  10.148  0.0677 -0.2026 -0.0521
 6170W        W10234   1.901   3.908   9.414 -0.0394 -0.2956  0.1003
 6171W        W10235   1.171   3.844   2.763 -0.1563  0.1006  0.0737
 6172W        W10236   1.957   3.601   2.427 -0.4928  0.3381  0.3612
 6173W        W10237   7.308   7.406   0.209 -0.0419  0.0081 -0.0332
 6174W        W10238   6.782   4.198   7.650 -0.1448 -0.1170  0.1592
 6175W        W10239   7.916   2.159   6.815 -0.0918 -0.3041 -0.1886
 6176W        W10240   4.998  10.067   0.979  0.0940 -0.0334 -0.0771
 6177W        W10241   2.733   3.859   8.248 -0.2141 -0.0201  0.0400
 6178W        W10242   1.621   0.856   3.178 -0.3175 -0.1104  0.2455
 6179W        W10243   8.948   7.713   9.561  0.3929  0.2715 -0.0394
 6180W        W10244   3.764   7.701   2.006  0.0055  0.0815 -0.2896
 6181W        W10245  10.694   7.559   6.888 -0.2011  0.1103  0.2899
 6182W        W10246   3.549   4.342   7.776 -0.1227  0.1888 -0.0083
 6183W        W10247   9.651   9.009  10.773 -0.1314  0.2084 -0.1917
 6184W        W10248   6.083   4.797   8.088  0.2001 -0.1760 -0.0399
 6185W        W10249   5.310   4.199  10.052 -0.0311  0.1514 -0.1149
 6186W        W10250   0.055   7.731   0.706 -0.1499  0.0416  0.0522
 6187W        W10251   9.403   0.634   8.866  0.2928 -0.2714 -0.1531
 6188W        W10252   9.523   3.866   9.440 -0.0366  0.0304  0.0442
 6189W        W10253  10.440   2.411   7.988 -0.1538  0.1107 -0.1906
 6190W        W10254   6.066   1.222   0.976  0.3843 -0.1340  0.0008
 6191W        W10255   7.883  10.080   1.420  0.2546 -0.0739 -0.2609
 6192W        W10256   4.049   1.648   8.839 -0.0296 -0.0487 -0.0699
 6193W        W10257   1.753   5.626   9.405 -0.4851 -0.3442  0.1441
 6194W        W10258   0.227  10.015  11.294 -0.0838  0.1452  0.0919
 6195W        W10259  10.337  10.118   0.479  0.1837  0.2122 -0.0571
 6196W        W10260  10.552   6.659   0.810 -0.0974  0.0823 -0.0369
 6197W        W10261   8.181   6.292   7.968 -0.1121  0.1260  0.1610
 6198W        W10262   4.979  10.070   7.925  0.0198 -0.0922 -0.1114
 6199W        W10263   6.570   6.610   8.453  0.3004 -0.0324  0.3468
 6200W        W10264   0.746   1.873   7.580  0.1803 -0.1126  0.1932
 6201W        W10265   4.328   9.751   2.496 -0.1204  0.0264 -0.0771
 6202W        W10266   7.615   0.393  11.011 -0.1452 -0.2891 -0.1513
 6203W        W10267   1.591   3.514   2.778 -0.1834 -0.2785  0.1397
 6204W        W10268   2.102   2.447   1.404  0.0677 -0.4158  0.0751
 6205W        W10269   8.201   8.543   7.868  0.3003  0.2636  0.1678
 6206W        W10270   7.176   3.283   1.600  0.0972  0.2409 -0.0130
 6207W        W10271   3.821   8.781  11.268 -0.0835 -0.1170 -0.1497
 6208W        W10272   8.263   2.894   2.886 -0.0622  0.0698 -0.0813
 6209W        W10273   2.370   5.721   2.915  0.1227 -0.1370  0.1005
 6210W        W10274   0.377   0.893   2.302  0.0378 -0.0328  0.0017
 6211W        W10275   6.703   3.077   0.258 -0.0364  0.1574  0.0991
 6212W        W10276   8.275   7.728   7.449  0.2799 -0.2029 -0.0927
 6213W        W10277   9.872   9.770   7.975 -0.0659 -0.3887  0.3514
 6214W        W10278   0.352   3.896   3.477  0.1446 -0.1339 -0.1384
 6215W        W10279   5.580   9.452   1.879  0.2112  0.0948 -0.0525
 6216W        W10280   4.651   2.609   9.810 -0.3045  0.0556 -0.2813
 6217W        W10281   4.130   9.637  11.093 -0.0655 -0.0128  0.1117
 6218W        W10282   5.744   9.310   2.349  0.1695  0.2344  0.0174
 6219W        W10283   5.799   7.957  11.286  0.0785 -0.2708  0.0978
 6220W        W10284   4.010   0.955   1.549  0.1330  0.1403 -0.2425
 6221W        W10285   2.379  10.698   1.374  0.1344  0.0506  0.2801
 6222W        W10286   0.489   8.373   9.764 -0.1866 -0.2237  0.1010
 6223W        W10287   0.009   7.986   1.686 -0.1683  0.0683  0.3277
 6224W        W10288   9.269   8.470   9.136  0.3408 -0.0938 -0.0812
 6225W        W10289  10.325   7.057   0.370 -0.0105 -0.1937 -0.1566
 6226W        W10290  10.019   3.845   0.143  0.0192 -0.1105  0.1031
 6227W        W10291   0.634   9.821   2.382 -0.2025 -0.1235 -0.1742
 6228W        W10292   7.541   2.580   0.822  0.1110  0.0906  0.1820
 6229W        W10293   3.672   1.651   3.300 -0.2049  0.0525 -0.0525
 6230W        W10294  10.697   6.779  10.323  0.0123 -0.1132 -0.0343
 6231W        W10295   6.811   2.607   0.106  0.0844 -0.1624 -0.1484
 6232W        W10296   1.063   7.085   8.644  0.1451  0.3958  0.1473
 6233W        W10297  10.316   3.473   7.167  0.0392 -0.2040  0.0307
 6234W        W10298   9.276   1.888   0.594  0.0763  0.3552 -0.1453
 6235W        W10299   7.240   3.263   2.591  0.1065 -0.1838 -0.3384
 6236W        W10300   2.433   5.257   8.516  0.2945 -0.0852 -0.0561
 6237W        W10301   7.457   8.305   9.539  0.0912 -0.0486  0.0201
 6238W        W10302   6.674   6.986  10.578 -0.1433 -0.1424 -0.0330
 6239W        W10303   7.844   6.865   8.459  0.0729 -0.0426  0.1851
 6240W        W10304   8.130   8.411   1.295 -0.1128  0.0092  0.3408
 6241W        W10305   9.524   6.755   7.794  0.0047 -0.3299 -0.0713
 6242W        W10306   2.382   1.461   3.071 -0.1394  0.0874 -0.0780
 6243W        W10307   2.274   1.332   1.699 -0.0886  0.0815  0.0316
 6244W        W10308   8.057   5.716   1.056 -0.1864  0.0498  0.0131
 6245W        W10309   3.080   1.859  10.520 -0.1717 -0.1166  0.0529
 6246W        W10310   3.718   6.935   1.445  0.0448  0.1470  0.1862
 6247W        W10311   0.389   5.258   1.741 -0.0458  0.0563 -0.0392
 6248W        W10312   6.133   0.084  11.308  0.0542 -0.1473  0.2351
 6249W        W10313  10.403   6.469   8.424  0.0904  0.0316 -0.2999
 6250W        W10314   3.972   1.680   1.062  0.2137  0.2196 -0.0633
 6251W        W10315   7.506   9.950  10.627 -0.1115 -0.0826  0.1702
 6252W        W10316   8.629   2.810   9.849 -0.2208  0.0256  0.5375
 6253W        W10317   4.415   6.242  10.973 -0.0029 -0.0382  0.1199
 6254W        W10318   6.085   7.987   0.634 -0.0028  0.0615 -0.1494
 6255W        W10319   5.313   9.058   1.132 -0.0898 -0.1217 -0.1798
 6256W        W10320   6.871   5.380   1.755 -0.0529  0.0574 -0.2340
 6257W        W10321   2.232   5.422   0.326  0.0648  0.3240 -0.1558
 6258W        W10322   1.255   8.316   2.239  0.0902 -0.2787  0.0196
 6259W        W10323   1.620   6.414   8.997 -0.0522 -0.1768  0.0344
 6260W        W10324   4.947   6.888   8.310 -0.0215  0.0021  0.0013
 6261W        W10325   7.777   1.473   2.687 -0.1736  0.0310 -0.0173
 6262W        W10326   1.525   8.762   8.231  0.2700  0.0196  0.0336
 6263W        W10327   9.053   9.893   7.439  0.2684  0.2165 -0.2689
 6264W        W10328   8.016   0.307   9.524 -0.2351 -0.3524  0.2478
 6265W        W10329   7.954   9.185  10.002  0.1077  0.3106 -0.0077
 6266W        W10330   4.781   3.785   9.089  0.0211  0.2400 -0.3036
 6267W        W10331   2.195   8.412   0.215  0.1075 -0.0596  0.1932
 6268W        W10332   4.477   6.523   2.176  0.2075 -0.2571 -0.0358
 6269W        W10333   3.755   4.246   1.709 -0.1716  0.0467 -0.2918
 6270W        W10334   0.799   9.360   1.236  0.1637 -0.1164  0.3090
 6271W        W10335   7.340   2.833   7.860  0.1946  0.0732 -0.0100
 6272W        W10336   9.163   7.096  10.251 -0.0954  0.0375 -0.1505
 6273W        W10337  10.367   3.119  10.988  0.0365  0.2352 -0.1256
 6274W        W10338   8.094   9.025  10.604 -0.0444  0.2726  0.1218
 6275W        W10339   0.587   0.285   0.801  0.1434  0.2854  0.1739
 6276W        W10340   7.056   3.453  10.473  0.0697 -0.3778  0.0713
 6277W        W10341   6.152   4.964  10.406  0.1175 -0.0718  0.0861
 6278W        W10342   2.841   1.313   1.073  0.0664 -0.0076 -0.0413
 6279W        W10343   2.181   5.421   2.088 -0.1644 -0.1154 -0.0251
 6280W        W10344   4.688   5.293   1.354 -0.1492  0.0125  0.0727
 6281W        W10345   0.785   0.849   7.141 -0.0222  0.0810 -0.3668
 6282W        W10346   6.455   1.199   0.686  0.0119 -0.1195 -0.1333
 6283W        W10347   1.775   5.313   1.789 -0.1258  0.0615 -0.0236
 6284W        W10348   6.763   0.296   8.749  0.1515 -0.0123  0.0981
 6285W        W10349   8.541   7.590   0.780  0.1760 -0.1220  0.0262
 6286W        W10350   6.018   5.513   7.757  0.0342 -0.0831 -0.0162
 6287W        W10351  10.210  10.305   8.383  0.3099  0.1462 -0.3710
 6288W        W10352   5.582   2.486   0.855 -0.3009 -0.0152  0.0939
 6289W        W10353   5.276   2.541   8.963 -0.2592 -0.2436 -0.0103
 6290W        W10354  10.473   5.030  10.628 -0.1577  0.0790  0.0033
 6291W        W10355   1.796   6.547   8.172 -0.1203  0.6187  0.0529
 6292W        W10356   0.475   1.499   0.476 -0.1840  0.1483 -0.0190
 6293W        W10357   1.774   8.400   2.472  0.0627  0.1406  0.0930
 6294W        W10358   5.448   7.335  11.058 -0.4019  0.1391 -0.2284
 6295W        W10359   5.832   5.938   8.624  0.0086  0.2807  0.2592
 6296W        W10360   6.261   6.805   9.324  0.0888 -0.1111 -0.0404
 6297W        W10361   8.278   9.428  10.293 -0.1435 -0.0438 -0.3160
 6298W        W10362  10.240   9.974  10.787  0.1423 -0.1645  0.2098
 6299W        W10363   2.921   9.959   2.175  0.0724 -0.1977 -0.1944
 6300W        W10364  10.109   5.010   9.307 -0.1125 -0.0280 -0.0631
 6301W        W10365   5.990   2.507   2.609  0.0405  0.1638 -0.0169
 6302W        W10366   8.716   3.915   8.434 -0.1902 -0.2288  0.0070
 6303W        W10367   6.603   5.659   0.133 -0.0587  0.0892 -0.0207
 6304W        W10368   4.234   9.158   1.767 -0.1117 -0.0944 -0.0648
 6305W        W10369   0.231   5.293   0.139  0.0031 -0.0565  0.0259
 6306W        W10370   4.085   7.715  10.104  0.3379  0.3619 -0.0872
 6307W        W10371   3.137   1.019   0.097 -0.2702  0.1808  0.0010
 6308W        W10372  10.336  10.482  10.205 -0.0032  0.2322  0.0853
 6309W        W10373  10.548   3.645   8.587  0.4022 -0.1358 -0.1064
 6310W        W10374   7.762   2.680   0.075  0.3323  0.1963  0.0665
 6311W        W10375   0.996   7.082   3.115  0.0273 -0.0591  0.0717
 6312W        W10376   1.825   9.483   2.948  0.0878 -0.0945  0.1916
 6313W        W10377   4.802   2.219   2.904  0.1670  0.1733 -0.0468
 6314W        W10378   5.036   5.709   8.144  0.1820 -0.0429 -0.2455
 6315W        W10379   2.571   4.166  10.792  0.2128  0.0424 -0.1800
 6316W        W10380   5.466   9.322  10.997  0.2380 -0.0728  0.2312
 6317W        W10381   6.783   6.245   1.292  0.2441  0.0323  0.0335
 6318W        W10382   9.228   8.590   2.173  0.1194 -0.0386 -0.0776
 6319W        W10383   7.877   5.294   2.348  0.1586  0.0223  0.0869
 6320W        W10384  10.510   5.146  11.316  0.3215 -0.1512 -0.1941
 6321W        W10385   2.142   2.724   3.444  0.0730 -0.2311 -0.0874
 6322W        W10386   5.952   5.234   0.487  0.0847 -0.0805 -0.1440
 6323W        W10387   5.746   5.235  10.041  0.0837  0.2902 -0.1213
 6324W        W10388   0.306   0.518   0.346  0.0733 -0.0868 -0.0277
 6325W        W10389   6.193   6.735   1.569 -0.0567  0.1145 -0.1237
 6326W        W10390  10.212   3.738   2.086 -0.0372 -0.0063  0.2526
 6327W        W10391   1.473   3.620   2.294  0.2129 -0.1328 -0.0357
 6328W        W10392   4.596   9.690   3.048  0.0133 -0.1060  0.0187
 6329W        W10393   7.403   5.186   2.514 -0.2619 -0.1165 -0.1254
 6330W        W10394   5.251   2.769   0.556  0.1009  0.1717 -0.0965
 6331W        W10395   2.442   3.807   1.698  0.1499 -0.3605 -0.1137
 6332W        W10396   1.252  10.091   9.182  0.2008 -0.3726  0.0163
 6333W        W10397   8.888   4.004   2.183  0.1757  0.1321 -0.2292
 6334W        W10398   7.826   5.217   0.228 -0.3380 -0.3417  0.1771
 6335W        W10399   8.432   6.903   0.535  0.0228  0.2004 -0.1284
 6336W        W10400   8.296   2.311   2.918 -0.2338  0.1055 -0.0432
 6337W        W10401   5.292   0.026   0.304 -0.5029 -0.1237 -0.2008
 6338W        W10402   1.407  10.438   0.858  0.5068  0.2034 -0.1133
 6339W        W10403   6.810   0.278   9.309  0.1890 -0.0535  0.0624
 6340W        W10404   5.922   5.535   1.461  0.1652 -0.0433 -0.1111
 6341W        W10405   9.110   9.814   9.655 -0.1155  0.0710 -0.2558
 6342W        W10406   6.455   9.906   0.882 -0.0251  0.1747 -0.1485
 6343W        W10407   1.218   0.884   2.879  0.0538 -0.6030 -0.1766
 6344W        W10408   9.211   9.421   1.745  0.0040  0.1788  0.0466
 6345W        W10409   6.176   7.532   7.963 -0.1066  0.1002 -0.0246
 6346W        W10410   3.964   4.840   9.704  0.0299 -0.1136  0.1331
 6347W        W10411   5.232   1.591   8.310  0.1193 -0.1023  0.0313
 6348W        W10412   0.946   6.606   0.572  0.1790 -0.0786 -0.3941
 6349W        W10413   1.254   2.792   9.896  0.0796  0.0701  0.0521
 6350W        W10414  10.512  10.269   9.373 -0.1630 -0.3668 -0.0240
 6351W        W10415   1.225   6.911   9.081 -0.1875 -0.2336  0.4407
 6352W        W10416   9.045   9.857   2.001 -0.2527  0.2048 -0.0278
 6353W        W10417   3.629   0.524   1.369  0.0600  0.0434 -0.0267
 6354W        W10418  10.057   2.751   0.571 -0.1802 -0.0127 -0.1127
 6355W        W10419   1.179   6.907   8.145 -0.0221 -0.1527 -0.1959
 6356W        W10420   1.624  10.489   1.872  0.1533  0.1756  0.0334
 6357W        W10421   1.513   8.078  10.434 -0.0633  0.0443  0.3321
 6358W        W10422  10.031   7.336   2.685  0.3584 -0.1040 -0.0106
 6359W        W10423   7.014   6.944   2.630  0.1867  0.0290  0.2759
 6360W        W10424   5.776   7.752  10.609 -0.2339 -0.3035  0.1295
 6361W        W10425   2.611   8.769   3.751  0.0694  0.2196  0.2843
 6362W        W10426   2.399   0.599   1.078 -0.2574 -0.0858  0.1005
 6363W        W10427   0.538   2.908  11.309 -0.1782 -0.2934 -0.0611
 6364W        W10428   3.012   6.851   2.795 -0.1797 -0.1126  0.0199
 6365W        W10429   3.914  10.702   2.926 -0.2774  0.1246 -0.3165
 6366W        W10430   9.472   7.582   0.279  0.2562  0.2257 -0.1069
 6367W        W10431   0.184   9.916   2.670  0.0237  0.2066  0.1822
 6368W        W10432   2.800   7.160   1.460 -0.3653  0.1875  0.0120
 6369W        W10433   4.915   0.806   1.525  0.0801 -0.0743 -0.0736
 6370W        W10434   9.344   4.251  10.976  0.0527  0.1804  0.1128
 6371W        W10435  10.726   9.611   1.207  0.0542 -0.1760  0.1623
 6372W        W10436   5.972  10.284  10.399  0.2146  0.1284 -0.1428
 6373W        W10437   9.201   7.266   8.703  0.1117 -0.0466 -0.0105
 6374W        W10438   9.736  10.135   2.819  0.2557  0.1030  0.1392
 6375W        W10439   1.072   0.015   8.452 -0.0078 -0.1164  0.0316
 6376W        W10440   7.057   7.708   7.923 -0.3259  0.1307  0.0423
 6377W        W10441   3.966   1.640   3.893  0.1167  0.0696  0.0457
 6378W        W10442   2.665   8.336   0.617  0.2108 -0.1608  0.1915
 6379W        W10443   6.219   2.460   8.208  0.1378  0.3020 -0.2732
 6380W        W10444   1.114   1.764   9.294 -0.0131  0.3014  0.1459
 6381W        W10445   7.093   3.258   8.090 -0.4315 -0.0421  0.1354
 6382W        W10446   7.413   7.950   3.383 -0.0724  0.0344  0.2516
 6383W        W10447   5.983   4.707   0.464 -0.0750 -0.0298 -0.2991
 6384W        W10448   0.251   2.582   2.329 -0.1252 -0.2404  0.1270
 6385W        W10449   2.243   9.323   8.650 -0.1229  0.0763  0.0550
 6386W        W10450   6.792   8.239  10.279 -0.0808  0.2578 -0.2264
 6387W        W10451   5.588   5.224   1.253 -0.0367  0.1279 -0.0304
 6388W        W10452   7.421   1.071   0.963 -0.0129  0.4196 -0.1737
 6389W        W10453   0.226   0.777   8.917  0.1171 -0.1139 -0.0308
 6390W        W10454   2.051   6.553   9.514 -0.4383  0.3065  0.0956
 6391W        W10455   6.196   0.328   2.590 -0.2323  0.2378 -0.0605
 6392W        W10456   9.525   9.515   2.231  0.1850 -0.0728  0.2407
 6393W        W10457   4.086   3.851   1.453  0.1496 -0.1738 -0.0612
 6394W        W10458   6.524   9.346   2.114 -0.2332 -0.2660 -0.3139
 6395W        W10459   8.804   1.722   2.357 -0.0052 -0.3775 -0.2752
 6396W        W10460   2.963   0.033   8.230  0.1714 -0.0155  0.1293
 6397W        W10461   4.901   6.233   2.221  0.2218  0.1352 -0.1667
 6398W        W10462   8.012   9.854  10.389  0.3037 -0.0290 -0.2683
 6399W        W10463   2.000   6.190   9.901  0.1649  0.0241 -0.5518
 6400W        W10464   8.060  10.744   8.221 -0.0043  0.1939 -0.1059
 6401W        W10465   6.050   1.701   2.536 -0.0736 -0.1637 -0.2482
 6402W        W10466   8.955   0.725   1.069 -0.1946  0.2715  0.0950
 6403W        W10467   7.826   1.482  10.992 -0.4918 -0.1303  0.1665
 6404W        W10468   6.652   0.042   2.329 -0.3106  0.1186 -0.1358
 6405W        W10469   9.850  10.418   8.696  0.0954  0.2181 -0.2234
 6406W        W10470   4.365   9.975   0.209 -0.0929 -0.0407 -0.1719
 6407W        W10471   8.904   2.800   8.278  0.0877 -0.0954  0.1562
 6408W        W10472  10.028   6.525   8.881 -0.2983 -0.2737  0.0618
 6409W        W10473   4.021   0.898   8.366 -0.0322 -0.1579 -0.1457
 6410W        W10474   3.945   5.842   2.293 -0.1496 -0.1683 -0.0042
 6411W        W10475   0.820   5.087  10.758  0.0484  0.1549  0.0373
 6412W        W10476  10.500   1.051   7.545 -0.0575  0.2564  0.2667
 6413W        W10477   6.499   1.971   1.533 -0.3779  0.3067 -0.1471
 6414W        W10478   5.218   6.906   0.422 -0.1229 -0.0825  0.1565
 6415W        W10479   0.457   1.472  11.318  0.0484 -0.0451  0.0921
 6416W        W10480   7.177   9.527   7.616  0.0163 -0.1381  0.0432
 6417W        W10481   8.787   6.958   3.444 -0.0675 -0.1517 -0.0513
 6418W        W10482   5.772   6.270   8.992 -0.1017 -0.2201 -0.0862
 6419W        W10483   9.585   2.451   0.511 -0.2951 -0.2259 -0.0153
 6420W        W10484   6.654   0.502   2.984 -0.1107  0.1985  0.1234
 6421W        W10485   5.416   5.621   7.810 -0.1965  0.0960 -0.1382
 6422W        W10486   9.765   3.229   3.367  0.1533  0.1652  0.3268
 6423W        W10487   4.756   6.364  10.603  0.0872  0.4339  0.1246
 6424W        W10488   6.482   7.309  10.950  0.1405  0.3751 -0.1672
 6425W        W10489   3.186   3.622   2.848 -0.2699  0.3334  0.0107
 6426W        W10490   3.214   7.723   9.999  0.2167  0.2306 -0.1242
 6427W        W10491   0.187  10.661  10.591 -0.0665 -0.2594  0.0981
 6428W        W10492   9.768   4.015   3.315  0.2456 -0.1009 -0.1437
 6429W        W10493   4.170   0.475   0.651  0.0677 -0.3592 -0.1088
 6430W        W10494   9.364   5.725   7.175 -0.0049  0.0389 -0.0190
 6431W        W10495   5.142   9.503   9.613  0.3570  0.1936 -0.1842
 6432W        W10496   2.357   5.352   9.952 -0.2152 -0.0912  0.0392
 6433W        W10497   7.546   7.637   7.910 -0.0115 -0.0289  0.0593
 6434W        W10498   2.672   0.844   0.070  0.0890 -0.1214 -0.0572
 6435W        W10499   0.119   1.652   8.310  0.1901 -0.2652  0.0546
 6436W        W10500   2.093   5.717   9.766  0.1244 -0.1956  0.0766
 6437W        W10501   0.141   0.340   9.731  0.0763 -0.1267 -0.2586
 6438W        W10502   1.215   7.028   0.737  0.0106 -0.0608 -0.0334
 6439W        W10503   2.784   9.990  11.145 -0.0859 -0.1277 -0.0361
 6440W        W10504   1.100   7.442   1.399  0.0911 -0.0021 -0.0863
 6441W        W10505   1.850   6.230   2.673 -0.2709  0.1977  0.2605
 6442W        W10506   5.813   5.431   8.547 -0.3288  0.1287  0.1213
 6443W        W10507   0.912   3.119   9.300  0.1087 -0.3876 -0.3142
 6444W        W10508   4.978   5.090   2.831  0.0119  0.0196  0.0053
 6445W        W10509  10.197   8.007  10.123  0.0987  0.1321  0.0748
 6446W        W10510   7.932   3.045   2.534  0.2653  0.1168  0.1726
 6447W        W10511   2.863   6.534   0.595 -0.3136 -0.2856 -0.3281
 6448W        W10512   3.458   8.456   2.763  0.0974  0.0533  0.4472
 6449W        W10513   9.148   8.345  11.270  0.0099  0.2400  0.0102
 6450W        W10514   6.645   8.143   2.774  0.2904 -0.1638 -0.1662
 6451W        W10515  10.390   2.866   9.495  0.1856 -0.1299 -0.0069
 6452W        W10516   9.315   6.290   8.493  0.3178 -0.1240  0.2151
 6453W        W10517   8.981   3.694   3.605 -0.4005  0.1140  0.0773
 6454W        W10518   7.478   2.151   7.484 -0.0484 -0.1310 -0.1161
 6455W        W10519   3.521   2.380  11.158  0.1729  0.1018 -0.1594
 6456W        W10520   0.803   5.418   3.246  0.1316  0.0391 -0.1693
 6457W        W10521   3.453   6.977  10.287 -0.2080  0.0819 -0.2539
 6458W        W10522   3.760   1.195  10.738 -0.2435 -0.0235  0.1453
 6459W        W10523   7.473   5.211   9.949 -0.0066  0.0368  0.2504
 6460W        W10524   2.916   5.269   8.652  0.1574  0.0575 -0.0314
 6461W        W10525   6.983   6.153   8.176 -0.1370 -0.0412  0.0590
 6462W        W10526   8.591   2.057   8.220  0.0232  0.0775 -0.1171
 6463W        W10527   0.124   1.215   8.611 -0.0202  0.0482 -0.0112
 6464W        W10528   8.488   0.226   9.395  0.0063  0.1043  0.1114
 6465W        W10529   3.132   0.503   1.462 -0.2249 -0.1694  0.0450
 6466W        W10530   4.206   5.423   9.888 -0.1598  0.0163 -0.2396
 6467W        W10531   1.257   7.392   8.077  0.1134  0.2158  0.1214
 6468W        W10532   9.033   8.580   8.266 -0.4430 -0.1527  0.1660
 6469W        W10533   0.326   5.615   7.139  0.1116 -0.1226  0.0296
 6470W        W10534  10.531   1.341   3.640 -0.3036 -0.0215 -0.2388
 6471W        W10535   9.537   8.723   7.236 -0.0264 -0.2489  0.1305
 6472W        W10536   6.986   0.389  10.348 -0.4644  0.2342 -0.1153
 6473W        W10537   0.901   6.019  10.729 -0.1202  0.1399 -0.1162
 6474W        W10538   6.369   6.782  10.227 -0.0247 -0.3203  0.0362
 6475W        W10539  10.604   1.163   2.876  0.0174  0.0301  0.1105
 6476W        W10540   7.002  10.086   1.090 -0.1579 -0.0974 -0.2794
 6477W        W10541   2.276   6.441   3.579  0.3139  0.2322 -0.0692
 6478W        W10542   7.063   4.608  10.520  0.0554  0.0221  0.3414
 6479W        W10543   1.440   2.495  10.291 -0.0310  0.1000  0.0284
 6480W        W10544   8.118  10.550   9.599  0.0714 -0.3303 -0.0168
 6481W        W10545   5.553   4.386   9.606 -0.0393  0.1199 -0.0951
 6482W        W10546   7.912   9.160   8.122  0.2119 -0.1391 -0.0155
 6483W        W10547   2.608   2.721  10.159  0.2446 -0.2410  0.0344
 6484W        W10548   1.487   6.302   3.027  0.0426 -0.1333  0.0685
 6485W        W10549   6.164   8.357   1.536  0.1521  0.4195 -0.2298
 6486W        W10550   0.606   9.018   8.081 -0.0860  0.0002 -0.0359
 6487W        W10551   6.948   6.386   0.821  0.2022 -0.1104  0.0638
 6488W        W10552   6.948   6.355   9.777  0.2970 -0.1331  0.0096
 6489W        W10553   8.894  10.279   1.206  0.1546  0.0494 -0.0255
 6490W        W10554   9.044  10.339   9.696  0.0037  0.0815 -0.2251
 6491W        W10555   3.617   6.913  11.073 -0.0238  0.1854 -0.2691
 6492W        W10556   7.549  10.259   3.619  0.1277  0.1126 -0.1156
 6493W        W10557   8.565   3.940   9.910  0.0102  0.2274 -0.1968
 6494W        W10558   1.199  10.537   2.305  0.0664  0.0428  0.0497
 6495W        W10559   9.347   4.114   7.776 -0.5844  0.3080 -0.1257
 6496W        W10560   6.738   0.656   7.526  0.0001 -0.0223 -0.0878
 6497W        W10561   0.272   1.425   3.628 -0.0832  0.2085 -0.0234
 6498W        W10562  10.514   8.715   8.948 -0.0162 -0.0848  0.1993
 6499W        W10563   0.117   7.683   2.546  0.1657 -0.0574 -0.0884
 6500W        W10564   4.997  10.770   1.761 -0.0744  0.0269  0.0568
 6501W        W10565   7.086   9.005   2.849  0.0873 -0.0666 -0.0272
 6502W        W10566   5.168   8.971  10.665  0.0344  0.1235  0.1779
 6503W        W10567  10.393   4.510   2.583 -0.1302 -0.2082  0.2746
 6504W        W10568   9.839   2.838   8.607 -0.1687 -0.0098 -0.0855
 6505W        W10569   5.255   9.745  11.136 -0.2700 -0.4193  0.0183
 6506W        W10570   4.941   0.585  11.092 -0.0858  0.0023  0.0861
 6507W        W10571   7.489  10.752   3.580  0.1422  0.0527 -0.2683
 6508W        W10572   5.245  10.061   2.908 -0.5116  0.1708 -0.3145
 6509W        W10573   3.014   6.682   8.999 -0.0552 -0.1378  0.0226
 6510W        W10574   2.523   4.185   6.985 -0.1116 -0.0918 -0.2137
 6511W        W10575   6.516   3.006   8.557 -0.2627 -0.1426  0.3937
 6512W        W10576   6.213   1.260   2.871  0.1836 -0.0690 -0.0868
 6513W        W10577   8.492   3.066   8.510  0.0114  0.0790  0.3740
 6514W        W10578   2.362   2.990   9.314  0.0574 -0.1663  0.0815
 6515W        W10579   8.161   7.535   8.687  0.5553 -0.2496  0.1050
 6516W        W10580  10.076   9.860  11.261 -0.0483 -0.2610  0.2706
 6517W        W10581   5.711   4.810   2.689  0.1105  0.3600 -0.1092
 6518W        W10582   0.403   6.597  10.065  0.0656 -0.1305  0.0339
 6519W        W10583   1.014   1.557   7.021  0.0061  0.3592 -0.2527
 6520W        W10584   2.633   4.858   1.873 -0.2975 -0.0069 -0.2598
 6521W        W10585   4.903   6.619  11.042 -0.0269 -0.2188 -0.1461
 6522W        W10586   8.080   3.419   1.530 -0.1723 -0.4936 -0.1421
 6523W        W10587   1.294   7.185   2.707  0.1961  0.0337 -0.2314
 6524W        W10588   5.093   6.192   8.261  0.1061  0.0767  0.0363
 6525W        W10589  10.478   4.183  11.248 -0.1398  0.2214 -0.1168
 6526W        W10590   0.442   8.289  10.240 -0.0639 -0.2219 -0.2022
 6527W        W10591   3.990   2.328   2.768  0.0320  0.1197  0.0483
 6528W        W10592   7.513   9.705   9.198  0.0061 -0.0379  0.1160
 6529W        W10593   6.196   0.345   1.205 -0.1201 -0.0352  0.0571
 6530W        W10594  10.654   8.905   1.089 -0.0447  0.1225 -0.2101
 6531W        W10595   6.378  10.652   3.795  0.1243  0.2763 -0.0776
 6532W        W10596   1.275   9.114   9.687  0.0632 -0.0284 -0.0504
 6533W        W10597   2.684   9.034   1.135  0.0187 -0.4583 -0.0383
 6534W        W10598   4.195   4.675   7.889  0.0671  0.4952  0.1436
 6535W        W10599   2.352   7.435   3.086  0.2138  0.1829 -0.0237
 6536W        W10600   5.495   9.390   1.395 -0.2061  0.0388 -0.0208
 6537W        W10601   6.817   0.652   1.029  0.0412  0.0655  0.2334
 6538W        W10602   7.552   9.537   8.371  0.0580  0.1860  0.0099
 6539W        W10603   2.254   7.060   1.332  0.4791  0.2812 -0.0069
 6540W        W10604   3.645   4.944  11.284  0.0388  0.1695  0.0647
 6541W        W10605   0.061   6.039  11.082  0.1359 -0.0896  0.1596
 6542W        W10606   4.650   5.394   3.030  0.2284  0.0638  0.0038
 6543W        W10607   7.359   7.825   1.257 -0.0026 -0.2752 -0.1857
 6544W        W10608   8.613   5.830   8.996  0.0105 -0.1617 -0.1610
 6545W        W10609   2.768   4.312   0.868  0.3063  0.0537  0.0702
 6546W        W10610   2.278   6.963   9.347 -0.4495  0.0433  0.0407
 6547W        W10611   9.128   7.959   9.988  0.1088  0.0590 -0.2550
 6548W        W10612   4.629   2.305   2.128  0.1854  0.1450 -0.0843
 6549W        W10613   0.247  10.651  10.089 -0.1044  0.0457  0.2464
 6550W        W10614   8.617   2.482   1.670 -0.0617 -0.0299 -0.1071
 6551W        W10615   4.246   7.691   8.961  0.3012 -0.0321  0.0927
 6552W        W10616   2.187   9.940   1.525  0.0537  0.0998 -0.2187
 6553W        W10617   4.277   0.195   3.828 -0.0663  0.1844  0.1895
 6554W        W10618   8.572   5.098   1.227 -0.0011  0.4544  0.1769
 6555W        W10619   9.039   9.515  10.092 -0.1585 -0.1018  0.0057
 6556W        W10620   3.663   3.623   0.381 -0.0504  0.1704  0.0580
 6557W        W10621   6.547   7.158   9.010 -0.2527  0.1425 -0.0642
 6558W        W10622   4.467   1.429   0.832  0.0781  0.0868 -0.0991
 6559W        W10623   2.539   0.035   8.563  0.1363 -0.1935  0.0755
 6560W        W10624   0.240   9.527  10.639 -0.0442  0.1154 -0.1344
 6561W        W10625   3.167   9.069   1.446 -0.1590  0.1460 -0.2470
 6562W        W10626   8.695   0.905   1.400 -0.0421 -0.0457 -0.1725
 6563W        W10627   7.850  10.693  11.207 -0.0302  0.0913  0.0282
 6564W        W10628   3.553   2.517   8.983  0.6887 -0.2567 -0.0738
 6565W        W10629   0.370   3.360   9.224  0.0852 -0.2243 -0.0153
 6566W        W10630   2.859   7.654   1.760 -0.0442  0.0711 -0.0203
 6567W        W10631   6.827   3.859  10.864 -0.2060  0.2877 -0.2333
 6568W        W10632   0.295   6.119   1.715  0.0786  0.1265 -0.2303
 6569W        W10633   6.962   1.865   1.175  0.0065  0.0970 -0.2638
 6570W        W10634   5.121   4.013   3.010 -0.2292  0.1554 -0.2582
 6571W        W10635   1.385   0.392   9.605  0.2527 -0.1079  0.1626
 6572W        W10636   4.632   6.319   0.609 -0.2961  0.1476  0.1482
 6573W        W10637   4.668   9.006  10.710 -0.1158  0.1097 -0.0926
 6574W        W10638   8.992   8.012   2.419 -0.0516  0.1416 -0.1302
 6575W        W10639   2.487   1.669   2.579  0.0557  0.3169 -0.0608
 6576W        W10640   2.234   3.192   8.745  0.0520  0.1343  0.1749
 6577W        W10641   8.881   8.922   9.850  0.1606  0.2423  0.1398
 6578W        W10642   6.331   6.223   1.350 -0.1038  0.2719 -0.1795
 6579W        W10643   0.548   1.227   2.696  0.0330 -0.0766  0.1522
 6580W        W10644   1.278   4.509  10.572  0.0059  0.1935  0.0750
 6581W        W10645   6.747   7.472   8.655  0.2912 -0.2566  0.1042
 6582W        W10646   6.486   3.828   1.414 -0.0143 -0.2791 -0.0539
 6583W        W10647  10.338   3.819  10.428 -0.0013  0.0151 -0.0311
 6584W        W10648   7.465   6.754   1.404  0.1949 -0.1913  0.3152
 6585W        W10649   1.689   6.839  10.350  0.0337 -0.2263 -0.2596
 6586W        W10650   2.237   7.257   1.773  0.1476 -0.0283 -0.0132
 6587W        W10651   0.144   0.740   7.665 -0.0399  0.0225 -0.0338
 6588W        W10652   5.255   2.661  10.442 -0.0283  0.1183  0.0463
 6589W        W10653   8.789   4.093   8.882  0.3397 -0.1131  0.0694
 6590W        W10654   0.949   3.362  10.810 -0.1141 -0.0460  0.0967
 6591W        W10655   1.414   2.276   2.798 -0.4339 -0.2122  0.1325
 6592W        W10656   4.758   6.767   0.301  0.0186  0.0157 -0.0213
 6593W        W10657   4.014   7.439  10.518  0.1055 -0.1784 -0.4749
 6594W        W10658   7.213   9.121   3.583  0.2413  0.2886  0.2042
 6595W        W10659   0.615   5.746   1.886  0.1565 -0.2512 -0.1112
 6596W        W10660   0.390   3.882   2.058  0.1164  0.0975  0.0292
 6597W        W10661   3.988   3.431   1.692  0.2589  0.0478 -0.1650
 6598W        W10662   7.766   1.937   8.516 -0.1978 -0.2062 -0.2471
 6599W        W10663   2.956   4.481   1.909 -0.4167 -0.1368 -0.0084
 6600W        W10664   7.987   2.235   1.396  0.0438 -0.2395 -0.0934
 6601W        W10665   2.950   3.816  10.995  0.2052  0.0096 -0.0895
 6602W        W10666   3.650   9.784   3.534 -0.2157  0.1093 -0.2650
 6603W        W10667   2.873   9.875   7.709 -0.3126  0.2393  0.0460
 6604W        W10668   0.056   7.895   7.834 -0.3261 -0.2212 -0.0679
 6605W        W10669   4.760   3.910   2.243  0.1867  0.0594 -0.0558
 6606W        W10670   5.461   1.081   9.595 -0.0027 -0.0039 -0.0887
 6607W        W10671   4.576   7.916   2.398  0.2407 -0.2230  0.2602
 6608W        W10672   3.535   9.250   8.344 -0.1143 -0.0806  0.0102
 6609W        W10673   0.334   7.629   3.521  0.0816  0.1683  0.0765
 6610W        W10674   0.352   8.619   0.933 -0.0696  0.0719 -0.2978
 6611W        W10675   8.978   0.060   0.446  0.0196 -0.3188  0.0498
 6612W        W10676   2.145   7.501   8.408 -0.1399 -0.0244  0.2067
 6613W        W10677   6.597   4.166   8.513  0.0706  0.0423 -0.0144
 6614W        W10678   6.929   8.234   9.195  0.2705  0.0415  0.0793
 6615W        W10679   6.750   1.035   2.893  0.0902  0.4546  0.4460
 6616W        W10680   8.226   2.961   1.556  0.0724  0.1438  0.0437
 6617W        W10681  10.281   9.325  11.225  0.1324  0.0034 -0.1577
 6618W        W10682   1.884   2.183   1.744 -0.2348  0.0207  0.1684
 6619W        W10683   9.592   2.015  10.198  0.0408 -0.0783 -0.0442
 6620W        W10684   2.676   6.745   9.588 -0.1912  0.0685 -0.2089
 6621W        W10685   0.360   5.202   2.246  0.1060 -0.0234 -0.1154
 6622W        W10686   9.666   9.787   9.422 -0.0546  0.2215 -0.2722
 6623W        W10687   4.962   7.254   0.134 -0.0047 -0.2588  0.1798
 6624W        W10688   2.111  10.501   2.186  0.0900 -0.0969 -0.1758
 6625W        W10689   7.389   5.639   2.920  0.1348  0.2988 -0.4492
 6626W        W10690   5.732   7.905   9.923  0.0523  0.0976  0.1528
 6627W        W10691   6.676   1.567  10.353  0.1852  0.1079 -0.1485
 6628W        W10692   2.814   6.413   7.958 -0.2496 -0.3210 -0.0874
 6629W        W10693   4.783   1.400   8.453  0.0076 -0.0903  0.0565
 6630W        W10694   6.823   2.612   9.319 -0.1017  0.1869 -0.0820
 6631W        W10695   4.682   2.916   8.406 -0.2487  0.0228 -0.0991
 6632W        W10696   5.289   8.538   0.532 -0.3023  0.2402 -0.1167
 6633W        W10697   0.785   4.722   8.251  0.3292 -0.1323 -0.3209
 6634W        W10698   8.948   5.454   8.917 -0.2584 -0.0854  0.0580
 6635W        W10699   1.561   9.712   1.839 -0.0678 -0.0693 -0.0168
 6636W        W10700   7.969   4.426   2.043  0.1289 -0.0106  0.1377
 6637W        W10701  10.477   0.533   7.649 -0.0139  0.3449  0.1868
 6638W        W10702   8.480   1.640   7.936  0.0710 -0.0221 -0.1163
 6639W        W10703   1.224   7.492   7.232  0.2645  0.1944  0.5836
 6640W        W10704   3.710   2.882  10.357 -0.0805 -0.2790  0.0333
 6641W        W10705   1.766   1.579   1.008  0.2901 -0.2851 -0.1158
 6642W        W10706   1.677   8.144   1.496  0.0690  0.0983 -0.0453
 6643W        W10707   3.679   1.092   3.225 -0.1146 -0.3041  0.0125
 6644W        W10708   2.956   7.547   9.585 -0.0440 -0.1230 -0.1817
 6645W        W10709   3.639   2.303   1.530 -0.0938 -0.2246  0.1753
 6646W        W10710   2.114   0.006   8.124 -0.2218 -0.0607  0.1626
 6647W        W10711   0.829   1.813   0.264 -0.2707 -0.0580  0.0035
 6648W        W10712   9.595   7.003   8.834 -0.0339  0.0343  0.0093
 6649W        W10713   4.742  10.694   9.089 -0.0466 -0.0768 -0.1436
 6650W        W10714  10.423   4.656   0.125  0.0647 -0.1996 -0.2488
 6651W        W10715   9.586   5.871   6.766  0.0652  0.0564  0.2012
 6652W        W10716   9.622   9.387  10.449  0.0467  0.0843  0.2432
 6653W        W10717   9.463  10.656   0.568 -0.1173 -0.1345  0.1444
 6654W        W10718   2.165   9.534   2.616 -0.3125  0.0496 -0.2232
 6655W        W10719   4.336   9.253  10.894  0.2251 -0.1817  0.0809
 6656W        W10720   5.055   0.463   2.558 -0.0775 -0.2089  0.2190
 6657W        W10721   7.803  10.168   9.530  0.1757  0.2559 -0.1488
 6658W        W10722   7.723   4.816   0.931  0.0061  0.3565  0.0299
 6659W        W10723   9.363   4.606  10.622  0.3342 -0.2680  0.3925
 6660W        W10724   3.483   1.974   0.976  0.1429  0.0948 -0.0453
 6661W        W10725   5.605   1.315  10.037  0.1748  0.0102  0.3135
 6662W        W10726   9.459   9.598   9.918 -0.0023  0.0160 -0.2013
 6663W        W10727  10.552   1.867   1.629 -0.4688  0.4555 -0.0165
 6664W        W10728   1.976   1.394   2.685 -0.0733 -0.2602 -0.1395
 6665W        W10729   2.427   4.609   2.241  0.2388  0.1367  0.1566
 6666W        W10730   0.454   0.585   1.797 -0.0489 -0.1494 -0.0088
 6667W        W10731   6.894   5.258   0.030  0.1374  0.2254  0.3424
 6668W        W10732   7.666   9.619   1.786  0.1327  0.1662  0.1943
 6669W        W10733   0.756   5.341   7.361 -0.0843 -0.2730  0.0255
 6670W        W10734   7.093  10.587   1.763 -0.1210  0.4334 -0.1298
 6671W        W10735   5.213   3.373   7.802 -0.0029 -0.1236  0.2324
 6672W        W10736   8.961   3.688  10.085 -0.1942 -0.1561  0.0258
 6673W        W10737   2.374   9.220   3.498  0.1051  0.0342 -0.2173
 6674W        W10738   6.844   1.238   8.383  0.1692  0.4029 -0.1757
 6675W        W10739   7.765   0.304   9.002 -0.3128  0.5266  0.4212
 6676W        W10740   6.775   7.705   7.529 -0.2987 -0.0210  0.0336
 6677W        W10741   9.690   5.423  10.738 -0.0543  0.3440 -0.2931
 6678W        W10742   9.473  10.396   1.016 -0.1188 -0.1141  0.0864
 6679W        W10743  10.575   7.056   1.726 -0.2193  0.3649 -0.0173
 6680W        W10744   4.265   6.372   3.429  0.0614  0.1793  0.1315
 6681W        W10745   0.816  10.644   0.679 -0.1496  0.0329  0.0441
 6682W        W10746   5.260   0.039   1.303 -0.0597 -0.2675  0.0723
 6683W        W10747   1.314   6.222   0.090  0.1706  0.2327  0.1790
 6684W        W10748   5.060   6.526   0.747  0.2972  0.2153 -0.3314
 6685W        W10749   5.702   9.852   3.290 -0.0147  0.1665 -0.0136
 6686W        W10750   4.112   3.061   9.381  0.0446  0.1862 -0.0322
 6687W        W10751   9.524   7.319   7.558  0.1134 -0.0921 -0.3231
 6688W        W10752   8.885   7.296   0.977 -0.1430  0.1326  0.1868
 6689W        W10753   4.454   3.180   3.015  0.2863 -0.1760  0.0702
 6690W        W10754   9.247   1.623   2.992 -0.2612 -0.0791 -0.0159
 6691W        W10755   9.479   5.969   9.553  0.0746  0.1893  0.2089
 6692W        W10756   2.304   1.933   1.607 -0.1571  0.1271  0.1974
 6693W        W10757   3.260   1.235   3.443  0.4225 -0.1101 -0.2960
 6694W        W10758   8.917   1.028   0.096 -0.0915  0.0830  0.2399
 6695W        W10759   2.628   7.442  10.962  0.0098  0.1205 -0.0529
 6696W        W10760   5.964   9.745   8.701 -0.1581 -0.2320  0.1842
 6697W        W10761   0.288   1.820   9.314  0.1123  0.2388 -0.1367
 6698W        W10762   1.819   3.835  10.781  0.1535 -0.1971 -0.2633
 6699W        W10763  10.126   4.602   8.900  0.1579  0.1162  0.0767
 6700W        W10764   2.080   4.427   9.672 -0.4174  0.0297 -0.2606
 6701W        W10765   8.578   6.250   2.884  0.0009  0.1733 -0.2238
 6702W        W10766   2.831   2.539   1.954 -0.4578 -0.1308  0.1255
 6703W        W10767   8.849   8.273   1.336 -0.1274 -0.5703 -0.3494
 6704W        W10768   6.388   6.316   1.799 -0.2055 -0.0124  0.0019
 6705W        W10769   7.524   4.526  10.718 -0.5236 -0.3618  0.0228
 6706W        W10770   4.357   6.099   0.953  0.0658  0.2537 -0.3377
 6707W        W10771   7.589   3.084   7.168 -0.0967  0.0456 -0.1975
 6708W        W10772   8.166   4.129  10.216 -0.0734 -0.3775  0.1310
 6709W        W10773   6.996   7.895   8.824 -0.2300 -0.0942 -0.0531
 6710W        W10774   2.102  10.198  10.345  0.4087 -0.0531  0.0814
 6711W        W10775   5.655   0.270   0.064 -0.2281 -0.1864  0.1994
 6712W        W10776   7.506   4.510   1.345 -0.2889  0.0905  0.4893
 6713W        W10777   2.306   4.097   7.960  0.4561 -0.2852 -0.1957
 6714W        W10778  10.328   6.945   8.187  0.1523  0.0748  0.1524
 6715W        W10779   7.725  10.378   0.662 -0.1424 -0.2112  0.0490
 6716W        W10780   3.842   4.568   0.408 -0.0479 -0.2036 -0.1446
 6717W        W10781   1.697   3.425   1.379  0.2724 -0.2616 -0.4276
 6718W        W10782   0.653  10.733   1.236  0.0110  0.1404 -0.1079
 6719W        W10783  10.079   7.035  10.130  0.4624  0.3309 -0.3132
 6720W        W10784   2.438   2.295   9.743 -0.0198 -0.0698 -0.1618
 6721W        W10785  10.728   5.372  10.354  0.1247 -0.1251 -0.1401
 6722W        W10786   3.813   0.338   3.807  0.1445 -0.1288  0.0551
 6723W        W10787  10.200   7.932   7.267  0.1363  0.0186 -0.0358
 6724W        W10788   8.956   5.035   9.312 -0.1022 -0.0667 -0.1133
 6725W        W10789   0.497   9.177  10.796  0.0927  0.0641  0.4684
 6726W        W10790   8.441   0.613   3.243  0.1339 -0.1879 -0.1546
 6727W        W10791   8.879   2.420   3.039 -0.1970 -0.0407 -0.0301
 6728W        W10792   5.604   4.022   0.057 -0.1285  0.2556  0.3904
 6729W        W10793  10.571   6.069   0.675 -0.3055 -0.0752  0.1347
 6730W        W10794   9.390   5.520  11.227 -0.3071  0.1646  0.0443
 6731W        W10795   9.389   1.754   6.762  0.3050  0.0597 -0.2110
 6732W        W10796   2.910   1.298   7.254 -0.1307 -0.2084 -0.0237
 6733W        W10797   9.265   3.744   0.853 -0.0810 -0.2855  0.1041
 6734W        W10798   9.461   2.440   8.903  0.0381 -0.0434 -0.0653
 6735W        W10799   3.535   8.171   0.670  0.2615 -0.2972 -0.4272
 6736W        W10800   6.183   4.189   9.335  0.2753 -0.1749 -0.3434
 6737W        W10801   8.766   4.381   7.625  0.0122  0.0509 -0.0649
 6738W        W10802   9.771   3.209  10.154  0.2405 -0.0881 -0.1956
 6739W        W10803   8.176   5.964   1.645  0.0088  0.0727  0.2255
 6740W        W10804   1.782   5.452   8.945  0.4710 -0.1197  0.3189
 6741W        W10805   7.613   8.668   2.815  0.0275  0.0976 -0.1043
 6742W        W10806   5.967   2.489  11.316 -0.0723  0.0115  0.1147
 6743W        W10807   2.872   8.404   8.197  0.3528 -0.1282 -0.1446
 6744W        W10808   5.702   1.785   9.982  0.1127 -0.2278  0.0749
 6745W        W10809   6.938   3.766   8.350 -0.1896 -0.0191  0.1471
 6746W        W10810   0.871   9.482   9.972 -0.0388  0.0517 -0.2566
 6747W        W10811   1.025   5.575   0.676  0.2074  0.1817  0.1181
 6748W        W10812   1.748   3.446   9.174 -0.2480  0.1126 -0.1061
 6749W        W10813   4.957   8.153   3.767  0.2321 -0.1234 -0.0754
 6750W        W10814   7.238  10.252   8.977  0.2713  0.4209 -0.2458
 6751W        W10815   9.643   8.010   9.221  0.0886  0.0586 -0.1596
 6752W        W10816   8.375   0.649   9.620  0.0353  0.1057 -0.0373
 6753W        W10817   1.699   4.265   0.287 -0.2159 -0.0164  0.1109
 6754W        W10818   0.236   0.166   9.173  0.0493 -0.2521  0.1772
 6755W        W10819   0.087   1.479   1.527  0.1848  0.3495  0.1350
 6756W        W10820   0.016   6.663   9.688 -0.1258  0.1461 -0.0010
 6757W        W10821   2.220   4.358   2.586  0.0086 -0.0076 -0.0169
 6758W        W10822   1.571   7.709   2.850 -0.0785  0.0205  0.2278
 6759W        W10823   1.325   6.612   7.774 -0.2939  0.0397 -0.0313
 6760W        W10824   2.696  10.391   2.937 -0.0008  0.0282 -0.0847
 6761W        W10825   7.122   8.374   0.198 -0.1380  0.0437  0.0874
 6762W        W10826   5.078  10.178   9.920  0.0458  0.2308  0.5618
 6763W        W10827   9.154   0.133   1.403  0.1537  0.0429 -0.0072
 6764W        W10828  10.612   6.627   7.943  0.0214 -0.1532  0.0733
 6765W        W10829   3.419   0.591   0.123  0.0963 -0.0035  0.0178
 6766W        W10830   9.722   0.200   1.072  0.0161 -0.0416  0.2854
 6767W        W10831  10.755   3.048   8.662 -0.1736 -0.2967  0.0855
 6768W        W10832   1.019   3.344   7.859 -0.1428 -0.2792  0.2281
 6769W        W10833   9.740   2.502  11.254 -0.2000 -0.0002  0.3161
 6770W        W10834   4.608   3.944   9.600  0.1703 -0.1430 -0.1263
 6771W        W10835   6.011   5.602   2.066  0.0757 -0.0680  0.1691
 6772W        W10836   5.640   7.036   7.899  0.2734 -0.1755  0.0546
 6773W        W10837   5.365   5.965   7.335  0.0090  0.0616 -0.1633
 6774W        W10838   3.715   6.832   0.581  0.1633 -0.0010  0.2575
 6775W        W10839   0.662   6.997   0.309  0.1218  0.1561 -0.1730
 6776W        W10840   0.121   4.447   2.454 -0.3150 -0.1768 -0.2146
 6777W        W10841  10.393   9.893   0.916  0.1320  0.1239  0.1128
 6778W        W10842   5.980   5.062   9.026 -0.0001  0.1421 -0.2540
 6779W        W10843   1.858   1.160   1.982 -0.1962 -0.1355  0.1057
 6780W        W10844   6.542   8.461   1.205  0.3214  0.1236  0.0457
 6781W        W10845   5.947   7.253   3.519 -0.1180  0.0570 -0.2473
 6782W        W10846   9.471   5.149   1.087 -0.1111 -0.0070 -0.2708
 6783W        W10847   7.141   9.691   0.790 -0.1268 -0.0488  0.2411
 6784W        W10848  10.764  10.667   9.547  0.0361  0.2619 -0.1918
 6785W        W10849   1.346   7.479   8.736 -0.1866 -0.1405  0.2720
 6786W        W10850   6.464  10.358   8.368  0.0824 -0.1898  0.0350
 6787W        W10851   5.716   8.622   9.457  0.1101  0.1669  0.4259
 6788W        W10852   0.992   2.278   0.727  0.2246  0.1520  0.0322
 6789W        W10853   4.985   7.735   0.322  0.0860 -0.1627  0.0817
 6790W        W10854   0.279   3.486   0.264  0.0306  0.0459 -0.2963
 6791W        W10855   2.630   5.246  11.277 -0.2437 -0.0735 -0.3823
 6792W        W10856   1.264   7.003   1.701  0.1704 -0.1477  0.4062
 6793W        W10857   5.052   1.640   8.828 -0.0292 -0.2347 -0.0651
 6794W        W10858   3.102   1.340   8.286 -0.0969  0.2171  0.0685
 6795W        W10859   6.411   0.615   8.019 -0.0792 -0.0301  0.0181
 6796W        W10860   7.240   9.036   9.024 -0.2042 -0.1647 -0.2584
 6797W        W10861   0.553   4.340  11.170 -0.0727 -0.4221  0.0368
 6798W        W10862   0.135   5.798  10.094 -0.2611  0.0436  0.1762
 6799W        W10863   2.387   6.247   9.619 -0.3340  0.1476  0.0100
 6800W        W10864   1.170   2.283   9.567  0.1291  0.0623 -0.4242
 6801W        W10865  10.640   2.921   9.981 -0.0310 -0.1429 -0.2532
 6802W        W10866  10.416   9.602   2.560  0.1061  0.1028  0.2665
 6803W        W10867   8.598   2.469   8.497  0.3695 -0.0786  0.0947
 6804W        W10868   8.273   8.189   9.338 -0.1897 -0.3031  0.0366
 6805W        W10869   4.198   5.460   8.367  0.1749  0.1118  0.0894
 6806W        W10870  10.413   4.803   9.752 -0.1635  0.1727  0.2672
 6807W        W10871   2.483   7.736   8.721 -0.0257  0.1836  0.1828
 6808W        W10872   5.669   2.975  10.592 -0.0074 -0.0891  0.0292
 6809W        W10873   0.043   1.509  11.008  0.3456  0.0943  0.0936
 6810W        W10874   1.462   7.350   9.178 -0.1259  0.1564  0.0480
 6811W        W10875   0.919   8.013   1.500 -0.1232 -0.1256 -0.1200
 6812W        W10876   3.308   5.808   1.605 -0.1739  0.0919 -0.2200
 6813W        W10877   1.606   0.290   9.027 -0.0760  0.1307 -0.3376
 6814W        W10878   9.654   8.324   8.824  0.0268  0.3085  0.0668
 6815W        W10879   6.688   2.265   8.045 -0.0654  0.3606 -0.0328
 6816W        W10880   3.884   3.912  11.295 -0.1252 -0.0107 -0.0497
 6817W        W10881  10.185   0.595   2.372  0.0599 -0.0924  0.4312
 6818W        W10882   9.174   3.930   1.293 -0.0094  0.0961  0.0762
 6819W        W10883   2.591   9.639  10.887 -0.1008 -0.0555  0.0168
 6820W        W10884   8.996   8.204   7.702  0.1596  0.1678 -0.1834
 6821W        W10885   3.830   2.524   8.532  0.0003  0.3059  0.1863
 6822W        W10886   7.294   4.342   0.298 -0.0213 -0.0674  0.0111
 6823W        W10887   1.168   1.884   8.754  0.0903 -0.2370 -0.0558
 6824W        W10888  10.151   9.160   2.694 -0.2797 -0.1960 -0.2121
 6825W        W10889   3.432   8.026   3.128 -0.0923  0.5403  0.1408
 6826W        W10890   4.580   3.921   2.810  0.2071  0.1364  0.0800
 6827W        W10891   2.496   5.486   1.225  0.0128 -0.2294  0.4033
 6828W        W10892   3.440   4.867   7.295 -0.0262  0.3535 -0.1195
 6829W        W10893   2.031   7.651  10.914  0.1669 -0.1071  0.3551
 6830W        W10894   0.605   1.607  10.195 -0.1341 -0.2574  0.3586
 6831W        W10895   2.710   1.656   9.698 -0.0037 -0.1563 -0.0549
 6832W        W10896   9.922  10.327  10.569 -0.1509 -0.3464  0.2478
 6833W        W10897   5.999   4.816   9.953 -0.5140  0.1132 -0.0815
 6834W        W10898   3.784   4.336  10.666  0.1272  0.1194  0.0515
 6835W        W10899   4.348   7.680   0.442 -0.1564 -0.3338 -0.0692
 6836W        W10900   9.144   5.895   9.056  0.3595 -0.0632  0.0067
 6837W        W10901   2.488   3.024   8.361  0.2121  0.0863  0.0890
 6838W        W10902   4.444  10.600   8.160 -0.4527  0.2817  0.1082
 6839W        W10903   5.079   2.311   1.500 -0.1537 -0.1678  0.0569
 6840W        W10904   9.963   1.108   3.724 -0.1536  0.0867  0.2617
 6841W        W10905   7.237   0.576   0.604 -0.3564  0.1788  0.0167
 6842W        W10906   0.670   9.506   7.404 -0.1168 -0.2604  0.2108
 6843W        W10907   3.261   6.581   8.568  0.2243  0.0909  0.0185
 6844W        W10908   4.254   7.241   1.476 -0.1704  0.0118  0.1131
 6845W        W10909   0.306  10.267   3.050 -0.0335 -0.1883 -0.1336
 6846W        W10910   9.906   4.798   6.734 -0.0893  0.0464 -0.2533
 6847W        W10911   9.499   6.488   2.709  0.2750 -0.0942  0.1558
 6848W        W10912   4.062   6.513   0.772  0.4158 -0.0172 -0.2639
 6849W        W10913   2.945   4.868   0.738  0.0279  0.0281 -0.0415
 6850W        W10914   5.544   4.472   8.152 -0.1317  0.1557  0.2350
 6851W        W10915   5.174   9.994   2.338 -0.2405  0.1479  0.0893
 6852W        W10916   9.690  10.705   7.431  0.1932 -0.3967  0.0282
 6853W        W10917   4.286   3.635   9.011  0.0404 -0.0326 -0.2474
 6854W        W10918   8.028   7.828   1.723  0.0118 -0.0677  0.2419
 6855W        W10919   3.218   0.314   9.340 -0.0810  0.0684  0.2188
 6856W        W10920   3.536   4.127   0.298 -0.0928 -0.0655 -0.3033
 6857W        W10921  10.595   5.449   3.610  0.0100 -0.0719  0.0441
 6858W        W10922   0.394   4.727   1.548  0.0353 -0.1572 -0.0190
 6859W        W10923   6.721   1.255   0.256 -0.0623  0.1455  0.1286
 6860W        W10924   6.705   8.832  10.919 -0.3918 -0.0957 -0.2846
 6861W        W10925   1.433   1.306   3.324 -0.3339  0.2018  0.1859
 6862W        W10926   0.475   7.357   2.657 -0.1664 -0.0857  0.0291
 6863W        W10927   5.241   0.253   8.449 -0.1035 -0.0084  0.0622
 6864W        W10928   8.798   4.108   9.404 -0.0276  0.2103 -0.0741
 6865W        W10929   9.869   6.490   7.565  0.0430 -0.1743  0.1495
 6866W        W10930   7.714   8.037   0.829 -0.3121  0.1274 -0.1411
 6867W        W10931   3.276   7.062   1.563  0.2560  0.0235 -0.2106
 6868W        W10932   6.012   0.673   7.700  0.1025 -0.2040 -0.2049
 6869W        W10933   8.163  10.757   1.358 -0.2232 -0.0733 -0.4967
 6870W        W10934   7.387   4.903   7.778 -0.1565 -0.0269  0.0912
 6871W        W10935   7.668   7.516   1.954  0.2598  0.1439  0.0356
 6872W        W10936   7.416   3.776  10.500 -0.0704 -0.1088  0.1384
 6873W        W10937   3.277   5.038   1.165  0.0177  0.1982  0.0366
 6874W        W10938  10.206   5.539   7.716  0.1085 -0.1364 -0.0051
 6875W        W10939   4.850   9.372  10.384  0.4669 -0.0141 -0.0628
 6876W        W10940   7.495   7.911   2.373  0.2903 -0.1136  0.0488
 6877W        W10941   8.660   3.906   7.739  0.1701 -0.0876 -0.3767
 6878W        W10942  10.267   6.643   9.909  0.0128  0.1393  0.1794
 6879W        W10943   2.880   4.306  10.309  0.1864  0.0400  0.3181
 6880W        W10944   3.642   8.096   1.693 -0.2233  0.1451 -0.0124
 6881W        W10945   2.042   4.617  10.147  0.1355  0.2665 -0.2547
 6882W        W10946  10.339  10.288  11.184 -0.2942 -0.0293 -0.1575
 6883W        W10947   3.524  10.295   3.779 -0.0740 -0.1499 -0.1431
 6884W        W10948   2.502   0.804  10.212 -0.0421  0.1625  0.0484
 6885W        W10949   7.783  10.431  10.510  0.1262 -0.2380  0.0627
 6886W        W10950   5.023  10.598  11.214 -0.2423  0.1410  0.0136
 6887W        W10951   3.201   5.559   2.044 -0.2156 -0.2317  0.2212
 6888W        W10952   1.732   6.897   0.389  0.0906 -0.0478 -0.1188
 6889W        W10953   9.035   8.208   1.994  0.1327  0.0649  0.1602
 6890W        W10954   8.722   1.786   2.937  0.1855  0.0020  0.2704
 6891W        W10955   4.480  10.576   2.989 -0.0058 -0.0023  0.0070
 6892W        W10956  10.491   8.511   2.126  0.0491 -0.0311 -0.1002
 6893W        W10957   1.435   3.021   2.823 -0.4452  0.1788 -0.0895
 6894W        W10958   8.951   7.684   2.839  0.2399 -0.0713  0.0317
 6895W        W10959   3.147  10.090   9.356  0.0230  0.0628 -0.1270
 6896W        W10960   5.412   9.578   8.693  0.0433  0.1582  0.2961
 6897W        W10961   1.821   6.688   9.903  0.0624  0.2608  0.1887
 6898W        W10962   1.389   1.881   0.966 -0.1510 -0.0779 -0.0670
 6899W        W10963   6.890   9.592  10.602  0.0623  0.0272 -0.2433
 6900W        W10964   9.668   5.634   2.153 -0.0072  0.1998  0.1049
 6901W        W10965   0.726   2.948  10.147  0.1664 -0.0416 -0.0039
 6902W        W10966   3.922   0.501   2.437  0.3792  0.1044 -0.0431
 6903W        W10967   7.114   4.805   0.028  0.2500  0.0093  0.0459
 6904W        W10968   5.157   8.755   1.571  0.2942  0.1891 -0.1048
 6905W        W10969   9.905   6.886   3.530 -0.0102 -0.1825 -0.1343
 6906W        W10970   1.334   8.944  10.503  0.2535  0.1512  0.0365
 6907W        W10971   6.645   7.912  10.871 -0.2596 -0.1538  0.1639
 6908W        W10972   4.804   4.301   0.573 -0.4074 -0.3874  0.1211
 6909W        W10973   3.842   6.857   3.799 -0.2340  0.0721 -0.1671
 6910W        W10974   3.656   7.865   9.730  0.1965 -0.2630  0.1596
 6911W        W10975   9.082   4.320   8.511 -0.0343 -0.1286  0.1170
 6912W        W10976   0.658   1.499   9.324  0.0453  0.1101  0.3131
 6913W        W10977   9.625   9.279   9.568  0.4380  0.2056 -0.1301
 6914W        W10978   6.311   5.327   8.672  0.0746 -0.0538 -0.0453
 6915W        W10979  10.377   8.911   7.993  0.0869 -0.0902 -0.0676
 6916W        W10980   3.331   4.434   9.346 -0.0178  0.0679  0.0941
 6917W        W10981  10.648   1.600   7.352 -0.0322  0.1257  0.0372
 6918W        W10982   9.919   8.379  10.819 -0.0083  0.2423 -0.2737
 6919W        W10983   0.292   1.250  10.019 -0.0089 -0.4346  0.0742
 6920W        W10984  10.199   2.286   1.159 -0.0223  0.1551 -0.3707
 6921W        W10985   1.474   2.382  10.790  0.3217  0.2255  0.0533
 6922W        W10986  10.531   8.324  10.335 -0.0794  0.1023  0.1349
 6923W        W10987   3.028   1.311   8.824  0.1379  0.0474 -0.2527
 6924W        W10988   0.810   7.938  11.166 -0.0762  0.1533  0.1249
 6925W        W10989   1.050   1.181   1.641 -0.1911 -0.2000 -0.0099
 6926W        W10990   4.385  10.478   2.511  0.0375 -0.2184  0.1205
 6927W        W10991   0.765   0.592   8.946 -0.1399  0.0090  0.4698
 6928W        W10992   0.451   7.388   0.536  0.0947 -0.0639 -0.0088
 6929W        W10993   7.692   0.554   2.917  0.1208 -0.2592 -0.1517
 6930W        W10994   2.602   1.321   0.565 -0.2944 -0.1140 -0.0003
 6931W        W10995   9.543   7.626  10.164  0.0052  0.0244 -0.1391
 6932W        W10996   6.429   4.361   2.325  0.1384  0.2158 -0.1942
 6933W        W10997   0.095   6.627   1.671  0.1598  0.0397 -0.2295
 6934W        W10998   3.125   2.228  10.843 -0.1762 -0.2493  0.1147
 6935W        W10999   8.419   3.895   1.721  0.1159 -0.1496 -0.3682
 6936W        W11000   5.779   6.119   1.331 -0.3867  0.1566 -0.1960
 6937W        W11001   4.750   6.961   2.857 -0.0164  0.0091  0.1167
 6938W        W11002   9.046   2.038   9.332 -0.2984  0.1684 -0.2532
 6939W        W11003   2.683   8.912   3.257 -0.1514  0.1227 -0.2470
 6940W        W11004   5.200   4.552   8.830 -0.1470  0.0946  0.1624
 6941W        W11005   3.568   6.387   9.861 -0.1360 -0.1724 -0.2527
 6942W        W11006   8.808   9.506  10.562 -0.1814  0.1503  0.0743
 6943W        W11007   3.219   9.636  10.313 -0.0142 -0.0798 -0.0708
 6944W        W11008   5.541   0.488   2.646 -0.2572  0.2269 -0.0951
 6945W        W11009   4.809   1.963   9.979  0.0590  0.1422  0.0104
 6946W        W11010   9.913   4.835   0.222 -0.2655 -0.0651 -0.3730
 6947W        W11011   2.379   5.120   7.917 -0.5040 -0.2922  0.2416
 6948W        W11012   8.144   7.191   8.307 -0.1654 -0.3263 -0.0088
 6949W        W11013   6.814   8.712   9.546 -0.2656 -0.1214  0.0442
 6950W        W11014   0.374   8.186   0.302  0.2112 -0.2083  0.1803
 6951W        W11015   9.327   5.079   8.017 -0.1841  0.0156 -0.2134
 6952W        W11016   2.057   0.650   3.372  0.0238  0.2489  0.3020
 6953W        W11017   1.834   3.548   9.808 -0.2146 -0.1041 -0.1143
 6954W        W11018   6.205   2.982   2.466 -0.2576 -0.1281  0.0339
 6955W        W11019   4.982   8.564   2.840 -0.0831 -0.0927 -0.2027
 6956W        W11020   0.744   5.992   9.480  0.0563 -0.1448 -0.0867
 6957W        W11021   1.250   5.857   9.484  0.0295  0.2511  0.1141
 6958W        W11022   0.650   7.519   1.804 -0.0328  0.0699 -0.1004
 6959W        W11023   2.701   3.201  10.377 -0.2410 -0.3019  0.3669
 6960W        W11024   0.332   6.040   1.114 -0.1366  0.1358  0.3920
 6961W        W11025   8.129   5.394   7.984  0.1146 -0.0764  0.1079
 6962W        W11026   0.293   2.971   8.242 -0.0947 -0.1532 -0.2986
 6963W        W11027   7.284   8.820   9.538 -0.0422 -0.1013  0.4448
 6964W        W11028   4.994   8.904   8.952 -0.1018  0.1753 -0.1255
 6965W        W11029   3.697   7.324   2.376 -0.1801 -0.0663  0.0662
 6966W        W11030   6.251   0.794  10.021  0.0278 -0.0194 -0.0682
 6967W        W11031   0.264   2.631   7.899  0.2945 -0.0435 -0.3383
 6968W        W11032   7.699   0.710   9.670  0.3169  0.1364 -0.2471
 6969W        W11033   0.739   8.942   1.505  0.1995 -0.2252 -0.1733
 6970W        W11034   6.730   9.748   1.666 -0.0441  0.1203 -0.1257
 6971W        W11035   2.312   2.656   1.832  0.1508 -0.2777  0.3141
 6972W        W11036   9.174   8.977  11.102 -0.0490  0.2057 -0.0957
 6973W        W11037   9.540  10.681  10.667  0.0730 -0.0234  0.0576
 6974W        W11038   4.118   2.401   1.653 -0.2690 -0.0834 -0.0406
 6975W        W11039   8.695   9.615   9.391 -0.0265  0.0145  0.0607
 6976W        W11040   8.316  10.233   2.382  0.2226  0.0045 -0.2730
 6977W        W11041   0.038   2.790   0.302  0.2638 -0.1416  0.0056
 6978W        W11042   3.943   2.806   0.037  0.0736  0.0074 -0.1754
 6979W        W11043   1.853   5.331   9.946 -0.0181 -0.1203 -0.1130
 6980W        W11044   3.535   9.116   1.143  0.4611  0.1003  0.1206
 6981W        W11045   0.501   7.973   0.785  0.3630 -0.3281  0.2620
 6982W        W11046   5.145   6.014  10.579  0.1833  0.0131  0.0999
 6983W        W11047   2.733   7.335   9.130 -0.0817  0.1416  0.1390
 6984W        W11048   5.841  10.675   2.810  0.3106 -0.0614 -0.3600
 6985W        W11049   7.735   1.106   8.885  0.0391  0.6120  0.1405
 6986W        W11050   0.623   8.783   3.262  0.4081  0.0983 -0.1971
 6987W        W11051   5.984   6.043  11.230 -0.0279 -0.3688  0.1168
 6988W        W11052   8.802   9.612   2.988 -0.0598 -0.3806 -0.4021
 6989W        W11053   6.452   4.951   9.678 -0.0862 -0.3162 -0.0795
 6990W        W11054   6.982  10.747   2.857  0.2887  0.0958  0.0690
 6991W        W11055   4.213   3.577   0.219  0.1059 -0.2166 -0.0755
 6992W        W11056   3.286   0.173  10.206  0.0568  0.0131 -0.2878
 6993W        W11057   5.264   3.607  11.321 -0.0362  0.2518  0.0320
 6994W        W11058   7.448   5.686   9.767 -0.0538  0.1567  0.2206
 6995W        W11059   6.128   7.973   9.404 -0.0515  0.1146 -0.0458
 6996W        W11060   2.885   8.803   1.845  0.2055  0.1534  0.1780
 6997W        W11061   1.702   0.938   9.080 -0.0149 -0.0027 -0.0754
 6998W        W11062  10.183   0.424  10.157 -0.2335 -0.0938 -0.0033
 6999W        W11063   2.377  10.445   8.972  0.1244 -0.1298 -0.1297
 7000W        W11064   0.985  10.021   9.907  0.1218 -0.0403  0.0843
 7001W        W11065   0.077   8.420   6.607 -0.1119 -0.1798  0.2840
 7002W        W11066   7.295  10.566   1.010  0.0917 -0.2791  0.0934
 7003W        W11067   6.968   8.294  11.053  0.0214  0.3308  0.2058
 7004W        W11068   7.475   5.357   1.972 -0.0763  0.2909 -0.1463
 7005W        W11069   3.538   5.957   1.979  0.1173  0.2045 -0.0426
 7006W        W11070   8.010   4.729   3.124 -0.1323 -0.0927 -0.3414
 7007W        W11071   1.174   4.087   9.307  0.1937 -0.0388 -0.0339
 7008W        W11072   5.443   7.197   9.226  0.0825 -0.2880 -0.0229
 7009W        W11073   9.681   4.539   3.535  0.2507 -0.0607 -0.2149
 7010W        W11074   9.997   2.901   2.072 -0.0560  0.0543  0.2361
 7011W        W11075   5.672   5.873   2.360 -0.0793  0.1578  0.1132
 7012W        W11076   8.145   4.805   0.014  0.2169  0.2037  0.3734
 7013W        W11077   5.054   7.551   7.083  0.2668  0.0495  0.0475
 7014W        W11078   2.724  10.049   9.031 -0.1469  0.0557 -0.0205
 7015W        W11079   5.449   5.500   0.675  0.3254  0.0298 -0.0760
 7016W        W11080   9.933   0.950   2.060  0.0639 -0.3669 -0.0129
 7017W        W11081   5.352   8.355   0.106  0.0225  0.1543  0.0014
 7018W        W11082   8.363   3.592  10.268  0.5132 -0.0587 -0.0377
 7019W        W11083  10.226   6.577   9.382  0.2897 -0.0682 -0.1590
 7020W        W11084   2.042   2.765  10.244 -0.0900  0.1400 -0.3991
 7021W        W11085   5.985  10.595   8.320 -0.0700 -0.3468  0.1811
 7022W        W11086   3.417   0.200   7.922 -0.1018 -0.0153 -0.0755
 7023W        W11087   5.886   5.607   3.571 -0.2130  0.2808  0.1667
 7024W        W11088   8.896   1.192   7.912 -0.1329  0.0016 -0.1295
 7025W        W11089   1.076   4.140  10.929  0.2156  0.2421 -0.1779
 7026W        W11090   5.693   0.366   1.189 -0.1435  0.0557  0.0328
 7027W        W11091   5.576   2.233   9.215 -0.0592 -0.0967 -0.1619
 7028W        W11092   1.116   7.619  10.390 -0.0894 -0.2009  0.1781
 7029W        W11093   5.220   6.143   7.800 -0.0443  0.2626 -0.0319
 7030W        W11094   3.253   7.189   3.012 -0.1183 -0.0061 -0.1331
 7031W        W11095   9.919   4.326   8.248  0.0186  0.3725  0.3761
 7032W        W11096   6.347  10.103   0.458 -0.1109  0.2454  0.3151
 7033W        W11097   6.534   3.920   2.029 -0.0931 -0.0086 -0.1778
 7034W        W11098   9.300   2.456   9.396 -0.3136  0.2947 -0.2205
 7035W        W11099   3.273   6.507  10.231  0.3922 -0.1555  0.0135
 7036W        W11100   6.802   6.126   8.933 -0.1180  0.3330 -0.1526
 7037W        W11101   2.626   7.417   0.477  0.0188 -0.3082  0.1005
 7038W        W11102   6.871   7.939   8.345 -0.0924 -0.3990 -0.2066
 7039W        W11103   2.540   0.358   9.962  0.1599  0.0498 -0.1084
 7040W        W11104   5.284   7.772  10.788  0.1694 -0.1898  0.0086
 7041W        W11105   7.228   1.817   9.212 -0.0127 -0.1060  0.1835
 7042W        W11106   4.301   6.556   8.897 -0.0535  0.2247 -0.2417
 7043W        W11107   5.256  10.404   0.601  0.1774  0.2751 -0.0104
 7044W        W11108   7.437   3.755   8.187  0.0608 -0.0203  0.1016
 7045W        W11109   4.963   4.184   0.112  0.0524 -0.0646  0.0792
 7046W        W11110   7.351   4.358  11.131 -0.3313 -0.0425 -0.3113
 7047W        W11111   5.740   9.706   8.221 -0.0034 -0.0119 -0.0051
 7048W        W11112   2.514   5.819   8.619  0.0559  0.0606 -0.1752
 7049W        W11113   5.690   2.337   9.688 -0.0467  0.0432 -0.3016
 7050W        W11114   8.711   7.237   9.872 -0.1604  0.0903  0.0609
 7051W        W11115   1.600   8.901   7.606 -0.0209  0.4053  0.0433
 7052W        W11116   3.823   6.445   7.968  0.3669  0.2287  0.1171
 7053W        W11117   9.116   2.031   2.786  0.2013  0.0833  0.3648
 7054W        W11118   5.788   7.883   7.659 -0.2562  0.2358  0.1010
 7055W        W11119   3.221   6.860   0.818 -0.0728  0.3983  0.0984
 7056W        W11120   5.421   4.705  10.153  0.0011  0.1428  0.0411
 7057W        W11121   2.803  10.379  10.768 -0.1915  0.0623  0.1649
 7058W        W11122   4.121   3.979   9.384 -0.2675 -0.4122 -0.2708
 7059W        W11123   8.708   9.707  11.168 -0.1412 -0.0029  0.0340
 7060W        W11124   8.565   8.160   0.713  0.2291  0.1055  0.0405
 7061W        W11125   2.447   7.180  10.137  0.0404 -0.1303 -0.4503
 7062W        W11126  10.296   1.471   1.454  0.0841  0.1523 -0.0681
 7063W        W11127   0.284   8.814   9.589  0.2246 -0.0110  0.1091
 7064W        W11128   3.971   0.513   3.000 -0.2310  0.0591 -0.0015
 7065W        W11129  10.069   4.547   9.440  0.1302  0.0736  0.1422
 7066W        W11130   1.918   6.844   1.678 -0.2203  0.0545  0.0834
 7067W        W11131   5.191   7.384   0.742  0.2559  0.0631 -0.1158
 7068W        W11132   3.025   8.000  11.099 -0.1526  0.0360 -0.1166
 7069W        W11133   9.876   3.678  10.362 -0.0819 -0.2930 -0.0468
 7070W        W11134  10.578   2.550   9.053 -0.0059  0.1445 -0.3550
 7071W        W11135   8.762   7.215   3.016  0.1583 -0.1465 -0.0156
 7072W        W11136   1.751   2.249   9.660  0.0560 -0.1292 -0.1305
 7073W        W11137   7.873   9.185   6.927  0.0130 -0.1839 -0.2852
 7074W        W11138   5.636   9.548   2.879  0.0574 -0.3723  0.1547
 7075W        W11139   7.599   8.787   1.896  0.5387  0.2122 -0.0538
 7076W        W11140   8.812   8.169   2.994  0.1343 -0.1537  0.0561
 7077W        W11141   8.958   1.448   8.777 -0.3333  0.0272 -0.2948
 7078W        W11142   7.684   3.929   7.610  0.3805 -0.2372  0.0967
 7079W        W11143   8.174   4.457   2.530  0.1275 -0.1610 -0.2376
 7080W        W11144   5.834   2.638   2.085 -0.0572  0.1326  0.0148
 7081W        W11145   5.291   5.315  10.972  0.0617  0.2796  0.2708
 7082W        W11146   3.272   8.081   8.307 -0.1724 -0.1451  0.0688
 7083W        W11147   4.954  10.302   1.890 -0.1022 -0.2212 -0.1579
 7084W        W11148   9.021   5.425   8.439 -0.1936  0.0240 -0.3554
 7085W        W11149   8.633   1.072   9.668 -0.0280 -0.2524 -0.0085
 7086W        W11150   1.418   6.516   0.483 -0.3118 -0.1146  0.1077
 7087W        W11151   0.591   2.962  10.742 -0.1457  0.2413  0.1652
 7088W        W11152   1.360   8.992   8.621 -0.1212 -0.1492 -0.3716
 7089W        W11153   9.613   9.235   1.357  0.0385  0.1650 -0.2434
 7090W        W11154   5.958   2.241   8.710  0.4175 -0.3279  0.1082
 7091W        W11155   7.699   0.547   2.361 -0.0112 -0.2280  0.0659
 7092W        W11156   5.089   6.258   9.646  0.2858 -0.0223  0.0341
 7093W        W11157   9.725   8.693   9.958  0.1292 -0.0434  0.2120
 7094W        W11158   4.907   4.451   9.939  0.2263  0.1075  0.1503
 7095W        W11159   4.524   1.137   1.643 -0.1671  0.0994 -0.3268
 7096W        W11160   0.659   8.521   0.515  0.0794 -0.0631 -0.3388
 7097W        W11161   4.147   8.020   8.055 -0.1593 -0.0287  0.1858
 7098W        W11162   6.806   2.006   2.924 -0.2236 -0.1412  0.0237
 7099W        W11163   0.580   8.949   3.714  0.2437  0.3244 -0.2763
 7100W        W11164   2.166   5.031   1.146  0.0831 -0.2366  0.0099
 7101W        W11165   4.995   9.248   8.527  0.4796 -0.2289  0.1406
 7102W        W11166   6.418   0.946   1.165 -0.2871 -0.1064 -0.0137
 7103W        W11167  10.514   2.367   1.495  0.2429  0.3811 -0.0116
 7104W        W11168   1.613   8.557  10.746  0.1584  0.0600  0.1485
 7105W        W11169   2.478   3.276   1.747  0.1886 -0.3218 -0.4024
 7106W        W11170   4.417   2.639  10.261 -0.1632  0.0464  0.0694
 7107W        W11171   7.535   0.317   0.283 -0.3066  0.3100 -0.1150
 7108W        W11172   5.458   3.227  10.952  0.0209  0.1150 -0.2187
 7109W        W11173   8.084   0.852  10.004  0.1925  0.2160 -0.4054
 7110W        W11174   3.274   1.305  10.721  0.1085  0.2916  0.1359
 7111W        W11175   2.000   3.263   8.289 -0.2453  0.2055  0.1224
 7112W        W11176   1.299   6.530   1.886  0.1159 -0.3370 -0.2559
 7113W        W11177   4.403   0.550  10.130 -0.1035 -0.1976  0.1493
 7114W        W11178  10.232   1.364   9.803  0.1563 -0.1008  0.1492
 7115W        W11179   3.482  10.748   2.377  0.1858  0.1021 -0.0583
 7116W        W11180   6.699   3.285   1.927 -0.2927  0.0633 -0.1487
 7117W        W11181   4.361   1.844   9.733  0.2105 -0.1207  0.1277
 7118W        W11182   3.524   0.726   2.249  0.2892 -0.0368 -0.0213
 7119W        W11183  10.305   8.259   1.512  0.2046 -0.1182 -0.3053
 7120W        W11184   0.534   8.609   2.753  0.0157 -0.0757  0.0399
 7121W        W11185   7.539   5.686   1.098 -0.2155 -0.3633 -0.2545
 7122W        W11186   9.137  10.017  11.093  0.2100 -0.0421 -0.0057
 7123W        W11187   6.326   1.306  10.747  0.3546 -0.1847 -0.3488
 7124W        W11188   2.032   9.573   9.138  0.1115  0.0862  0.1715
 7125W        W11189   9.250   0.868   2.010 -0.0684  0.4784  0.2249
 7126W        W11190   1.337   0.623   7.191  0.1062  0.2824 -0.1972
 7127W        W11191   9.930   4.063   7.787 -0.0234  0.1761  0.1498
 7128W        W11192   4.184   5.765  10.368 -0.0934 -0.0524  0.0318
 7129W        W11193   0.943   0.323   2.652 -0.1345  0.2579  0.0812
 7130W        W11194   5.396   3.269   9.611  0.2185  0.3337 -0.0819
 7131W        W11195   3.337   1.941   9.639  0.0785  0.0770  0.1070
 7132W        W11196   6.571   9.482   7.023 -0.0605  0.1182  0.1154
 7133W        W11197   1.461   4.640   2.551 -0.1034 -0.1599 -0.0209
 7134W        W11198  10.485   0.191   3.690 -0.1683  0.2622  0.1664
 7135W        W11199   0.767   5.227   8.159  0.0254 -0.2779 -0.3343
 7136W        W11200   5.956   9.669   0.965  0.0973  0.2117 -0.0846
 7137W        W11201  10.582   1.052   1.543  0.0482  0.0919 -0.1115
 7138W        W11202   8.477   7.056   1.053 -0.0694  0.0185 -0.2851
 7139W        W11203   2.838  10.499   1.561  0.2064 -0.0403  0.1773
 7140W        W11204   5.619   8.374   7.691  0.0575  0.0080 -0.2263
 7141W        W11205   6.415   9.146   7.839 -0.2671  0.0844  0.0474
 7142W        W11206   0.688   0.851   7.617  0.1073  0.0766  0.0709
 7143W        W11207   8.032   1.376   0.108 -0.1851 -0.0569 -0.5373
 7144W        W11208   6.951   2.640   2.675  0.2806 -0.1238  0.1556
 7145W        W11209   8.652   1.278   1.000 -0.1301  0.1331 -0.3354
 7146W        W11210   1.503   4.763   0.587 -0.1103  0.0980 -0.4015
 7147W        W11211   5.984   7.438   2.387 -0.1714 -0.2398  0.3119
 7148W        W11212   0.406   6.504   2.042 -0.2944 -0.1384 -0.0825
 7149W        W11213   7.823   8.114  10.386 -0.0675  0.0652  0.2071
 7150W        W11214   2.124   7.967   1.245  0.1013  0.1190 -0.1431
 7151W        W11215   0.936   4.237   0.173 -0.0563 -0.1823 -0.3884
 7152W        W11216   4.811   7.482   9.677  0.0107 -0.1319  0.0521
 7153W        W11217   0.356   7.041   1.867 -0.0309  0.4366  0.0402
 7154W        W11218  10.023   0.715   0.336  0.0248  0.1479  0.1030
 7155W        W11219   6.999   9.983   9.806 -0.2190 -0.0196  0.3977
 7156W        W11220   4.020   6.281   7.081 -0.2179  0.1819 -0.0729
 7157W        W11221   1.737   4.960  10.336 -0.0961 -0.1740 -0.0067
 7158W        W11222   4.798   9.996   2.655  0.2337 -0.3065 -0.0270
 7159W        W11223   8.831   9.023   3.422  0.1123 -0.2503  0.1185
 7160W        W11224   0.128   8.039   8.382  0.0265 -0.1816 -0.0098
 7161W        W11225   8.877   2.461  10.672 -0.4239 -0.0428  0.2621
 7162W        W11226  10.293   3.370   8.949 -0.2214 -0.0643 -0.2014
 7163W        W11227   1.237   8.322   9.167 -0.2161 -0.2800  0.1667
 7164W        W11228   6.944   0.208   0.837  0.2405 -0.0784  0.1546
 7165W        W11229   9.461   2.822   0.229  0.1656  0.5597  0.0326
 7166W        W11230   8.166   0.560   2.582  0.0038  0.1238  0.1033
 7167W        W11231   3.102   9.234   0.929  0.1499 -0.3576  0.0091
 7168W        W11232   0.590   2.540   8.229  0.0925  0.1365 -0.0210
 7169W        W11233   9.489   3.049  10.617 -0.0278  0.0375 -0.0678
 7170W        W11234   4.853  10.324   0.243  0.6151 -0.0994  0.0058
 7171W        W11235   3.258   0.798   0.681  0.2564  0.2620  0.1343
 7172W        W11236   8.241   6.095   0.658 -0.1296 -0.0487  0.2296
 7173W        W11237   8.902   7.954   0.985 -0.2476  0.4519 -0.1579
 7174W        W11238   1.964   7.247  10.200  0.3098  0.0765 -0.1146
 7175W        W11239   4.319   9.725   1.449  0.3728  0.1660 -0.0121
 7176W        W11240   8.827   4.207  10.931 -0.1182 -0.0719  0.2835
 7177W        W11241   0.487   8.354   2.208 -0.3036  0.2298 -0.0245
 7178W        W11242   8.493   1.349  10.054 -0.0938 -0.0949  0.3471
 7179W        W11243   5.520   1.810   8.945  0.0240  0.0486 -0.3283
 7180W        W11244   4.847   3.944  10.110 -0.0998  0.1059 -0.1905
 7181W        W11245   0.637   9.934   8.295 -0.1109  0.0585 -0.0867
 7182W        W11246   8.438   8.599  10.574 -0.2077 -0.0915 -0.1291
 7183W        W11247   5.420   9.787   0.324  0.0385  0.1335 -0.2408
 7184W        W11248   3.339   0.960   1.177 -0.1424  0.2837  0.2438
 7185W        W11249   6.393   2.231   9.342  0.0335 -0.4418 -0.0220
 7186W        W11250   1.009   3.267   8.754  0.0400 -0.0048 -0.2234
 7187W        W11251   7.319   5.352  11.110 -0.0103 -0.1174  0.2359
 7188W        W11252   0.170   8.153   8.869 -0.1439 -0.0155  0.2425
 7189W        W11253   1.632   6.230  10.625  0.0611 -0.1551  0.0923
 7190W        W11254   3.380   7.973   2.098  0.3611  0.0719  0.1554
 7191W        W11255   3.709   1.940   1.956 -0.1439 -0.1687  0.2156
 7192W        W11256   8.050   2.659   9.138 -0.1383  0.0308 -0.0141
 7193W        W11257   2.992   9.634   0.393  0.1794  0.2963 -0.0143
 7194W        W11258   7.074   9.097  10.694  0.1207  0.4797  0.1218
 7195W        W11259   4.637   0.233  11.314  0.4048  0.0644 -0.3191
 7196W        W11260   4.519   0.129  10.819  0.3960 -0.1631 -0.3386
 7197W        W11261   3.854   5.788   9.283  0.0937  0.0732  0.2586
 7198W        W11262   0.855   0.490   8.346  0.1683 -0.2795 -0.0453
 7199W        W11263   9.528   9.023   0.188 -0.1884  0.1105 -0.1268
 7200W        W11264   4.115   8.546   8.777 -0.1508  0.1264  0.3856
 7201W        W11265   1.263   7.828   2.450 -0.1746 -0.1364  0.1674
 7202W        W11266   7.776   2.043   2.709 -0.0913  0.0752 -0.1395
 7203W        W11267   7.260   2.941  11.304 -0.1493  0.0185  0.2183
 7204W        W11268   3.132   3.238   8.593 -0.2516 -0.0263  0.3201
 7205W        W11269   0.266   2.816   8.961 -0.0836  0.2354  0.0972
 7206W        W11270   3.118   8.160   1.712 -0.0012  0.2439 -0.2261
 7207W        W11271   5.887   2.830   0.946 -0.2286 -0.0048  0.0974
 7208W        W11272   1.027   7.921   8.903  0.0282 -0.0227  0.3193
 7209W        W11273   4.115   8.079   1.997  0.0729 -0.0184  0.1137
 7210W        W11274   9.588   6.288   1.931  0.0239 -0.0062  0.0099
 7211W        W11275   2.608   3.856   3.265  0.1100  0.1903  0.2999
 7212W        W11276   8.253   2.316  10.054  0.0010 -0.0991  0.1002
 7213W        W11277   8.523   9.684   1.302 -0.3293  0.1924  0.2545
 7214W        W11278   8.002   5.350   7.499  0.1916 -0.3722 -0.0608
 7215W        W11279   4.922   9.536   5.030  0.1657 -0.1652  0.0066
 7216W        W11280   0.481   9.866   1.917  0.0791  0.2947  0.1174
 7217W        W11281   0.811   8.291   3.094 -0.1221 -0.0223  0.1130
 7218W        W11282   0.082   5.123   3.880  0.1206 -0.0540  0.0504
 7219W        W11283   1.494   9.822   7.716  0.0199  0.4598 -0.0511
 7220W        W11284   1.672  10.651   8.243  0.3148 -0.1404 -0.2698
 7221W        W11285   2.897   7.030   7.136  0.1366 -0.1074  0.0504
 7222W        W11286   1.249  10.763  10.318  0.2903  0.0315 -0.0672
 7223W        W11287   4.377   1.103   0.077 -0.0861 -0.2323  0.2030
 7224W        W11288   1.238   4.351   8.034 -0.0791 -0.0284 -0.1681
 7225W        W11289   9.412  10.103   0.623  0.1881  0.0337  0.1532
 7226W        W11290   0.414   1.134  10.924  0.1723 -0.1443  0.0902
 7227W        W11291   7.696   3.190   1.829 -0.3192 -0.0613  0.0425
 7228W        W11292   2.564   5.669   0.730  0.0293 -0.1012  0.4821
 7229W        W11293   2.793   7.209   3.136  0.1324 -0.1539  0.2763
 7230W        W11294   9.994   1.742   0.576 -0.2022  0.0158 -0.2145
 7231W        W11295   8.014   4.429  10.896  0.1858  0.0201 -0.0359
 7232W        W11296   2.437   4.577   7.931  0.1359  0.0015  0.0276
 7233W        W11297   8.810   9.275   0.591 -0.0492  0.0725 -0.0683
 7234W        W11298   1.805   8.170   0.405  0.0769  0.0732  0.0700
 7235W        W11299   3.473   9.819  10.771 -0.0652 -0.2536 -0.0466
 7236W        W11300   1.179  10.098   1.579 -0.0570  0.0239 -0.0637
 7237W        W11301   3.178   2.267   3.810  0.2834 -0.2788 -0.1204
 7238W        W11302   2.005   2.424  10.647 -0.2081 -0.1495  0.0216
 7239W        W11303   2.937   8.147   3.071 -0.3035 -0.1080 -0.0390
 7240W        W11304   6.651   7.954   9.563  0.0769 -0.1565 -0.0518
 7241W        W11305   0.925   4.282   8.388  0.0797  0.1015 -0.1040
 7242W        W11306   3.175   5.724   0.795 -0.1116 -0.0191 -0.3779
 7243W        W11307   8.484   5.514   8.406 -0.0795  0.0308 -0.3249
 7244W        W11308   3.863   5.142   6.950 -0.0636 -0.2310 -0.2312
 7245W        W11309   8.188   1.124  10.961  0.3705 -0.1911 -0.0400
 7246W        W11310   2.574   7.460   2.131  0.1557 -0.1235 -0.1054
 7247W        W11311   3.384   1.624   9.115 -0.2211 -0.1263  0.1302
 7248W        W11312   5.213   3.369   1.367  0.1244  0.0896  0.1415
 7249W        W11313   6.227   5.821   1.081 -0.0448  0.1656  0.0873
 7250W        W11314   9.830   2.459   9.341  0.0934  0.3031  0.0970
 7251W        W11315   3.098   6.635  11.043 -0.4759  0.2006  0.4456
 7252W        W11316   4.164   0.830  10.444  0.2569  0.0577  0.0969
 7253W        W11317   9.121   5.164   0.599 -0.0407  0.1217  0.1949
 7254W        W11318   9.219   9.060  10.560  0.0271  0.2763  0.0425
 7255W        W11319   0.340   8.233   7.576  0.4937 -0.1301 -0.0480
 7256W        W11320   6.252   7.922   8.870  0.2018 -0.1939  0.3777
 7257W        W11321  10.207   7.175   2.027 -0.2397  0.0348  0.0920
 7258W        W11322   4.113   9.576   3.219  0.0571  0.0663 -0.0370
 7259W        W11323   8.409   2.033   1.643  0.1505 -0.1113  0.3368
 7260W        W11324   1.043   7.639   9.876 -0.1408 -0.0522  0.2175
 7261W        W11325   9.204   6.901   9.693 -0.0492  0.1828  0.0637
 7262W        W11326   9.720   8.753   9.179  0.2979 -0.0570  0.0013
 7263W        W11327   9.988  10.109   1.916 -0.2455  0.3676 -0.0679
 7264W        W11328   0.355   5.679  11.197 -0.1440  0.3632  0.1516
 7265W        W11329   5.805   8.429   0.532 -0.3482 -0.0531  0.1328
 7266W        W11330   1.762   0.975  10.792  0.1247  0.1206 -0.1275
 7267W        W11331   9.113   3.730   7.985  0.0470  0.1725  0.0786
 7268W        W11332   2.391   8.582   7.938  0.3789  0.1353 -0.2714
 7269W        W11333   3.112   5.572  10.493 -0.2098 -0.2606 -0.3984
 7270W        W11334   5.087   6.967   0.993  0.2142  0.2001  0.2352
 7271W        W11335   3.295   3.652  10.700 -0.0854  0.0594  0.4019
 7272W        W11336   4.514   6.957   9.225  0.0426  0.5023  0.1041
 7273W        W11337   5.098   4.134   9.565  0.1546 -0.4805 -0.0283
 7274W        W11338   6.973   3.590   2.209  0.0558 -0.2074 -0.1455
 7275W        W11339   9.510   8.062  10.877  0.1921 -0.0690  0.1406
 7276W        W11340   8.989   1.930  11.069  0.1026  0.0819 -0.1872
 7277W        W11341   6.892   0.188  11.039 -0.0526 -0.0696 -0.0486
 7278W        W11342   6.536   6.710   1.058 -0.1427 -0.3044  0.0855
 7279W        W11343   9.983   6.023   2.115  0.4412  0.0812  0.2935
 7280W        W11344   5.897   9.364  10.684  0.0909  0.2499 -0.0586
 7281W        W11345   8.164   1.613   9.782 -0.0546  0.0146  0.2461
 7282W        W11346   8.853   6.720   1.723  0.0869 -0.3282 -0.2587
 7283W        W11347   4.717   3.928  11.061 -0.0116 -0.2286  0.1557
 7284W        W11348   4.160   7.102  11.007  0.3242 -0.0806 -0.0479
 7285W        W11349   3.368   8.953   3.023  0.0380  0.1161  0.0171
 7286W        W11350   8.822   2.074   3.706  0.4366  0.0919  0.1746
 7287W        W11351   2.970   5.719   1.297  0.2930  0.1322 -0.1259
 7288W        W11352   0.557   1.375   1.615  0.0077 -0.2800 -0.2931
 7289W        W11353   1.588   5.289   8.462 -0.2617  0.2979 -0.1123
 7290W        W11354   8.486   3.755   9.116 -0.4150  0.2552 -0.1659
 7291W        W11355   8.506   8.979   8.748 -0.0396  0.3778 -0.0296
 7292W        W11356   6.418   0.310  10.792 -0.0543 -0.1958  0.2313
 7293W        W11357   7.091   1.232   1.942  0.0837 -0.1310  0.1234
 7294W        W11358   9.480   3.843  10.043 -0.0137  0.0714 -0.5964
 7295W        W11359   9.732   3.725   0.565 -0.0591  0.1020 -0.0155
 7296W        W11360   8.049   4.268   9.771 -0.3653  0.1123  0.3227
 7297W        W11361   2.338   2.795   2.392 -0.1009  0.0031 -0.0149
 7298W        W11362   4.749   7.006   9.691  0.0727  0.0256 -0.3876
 7299W        W11363   6.055   9.159   1.965 -0.0375  0.0199 -0.0309
 7300W        W11364   7.222  10.335   8.415  0.2546 -0.0096  0.0550
 7301W        W11365   0.095   3.720   1.275  0.0366 -0.0073 -0.1200
 7302W        W11366   1.524  10.289   7.939 -0.2076 -0.1647  0.0158
 7303W        W11367   5.760   9.722  10.276  0.1134 -0.0108  0.1123
 7304W        W11368   8.130   3.477   9.360  0.2300 -0.2943  0.1942
 7305W        W11369   5.907   4.537   0.009  0.2125 -0.2320  0.2037
 7306W        W11370   6.335   9.825   1.345 -0.1847  0.2828 -0.1699
 7307W        W11371   1.422  10.315  11.153  0.2324  0.3399 -0.1071
 7308W        W11372   7.478   9.239   9.900 -0.1882  0.0025 -0.2862
 7309W        W11373   0.485   3.375   3.209 -0.1488  0.0328  0.2275
 7310W        W11374   4.774   2.825   2.131 -0.0640 -0.1645  0.0819
 7311W        W11375   4.818   8.871  10.226 -0.2180 -0.1940 -0.1012
 7312W        W11376   7.709   7.413   2.552 -0.0256 -0.2963 -0.0519
 7313ION    NA+11377   8.782   1.336   1.674  0.0034  0.1366  0.2249
 7314ION    NA+11378   6.491   7.975   1.053  0.4009 -0.0026  0.0223
 7315ION    NA+11379   8.441   7.787   0.308  0.1962  0.2461  0.3900
 7316ION    NA+11380   3.513   4.662   1.944 -0.3266 -0.0406  0.1316
 7317ION    NA+11381   3.172  10.144   8.859 -0.2790 -0.1112  0.0000
 7318ION    NA+11382   2.606   7.350   3.600  0.1802 -0.0813 -0.0634
 7319ION    NA+11383   7.849   5.530  10.030 -0.2539  0.2028  0.0623
 7320ION    NA+11384   2.551   9.598   9.012 -0.0824  0.0053 -0.1807
 7321ION    NA+11385   8.344   8.983   3.114 -0.0220  0.0766 -0.0836
 7322ION    NA+11386   5.945   7.219   8.330  0.3763 -0.1110 -0.0655
 7323ION    NA+11387   3.364   7.797   3.593 -0.0674  0.1069  0.1284
 7324ION    NA+11388   9.587   9.063   2.946 -0.1761 -0.1126 -0.2480
 7325ION    NA+11389   1.412   8.332   0.646  0.1352 -0.0543 -0.2097
 7326ION    NA+11390   3.327   7.952   8.854  0.1253 -0.2979 -0.0006
 7327ION    NA+11391   5.851   4.175   7.199 -0.0218  0.0725  0.2207
 7328ION    NA+11392   8.229   9.737   0.013  0.2407 -0.0796  0.3804
 7329ION    NA+11393   5.973   9.763   7.710  0.1677 -0.2304 -0.1155
 7330ION    NA+11394   4.339   9.691   1.960  0.1931 -0.3562  0.1888
 7331ION    NA+11395   2.941   1.701   7.966 -0.0419  0.0537 -0.0835
 7332ION    NA+11396   6.885   9.200   9.801  0.4473  0.0460 -0.0082
 7333ION    NA+11397   6.046   3.395   8.752 -0.0310  0.1001 -0.2670
 7334ION    NA+11398   9.124   9.116   7.177 -0.0873  0.0891  0.1950
 7335ION    NA+11399  10.224   9.286   6.820 -0.1733 -0.1959  0.3204
 7336ION    NA+11400   8.382   0.167   7.053  0.0648 -0.0042  0.0437
 7337ION    NA+11401   6.012   2.112   2.874 -0.2019 -0.0896 -0.1062
 7338ION    NA+11402  10.124   6.904   2.914 -0.1466  0.2743 -0.1978
 7339ION    NA+11403   0.704   2.222   9.424 -0.2104 -0.3202 -0.2014
 7340ION    NA+11404   9.362   0.313   1.870  0.2798 -0.0718  0.1343
 7341ION    NA+11405   8.517   9.148   7.784  0.0091 -0.0413  0.1602
 7342ION    NA+11406   3.789   8.931   2.140  0.1791 -0.1467  0.2040
 7343ION    NA+11407  10.023   0.853   7.779 -0.2965 -0.1482  0.1723
 7344ION    NA+11408   0.831   1.462   3.554  0.0953  0.0036 -0.0939
 7345ION    NA+11409   6.077   3.219   2.039  0.0697  0.1123  0.0872
 7346ION    NA+11410   0.173   5.662   2.075  0.0695 -0.0511 -0.1858
 7347ION    NA+11411   1.324   9.980   1.033  0.0585 -0.0932 -0.2554
 7348ION    NA+11412   9.762   1.723   7.129 -0.2888  0.0686 -0.0899
 7349ION    NA+11413   9.042   5.904   0.150  0.1323  0.2343  0.0575
 7350ION    NA+11414   8.172   3.084   7.027  0.0187 -0.1668  0.1904
 7351ION    NA+11415   7.074  10.257   0.117 -0.1381  0.0236  0.2155
 7352ION    NA+11416   3.154   6.342   2.708  0.0479 -0.1592  0.1894
 7353ION    NA+11417   2.699   7.891   0.379  0.2454 -0.0075 -0.0690
 7354ION    NA+11418  10.673   5.766   1.657  0.0420  0.1568  0.0420
 7355ION    NA+11419   5.673   8.881  10.679 -0.2135 -0.0504 -0.2271
 7356ION    NA+11420   2.478   7.499   7.999  0.1258  0.2506 -0.1128
 7357ION    NA+11421   1.357  10.107   2.024 -0.0510  0.1498 -0.1686
 7358ION    NA+11422   9.246   9.626   9.177 -0.1410 -0.3137 -0.1110
 7359ION    NA+11423   3.290   3.215   3.661  0.0938 -0.1331 -0.2528
 7360ION    NA+11424   6.403   2.970   3.022 -0.0804  0.1480 -0.1349
 7361ION    NA+11425   7.361   8.522   9.086 -0.0598  0.0402 -0.2953
 7362ION    NA+11426   1.056   3.590   7.351  0.0382 -0.2522 -0.1722
 7363ION    NA+11427  10.177   8.681   7.297  0.2798 -0.1794  0.3070
 7364ION    NA+11428   0.925   6.577   8.841  0.0083 -0.0303  0.1435
 7365ION    NA+11429   8.753   0.946   0.614 -0.0848  0.2478 -0.1108
 7366ION    NA+11430   4.109  10.441   1.621  0.1677 -0.0660 -0.0018
 7367ION    NA+11431   7.874   0.315   3.349  0.1610 -0.2259  0.2489
 7368ION    NA+11432   5.086   1.540  11.289  0.0455 -0.2325  0.1384
 7369ION    NA+11433   0.771   8.581   6.907  0.0307  0.2194  0.0286
 7370ION    NA+11434   4.294  10.766   0.436  0.0882 -0.3226  0.1185
 7371ION    NA+11435   6.314   1.978  11.177 -0.1456 -0.0272  0.3479
 7372ION    NA+11436   1.156   2.354   2.361 -0.0898  0.1689 -0.2010
 7373ION    NA+11437   0.259   5.013   7.946  0.0858  0.2222 -0.4555
 7374ION    NA+11438   6.036   8.911   9.766  0.0205 -0.2191 -0.2020
 7375ION    NA+11439   1.780   9.947   3.252  0.0773 -0.2263  0.1129
 7376ION    NA+11440   4.657   0.965   3.383 -0.1875  0.1543 -0.3626
 7377ION    NA+11441   7.973   2.221   9.657 -0.0481 -0.0508  0.1171
 7378ION    NA+11442   8.350   6.651   7.556 -0.0529  0.1133 -0.0592
 7379ION    NA+11443   9.493   2.029   9.612  0.0531 -0.2328  0.1108
 7380ION    NA+11444   4.435   5.075   3.463  0.1386 -0.2530 -0.0473
 7381ION    NA+11445   9.055   3.257   9.430  0.0149 -0.2035 -0.4775
 7382ION    NA+11446   9.960   5.766   7.096 -0.0002  0.0084 -0.1788
 7383ION    NA+11447   6.763   7.527   9.859  0.0313 -0.2258  0.2382
 7384ION    NA+11448   1.544   1.503  11.021  0.0148 -0.2911  0.0410
 7385ION    NA+11449   7.148   6.518  10.513  0.0247 -0.0155 -0.0511
 7386ION    NA+11450   1.185   5.037  11.119 -0.0819 -0.3310 -0.0228
 7387ION    NA+11451   2.023   0.867   7.323  0.2444 -0.1312  0.0071
 7388ION    NA+11452   3.803   8.761   9.678  0.0777  0.2502  0.2672
 7389ION    NA+11453   7.940   8.714  10.140 -0.4903  0.0720  0.0281
 7390ION    CL-11454   2.873   5.911   1.916 -0.2121 -0.1000 -0.4579
 7391ION    CL-11455   6.429   7.448   1.379 -0.2040  0.2441 -0.2062
 7392ION    CL-11456   5.748   1.252   2.621 -0.2832 -0.2880 -0.0170
 7393ION    CL-11457   0.653   2.309   2.369  0.2182 -0.2637 -0.5196
 7394ION    CL-11458   2.384  10.077   8.645  0.2616  0.1296  0.0590
 7395ION    CL-11459   3.951   1.343   2.817  0.2116  0.1931 -0.0111
 7396ION    CL-11460   3.488   9.581   0.484  0.1611  0.1830 -0.4680
 7397ION    CL-11461   7.304   2.644   1.430  0.2505 -0.1411  0.1565
 7398ION    CL-11462   7.765   5.143   2.932  0.1330  0.0521  0.1670
 7399ION    CL-11463   4.114   9.372   2.271 -0.1949 -0.1973 -0.3441
 7400ION    CL-11464   9.240   8.849   7.668 -0.0591 -0.0312  0.3664
 7401ION    CL-11465   0.834   7.685   8.116 -0.2731  0.0989 -0.3415
 7402ION    CL-11466   3.298   4.362   1.518  0.4864 -0.1097  0.3022
 7403ION    CL-11467   0.147   5.842   7.968 -0.2289  0.0563  0.1042
 7404ION    CL-11468   1.829  10.057   0.786  0.1179  0.0756 -0.1871
 7405ION    CL-11469   4.118   0.124  11.300 -0.0521  0.0601 -0.0788
 7406ION    CL-11470   5.788   8.797  10.180 -0.0627 -0.0513 -0.0075
 7407ION    CL-11471   3.064   9.685   9.038  0.1562  0.3663 -0.1900
 7408ION    CL-11472   7.233   5.988  10.696 -0.1488 -0.0292 -0.0930
 7409ION    CL-11473   9.019   8.485   2.595  0.1297 -0.2628  0.0096
 7410ION    CL-11474   4.512   0.537   3.183 -0.1652 -0.0953 -0.1638
 7411ION    CL-11475   2.362   0.582   8.621 -0.5502 -0.0614  0.1399
 7412ION    CL-11476   9.010   9.775   7.949 -0.1854  0.0735  0.0418
 7413ION    CL-11477   7.015   6.488   0.182 -0.2094 -0.0331  0.0630
 7414ION    CL-11478   4.429   8.328   2.796 -0.0598 -0.0763  0.0595
 7415ION    CL-11479   2.181   9.692   3.309  0.1775  0.1076 -0.0098
 7416ION    CL-11480   9.669   9.393   9.085 -0.1010 -0.0108 -0.2588
 7417ION    CL-11481   1.444   6.731   8.546  0.0842 -0.1643 -0.0288
 7418ION    CL-11482   1.864   9.056   2.078 -0.0196  0.0382  0.0600
 7419ION    CL-11483   4.046   9.971   9.221 -0.0444 -0.1135 -0.1080
 7420ION    CL-11484   5.280   6.728   9.644  0.1056  0.4303  0.1940
 7421ION    CL-11485   7.391   9.318   0.530 -0.2814 -0.0804  0.0181
 7422ION    CL-11486   0.229   4.551   8.202  0.0049  0.0694  0.0455
 7423ION    CL-11487   9.413   0.033   2.360 -0.3211  0.0650 -0.1390
 7424ION    CL-11488   1.045   2.285   9.003 -0.0517  0.0718 -0.1183
 7425ION    CL-11489   7.670   8.383   0.401  0.2820 -0.2262  0.2179
 7426ION    CL-11490   3.715   4.722   2.435 -0.2021 -0.0560 -0.0730
 7427ION    CL-11491   7.761   2.423  10.016 -0.0570 -0.1439  0.0236
 7428ION    CL-11492   7.706  10.133   8.245 -0.1440 -0.2340 -0.0577
 7429ION    CL-11493   0.164   0.116   0.033 -0.0414 -0.2482 -0.1130
 7430ION    CL-11494   2.959   1.407   2.130  0.0918 -0.2886 -0.1129
 7431ION    CL-11495   7.983   8.364   9.741 -0.3144 -0.1306  0.2835
 7432ION    CL-11496   5.676   3.483   2.168 -0.2456  0.0182  0.2427
 7433ION    CL-11497   5.477   1.805   0.094 -0.0946  0.2819 -0.0848
 7434ION    CL-11498   9.069   1.364   2.123 -0.2839 -0.1237  0.1746
 7435ION    CL-11499   6.385   7.860   9.990 -0.1057 -0.2338 -0.1222
 7436ION    CL-11500   7.737   2.223   9.213 -0.0717 -0.3748 -0.0419
 7437ION    CL-11501   0.040   6.025   2.380 -0.0571  0.2012 -0.2291
 7438ION    CL-11502   4.335   1.805   8.463  0.1896 -0.2477  0.1059
 7439ION    CL-11503  10.268   6.827   7.403  0.2442 -0.0982 -0.1089
 7440ION    CL-11504   9.702   1.430   7.568 -0.0807  0.0025 -0.1830
 7441ION    CL-11505   3.679   9.225   9.510 -0.0854 -0.0135 -0.1126
 7442ION    CL-11506   0.268   5.112   7.416  0.2472  0.3963 -0.1598
 7443ION    CL-11507   8.513   0.216   8.094  0.5528 -0.0133 -0.1853
 7444ION    CL-11508   7.645   8.830   8.733 -0.1187  0.1528 -0.2800
 7445ION    CL-11509   5.753   4.246   7.794 -0.1478 -0.0991  0.0991
 7446ION    CL-11510   3.133   8.291   9.147  0.1964 -0.2829 -0.2535
 7447ION    CL-11511   2.618   1.348   8.151  0.1106  0.1421 -0.1608
 7448ION    CL-11512   4.591   5.143   2.461  0.1860 -0.2023  0.1506
 7449ION    CL-11513   6.882   1.509   0.654 -0.3481  0.2750  0.2805
 7450ION    CL-11514   8.138   1.463   9.208  0.1310  0.1789 -0.0652
 7451ION    CL-11515   6.224   6.034   7.780 -0.2224 -0.1125  0.0764
 7452ION    CL-11516  10.369   5.408   1.437 -0.1562 -0.1167  0.0601
 7453ION    CL-11517   8.364   9.388  10.790 -0.3457 -0.2575 -0.0294
 7454ION    CL-11518   8.951   2.547   2.133  0.0310  0.0187  0.1454
 7455ION    CL-11519   2.604   6.977   7.993  0.1974 -0.1574  0.0066
 7456ION    CL-11520   5.775   3.508   8.322  0.2164  0.0733  0.0083
 7457ION    CL-11521   8.972   0.516   1.623  0.2088  0.0879  0.1343
 7458ION    CL-11522   8.105   2.723   0.487  0.1778 -0.0545 -0.3561
 7459ION    CL-11523   9.537   4.696   9.198  0.0794  0.0568  0.1911
 7460ION    CL-11524   3.382   6.644   3.050 -0.2869  0.1205 -0.3930
 7461ION    CL-11525   2.992   7.766   0.796  0.0096  0.0045 -0.1406
 7462ION    CL-11526   9.654   1.969   9.190  0.1277 -0.0058  0.0630
 7463ION    CL-11527   4.530  10.123   1.663  0.1301  0.3305  0.0561
 7464ION    CL-11528   6.096   2.988   9.070 -0.0861 -0.1236 -0.0862
 7465ION    CL-11529   7.261   4.146   1.065  0.0875  0.0919 -0.1563
 7466ION    CL-11530   8.633   3.442   9.542 -0.1140  0.3425 -0.0382
  10.77010  10.77010  11.32172
