Protein in INSANE! Membrane UpperLeaflet>POPC=1.0 LowerLeaflet>POPC=1.0
11530
    1AU     AUC    1   5.259   5.278   6.000
    1AU     AUC    2   5.559   5.312   5.830
    1AU     AUC    3   5.539   5.298   6.169
    1AU     AUC    4   4.966   5.264   5.836
    1AU     AUC    5   4.977   5.258   6.188
    1AU     AUC    6   5.064   5.523   6.023
    1AU     AUC    7   5.405   5.554   6.001
    1AU     AUC    8   5.101   4.994   5.999
    1AU     AUC    9   5.463   5.043   5.995
    1AU     AUC   10   5.298   5.107   6.272
    1AU     AUC   11   5.242   5.436   6.282
    1AU     AUC   12   5.277   5.121   5.720
    1AU     AUC   13   5.261   5.451   5.722
    1AU     AUC   14   5.869   5.335   5.674
    1AU     AUC   15   5.906   5.340   5.994
    1AU     AUC   16   5.846   5.309   6.362
    1AU     AUC   17   4.663   5.247   5.667
    1AU     AUC   18   4.636   5.271   6.036
    1AU     AUC   19   4.694   5.240   6.376
    1AU     AUC   20   4.887   5.824   6.018
    1AU     AUC   21   5.234   5.886   5.990
    1AU     AUC   22   5.550   5.871   6.005
    1AU     AUC   23   4.931   4.674   5.995
    1AU     AUC   24   5.273   4.716   5.994
    1AU     AUC   25   5.669   4.764   5.973
    1AU     AUC   26   5.318   4.885   6.556
    1AU     AUC   27   5.267   5.210   6.599
    1AU     AUC   28   5.254   5.590   6.569
    1AU     AUC   29   5.284   4.930   5.426
    1AU     AUC   30   5.263   5.270   5.426
    1AU     AUC   31   5.268   5.636   5.439
    1AU     AUC   32   5.599   5.062   6.466
    1AU     AUC   33   5.565   5.429   6.507
    1AU     AUC   34   5.580   5.113   5.517
    1AU     AUC   35   5.595   5.477   5.517
    1AU     AUC   36   4.976   5.044   6.488
    1AU     AUC   37   4.968   5.407   6.502
    1AU     AUC   38   4.940   5.092   5.539
    1AU     AUC   39   4.928   5.451   5.526
    1AU     AUC   40   5.755   5.611   5.848
    1AU     AUC   41   5.705   5.587   6.204
    1AU     AUC   42   4.768   5.550   5.823
    1AU     AUC   43   4.758   5.559   6.213
    1AU     AUC   44   5.780   5.028   5.815
    1AU     AUC   45   5.795   5.014   6.135
    1AU     AUC   46   4.745   4.973   5.847
    1AU     AUC   47   4.784   4.966   6.180
    1AU     AUC   48   5.055   5.751   6.299
    1AU     AUC   49   5.395   5.757   6.304
    1AU     AUC   50   5.087   4.766   6.271
    1AU     AUC   51   5.499   4.792   6.295
    1AU     AUC   52   5.050   5.721   5.685
    1AU     AUC   53   5.450   5.756   5.677
    1AU     AUC   54   5.060   4.800   5.708
    1AU     AUC   55   5.456   4.819   5.676
    1AU    AUSL   56   5.855   5.213   6.722
    1AU    AUSL   57   5.706   4.735   6.589
    1AU     AUL   58   5.959   4.839   6.795
    1AU       S   59   6.127   4.461   6.594
    1AU     LIG   60   6.060   4.148   6.902
    1AU     LIG   61   6.139   3.794   7.209
    1AU       S   62   6.110   5.265   6.901
    1AU     LIG   63   6.063   5.391   7.331
    1AU     LIG   64   6.098   5.096   7.690
    1AU    AUSL   65   5.468   5.021   6.807
    1AU    AUSL   66   5.126   5.336   6.878
    1AU     AUL   67   5.326   5.194   7.135
    1AU       S   68   5.763   5.035   7.154
    1AU     LIG   69   5.590   5.082   7.567
    1AU     LIG   70   5.683   5.006   8.015
    1AU       S   71   4.591   5.108   7.208
    1AU     LIG   72   4.753   5.431   7.509
    1AU     LIG   73   4.694   5.493   7.969
    1AU    AUSL   74   5.469   5.437   6.671
    1AU    AUSL   75   5.874   5.631   6.631
    1AU     AUL   76   5.696   5.462   6.957
    1AU       S   77   5.298   5.691   7.109
    1AU     LIG   78   5.585   5.581   7.427
    1AU     LIG   79   5.806   5.496   7.815
    1AU       S   80   5.997   5.796   6.833
    1AU     LIG   81   6.397   5.736   6.902
    1AU     LIG   82   6.798   5.965   6.926
    1AU    AUSL   83   5.845   5.346   5.259
    1AU    AUSL   84   5.696   5.823   5.317
    1AU     AUL   85   5.788   5.624   4.990
    1AU       S   86   5.749   5.186   4.804
    1AU     LIG   87   6.089   5.302   4.529
    1AU     LIG   88   6.254   5.214   4.085
    1AU       S   89   6.027   5.915   5.263
    1AU     LIG   90   5.884   6.140   4.944
    1AU     LIG   91   6.049   6.559   4.804
    1AU    AUSL   92   5.504   5.077   5.221
    1AU    AUSL   93   5.815   5.041   5.563
    1AU     AUL   94   5.932   5.035   5.193
    1AU       S   95   6.145   4.441   5.275
    1AU     LIG   96   6.301   4.355   4.849
    1AU     LIG   97   6.546   4.147   4.505
    1AU       S   98   5.539   4.914   4.944
    1AU     LIG   99   5.906   4.707   4.754
    1AU     LIG  100   5.944   4.847   4.312
    1AU    AUSL  101   5.436   5.498   5.267
    1AU    AUSL  102   5.096   5.062   5.124
    1AU     AUL  103   5.331   5.341   4.960
    1AU       S  104   4.928   5.111   4.826
    1AU     LIG  105   5.017   5.039   4.386
    1AU     LIG  106   4.633   4.988   4.106
    1AU       S  107   5.512   5.005   4.655
    1AU     LIG  108   5.609   5.320   4.333
    1AU     LIG  109   5.901   5.591   4.077
    1AU    AUSL  110   4.760   5.205   6.696
    1AU    AUSL  111   4.992   5.680   6.674
    1AU     AUL  112   4.857   5.505   6.975
    1AU       S  113   4.525   5.186   6.908
    1AU     LIG  114   4.363   5.550   7.183
    1AU     LIG  115   4.256   5.471   7.657
    1AU       S  116   4.614   5.876   6.821
    1AU     LIG  117   4.442   6.199   7.058
    1AU     LIG  118   4.258   6.428   7.427
    1AU    AUSL  119   5.058   4.908   6.852
    1AU    AUSL  120   4.638   4.817   6.561
    1AU     AUL  121   4.745   4.783   6.850
    1AU       S  122   4.459   4.460   6.670
    1AU     LIG  123   3.995   4.521   6.791
    1AU     LIG  124   3.723   4.352   7.159
    1AU       S  125   4.859   5.072   7.174
    1AU     LIG  126   5.047   5.012   7.554
    1AU     LIG  127   4.772   4.982   7.918
    1AU    AUSL  128   4.702   5.184   5.263
    1AU    AUSL  129   4.979   4.871   5.488
    1AU     AUL  130   4.839   4.807   5.168
    1AU       S  131   4.536   5.112   4.976
    1AU     LIG  132   4.201   5.211   4.661
    1AU     LIG  133   4.167   5.264   4.189
    1AU       S  134   4.383   4.641   5.154
    1AU     LIG  135   4.545   4.231   5.006
    1AU     LIG  136   4.336   3.811   4.910
    1AU    AUSL  137   5.029   5.456   5.303
    1AU    AUSL  138   4.608   5.559   5.446
    1AU     AUL  139   4.767   5.502   5.064
    1AU       S  140   4.402   5.724   5.261
    1AU     LIG  141   4.130   6.073   5.113
    1AU     LIG  142   4.066   6.272   4.672
    1AU       S  143   4.656   4.985   4.741
    1AU     LIG  144   4.645   5.377   4.480
    1AU     LIG  145   4.602   5.498   4.024
    1AU    AUSL  146   5.931   5.905   6.036
    1AU    AUSL  147   5.921   5.592   5.598
    1AU     AUL  148   6.082   5.985   5.728
    1AU       S  149   6.179   5.642   5.408
    1AU     LIG  150   6.283   5.611   4.942
    1AU     LIG  151   6.367   6.060   4.805
    1AU       S  152   6.464   5.887   6.405
    1AU     LIG  153   6.634   6.239   6.128
    1AU     LIG  154   6.907   6.299   5.757
    1AU    AUSL  155   6.199   5.569   5.910
    1AU    AUSL  156   6.225   5.191   6.172
    1AU     AUL  157   6.520   5.391   6.014
    1AU       S  158   6.374   5.804   6.142
    1AU     LIG  159   6.609   5.850   5.773
    1AU     LIG  160   7.042   5.736   5.664
    1AU       S  161   6.499   4.920   6.036
    1AU     LIG  162   6.719   4.831   6.425
    1AU     LIG  163   7.121   4.562   6.489
    1AU    AUSL  164   5.951   5.504   6.244
    1AU    AUSL  165   5.626   5.804   6.310
    1AU     AUL  166   5.974   5.911   6.382
    1AU       S  167   5.966   6.095   6.846
    1AU     LIG  168   6.381   6.245   6.751
    1AU     LIG  169   6.706   6.474   7.008
    1AU       S  170   6.312   5.589   6.411
    1AU     LIG  171   6.827   5.550   6.392
    1AU     LIG  172   7.326   5.629   6.374
    1AU    AUSL  173   4.589   5.762   6.066
    1AU    AUSL  174   4.626   5.545   6.474
    1AU     AUL  175   4.331   5.875   6.333
    1AU       S  176   4.490   5.621   6.685
    1AU     LIG  177   4.116   5.853   6.816
    1AU     LIG  178   3.968   6.039   7.208
    1AU       S  179   4.537   6.185   6.051
    1AU     LIG  180   4.117   6.113   5.915
    1AU     LIG  181   3.845   6.361   5.642
    1AU    AUSL  182   4.515   5.408   5.820
    1AU    AUSL  183   4.661   5.926   5.687
    1AU     AUL  184   4.364   5.735   5.737
    1AU       S  185   4.215   5.305   5.475
    1AU     LIG  186   3.913   5.719   5.533
    1AU     LIG  187   3.507   5.994   5.451
    1AU       S  188   4.479   6.143   5.515
    1AU     LIG  189   4.396   6.499   5.272
    1AU     LIG  190   4.000   6.599   5.071
    1AU    AUSL  191   4.315   5.444   6.205
    1AU    AUSL  192   4.308   5.059   5.924
    1AU     AUL  193   4.121   5.378   5.922
    1AU       S  194   4.075   4.994   6.194
    1AU     LIG  195   3.805   4.943   5.822
    1AU     LIG  196   3.491   4.621   5.623
    1AU       S  197   4.079   5.484   6.405
    1AU     LIG  198   3.806   5.846   6.403
    1AU     LIG  199   3.361   6.023   6.391
    1AU    AUSL  200   6.007   4.891   5.957
    1AU    AUSL  201   5.861   5.043   6.340
    1AU     AUL  202   6.186   4.922   6.382
    1AU       S  203   6.312   4.752   5.966
    1AU     LIG  204   6.382   4.379   5.852
    1AU     LIG  205   6.752   4.134   5.724
    1AU       S  206   6.377   4.463   6.386
    1AU     LIG  207   6.550   4.373   6.822
    1AU     LIG  208   6.443   4.218   7.255
    1AU    AUSL  209   6.175   5.197   5.704
    1AU    AUSL  210   5.872   4.583   5.710
    1AU     AUL  211   6.114   4.837   5.565
    1AU       S  212   6.487   4.994   5.773
    1AU     LIG  213   6.717   4.658   5.577
    1AU     LIG  214   7.162   4.464   5.648
    1AU       S  215   6.010   4.385   5.524
    1AU     LIG  216   5.982   3.977   5.514
    1AU     LIG  217   6.095   3.686   5.181
    1AU    AUSL  218   4.672   4.820   5.994
    1AU    AUSL  219   4.563   4.978   5.596
    1AU     AUL  220   4.309   4.743   5.823
    1AU       S  221   4.394   4.833   5.376
    1AU     LIG  222   3.976   4.624   5.449
    1AU     LIG  223   3.738   4.315   5.174
    1AU       S  224   3.979   4.787   6.301
    1AU     LIG  225   3.893   4.464   5.972
    1AU     LIG  226   3.768   4.176   5.652
    1AU    AUSL  227   4.541   5.107   6.285
    1AU    AUSL  228   4.745   4.518   6.268
    1AU     AUL  229   4.442   4.692   6.267
    1AU       S  230   4.582   4.260   6.375
    1AU     LIG  231   4.123   4.259   6.375
    1AU     LIG  232   3.963   3.999   6.761
    1AU       S  233   4.187   5.024   6.445
    1AU     LIG  234   3.723   5.073   6.597
    1AU     LIG  235   3.304   4.891   6.442
    1AU    AUSL  236   5.224   5.958   6.443
    1AU    AUSL  237   4.791   5.940   6.392
    1AU     AUL  238   5.050   6.029   6.732
    1AU       S  239   4.640   6.141   6.554
    1AU     LIG  240   4.216   6.315   6.594
    1AU     LIG  241   4.026   6.506   6.972
    1AU       S  242   5.201   6.408   6.470
    1AU     LIG  243   5.382   6.787   6.723
    1AU     LIG  244   5.375   7.260   6.807
    1AU    AUSL  245   5.021   6.161   6.113
    1AU    AUSL  246   5.368   6.201   5.754
    1AU     AUL  247   5.070   6.433   5.886
    1AU       S  248   5.297   6.649   6.256
    1AU     LIG  249   5.199   7.094   6.329
    1AU     LIG  250   4.863   7.187   6.616
    1AU       S  251   5.312   6.430   5.475
    1AU     LIG  252   5.656   6.710   5.631
    1AU     LIG  253   5.816   7.189   5.537
    1AU    AUSL  254   5.481   6.161   6.157
    1AU    AUSL  255   5.504   5.846   6.733
    1AU     AUL  256   5.574   6.127   6.526
    1AU       S  257   5.702   5.949   6.960
    1AU     LIG  258   5.997   5.904   7.316
    1AU     LIG  259   6.400   6.126   7.260
    1AU       S  260   5.455   6.422   6.184
    1AU     LIG  261   5.784   6.638   6.392
    1AU     LIG  262   5.749   7.101   6.476
    1AU    AUSL  263   5.338   4.529   6.599
    1AU    AUSL  264   5.891   4.580   6.217
    1AU     AUL  265   5.673   4.362   6.508
    1AU       S  266   5.009   3.972   6.545
    1AU     LIG  267   4.977   3.597   6.763
    1AU     LIG  268   5.167   3.201   6.880
    1AU       S  269   6.102   4.410   6.277
    1AU     LIG  270   6.299   3.980   6.482
    1AU     LIG  271   6.530   3.842   6.879
    1AU    AUSL  272   5.139   4.390   6.230
    1AU    AUSL  273   5.057   4.793   6.449
    1AU     AUL  274   4.980   4.449   6.587
    1AU       S  275   5.041   4.082   6.285
    1AU     LIG  276   4.927   3.607   6.228
    1AU     LIG  277   4.769   3.226   6.467
    1AU       S  278   4.553   4.192   6.654
    1AU     LIG  279   4.415   3.947   7.004
    1AU     LIG  280   4.106   4.028   7.349
    1AU    AUSL  281   5.485   4.627   6.181
    1AU    AUSL  282   5.095   4.471   5.820
    1AU     AUL  283   5.425   4.278   6.040
    1AU       S  284   5.016   4.176   5.811
    1AU     LIG  285   4.716   3.886   5.861
    1AU     LIG  286   4.849   3.512   5.597
    1AU       S  287   5.279   3.940   6.399
    1AU     LIG  288   5.390   3.488   6.453
    1AU     LIG  289   5.663   3.332   6.796
    1AU    AUSL  290   5.304   5.917   5.437
    1AU    AUSL  291   5.622   5.862   5.757
    1AU     AUL  292   5.666   6.135   5.519
    1AU       S  293   5.311   6.145   5.210
    1AU     LIG  294   5.643   6.530   5.140
    1AU     LIG  295   5.468   6.957   5.222
    1AU       S  296   6.331   5.918   5.322
    1AU     LIG  297   6.242   6.378   5.259
    1AU     LIG  298   6.520   6.664   5.013
    1AU    AUSL  299   5.061   5.894   5.799
    1AU    AUSL  300   4.906   5.856   5.337
    1AU     AUL  301   4.947   6.138   5.536
    1AU       S  302   5.148   6.425   5.201
    1AU     LIG  303   4.961   6.787   5.452
    1AU     LIG  304   5.097   7.241   5.532
    1AU       S  305   4.633   5.980   5.205
    1AU     LIG  306   4.558   6.251   4.853
    1AU     LIG  307   4.394   6.682   4.746
    1AU    AUSL  308   5.245   4.561   5.407
    1AU    AUSL  309   4.714   4.566   5.660
    1AU     AUL  310   4.950   4.439   5.435
    1AU       S  311   4.485   4.531   5.427
    1AU     LIG  312   4.211   4.171   5.381
    1AU     LIG  313   3.940   3.797   5.268
    1AU       S  314   5.179   4.022   5.620
    1AU     LIG  315   4.814   3.954   5.351
    1AU     LIG  316   4.793   3.612   5.035
    1AU    AUSL  317   5.472   4.661   5.768
    1AU    AUSL  318   5.637   4.704   5.359
    1AU     AUL  319   5.543   4.372   5.560
    1AU       S  320   5.213   3.876   5.858
    1AU     LIG  321   5.432   3.566   5.590
    1AU     LIG  322   5.281   3.215   5.315
    1AU       S  323   5.849   4.545   5.227
    1AU     LIG  324   5.860   4.134   4.992
    1AU     LIG  325   6.125   3.872   4.674
    2POPC   NC3  326   3.343   8.743   7.980
    2POPC   PO4  327   3.918   8.468   8.195
    2POPC   GL1  328   3.846   8.833   7.731
    2POPC   GL2  329   3.550   9.045   7.649
    2POPC   C1A  330   3.766   8.818   7.251
    2POPC   D2A  331   3.747   8.483   6.950
    2POPC   C3A  332   3.484   8.414   6.583
    2POPC   C4A  333   3.556   8.572   6.208
    2POPC   C1B  334   3.263   8.867   7.324
    2POPC   C2B  335   3.259   8.672   6.959
    2POPC   C3B  336   3.100   8.731   6.559
    2POPC   C4B  337   3.182   8.922   6.166
    3POPC   NC3  338   1.079   5.081   8.161
    3POPC   PO4  339   0.545   4.688   8.172
    3POPC   GL1  340   0.863   4.810   7.743
    3POPC   GL2  341   1.081   5.105   7.668
    3POPC   C1A  342   1.082   4.714   7.334
    3POPC   D2A  343   0.928   4.824   6.925
    3POPC   C3A  344   1.063   4.624   6.546
    3POPC   C4A  345   1.131   4.804   6.127
    3POPC   C1B  346   1.345   5.166   7.318
    3POPC   C2B  347   1.445   5.052   6.931
    3POPC   C3B  348   1.278   5.071   6.562
    3POPC   C4B  349   1.408   5.218   6.199
    4POPC   NC3  350   9.358   1.836   8.139
    4POPC   PO4  351   8.853   2.252   7.837
    4POPC   GL1  352   9.079   2.037   7.490
    4POPC   GL2  353   9.279   1.766   7.633
    4POPC   C1A  354   9.324   1.962   7.126
    4POPC   D2A  355   9.317   1.717   6.756
    4POPC   C3A  356   9.434   2.035   6.482
    4POPC   C4A  357   9.646   2.248   6.154
    4POPC   C1B  358   9.459   1.506   7.300
    4POPC   C2B  359   9.747   1.634   7.006
    4POPC   C3B  360   9.794   1.634   6.544
    4POPC   C4B  361   9.943   1.407   6.192
    5POPC   NC3  362   0.195   7.810   8.366
    5POPC   PO4  363   0.040   7.360   8.015
    5POPC   GL1  364   0.197   7.610   7.611
    5POPC   GL2  365   0.261   7.963   7.502
    5POPC   C1A  366   0.384   7.594   7.181
    5POPC   D2A  367   0.589   7.789   6.814
    5POPC   C3A  368   0.558   7.674   6.355
    5POPC   C4A  369   0.238   7.730   5.992
    5POPC   C1B  370   0.336   8.315   7.276
    5POPC   C2B  371   0.443   8.278   6.877
    5POPC   C3B  372   0.278   8.069   6.530
    5POPC   C4B  373   0.400   8.163   6.156
    6POPC   NC3  374   2.987   1.486   8.129
    6POPC   PO4  375   3.607   1.741   8.254
    6POPC   GL1  376   3.651   1.495   7.884
    6POPC   GL2  377   3.614   1.127   7.883
    6POPC   C1A  378   3.515   1.498   7.476
    6POPC   D2A  379   3.521   1.669   7.066
    6POPC   C3A  380   3.671   1.512   6.660
    6POPC   C4A  381   3.493   1.471   6.242
    6POPC   C1B  382   3.423   1.003   7.450
    6POPC   C2B  383   3.532   1.153   7.022
    6POPC   C3B  384   3.395   1.058   6.579
    6POPC   C4B  385   3.563   0.989   6.164
    7POPC   NC3  386   8.444   9.224   8.146
    7POPC   PO4  387   8.981   9.630   8.354
    7POPC   GL1  388   8.997   9.483   7.739
    7POPC   GL2  389   8.683   9.385   7.692
    7POPC   C1A  390   8.864   9.719   7.346
    7POPC   D2A  391   8.672   9.695   6.956
    7POPC   C3A  392   8.737   9.390   6.669
    7POPC   C4A  393   8.698   9.513   6.259
    7POPC   C1B  394   8.564   9.219   7.278
    7POPC   C2B  395   8.372   9.037   6.893
    7POPC   C3B  396   8.258   9.204   6.497
    7POPC   C4B  397   8.289   9.326   6.063
    8POPC   NC3  398   6.218   0.428   8.177
    8POPC   PO4  399   6.795   0.014   8.047
    8POPC   GL1  400   6.639   0.220   7.645
    8POPC   GL2  401   6.384   0.453   7.704
    8POPC   C1A  402   6.529   0.451   7.218
    8POPC   D2A  403   6.353   0.730   6.898
    8POPC   C3A  404   6.497   0.704   6.484
    8POPC   C4A  405   6.738   0.552   6.124
    8POPC   C1B  406   6.222   0.070   7.427
    8POPC   C2B  407   6.333  10.464   7.004
    8POPC   C3B  408   6.403   0.217   6.639
    8POPC   C4B  409   6.285   0.296   6.216
    9POPC   NC3  410   8.926   4.772   8.186
    9POPC   PO4  411   8.575   5.241   7.987
    9POPC   GL1  412   8.886   5.120   7.750
    9POPC   GL2  413   8.714   4.806   7.691
    9POPC   C1A  414   8.892   5.173   7.316
    9POPC   D2A  415   8.706   5.089   6.931
    9POPC   C3A  416   8.732   4.915   6.542
    9POPC   C4A  417   8.827   4.963   6.106
    9POPC   C1B  418   8.561   4.757   7.281
    9POPC   C2B  419   8.329   4.741   6.881
    9POPC   C3B  420   8.382   4.546   6.466
    9POPC   C4B  421   8.428   4.647   5.991
   10POPC   NC3  422   4.441   9.440   8.019
   10POPC   PO4  423   3.752   9.373   8.178
   10POPC   GL1  424   3.994   9.519   7.752
   10POPC   GL2  425   4.114   9.250   7.532
   10POPC   C1A  426   4.060   9.689   7.284
   10POPC   D2A  427   4.062   9.467   6.870
   10POPC   C3A  428   3.785   9.518   6.506
   10POPC   C4A  429   3.943   9.490   6.045
   10POPC   C1B  430   4.431   9.279   7.172
   10POPC   C2B  431   4.620   9.017   6.858
   10POPC   C3B  432   4.462   8.849   6.481
   10POPC   C4B  433   4.195   9.227   6.410
   11POPC   NC3  434   9.865   5.530   8.377
   11POPC   PO4  435   9.800   5.207   7.843
   11POPC   GL1  436   9.875   5.396   7.507
   11POPC   GL2  437  10.155   5.548   7.692
   11POPC   C1A  438   9.754   5.220   7.116
   11POPC   D2A  439   9.775   5.459   6.775
   11POPC   C3A  440   9.624   5.426   6.381
   11POPC   C4A  441   9.837   5.665   6.077
   11POPC   C1B  442  10.288   5.729   7.338
   11POPC   C2B  443  10.100   5.891   6.949
   11POPC   C3B  444  10.113   5.762   6.522
   11POPC   C4B  445  10.307   5.878   6.130
   12POPC   NC3  446   6.314   1.573   8.300
   12POPC   PO4  447   5.991   2.136   8.285
   12POPC   GL1  448   6.324   1.885   7.899
   12POPC   GL2  449   6.516   2.114   7.680
   12POPC   C1A  450   6.239   1.695   7.428
   12POPC   D2A  451   6.449   1.669   6.981
   12POPC   C3A  452   6.234   1.578   6.569
   12POPC   C4A  453   6.274   1.670   6.133
   12POPC   C1B  454   6.364   2.145   7.237
   12POPC   C2B  455   6.620   2.158   6.869
   12POPC   C3B  456   6.573   1.949   6.501
   12POPC   C4B  457   6.630   2.015   6.073
   13POPC   NC3  458   1.425   0.915   8.062
   13POPC   PO4  459   2.073   0.860   8.061
   13POPC   GL1  460   1.929   1.081   7.679
   13POPC   GL2  461   2.265   1.185   7.662
   13POPC   C1A  462   1.753   1.095   7.272
   13POPC   D2A  463   1.660   0.862   6.872
   13POPC   C3A  464   1.895   0.860   6.474
   13POPC   C4A  465   1.699   0.801   6.052
   13POPC   C1B  466   2.183   1.408   7.291
   13POPC   C2B  467   1.978   1.357   6.881
   13POPC   C3B  468   1.751   1.342   6.494
   13POPC   C4B  469   1.986   1.204   6.107
   14POPC   NC3  470   7.163   2.041   8.139
   14POPC   PO4  471   6.735   1.476   8.183
   14POPC   GL1  472   6.832   1.702   7.763
   14POPC   GL2  473   7.170   1.844   7.670
   14POPC   C1A  474   6.816   1.886   7.309
   14POPC   D2A  475   6.962   1.757   6.895
   14POPC   C3A  476   7.058   2.071   6.578
   14POPC   C4A  477   7.050   1.832   6.265
   14POPC   C1B  478   7.354   1.684   7.269
   14POPC   C2B  479   7.587   1.518   6.897
   14POPC   C3B  480   7.489   1.756   6.519
   14POPC   C4B  481   7.504   2.088   6.203
   15POPC   NC3  482   6.391   9.249   8.053
   15POPC   PO4  483   6.928   9.685   8.279
   15POPC   GL1  484   6.681   9.586   7.778
   15POPC   GL2  485   6.452   9.352   7.576
   15POPC   C1A  486   6.583   9.764   7.332
   15POPC   D2A  487   6.511   9.597   6.900
   15POPC   C3A  488   6.518   9.816   6.495
   15POPC   C4A  489   6.465   9.760   6.031
   15POPC   C1B  490   6.247   9.223   7.189
   15POPC   C2B  491   6.055   9.365   6.792
   15POPC   C3B  492   6.261   9.335   6.399
   15POPC   C4B  493   6.161   9.328   5.963
   16POPC   NC3  494   9.506   3.309   8.244
   16POPC   PO4  495   9.672   3.966   8.139
   16POPC   GL1  496   9.711   3.571   7.820
   16POPC   GL2  497   9.427   3.335   7.741
   16POPC   C1A  498   9.701   3.378   7.341
   16POPC   D2A  499   9.552   3.549   6.950
   16POPC   C3A  500   9.769   3.530   6.545
   16POPC   C4A  501   9.590   3.540   6.122
   16POPC   C1B  502   9.211   3.264   7.312
   16POPC   C2B  503   9.061   3.422   6.918
   16POPC   C3B  504   9.252   3.466   6.515
   16POPC   C4B  505   9.194   3.219   6.127
   17POPC   NC3  506   0.444   5.795   8.282
   17POPC   PO4  507  10.335   5.487   8.219
   17POPC   GL1  508   0.148   5.478   7.812
   17POPC   GL2  509   0.454   5.735   7.770
   17POPC   C1A  510   0.271   5.465   7.321
   17POPC   D2A  511   0.124   5.761   6.950
   17POPC   C3A  512   0.173   5.837   6.501
   17POPC   C4A  513   0.177   5.506   6.194
   17POPC   C1B  514   0.621   5.877   7.357
   17POPC   C2B  515   0.645   5.695   6.941
   17POPC   C3B  516   0.582   5.548   6.519
   17POPC   C4B  517   0.588   5.792   6.131
   18POPC   NC3  518  10.217   0.493   8.236
   18POPC   PO4  519   9.607   0.262   8.127
   18POPC   GL1  520   9.973   0.206   7.790
   18POPC   GL2  521  10.239   0.399   7.680
   18POPC   C1A  522   9.912   0.189   7.312
   18POPC   D2A  523  10.066   0.492   7.025
   18POPC   C3A  524  10.080   0.533   6.600
   18POPC   C4A  525  10.235   0.392   6.217
   18POPC   C1B  526   0.007   0.458   7.299
   18POPC   C2B  527   0.098   0.596   6.863
   18POPC   C3B  528   0.017   0.774   6.446
   18POPC   C4B  529  10.484   0.728   5.947
   19POPC   NC3  530   1.468  10.429   8.077
   19POPC   PO4  531   2.177  10.316   8.054
   19POPC   GL1  532   1.833  10.275   7.701
   19POPC   GL2  533   1.740   9.933   7.566
   19POPC   C1A  534   1.650  10.361   7.271
   19POPC   D2A  535   1.516  10.258   6.880
   19POPC   C3A  536   1.775  10.445   6.571
   19POPC   C4A  537   1.651  10.447   6.141
   19POPC   C1B  538   2.012  10.001   7.269
   19POPC   C2B  539   1.873   9.922   6.872
   19POPC   C3B  540   1.619   9.985   6.465
   19POPC   C4B  541   1.955   9.979   6.160
   20POPC   NC3  542   0.518   6.704   8.269
   20POPC   PO4  543   0.803   6.061   8.130
   20POPC   GL1  544   0.655   6.275   7.749
   20POPC   GL2  545   0.341   6.448   7.756
   20POPC   C1A  546   0.610   6.395   7.309
   20POPC   D2A  547   0.602   6.226   6.907
   20POPC   C3A  548   0.625   6.504   6.556
   20POPC   C4A  549   0.444   6.279   6.219
   20POPC   C1B  550   0.125   6.638   7.382
   20POPC   C2B  551   0.072   6.824   6.980
   20POPC   C3B  552   0.116   6.673   6.593
   20POPC   C4B  553   0.297   6.774   6.210
   21POPC   NC3  554   2.454   2.068   8.028
   21POPC   PO4  555   2.497   1.402   8.074
   21POPC   GL1  556   2.691   1.638   7.730
   21POPC   GL2  557   2.760   1.993   7.620
   21POPC   C1A  558   2.664   1.617   7.300
   21POPC   D2A  559   2.763   1.865   6.969
   21POPC   C3A  560   2.630   1.711   6.593
   21POPC   C4A  561   2.549   1.517   6.225
   21POPC   C1B  562   2.425   2.072   7.314
   21POPC   C2B  563   2.301   2.093   6.865
   21POPC   C3B  564   2.432   2.169   6.450
   21POPC   C4B  565   2.845   2.092   6.286
   22POPC   NC3  566   9.104  10.418   8.226
   22POPC   PO4  567   9.261   9.872   7.891
   22POPC   GL1  568   9.386  10.289   7.698
   22POPC   GL2  569   9.744  10.288   7.577
   22POPC   C1A  570   9.415  10.475   7.252
   22POPC   D2A  571   9.543  10.384   6.833
   22POPC   C3A  572   9.169  10.392   6.556
   22POPC   C4A  573   9.024   0.077   6.160
   22POPC   C1B  574   9.594   9.993   7.290
   22POPC   C2B  575   9.644   9.850   6.885
   22POPC   C3B  576   9.497   9.979   6.543
   22POPC   C4B  577   9.691  10.323   6.288
   23POPC   NC3  578   9.679   8.547   8.029
   23POPC   PO4  579   9.126   8.295   7.822
   23POPC   GL1  580   9.431   8.553   7.599
   23POPC   GL2  581   9.378   8.890   7.739
   23POPC   C1A  582   9.707   8.518   7.248
   23POPC   D2A  583   9.553   8.499   6.871
   23POPC   C3A  584   9.821   8.443   6.575
   23POPC   C4A  585   9.684   8.375   6.191
   23POPC   C1B  586   9.622   8.999   7.369
   23POPC   C2B  587   9.484   8.998   6.963
   23POPC   C3B  588   9.637   8.928   6.538
   23POPC   C4B  589   9.360   8.790   6.215
   24POPC   NC3  590   5.506   2.119   8.266
   24POPC   PO4  591   6.041   2.290   7.779
   24POPC   GL1  592   5.697   2.410   7.559
   24POPC   GL2  593   5.635   2.766   7.592
   24POPC   C1A  594   5.719   2.502   7.127
   24POPC   D2A  595   5.701   2.315   6.759
   24POPC   C3A  596   5.753   2.521   6.392
   24POPC   C4A  597   5.553   2.732   6.014
   24POPC   C1B  598   5.592   2.990   7.182
   24POPC   C2B  599   5.507   2.828   6.756
   24POPC   C3B  600   5.725   3.036   6.395
   24POPC   C4B  601   5.989   3.095   6.045
   25POPC   NC3  602   7.381   4.274   8.024
   25POPC   PO4  603   6.906   3.862   7.956
   25POPC   GL1  604   7.203   3.887   7.645
   25POPC   GL2  605   7.161   4.233   7.550
   25POPC   C1A  606   7.385   3.938   7.220
   25POPC   D2A  607   7.430   4.286   6.879
   25POPC   C3A  608   7.396   4.125   6.447
   25POPC   C4A  609   7.208   4.076   6.005
   25POPC   C1B  610   6.928   4.115   7.131
   25POPC   C2B  611   6.936   4.101   6.659
   25POPC   C3B  612   6.760   4.152   6.263
   25POPC   C4B  613   6.843   4.523   6.046
   26POPC   NC3  614   2.630   9.962   8.022
   26POPC   PO4  615   3.144   0.010   8.215
   26POPC   GL1  616   3.001  10.409   7.818
   26POPC   GL2  617   2.644  10.437   7.822
   26POPC   C1A  618   2.980  10.301   7.378
   26POPC   D2A  619   3.154  10.143   7.005
   26POPC   C3A  620   2.835  10.161   6.707
   26POPC   C4A  621   2.636  10.356   6.352
   26POPC   C1B  622   2.454  10.251   7.425
   26POPC   C2B  623   2.444  10.051   7.012
   26POPC   C3B  624   2.273  10.076   6.597
   26POPC   C4B  625   2.433   9.834   6.277
   27POPC   NC3  626   1.004   0.243   8.120
   27POPC   PO4  627   0.946   0.951   8.029
   27POPC   GL1  628   1.167   0.629   7.717
   27POPC   GL2  629   1.217   0.283   7.678
   27POPC   C1A  630   1.003   0.499   7.286
   27POPC   D2A  631   1.081   0.556   6.825
   27POPC   C3A  632   0.916   0.291   6.468
   27POPC   C4A  633   0.850   0.492   6.055
   27POPC   C1B  634   1.492   0.352   7.330
   27POPC   C2B  635   1.469   0.245   6.931
   27POPC   C3B  636   1.430   0.331   6.513
   27POPC   C4B  637   1.391   0.390   6.096
   28POPC   NC3  638   4.374  10.322   8.106
   28POPC   PO4  639   3.860   9.982   7.947
   28POPC   GL1  640   4.099  10.095   7.585
   28POPC   GL2  641   4.232  10.409   7.632
   28POPC   C1A  642   4.033  10.210   7.128
   28POPC   D2A  643   3.928   9.955   6.748
   28POPC   C3A  644   4.192   9.862   6.368
   28POPC   C4A  645   4.171   9.918   5.890
   28POPC   C1B  646   4.520  10.306   7.295
   28POPC   C2B  647   4.507  10.258   6.859
   28POPC   C3B  648   4.212  10.369   6.562
   28POPC   C4B  649   4.237  10.360   6.144
   29POPC   NC3  650   8.432   2.039   7.836
   29POPC   PO4  651   8.912   1.722   8.149
   29POPC   GL1  652   8.766   1.698   7.679
   29POPC   GL2  653   8.927   1.393   7.571
   29POPC   C1A  654   8.528   1.899   7.245
   29POPC   D2A  655   8.379   2.212   6.898
   29POPC   C3A  656   8.430   2.035   6.478
   29POPC   C4A  657   8.521   1.974   6.017
   29POPC   C1B  658   8.963   1.601   7.182
   29POPC   C2B  659   8.865   1.915   6.881
   29POPC   C3B  660   8.896   1.829   6.470
   29POPC   C4B  661   8.986   2.175   6.261
   30POPC   NC3  662   3.359   4.188   7.972
   30POPC   PO4  663   3.767   3.683   8.147
   30POPC   GL1  664   3.692   3.865   7.667
   30POPC   GL2  665   3.379   4.034   7.482
   30POPC   C1A  666   3.686   3.810   7.172
   30POPC   D2A  667   3.420   4.087   6.862
   30POPC   C3A  668   3.615   4.178   6.444
   30POPC   C4A  669   3.729   3.945   6.093
   30POPC   C1B  670   3.176   4.396   7.299
   30POPC   C2B  671   3.185   4.604   6.889
   30POPC   C3B  672   3.166   4.395   6.499
   30POPC   C4B  673   3.374   4.483   6.098
   31POPC   NC3  674   3.673   1.296   8.419
   31POPC   PO4  675   4.289   1.415   8.169
   31POPC   GL1  676   4.149   1.315   7.779
   31POPC   GL2  677   4.301   0.979   7.757
   31POPC   C1A  678   3.910   1.117   7.440
   31POPC   D2A  679   3.931   0.816   7.076
   31POPC   C3A  680   3.902   1.004   6.649
   31POPC   C4A  681   3.958   1.286   6.288
   31POPC   C1B  682   4.416   1.145   7.344
   31POPC   C2B  683   4.466   1.004   6.925
   31POPC   C3B  684   4.394   1.102   6.520
   31POPC   C4B  685   4.231   0.859   6.239
   32POPC   NC3  686   2.006   9.180   8.181
   32POPC   PO4  687   2.211   8.544   8.140
   32POPC   GL1  688   1.864   8.673   7.844
   32POPC   GL2  689   1.610   8.944   7.895
   32POPC   C1A  690   1.813   8.551   7.398
   32POPC   D2A  691   2.007   8.343   7.031
   32POPC   C3A  692   1.999   8.574   6.654
   32POPC   C4A  693   2.302   8.834   6.425
   32POPC   C1B  694   1.599   9.024   7.442
   32POPC   C2B  695   1.646   8.884   7.008
   32POPC   C3B  696   1.506   8.777   6.590
   32POPC   C4B  697   1.744   8.683   6.220
   33POPC   NC3  698   0.123   4.999   8.058
   33POPC   PO4  699   0.690   5.421   8.139
   33POPC   GL1  700   0.580   5.226   7.730
   33POPC   GL2  701   0.377   4.919   7.651
   33POPC   C1A  702   0.714   5.119   7.308
   33POPC   D2A  703   0.534   5.180   6.886
   33POPC   C3A  704   0.762   5.064   6.499
   33POPC   C4A  705   0.646   5.003   6.065
   33POPC   C1B  706   0.243   4.916   7.247
   33POPC   C2B  707   0.097   4.941   6.841
   33POPC   C3B  708   0.231   4.990   6.399
   33POPC   C4B  709   0.276   4.648   6.072
   34POPC   NC3  710   9.916   4.824   8.059
   34POPC   PO4  711   0.012   4.525   8.010
   34POPC   GL1  712  10.355   4.715   7.689
   34POPC   GL2  713  10.257   5.038   7.719
   34POPC   C1A  714  10.286   4.677   7.284
   34POPC   D2A  715  10.103   4.889   6.956
   34POPC   C3A  716  10.214   4.800   6.537
   34POPC   C4A  717  10.313   4.878   6.113
   34POPC   C1B  718  10.320   5.194   7.337
   34POPC   C2B  719  10.261   5.383   6.969
   34POPC   C3B  720  10.414   5.359   6.600
   34POPC   C4B  721  10.100   5.278   6.337
   35POPC   NC3  722   7.868   0.792   8.089
   35POPC   PO4  723   8.127   0.221   8.023
   35POPC   GL1  724   8.143   0.486   7.616
   35POPC   GL2  725   7.785   0.601   7.573
   35POPC   C1A  726   8.046   0.499   7.130
   35POPC   D2A  727   8.227   0.732   6.778
   35POPC   C3A  728   8.087   0.666   6.341
   35POPC   C4A  729   8.303   0.556   5.943
   35POPC   C1B  730   7.789   0.159   7.410
   35POPC   C2B  731   7.751  10.470   6.990
   35POPC   C3B  732   7.690  10.494   6.559
   35POPC   C4B  733   7.751   0.269   6.186
   36POPC   NC3  734   8.151   5.825   8.622
   36POPC   PO4  735   8.014   5.449   8.120
   36POPC   GL1  736   8.123   5.456   7.694
   36POPC   GL2  737   8.131   5.811   7.688
   36POPC   C1A  738   7.918   5.504   7.281
   36POPC   D2A  739   7.658   5.271   6.970
   36POPC   C3A  740   7.780   5.362   6.551
   36POPC   C4A  741   8.122   5.597   6.404
   36POPC   C1B  742   8.105   5.989   7.301
   36POPC   C2B  743   7.810   5.919   6.973
   36POPC   C3B  744   7.885   6.013   6.553
   36POPC   C4B  745   7.739   5.959   6.150
   37POPC   NC3  746   8.563   0.363   8.122
   37POPC   PO4  747   8.994   0.767   7.864
   37POPC   GL1  748   8.682   0.550   7.640
   37POPC   GL2  749   8.696   0.223   7.639
   37POPC   C1A  750   8.548   0.521   7.224
   37POPC   D2A  751   8.764   0.445   6.857
   37POPC   C3A  752   8.593   0.521   6.449
   37POPC   C4A  753   8.815   0.567   6.072
   37POPC   C1B  754   8.376   0.059   7.412
   37POPC   C2B  755   8.271   0.018   6.988
   37POPC   C3B  756   8.130   0.242   6.655
   37POPC   C4B  757   8.237   0.182   6.254
   38POPC   NC3  758   3.068   7.137   7.870
   38POPC   PO4  759   2.522   7.004   8.148
   38POPC   GL1  760   2.621   6.928   7.712
   38POPC   GL2  761   2.617   7.290   7.679
   38POPC   C1A  762   2.758   6.925   7.262
   38POPC   D2A  763   2.620   6.818   6.832
   38POPC   C3A  764   2.841   6.892   6.449
   38POPC   C4A  765   2.870   7.198   6.125
   38POPC   C1B  766   2.722   7.444   7.285
   38POPC   C2B  767   2.571   7.459   6.882
   38POPC   C3B  768   2.476   7.244   6.518
   38POPC   C4B  769   2.479   7.518   6.191
   39POPC   NC3  770   4.690   8.700   8.014
   39POPC   PO4  771   5.388   8.644   8.053
   39POPC   GL1  772   5.161   8.865   7.742
   39POPC   GL2  773   5.116   8.548   7.575
   39POPC   C1A  774   4.998   8.970   7.322
   39POPC   D2A  775   5.015   8.705   6.964
   39POPC   C3A  776   5.026   8.930   6.565
   39POPC   C4A  777   5.204   9.078   6.170
   39POPC   C1B  778   4.698   8.559   7.333
   39POPC   C2B  779   4.558   8.493   6.899
   39POPC   C3B  780   4.817   8.445   6.566
   39POPC   C4B  781   4.896   8.428   6.175
   40POPC   NC3  782   5.833   1.914   7.902
   40POPC   PO4  783   5.227   1.760   8.139
   40POPC   GL1  784   5.362   2.054   7.775
   40POPC   GL2  785   5.487   1.798   7.558
   40POPC   C1A  786   5.341   2.165   7.283
   40POPC   D2A  787   5.433   1.881   6.925
   40POPC   C3A  788   5.416   2.013   6.481
   40POPC   C4A  789   5.502   1.736   6.159
   40POPC   C1B  790   5.838   1.998   7.230
   40POPC   C2B  791   6.108   2.031   6.803
   40POPC   C3B  792   5.937   1.981   6.371
   40POPC   C4B  793   5.706   2.171   6.023
   41POPC   NC3  794   0.190   2.038   8.094
   41POPC   PO4  795   0.688   1.593   8.180
   41POPC   GL1  796   0.513   1.754   7.752
   41POPC   GL2  797   0.547   2.114   7.703
   41POPC   C1A  798   0.521   1.834   7.278
   41POPC   D2A  799   0.743   2.001   6.945
   41POPC   C3A  800   0.571   2.056   6.576
   41POPC   C4A  801   0.682   1.829   6.226
   41POPC   C1B  802   0.202   2.248   7.416
   41POPC   C2B  803   0.134   2.417   6.995
   41POPC   C3B  804   0.037   2.324   6.567
   41POPC   C4B  805   0.192   2.064   6.239
   42POPC   NC3  806   6.038   1.032   7.955
   42POPC   PO4  807   6.585   0.722   8.116
   42POPC   GL1  808   6.506   0.978   7.764
   42POPC   GL2  809   6.406   1.354   7.794
   42POPC   C1A  810   6.359   0.963   7.354
   42POPC   D2A  811   6.199   1.227   7.042
   42POPC   C3A  812   6.111   1.093   6.611
   42POPC   C4A  813   6.322   1.126   6.214
   42POPC   C1B  814   6.638   1.393   7.397
   42POPC   C2B  815   6.804   1.229   7.045
   42POPC   C3B  816   6.606   1.214   6.682
   42POPC   C4B  817   6.688   1.482   6.339
   43POPC   NC3  818   1.261   1.935   8.153
   43POPC   PO4  819   1.437   2.599   8.238
   43POPC   GL1  820   1.405   2.405   7.790
   43POPC   GL2  821   1.252   2.066   7.659
   43POPC   C1A  822   1.437   2.349   7.306
   43POPC   D2A  823   1.444   2.007   6.992
   43POPC   C3A  824   1.466   2.166   6.528
   43POPC   C4A  825   1.472   2.155   6.051
   43POPC   C1B  826   1.057   1.801   7.344
   43POPC   C2B  827   1.126   1.615   6.952
   43POPC   C3B  828   1.069   1.853   6.584
   43POPC   C4B  829   1.302   1.721   6.249
   44POPC   NC3  830   2.590   4.011   8.049
   44POPC   PO4  831   3.186   3.779   7.862
   44POPC   GL1  832   2.873   3.827   7.604
   44POPC   GL2  833   2.793   4.176   7.595
   44POPC   C1A  834   2.970   3.901   7.195
   44POPC   D2A  835   2.874   4.208   6.925
   44POPC   C3A  836   2.782   4.074   6.554
   44POPC   C4A  837   2.851   4.171   6.131
   44POPC   C1B  838   2.483   4.064   7.242
   44POPC   C2B  839   2.361   4.274   6.821
   44POPC   C3B  840   2.364   4.287   6.350
   44POPC   C4B  841   2.487   4.487   5.965
   45POPC   NC3  842   8.358   8.068   8.135
   45POPC   PO4  843   8.965   8.173   8.334
   45POPC   GL1  844   8.789   7.935   7.891
   45POPC   GL2  845   8.514   8.005   7.663
   45POPC   C1A  846   8.962   7.771   7.445
   45POPC   D2A  847   9.108   7.836   7.003
   45POPC   C3A  848   8.990   7.795   6.550
   45POPC   C4A  849   8.979   7.537   6.181
   45POPC   C1B  850   8.642   8.149   7.265
   45POPC   C2B  851   8.694   8.068   6.852
   45POPC   C3B  852   8.589   8.182   6.473
   45POPC   C4B  853   8.668   7.949   6.142
   46POPC   NC3  854   9.804  10.325   8.065
   46POPC   PO4  855  10.451   0.117   8.097
   46POPC   GL1  856   0.030  10.443   7.739
   46POPC   GL2  857  10.311  10.146   7.800
   46POPC   C1A  858  10.349  10.464   7.361
   46POPC   D2A  859  10.391   0.111   6.936
   46POPC   C3A  860  10.217   0.015   6.547
   46POPC   C4A  861  10.314  10.363   6.124
   46POPC   C1B  862  10.121   9.999   7.414
   46POPC   C2B  863   9.988  10.223   7.039
   46POPC   C3B  864  10.009  10.070   6.618
   46POPC   C4B  865  10.093   9.939   6.230
   47POPC   NC3  866   0.929   4.434   8.040
   47POPC   PO4  867   1.486   4.476   8.436
   47POPC   GL1  868   1.387   4.216   7.938
   47POPC   GL2  869   1.104   4.014   7.774
   47POPC   C1A  870   1.393   4.294   7.421
   47POPC   D2A  871   1.408   4.515   6.967
   47POPC   C3A  872   1.397   4.239   6.565
   47POPC   C4A  873   1.499   4.257   6.094
   47POPC   C1B  874   0.904   4.129   7.375
   47POPC   C2B  875   0.933   4.315   6.977
   47POPC   C3B  876   0.869   4.157   6.569
   47POPC   C4B  877   1.042   4.057   6.179
   48POPC   NC3  878   2.148   0.369   8.070
   48POPC   PO4  879   1.448   0.399   8.111
   48POPC   GL1  880   1.729   0.292   7.774
   48POPC   GL2  881   1.694   0.638   7.690
   48POPC   C1A  882   2.037   0.159   7.421
   48POPC   D2A  883   2.089  10.439   7.006
   48POPC   C3A  884   2.275   0.091   6.629
   48POPC   C4A  885   2.166  10.476   6.203
   48POPC   C1B  886   2.075   0.674   7.413
   48POPC   C2B  887   2.227   0.463   7.039
   48POPC   C3B  888   1.912   0.417   6.737
   48POPC   C4B  889   1.888   0.387   6.299
   49POPC   NC3  890   6.934   0.457   7.973
   49POPC   PO4  891   7.437   0.944   8.011
   49POPC   GL1  892   7.283   0.744   7.654
   49POPC   GL2  893   7.326   0.367   7.643
   49POPC   C1A  894   7.362   0.646   7.216
   49POPC   D2A  895   7.327   0.309   6.913
   49POPC   C3A  896   7.530   0.478   6.585
   49POPC   C4A  897   7.580   0.775   6.243
   49POPC   C1B  898   6.999   0.308   7.322
   49POPC   C2B  899   6.824   0.154   6.944
   49POPC   C3B  900   6.902   0.353   6.572
   49POPC   C4B  901   7.201   0.358   6.213
   50POPC   NC3  902   6.881   2.941   8.216
   50POPC   PO4  903   7.577   3.168   8.110
   50POPC   GL1  904   7.531   2.904   7.731
   50POPC   GL2  905   7.320   2.612   7.840
   50POPC   C1A  906   7.520   2.689   7.314
   50POPC   D2A  907   7.131   2.671   7.057
   50POPC   C3A  908   7.117   2.795   6.637
   50POPC   C4A  909   6.978   2.961   6.250
   50POPC   C1B  910   7.187   2.322   7.496
   50POPC   C2B  911   7.219   2.181   7.049
   50POPC   C3B  912   7.446   2.391   6.658
   50POPC   C4B  913   7.313   2.568   6.242
   51POPC   NC3  914   7.154  10.073   8.387
   51POPC   PO4  915   7.287   9.800   7.791
   51POPC   GL1  916   7.124  10.038   7.489
   51POPC   GL2  917   7.107  10.385   7.659
   51POPC   C1A  918   7.062   9.799   7.147
   51POPC   D2A  919   7.214   9.655   6.808
   51POPC   C3A  920   7.063   9.945   6.564
   51POPC   C4A  921   6.906  10.048   6.188
   51POPC   C1B  922   7.338  10.446   7.302
   51POPC   C2B  923   7.171  10.296   6.949
   51POPC   C3B  924   7.181  10.435   6.534
   51POPC   C4B  925   7.393  10.223   6.229
   52POPC   NC3  926  10.175   1.313   8.208
   52POPC   PO4  927   9.851   0.765   8.192
   52POPC   GL1  928  10.132   0.885   7.843
   52POPC   GL2  929  10.209   1.241   7.709
   52POPC   C1A  930  10.130   0.836   7.388
   52POPC   D2A  931  10.245   0.959   6.937
   52POPC   C3A  932   9.959   1.047   6.601
   52POPC   C4A  933  10.086   0.913   6.220
   52POPC   C1B  934  10.233   1.364   7.282
   52POPC   C2B  935  10.180   1.454   6.853
   52POPC   C3B  936  10.400   1.274   6.531
   52POPC   C4B  937   0.007   1.223   6.129
   53POPC   NC3  938   8.743   7.062   8.195
   53POPC   PO4  939   9.220   7.449   8.014
   53POPC   GL1  940   8.740   7.440   7.784
   53POPC   GL2  941   8.494   7.147   7.756
   53POPC   C1A  942   8.529   7.517   7.358
   53POPC   D2A  943   8.740   7.507   6.926
   53POPC   C3A  944   8.519   7.619   6.531
   53POPC   C4A  945   8.488   7.444   6.094
   53POPC   C1B  946   8.366   7.012   7.369
   53POPC   C2B  947   8.405   7.137   6.953
   53POPC   C3B  948   8.482   7.100   6.537
   53POPC   C4B  949   8.728   7.015   6.225
   54POPC   NC3  950   8.895   4.068   8.019
   54POPC   PO4  951   8.486   4.569   8.086
   54POPC   GL1  952   8.532   4.290   7.659
   54POPC   GL2  953   8.760   4.023   7.539
   54POPC   C1A  954   8.299   3.977   7.343
   54POPC   D2A  955   8.430   3.773   6.972
   54POPC   C3A  956   8.507   4.055   6.646
   54POPC   C4A  957   8.474   3.795   6.288
   54POPC   C1B  958   8.906   4.379   7.306
   54POPC   C2B  959   8.778   4.495   6.894
   54POPC   C3B  960   8.907   4.445   6.498
   54POPC   C4B  961   8.720   4.221   6.205
   55POPC   NC3  962   9.488   7.069   7.998
   55POPC   PO4  963   9.043   6.717   8.296
   55POPC   GL1  964   9.028   7.026   7.789
   55POPC   GL2  965   9.287   7.228   7.567
   55POPC   C1A  966   8.864   7.120   7.330
   55POPC   D2A  967   8.895   6.969   6.883
   55POPC   C3A  968   9.061   7.226   6.569
   55POPC   C4A  969   9.225   7.096   6.151
   55POPC   C1B  970   9.623   7.037   7.316
   55POPC   C2B  971   9.547   6.873   6.914
   55POPC   C3B  972   9.562   7.077   6.553
   55POPC   C4B  973   9.794   7.021   6.227
   56POPC   NC3  974  10.121   7.605   8.035
   56POPC   PO4  975  10.459   8.176   8.246
   56POPC   GL1  976  10.365   7.987   7.798
   56POPC   GL2  977  10.068   7.898   7.652
   56POPC   C1A  978  10.361   7.782   7.296
   56POPC   D2A  979   0.061   7.919   6.976
   56POPC   C3A  980  10.321   7.762   6.698
   56POPC   C4A  981  10.362   7.793   6.304
   56POPC   C1B  982   9.894   7.995   7.301
   56POPC   C2B  983  10.031   8.118   6.926
   56POPC   C3B  984   9.888   7.948   6.508
   56POPC   C4B  985   9.795   7.889   6.095
   57POPC   NC3  986   1.574   3.007   8.411
   57POPC   PO4  987   0.889   3.092   8.116
   57POPC   GL1  988   0.945   3.371   7.769
   57POPC   GL2  989   1.301   3.493   7.746
   57POPC   C1A  990   1.045   3.275   7.348
   57POPC   D2A  991   1.248   3.265   6.971
   57POPC   C3A  992   1.018   3.299   6.609
   57POPC   C4A  993   1.167   3.371   6.209
   57POPC   C1B  994   1.259   3.748   7.353
   57POPC   C2B  995   1.059   3.798   6.952
   57POPC   C3B  996   1.219   3.758   6.546
   57POPC   C4B  997   1.522   3.758   6.200
   58POPC   NC3  998  10.126   3.861   8.231
   58POPC   PO4  999   9.935   3.167   8.194
   58POPC   GL1 1000   9.910   3.113   7.723
   58POPC   GL2 1001  10.149   3.377   7.603
   58POPC   C1A 1002  10.024   2.976   7.304
   58POPC   D2A 1003   9.916   3.171   6.910
   58POPC   C3A 1004  10.119   3.139   6.535
   58POPC   C4A 1005  10.000   3.206   6.110
   58POPC   C1B 1006  10.128   3.612   7.205
   58POPC   C2B 1007  10.264   3.583   6.779
   58POPC   C3B 1008  10.222   3.617   6.332
   58POPC   C4B 1009  10.034   3.680   5.944
   59POPC   NC3 1010   7.331   7.906   8.450
   59POPC   PO4 1011   7.184   7.741   7.883
   59POPC   GL1 1012   7.176   7.950   7.560
   59POPC   GL2 1013   7.096   8.302   7.599
   59POPC   C1A 1014   7.172   7.768   7.197
   59POPC   D2A 1015   7.375   7.613   6.858
   59POPC   C3A 1016   7.188   7.693   6.446
   59POPC   C4A 1017   7.311   7.677   5.978
   59POPC   C1B 1018   7.342   8.267   7.221
   59POPC   C2B 1019   7.219   8.110   6.837
   59POPC   C3B 1020   7.189   8.207   6.480
   59POPC   C4B 1021   7.030   8.054   6.121
   60POPC   NC3 1022   2.760   6.610   8.161
   60POPC   PO4 1023   2.973   5.905   8.007
   60POPC   GL1 1024   2.791   6.204   7.689
   60POPC   GL2 1025   2.507   6.402   7.765
   60POPC   C1A 1026   2.852   6.372   7.235
   60POPC   D2A 1027   3.137   6.262   6.847
   60POPC   C3A 1028   3.027   6.402   6.405
   60POPC   C4A 1029   3.037   6.144   5.993
   60POPC   C1B 1030   2.331   6.280   7.360
   60POPC   C2B 1031   2.230   6.226   6.929
   60POPC   C3B 1032   2.426   6.404   6.536
   60POPC   C4B 1033   2.583   6.359   6.114
   61POPC   NC3 1034   8.130   4.267   7.962
   61POPC   PO4 1035   7.626   3.888   8.175
   61POPC   GL1 1036   7.684   3.752   7.777
   61POPC   GL2 1037   7.689   4.089   7.644
   61POPC   C1A 1038   7.824   3.722   7.337
   61POPC   D2A 1039   7.763   3.906   6.898
   61POPC   C3A 1040   8.027   3.898   6.567
   61POPC   C4A 1041   8.147   4.156   6.230
   61POPC   C1B 1042   7.867   4.245   7.254
   61POPC   C2B 1043   7.995   4.356   6.815
   61POPC   C3B 1044   7.782   4.441   6.424
   61POPC   C4B 1045   7.474   4.517   6.081
   62POPC   NC3 1046   0.171   0.490   7.934
   62POPC   PO4 1047   0.600   0.028   8.043
   62POPC   GL1 1048   0.512   0.198   7.647
   62POPC   GL2 1049   0.673   0.520   7.771
   62POPC   C1A 1050   0.349   0.066   7.211
   62POPC   D2A 1051   0.349   0.151   6.724
   62POPC   C3A 1052   0.273  10.452   6.318
   62POPC   C4A 1053   0.572   0.066   5.996
   62POPC   C1B 1054   0.508   0.643   7.377
   62POPC   C2B 1055   0.595   0.512   6.984
   62POPC   C3B 1056   0.566   0.637   6.583
   62POPC   C4B 1057   0.359   0.435   6.275
   63POPC   NC3 1058   0.224   4.461   8.418
   63POPC   PO4 1059   0.500   3.953   8.170
   63POPC   GL1 1060   0.578   4.103   7.776
   63POPC   GL2 1061   0.454   4.411   7.760
   63POPC   C1A 1062   0.390   4.075   7.350
   63POPC   D2A 1063   0.541   3.990   6.945
   63POPC   C3A 1064   0.361   4.099   6.545
   63POPC   C4A 1065   0.523   4.037   6.143
   63POPC   C1B 1066   0.600   4.551   7.359
   63POPC   C2B 1067   0.442   4.513   6.947
   63POPC   C3B 1068   0.544   4.593   6.532
   63POPC   C4B 1069   0.750   4.480   6.157
   64POPC   NC3 1070   3.944   0.723   8.095
   64POPC   PO4 1071   3.945   0.066   8.140
   64POPC   GL1 1072   3.928   0.302   7.777
   64POPC   GL2 1073   4.266   0.445   7.789
   64POPC   C1A 1074   3.915   0.183   7.344
   64POPC   D2A 1075   3.719   0.323   6.973
   64POPC   C3A 1076   3.825   0.236   6.548
   64POPC   C4A 1077   3.807   0.590   6.311
   64POPC   C1B 1078   4.390   0.318   7.374
   64POPC   C2B 1079   4.241   0.215   6.962
   64POPC   C3B 1080   4.188   0.556   6.682
   64POPC   C4B 1081   4.308   0.356   6.311
   65POPC   NC3 1082   5.007   9.611   8.280
   65POPC   PO4 1083   4.687   9.104   8.260
   65POPC   GL1 1084   4.948   9.332   7.846
   65POPC   GL2 1085   5.025   9.704   7.784
   65POPC   C1A 1086   5.152   9.444   7.392
   65POPC   D2A 1087   4.918   9.431   7.009
   65POPC   C3A 1088   5.148   9.433   6.638
   65POPC   C4A 1089   5.087   9.575   6.262
   65POPC   C1B 1090   4.667   9.645   7.459
   65POPC   C2B 1091   4.507   9.775   7.038
   65POPC   C3B 1092   4.565   9.597   6.620
   65POPC   C4B 1093   4.709   9.266   6.346
   66POPC   NC3 1094   2.714   5.003   8.087
   66POPC   PO4 1095   2.987   4.441   8.056
   66POPC   GL1 1096   2.805   4.686   7.699
   66POPC   GL2 1097   2.430   4.732   7.744
   66POPC   C1A 1098   2.701   5.023   7.380
   66POPC   D2A 1099   2.782   5.362   7.093
   66POPC   C3A 1100   2.875   5.124   6.713
   66POPC   C4A 1101   2.900   5.176   6.278
   66POPC   C1B 1102   2.498   4.556   7.323
   66POPC   C2B 1103   2.663   4.689   6.943
   66POPC   C3B 1104   2.612   4.724   6.505
   66POPC   C4B 1105   2.895   4.678   6.183
   67POPC   NC3 1106   8.826   8.539   8.081
   67POPC   PO4 1107   8.960   9.140   8.081
   67POPC   GL1 1108   8.861   8.893   7.673
   67POPC   GL2 1109   8.729   8.533   7.597
   67POPC   C1A 1110   9.092   8.761   7.288
   67POPC   D2A 1111   9.066   8.391   7.027
   67POPC   C3A 1112   9.090   8.531   6.612
   67POPC   C4A 1113   9.006   8.365   6.229
   67POPC   C1B 1114   8.573   8.695   7.234
   67POPC   C2B 1115   8.606   8.578   6.819
   67POPC   C3B 1116   8.638   8.689   6.378
   67POPC   C4B 1117   8.501   8.425   6.006
   68POPC   NC3 1118   5.300   0.404   7.782
   68POPC   PO4 1119   4.928  10.485   8.105
   68POPC   GL1 1120   4.732   0.203   7.755
   68POPC   GL2 1121   4.786   0.572   7.738
   68POPC   C1A 1122   4.867   0.211   7.308
   68POPC   D2A 1123   5.129   0.445   7.071
   68POPC   C3A 1124   5.100   0.418   6.645
   68POPC   C4A 1125   5.041   0.375   6.229
   68POPC   C1B 1126   4.729   0.711   7.311
   68POPC   C2B 1127   4.651   0.510   6.921
   68POPC   C3B 1128   4.663   0.660   6.526
   68POPC   C4B 1129   4.686   0.706   6.117
   69POPC   NC3 1130   9.360   5.334   7.984
   69POPC   PO4 1131   9.725   5.942   8.214
   69POPC   GL1 1132   9.725   5.798   7.816
   69POPC   GL2 1133   9.429   5.739   7.658
   69POPC   C1A 1134   9.820   5.939   7.400
   69POPC   D2A 1135   9.551   5.832   7.074
   69POPC   C3A 1136   9.631   5.943   6.658
   69POPC   C4A 1137   9.434   5.921   6.282
   69POPC   C1B 1138   9.346   5.431   7.340
   69POPC   C2B 1139   9.254   5.326   6.921
   69POPC   C3B 1140   9.136   5.455   6.524
   69POPC   C4B 1141   9.186   5.342   6.132
   70POPC   NC3 1142   4.292   2.772   7.867
   70POPC   PO4 1143   3.876   2.318   8.056
   70POPC   GL1 1144   3.941   2.491   7.610
   70POPC   GL2 1145   3.841   2.838   7.561
   70POPC   C1A 1146   4.279   2.480   7.255
   70POPC   D2A 1147   4.437   2.727   6.867
   70POPC   C3A 1148   4.248   2.757   6.455
   70POPC   C4A 1149   4.151   2.546   6.072
   70POPC   C1B 1150   3.832   2.696   7.151
   70POPC   C2B 1151   3.814   2.690   6.720
   70POPC   C3B 1152   3.755   2.859   6.334
   70POPC   C4B 1153   3.715   2.730   5.904
   71POPC   NC3 1154   7.021   6.956   8.485
   71POPC   PO4 1155   7.545   6.851   8.068
   71POPC   GL1 1156   7.585   6.733   7.674
   71POPC   GL2 1157   7.381   6.441   7.655
   71POPC   C1A 1158   7.376   6.838   7.282
   71POPC   D2A 1159   7.133   6.798   6.923
   71POPC   C3A 1160   7.261   6.800   6.511
   71POPC   C4A 1161   7.093   6.509   6.210
   71POPC   C1B 1162   7.201   6.358   7.200
   71POPC   C2B 1163   7.107   6.329   6.735
   71POPC   C3B 1164   7.005   6.046   6.420
   71POPC   C4B 1165   7.240   6.025   6.039
   72POPC   NC3 1166   1.063   5.675   8.057
   72POPC   PO4 1167   1.487   6.180   8.044
   72POPC   GL1 1168   1.558   5.858   7.721
   72POPC   GL2 1169   1.369   5.533   7.681
   72POPC   C1A 1170   1.500   5.812   7.297
   72POPC   D2A 1171   1.427   5.610   6.962
   72POPC   C3A 1172   1.477   5.893   6.590
   72POPC   C4A 1173   1.337   5.772   6.191
   72POPC   C1B 1174   1.031   5.557   7.356
   72POPC   C2B 1175   1.010   5.343   6.949
   72POPC   C3B 1176   1.085   5.536   6.566
   72POPC   C4B 1177   0.942   5.417   6.159
   73POPC   NC3 1178   3.566  10.298   8.129
   73POPC   PO4 1179   3.069   9.887   7.911
   73POPC   GL1 1180   3.408  10.077   7.651
   73POPC   GL2 1181   3.661  10.360   7.646
   73POPC   C1A 1182   3.598   9.931   7.260
   73POPC   D2A 1183   3.497   9.685   6.902
   73POPC   C3A 1184   3.326   9.938   6.559
   73POPC   C4A 1185   2.976   9.990   6.259
   73POPC   C1B 1186   3.497  10.428   7.254
   73POPC   C2B 1187   3.602  10.347   6.827
   73POPC   C3B 1188   3.707  10.274   6.392
   73POPC   C4B 1189   3.726   9.917   6.203
   74POPC   NC3 1190   0.235   8.389   7.940
   74POPC   PO4 1191   0.800   8.736   8.088
   74POPC   GL1 1192   0.699   8.523   7.746
   74POPC   GL2 1193   0.495   8.773   7.616
   74POPC   C1A 1194   0.806   8.488   7.324
   74POPC   D2A 1195   0.644   8.738   6.982
   74POPC   C3A 1196   0.765   8.585   6.597
   74POPC   C4A 1197   0.638   8.601   6.203
   74POPC   C1B 1198   0.201   8.829   7.285
   74POPC   C2B 1199   0.163   8.851   6.858
   74POPC   C3B 1200   0.232   8.590   6.529
   74POPC   C4B 1201   0.071   8.542   6.152
   75POPC   NC3 1202   1.083   6.435   8.012
   75POPC   PO4 1203   0.931   6.981   8.265
   75POPC   GL1 1204   1.130   6.898   7.779
   75POPC   GL2 1205   0.988   6.637   7.562
   75POPC   C1A 1206   1.416   6.717   7.347
   75POPC   D2A 1207   1.191   6.539   6.947
   75POPC   C3A 1208   1.395   6.530   6.502
   75POPC   C4A 1209   1.307   6.490   6.033
   75POPC   C1B 1210   1.140   6.224   7.385
   75POPC   C2B 1211   1.077   5.991   7.008
   75POPC   C3B 1212   1.018   6.137   6.588
   75POPC   C4B 1213   0.980   6.131   6.154
   76POPC   NC3 1214   0.082   4.043   7.961
   76POPC   PO4 1215  10.058   4.388   8.187
   76POPC   GL1 1216  10.120   4.245   7.762
   76POPC   GL2 1217  10.109   3.891   7.699
   76POPC   C1A 1218   9.943   4.294   7.336
   76POPC   D2A 1219  10.124   4.351   6.928
   76POPC   C3A 1220   9.902   4.385   6.572
   76POPC   C4A 1221  10.077   4.431   6.187
   76POPC   C1B 1222  10.377   4.042   7.338
   76POPC   C2B 1223   0.016   4.020   6.915
   76POPC   C3B 1224  10.342   4.089   6.486
   76POPC   C4B 1225  10.434   4.014   6.030
   77POPC   NC3 1226   1.826   5.866   8.154
   77POPC   PO4 1227   1.455   5.367   8.154
   77POPC   GL1 1228   1.839   5.428   7.838
   77POPC   GL2 1229   2.071   5.682   7.751
   77POPC   C1A 1230   1.810   5.369   7.400
   77POPC   D2A 1231   1.907   5.311   6.970
   77POPC   C3A 1232   1.685   5.403   6.593
   77POPC   C4A 1233   1.894   5.374   6.214
   77POPC   C1B 1234   2.018   5.868   7.346
   77POPC   C2B 1235   1.855   5.876   6.930
   77POPC   C3B 1236   2.007   5.789   6.524
   77POPC   C4B 1237   2.253   5.987   6.252
   78POPC   NC3 1238   8.542   3.366   7.977
   78POPC   PO4 1239   9.108   3.137   8.112
   78POPC   GL1 1240   8.928   3.240   7.706
   78POPC   GL2 1241   8.974   3.601   7.739
   78POPC   C1A 1242   8.722   3.451   7.323
   78POPC   D2A 1243   8.554   3.261   6.948
   78POPC   C3A 1244   8.717   3.406   6.538
   78POPC   C4A 1245   8.488   3.320   6.147
   78POPC   C1B 1246   9.137   3.773   7.319
   78POPC   C2B 1247   8.924   3.939   6.963
   78POPC   C3B 1248   8.988   3.915   6.520
   78POPC   C4B 1249   8.946   3.657   6.153
   79POPC   NC3 1250   9.751   4.248   8.504
   79POPC   PO4 1251   9.214   4.427   8.065
   79POPC   GL1 1252   9.239   4.218   7.674
   79POPC   GL2 1253   9.367   3.935   7.735
   79POPC   C1A 1254   9.415   4.336   7.299
   79POPC   D2A 1255   9.258   4.314   6.887
   79POPC   C3A 1256   9.416   4.482   6.514
   79POPC   C4A 1257   9.257   4.239   6.174
   79POPC   C1B 1258   9.652   3.880   7.384
   79POPC   C2B 1259   9.695   4.043   6.956
   79POPC   C3B 1260   9.510   3.973   6.562
   79POPC   C4B 1261   9.785   4.014   6.229
   80POPC   NC3 1262   6.318   6.728   7.738
   80POPC   PO4 1263   6.589   7.046   8.285
   80POPC   GL1 1264   6.678   7.132   7.769
   80POPC   GL2 1265   6.394   7.313   7.651
   80POPC   C1A 1266   6.789   6.913   7.311
   80POPC   D2A 1267   6.665   6.950   6.834
   80POPC   C3A 1268   6.646   6.614   6.499
   80POPC   C4A 1269   6.310   6.648   6.160
   80POPC   C1B 1270   6.616   7.388   7.255
   80POPC   C2B 1271   6.429   7.393   6.862
   80POPC   C3B 1272   6.307   7.175   6.491
   80POPC   C4B 1273   6.072   7.404   6.210
   81POPC   NC3 1274   0.655   1.160   8.336
   81POPC   PO4 1275   0.026   0.843   8.188
   81POPC   GL1 1276   0.147   0.979   7.757
   81POPC   GL2 1277   0.222   1.327   7.850
   81POPC   C1A 1278   0.118   0.960   7.286
   81POPC   D2A 1279   0.446   1.008   6.969
   81POPC   C3A 1280   0.407   1.111   6.542
   81POPC   C4A 1281   0.410   0.902   6.148
   81POPC   C1B 1282   0.258   1.422   7.400
   81POPC   C2B 1283   0.187   1.478   6.922
   81POPC   C3B 1284   0.305   1.581   6.440
   81POPC   C4B 1285   0.545   1.362   6.084
   82POPC   NC3 1286   9.288   6.160   8.164
   82POPC   PO4 1287   8.988   6.544   7.803
   82POPC   GL1 1288   9.084   6.155   7.680
   82POPC   GL2 1289   9.443   6.252   7.661
   82POPC   C1A 1290   9.132   6.106   7.251
   82POPC   D2A 1291   8.880   6.282   6.876
   82POPC   C3A 1292   9.117   6.293   6.486
   82POPC   C4A 1293   9.194   6.713   6.455
   82POPC   C1B 1294   9.374   6.546   7.290
   82POPC   C2B 1295   9.420   6.377   6.880
   82POPC   C3B 1296   9.624   6.436   6.475
   82POPC   C4B 1297   9.951   6.193   6.314
   83POPC   NC3 1298   9.457   0.747   7.892
   83POPC   PO4 1299   9.068   0.359   8.333
   83POPC   GL1 1300   9.169   0.284   7.820
   83POPC   GL2 1301   9.497   0.302   7.627
   83POPC   C1A 1302   9.098   0.410   7.322
   83POPC   D2A 1303   9.301   0.336   6.899
   83POPC   C3A 1304   9.137   0.465   6.504
   83POPC   C4A 1305   9.050   0.869   6.398
   83POPC   C1B 1306   9.612   0.598   7.269
   83POPC   C2B 1307   9.642   0.730   6.840
   83POPC   C3B 1308   9.615   0.686   6.396
   83POPC   C4B 1309   9.495   0.303   6.166
   84POPC   NC3 1310   7.173   7.083   7.905
   84POPC   PO4 1311   7.503   7.456   8.309
   84POPC   GL1 1312   7.496   7.377   7.717
   84POPC   GL2 1313   7.132   7.392   7.523
   84POPC   C1A 1314   7.566   7.344   7.274
   84POPC   D2A 1315   7.565   7.108   6.880
   84POPC   C3A 1316   7.558   7.320   6.486
   84POPC   C4A 1317   7.271   7.229   6.223
   84POPC   C1B 1318   7.090   7.267   7.101
   84POPC   C2B 1319   7.030   7.261   6.670
   84POPC   C3B 1320   6.811   7.049   6.318
   84POPC   C4B 1321   6.762   6.766   5.931
   85POPC   NC3 1322   7.855   1.790   8.151
   85POPC   PO4 1323   8.198   2.387   8.044
   85POPC   GL1 1324   7.975   2.011   7.684
   85POPC   GL2 1325   7.681   1.790   7.667
   85POPC   C1A 1326   8.011   1.787   7.251
   85POPC   D2A 1327   8.166   1.750   6.826
   85POPC   C3A 1328   7.977   1.628   6.433
   85POPC   C4A 1329   8.111   1.601   5.956
   85POPC   C1B 1330   7.629   2.118   7.341
   85POPC   C2B 1331   7.694   2.024   6.919
   85POPC   C3B 1332   7.904   2.128   6.566
   85POPC   C4B 1333   8.026   2.055   6.171
   86POPC   NC3 1334   7.253   9.333   8.322
   86POPC   PO4 1335   7.572   9.925   8.268
   86POPC   GL1 1336   7.452   9.350   7.889
   86POPC   GL2 1337   7.100   9.309   7.792
   86POPC   C1A 1338   7.428   9.108   7.450
   86POPC   D2A 1339   7.307   8.942   7.012
   86POPC   C3A 1340   7.356   9.184   6.619
   86POPC   C4A 1341   7.474   9.053   6.187
   86POPC   C1B 1342   6.919   9.305   7.344
   86POPC   C2B 1343   6.881   9.248   6.874
   86POPC   C3B 1344   6.919   9.458   6.453
   86POPC   C4B 1345   7.332   9.604   6.290
   87POPC   NC3 1346   7.009   1.106   8.179
   87POPC   PO4 1347   7.444   1.597   8.127
   87POPC   GL1 1348   7.253   1.354   7.747
   87POPC   GL2 1349   6.963   1.179   7.695
   87POPC   C1A 1350   7.298   1.171   7.327
   87POPC   D2A 1351   7.291   1.081   6.909
   87POPC   C3A 1352   7.124   1.360   6.593
   87POPC   C4A 1353   7.164   1.356   6.133
   87POPC   C1B 1354   6.866   0.839   7.382
   87POPC   C2B 1355   6.922   0.699   6.945
   87POPC   C3B 1356   7.114   0.803   6.527
   87POPC   C4B 1357   6.847   1.012   6.290
   88POPC   NC3 1358   2.522   0.928   8.130
   88POPC   PO4 1359   3.163   1.006   8.130
   88POPC   GL1 1360   3.093   1.241   7.718
   88POPC   GL2 1361   2.776   1.131   7.717
   88POPC   C1A 1362   3.086   1.348   7.265
   88POPC   D2A 1363   3.021   1.088   6.935
   88POPC   C3A 1364   2.869   1.236   6.553
   88POPC   C4A 1365   3.032   1.110   6.198
   88POPC   C1B 1366   2.621   1.108   7.302
   88POPC   C2B 1367   2.514   1.299   6.910
   88POPC   C3B 1368   2.326   1.168   6.527
   88POPC   C4B 1369   2.461   1.040   6.122
   89POPC   NC3 1370   0.497   9.096   8.025
   89POPC   PO4 1371   0.400   9.751   7.962
   89POPC   GL1 1372   0.613   9.427   7.671
   89POPC   GL2 1373   0.321   9.267   7.565
   89POPC   C1A 1374   0.688   9.169   7.254
   89POPC   D2A 1375   0.459   9.263   6.856
   89POPC   C3A 1376   0.498   9.027   6.481
   89POPC   C4A 1377   0.525   9.046   5.999
   89POPC   C1B 1378   0.431   9.632   7.275
   89POPC   C2B 1379   0.293   9.745   6.905
   89POPC   C3B 1380   0.479   9.782   6.545
   89POPC   C4B 1381   0.343   9.469   6.264
   90POPC   NC3 1382   5.631   9.030   8.081
   90POPC   PO4 1383   5.461   9.715   8.114
   90POPC   GL1 1384   5.588   9.451   7.741
   90POPC   GL2 1385   5.948   9.304   7.732
   90POPC   C1A 1386   5.590   9.166   7.371
   90POPC   D2A 1387   5.345   9.098   6.970
   90POPC   C3A 1388   5.549   9.102   6.569
   90POPC   C4A 1389   5.728   9.337   6.234
   90POPC   C1B 1390   5.914   9.577   7.349
   90POPC   C2B 1391   5.610   9.535   7.011
   90POPC   C3B 1392   5.645   9.654   6.621
   90POPC   C4B 1393   6.012   9.772   6.340
   91POPC   NC3 1394   3.772   2.780   8.206
   91POPC   PO4 1395   3.115   2.933   8.263
   91POPC   GL1 1396   3.393   2.941   7.857
   91POPC   GL2 1397   3.486   2.586   7.825
   91POPC   C1A 1398   3.279   2.979   7.400
   91POPC   D2A 1399   3.048   2.793   7.030
   91POPC   C3A 1400   3.173   2.882   6.581
   91POPC   C4A 1401   3.315   3.052   6.204
   91POPC   C1B 1402   3.384   2.474   7.409
   91POPC   C2B 1403   3.422   2.469   6.963
   91POPC   C3B 1404   3.431   2.435   6.523
   91POPC   C4B 1405   3.295   2.540   6.132
   92POPC   NC3 1406   1.816   8.202   8.093
   92POPC   PO4 1407   1.715   7.575   8.258
   92POPC   GL1 1408   1.594   7.786   7.816
   92POPC   GL2 1409   1.678   8.089   7.606
   92POPC   C1A 1410   1.680   7.638   7.358
   92POPC   D2A 1411   1.696   7.907   6.982
   92POPC   C3A 1412   1.674   7.778   6.540
   92POPC   C4A 1413   1.690   8.177   6.284
   92POPC   C1B 1414   2.063   7.959   7.366
   92POPC   C2B 1415   2.177   7.779   6.961
   92POPC   C3B 1416   2.102   8.040   6.609
   92POPC   C4B 1417   2.087   7.844   6.226
   93POPC   NC3 1418   7.672   7.746   7.965
   93POPC   PO4 1419   7.963   8.278   8.193
   93POPC   GL1 1420   7.979   8.088   7.737
   93POPC   GL2 1421   7.642   8.167   7.651
   93POPC   C1A 1422   8.153   7.896   7.320
   93POPC   D2A 1423   8.213   8.115   6.937
   93POPC   C3A 1424   8.134   7.983   6.556
   93POPC   C4A 1425   8.081   8.184   6.177
   93POPC   C1B 1426   7.653   7.858   7.319
   93POPC   C2B 1427   7.715   8.003   6.918
   93POPC   C3B 1428   7.645   7.882   6.509
   93POPC   C4B 1429   7.559   8.102   6.174
   94POPC   NC3 1430   0.587   7.538   7.893
   94POPC   PO4 1431   0.500   6.917   7.873
   94POPC   GL1 1432   0.563   6.882   7.503
   94POPC   GL2 1433   0.625   7.230   7.472
   94POPC   C1A 1434   0.758   6.859   7.131
   94POPC   D2A 1435   0.505   7.141   6.967
   94POPC   C3A 1436   0.492   7.031   6.594
   94POPC   C4A 1437   0.714   7.148   6.247
   94POPC   C1B 1438   0.159   7.164   7.363
   94POPC   C2B 1439  10.446   7.353   7.037
   94POPC   C3B 1440   0.211   7.462   6.680
   94POPC   C4B 1441   0.216   7.306   6.265
   95POPC   NC3 1442   2.144   7.403   8.146
   95POPC   PO4 1443   1.584   6.955   8.008
   95POPC   GL1 1444   1.738   7.058   7.619
   95POPC   GL2 1445   1.862   7.362   7.730
   95POPC   C1A 1446   1.676   7.156   7.183
   95POPC   D2A 1447   1.627   6.867   6.858
   95POPC   C3A 1448   1.600   7.029   6.475
   95POPC   C4A 1449   1.678   6.825   6.117
   95POPC   C1B 1450   2.191   7.445   7.427
   95POPC   C2B 1451   2.234   7.156   7.099
   95POPC   C3B 1452   1.998   7.242   6.734
   95POPC   C4B 1453   2.001   7.322   6.283
   96POPC   NC3 1454   4.231   3.485   8.077
   96POPC   PO4 1455   4.640   3.944   7.834
   96POPC   GL1 1456   4.315   3.638   7.606
   96POPC   GL2 1457   4.347   3.253   7.627
   96POPC   C1A 1458   4.177   3.520   7.195
   96POPC   D2A 1459   4.496   3.394   6.882
   96POPC   C3A 1460   4.517   3.693   6.540
   96POPC   C4A 1461   4.161   3.771   6.320
   96POPC   C1B 1462   4.238   3.014   7.253
   96POPC   C2B 1463   4.067   3.105   6.842
   96POPC   C3B 1464   4.201   3.276   6.446
   96POPC   C4B 1465   4.473   3.411   6.073
   97POPC   NC3 1466   5.093   2.897   8.154
   97POPC   PO4 1467   4.517   3.084   8.110
   97POPC   GL1 1468   4.760   2.926   7.702
   97POPC   GL2 1469   5.116   2.811   7.638
   97POPC   C1A 1470   4.769   2.904   7.218
   97POPC   D2A 1471   4.942   2.766   6.782
   97POPC   C3A 1472   4.745   2.722   6.381
   97POPC   C4A 1473   4.551   2.852   5.982
   97POPC   C1B 1474   5.226   2.646   7.208
   97POPC   C2B 1475   5.197   2.343   6.830
   97POPC   C3B 1476   5.248   2.527   6.407
   97POPC   C4B 1477   5.214   2.986   6.355
   98POPC   NC3 1478   1.766   6.544   8.075
   98POPC   PO4 1479   2.211   6.093   8.077
   98POPC   GL1 1480   1.966   6.209   7.738
   98POPC   GL2 1481   2.028   6.579   7.653
   98POPC   C1A 1482   1.705   6.273   7.377
   98POPC   D2A 1483   1.675   6.368   6.940
   98POPC   C3A 1484   1.895   6.311   6.554
   98POPC   C4A 1485   1.703   6.207   6.184
   98POPC   C1B 1486   1.953   6.712   7.244
   98POPC   C2B 1487   2.112   6.720   6.838
   98POPC   C3B 1488   2.096   6.818   6.426
   98POPC   C4B 1489   2.100   6.525   6.089
   99POPC   NC3 1490   1.290   2.908   7.927
   99POPC   PO4 1491   0.947   2.244   8.011
   99POPC   GL1 1492   0.916   2.491   7.660
   99POPC   GL2 1493   0.861   2.853   7.648
   99POPC   C1A 1494   0.924   2.299   7.290
   99POPC   D2A 1495   1.127   2.355   6.888
   99POPC   C3A 1496   0.999   2.400   6.472
   99POPC   C4A 1497   1.117   2.500   6.021
   99POPC   C1B 1498   1.089   2.772   7.250
   99POPC   C2B 1499   1.046   2.831   6.804
   99POPC   C3B 1500   1.242   2.874   6.440
   99POPC   C4B 1501   0.875   2.909   6.224
  100POPC   NC3 1502   8.111  10.315   8.231
  100POPC   PO4 1503   8.272   9.734   7.950
  100POPC   GL1 1504   8.039  10.106   7.752
  100POPC   GL2 1505   7.648  10.158   7.671
  100POPC   C1A 1506   8.027  10.196   7.327
  100POPC   D2A 1507   8.054  10.003   6.923
  100POPC   C3A 1508   8.154  10.226   6.541
  100POPC   C4A 1509   7.916  10.289   6.162
  100POPC   C1B 1510   7.568  10.005   7.222
  100POPC   C2B 1511   7.558  10.037   6.772
  100POPC   C3B 1512   7.749   9.898   6.442
  100POPC   C4B 1513   7.666   9.872   6.003
  101POPC   NC3 1514   1.997   1.358   8.076
  101POPC   PO4 1515   1.959   2.048   8.066
  101POPC   GL1 1516   1.761   1.957   7.672
  101POPC   GL2 1517   1.863   2.284   7.615
  101POPC   C1A 1518   1.774   1.714   7.246
  101POPC   D2A 1519   1.870   1.859   6.784
  101POPC   C3A 1520   2.117   1.677   6.458
  101POPC   C4A 1521   1.816   1.669   6.079
  101POPC   C1B 1522   1.928   2.200   7.215
  101POPC   C2B 1523   1.786   2.382   6.888
  101POPC   C3B 1524   1.942   2.358   6.523
  101POPC   C4B 1525   1.914   2.105   6.279
  102POPC   NC3 1526   0.633   3.509   8.185
  102POPC   PO4 1527   0.002   3.524   7.953
  102POPC   GL1 1528   0.141   3.684   7.601
  102POPC   GL2 1529   0.470   3.612   7.703
  102POPC   C1A 1530   0.189   3.601   7.179
  102POPC   D2A 1531   0.187   3.221   6.943
  102POPC   C3A 1532   0.126   3.318   6.509
  102POPC   C4A 1533   0.226   3.655   6.274
  102POPC   C1B 1534   0.694   3.643   7.330
  102POPC   C2B 1535   0.642   3.505   6.907
  102POPC   C3B 1536   0.688   3.677   6.514
  102POPC   C4B 1537   0.657   3.377   6.220
  103POPC   NC3 1538   0.293  10.186   8.104
  103POPC   PO4 1539   1.052  10.213   8.150
  103POPC   GL1 1540   0.835  10.272   7.686
  103POPC   GL2 1541   0.509  10.170   7.655
  103POPC   C1A 1542   0.778  10.063   7.247
  103POPC   D2A 1543   0.526  10.192   6.894
  103POPC   C3A 1544   0.709  10.302   6.506
  103POPC   C4A 1545   0.632  10.091   6.163
  103POPC   C1B 1546   0.172  10.062   7.403
  103POPC   C2B 1547  10.479  10.109   7.028
  103POPC   C3B 1548   0.048  10.131   6.626
  103POPC   C4B 1549   0.120   9.959   6.231
  104POPC   NC3 1550   7.734   1.324   7.884
  104POPC   PO4 1551   8.259   1.018   8.155
  104POPC   GL1 1552   8.065   1.007   7.676
  104POPC   GL2 1553   7.937   1.307   7.431
  104POPC   C1A 1554   8.255   0.952   7.263
  104POPC   D2A 1555   8.116   1.241   6.913
  104POPC   C3A 1556   8.120   1.154   6.493
  104POPC   C4A 1557   7.987   1.120   6.090
  104POPC   C1B 1558   7.757   0.969   7.184
  104POPC   C2B 1559   7.738   0.918   6.735
  104POPC   C3B 1560   7.602   1.244   6.434
  104POPC   C4B 1561   7.628   1.529   6.079
  105POPC   NC3 1562   6.878  10.005   7.922
  105POPC   PO4 1563   6.227   9.695   7.970
  105POPC   GL1 1564   6.259   9.977   7.673
  105POPC   GL2 1565   6.457  10.247   7.752
  105POPC   C1A 1566   6.119  10.066   7.274
  105POPC   D2A 1567   6.069   9.887   6.872
  105POPC   C3A 1568   6.133  10.224   6.586
  105POPC   C4A 1569   6.329  10.234   6.214
  105POPC   C1B 1570   6.685  10.290   7.347
  105POPC   C2B 1571   6.689  10.095   6.943
  105POPC   C3B 1572   6.683  10.298   6.585
  105POPC   C4B 1573   6.726   0.041   6.233
  106POPC   NC3 1574   4.837   1.944   7.993
  106POPC   PO4 1575   5.160   2.446   8.105
  106POPC   GL1 1576   4.944   2.327   7.661
  106POPC   GL2 1577   4.947   1.965   7.508
  106POPC   C1A 1578   4.801   2.373   7.227
  106POPC   D2A 1579   4.642   2.248   6.846
  106POPC   C3A 1580   4.845   2.230   6.457
  106POPC   C4A 1581   4.675   2.325   6.033
  106POPC   C1B 1582   4.801   1.844   7.128
  106POPC   C2B 1583   4.951   1.815   6.744
  106POPC   C3B 1584   5.018   1.730   6.357
  106POPC   C4B 1585   5.074   2.009   6.066
  107POPC   NC3 1586  10.218   8.524   8.089
  107POPC   PO4 1587   9.777   9.025   8.031
  107POPC   GL1 1588   9.980   8.781   7.687
  107POPC   GL2 1589   9.995   8.412   7.638
  107POPC   C1A 1590  10.176   8.743   7.294
  107POPC   D2A 1591   9.986   8.832   6.926
  107POPC   C3A 1592  10.234   8.741   6.607
  107POPC   C4A 1593  10.067   8.744   6.227
  107POPC   C1B 1594  10.333   8.278   7.371
  107POPC   C2B 1595  10.440   8.410   6.949
  107POPC   C3B 1596  10.319   8.259   6.534
  107POPC   C4B 1597  10.168   8.232   6.138
  108POPC   NC3 1598   1.955   9.889   8.020
  108POPC   PO4 1599   1.566   9.360   8.242
  108POPC   GL1 1600   1.781   9.441   7.794
  108POPC   GL2 1601   2.020   9.168   7.690
  108POPC   C1A 1602   1.961   9.501   7.333
  108POPC   D2A 1603   1.769   9.416   6.939
  108POPC   C3A 1604   1.888   9.573   6.508
  108POPC   C4A 1605   1.633   9.579   6.158
  108POPC   C1B 1606   2.125   8.991   7.308
  108POPC   C2B 1607   2.137   9.051   6.885
  108POPC   C3B 1608   1.882   9.083   6.560
  108POPC   C4B 1609   1.937   9.146   6.163
  109POPC   NC3 1610   0.849   9.826   7.928
  109POPC   PO4 1611   1.506   9.979   8.014
  109POPC   GL1 1612   1.257   9.988   7.684
  109POPC   GL2 1613   1.325  10.296   7.626
  109POPC   C1A 1614   1.289   9.976   7.246
  109POPC   D2A 1615   1.344   9.765   6.896
  109POPC   C3A 1616   1.045   9.921   6.630
  109POPC   C4A 1617   1.151   9.812   6.255
  109POPC   C1B 1618   1.119  10.475   7.283
  109POPC   C2B 1619   1.039  10.409   6.865
  109POPC   C3B 1620   1.230  10.356   6.439
  109POPC   C4B 1621   1.068   0.001   6.040
  110POPC   NC3 1622   7.769   9.702   7.916
  110POPC   PO4 1623   7.964   9.170   8.171
  110POPC   GL1 1624   7.900   9.167   7.753
  110POPC   GL2 1625   8.190   9.320   7.676
  110POPC   C1A 1626   7.827   9.403   7.344
  110POPC   D2A 1627   7.677   9.572   6.980
  110POPC   C3A 1628   7.808   9.428   6.614
  110POPC   C4A 1629   7.821   9.422   6.214
  110POPC   C1B 1630   8.278   9.641   7.329
  110POPC   C2B 1631   8.198   9.512   6.932
  110POPC   C3B 1632   8.304   9.715   6.552
  110POPC   C4B 1633   8.172   9.824   6.156
  111POPC   NC3 1634   9.256   7.911   8.069
  111POPC   PO4 1635   9.926   8.155   8.059
  111POPC   GL1 1636   9.600   8.073   7.730
  111POPC   GL2 1637   9.608   7.687   7.745
  111POPC   C1A 1638   9.409   8.118   7.296
  111POPC   D2A 1639   9.559   7.986   6.900
  111POPC   C3A 1640   9.387   8.122   6.528
  111POPC   C4A 1641   9.275   7.946   6.132
  111POPC   C1B 1642   9.480   7.620   7.320
  111POPC   C2B 1643   9.391   7.399   6.950
  111POPC   C3B 1644   9.454   7.596   6.561
  111POPC   C4B 1645   9.547   7.470   6.174
  112POPC   NC3 1646   8.726   1.306   8.060
  112POPC   PO4 1647   8.132   1.559   7.854
  112POPC   GL1 1648   8.416   1.353   7.610
  112POPC   GL2 1649   8.564   1.035   7.678
  112POPC   C1A 1650   8.495   1.397   7.202
  112POPC   D2A 1651   8.605   1.498   6.789
  112POPC   C3A 1652   8.469   1.523   6.366
  112POPC   C4A 1653   8.574   1.438   5.950
  112POPC   C1B 1654   8.787   0.982   7.298
  112POPC   C2B 1655   8.649   0.973   6.919
  112POPC   C3B 1656   8.603   1.045   6.533
  112POPC   C4B 1657   8.487   0.975   6.149
  113POPC   NC3 1658   5.233   0.306   8.274
  113POPC   PO4 1659   5.780   0.708   8.161
  113POPC   GL1 1660   5.724   0.668   7.706
  113POPC   GL2 1661   5.840   0.330   7.691
  113POPC   C1A 1662   5.590   0.517   7.235
  113POPC   D2A 1663   5.530   0.654   6.788
  113POPC   C3A 1664   5.514   0.541   6.322
  113POPC   C4A 1665   5.446   0.773   5.929
  113POPC   C1B 1666   6.059   0.546   7.345
  113POPC   C2B 1667   6.008   0.353   6.967
  113POPC   C3B 1668   5.915   0.361   6.569
  113POPC   C4B 1669   5.999   0.715   6.298
  114POPC   NC3 1670   2.003   3.595   8.067
  114POPC   PO4 1671   2.050   2.983   8.334
  114POPC   GL1 1672   2.137   3.173   7.834
  114POPC   GL2 1673   1.927   3.409   7.617
  114POPC   C1A 1674   2.222   3.079   7.396
  114POPC   D2A 1675   1.992   3.048   7.011
  114POPC   C3A 1676   2.184   3.098   6.644
  114POPC   C4A 1677   2.151   3.432   6.373
  114POPC   C1B 1678   1.639   3.396   7.293
  114POPC   C2B 1679   1.578   3.644   6.916
  114POPC   C3B 1680   1.587   3.386   6.562
  114POPC   C4B 1681   1.660   3.171   6.206
  115POPC   NC3 1682   7.836   2.772   8.117
  115POPC   PO4 1683   7.601   2.157   8.033
  115POPC   GL1 1684   7.801   2.466   7.699
  115POPC   GL2 1685   8.033   2.750   7.676
  115POPC   C1A 1686   8.071   2.390   7.320
  115POPC   D2A 1687   7.892   2.506   6.948
  115POPC   C3A 1688   8.105   2.596   6.581
  115POPC   C4A 1689   7.825   2.540   6.225
  115POPC   C1B 1690   8.207   2.904   7.341
  115POPC   C2B 1691   8.077   2.989   6.956
  115POPC   C3B 1692   7.824   3.048   6.624
  115POPC   C4B 1693   8.041   3.016   6.245
  116POPC   NC3 1694   2.948   9.514   8.189
  116POPC   PO4 1695   2.278   9.536   8.040
  116POPC   GL1 1696   2.486   9.375   7.686
  116POPC   GL2 1697   2.737   9.589   7.668
  116POPC   C1A 1698   2.461   9.461   7.241
  116POPC   D2A 1699   2.278   9.589   6.848
  116POPC   C3A 1700   2.334   9.351   6.470
  116POPC   C4A 1701   2.419   9.242   6.057
  116POPC   C1B 1702   2.841   9.812   7.292
  116POPC   C2B 1703   2.975   9.678   6.907
  116POPC   C3B 1704   2.771   9.607   6.590
  116POPC   C4B 1705   2.821   9.513   6.194
  117POPC   NC3 1706   9.366   2.801   7.932
  117POPC   PO4 1707   9.542   2.252   8.283
  117POPC   GL1 1708   9.428   2.278   7.791
  117POPC   GL2 1709   9.204   2.530   7.544
  117POPC   C1A 1710   9.609   2.331   7.337
  117POPC   D2A 1711   9.368   2.458   6.971
  117POPC   C3A 1712   9.518   2.552   6.561
  117POPC   C4A 1713   9.284   2.631   6.180
  117POPC   C1B 1714   9.509   2.837   7.299
  117POPC   C2B 1715   9.424   3.013   6.922
  117POPC   C3B 1716   9.191   2.961   6.577
  117POPC   C4B 1717   9.590   3.068   6.394
  118POPC   NC3 1718   5.615   8.261   7.945
  118POPC   PO4 1719   6.033   8.787   8.166
  118POPC   GL1 1720   5.985   8.604   7.757
  118POPC   GL2 1721   5.664   8.726   7.651
  118POPC   C1A 1722   6.029   8.769   7.324
  118POPC   D2A 1723   5.843   8.927   6.960
  118POPC   C3A 1724   5.896   8.713   6.557
  118POPC   C4A 1725   6.002   8.888   6.178
  118POPC   C1B 1726   5.483   8.692   7.250
  118POPC   C2B 1727   5.466   8.577   6.807
  118POPC   C3B 1728   5.366   8.614   6.380
  118POPC   C4B 1729   5.657   8.501   6.100
  119POPC   NC3 1730   1.182   9.015   8.164
  119POPC   PO4 1731   1.445   8.475   8.130
  119POPC   GL1 1732   1.387   8.498   7.722
  119POPC   GL2 1733   1.167   8.720   7.727
  119POPC   C1A 1734   1.331   8.395   7.291
  119POPC   D2A 1735   1.517   8.365   6.893
  119POPC   C3A 1736   1.268   8.323   6.543
  119POPC   C4A 1737   1.209   8.578   6.231
  119POPC   C1B 1738   1.120   8.873   7.336
  119POPC   C2B 1739   1.146   8.726   6.949
  119POPC   C3B 1740   1.043   8.990   6.660
  119POPC   C4B 1741   0.947   8.999   6.266
  120POPC   NC3 1742   2.763  10.345   8.392
  120POPC   PO4 1743   2.604   0.462   8.213
  120POPC   GL1 1744   2.802   0.432   7.800
  120POPC   GL2 1745   3.046   0.692   7.714
  120POPC   C1A 1746   2.618   0.255   7.410
  120POPC   D2A 1747   2.630   0.036   7.019
  120POPC   C3A 1748   2.756   0.275   6.667
  120POPC   C4A 1749   2.887   0.279   6.253
  120POPC   C1B 1750   2.894   0.681   7.279
  120POPC   C2B 1751   2.643   0.763   6.901
  120POPC   C3B 1752   2.713   0.751   6.471
  120POPC   C4B 1753   2.403   0.482   6.310
  121POPC   NC3 1754   4.240   7.848   8.280
  121POPC   PO4 1755   4.622   7.362   8.104
  121POPC   GL1 1756   4.309   7.410   7.742
  121POPC   GL2 1757   4.009   7.179   7.712
  121POPC   C1A 1758   4.234   7.357   7.267
  121POPC   D2A 1759   4.466   7.423   6.860
  121POPC   C3A 1760   4.370   7.234   6.450
  121POPC   C4A 1761   4.625   6.942   6.182
  121POPC   C1B 1762   4.023   6.895   7.315
  121POPC   C2B 1763   4.110   6.990   6.848
  121POPC   C3B 1764   4.030   6.858   6.381
  121POPC   C4B 1765   4.178   7.100   5.976
  122POPC   NC3 1766   7.929   3.455   8.190
  122POPC   PO4 1767   8.473   3.830   7.957
  122POPC   GL1 1768   8.168   3.585   7.702
  122POPC   GL2 1769   7.930   3.272   7.714
  122POPC   C1A 1770   8.214   3.410   7.305
  122POPC   D2A 1771   8.019   3.477   6.933
  122POPC   C3A 1772   8.205   3.409   6.585
  122POPC   C4A 1773   8.035   3.518   6.224
  122POPC   C1B 1774   7.714   3.201   7.323
  122POPC   C2B 1775   7.518   3.466   7.003
  122POPC   C3B 1776   7.643   3.541   6.574
  122POPC   C4B 1777   7.580   3.289   6.231
  123POPC   NC3 1778   2.531   8.364   8.424
  123POPC   PO4 1779   2.212   7.941   7.990
  123POPC   GL1 1780   2.534   7.810   7.682
  123POPC   GL2 1781   2.872   7.895   7.849
  123POPC   C1A 1782   2.558   7.937   7.248
  123POPC   D2A 1783   2.506   8.189   6.918
  123POPC   C3A 1784   2.596   7.930   6.589
  123POPC   C4A 1785   2.597   8.022   6.176
  123POPC   C1B 1786   3.007   7.874   7.418
  123POPC   C2B 1787   2.983   7.762   6.955
  123POPC   C3B 1788   2.930   7.554   6.529
  123POPC   C4B 1789   2.987   7.686   6.123
  124POPC   NC3 1790   2.460   8.298   7.831
  124POPC   PO4 1791   2.956   8.268   8.252
  124POPC   GL1 1792   3.016   8.386   7.768
  124POPC   GL2 1793   2.916   8.755   7.684
  124POPC   C1A 1794   2.898   8.410   7.293
  124POPC   D2A 1795   2.717   8.668   6.914
  124POPC   C3A 1796   2.665   8.461   6.478
  124POPC   C4A 1797   3.006   8.433   6.158
  124POPC   C1B 1798   2.772   9.040   7.307
  124POPC   C2B 1799   2.627   9.174   6.866
  124POPC   C3B 1800   2.766   9.086   6.457
  124POPC   C4B 1801   2.694   8.834   6.097
  125POPC   NC3 1802   7.807   6.453   8.082
  125POPC   PO4 1803   8.310   6.882   8.171
  125POPC   GL1 1804   8.118   6.697   7.735
  125POPC   GL2 1805   8.040   6.333   7.667
  125POPC   C1A 1806   8.212   6.540   7.261
  125POPC   D2A 1807   8.083   6.332   6.904
  125POPC   C3A 1808   8.028   6.512   6.492
  125POPC   C4A 1809   8.264   6.743   6.190
  125POPC   C1B 1810   7.733   6.396   7.294
  125POPC   C2B 1811   7.590   6.528   6.868
  125POPC   C3B 1812   7.528   6.359   6.440
  125POPC   C4B 1813   7.577   6.435   6.002
  126POPC   NC3 1814   2.528   5.785   7.960
  126POPC   PO4 1815   2.271   5.140   8.058
  126POPC   GL1 1816   2.406   5.289   7.696
  126POPC   GL2 1817   2.724   5.484   7.610
  126POPC   C1A 1818   2.312   5.456   7.311
  126POPC   D2A 1819   2.312   5.671   6.945
  126POPC   C3A 1820   2.568   5.536   6.645
  126POPC   C4A 1821   2.500   5.496   6.245
  126POPC   C1B 1822   2.645   5.856   7.302
  126POPC   C2B 1823   2.685   6.023   6.864
  126POPC   C3B 1824   2.746   5.971   6.422
  126POPC   C4B 1825   2.990   5.674   6.216
  127POPC   NC3 1826   9.325   9.449   8.115
  127POPC   PO4 1827   9.912   9.858   8.068
  127POPC   GL1 1828   9.744   9.681   7.657
  127POPC   GL2 1829   9.506   9.396   7.661
  127POPC   C1A 1830   9.703   9.495   7.219
  127POPC   D2A 1831   9.827   9.333   6.818
  127POPC   C3A 1832   9.823   9.580   6.459
  127POPC   C4A 1833   9.632   9.794   6.111
  127POPC   C1B 1834   9.219   9.338   7.285
  127POPC   C2B 1835   9.287   9.490   6.836
  127POPC   C3B 1836   9.300   9.483   6.367
  127POPC   C4B 1837   9.062   9.211   6.087
  128POPC   NC3 1838   4.693   1.303   7.964
  128POPC   PO4 1839   5.160   0.765   8.066
  128POPC   GL1 1840   5.194   0.887   7.631
  128POPC   GL2 1841   4.926   1.118   7.550
  128POPC   C1A 1842   5.285   0.940   7.186
  128POPC   D2A 1843   5.010   0.894   6.833
  128POPC   C3A 1844   5.110   0.861   6.370
  128POPC   C4A 1845   5.018   1.033   5.925
  128POPC   C1B 1846   5.160   1.442   7.288
  128POPC   C2B 1847   5.240   1.386   6.831
  128POPC   C3B 1848   4.864   1.295   6.556
  128POPC   C4B 1849   4.666   1.357   6.150
  129POPC   NC3 1850   8.760   9.805   8.002
  129POPC   PO4 1851   8.604  10.419   8.221
  129POPC   GL1 1852   8.814  10.272   7.818
  129POPC   GL2 1853   8.544  10.090   7.639
  129POPC   C1A 1854   8.963  10.251   7.367
  129POPC   D2A 1855   9.168  10.019   6.996
  129POPC   C3A 1856   9.001   9.861   6.592
  129POPC   C4A 1857   8.765  10.007   6.266
  129POPC   C1B 1858   8.505  10.097   7.199
  129POPC   C2B 1859   8.698  10.223   6.819
  129POPC   C3B 1860   8.624  10.451   6.448
  129POPC   C4B 1861   8.405  10.259   6.040
  130POPC   NC3 1862   3.394   3.417   8.059
  130POPC   PO4 1863   3.978   3.102   7.960
  130POPC   GL1 1864   3.816   3.365   7.647
  130POPC   GL2 1865   3.438   3.438   7.556
  130POPC   C1A 1866   3.751   3.224   7.231
  130POPC   D2A 1867   3.501   3.036   6.934
  130POPC   C3A 1868   3.440   3.333   6.616
  130POPC   C4A 1869   3.723   3.468   6.300
  130POPC   C1B 1870   3.304   3.491   7.115
  130POPC   C2B 1871   3.106   3.720   6.748
  130POPC   C3B 1872   3.223   3.841   6.344
  130POPC   C4B 1873   3.301   3.547   6.015
  131POPC   NC3 1874   5.242  10.129   7.994
  131POPC   PO4 1875   4.655   9.862   8.119
  131POPC   GL1 1876   4.761  10.135   7.710
  131POPC   GL2 1877   5.068  10.354   7.604
  131POPC   C1A 1878   4.944  10.002   7.255
  131POPC   D2A 1879   5.213   9.875   6.897
  131POPC   C3A 1880   5.103  10.042   6.497
  131POPC   C4A 1881   4.654  10.083   6.369
  131POPC   C1B 1882   5.254  10.395   7.211
  131POPC   C2B 1883   4.996  10.456   6.852
  131POPC   C3B 1884   4.743   0.064   6.489
  131POPC   C4B 1885   4.992  10.382   6.125
  132POPC   NC3 1886   6.477   7.668   8.040
  132POPC   PO4 1887   6.759   8.124   8.347
  132POPC   GL1 1888   6.709   8.037   7.804
  132POPC   GL2 1889   6.736   7.706   7.624
  132POPC   C1A 1890   6.737   8.078   7.292
  132POPC   D2A 1891   6.771   7.774   6.912
  132POPC   C3A 1892   6.741   7.984   6.543
  132POPC   C4A 1893   6.539   8.030   6.149
  132POPC   C1B 1894   6.329   7.784   7.394
  132POPC   C2B 1895   6.273   7.902   6.965
  132POPC   C3B 1896   6.290   7.755   6.531
  132POPC   C4B 1897   6.059   7.913   6.207
  133POPC   NC3 1898   5.453   1.066   8.265
  133POPC   PO4 1899   5.925   1.471   8.066
  133POPC   GL1 1900   5.857   1.421   7.655
  133POPC   GL2 1901   5.604   1.182   7.695
  133POPC   C1A 1902   5.686   1.480   7.249
  133POPC   D2A 1903   5.880   1.600   6.925
  133POPC   C3A 1904   5.694   1.542   6.580
  133POPC   C4A 1905   5.869   1.378   6.215
  133POPC   C1B 1906   5.800   0.994   7.315
  133POPC   C2B 1907   5.699   1.109   6.897
  133POPC   C3B 1908   5.593   1.040   6.467
  133POPC   C4B 1909   5.302   1.309   6.301
  134POPC   NC3 1910   4.780   7.715   7.869
  134POPC   PO4 1911   5.444   7.844   7.844
  134POPC   GL1 1912   5.155   8.000   7.586
  134POPC   GL2 1913   4.812   8.142   7.597
  134POPC   C1A 1914   5.155   7.752   7.220
  134POPC   D2A 1915   4.940   7.612   6.887
  134POPC   C3A 1916   5.155   7.616   6.519
  134POPC   C4A 1917   5.222   7.675   6.097
  134POPC   C1B 1918   4.771   8.087   7.168
  134POPC   C2B 1919   4.622   7.987   6.784
  134POPC   C3B 1920   4.792   7.943   6.390
  134POPC   C4B 1921   4.646   8.003   6.013
  135POPC   NC3 1922   1.039   8.257   8.078
  135POPC   PO4 1923   0.402   7.952   7.982
  135POPC   GL1 1924   0.724   8.030   7.649
  135POPC   GL2 1925   1.081   8.097   7.612
  135POPC   C1A 1926   0.741   7.991   7.243
  135POPC   D2A 1927   0.956   8.204   6.921
  135POPC   C3A 1928   0.809   8.105   6.480
  135POPC   C4A 1929   0.892   8.188   6.056
  135POPC   C1B 1930   1.251   7.875   7.271
  135POPC   C2B 1931   1.346   7.552   6.963
  135POPC   C3B 1932   1.182   7.816   6.672
  135POPC   C4B 1933   1.258   7.885   6.243
  136POPC   NC3 1934   8.658   6.525   8.118
  136POPC   PO4 1935   8.174   6.096   8.177
  136POPC   GL1 1936   8.519   6.127   7.809
  136POPC   GL2 1937   8.541   6.459   7.629
  136POPC   C1A 1938   8.630   6.067   7.349
  136POPC   D2A 1939   8.480   5.966   6.950
  136POPC   C3A 1940   8.420   6.161   6.564
  136POPC   C4A 1941   8.248   6.117   6.167
  136POPC   C1B 1942   8.700   6.623   7.225
  136POPC   C2B 1943   8.491   6.643   6.821
  136POPC   C3B 1944   8.685   6.573   6.447
  136POPC   C4B 1945   8.739   6.260   6.138
  137POPC   NC3 1946   5.719   7.506   7.928
  137POPC   PO4 1947   6.157   8.000   8.029
  137POPC   GL1 1948   5.900   7.977   7.622
  137POPC   GL2 1949   5.678   8.243   7.448
  137POPC   C1A 1950   5.805   7.807   7.191
  137POPC   D2A 1951   5.893   7.536   6.793
  137POPC   C3A 1952   5.652   7.611   6.401
  137POPC   C4A 1953   5.633   7.419   5.967
  137POPC   C1B 1954   5.287   8.243   7.174
  137POPC   C2B 1955   5.134   8.099   6.782
  137POPC   C3B 1956   5.294   8.106   6.365
  137POPC   C4B 1957   5.608   7.985   6.038
  138POPC   NC3 1958   8.420   5.662   8.078
  138POPC   PO4 1959   9.104   5.740   8.090
  138POPC   GL1 1960   8.933   5.642   7.649
  138POPC   GL2 1961   8.608   5.613   7.607
  138POPC   C1A 1962   8.916   5.661   7.170
  138POPC   D2A 1963   9.110   5.849   6.816
  138POPC   C3A 1964   8.835   5.875   6.477
  138POPC   C4A 1965   8.972   5.802   6.073
  138POPC   C1B 1966   8.438   5.512   7.216
  138POPC   C2B 1967   8.574   5.522   6.752
  138POPC   C3B 1968   8.667   5.396   6.352
  138POPC   C4B 1969   8.500   5.663   6.104
  139POPC   NC3 1970   3.860   8.115   7.886
  139POPC   PO4 1971   4.520   8.081   8.000
  139POPC   GL1 1972   4.287   7.922   7.626
  139POPC   GL2 1973   3.938   7.727   7.561
  139POPC   C1A 1974   4.311   7.840   7.177
  139POPC   D2A 1975   4.050   7.690   6.826
  139POPC   C3A 1976   4.307   7.743   6.461
  139POPC   C4A 1977   4.347   7.583   6.058
  139POPC   C1B 1978   3.827   8.015   7.204
  139POPC   C2B 1979   3.660   7.997   6.781
  139POPC   C3B 1980   3.848   8.099   6.397
  139POPC   C4B 1981   3.878   7.734   6.197
  140POPC   NC3 1982   3.347   8.023   8.202
  140POPC   PO4 1983   3.570   8.434   7.737
  140POPC   GL1 1984   3.426   8.167   7.505
  140POPC   GL2 1985   3.422   7.895   7.697
  140POPC   C1A 1986   3.310   8.172   7.095
  140POPC   D2A 1987   3.005   8.253   6.804
  140POPC   C3A 1988   3.091   8.043   6.475
  140POPC   C4A 1989   3.379   8.072   6.159
  140POPC   C1B 1990   3.448   7.705   7.272
  140POPC   C2B 1991   3.433   7.539   6.853
  140POPC   C3B 1992   3.433   7.642   6.414
  140POPC   C4B 1993   3.453   7.588   5.937
  141POPC   NC3 1994   3.490   9.744   8.060
  141POPC   PO4 1995   3.203   9.158   8.082
  141POPC   GL1 1996   3.215   9.424   7.725
  141POPC   GL2 1997   3.513   9.565   7.603
  141POPC   C1A 1998   3.176   9.382   7.271
  141POPC   D2A 1999   3.118   9.155   6.883
  141POPC   C3A 2000   3.246   9.364   6.520
  141POPC   C4A 2001   3.325   9.615   6.161
  141POPC   C1B 2002   3.691   9.349   7.274
  141POPC   C2B 2003   3.616   9.177   6.913
  141POPC   C3B 2004   3.572   8.935   6.589
  141POPC   C4B 2005   3.622   9.138   6.223
  142POPC   NC3 2006   3.392   6.091   7.996
  142POPC   PO4 2007   3.280   6.779   8.059
  142POPC   GL1 2008   3.086   6.661   7.655
  142POPC   GL2 2009   3.273   6.364   7.549
  142POPC   C1A 2010   3.241   6.751   7.213
  142POPC   D2A 2011   3.202   6.749   6.770
  142POPC   C3A 2012   3.482   6.692   6.414
  142POPC   C4A 2013   3.402   6.478   5.999
  142POPC   C1B 2014   3.554   6.356   7.153
  142POPC   C2B 2015   3.671   6.295   6.697
  142POPC   C3B 2016   3.810   6.329   6.254
  142POPC   C4B 2017   3.616   6.007   5.946
  143POPC   NC3 2018   1.950   2.542   8.151
  143POPC   PO4 2019   1.659   3.182   7.994
  143POPC   GL1 2020   1.778   2.807   7.751
  143POPC   GL2 2021   2.139   2.692   7.704
  143POPC   C1A 2022   1.789   2.708   7.323
  143POPC   D2A 2023   1.528   2.813   6.967
  143POPC   C3A 2024   1.748   2.825   6.580
  143POPC   C4A 2025   1.618   2.617   6.203
  143POPC   C1B 2026   2.296   2.565   7.299
  143POPC   C2B 2027   2.246   2.600   6.836
  143POPC   C3B 2028   2.314   2.668   6.382
  143POPC   C4B 2029   2.118   2.982   6.132
  144POPC   NC3 2030   2.480   3.022   8.149
  144POPC   PO4 2031   2.418   3.651   8.285
  144POPC   GL1 2032   2.471   3.562   7.833
  144POPC   GL2 2033   2.732   3.321   7.756
  144POPC   C1A 2034   2.364   3.589   7.402
  144POPC   D2A 2035   2.410   3.390   7.002
  144POPC   C3A 2036   2.574   3.596   6.649
  144POPC   C4A 2037   2.494   3.794   6.260
  144POPC   C1B 2038   2.841   3.402   7.300
  144POPC   C2B 2039   2.925   3.267   6.855
  144POPC   C3B 2040   2.974   3.382   6.384
  144POPC   C4B 2041   2.915   3.203   5.928
  145POPC   NC3 2042   0.736   2.638   8.130
  145POPC   PO4 2043   0.083   2.499   8.128
  145POPC   GL1 2044   0.308   2.854   7.885
  145POPC   GL2 2045   0.412   2.610   7.709
  145POPC   C1A 2046   0.436   3.112   7.486
  145POPC   D2A 2047   0.676   3.041   7.080
  145POPC   C3A 2048   0.559   3.044   6.625
  145POPC   C4A 2049   0.352   2.975   6.196
  145POPC   C1B 2050   0.532   2.617   7.303
  145POPC   C2B 2051   0.634   2.531   6.882
  145POPC   C3B 2052   0.492   2.559   6.470
  145POPC   C4B 2053   0.645   2.383   6.122
  146POPC   NC3 2054   7.813   8.733   8.161
  146POPC   PO4 2055   8.426   8.759   8.108
  146POPC   GL1 2056   8.268   8.496   7.812
  146POPC   GL2 2057   7.973   8.651   7.704
  146POPC   C1A 2058   8.188   8.394   7.358
  146POPC   D2A 2059   8.088   8.606   6.966
  146POPC   C3A 2060   8.167   8.516   6.553
  146POPC   C4A 2061   8.182   8.800   6.206
  146POPC   C1B 2062   8.098   8.936   7.350
  146POPC   C2B 2063   7.846   9.057   6.971
  146POPC   C3B 2064   7.811   8.910   6.550
  146POPC   C4B 2065   7.730   8.584   6.222
  147POPC   NC3 2066   1.222   9.787   8.315
  147POPC   PO4 2067   0.872   9.355   8.086
  147POPC   GL1 2068   1.255   9.502   7.850
  147POPC   GL2 2069   1.176   9.236   7.672
  147POPC   C1A 2070   1.468   9.523   7.396
  147POPC   D2A 2071   1.278   9.270   7.034
  147POPC   C3A 2072   1.399   9.350   6.579
  147POPC   C4A 2073   1.425   9.108   6.197
  147POPC   C1B 2074   0.981   9.566   7.362
  147POPC   C2B 2075   0.833   9.601   6.955
  147POPC   C3B 2076   0.856   9.441   6.535
  147POPC   C4B 2077   0.818   9.461   6.097
  148POPC   NC3 2078   9.657   4.378   7.940
  148POPC   PO4 2079   9.495   4.945   8.245
  148POPC   GL1 2080   9.479   4.829   7.777
  148POPC   GL2 2081   9.204   4.720   7.647
  148POPC   C1A 2082   9.761   4.760   7.386
  148POPC   D2A 2083   9.666   4.627   6.966
  148POPC   C3A 2084   9.697   4.939   6.653
  148POPC   C4A 2085   9.787   4.872   6.238
  148POPC   C1B 2086   9.290   4.871   7.253
  148POPC   C2B 2087   9.168   4.823   6.852
  148POPC   C3B 2088   9.229   4.960   6.463
  148POPC   C4B 2089   9.305   4.769   6.100
  149POPC   NC3 2090   0.900   1.382   7.836
  149POPC   PO4 2091   1.498   1.395   8.037
  149POPC   GL1 2092   1.291   1.123   7.621
  149POPC   GL2 2093   0.886   1.001   7.511
  149POPC   C1A 2094   1.262   0.935   7.195
  149POPC   D2A 2095   1.069   1.068   6.801
  149POPC   C3A 2096   1.368   0.989   6.440
  149POPC   C4A 2097   1.464   1.264   6.077
  149POPC   C1B 2098   0.749   1.350   7.203
  149POPC   C2B 2099   0.672   1.515   6.784
  149POPC   C3B 2100   0.901   1.393   6.435
  149POPC   C4B 2101   0.878   0.971   6.307
  150POPC   NC3 2102   7.890   7.159   8.203
  150POPC   PO4 2103   8.179   7.676   7.966
  150POPC   GL1 2104   8.000   7.505   7.620
  150POPC   GL2 2105   7.953   7.168   7.680
  150POPC   C1A 2106   8.054   7.400   7.196
  150POPC   D2A 2107   7.890   7.528   6.825
  150POPC   C3A 2108   8.035   7.515   6.406
  150POPC   C4A 2109   7.824   7.672   6.056
  150POPC   C1B 2110   7.871   6.922   7.309
  150POPC   C2B 2111   8.004   6.844   6.909
  150POPC   C3B 2112   7.972   7.023   6.528
  150POPC   C4B 2113   7.690   6.893   6.210
  151POPC   NC3 2114   5.891   9.988   8.080
  151POPC   PO4 2115   5.500   0.024   7.985
  151POPC   GL1 2116   5.629  10.326   7.622
  151POPC   GL2 2117   5.704   9.961   7.629
  151POPC   C1A 2118   5.759  10.484   7.220
  151POPC   D2A 2119   5.504   0.160   6.858
  151POPC   C3A 2120   5.398   0.053   6.435
  151POPC   C4A 2121   5.767   0.077   6.173
  151POPC   C1B 2122   5.575   9.986   7.238
  151POPC   C2B 2123   5.637  10.164   6.844
  151POPC   C3B 2124   5.645  10.127   6.437
  151POPC   C4B 2125   5.498   9.841   6.173
  152POPC   NC3 2126   6.303   2.545   8.063
  152POPC   PO4 2127   6.935   2.455   8.206
  152POPC   GL1 2128   6.767   2.581   7.753
  152POPC   GL2 2129   6.394   2.622   7.582
  152POPC   C1A 2130   6.747   2.457   7.297
  152POPC   D2A 2131   6.432   2.614   7.006
  152POPC   C3A 2132   6.629   2.671   6.631
  152POPC   C4A 2133   6.813   2.459   6.295
  152POPC   C1B 2134   6.086   2.832   7.315
  152POPC   C2B 2135   6.007   2.904   6.852
  152POPC   C3B 2136   6.180   2.795   6.440
  152POPC   C4B 2137   6.306   2.353   6.340
  153POPC   NC3 2138  10.178   5.905   8.058
  153POPC   PO4 2139   0.083   6.455   8.211
  153POPC   GL1 2140  10.315   6.424   7.799
  153POPC   GL2 2141   9.958   6.281   7.769
  153POPC   C1A 2142  10.308   6.237   7.365
  153POPC   D2A 2143   0.068   6.277   6.994
  153POPC   C3A 2144  10.359   6.222   6.614
  153POPC   C4A 2145  10.441   6.394   6.211
  153POPC   C1B 2146   9.878   6.503   7.351
  153POPC   C2B 2147  10.099   6.552   6.940
  153POPC   C3B 2148  10.085   6.666   6.498
  153POPC   C4B 2149  10.000   6.621   6.024
  154POPC   NC3 2150   8.172   5.018   8.031
  154POPC   PO4 2151   7.746   4.517   7.913
  154POPC   GL1 2152   7.886   4.651   7.554
  154POPC   GL2 2153   8.208   4.693   7.631
  154POPC   C1A 2154   7.768   4.735   7.120
  154POPC   D2A 2155   7.859   4.861   6.717
  154POPC   C3A 2156   7.541   4.918   6.403
  154POPC   C4A 2157   7.419   5.054   5.981
  154POPC   C1B 2158   8.146   5.048   7.317
  154POPC   C2B 2159   8.169   5.236   6.895
  154POPC   C3B 2160   8.260   5.109   6.496
  154POPC   C4B 2161   8.036   4.842   6.244
  155POPC   NC3 2162   6.289   8.380   8.272
  155POPC   PO4 2163   6.657   8.865   7.982
  155POPC   GL1 2164   6.473   8.820   7.602
  155POPC   GL2 2165   6.495   8.473   7.647
  155POPC   C1A 2166   6.516   8.766   7.140
  155POPC   D2A 2167   6.329   8.923   6.744
  155POPC   C3A 2168   6.482   8.873   6.306
  155POPC   C4A 2169   6.401   8.922   5.829
  155POPC   C1B 2170   6.221   8.295   7.355
  155POPC   C2B 2171   6.143   8.431   6.928
  155POPC   C3B 2172   6.385   8.407   6.536
  155POPC   C4B 2173   6.779   8.456   6.304
  156POPC   NC3 2174   9.423   0.663   8.378
  156POPC   PO4 2175   9.417   1.272   8.124
  156POPC   GL1 2176   9.387   1.206   7.693
  156POPC   GL2 2177   9.718   1.087   7.586
  156POPC   C1A 2178   9.303   1.004   7.282
  156POPC   D2A 2179   9.147   0.863   6.905
  156POPC   C3A 2180   9.038   1.268   6.703
  156POPC   C4A 2181   8.965   1.351   6.266
  156POPC   C1B 2182   9.788   1.129   7.133
  156POPC   C2B 2183   9.526   1.231   6.786
  156POPC   C3B 2184   9.476   1.192   6.331
  156POPC   C4B 2185   9.695   1.058   5.941
  157POPC   NC3 2186   1.744   4.545   8.054
  157POPC   PO4 2187   2.144   4.024   7.908
  157POPC   GL1 2188   1.817   4.077   7.658
  157POPC   GL2 2189   1.854   4.428   7.592
  157POPC   C1A 2190   1.855   3.877   7.278
  157POPC   D2A 2191   2.135   3.812   6.942
  157POPC   C3A 2192   1.914   3.835   6.572
  157POPC   C4A 2193   2.005   3.929   6.191
  157POPC   C1B 2194   2.031   4.361   7.226
  157POPC   C2B 2195   1.841   4.250   6.858
  157POPC   C3B 2196   1.873   4.373   6.433
  157POPC   C4B 2197   1.976   4.383   5.960
  158POPC   NC3 2198   4.026   1.823   8.066
  158POPC   PO4 2199   4.578   1.683   7.734
  158POPC   GL1 2200   4.428   1.993   7.472
  158POPC   GL2 2201   4.110   2.020   7.597
  158POPC   C1A 2202   4.224   1.989   7.068
  158POPC   D2A 2203   4.133   2.315   6.784
  158POPC   C3A 2204   4.338   2.236   6.429
  158POPC   C4A 2205   4.528   1.837   6.317
  158POPC   C1B 2206   3.988   1.639   7.388
  158POPC   C2B 2207   4.041   1.379   7.015
  158POPC   C3B 2208   4.203   1.570   6.649
  158POPC   C4B 2209   4.001   1.841   6.371
  159POPC   NC3 2210   2.835   2.759   8.564
  159POPC   PO4 2211   2.426   2.550   8.097
  159POPC   GL1 2212   2.656   2.726   7.778
  159POPC   GL2 2213   2.982   2.623   7.782
  159POPC   C1A 2214   2.736   2.925   7.420
  159POPC   D2A 2215   2.555   2.922   7.051
  159POPC   C3A 2216   2.666   2.883   6.671
  159POPC   C4A 2217   2.573   3.110   6.311
  159POPC   C1B 2218   2.845   2.428   7.387
  159POPC   C2B 2219   2.707   2.396   6.985
  159POPC   C3B 2220   2.922   2.441   6.631
  159POPC   C4B 2221   2.822   2.653   6.245
  160POPC   NC3 2222   7.279   3.602   8.096
  160POPC   PO4 2223   6.768   3.367   8.348
  160POPC   GL1 2224   6.940   3.355   7.813
  160POPC   GL2 2225   7.329   3.375   7.664
  160POPC   C1A 2226   6.956   3.542   7.328
  160POPC   D2A 2227   7.050   3.674   6.877
  160POPC   C3A 2228   6.747   3.655   6.460
  160POPC   C4A 2229   6.825   3.699   5.990
  160POPC   C1B 2230   7.168   3.075   7.399
  160POPC   C2B 2231   7.124   3.166   6.976
  160POPC   C3B 2232   7.172   3.308   6.558
  160POPC   C4B 2233   7.225   3.672   6.318
  161POPC   NC3 2234   6.535   3.601   8.039
  161POPC   PO4 2235   6.475   2.961   7.991
  161POPC   GL1 2236   6.542   3.109   7.593
  161POPC   GL2 2237   6.483   3.456   7.518
  161POPC   C1A 2238   6.680   3.030   7.190
  161POPC   D2A 2239   6.665   3.320   6.844
  161POPC   C3A 2240   6.562   3.165   6.440
  161POPC   C4A 2241   6.405   3.406   6.099
  161POPC   C1B 2242   6.238   3.295   7.129
  161POPC   C2B 2243   6.159   3.373   6.665
  161POPC   C3B 2244   5.941   3.588   6.315
  161POPC   C4B 2245   5.852   4.009   6.071
  162POPC   NC3 2246   3.449   2.164   8.122
  162POPC   PO4 2247   2.914   1.967   8.101
  162POPC   GL1 2248   3.234   1.836   7.758
  162POPC   GL2 2249   3.592   1.997   7.667
  162POPC   C1A 2250   3.198   1.992   7.307
  162POPC   D2A 2251   3.213   2.036   6.840
  162POPC   C3A 2252   3.164   1.651   6.642
  162POPC   C4A 2253   3.030   1.621   6.224
  162POPC   C1B 2254   3.743   2.133   7.237
  162POPC   C2B 2255   3.719   2.033   6.782
  162POPC   C3B 2256   3.507   1.959   6.390
  162POPC   C4B 2257   3.710   2.245   6.104
  163POPC   NC3 2258   3.662   7.043   8.144
  163POPC   PO4 2259   3.679   7.695   8.092
  163POPC   GL1 2260   3.545   7.396   7.705
  163POPC   GL2 2261   3.492   7.019   7.619
  163POPC   C1A 2262   3.723   7.295   7.272
  163POPC   D2A 2263   3.599   7.057   6.914
  163POPC   C3A 2264   3.795   7.291   6.574
  163POPC   C4A 2265   3.743   7.251   6.166
  163POPC   C1B 2266   3.214   7.253   7.271
  163POPC   C2B 2267   3.031   7.207   6.880
  163POPC   C3B 2268   3.276   7.168   6.476
  163POPC   C4B 2269   3.320   7.014   6.044
  164POPC   NC3 2270   1.835   5.103   8.209
  164POPC   PO4 2271   1.321   4.721   7.984
  164POPC   GL1 2272   1.592   4.951   7.713
  164POPC   GL2 2273   1.948   4.930   7.724
  164POPC   C1A 2274   1.716   4.805   7.281
  164POPC   D2A 2275   1.983   4.766   6.900
  164POPC   C3A 2276   1.767   4.900   6.550
  164POPC   C4A 2277   1.640   4.748   6.166
  164POPC   C1B 2278   2.191   4.969   7.334
  164POPC   C2B 2279   2.375   5.114   6.928
  164POPC   C3B 2280   2.251   5.121   6.507
  164POPC   C4B 2281   2.155   4.763   6.251
  165POPC   NC3 2282   6.859   8.459   8.037
  165POPC   PO4 2283   7.380   8.899   8.215
  165POPC   GL1 2284   7.188   8.809   7.825
  165POPC   GL2 2285   7.460   8.655   7.686
  165POPC   C1A 2286   7.002   8.770   7.401
  165POPC   D2A 2287   6.956   8.522   7.015
  165POPC   C3A 2288   6.833   8.774   6.690
  165POPC   C4A 2289   6.977   8.965   6.316
  165POPC   C1B 2290   7.671   8.649   7.278
  165POPC   C2B 2291   7.595   8.523   6.842
  165POPC   C3B 2292   7.331   8.678   6.538
  165POPC   C4B 2293   7.238   8.558   6.109
  166POPC   NC3 2294   3.104   0.498   8.225
  166POPC   PO4 2295   3.656   0.844   8.416
  166POPC   GL1 2296   3.498   0.621   7.930
  166POPC   GL2 2297   3.394   0.269   7.847
  166POPC   C1A 2298   3.580   0.539   7.449
  166POPC   D2A 2299   3.352   0.671   7.047
  166POPC   C3A 2300   3.371   0.497   6.618
  166POPC   C4A 2301   3.228   0.630   6.223
  166POPC   C1B 2302   3.155   0.267   7.438
  166POPC   C2B 2303   3.152   0.166   6.970
  166POPC   C3B 2304   3.210  10.484   6.525
  166POPC   C4B 2305   3.426   0.124   6.129
  167POPC   NC3 2306   3.931   8.940   8.198
  167POPC   PO4 2307   4.511   9.055   7.777
  167POPC   GL1 2308   4.318   8.761   7.578
  167POPC   GL2 2309   4.239   8.459   7.757
  167POPC   C1A 2310   4.256   8.801   7.157
  167POPC   D2A 2311   4.053   8.927   6.814
  167POPC   C3A 2312   3.991   8.634   6.487
  167POPC   C4A 2313   4.020   8.865   6.105
  167POPC   C1B 2314   4.223   8.324   7.300
  167POPC   C2B 2315   4.151   8.201   6.835
  167POPC   C3B 2316   4.351   8.251   6.438
  167POPC   C4B 2317   4.393   8.490   6.103
  168POPC   NC3 2318   9.985   2.391   8.179
  168POPC   PO4 2319  10.277   1.775   8.138
  168POPC   GL1 2320  10.457   1.764   7.716
  168POPC   GL2 2321  10.289   2.085   7.667
  168POPC   C1A 2322  10.469   1.822   7.265
  168POPC   D2A 2323  10.290   2.035   6.946
  168POPC   C3A 2324  10.422   1.838   6.632
  168POPC   C4A 2325  10.329   1.708   6.268
  168POPC   C1B 2326   9.962   1.970   7.335
  168POPC   C2B 2327   9.785   2.124   6.896
  168POPC   C3B 2328   9.998   2.110   6.499
  168POPC   C4B 2329  10.211   2.329   6.171
  169POPC   NC3 2330   1.315   7.301   8.178
  169POPC   PO4 2331   0.937   7.803   8.028
  169POPC   GL1 2332   1.016   7.577   7.611
  169POPC   GL2 2333   1.327   7.383   7.661
  169POPC   C1A 2334   0.883   7.512   7.143
  169POPC   D2A 2335   0.862   7.388   6.700
  169POPC   C3A 2336   1.213   7.365   6.463
  169POPC   C4A 2337   1.148   7.404   6.046
  169POPC   C1B 2338   1.157   7.149   7.347
  169POPC   C2B 2339   1.177   7.069   6.935
  169POPC   C3B 2340   1.007   6.884   6.588
  169POPC   C4B 2341   1.181   6.933   6.193
  170POPC   NC3 2342  10.334   3.047   7.981
  170POPC   PO4 2343   9.784   2.648   7.863
  170POPC   GL1 2344  10.076   2.553   7.613
  170POPC   GL2 2345  10.388   2.604   7.683
  170POPC   C1A 2346  10.137   2.452   7.217
  170POPC   D2A 2347   9.862   2.639   6.941
  170POPC   C3A 2348  10.039   2.629   6.557
  170POPC   C4A 2349   9.851   2.707   6.176
  170POPC   C1B 2350   0.029   2.806   7.334
  170POPC   C2B 2351  10.349   2.842   6.930
  170POPC   C3B 2352   0.039   2.822   6.566
  170POPC   C4B 2353  10.347   2.853   6.181
  171POPC   NC3 2354  10.053   9.423   7.982
  171POPC   PO4 2355   0.023   8.850   7.936
  171POPC   GL1 2356  10.328   9.175   7.642
  171POPC   GL2 2357  10.437   9.578   7.694
  171POPC   C1A 2358  10.117   9.230   7.254
  171POPC   D2A 2359  10.334   9.241   6.868
  171POPC   C3A 2360  10.166   9.198   6.451
  171POPC   C4A 2361   0.035   9.039   6.230
  171POPC   C1B 2362  10.426   9.621   7.265
  171POPC   C2B 2363  10.154   9.714   6.950
  171POPC   C3B 2364  10.359   9.660   6.564
  171POPC   C4B 2365  10.355   9.528   6.132
  172POPC   NC3 2366   0.043   6.882   7.996
  172POPC   PO4 2367   9.920   7.186   8.043
  172POPC   GL1 2368  10.164   7.079   7.711
  172POPC   GL2 2369  10.254   7.377   7.594
  172POPC   C1A 2370  10.174   6.946   7.293
  172POPC   D2A 2371  10.019   7.078   6.901
  172POPC   C3A 2372  10.337   7.115   6.598
  172POPC   C4A 2373  10.322   7.001   6.206
  172POPC   C1B 2374   9.958   7.446   7.319
  172POPC   C2B 2375   9.882   7.594   6.927
  172POPC   C3B 2376   9.943   7.437   6.527
  172POPC   C4B 2377  10.066   7.436   6.132
  173POPC   NC3 2378   8.636   2.520   8.138
  173POPC   PO4 2379   8.204   3.075   8.108
  173POPC   GL1 2380   8.527   2.887   7.767
  173POPC   GL2 2381   8.496   2.530   7.598
  173POPC   C1A 2382   8.721   2.909   7.325
  173POPC   D2A 2383   8.506   2.723   6.933
  173POPC   C3A 2384   8.468   2.958   6.537
  173POPC   C4A 2385   8.801   2.929   6.213
  173POPC   C1B 2386   8.776   2.375   7.212
  173POPC   C2B 2387   8.897   2.409   6.765
  173POPC   C3B 2388   8.638   2.497   6.440
  173POPC   C4B 2389   8.335   2.454   6.140
  174POPC   NC3 2390   6.345   0.674   3.938
  174POPC   PO4 2391   6.798   0.183   3.893
  174POPC   GL1 2392   6.629   0.397   4.241
  174POPC   GL2 2393   6.285   0.254   4.225
  174POPC   C1A 2394   6.745   0.476   4.670
  174POPC   D2A 2395   6.776   0.172   5.019
  174POPC   C3A 2396   6.643   0.376   5.367
  174POPC   C4A 2397   6.603   0.223   5.770
  174POPC   C1B 2398   6.241   0.472   4.612
  174POPC   C2B 2399   6.247   0.302   5.029
  174POPC   C3B 2400   6.148   0.408   5.467
  174POPC   C4B 2401   6.324   0.658   5.849
  175POPC   NC3 2402   5.607   2.176   3.927
  175POPC   PO4 2403   6.037   1.595   3.900
  175POPC   GL1 2404   6.075   1.721   4.328
  175POPC   GL2 2405   5.727   1.849   4.319
  175POPC   C1A 2406   5.938   1.752   4.780
  175POPC   D2A 2407   5.634   1.838   5.106
  175POPC   C3A 2408   5.818   1.979   5.486
  175POPC   C4A 2409   5.874   1.692   5.813
  175POPC   C1B 2410   5.607   2.125   4.669
  175POPC   C2B 2411   5.280   2.185   4.987
  175POPC   C3B 2412   5.340   2.250   5.384
  175POPC   C4B 2413   5.311   2.333   5.787
  176POPC   NC3 2414   0.046   9.580   4.053
  176POPC   PO4 2415   0.593   9.855   3.744
  176POPC   GL1 2416   0.640   9.610   4.130
  176POPC   GL2 2417   0.463   9.289   4.146
  176POPC   C1A 2418   0.771   9.602   4.549
  176POPC   D2A 2419   0.900   9.614   4.969
  176POPC   C3A 2420   0.658   9.387   5.219
  176POPC   C4A 2421   0.640   9.381   5.632
  176POPC   C1B 2422   0.326   9.224   4.587
  176POPC   C2B 2423   0.181   9.358   4.989
  176POPC   C3B 2424   0.202   9.213   5.385
  176POPC   C4B 2425   0.148   9.338   5.788
  177POPC   NC3 2426   3.528   0.916   3.797
  177POPC   PO4 2427   3.224   0.292   3.890
  177POPC   GL1 2428   3.430   0.452   4.208
  177POPC   GL2 2429   3.610   0.161   4.267
  177POPC   C1A 2430   3.547   0.534   4.646
  177POPC   D2A 2431   3.671   0.506   5.070
  177POPC   C3A 2432   3.629   0.778   5.430
  177POPC   C4A 2433   3.556   0.545   5.838
  177POPC   C1B 2434   3.296   0.092   4.580
  177POPC   C2B 2435   3.229   0.247   4.988
  177POPC   C3B 2436   3.264   0.421   5.395
  177POPC   C4B 2437   3.096   0.352   5.795
  178POPC   NC3 2438   2.935   4.334   3.960
  178POPC   PO4 2439   2.353   4.132   4.067
  178POPC   GL1 2440   2.592   4.273   4.375
  178POPC   GL2 2441   2.925   4.147   4.417
  178POPC   C1A 2442   2.640   4.322   4.798
  178POPC   D2A 2443   2.490   4.145   5.123
  178POPC   C3A 2444   2.620   4.344   5.492
  178POPC   C4A 2445   2.989   4.470   5.725
  178POPC   C1B 2446   2.968   3.881   4.760
  178POPC   C2B 2447   2.994   3.999   5.162
  178POPC   C3B 2448   3.286   4.120   5.458
  178POPC   C4B 2449   3.278   4.040   5.872
  179POPC   NC3 2450   9.528   7.968   3.694
  179POPC   PO4 2451   8.917   8.111   3.834
  179POPC   GL1 2452   9.115   8.110   4.239
  179POPC   GL2 2453   9.494   8.056   4.306
  179POPC   C1A 2454   9.122   7.946   4.660
  179POPC   D2A 2455   9.425   7.989   5.016
  179POPC   C3A 2456   9.200   7.923   5.390
  179POPC   C4A 2457   9.492   7.944   5.684
  179POPC   C1B 2458   9.573   7.697   4.603
  179POPC   C2B 2459   9.806   7.611   4.948
  179POPC   C3B 2460   9.861   7.682   5.359
  179POPC   C4B 2461   9.791   7.526   5.724
  180POPC   NC3 2462   9.451   6.535   3.869
  180POPC   PO4 2463   9.988   6.938   4.003
  180POPC   GL1 2464   9.779   6.670   4.311
  180POPC   GL2 2465   9.397   6.601   4.363
  180POPC   C1A 2466   9.708   6.616   4.751
  180POPC   D2A 2467   9.674   6.356   5.145
  180POPC   C3A 2468   9.690   6.602   5.562
  180POPC   C4A 2469   9.483   6.646   6.004
  180POPC   C1B 2470   9.310   6.314   4.766
  180POPC   C2B 2471   9.167   6.235   5.171
  180POPC   C3B 2472   9.203   6.407   5.552
  180POPC   C4B 2473   9.209   6.221   5.940
  181POPC   NC3 2474   3.128   7.326   4.088
  181POPC   PO4 2475   3.773   7.517   3.950
  181POPC   GL1 2476   3.663   7.380   4.413
  181POPC   GL2 2477   3.297   7.404   4.550
  181POPC   C1A 2478   3.642   7.432   4.913
  181POPC   D2A 2479   3.381   7.273   5.273
  181POPC   C3A 2480   3.610   7.145   5.652
  181POPC   C4A 2481   3.771   6.797   5.936
  181POPC   C1B 2482   3.146   7.023   4.788
  181POPC   C2B 2483   3.127   6.819   5.201
  181POPC   C3B 2484   3.047   7.012   5.597
  181POPC   C4B 2485   3.053   7.447   5.675
  182POPC   NC3 2486   9.683   9.956   3.918
  182POPC   PO4 2487   9.083   9.731   4.133
  182POPC   GL1 2488   9.092  10.038   4.425
  182POPC   GL2 2489   9.347  10.213   4.244
  182POPC   C1A 2490   9.211   9.984   4.854
  182POPC   D2A 2491   9.478   9.917   5.219
  182POPC   C3A 2492   9.428   9.956   5.683
  182POPC   C4A 2493   9.252  10.116   6.123
  182POPC   C1B 2494   9.572  10.322   4.589
  182POPC   C2B 2495   9.521  10.406   5.001
  182POPC   C3B 2496   9.657  10.370   5.410
  182POPC   C4B 2497   9.460  10.451   5.809
  183POPC   NC3 2498   9.285   2.871   3.794
  183POPC   PO4 2499   9.663   2.536   4.082
  183POPC   GL1 2500   9.332   2.617   4.316
  183POPC   GL2 2501   9.046   2.819   4.237
  183POPC   C1A 2502   9.547   2.745   4.696
  183POPC   D2A 2503   9.586   2.529   5.041
  183POPC   C3A 2504   9.466   2.737   5.396
  183POPC   C4A 2505   9.592   2.567   5.764
  183POPC   C1B 2506   9.085   2.922   4.656
  183POPC   C2B 2507   9.261   3.035   5.026
  183POPC   C3B 2508   9.042   3.063   5.374
  183POPC   C4B 2509   9.125   2.860   5.758
  184POPC   NC3 2510   8.867   7.657   4.044
  184POPC   PO4 2511   8.409   8.127   4.117
  184POPC   GL1 2512   8.645   7.989   4.398
  184POPC   GL2 2513   8.502   7.697   4.381
  184POPC   C1A 2514   8.654   8.113   4.809
  184POPC   D2A 2515   8.584   7.904   5.201
  184POPC   C3A 2516   8.566   8.132   5.566
  184POPC   C4A 2517   8.936   8.172   5.773
  184POPC   C1B 2518   8.681   7.598   4.759
  184POPC   C2B 2519   8.527   7.408   5.111
  184POPC   C3B 2520   8.474   7.457   5.551
  184POPC   C4B 2521   8.789   7.693   5.724
  185POPC   NC3 2522   4.696   0.571   3.825
  185POPC   PO4 2523   5.319   0.178   3.917
  185POPC   GL1 2524   5.132   0.333   4.289
  185POPC   GL2 2525   4.814   0.331   4.240
  185POPC   C1A 2526   5.247   0.588   4.674
  185POPC   D2A 2527   5.062   0.739   5.054
  185POPC   C3A 2528   5.092   0.448   5.359
  185POPC   C4A 2529   4.976   0.522   5.755
  185POPC   C1B 2530   4.753   0.459   4.650
  185POPC   C2B 2531   4.630   0.405   5.078
  185POPC   C3B 2532   4.655   0.193   5.491
  185POPC   C4B 2533   4.630   0.171   5.958
  186POPC   NC3 2534   5.701  10.412   3.857
  186POPC   PO4 2535   5.333  10.041   3.588
  186POPC   GL1 2536   5.417  10.221   4.191
  186POPC   GL2 2537   5.743  10.164   4.323
  186POPC   C1A 2538   5.381  10.080   4.669
  186POPC   D2A 2539   5.519  10.117   5.100
  186POPC   C3A 2540   5.305  10.319   5.464
  186POPC   C4A 2541   5.417  10.257   5.904
  186POPC   C1B 2542   5.827  10.389   4.729
  186POPC   C2B 2543   5.878  10.489   5.173
  186POPC   C3B 2544   5.802  10.310   5.568
  186POPC   C4B 2545   5.891  10.136   5.998
  187POPC   NC3 2546  10.472   7.968   4.024
  187POPC   PO4 2547   9.891   7.933   3.972
  187POPC   GL1 2548  10.020   7.956   4.320
  187POPC   GL2 2549  10.036   7.658   4.413
  187POPC   C1A 2550   9.864   8.104   4.674
  187POPC   D2A 2551  10.058   8.064   5.009
  187POPC   C3A 2552   9.849   8.177   5.317
  187POPC   C4A 2553   9.873   8.251   5.729
  187POPC   C1B 2554  10.388   7.783   4.646
  187POPC   C2B 2555   0.024   7.849   5.045
  187POPC   C3B 2556  10.317   7.915   5.421
  187POPC   C4B 2557  10.207   7.811   5.810
  188POPC   NC3 2558   2.848   1.568   3.937
  188POPC   PO4 2559   2.644   0.966   3.814
  188POPC   GL1 2560   2.615   1.187   4.162
  188POPC   GL2 2561   2.971   1.075   4.242
  188POPC   C1A 2562   2.499   1.179   4.556
  188POPC   D2A 2563   2.710   0.968   4.866
  188POPC   C3A 2564   2.424   0.826   5.171
  188POPC   C4A 2565   2.381   0.982   5.589
  188POPC   C1B 2566   2.985   1.380   4.575
  188POPC   C2B 2567   2.953   1.423   5.018
  188POPC   C3B 2568   2.763   1.193   5.332
  188POPC   C4B 2569   2.793   1.245   5.779
  189POPC   NC3 2570   5.631   8.837   3.861
  189POPC   PO4 2571   6.144   8.329   3.842
  189POPC   GL1 2572   5.820   8.418   4.191
  189POPC   GL2 2573   5.738   8.750   4.341
  189POPC   C1A 2574   5.837   8.355   4.643
  189POPC   D2A 2575   6.033   8.432   5.034
  189POPC   C3A 2576   5.816   8.182   5.321
  189POPC   C4A 2577   5.579   8.289   5.646
  189POPC   C1B 2578   5.531   9.003   4.679
  189POPC   C2B 2579   5.703   9.042   5.080
  189POPC   C3B 2580   5.602   8.835   5.454
  189POPC   C4B 2581   5.611   8.980   5.877
  190POPC   NC3 2582   7.322   1.243   3.898
  190POPC   PO4 2583   6.740   0.884   3.878
  190POPC   GL1 2584   7.021   0.926   4.234
  190POPC   GL2 2585   7.052   1.247   4.326
  190POPC   C1A 2586   6.967   0.942   4.714
  190POPC   D2A 2587   7.067   1.107   5.139
  190POPC   C3A 2588   6.893   0.840   5.467
  190POPC   C4A 2589   7.111   0.826   5.910
  190POPC   C1B 2590   7.218   1.382   4.726
  190POPC   C2B 2591   7.084   1.653   4.987
  190POPC   C3B 2592   7.043   1.634   5.390
  190POPC   C4B 2593   7.090   1.267   5.645
  191POPC   NC3 2594   5.854   7.968   3.940
  191POPC   PO4 2595   5.218   8.085   3.945
  191POPC   GL1 2596   5.461   8.074   4.324
  191POPC   GL2 2597   5.788   7.889   4.428
  191POPC   C1A 2598   5.391   8.037   4.747
  191POPC   D2A 2599   5.120   8.215   5.016
  191POPC   C3A 2600   5.128   7.993   5.379
  191POPC   C4A 2601   5.401   7.746   5.625
  191POPC   C1B 2602   5.857   7.893   4.884
  191POPC   C2B 2603   5.751   7.654   5.252
  191POPC   C3B 2604   5.915   7.732   5.652
  191POPC   C4B 2605   6.117   8.118   5.743
  192POPC   NC3 2606   8.069   4.214   3.615
  192POPC   PO4 2607   7.904   4.804   4.012
  192POPC   GL1 2608   7.935   4.488   4.455
  192POPC   GL2 2609   8.109   4.065   4.524
  192POPC   C1A 2610   7.941   4.360   4.886
  192POPC   D2A 2611   8.157   4.039   5.065
  192POPC   C3A 2612   8.058   4.118   5.457
  192POPC   C4A 2613   7.878   4.297   5.835
  192POPC   C1B 2614   7.759   3.882   4.789
  192POPC   C2B 2615   7.680   3.874   5.222
  192POPC   C3B 2616   7.611   3.879   5.678
  192POPC   C4B 2617   7.680   3.858   6.127
  193POPC   NC3 2618   0.338   0.473   3.668
  193POPC   PO4 2619  10.115   0.433   3.816
  193POPC   GL1 2620   9.997   0.225   4.245
  193POPC   GL2 2621  10.171   0.515   4.331
  193POPC   C1A 2622  10.151  10.475   4.632
  193POPC   D2A 2623  10.312   0.041   5.026
  193POPC   C3A 2624  10.211   0.282   5.373
  193POPC   C4A 2625  10.117   0.153   5.776
  193POPC   C1B 2626   9.931   0.405   4.711
  193POPC   C2B 2627   9.757   0.342   5.123
  193POPC   C3B 2628   9.712   0.339   5.577
  193POPC   C4B 2629   9.850   0.578   5.923
  194POPC   NC3 2630   7.257   8.578   4.004
  194POPC   PO4 2631   6.839   9.013   3.685
  194POPC   GL1 2632   6.896   8.884   4.237
  194POPC   GL2 2633   7.190   8.690   4.477
  194POPC   C1A 2634   6.807   8.838   4.719
  194POPC   D2A 2635   7.152   8.775   5.040
  194POPC   C3A 2636   7.073   8.580   5.477
  194POPC   C4A 2637   6.830   8.685   5.849
  194POPC   C1B 2638   7.492   8.436   4.686
  194POPC   C2B 2639   7.745   8.469   5.041
  194POPC   C3B 2640   7.612   8.477   5.447
  194POPC   C4B 2641   7.497   8.783   5.740
  195POPC   NC3 2642   3.817   9.569   3.904
  195POPC   PO4 2643   4.465   9.724   3.903
  195POPC   GL1 2644   4.400   9.372   4.243
  195POPC   GL2 2645   4.160   9.130   4.228
  195POPC   C1A 2646   4.460   9.104   4.657
  195POPC   D2A 2647   4.250   9.186   5.089
  195POPC   C3A 2648   4.489   9.205   5.488
  195POPC   C4A 2649   4.389   9.248   5.932
  195POPC   C1B 2650   4.043   9.399   4.638
  195POPC   C2B 2651   4.073   9.664   5.064
  195POPC   C3B 2652   4.124   9.565   5.510
  195POPC   C4B 2653   3.972   9.151   5.651
  196POPC   NC3 2654   8.734   0.461   3.875
  196POPC   PO4 2655   9.132   0.989   3.985
  196POPC   GL1 2656   9.137   0.644   4.262
  196POPC   GL2 2657   8.974   0.317   4.289
  196POPC   C1A 2658   9.142   0.780   4.665
  196POPC   D2A 2659   8.927   0.853   5.015
  196POPC   C3A 2660   8.995   0.683   5.387
  196POPC   C4A 2661   8.651   0.602   5.591
  196POPC   C1B 2662   8.741   0.466   4.653
  196POPC   C2B 2663   8.682   0.373   5.090
  196POPC   C3B 2664   8.787   0.139   5.450
  196POPC   C4B 2665   8.614   0.160   5.853
  197POPC   NC3 2666  10.070   2.758   3.990
  197POPC   PO4 2667   9.881   2.193   3.692
  197POPC   GL1 2668  10.068   2.279   4.150
  197POPC   GL2 2669  10.298   2.474   4.397
  197POPC   C1A 2670   9.899   2.310   4.635
  197POPC   D2A 2671  10.090   2.595   4.947
  197POPC   C3A 2672   9.963   2.567   5.386
  197POPC   C4A 2673  10.073   2.810   5.742
  197POPC   C1B 2674  10.403   2.875   4.573
  197POPC   C2B 2675  10.412   3.024   4.995
  197POPC   C3B 2676  10.454   2.786   5.357
  197POPC   C4B 2677   0.082   2.920   5.742
  198POPC   NC3 2678   8.351   3.500   3.753
  198POPC   PO4 2679   8.972   3.222   3.852
  198POPC   GL1 2680   8.692   3.379   4.171
  198POPC   GL2 2681   8.797   3.706   4.181
  198POPC   C1A 2682   8.729   3.276   4.615
  198POPC   D2A 2683   8.533   3.171   5.015
  198POPC   C3A 2684   8.564   3.350   5.412
  198POPC   C4A 2685   8.819   3.259   5.784
  198POPC   C1B 2686   8.534   3.743   4.571
  198POPC   C2B 2687   8.556   3.717   5.004
  198POPC   C3B 2688   8.515   3.876   5.403
  198POPC   C4B 2689   8.590   3.702   5.795
  199POPC   NC3 2690   7.957   7.145   3.807
  199POPC   PO4 2691   8.600   7.216   3.865
  199POPC   GL1 2692   8.277   7.263   4.245
  199POPC   GL2 2693   7.923   7.231   4.310
  199POPC   C1A 2694   8.234   7.231   4.729
  199POPC   D2A 2695   7.970   7.065   5.109
  199POPC   C3A 2696   7.993   7.267   5.531
  199POPC   C4A 2697   8.052   7.208   6.007
  199POPC   C1B 2698   7.698   7.248   4.712
  199POPC   C2B 2699   7.544   7.442   5.110
  199POPC   C3B 2700   7.316   7.420   5.505
  199POPC   C4B 2701   7.581   7.276   5.843
  200POPC   NC3 2702   0.430   7.818   3.788
  200POPC   PO4 2703   0.061   8.422   3.982
  200POPC   GL1 2704   0.393   8.106   4.235
  200POPC   GL2 2705   0.327   7.748   4.287
  200POPC   C1A 2706   0.383   8.112   4.696
  200POPC   D2A 2707   0.518   7.993   5.125
  200POPC   C3A 2708   0.253   8.188   5.402
  200POPC   C4A 2709   0.054   8.186   5.791
  200POPC   C1B 2710   0.370   7.606   4.677
  200POPC   C2B 2711   0.367   7.485   5.087
  200POPC   C3B 2712   0.279   7.676   5.490
  200POPC   C4B 2713   0.578   7.975   5.710
  201POPC   NC3 2714   7.336   7.165   3.820
  201POPC   PO4 2715   7.715   6.737   3.952
  201POPC   GL1 2716   7.485   6.985   4.279
  201POPC   GL2 2717   7.382   7.347   4.292
  201POPC   C1A 2718   7.283   6.894   4.659
  201POPC   D2A 2719   7.513   6.841   5.036
  201POPC   C3A 2720   7.529   6.949   5.464
  201POPC   C4A 2721   7.296   6.847   5.870
  201POPC   C1B 2722   7.197   7.382   4.678
  201POPC   C2B 2723   7.113   7.181   5.070
  201POPC   C3B 2724   6.996   7.016   5.474
  201POPC   C4B 2725   6.953   7.233   5.847
  202POPC   NC3 2726   8.889  10.200   3.969
  202POPC   PO4 2727   8.430   9.744   3.903
  202POPC   GL1 2728   8.576   9.995   4.316
  202POPC   GL2 2729   8.645  10.379   4.386
  202POPC   C1A 2730   8.692  10.066   4.774
  202POPC   D2A 2731   8.505  10.387   5.061
  202POPC   C3A 2732   8.461  10.235   5.497
  202POPC   C4A 2733   8.493   9.835   5.757
  202POPC   C1B 2734   8.991  10.481   4.657
  202POPC   C2B 2735   9.016  10.402   5.062
  202POPC   C3B 2736   9.140  10.282   5.437
  202POPC   C4B 2737   8.882  10.226   5.802
  203POPC   NC3 2738   9.522   5.751   3.635
  203POPC   PO4 2739   9.620   6.201   4.161
  203POPC   GL1 2740   9.624   5.871   4.407
  203POPC   GL2 2741   9.555   5.563   4.247
  203POPC   C1A 2742   9.696   5.931   4.811
  203POPC   D2A 2743   9.541   5.835   5.175
  203POPC   C3A 2744   9.567   6.048   5.523
  203POPC   C4A 2745   9.715   6.193   5.886
  203POPC   C1B 2746   9.280   5.542   4.644
  203POPC   C2B 2747   9.420   5.362   5.044
  203POPC   C3B 2748   9.337   5.462   5.465
  203POPC   C4B 2749   9.400   5.689   5.825
  204POPC   NC3 2750   6.423   1.931   3.932
  204POPC   PO4 2751   6.047   2.443   3.857
  204POPC   GL1 2752   6.099   2.224   4.262
  204POPC   GL2 2753   6.440   2.106   4.387
  204POPC   C1A 2754   6.120   2.267   4.733
  204POPC   D2A 2755   6.163   2.059   5.119
  204POPC   C3A 2756   6.232   2.270   5.483
  204POPC   C4A 2757   6.174   2.101   5.882
  204POPC   C1B 2758   6.422   1.850   4.727
  204POPC   C2B 2759   6.600   1.794   5.143
  204POPC   C3B 2760   6.466   1.790   5.574
  204POPC   C4B 2761   6.755   1.587   5.852
  205POPC   NC3 2762   1.868   3.335   3.784
  205POPC   PO4 2763   1.591   2.809   3.790
  205POPC   GL1 2764   1.707   3.077   4.204
  205POPC   GL2 2765   1.642   3.465   4.266
  205POPC   C1A 2766   1.655   3.174   4.676
  205POPC   D2A 2767   1.837   3.032   5.069
  205POPC   C3A 2768   1.816   3.270   5.427
  205POPC   C4A 2769   2.175   3.114   5.631
  205POPC   C1B 2770   1.964   3.574   4.657
  205POPC   C2B 2771   1.953   3.750   5.112
  205POPC   C3B 2772   2.147   3.643   5.534
  205POPC   C4B 2773   1.952   3.488   5.916
  206POPC   NC3 2774   6.303   3.544   3.916
  206POPC   PO4 2775   6.765   3.844   3.924
  206POPC   GL1 2776   6.667   3.663   4.325
  206POPC   GL2 2777   6.381   3.465   4.400
  206POPC   C1A 2778   6.602   3.695   4.793
  206POPC   D2A 2779   6.549   3.455   5.172
  206POPC   C3A 2780   6.473   3.728   5.566
  206POPC   C4A 2781   6.345   3.896   5.981
  206POPC   C1B 2782   6.195   3.341   4.783
  206POPC   C2B 2783   6.134   3.161   5.204
  206POPC   C3B 2784   6.257   3.280   5.614
  206POPC   C4B 2785   5.976   3.556   5.809
  207POPC   NC3 2786   9.840   7.450   3.974
  207POPC   PO4 2787   0.064   7.538   3.854
  207POPC   GL1 2788  10.454   7.413   4.274
  207POPC   GL2 2789  10.306   7.128   4.325
  207POPC   C1A 2790  10.484   7.292   4.749
  207POPC   D2A 2791  10.326   7.116   5.112
  207POPC   C3A 2792  10.289   7.403   5.438
  207POPC   C4A 2793  10.460   7.356   5.825
  207POPC   C1B 2794   9.939   7.214   4.617
  207POPC   C2B 2795   9.706   7.107   4.980
  207POPC   C3B 2796   9.845   7.126   5.382
  207POPC   C4B 2797  10.047   7.074   5.773
  208POPC   NC3 2798   0.152   9.989   3.673
  208POPC   PO4 2799   0.503   0.089   3.905
  208POPC   GL1 2800   0.306  10.373   4.243
  208POPC   GL2 2801   0.331  10.028   4.168
  208POPC   C1A 2802   0.226  10.477   4.695
  208POPC   D2A 2803   0.495   0.015   5.074
  208POPC   C3A 2804   0.500  10.268   5.477
  208POPC   C4A 2805   0.235  10.245   5.824
  208POPC   C1B 2806   0.489  10.039   4.609
  208POPC   C2B 2807   0.428   9.811   4.998
  208POPC   C3B 2808   0.249   9.731   5.421
  208POPC   C4B 2809   0.391   9.768   5.846
  209POPC   NC3 2810   4.036   0.393   3.942
  209POPC   PO4 2811   4.358   0.842   3.688
  209POPC   GL1 2812   4.356   0.661   4.206
  209POPC   GL2 2813   4.318   0.327   4.368
  209POPC   C1A 2814   4.319   0.737   4.670
  209POPC   D2A 2815   4.130   0.694   5.091
  209POPC   C3A 2816   4.343   0.620   5.440
  209POPC   C4A 2817   4.318   0.527   5.826
  209POPC   C1B 2818   4.036   0.292   4.722
  209POPC   C2B 2819   4.124   0.186   5.158
  209POPC   C3B 2820   3.915   0.346   5.528
  209POPC   C4B 2821   3.931   0.243   5.982
  210POPC   NC3 2822   1.918   8.201   3.786
  210POPC   PO4 2823   2.003   7.519   3.663
  210POPC   GL1 2824   2.095   7.679   4.127
  210POPC   GL2 2825   2.022   8.027   4.265
  210POPC   C1A 2826   2.284   7.601   4.568
  210POPC   D2A 2827   2.445   7.726   4.998
  210POPC   C3A 2828   2.267   7.601   5.398
  210POPC   C4A 2829   2.103   7.531   5.814
  210POPC   C1B 2830   1.979   7.983   4.725
  210POPC   C2B 2831   2.050   7.999   5.158
  210POPC   C3B 2832   1.834   7.860   5.498
  210POPC   C4B 2833   1.663   7.828   5.908
  211POPC   NC3 2834   1.753   9.722   3.985
  211POPC   PO4 2835   2.009  10.358   3.775
  211POPC   GL1 2836   1.877  10.224   4.164
  211POPC   GL2 2837   1.513  10.301   4.182
  211POPC   C1A 2838   2.044  10.223   4.597
  211POPC   D2A 2839   2.182  10.393   5.018
  211POPC   C3A 2840   2.095  10.141   5.396
  211POPC   C4A 2841   1.960  10.276   5.767
  211POPC   C1B 2842   1.495  10.239   4.630
  211POPC   C2B 2843   1.735  10.120   5.001
  211POPC   C3B 2844   1.586  10.174   5.416
  211POPC   C4B 2845   1.713   9.844   5.704
  212POPC   NC3 2846   2.336   5.681   3.760
  212POPC   PO4 2847   1.712   5.373   3.701
  212POPC   GL1 2848   1.841   5.438   4.169
  212POPC   GL2 2849   1.513   5.470   4.309
  212POPC   C1A 2850   1.986   5.565   4.649
  212POPC   D2A 2851   2.172   5.849   5.012
  212POPC   C3A 2852   2.327   5.768   5.444
  212POPC   C4A 2853   2.224   5.584   5.852
  212POPC   C1B 2854   1.515   5.769   4.663
  212POPC   C2B 2855   1.697   5.758   5.080
  212POPC   C3B 2856   1.835   5.602   5.521
  212POPC   C4B 2857   1.778   5.781   5.942
  213POPC   NC3 2858   3.088   9.490   3.927
  213POPC   PO4 2859   3.743   9.125   3.794
  213POPC   GL1 2860   3.680   9.253   4.277
  213POPC   GL2 2861   3.571   9.613   4.349
  213POPC   C1A 2862   3.582   9.188   4.715
  213POPC   D2A 2863   3.739   9.097   5.105
  213POPC   C3A 2864   3.662   9.432   5.353
  213POPC   C4A 2865   3.519   9.364   5.785
  213POPC   C1B 2866   3.249   9.569   4.663
  213POPC   C2B 2867   3.208   9.355   5.065
  213POPC   C3B 2868   3.189   9.548   5.464
  213POPC   C4B 2869   2.999   9.787   5.788
  214POPC   NC3 2870   1.676   7.207   3.689
  214POPC   PO4 2871   2.174   6.803   3.909
  214POPC   GL1 2872   1.941   6.945   4.236
  214POPC   GL2 2873   1.790   7.261   4.187
  214POPC   C1A 2874   2.070   7.128   4.634
  214POPC   D2A 2875   2.310   7.236   5.001
  214POPC   C3A 2876   2.191   7.092   5.415
  214POPC   C4A 2877   2.056   7.015   5.844
  214POPC   C1B 2878   1.757   7.539   4.569
  214POPC   C2B 2879   1.864   7.535   5.039
  214POPC   C3B 2880   1.745   7.351   5.474
  214POPC   C4B 2881   1.629   7.311   5.929
  215POPC   NC3 2882   1.758   6.470   3.989
  215POPC   PO4 2883   2.348   6.116   3.908
  215POPC   GL1 2884   2.104   6.169   4.241
  215POPC   GL2 2885   2.196   6.494   4.316
  215POPC   C1A 2886   1.926   6.092   4.642
  215POPC   D2A 2887   1.833   6.281   5.051
  215POPC   C3A 2888   1.890   6.090   5.435
  215POPC   C4A 2889   2.114   6.116   5.791
  215POPC   C1B 2890   1.982   6.613   4.670
  215POPC   C2B 2891   2.131   6.711   5.083
  215POPC   C3B 2892   2.095   6.591   5.538
  215POPC   C4B 2893   1.725   6.483   5.743
  216POPC   NC3 2894   4.622   2.117   4.087
  216POPC   PO4 2895   5.250   1.860   4.013
  216POPC   GL1 2896   5.215   2.014   4.385
  216POPC   GL2 2897   4.898   2.110   4.509
  216POPC   C1A 2898   5.211   1.752   4.749
  216POPC   D2A 2899   4.969   1.783   5.114
  216POPC   C3A 2900   5.238   1.649   5.396
  216POPC   C4A 2901   5.398   1.848   5.696
  216POPC   C1B 2902   4.809   2.401   4.837
  216POPC   C2B 2903   4.841   2.397   5.294
  216POPC   C3B 2904   4.916   2.051   5.583
  216POPC   C4B 2905   4.647   1.800   5.822
  217POPC   NC3 2906   7.922   9.994   3.825
  217POPC   PO4 2907   7.655   0.155   3.928
  217POPC   GL1 2908   7.889   0.184   4.296
  217POPC   GL2 2909   8.131  10.417   4.228
  217POPC   C1A 2910   7.782   0.067   4.722
  217POPC   D2A 2911   7.994  10.435   5.095
  217POPC   C3A 2912   7.708  10.358   5.408
  217POPC   C4A 2913   7.578  10.458   5.810
  217POPC   C1B 2914   8.203  10.230   4.637
  217POPC   C2B 2915   8.236   9.933   4.972
  217POPC   C3B 2916   8.122   9.849   5.364
  217POPC   C4B 2917   8.022  10.086   5.715
  218POPC   NC3 2918   4.991   7.678   3.952
  218POPC   PO4 2919   4.603   7.968   4.240
  218POPC   GL1 2920   4.962   7.889   4.455
  218POPC   GL2 2921   4.965   8.235   4.510
  218POPC   C1A 2922   4.973   7.737   4.909
  218POPC   D2A 2923   4.739   7.572   5.287
  218POPC   C3A 2924   4.872   7.671   5.723
  218POPC   C4A 2925   4.799   7.447   6.178
  218POPC   C1B 2926   4.647   8.135   4.855
  218POPC   C2B 2927   4.620   8.091   5.303
  218POPC   C3B 2928   4.802   8.306   5.645
  218POPC   C4B 2929   5.146   8.129   5.872
  219POPC   NC3 2930   2.749   8.581   3.971
  219POPC   PO4 2931   3.225   9.117   4.157
  219POPC   GL1 2932   3.059   8.724   4.336
  219POPC   GL2 2933   2.707   8.758   4.431
  219POPC   C1A 2934   2.972   8.405   4.677
  219POPC   D2A 2935   2.893   8.515   5.067
  219POPC   C3A 2936   2.977   8.385   5.419
  219POPC   C4A 2937   2.990   8.720   5.710
  219POPC   C1B 2938   2.507   8.708   4.834
  219POPC   C2B 2939   2.309   8.817   5.180
  219POPC   C3B 2940   2.491   8.638   5.518
  219POPC   C4B 2941   2.577   8.407   5.860
  220POPC   NC3 2942   6.365   7.198   4.056
  220POPC   PO4 2943   6.957   7.388   3.937
  220POPC   GL1 2944   6.796   7.417   4.359
  220POPC   GL2 2945   6.725   7.082   4.481
  220POPC   C1A 2946   6.712   7.456   4.830
  220POPC   D2A 2947   6.614   7.155   5.159
  220POPC   C3A 2948   6.528   7.277   5.563
  220POPC   C4A 2949   6.437   7.148   5.982
  220POPC   C1B 2950   6.322   7.073   4.750
  220POPC   C2B 2951   6.120   6.949   5.170
  220POPC   C3B 2952   6.191   6.849   5.623
  220POPC   C4B 2953   5.929   6.962   6.001
  221POPC   NC3 2954   0.953   4.559   3.879
  221POPC   PO4 2955   1.142   5.247   3.965
  221POPC   GL1 2956   1.196   5.066   4.318
  221POPC   GL2 2957   1.230   4.741   4.267
  221POPC   C1A 2958   1.374   5.003   4.692
  221POPC   D2A 2959   1.521   5.306   4.924
  221POPC   C3A 2960   1.507   5.216   5.351
  221POPC   C4A 2961   1.517   4.966   5.736
  221POPC   C1B 2962   0.935   4.724   4.609
  221POPC   C2B 2963   0.968   4.962   5.004
  221POPC   C3B 2964   1.129   4.840   5.412
  221POPC   C4B 2965   1.028   5.133   5.743
  222POPC   NC3 2966   2.846   0.571   3.910
  222POPC   PO4 2967   2.269   0.213   4.118
  222POPC   GL1 2968   2.563   0.345   4.400
  222POPC   GL2 2969   2.925   0.299   4.314
  222POPC   C1A 2970   2.448   0.319   4.830
  222POPC   D2A 2971   2.374   0.318   5.245
  222POPC   C3A 2972   2.383   0.042   5.540
  222POPC   C4A 2973   2.525   0.207   5.904
  222POPC   C1B 2974   2.956   0.545   4.684
  222POPC   C2B 2975   2.829   0.515   5.121
  222POPC   C3B 2976   2.837   0.720   5.511
  222POPC   C4B 2977   2.771   0.698   5.954
  223POPC   NC3 2978   8.462   5.748   3.953
  223POPC   PO4 2979   9.189   5.677   3.949
  223POPC   GL1 2980   8.864   5.629   4.265
  223POPC   GL2 2981   8.713   5.944   4.363
  223POPC   C1A 2982   8.712   5.492   4.662
  223POPC   D2A 2983   8.911   5.281   4.997
  223POPC   C3A 2984   8.846   5.327   5.416
  223POPC   C4A 2985   8.803   5.396   5.813
  223POPC   C1B 2986   8.876   5.982   4.785
  223POPC   C2B 2987   9.048   5.746   5.121
  223POPC   C3B 2988   8.980   5.856   5.547
  223POPC   C4B 2989   8.583   5.973   5.738
  224POPC   NC3 2990   3.329  10.341   3.930
  224POPC   PO4 2991   2.782   9.896   3.853
  224POPC   GL1 2992   3.134   9.900   4.238
  224POPC   GL2 2993   3.443  10.132   4.388
  224POPC   C1A 2994   3.056  10.043   4.681
  224POPC   D2A 2995   3.198  10.251   5.049
  224POPC   C3A 2996   3.270  10.069   5.464
  224POPC   C4A 2997   3.347  10.123   5.939
  224POPC   C1B 2998   3.702  10.354   4.734
  224POPC   C2B 2999   3.637   0.003   5.170
  224POPC   C3B 3000   3.520   0.011   5.607
  224POPC   C4B 3001   3.807  10.285   5.864
  225POPC   NC3 3002   6.658  10.224   3.936
  225POPC   PO4 3003   6.034  10.018   3.925
  225POPC   GL1 3004   6.264  10.238   4.292
  225POPC   GL2 3005   6.625  10.401   4.399
  225POPC   C1A 3006   6.296  10.193   4.737
  225POPC   D2A 3007   6.172  10.074   5.149
  225POPC   C3A 3008   6.343  10.417   5.415
  225POPC   C4A 3009   6.160   0.026   5.821
  225POPC   C1B 3010   6.814  10.186   4.744
  225POPC   C2B 3011   6.694  10.127   5.137
  225POPC   C3B 3012   6.701   9.912   5.515
  225POPC   C4B 3013   6.630  10.218   5.815
  226POPC   NC3 3014   6.546   8.704   3.916
  226POPC   PO4 3015   6.881   8.150   3.964
  226POPC   GL1 3016   6.693   8.400   4.340
  226POPC   GL2 3017   6.323   8.484   4.320
  226POPC   C1A 3018   6.541   8.431   4.803
  226POPC   D2A 3019   6.647   8.660   5.188
  226POPC   C3A 3020   6.415   8.504   5.534
  226POPC   C4A 3021   6.351   8.468   6.016
  226POPC   C1B 3022   6.164   8.766   4.645
  226POPC   C2B 3023   6.232   8.944   5.055
  226POPC   C3B 3024   6.071   9.032   5.471
  226POPC   C4B 3025   5.970   8.640   5.726
  227POPC   NC3 3026   7.139   1.847   3.857
  227POPC   PO4 3027   6.699   2.346   3.974
  227POPC   GL1 3028   6.936   2.185   4.321
  227POPC   GL2 3029   6.973   1.850   4.368
  227POPC   C1A 3030   6.862   2.069   4.779
  227POPC   D2A 3031   7.058   2.142   5.126
  227POPC   C3A 3032   6.859   2.104   5.542
  227POPC   C4A 3033   7.065   2.223   5.925
  227POPC   C1B 3034   7.347   2.013   4.681
  227POPC   C2B 3035   7.539   1.913   5.084
  227POPC   C3B 3036   7.385   2.041   5.485
  227POPC   C4B 3037   7.251   1.774   5.824
  228POPC   NC3 3038   9.403   1.348   3.992
  228POPC   PO4 3039  10.031   1.449   3.885
  228POPC   GL1 3040   9.802   1.483   4.281
  228POPC   GL2 3041   9.724   1.116   4.313
  228POPC   C1A 3042   9.885   1.369   4.727
  228POPC   D2A 3043   9.837   1.090   5.061
  228POPC   C3A 3044   9.714   1.197   5.447
  228POPC   C4A 3045   9.770   1.526   5.705
  228POPC   C1B 3046   9.401   1.239   4.608
  228POPC   C2B 3047   9.302   1.225   5.001
  228POPC   C3B 3048   9.223   1.146   5.405
  228POPC   C4B 3049   9.292   1.326   5.842
  229POPC   NC3 3050   9.286   5.161   3.999
  229POPC   PO4 3051   9.852   5.270   3.881
  229POPC   GL1 3052   9.751   5.073   4.305
  229POPC   GL2 3053   9.509   4.801   4.297
  229POPC   C1A 3054   9.703   4.931   4.753
  229POPC   D2A 3055   9.669   4.742   5.171
  229POPC   C3A 3056   9.702   5.088   5.448
  229POPC   C4A 3057   9.628   5.221   5.889
  229POPC   C1B 3058   9.207   5.007   4.605
  229POPC   C2B 3059   9.229   4.911   4.972
  229POPC   C3B 3060   9.215   4.952   5.352
  229POPC   C4B 3061   9.181   5.059   5.725
  230POPC   NC3 3062   7.058   0.568   3.798
  230POPC   PO4 3063   7.666   0.881   3.885
  230POPC   GL1 3064   7.485   0.574   4.217
  230POPC   GL2 3065   7.130   0.441   4.283
  230POPC   C1A 3066   7.349   0.597   4.685
  230POPC   D2A 3067   7.135   0.583   5.088
  230POPC   C3A 3068   7.401   0.746   5.446
  230POPC   C4A 3069   7.499   0.502   5.827
  230POPC   C1B 3070   7.110   0.133   4.630
  230POPC   C2B 3071   7.319   0.097   5.026
  230POPC   C3B 3072   7.349   0.226   5.418
  230POPC   C4B 3073   7.049   0.401   5.658
  231POPC   NC3 3074   1.936   4.348   4.007
  231POPC   PO4 3075   1.932   3.739   3.950
  231POPC   GL1 3076   1.959   3.950   4.330
  231POPC   GL2 3077   1.609   4.013   4.280
  231POPC   C1A 3078   2.117   4.235   4.692
  231POPC   D2A 3079   2.099   4.468   5.098
  231POPC   C3A 3080   2.117   4.163   5.456
  231POPC   C4A 3081   2.344   4.019   5.829
  231POPC   C1B 3082   1.658   3.984   4.739
  231POPC   C2B 3083   1.643   4.282   5.076
  231POPC   C3B 3084   1.655   4.348   5.541
  231POPC   C4B 3085   1.765   3.944   5.754
  232POPC   NC3 3086   2.281   7.249   3.897
  232POPC   PO4 3087   2.827   7.573   3.843
  232POPC   GL1 3088   2.640   7.353   4.235
  232POPC   GL2 3089   2.502   6.979   4.268
  232POPC   C1A 3090   2.701   7.276   4.662
  232POPC   D2A 3091   2.904   7.429   5.018
  232POPC   C3A 3092   2.678   7.297   5.366
  232POPC   C4A 3093   2.527   7.240   5.760
  232POPC   C1B 3094   2.474   6.809   4.694
  232POPC   C2B 3095   2.619   6.842   5.142
  232POPC   C3B 3096   2.582   6.759   5.607
  232POPC   C4B 3097   2.478   6.863   6.085
  233POPC   NC3 3098   3.999   1.330   3.923
  233POPC   PO4 3099   3.277   1.291   3.875
  233POPC   GL1 3100   3.578   1.235   4.193
  233POPC   GL2 3101   3.536   0.938   4.320
  233POPC   C1A 3102   3.652   1.371   4.599
  233POPC   D2A 3103   3.467   1.338   4.998
  233POPC   C3A 3104   3.665   1.451   5.388
  233POPC   C4A 3105   3.687   1.290   5.783
  233POPC   C1B 3106   3.274   0.970   4.669
  233POPC   C2B 3107   3.184   0.895   5.088
  233POPC   C3B 3108   3.251   1.132   5.439
  233POPC   C4B 3109   3.230   0.922   5.784
  234POPC   NC3 3110   2.051   8.787   3.688
  234POPC   PO4 3111   2.213   8.786   4.318
  234POPC   GL1 3112   1.871   8.777   4.571
  234POPC   GL2 3113   1.726   8.428   4.552
  234POPC   C1A 3114   1.847   8.967   4.959
  234POPC   D2A 3115   1.764   8.945   5.357
  234POPC   C3A 3116   2.115   9.061   5.605
  234POPC   C4A 3117   2.212   8.783   5.922
  234POPC   C1B 3118   2.002   8.459   4.931
  234POPC   C2B 3119   1.982   8.462   5.386
  234POPC   C3B 3120   1.868   8.395   5.817
  234POPC   C4B 3121   2.173   8.361   6.203
  235POPC   NC3 3122   6.846   2.763   4.129
  235POPC   PO4 3123   7.409   3.080   3.877
  235POPC   GL1 3124   7.375   2.893   4.263
  235POPC   GL2 3125   7.318   2.533   4.232
  235POPC   C1A 3126   7.264   2.984   4.683
  235POPC   D2A 3127   7.446   2.933   5.071
  235POPC   C3A 3128   7.251   3.008   5.472
  235POPC   C4A 3129   7.397   2.968   5.893
  235POPC   C1B 3130   7.139   2.490   4.668
  235POPC   C2B 3131   7.012   2.656   5.051
  235POPC   C3B 3132   7.130   2.521   5.459
  235POPC   C4B 3133   6.975   2.705   5.824
  236POPC   NC3 3134   7.136   3.597   3.825
  236POPC   PO4 3135   7.747   3.779   3.931
  236POPC   GL1 3136   7.405   3.502   4.229
  236POPC   GL2 3137   7.051   3.293   4.219
  236POPC   C1A 3138   7.342   3.491   4.653
  236POPC   D2A 3139   7.589   3.412   5.008
  236POPC   C3A 3140   7.443   3.468   5.416
  236POPC   C4A 3141   7.299   3.490   5.850
  236POPC   C1B 3142   6.845   3.267   4.631
  236POPC   C2B 3143   7.043   3.290   5.058
  236POPC   C3B 3144   6.939   3.439   5.487
  236POPC   C4B 3145   6.835   3.213   5.837
  237POPC   NC3 3146   2.384   3.659   3.999
  237POPC   PO4 3147   3.016   3.870   3.941
  237POPC   GL1 3148   2.775   3.678   4.323
  237POPC   GL2 3149   2.626   3.341   4.320
  237POPC   C1A 3150   2.473   3.813   4.678
  237POPC   D2A 3151   2.453   3.652   5.120
  237POPC   C3A 3152   2.662   3.819   5.493
  237POPC   C4A 3153   2.846   3.728   5.897
  237POPC   C1B 3154   2.544   3.301   4.759
  237POPC   C2B 3155   2.390   3.155   5.157
  237POPC   C3B 3156   2.615   3.319   5.521
  237POPC   C4B 3157   2.449   3.418   5.928
  238POPC   NC3 3158   9.656   0.425   3.770
  238POPC   PO4 3159   9.201   0.031   3.876
  238POPC   GL1 3160   9.482   0.227   4.217
  238POPC   GL2 3161   9.646   0.596   4.265
  238POPC   C1A 3162   9.424   0.320   4.647
  238POPC   D2A 3163   9.167   0.375   4.964
  238POPC   C3A 3164   9.283   0.261   5.341
  238POPC   C4A 3165   9.147   0.344   5.748
  238POPC   C1B 3166   9.636   0.797   4.705
  238POPC   C2B 3167   9.458   0.756   5.137
  238POPC   C3B 3168   9.465   0.758   5.589
  238POPC   C4B 3169   9.303   0.755   5.992
  239POPC   NC3 3170   8.430   8.544   3.930
  239POPC   PO4 3171   8.950   8.951   3.838
  239POPC   GL1 3172   8.901   8.761   4.276
  239POPC   GL2 3173   8.699   8.497   4.355
  239POPC   C1A 3174   8.986   8.693   4.738
  239POPC   D2A 3175   9.038   8.372   5.081
  239POPC   C3A 3176   8.966   8.584   5.480
  239POPC   C4A 3177   8.875   8.749   5.906
  239POPC   C1B 3178   8.473   8.608   4.743
  239POPC   C2B 3179   8.529   8.460   5.160
  239POPC   C3B 3180   8.471   8.637   5.538
  239POPC   C4B 3181   8.404   8.936   5.782
  240POPC   NC3 3182   1.801   0.220   3.975
  240POPC   PO4 3183   1.767   0.892   3.787
  240POPC   GL1 3184   1.996   0.660   4.141
  240POPC   GL2 3185   1.742   0.575   4.378
  240POPC   C1A 3186   2.196   0.699   4.596
  240POPC   D2A 3187   1.976   0.534   5.002
  240POPC   C3A 3188   2.044   0.608   5.463
  240POPC   C4A 3189   2.164   0.686   5.918
  240POPC   C1B 3190   1.836   0.199   4.641
  240POPC   C2B 3191   1.657   0.112   5.037
  240POPC   C3B 3192   1.879   0.127   5.398
  240POPC   C4B 3193   1.931   0.261   5.821
  241POPC   NC3 3194   4.259   3.644   3.922
  241POPC   PO4 3195   4.673   3.265   3.924
  241POPC   GL1 3196   4.508   3.223   4.355
  241POPC   GL2 3197   4.157   3.230   4.352
  241POPC   C1A 3198   4.411   3.284   4.827
  241POPC   D2A 3199   4.464   3.329   5.294
  241POPC   C3A 3200   4.370   3.715   5.538
  241POPC   C4A 3201   4.228   4.054   5.883
  241POPC   C1B 3202   3.968   3.041   4.691
  241POPC   C2B 3203   3.954   3.149   5.128
  241POPC   C3B 3204   4.033   3.309   5.540
  241POPC   C4B 3205   4.017   3.573   5.883
  242POPC   NC3 3206   0.355   8.790   3.968
  242POPC   PO4 3207   0.717   8.193   3.825
  242POPC   GL1 3208   0.744   8.484   4.248
  242POPC   GL2 3209   0.424   8.568   4.412
  242POPC   C1A 3210   0.813   8.791   4.625
  242POPC   D2A 3211   0.554   8.944   5.004
  242POPC   C3A 3212   0.653   8.868   5.475
  242POPC   C4A 3213   0.492   8.485   5.738
  242POPC   C1B 3214   0.075   8.752   4.592
  242POPC   C2B 3215   0.037   8.867   4.995
  242POPC   C3B 3216   0.192   8.703   5.354
  242POPC   C4B 3217   0.146   8.843   5.752
  243POPC   NC3 3218   1.256   2.593   4.020
  243POPC   PO4 3219   1.343   3.299   3.828
  243POPC   GL1 3220   1.193   3.090   4.191
  243POPC   GL2 3221   1.105   3.398   4.319
  243POPC   C1A 3222   1.181   2.981   4.634
  243POPC   D2A 3223   0.906   3.205   4.928
  243POPC   C3A 3224   0.908   3.141   5.363
  243POPC   C4A 3225   0.924   3.223   5.791
  243POPC   C1B 3226   1.311   3.563   4.679
  243POPC   C2B 3227   1.373   3.393   5.089
  243POPC   C3B 3228   1.240   3.486   5.496
  243POPC   C4B 3229   1.469   3.432   5.810
  244POPC   NC3 3230   6.031   2.836   4.094
  244POPC   PO4 3231   5.464   2.829   3.897
  244POPC   GL1 3232   5.531   2.848   4.328
  244POPC   GL2 3233   5.674   2.514   4.315
  244POPC   C1A 3234   5.467   3.013   4.786
  244POPC   D2A 3235   5.693   2.873   5.204
  244POPC   C3A 3236   5.717   3.078   5.611
  244POPC   C4A 3237   5.480   3.246   5.986
  244POPC   C1B 3238   5.760   2.607   4.754
  244POPC   C2B 3239   5.760   2.372   5.138
  244POPC   C3B 3240   5.769   2.493   5.593
  244POPC   C4B 3241   6.035   2.577   5.979
  245POPC   NC3 3242   0.198   4.511   3.956
  245POPC   PO4 3243   0.729   4.925   3.720
  245POPC   GL1 3244   0.720   4.973   4.179
  245POPC   GL2 3245   0.493   4.781   4.373
  245POPC   C1A 3246   0.678   5.180   4.610
  245POPC   D2A 3247   0.468   5.063   4.999
  245POPC   C3A 3248   0.640   4.984   5.411
  245POPC   C4A 3249   0.666   4.654   5.687
  245POPC   C1B 3250   0.125   4.873   4.678
  245POPC   C2B 3251   0.049   4.764   5.119
  245POPC   C3B 3252   0.163   4.813   5.553
  245POPC   C4B 3253   0.174   5.120   5.872
  246POPC   NC3 3254   4.312  10.153   3.926
  246POPC   PO4 3255   3.640   9.998   3.933
  246POPC   GL1 3256   3.933  10.046   4.252
  246POPC   GL2 3257   4.039  10.404   4.267
  246POPC   C1A 3258   3.898   9.891   4.643
  246POPC   D2A 3259   3.578   9.886   4.962
  246POPC   C3A 3260   3.772  10.020   5.346
  246POPC   C4A 3261   3.693   9.817   5.708
  246POPC   C1B 3262   4.212  10.298   4.655
  246POPC   C2B 3263   4.420  10.054   4.985
  246POPC   C3B 3264   4.296  10.067   5.408
  246POPC   C4B 3265   4.229  10.457   5.641
  247POPC   NC3 3266   6.235   9.581   4.007
  247POPC   PO4 3267   6.826   9.830   4.071
  247POPC   GL1 3268   6.522   9.814   4.429
  247POPC   GL2 3269   6.289   9.517   4.500
  247POPC   C1A 3270   6.473   9.746   4.896
  247POPC   D2A 3271   6.355   9.424   5.173
  247POPC   C3A 3272   6.235   9.581   5.528
  247POPC   C4A 3273   6.208   9.991   5.653
  247POPC   C1B 3274   6.603   9.287   4.734
  247POPC   C2B 3275   6.791   9.170   5.140
  247POPC   C3B 3276   6.688   9.297   5.582
  247POPC   C4B 3277   6.656   9.284   6.058
  248POPC   NC3 3278   0.813   7.019   4.118
  248POPC   PO4 3279   1.475   6.870   3.937
  248POPC   GL1 3280   1.328   7.015   4.317
  248POPC   GL2 3281   1.172   7.343   4.335
  248POPC   C1A 3282   1.195   7.002   4.740
  248POPC   D2A 3283   1.288   7.010   5.161
  248POPC   C3A 3284   0.921   6.946   5.376
  248POPC   C4A 3285   0.881   7.023   5.789
  248POPC   C1B 3286   1.270   7.513   4.770
  248POPC   C2B 3287   1.365   7.608   5.198
  248POPC   C3B 3288   1.224   7.356   5.546
  248POPC   C4B 3289   1.372   6.919   5.696
  249POPC   NC3 3290   4.110   7.204   3.959
  249POPC   PO4 3291   4.624   7.471   3.781
  249POPC   GL1 3292   4.504   7.458   4.243
  249POPC   GL2 3293   4.190   7.320   4.434
  249POPC   C1A 3294   4.582   7.427   4.724
  249POPC   D2A 3295   4.378   7.132   5.027
  249POPC   C3A 3296   4.313   7.263   5.436
  249POPC   C4A 3297   4.609   7.241   5.749
  249POPC   C1B 3298   3.959   7.060   4.741
  249POPC   C2B 3299   3.885   7.074   5.211
  249POPC   C3B 3300   4.094   6.816   5.548
  249POPC   C4B 3301   4.247   6.600   5.951
  250POPC   NC3 3302   4.793   8.307   3.988
  250POPC   PO4 3303   4.720   8.951   3.990
  250POPC   GL1 3304   4.927   8.716   4.307
  250POPC   GL2 3305   5.244   8.550   4.172
  250POPC   C1A 3306   4.930   8.752   4.756
  250POPC   D2A 3307   4.794   8.576   5.136
  250POPC   C3A 3308   4.799   8.804   5.544
  250POPC   C4A 3309   4.747   8.879   6.005
  250POPC   C1B 3310   5.361   8.524   4.602
  250POPC   C2B 3311   5.492   8.555   5.032
  250POPC   C3B 3312   5.213   8.527   5.413
  250POPC   C4B 3313   5.214   8.650   5.849
  251POPC   NC3 3314   7.764   5.133   4.320
  251POPC   PO4 3315   8.266   5.294   3.987
  251POPC   GL1 3316   8.275   5.195   4.380
  251POPC   GL2 3317   8.261   4.868   4.390
  251POPC   C1A 3318   8.190   5.325   4.790
  251POPC   D2A 3319   7.934   5.103   5.173
  251POPC   C3A 3320   7.889   5.297   5.599
  251POPC   C4A 3321   7.877   5.284   6.058
  251POPC   C1B 3322   8.109   4.832   4.774
  251POPC   C2B 3323   8.259   4.695   5.113
  251POPC   C3B 3324   7.999   4.624   5.438
  251POPC   C4B 3325   7.839   4.817   5.793
  252POPC   NC3 3326   7.593   9.054   3.737
  252POPC   PO4 3327   8.049   8.562   3.644
  252POPC   GL1 3328   7.914   8.758   4.091
  252POPC   GL2 3329   8.151   8.608   4.331
  252POPC   C1A 3330   7.801   8.810   4.598
  252POPC   D2A 3331   8.061   8.994   4.951
  252POPC   C3A 3332   7.999   8.882   5.406
  252POPC   C4A 3333   7.904   9.055   5.855
  252POPC   C1B 3334   8.045   8.328   4.640
  252POPC   C2B 3335   8.146   8.126   5.014
  252POPC   C3B 3336   8.099   8.320   5.406
  252POPC   C4B 3337   8.023   8.551   5.795
  253POPC   NC3 3338   8.787   1.324   3.963
  253POPC   PO4 3339   8.362   0.788   3.824
  253POPC   GL1 3340   8.409   1.085   4.194
  253POPC   GL2 3341   8.705   0.927   4.349
  253POPC   C1A 3342   8.409   1.395   4.585
  253POPC   D2A 3343   8.451   1.680   4.974
  253POPC   C3A 3344   8.397   1.478   5.419
  253POPC   C4A 3345   8.416   1.051   5.643
  253POPC   C1B 3346   8.885   1.238   4.662
  253POPC   C2B 3347   8.805   1.339   5.112
  253POPC   C3B 3348   8.870   1.432   5.560
  253POPC   C4B 3349   8.893   1.027   5.834
  254POPC   NC3 3350   1.348   5.641   3.827
  254POPC   PO4 3351   0.726   5.911   3.776
  254POPC   GL1 3352   0.965   5.990   4.135
  254POPC   GL2 3353   0.985   5.644   4.229
  254POPC   C1A 3354   1.063   6.004   4.593
  254POPC   D2A 3355   0.817   6.023   4.992
  254POPC   C3A 3356   0.976   6.010   5.395
  254POPC   C4A 3357   0.981   5.747   5.780
  254POPC   C1B 3358   1.097   5.470   4.637
  254POPC   C2B 3359   1.137   5.624   5.052
  254POPC   C3B 3360   1.351   5.698   5.427
  254POPC   C4B 3361   1.413   5.476   5.783
  255POPC   NC3 3362   7.234   9.576   3.951
  255POPC   PO4 3363   7.380   9.000   4.130
  255POPC   GL1 3364   7.243   9.298   4.379
  255POPC   GL2 3365   6.900   9.397   4.323
  255POPC   C1A 3366   7.141   9.228   4.762
  255POPC   D2A 3367   7.320   9.309   5.107
  255POPC   C3A 3368   7.188   9.087   5.455
  255POPC   C4A 3369   7.091   9.117   5.855
  255POPC   C1B 3370   6.939   9.682   4.680
  255POPC   C2B 3371   6.949   9.672   5.099
  255POPC   C3B 3372   7.120   9.598   5.488
  255POPC   C4B 3373   6.981   9.630   5.909
  256POPC   NC3 3374   0.413   3.754   4.124
  256POPC   PO4 3375   0.714   3.259   3.949
  256POPC   GL1 3376   0.423   3.252   4.262
  256POPC   GL2 3377   0.628   3.451   4.464
  256POPC   C1A 3378   0.211   3.276   4.647
  256POPC   D2A 3379   0.374   3.495   5.011
  256POPC   C3A 3380   0.216   3.346   5.406
  256POPC   C4A 3381   0.430   3.272   5.783
  256POPC   C1B 3382   0.809   3.682   4.758
  256POPC   C2B 3383   0.907   3.655   5.157
  256POPC   C3B 3384   0.702   3.601   5.491
  256POPC   C4B 3385   0.819   3.713   5.884
  257POPC   NC3 3386   7.225   0.047   4.009
  257POPC   PO4 3387   7.457   9.974   3.918
  257POPC   GL1 3388   7.288   9.862   4.350
  257POPC   GL2 3389   7.099  10.168   4.334
  257POPC   C1A 3390   7.431   9.714   4.785
  257POPC   D2A 3391   7.709   9.962   5.061
  257POPC   C3A 3392   7.599   9.844   5.484
  257POPC   C4A 3393   7.258  10.026   5.740
  257POPC   C1B 3394   7.341  10.195   4.732
  257POPC   C2B 3395   7.221  10.115   5.182
  257POPC   C3B 3396   6.978  10.385   5.472
  257POPC   C4B 3397   7.079  10.469   5.901
  258POPC   NC3 3398   0.240   3.800   3.632
  258POPC   PO4 3399   0.704   4.116   3.953
  258POPC   GL1 3400   0.489   4.231   4.336
  258POPC   GL2 3401   0.177   4.401   4.455
  258POPC   C1A 3402   0.376   3.998   4.708
  258POPC   D2A 3403   0.552   4.008   5.082
  258POPC   C3A 3404   0.282   3.875   5.367
  258POPC   C4A 3405   0.299   3.751   5.781
  258POPC   C1B 3406   0.476   4.518   4.814
  258POPC   C2B 3407   0.740   4.480   5.185
  258POPC   C3B 3408   0.718   4.156   5.546
  258POPC   C4B 3409   0.326   4.255   5.732
  259POPC   NC3 3410   9.036   7.297   3.619
  259POPC   PO4 3411   9.330   7.691   4.019
  259POPC   GL1 3412   9.249   7.321   4.197
  259POPC   GL2 3413   9.517   7.120   4.316
  259POPC   C1A 3414   9.163   7.402   4.630
  259POPC   D2A 3415   9.138   7.570   5.019
  259POPC   C3A 3416   9.416   7.428   5.339
  259POPC   C4A 3417   9.270   7.508   5.758
  259POPC   C1B 3418   9.308   6.935   4.715
  259POPC   C2B 3419   9.343   6.737   5.128
  259POPC   C3B 3420   9.297   6.934   5.525
  259POPC   C4B 3421   9.552   7.094   5.787
  260POPC   NC3 3422   2.766   2.558   3.863
  260POPC   PO4 3423   2.303   3.147   3.906
  260POPC   GL1 3424   2.425   2.855   4.255
  260POPC   GL2 3425   2.569   2.518   4.329
  260POPC   C1A 3426   2.493   2.800   4.721
  260POPC   D2A 3427   2.803   2.884   5.024
  260POPC   C3A 3428   2.643   2.809   5.450
  260POPC   C4A 3429   2.528   2.836   5.872
  260POPC   C1B 3430   2.941   2.525   4.598
  260POPC   C2B 3431   3.238   2.526   4.931
  260POPC   C3B 3432   3.099   2.581   5.336
  260POPC   C4B 3433   2.941   2.525   5.765
  261POPC   NC3 3434   8.896   4.321   3.920
  261POPC   PO4 3435   9.544   3.967   3.917
  261POPC   GL1 3436   9.248   3.990   4.238
  261POPC   GL2 3437   9.239   4.342   4.309
  261POPC   C1A 3438   9.395   3.988   4.667
  261POPC   D2A 3439   9.464   3.739   5.034
  261POPC   C3A 3440   9.378   3.966   5.401
  261POPC   C4A 3441   9.516   3.977   5.806
  261POPC   C1B 3442   9.366   4.504   4.705
  261POPC   C2B 3443   9.204   4.457   5.156
  261POPC   C3B 3444   9.342   4.495   5.590
  261POPC   C4B 3445   9.645   4.448   5.934
  262POPC   NC3 3446   5.045   3.003   3.898
  262POPC   PO4 3447   4.513   2.520   3.865
  262POPC   GL1 3448   4.769   2.595   4.258
  262POPC   GL2 3449   5.130   2.505   4.189
  262POPC   C1A 3450   4.897   2.876   4.623
  262POPC   D2A 3451   4.841   3.067   5.056
  262POPC   C3A 3452   4.814   2.983   5.529
  262POPC   C4A 3453   4.945   3.184   5.959
  262POPC   C1B 3454   5.263   2.524   4.622
  262POPC   C2B 3455   5.220   2.682   5.079
  262POPC   C3B 3456   5.285   2.762   5.540
  262POPC   C4B 3457   5.036   2.700   5.951
  263POPC   NC3 3458   0.268   6.105   3.906
  263POPC   PO4 3459   0.627   6.712   3.852
  263POPC   GL1 3460   0.592   6.392   4.170
  263POPC   GL2 3461   0.248   6.376   4.320
  263POPC   C1A 3462   0.604   6.223   4.593
  263POPC   D2A 3463   0.523   6.479   4.963
  263POPC   C3A 3464   0.563   6.292   5.357
  263POPC   C4A 3465   0.670   6.139   5.765
  263POPC   C1B 3466   0.087   6.321   4.734
  263POPC   C2B 3467  10.484   6.531   5.064
  263POPC   C3B 3468   0.203   6.639   5.381
  263POPC   C4B 3469   0.406   6.558   5.766
  264POPC   NC3 3470   0.618   1.427   3.782
  264POPC   PO4 3471   0.928   0.814   3.737
  264POPC   GL1 3472   0.719   1.039   4.121
  264POPC   GL2 3473   0.391   1.223   4.178
  264POPC   C1A 3474   0.662   1.179   4.597
  264POPC   D2A 3475   0.577   1.019   5.006
  264POPC   C3A 3476   0.673   1.134   5.412
  264POPC   C4A 3477   0.768   0.983   5.789
  264POPC   C1B 3478   0.160   1.106   4.556
  264POPC   C2B 3479   0.118   0.866   4.912
  264POPC   C3B 3480   0.049   0.874   5.368
  264POPC   C4B 3481   0.247   1.105   5.700
  265POPC   NC3 3482   6.475   7.997   3.803
  265POPC   PO4 3483   6.060   7.547   3.990
  265POPC   GL1 3484   6.316   7.645   4.315
  265POPC   GL2 3485   6.581   7.890   4.301
  265POPC   C1A 3486   6.232   7.582   4.737
  265POPC   D2A 3487   6.232   7.492   5.169
  265POPC   C3A 3488   6.410   7.771   5.472
  265POPC   C4A 3489   6.366   7.651   5.884
  265POPC   C1B 3490   6.262   8.066   4.586
  265POPC   C2B 3491   6.340   8.017   5.030
  265POPC   C3B 3492   6.715   8.145   5.267
  265POPC   C4B 3493   6.779   8.203   5.713
  266POPC   NC3 3494   8.044   1.165   3.796
  266POPC   PO4 3495   7.523   1.607   3.676
  266POPC   GL1 3496   7.751   1.333   4.146
  266POPC   GL2 3497   7.525   1.080   4.349
  266POPC   C1A 3498   7.997   1.106   4.489
  266POPC   D2A 3499   8.140   0.931   4.884
  266POPC   C3A 3500   7.865   0.947   5.254
  266POPC   C4A 3501   7.959   1.239   5.594
  266POPC   C1B 3502   7.590   1.047   4.817
  266POPC   C2B 3503   7.519   1.384   5.140
  266POPC   C3B 3504   7.526   1.466   5.551
  266POPC   C4B 3505   7.531   1.094   5.842
  267POPC   NC3 3506   0.690   5.375   3.845
  267POPC   PO4 3507   0.185   4.966   4.036
  267POPC   GL1 3508   0.334   5.316   4.246
  267POPC   GL2 3509   0.417   5.679   4.168
  267POPC   C1A 3510   0.192   5.420   4.652
  267POPC   D2A 3511   0.021   5.299   5.034
  267POPC   C3A 3512   0.261   5.315   5.406
  267POPC   C4A 3513   0.563   5.433   5.752
  267POPC   C1B 3514   0.618   5.702   4.593
  267POPC   C2B 3515   0.512   5.603   5.046
  267POPC   C3B 3516   0.363   5.827   5.447
  267POPC   C4B 3517   0.194   6.042   5.843
  268POPC   NC3 3518   9.182   6.074   4.189
  268POPC   PO4 3519   8.597   6.216   3.861
  268POPC   GL1 3520   8.668   6.426   4.212
  268POPC   GL2 3521   8.963   6.504   4.105
  268POPC   C1A 3522   8.522   6.344   4.633
  268POPC   D2A 3523   8.388   6.283   5.029
  268POPC   C3A 3524   8.616   6.312   5.377
  268POPC   C4A 3525   8.452   6.476   5.775
  268POPC   C1B 3526   8.943   6.616   4.582
  268POPC   C2B 3527   8.844   6.609   5.026
  268POPC   C3B 3528   8.834   6.754   5.485
  268POPC   C4B 3529   8.966   6.685   5.925
  269POPC   NC3 3530   5.589   9.836   3.898
  269POPC   PO4 3531   5.902   9.227   3.963
  269POPC   GL1 3532   5.821   9.608   4.288
  269POPC   GL2 3533   5.492   9.688   4.370
  269POPC   C1A 3534   5.899   9.835   4.691
  269POPC   D2A 3535   5.887   9.629   5.092
  269POPC   C3A 3536   5.750   9.827   5.453
  269POPC   C4A 3537   5.842   9.677   5.847
  269POPC   C1B 3538   5.450   9.549   4.773
  269POPC   C2B 3539   5.403   9.449   5.179
  269POPC   C3B 3540   5.636   9.344   5.514
  269POPC   C4B 3541   5.393   9.460   5.868
  270POPC   NC3 3542   4.335   2.954   3.930
  270POPC   PO4 3543   3.932   2.417   4.002
  270POPC   GL1 3544   4.229   2.430   4.272
  270POPC   GL2 3545   4.269   2.730   4.373
  270POPC   C1A 3546   4.279   2.283   4.658
  270POPC   D2A 3547   4.364   2.336   5.070
  270POPC   C3A 3548   4.043   2.237   5.272
  270POPC   C4A 3549   3.921   2.331   5.653
  270POPC   C1B 3550   4.419   2.770   4.781
  270POPC   C2B 3551   4.381   2.828   5.221
  270POPC   C3B 3552   4.153   2.804   5.611
  270POPC   C4B 3553   4.094   3.061   6.001
  271POPC   NC3 3554   3.463   2.170   4.009
  271POPC   PO4 3555   3.958   1.749   3.727
  271POPC   GL1 3556   3.690   1.736   4.211
  271POPC   GL2 3557   3.308   1.658   4.294
  271POPC   C1A 3558   3.531   1.844   4.706
  271POPC   D2A 3559   3.620   2.008   5.137
  271POPC   C3A 3560   3.475   1.887   5.528
  271POPC   C4A 3561   3.226   1.555   5.749
  271POPC   C1B 3562   3.033   1.894   4.656
  271POPC   C2B 3563   3.097   2.036   5.087
  271POPC   C3B 3564   3.027   2.092   5.526
  271POPC   C4B 3565   3.228   2.037   5.958
  272POPC   NC3 3566   7.805   3.325   3.990
  272POPC   PO4 3567   8.259   3.919   3.920
  272POPC   GL1 3568   8.195   3.576   4.229
  272POPC   GL2 3569   7.876   3.593   4.409
  272POPC   C1A 3570   8.237   3.306   4.604
  272POPC   D2A 3571   8.081   3.515   4.966
  272POPC   C3A 3572   8.087   3.588   5.407
  272POPC   C4A 3573   8.099   3.795   5.825
  272POPC   C1B 3574   7.754   3.153   4.595
  272POPC   C2B 3575   7.946   2.999   4.965
  272POPC   C3B 3576   7.821   3.124   5.382
  272POPC   C4B 3577   7.803   3.365   5.780
  273POPC   NC3 3578   2.196   1.045   3.869
  273POPC   PO4 3579   2.360   1.689   3.896
  273POPC   GL1 3580   2.145   1.458   4.267
  273POPC   GL2 3581   1.990   1.121   4.333
  273POPC   C1A 3582   2.071   1.422   4.724
  273POPC   D2A 3583   2.358   1.327   5.044
  273POPC   C3A 3584   2.191   1.427   5.400
  273POPC   C4A 3585   2.303   1.441   5.799
  273POPC   C1B 3586   1.798   0.978   4.732
  273POPC   C2B 3587   1.949   1.024   5.156
  273POPC   C3B 3588   1.855   1.039   5.591
  273POPC   C4B 3589   1.750   1.386   5.678
  274POPC   NC3 3590   7.205   7.776   3.997
  274POPC   PO4 3591   7.620   8.319   4.049
  274POPC   GL1 3592   7.263   8.169   4.322
  274POPC   GL2 3593   7.313   7.844   4.491
  274POPC   C1A 3594   7.022   8.230   4.708
  274POPC   D2A 3595   7.238   8.276   5.099
  274POPC   C3A 3596   7.191   8.013   5.430
  274POPC   C4A 3597   7.320   8.199   5.751
  274POPC   C1B 3598   7.188   7.792   4.957
  274POPC   C2B 3599   6.890   7.621   5.289
  274POPC   C3B 3600   6.856   7.708   5.742
  274POPC   C4B 3601   6.765   7.563   6.198
  275POPC   NC3 3602   4.214   2.142   3.749
  275POPC   PO4 3603   4.568   1.647   4.064
  275POPC   GL1 3604   4.464   1.781   4.436
  275POPC   GL2 3605   4.163   1.926   4.256
  275POPC   C1A 3606   4.526   1.886   4.865
  275POPC   D2A 3607   4.507   1.904   5.315
  275POPC   C3A 3608   4.423   2.227   5.602
  275POPC   C4A 3609   4.215   2.060   5.964
  275POPC   C1B 3610   4.029   1.822   4.687
  275POPC   C2B 3611   4.056   1.722   5.121
  275POPC   C3B 3612   3.994   1.824   5.558
  275POPC   C4B 3613   3.753   1.774   5.933
  276POPC   NC3 3614   2.420   9.177   4.190
  276POPC   PO4 3615   1.945   9.361   3.739
  276POPC   GL1 3616   1.909   9.257   4.220
  276POPC   GL2 3617   1.602   9.073   4.268
  276POPC   C1A 3618   2.084   9.333   4.702
  276POPC   D2A 3619   2.347   9.336   5.095
  276POPC   C3A 3620   2.149   9.578   5.436
  276POPC   C4A 3621   2.051   9.534   5.876
  276POPC   C1B 3622   1.584   9.261   4.634
  276POPC   C2B 3623   1.693   9.506   4.993
  276POPC   C3B 3624   1.636   9.449   5.401
  276POPC   C4B 3625   1.648   9.233   5.760
  277POPC   NC3 3626   5.002   1.491   4.170
  277POPC   PO4 3627   4.979   0.932   3.763
  277POPC   GL1 3628   4.765   0.918   4.206
  277POPC   GL2 3629   4.584   1.218   4.329
  277POPC   C1A 3630   4.792   0.950   4.687
  277POPC   D2A 3631   4.576   0.926   5.071
  277POPC   C3A 3632   4.766   0.892   5.467
  277POPC   C4A 3633   4.479   1.035   5.798
  277POPC   C1B 3634   4.784   1.446   4.745
  277POPC   C2B 3635   4.952   1.269   5.131
  277POPC   C3B 3636   4.847   1.379   5.560
  277POPC   C4B 3637   5.069   1.534   5.895
  278POPC   NC3 3638   0.843   0.495   4.068
  278POPC   PO4 3639   0.214   0.804   3.953
  278POPC   GL1 3640   0.396   0.683   4.338
  278POPC   GL2 3641   0.215   0.384   4.319
  278POPC   C1A 3642   0.529   0.434   4.720
  278POPC   D2A 3643   0.774   0.443   5.098
  278POPC   C3A 3644   0.544   0.648   5.382
  278POPC   C4A 3645   0.440   0.574   5.769
  278POPC   C1B 3646  10.481   0.424   4.710
  278POPC   C2B 3647   0.162   0.408   5.118
  278POPC   C3B 3648   0.221   0.191   5.489
  278POPC   C4B 3649   0.096   0.224   5.900
  279POPC   NC3 3650   0.437   2.264   3.928
  279POPC   PO4 3651   0.682   1.692   4.149
  279POPC   GL1 3652   0.389   1.755   4.420
  279POPC   GL2 3653   0.501   2.131   4.415
  279POPC   C1A 3654   0.353   1.527   4.819
  279POPC   D2A 3655   0.260   1.369   5.233
  279POPC   C3A 3656   0.476   1.555   5.599
  279POPC   C4A 3657   0.200   1.666   5.930
  279POPC   C1B 3658   0.520   2.034   4.820
  279POPC   C2B 3659   0.436   1.877   5.180
  279POPC   C3B 3660   0.224   1.984   5.501
  279POPC   C4B 3661   0.480   2.045   5.814
  280POPC   NC3 3662   9.851   4.340   3.916
  280POPC   PO4 3663   0.023   3.980   3.993
  280POPC   GL1 3664  10.266   4.170   4.247
  280POPC   GL2 3665   9.996   3.989   4.307
  280POPC   C1A 3666  10.312   4.165   4.696
  280POPC   D2A 3667   0.081   4.246   5.044
  280POPC   C3A 3668  10.388   4.208   5.434
  280POPC   C4A 3669  10.382   4.475   5.802
  280POPC   C1B 3670   9.820   4.256   4.624
  280POPC   C2B 3671   9.636   4.243   5.038
  280POPC   C3B 3672   9.782   4.283   5.442
  280POPC   C4B 3673  10.009   4.136   5.761
  281POPC   NC3 3674   2.551   6.524   3.933
  281POPC   PO4 3675   2.986   6.896   4.090
  281POPC   GL1 3676   2.813   6.569   4.377
  281POPC   GL2 3677   2.632   6.226   4.354
  281POPC   C1A 3678   2.887   6.526   4.813
  281POPC   D2A 3679   2.834   6.375   5.218
  281POPC   C3A 3680   3.040   6.479   5.598
  281POPC   C4A 3681   2.942   6.687   5.983
  281POPC   C1B 3682   2.398   6.292   4.775
  281POPC   C2B 3683   2.340   6.271   5.234
  281POPC   C3B 3684   2.561   6.238   5.621
  281POPC   C4B 3685   2.621   5.885   5.899
  282POPC   NC3 3686   2.414  10.290   3.996
  282POPC   PO4 3687   2.267   9.665   4.174
  282POPC   GL1 3688   2.610   9.964   4.347
  282POPC   GL2 3689   2.823  10.295   4.293
  282POPC   C1A 3690   2.536  10.109   4.748
  282POPC   D2A 3691   2.426   9.900   5.110
  282POPC   C3A 3692   2.622  10.078   5.490
  282POPC   C4A 3693   2.451  10.175   5.899
  282POPC   C1B 3694   2.825   0.009   4.709
  282POPC   C2B 3695   2.715  10.449   5.118
  282POPC   C3B 3696   2.948  10.487   5.477
  282POPC   C4B 3697   2.923  10.378   5.914
  283POPC   NC3 3698   5.347   0.686   4.010
  283POPC   PO4 3699   5.973   0.934   3.874
  283POPC   GL1 3700   5.864   0.563   4.249
  283POPC   GL2 3701   5.674   0.212   4.286
  283POPC   C1A 3702   5.748   0.449   4.733
  283POPC   D2A 3703   5.562   0.673   5.104
  283POPC   C3A 3704   5.759   0.742   5.491
  283POPC   C4A 3705   5.854   0.473   5.875
  283POPC   C1B 3706   5.373   0.082   4.630
  283POPC   C2B 3707   5.415   0.166   5.060
  283POPC   C3B 3708   5.570   0.269   5.479
  283POPC   C4B 3709   5.387   0.255   5.885
  284POPC   NC3 3710   4.588   1.216   3.809
  284POPC   PO4 3711   3.944   0.868   3.999
  284POPC   GL1 3712   4.040   1.047   4.371
  284POPC   GL2 3713   4.106   1.410   4.393
  284POPC   C1A 3714   3.850   0.946   4.762
  284POPC   D2A 3715   3.971   1.197   5.097
  284POPC   C3A 3716   4.067   1.055   5.481
  284POPC   C4A 3717   3.944   0.855   5.840
  284POPC   C1B 3718   4.315   1.272   4.749
  284POPC   C2B 3719   4.466   1.417   5.146
  284POPC   C3B 3720   4.348   1.470   5.548
  284POPC   C4B 3721   4.222   1.545   5.960
  285POPC   NC3 3722   3.234   5.207   4.032
  285POPC   PO4 3723   2.683   5.380   3.793
  285POPC   GL1 3724   2.392   5.339   4.155
  285POPC   GL2 3725   2.301   5.685   4.263
  285POPC   C1A 3726   2.401   5.256   4.605
  285POPC   D2A 3727   2.460   5.427   5.026
  285POPC   C3A 3728   2.731   5.436   5.382
  285POPC   C4A 3729   2.765   5.398   5.814
  285POPC   C1B 3730   2.517   5.789   4.645
  285POPC   C2B 3731   2.678   5.904   5.081
  285POPC   C3B 3732   2.932   5.924   5.477
  285POPC   C4B 3733   3.202   5.694   5.758
  286POPC   NC3 3734   4.800   9.390   3.921
  286POPC   PO4 3735   5.134   9.859   4.062
  286POPC   GL1 3736   4.813   9.684   4.333
  286POPC   GL2 3737   4.881   9.313   4.416
  286POPC   C1A 3738   4.527   9.628   4.694
  286POPC   D2A 3739   4.602   9.568   5.144
  286POPC   C3A 3740   4.628   9.712   5.591
  286POPC   C4A 3741   4.596   9.690   6.064
  286POPC   C1B 3742   4.990   9.278   4.851
  286POPC   C2B 3743   5.179   8.983   5.157
  286POPC   C3B 3744   5.189   9.101   5.585
  286POPC   C4B 3745   4.895   9.342   5.833
  287POPC   NC3 3746   7.887   5.207   3.747
  287POPC   PO4 3747   7.858   5.814   3.895
  287POPC   GL1 3748   7.964   5.616   4.284
  287POPC   GL2 3749   8.267   5.703   4.420
  287POPC   C1A 3750   7.855   5.681   4.735
  287POPC   D2A 3751   8.026   5.601   5.189
  287POPC   C3A 3752   7.722   5.777   5.506
  287POPC   C4A 3753   7.507   5.588   5.878
  287POPC   C1B 3754   8.364   5.824   4.830
  287POPC   C2B 3755   8.543   5.717   5.222
  287POPC   C3B 3756   8.364   5.532   5.585
  287POPC   C4B 3757   8.073   5.716   5.862
  288POPC   NC3 3758   9.710   9.171   3.754
  288POPC   PO4 3759  10.414   9.141   3.917
  288POPC   GL1 3760  10.115   9.237   4.229
  288POPC   GL2 3761  10.078   9.617   4.266
  288POPC   C1A 3762  10.154   9.038   4.650
  288POPC   D2A 3763  10.170   9.207   5.062
  288POPC   C3A 3764  10.251   8.982   5.433
  288POPC   C4A 3765  10.189   9.101   5.864
  288POPC   C1B 3766  10.312   9.557   4.672
  288POPC   C2B 3767  10.315   9.706   5.110
  288POPC   C3B 3768  10.250   9.501   5.495
  288POPC   C4B 3769   9.964   9.577   5.823
  289POPC   NC3 3770   9.236   9.126   4.147
  289POPC   PO4 3771   9.494   9.586   3.731
  289POPC   GL1 3772   9.599   9.479   4.211
  289POPC   GL2 3773   9.525   9.755   4.437
  289POPC   C1A 3774   9.820   9.412   4.681
  289POPC   D2A 3775   9.795   9.518   5.179
  289POPC   C3A 3776   9.778   9.190   5.559
  289POPC   C4A 3777   9.740   9.188   6.090
  289POPC   C1B 3778   9.339   9.455   4.770
  289POPC   C2B 3779   9.089   9.199   5.053
  289POPC   C3B 3780   9.184   9.375   5.460
  289POPC   C4B 3781   9.427   9.456   5.805
  290POPC   NC3 3782   8.811   9.467   3.881
  290POPC   PO4 3783   8.458   8.951   4.125
  290POPC   GL1 3784   8.775   9.259   4.334
  290POPC   GL2 3785   8.535   9.486   4.372
  290POPC   C1A 3786   8.854   9.567   4.732
  290POPC   D2A 3787   8.774   9.589   5.179
  290POPC   C3A 3788   8.947   9.820   5.493
  290POPC   C4A 3789   9.022   9.724   5.926
  290POPC   C1B 3790   8.532   9.146   4.743
  290POPC   C2B 3791   8.578   8.966   5.133
  290POPC   C3B 3792   8.794   9.059   5.479
  290POPC   C4B 3793   8.708   9.373   5.746
  291POPC   NC3 3794   2.492   4.963   3.812
  291POPC   PO4 3795   3.118   4.769   3.972
  291POPC   GL1 3796   2.808   4.991   4.212
  291POPC   GL2 3797   2.531   4.791   4.298
  291POPC   C1A 3798   2.887   5.129   4.628
  291POPC   D2A 3799   2.811   5.035   5.061
  291POPC   C3A 3800   3.092   4.875   5.389
  291POPC   C4A 3801   3.112   4.973   5.837
  291POPC   C1B 3802   2.333   4.733   4.705
  291POPC   C2B 3803   2.338   4.909   5.137
  291POPC   C3B 3804   2.613   4.931   5.551
  291POPC   C4B 3805   2.522   4.996   5.997
  292POPC   NC3 3806  10.132   8.725   3.956
  292POPC   PO4 3807   9.603   8.594   3.709
  292POPC   GL1 3808   9.814   8.431   4.193
  292POPC   GL2 3809  10.178   8.428   4.332
  292POPC   C1A 3810   9.863   8.604   4.666
  292POPC   D2A 3811  10.062   8.672   5.038
  292POPC   C3A 3812   9.843   8.685   5.428
  292POPC   C4A 3813   9.743   8.749   5.839
  292POPC   C1B 3814  10.367   8.283   4.648
  292POPC   C2B 3815  10.480   8.360   5.024
  292POPC   C3B 3816  10.285   8.418   5.414
  292POPC   C4B 3817  10.224   8.596   5.778
  293POPC   NC3 3818   8.259   9.324   3.985
  293POPC   PO4 3819   7.711   9.498   3.747
  293POPC   GL1 3820   7.784   9.296   4.212
  293POPC   GL2 3821   8.094   9.159   4.417
  293POPC   C1A 3822   7.675   9.291   4.687
  293POPC   D2A 3823   7.813   9.466   5.102
  293POPC   C3A 3824   7.670   9.286   5.467
  293POPC   C4A 3825   7.476   9.434   5.825
  293POPC   C1B 3826   8.153   9.489   4.709
  293POPC   C2B 3827   8.315   9.425   5.114
  293POPC   C3B 3828   8.232   9.341   5.515
  293POPC   C4B 3829   7.975   9.571   5.755
  294POPC   NC3 3830   0.989   8.568   3.815
  294POPC   PO4 3831   1.473   8.218   3.956
  294POPC   GL1 3832   1.264   8.390   4.273
  294POPC   GL2 3833   1.217   8.739   4.230
  294POPC   C1A 3834   1.066   8.338   4.660
  294POPC   D2A 3835   0.991   8.552   5.063
  294POPC   C3A 3836   0.926   8.335   5.461
  294POPC   C4A 3837   0.975   8.607   5.796
  294POPC   C1B 3838   1.352   8.785   4.644
  294POPC   C2B 3839   1.505   8.596   5.000
  294POPC   C3B 3840   1.429   8.554   5.426
  294POPC   C4B 3841   1.464   8.765   5.805
  295POPC   NC3 3842   1.443   0.968   4.116
  295POPC   PO4 3843   1.117   1.441   3.731
  295POPC   GL1 3844   1.124   1.415   4.226
  295POPC   GL2 3845   1.118   1.121   4.435
  295POPC   C1A 3846   1.039   1.542   4.691
  295POPC   D2A 3847   0.800   1.514   5.086
  295POPC   C3A 3848   1.061   1.448   5.467
  295POPC   C4A 3849   1.011   1.445   5.912
  295POPC   C1B 3850   1.325   1.131   4.827
  295POPC   C2B 3851   1.475   1.239   5.243
  295POPC   C3B 3852   1.337   1.050   5.621
  295POPC   C4B 3853   1.212   0.834   5.956
  296POPC   NC3 3854   7.894   1.769   3.898
  296POPC   PO4 3855   7.354   1.614   4.178
  296POPC   GL1 3856   7.674   1.788   4.365
  296POPC   GL2 3857   7.652   2.126   4.236
  296POPC   C1A 3858   7.951   1.621   4.672
  296POPC   D2A 3859   8.020   1.418   5.070
  296POPC   C3A 3860   7.946   1.707   5.424
  296POPC   C4A 3861   7.749   1.907   5.781
  296POPC   C1B 3862   7.863   2.157   4.652
  296POPC   C2B 3863   8.043   2.000   5.018
  296POPC   C3B 3864   7.897   2.197   5.393
  296POPC   C4B 3865   7.986   2.356   5.775
  297POPC   NC3 3866   2.532   2.052   3.663
  297POPC   PO4 3867   3.038   1.974   4.022
  297POPC   GL1 3868   2.694   2.016   4.247
  297POPC   GL2 3869   2.593   1.698   4.350
  297POPC   C1A 3870   2.575   2.160   4.681
  297POPC   D2A 3871   2.706   2.382   5.054
  297POPC   C3A 3872   2.574   2.306   5.477
  297POPC   C4A 3873   2.526   2.320   5.945
  297POPC   C1B 3874   2.580   1.658   4.744
  297POPC   C2B 3875   2.607   1.845   5.122
  297POPC   C3B 3876   2.749   1.671   5.479
  297POPC   C4B 3877   2.748   1.827   5.862
  298POPC   NC3 3878  10.415   0.130   4.007
  298POPC   PO4 3879  10.264   9.950   3.919
  298POPC   GL1 3880  10.320  10.125   4.297
  298POPC   GL2 3881   9.960  10.180   4.281
  298POPC   C1A 3882  10.446  10.055   4.743
  298POPC   D2A 3883   0.111  10.168   5.153
  298POPC   C3A 3884  10.344  10.263   5.494
  298POPC   C4A 3885  10.355   9.916   5.788
  298POPC   C1B 3886   9.947   9.949   4.657
  298POPC   C2B 3887   9.983  10.108   5.062
  298POPC   C3B 3888   9.941   9.942   5.464
  298POPC   C4B 3889   9.899  10.179   5.834
  299POPC   NC3 3890   1.011   9.526   3.798
  299POPC   PO4 3891   0.797   8.956   3.948
  299POPC   GL1 3892   0.960   9.187   4.292
  299POPC   GL2 3893   1.210   9.427   4.282
  299POPC   C1A 3894   1.082   9.212   4.727
  299POPC   D2A 3895   1.344   9.113   5.071
  299POPC   C3A 3896   1.136   9.281   5.409
  299POPC   C4A 3897   1.043   9.100   5.789
  299POPC   C1B 3898   1.325   9.694   4.651
  299POPC   C2B 3899   1.314   9.866   5.079
  299POPC   C3B 3900   1.257   9.785   5.479
  299POPC   C4B 3901   1.265   9.547   5.833
  300POPC   NC3 3902   7.989   0.490   3.885
  300POPC   PO4 3903   8.544   0.048   3.926
  300POPC   GL1 3904   8.422   0.337   4.265
  300POPC   GL2 3905   8.214   0.628   4.329
  300POPC   C1A 3906   8.276   0.237   4.680
  300POPC   D2A 3907   8.176   0.440   5.055
  300POPC   C3A 3908   8.293   0.232   5.429
  300POPC   C4A 3909   8.079   0.094   5.779
  300POPC   C1B 3910   7.858   0.585   4.627
  300POPC   C2B 3911   7.672   0.470   5.050
  300POPC   C3B 3912   7.824   0.421   5.451
  300POPC   C4B 3913   7.910   0.758   5.738
  301POPC   NC3 3914   4.064   8.790   3.808
  301POPC   PO4 3915   4.427   8.259   3.687
  301POPC   GL1 3916   4.336   8.437   4.136
  301POPC   GL2 3917   4.085   8.629   4.281
  301POPC   C1A 3918   4.480   8.548   4.584
  301POPC   D2A 3919   4.320   8.703   4.981
  301POPC   C3A 3920   4.377   8.544   5.403
  301POPC   C4A 3921   4.319   8.784   5.718
  301POPC   C1B 3922   3.948   8.823   4.651
  301POPC   C2B 3923   3.794   8.591   5.004
  301POPC   C3B 3924   3.888   8.692   5.426
  301POPC   C4B 3925   3.893   8.474   5.827
  302POPC   NC3 3926  10.071   3.642   3.956
  302POPC   PO4 3927   0.162   3.393   3.826
  302POPC   GL1 3928  10.467   3.543   4.272
  302POPC   GL2 3929  10.129   3.413   4.411
  302POPC   C1A 3930  10.438   3.685   4.736
  302POPC   D2A 3931  10.282   3.505   5.136
  302POPC   C3A 3932  10.347   3.682   5.551
  302POPC   C4A 3933  10.451   3.387   5.923
  302POPC   C1B 3934   9.914   3.710   4.723
  302POPC   C2B 3935  10.007   3.927   5.112
  302POPC   C3B 3936   9.835   3.717   5.467
  302POPC   C4B 3937  10.005   3.298   5.596
  303POPC   NC3 3938   0.876   6.349   3.721
  303POPC   PO4 3939   1.454   6.109   3.910
  303POPC   GL1 3940   1.337   6.343   4.259
  303POPC   GL2 3941   1.083   6.565   4.169
  303POPC   C1A 3942   1.470   6.341   4.678
  303POPC   D2A 3943   1.333   6.107   5.022
  303POPC   C3A 3944   1.410   6.275   5.401
  303POPC   C4A 3945   1.386   6.069   5.779
  303POPC   C1B 3946   0.994   6.535   4.649
  303POPC   C2B 3947   1.014   6.497   5.137
  303POPC   C3B 3948   0.986   6.508   5.629
  303POPC   C4B 3949   0.804   6.614   6.075
  304POPC   NC3 3950   9.989   5.941   4.057
  304POPC   PO4 3951   0.050   5.656   3.783
  304POPC   GL1 3952  10.375   5.541   4.250
  304POPC   GL2 3953  10.052   5.495   4.288
  304POPC   C1A 3954  10.247   5.692   4.712
  304POPC   D2A 3955   0.031   5.837   5.004
  304POPC   C3A 3956  10.368   5.646   5.357
  304POPC   C4A 3957  10.497   5.594   5.740
  304POPC   C1B 3958   9.788   5.448   4.674
  304POPC   C2B 3959   9.923   5.480   5.094
  304POPC   C3B 3960   9.845   5.573   5.507
  304POPC   C4B 3961  10.050   5.870   5.679
  305POPC   NC3 3962   8.393   4.810   3.923
  305POPC   PO4 3963   9.090   4.727   4.008
  305POPC   GL1 3964   8.797   4.672   4.324
  305POPC   GL2 3965   8.758   5.037   4.323
  305POPC   C1A 3966   8.882   4.603   4.767
  305POPC   D2A 3967   8.761   4.786   5.171
  305POPC   C3A 3968   8.774   4.807   5.598
  305POPC   C4A 3969   8.921   4.520   5.868
  305POPC   C1B 3970   8.582   5.001   4.751
  305POPC   C2B 3971   8.436   5.172   5.183
  305POPC   C3B 3972   8.313   5.010   5.577
  305POPC   C4B 3973   8.365   5.171   5.990
  306POPC   NC3 3974   1.002   2.958   3.737
  306POPC   PO4 3975   0.889   2.337   4.113
  306POPC   GL1 3976   0.967   2.496   4.448
  306POPC   GL2 3977   1.285   2.390   4.492
  306POPC   C1A 3978   0.758   2.494   4.785
  306POPC   D2A 3979   0.860   2.722   5.096
  306POPC   C3A 3980   1.080   2.584   5.439
  306POPC   C4A 3981   0.806   2.374   5.628
  306POPC   C1B 3982   1.273   2.449   4.936
  306POPC   C2B 3983   1.357   2.858   5.104
  306POPC   C3B 3984   1.381   3.007   5.497
  306POPC   C4B 3985   1.303   2.946   5.930
  307POPC   NC3 3986   8.019   8.162   3.888
  307POPC   PO4 3987   7.647   7.515   3.889
  307POPC   GL1 3988   7.980   7.719   4.193
  307POPC   GL2 3989   7.816   7.978   4.354
  307POPC   C1A 3990   8.113   7.728   4.671
  307POPC   D2A 3991   8.034   7.582   5.086
  307POPC   C3A 3992   8.132   7.813   5.437
  307POPC   C4A 3993   8.266   7.831   5.856
  307POPC   C1B 3994   7.686   7.979   4.793
  307POPC   C2B 3995   7.657   7.962   5.203
  307POPC   C3B 3996   7.642   7.788   5.577
  307POPC   C4B 3997   7.825   8.091   5.758
  308POPC   NC3 3998   4.356   7.852   3.868
  308POPC   PO4 3999   3.858   8.395   3.878
  308POPC   GL1 4000   3.908   8.139   4.238
  308POPC   GL2 4001   4.074   7.803   4.274
  308POPC   C1A 4002   4.024   8.273   4.653
  308POPC   D2A 4003   4.194   8.226   5.051
  308POPC   C3A 4004   4.058   8.158   5.466
  308POPC   C4A 4005   4.162   8.065   5.944
  308POPC   C1B 4006   4.218   7.792   4.724
  308POPC   C2B 4007   4.261   7.727   5.153
  308POPC   C3B 4008   4.326   7.741   5.581
  308POPC   C4B 4009   3.959   7.510   5.755
  309POPC   NC3 4010   0.825  10.231   3.892
  309POPC   PO4 4011   1.297   9.821   3.987
  309POPC   GL1 4012   1.033   9.990   4.298
  309POPC   GL2 4013   1.018  10.389   4.342
  309POPC   C1A 4014   0.992  10.062   4.727
  309POPC   D2A 4015   0.835  10.138   5.104
  309POPC   C3A 4016   0.761   9.843   5.413
  309POPC   C4A 4017   0.886   9.870   5.810
  309POPC   C1B 4018   0.931   0.070   4.774
  309POPC   C2B 4019   1.131   0.059   5.199
  309POPC   C3B 4020   1.076  10.270   5.556
  309POPC   C4B 4021   1.347  10.108   5.901
  310POPC   NC3 4022   3.398   8.809   3.878
  310POPC   PO4 4023   3.235   8.285   3.602
  310POPC   GL1 4024   3.424   8.379   4.138
  310POPC   GL2 4025   3.582   8.702   4.320
  310POPC   C1A 4026   3.512   8.282   4.584
  310POPC   D2A 4027   3.338   8.269   5.015
  310POPC   C3A 4028   3.548   8.326   5.383
  310POPC   C4A 4029   3.372   8.398   5.771
  310POPC   C1B 4030   3.371   8.734   4.731
  310POPC   C2B 4031   3.309   8.787   5.146
  310POPC   C3B 4032   3.328   9.022   5.468
  310POPC   C4B 4033   3.563   8.867   5.798
  311POPC   NC3 4034   8.629   2.912   3.972
  311POPC   PO4 4035   9.023   2.462   3.805
  311POPC   GL1 4036   8.858   2.346   4.206
  311POPC   GL2 4037   8.541   2.515   4.290
  311POPC   C1A 4038   8.886   2.366   4.663
  311POPC   D2A 4039   9.077   2.542   5.046
  311POPC   C3A 4040   8.923   2.463   5.471
  311POPC   C4A 4041   8.815   2.506   5.930
  311POPC   C1B 4042   8.598   2.783   4.666
  311POPC   C2B 4043   8.566   2.670   5.116
  311POPC   C3B 4044   8.609   2.847   5.531
  311POPC   C4B 4045   8.396   2.888   5.893
  312POPC   NC3 4046   8.855   1.972   3.716
  312POPC   PO4 4047   8.315   1.561   3.909
  312POPC   GL1 4048   8.331   1.822   4.288
  312POPC   GL2 4049   8.704   1.866   4.329
  312POPC   C1A 4050   8.398   2.122   4.652
  312POPC   D2A 4051   8.604   2.163   5.048
  312POPC   C3A 4052   8.392   2.010   5.402
  312POPC   C4A 4053   8.452   2.351   5.638
  312POPC   C1B 4054   8.934   1.844   4.737
  312POPC   C2B 4055   8.938   1.814   5.200
  312POPC   C3B 4056   8.860   1.960   5.600
  312POPC   C4B 4057   8.984   1.754   5.962
  313POPC   NC3 4058   7.910   4.170   4.095
  313POPC   PO4 4059   8.479   4.395   3.723
  313POPC   GL1 4060   8.374   4.381   4.177
  313POPC   GL2 4061   8.576   4.154   4.277
  313POPC   C1A 4062   8.418   4.446   4.655
  313POPC   D2A 4063   8.595   4.293   5.052
  313POPC   C3A 4064   8.476   4.420   5.471
  313POPC   C4A 4065   8.431   4.180   5.808
  313POPC   C1B 4066   8.886   4.114   4.610
  313POPC   C2B 4067   9.006   3.998   5.028
  313POPC   C3B 4068   8.917   4.175   5.447
  313POPC   C4B 4069   8.991   4.016   5.809
  314POPC   NC3 4070   3.567   8.030   3.808
  314POPC   PO4 4071   2.975   8.180   4.087
  314POPC   GL1 4072   3.141   7.835   4.257
  314POPC   GL2 4073   3.481   7.833   4.256
  314POPC   C1A 4074   3.244   7.870   4.712
  314POPC   D2A 4075   3.295   7.748   5.133
  314POPC   C3A 4076   3.262   7.937   5.533
  314POPC   C4A 4077   2.968   8.076   5.812
  314POPC   C1B 4078   3.729   7.835   4.619
  314POPC   C2B 4079   3.760   7.967   5.015
  314POPC   C3B 4080   3.733   7.775   5.395
  314POPC   C4B 4081   3.699   7.995   5.784
  315POPC   NC3 4082   2.818   8.015   3.695
  315POPC   PO4 4083   2.313   8.443   3.885
  315POPC   GL1 4084   2.490   8.249   4.263
  315POPC   GL2 4085   2.566   7.886   4.189
  315POPC   C1A 4086   2.454   8.177   4.706
  315POPC   D2A 4087   2.449   8.307   5.125
  315POPC   C3A 4088   2.449   8.112   5.460
  315POPC   C4A 4089   2.215   8.036   5.788
  315POPC   C1B 4090   2.764   7.790   4.596
  315POPC   C2B 4091   2.862   8.005   5.007
  315POPC   C3B 4092   2.815   7.793   5.374
  315POPC   C4B 4093   2.615   7.724   5.754
  316POPC   NC3 4094   0.287   2.948   3.884
  316POPC   PO4 4095   0.704   2.568   3.668
  316POPC   GL1 4096   0.693   2.786   4.122
  316POPC   GL2 4097   0.401   2.632   4.303
  316POPC   C1A 4098   0.680   2.941   4.566
  316POPC   D2A 4099   0.416   2.932   4.951
  316POPC   C3A 4100   0.472   2.899   5.392
  316POPC   C4A 4101   0.629   2.803   5.801
  316POPC   C1B 4102   0.248   2.493   4.720
  316POPC   C2B 4103   0.401   2.421   5.167
  316POPC   C3B 4104   0.299   2.472   5.604
  316POPC   C4B 4105   0.175   2.513   6.031
  317POPC   NC3 4106   2.025   2.730   3.909
  317POPC   PO4 4107   1.526   2.215   4.064
  317POPC   GL1 4108   1.707   2.560   4.277
  317POPC   GL2 4109   2.041   2.548   4.372
  317POPC   C1A 4110   1.671   2.679   4.715
  317POPC   D2A 4111   1.770   2.510   5.143
  317POPC   C3A 4112   1.603   2.536   5.560
  317POPC   C4A 4113   1.771   2.875   5.790
  317POPC   C1B 4114   2.138   2.433   4.771
  317POPC   C2B 4115   2.263   2.642   5.154
  317POPC   C3B 4116   2.151   2.587   5.573
  317POPC   C4B 4117   2.054   2.487   5.986
  318POPC   NC3 4118  10.225   1.891   3.817
  318POPC   PO4 4119   0.035   2.525   3.962
  318POPC   GL1 4120   0.021   2.059   4.214
  318POPC   GL2 4121  10.163   1.856   4.361
  318POPC   C1A 4122   0.019   2.016   4.693
  318POPC   D2A 4123  10.446   1.764   5.097
  318POPC   C3A 4124  10.225   1.931   5.468
  318POPC   C4A 4125  10.309   2.329   5.679
  318POPC   C1B 4126  10.014   1.853   4.821
  318POPC   C2B 4127   9.833   2.096   5.178
  318POPC   C3B 4128   9.769   2.084   5.647
  318POPC   C4B 4129   9.978   1.908   5.986
  319POPC   NC3 4130   7.802   6.281   3.874
  319POPC   PO4 4131   8.136   6.773   3.595
  319POPC   GL1 4132   8.150   6.782   4.141
  319POPC   GL2 4133   8.160   6.443   4.234
  319POPC   C1A 4134   7.978   6.800   4.586
  319POPC   D2A 4135   7.922   6.552   4.955
  319POPC   C3A 4136   8.107   6.583   5.373
  319POPC   C4A 4137   7.947   6.767   5.767
  319POPC   C1B 4138   8.037   6.169   4.597
  319POPC   C2B 4139   7.938   6.065   5.048
  319POPC   C3B 4140   8.166   6.038   5.432
  319POPC   C4B 4141   7.982   6.236   5.765
  320POPC   NC3 4142   5.022  10.254   3.850
  320POPC   PO4 4143   4.433   0.107   3.912
  320POPC   GL1 4144   4.587  10.377   4.305
  320POPC   GL2 4145   4.949  10.330   4.359
  320POPC   C1A 4146   4.665  10.483   4.761
  320POPC   D2A 4147   4.953  10.444   5.096
  320POPC   C3A 4148   4.810  10.172   5.431
  320POPC   C4A 4149   4.610  10.170   5.840
  320POPC   C1B 4150   4.873  10.026   4.708
  320POPC   C2B 4151   5.061   9.835   5.072
  320POPC   C3B 4152   5.208   9.804   5.505
  320POPC   C4B 4153   5.042   9.908   5.899
  321POPC   NC3 4154   7.676   2.737   3.723
  321POPC   PO4 4155   8.206   3.074   3.884
  321POPC   GL1 4156   8.112   2.904   4.278
  321POPC   GL2 4157   7.838   2.659   4.221
  321POPC   C1A 4158   8.140   2.608   4.630
  321POPC   D2A 4159   8.045   2.502   5.030
  321POPC   C3A 4160   8.127   2.712   5.421
  321POPC   C4A 4161   7.885   2.846   5.801
  321POPC   C1B 4162   7.636   2.629   4.644
  321POPC   C2B 4163   7.521   2.427   5.032
  321POPC   C3B 4164   7.620   2.613   5.425
  321POPC   C4B 4165   7.504   2.446   5.804
  322POPC   NC3 4166   3.758   2.841   3.948
  322POPC   PO4 4167   3.219   2.589   4.007
  322POPC   GL1 4168   3.444   2.460   4.412
  322POPC   GL2 4169   3.747   2.681   4.418
  322POPC   C1A 4170   3.745   2.318   4.748
  322POPC   D2A 4171   3.924   2.643   5.006
  322POPC   C3A 4172   3.653   2.706   5.380
  322POPC   C4A 4173   3.430   2.390   5.655
  322POPC   C1B 4174   3.406   2.919   4.621
  322POPC   C2B 4175   3.280   3.063   5.027
  322POPC   C3B 4176   3.068   3.088   5.421
  322POPC   C4B 4177   3.272   2.891   5.729
  323POPC   NC3 4178   1.191   3.731   3.938
  323POPC   PO4 4179   1.416   4.439   3.902
  323POPC   GL1 4180   1.149   4.227   4.222
  323POPC   GL2 4181   0.942   3.924   4.341
  323POPC   C1A 4182   1.330   4.352   4.603
  323POPC   D2A 4183   1.216   4.531   4.984
  323POPC   C3A 4184   1.181   4.316   5.372
  323POPC   C4A 4185   1.118   4.423   5.790
  323POPC   C1B 4186   0.873   4.185   4.709
  323POPC   C2B 4187   1.201   4.010   4.966
  323POPC   C3B 4188   1.463   3.886   5.320
  323POPC   C4B 4189   1.266   3.930   5.739
  324POPC   NC3 4190   9.160   8.517   3.851
  324POPC   PO4 4191   9.681   8.930   4.136
  324POPC   GL1 4192   9.475   8.792   4.418
  324POPC   GL2 4193   9.345   8.551   4.311
  324POPC   C1A 4194   9.445   8.932   4.776
  324POPC   D2A 4195   9.673   9.028   5.075
  324POPC   C3A 4196   9.383   8.897   5.355
  324POPC   C4A 4197   9.298   8.955   5.733
  324POPC   C1B 4198   9.398   8.378   4.687
  324POPC   C2B 4199   9.546   8.499   5.056
  324POPC   C3B 4200   9.423   8.391   5.450
  324POPC   C4B 4201   9.336   8.445   5.845
  325POPC   NC3 4202   5.652   1.306   3.838
  325POPC   PO4 4203   5.215   1.084   4.219
  325POPC   GL1 4204   5.634   1.004   4.320
  325POPC   GL2 4205   5.916   1.239   4.291
  325POPC   C1A 4206   5.799   0.971   4.743
  325POPC   D2A 4207   5.990   1.287   5.031
  325POPC   C3A 4208   5.833   1.266   5.465
  325POPC   C4A 4209   5.923   1.002   5.883
  325POPC   C1B 4210   5.604   1.426   4.612
  325POPC   C2B 4211   5.458   1.312   5.044
  325POPC   C3B 4212   5.329   1.119   5.464
  325POPC   C4B 4213   5.505   1.295   5.847
  326POPC   NC3 4214  10.369   1.119   3.865
  326POPC   PO4 4215   0.190   1.716   3.768
  326POPC   GL1 4216  10.478   1.517   4.178
  326POPC   GL2 4217  10.228   1.218   4.318
  326POPC   C1A 4218  10.386   1.526   4.650
  326POPC   D2A 4219  10.320   1.257   4.992
  326POPC   C3A 4220  10.164   1.418   5.359
  326POPC   C4A 4221  10.259   1.522   5.784
  326POPC   C1B 4222  10.151   0.911   4.647
  326POPC   C2B 4223  10.162   0.690   5.049
  326POPC   C3B 4224   9.988   0.752   5.441
  326POPC   C4B 4225  10.152   1.038   5.725
  327POPC   NC3 4226   1.091   1.902   4.053
  327POPC   PO4 4227   1.639   1.403   4.121
  327POPC   GL1 4228   1.655   1.615   4.461
  327POPC   GL2 4229   1.386   1.865   4.461
  327POPC   C1A 4230   1.554   1.593   4.875
  327POPC   D2A 4231   1.229   1.801   5.120
  327POPC   C3A 4232   1.331   2.076   5.474
  327POPC   C4A 4233   1.415   1.744   5.753
  327POPC   C1B 4234   1.020   2.045   4.723
  327POPC   C2B 4235   0.881   2.168   5.153
  327POPC   C3B 4236   0.849   1.897   5.494
  327POPC   C4B 4237   1.008   1.999   5.904
  328POPC   NC3 4238   9.330   3.551   3.908
  328POPC   PO4 4239   9.893   3.205   3.946
  328POPC   GL1 4240   9.517   3.122   4.248
  328POPC   GL2 4241   9.188   3.305   4.316
  328POPC   C1A 4242   9.533   3.307   4.689
  328POPC   D2A 4243   9.772   3.333   5.089
  328POPC   C3A 4244   9.515   3.259   5.446
  328POPC   C4A 4245   9.590   3.066   5.852
  328POPC   C1B 4246   9.089   3.606   4.626
  328POPC   C2B 4247   8.997   3.476   5.035
  328POPC   C3B 4248   8.981   3.639   5.427
  328POPC   C4B 4249   9.243   3.558   5.749
  329POPC   NC3 4250   9.437   2.218   3.845
  329POPC   PO4 4251   9.081   1.682   4.024
  329POPC   GL1 4252   9.261   2.023   4.280
  329POPC   GL2 4253   9.642   1.998   4.278
  329POPC   C1A 4254   9.376   2.241   4.656
  329POPC   D2A 4255   9.339   2.060   5.033
  329POPC   C3A 4256   9.359   2.237   5.406
  329POPC   C4A 4257   9.248   2.200   5.833
  329POPC   C1B 4258   9.527   1.741   4.670
  329POPC   C2B 4259   9.592   1.624   5.146
  329POPC   C3B 4260   9.348   1.745   5.555
  329POPC   C4B 4261   9.480   1.765   6.044
  330POPC   NC3 4262   0.275   7.122   3.836
  330POPC   PO4 4263   0.078   6.538   3.858
  330POPC   GL1 4264   0.247   6.857   4.248
  330POPC   GL2 4265   0.398   7.189   4.371
  330POPC   C1A 4266   0.226   6.834   4.706
  330POPC   D2A 4267   0.469   6.987   5.072
  330POPC   C3A 4268   0.239   7.135   5.437
  330POPC   C4A 4269   0.386   7.086   5.832
  330POPC   C1B 4270   0.753   7.282   4.695
  330POPC   C2B 4271   0.890   7.385   5.096
  330POPC   C3B 4272   0.691   7.383   5.483
  330POPC   C4B 4273   0.673   7.505   5.887
  331POPC   NC3 4274   1.496   4.976   3.849
  331POPC   PO4 4275   2.118   4.768   3.968
  331POPC   GL1 4276   2.044   4.987   4.338
  331POPC   GL2 4277   1.711   4.954   4.315
  331POPC   C1A 4278   1.959   5.072   4.786
  331POPC   D2A 4279   1.984   5.333   5.126
  331POPC   C3A 4280   2.221   5.249   5.486
  331POPC   C4A 4281   2.032   5.062   5.851
  331POPC   C1B 4282   1.747   4.636   4.656
  331POPC   C2B 4283   1.643   4.789   5.078
  331POPC   C3B 4284   1.886   4.862   5.395
  331POPC   C4B 4285   2.199   4.651   5.587
  332POPC   NC3 4286   1.089   7.965   3.971
  332POPC   PO4 4287   0.632   7.431   3.978
  332POPC   GL1 4288   0.819   7.718   4.328
  332POPC   GL2 4289   1.180   7.862   4.429
  332POPC   C1A 4290   0.825   7.812   4.762
  332POPC   D2A 4291   1.056   8.008   5.051
  332POPC   C3A 4292   0.934   7.815   5.389
  332POPC   C4A 4293   1.070   7.810   5.778
  332POPC   C1B 4294   1.469   8.000   4.699
  332POPC   C2B 4295   1.566   8.102   5.099
  332POPC   C3B 4296   1.379   8.060   5.479
  332POPC   C4B 4297   1.365   8.253   5.872
  333POPC   NC3 4298  10.117   6.497   3.935
  333POPC   PO4 4299  10.412   6.031   4.208
  333POPC   GL1 4300  10.148   6.300   4.408
  333POPC   GL2 4301  10.307   6.615   4.376
  333POPC   C1A 4302  10.077   6.276   4.824
  333POPC   D2A 4303  10.064   6.006   5.166
  333POPC   C3A 4304  10.410   6.152   5.409
  333POPC   C4A 4305  10.271   6.300   5.765
  333POPC   C1B 4306  10.192   6.790   4.726
  333POPC   C2B 4307  10.017   6.718   5.124
  333POPC   C3B 4308  10.193   6.699   5.474
  333POPC   C4B 4309  10.465   6.784   5.798
  334POPC   NC3 4310   3.368   3.621   3.829
  334POPC   PO4 4311   3.922   3.295   3.922
  334POPC   GL1 4312   3.622   3.236   4.268
  334POPC   GL2 4313   3.278   3.411   4.283
  334POPC   C1A 4314   3.587   3.390   4.711
  334POPC   D2A 4315   3.477   3.541   5.119
  334POPC   C3A 4316   3.545   3.231   5.436
  334POPC   C4A 4317   3.642   3.222   5.855
  334POPC   C1B 4318   3.052   3.370   4.679
  334POPC   C2B 4319   2.934   3.474   5.114
  334POPC   C3B 4320   3.149   3.598   5.509
  334POPC   C4B 4321   3.589   3.701   5.628
  335POPC   NC3 4322  10.334   5.214   3.867
  335POPC   PO4 4323  10.264   4.482   3.806
  335POPC   GL1 4324  10.280   4.683   4.227
  335POPC   GL2 4325  10.272   5.020   4.315
  335POPC   C1A 4326  10.147   4.659   4.661
  335POPC   D2A 4327  10.099   4.454   5.052
  335POPC   C3A 4328  10.129   4.658   5.415
  335POPC   C4A 4329   9.958   4.798   5.767
  335POPC   C1B 4330  10.196   5.170   4.675
  335POPC   C2B 4331  10.102   5.011   5.063
  335POPC   C3B 4332  10.252   5.150   5.460
  335POPC   C4B 4333  10.124   5.286   5.841
  336POPC   NC3 4334   6.323   1.244   3.854
  336POPC   PO4 4335   6.731   1.755   3.617
  336POPC   GL1 4336   6.676   1.522   4.113
  336POPC   GL2 4337   6.553   1.161   4.278
  336POPC   C1A 4338   6.725   1.473   4.624
  336POPC   D2A 4339   6.577   1.218   4.981
  336POPC   C3A 4340   6.643   1.311   5.413
  336POPC   C4A 4341   6.652   1.075   5.833
  336POPC   C1B 4342   6.289   0.997   4.604
  336POPC   C2B 4343   6.211   0.816   5.037
  336POPC   C3B 4344   6.256   0.973   5.460
  336POPC   C4B 4345   6.252   1.357   5.741
  337POPC   NC3 4346   2.385   9.667   3.734
  337POPC   PO4 4347   2.753   9.121   3.863
  337POPC   GL1 4348   2.784   9.477   4.296
  337POPC   GL2 4349   2.880   9.233   4.497
  337POPC   C1A 4350   2.734   9.639   4.739
  337POPC   D2A 4351   2.923   9.802   5.114
  337POPC   C3A 4352   2.690   9.572   5.419
  337POPC   C4A 4353   2.518   9.670   5.802
  337POPC   C1B 4354   2.935   8.983   4.834
  337POPC   C2B 4355   2.805   8.980   5.254
  337POPC   C3B 4356   2.648   9.110   5.625
  337POPC   C4B 4357   3.002   9.245   5.828
  338POPC   NC3 4358   6.445   2.530   3.632
  338POPC   PO4 4359   6.419   3.100   4.017
  338POPC   GL1 4360   6.470   2.953   4.426
  338POPC   GL2 4361   6.409   2.616   4.339
  338POPC   C1A 4362   6.488   2.925   4.887
  338POPC   D2A 4363   6.188   2.657   5.129
  338POPC   C3A 4364   6.190   2.791   5.568
  338POPC   C4A 4365   6.455   2.905   5.982
  338POPC   C1B 4366   6.605   2.480   4.690
  338POPC   C2B 4367   6.589   2.347   5.100
  338POPC   C3B 4368   6.635   2.588   5.444
  338POPC   C4B 4369   6.547   2.442   5.846
  339POPC   NC3 4370   1.334   1.032   3.623
  339POPC   PO4 4371   1.311   0.501   4.091
  339POPC   GL1 4372   1.208   0.580   4.461
  339POPC   GL2 4373   1.344   0.254   4.561
  339POPC   C1A 4374   0.946   0.771   4.757
  339POPC   D2A 4375   1.056   0.899   5.197
  339POPC   C3A 4376   1.047   0.585   5.524
  339POPC   C4A 4377   0.788   0.209   5.569
  339POPC   C1B 4378   1.325   0.497   4.952
  339POPC   C2B 4379   1.545   0.725   5.253
  339POPC   C3B 4380   1.555   0.552   5.630
  339POPC   C4B 4381   1.444   0.102   5.680
  340POPC   NC3 4382   1.874   1.788   3.996
  340POPC   PO4 4383   2.324   2.357   3.934
  340POPC   GL1 4384   2.197   2.053   4.307
  340POPC   GL2 4385   1.875   2.076   4.396
  340POPC   C1A 4386   2.138   1.919   4.788
  340POPC   D2A 4387   2.173   2.133   5.198
  340POPC   C3A 4388   2.300   1.900   5.568
  340POPC   C4A 4389   2.275   1.896   6.019
  340POPC   C1B 4390   1.678   2.173   4.735
  340POPC   C2B 4391   1.680   2.024   5.094
  340POPC   C3B 4392   1.807   1.813   5.412
  340POPC   C4B 4393   1.862   2.079   5.748
  341POPC   NC3 4394   8.522   6.740   3.842
  341POPC   PO4 4395   9.135   6.891   3.835
  341POPC   GL1 4396   8.856   6.970   4.228
  341POPC   GL2 4397   8.765   7.261   4.362
  341POPC   C1A 4398   8.488   6.837   4.492
  341POPC   D2A 4399   8.374   6.778   4.931
  341POPC   C3A 4400   8.425   6.980   5.328
  341POPC   C4A 4401   8.434   6.984   5.770
  341POPC   C1B 4402   8.790   7.090   4.777
  341POPC   C2B 4403   8.991   7.095   5.108
  341POPC   C3B 4404   8.932   7.298   5.421
  341POPC   C4B 4405   8.885   7.191   5.793
  342W        W 4406   1.295   4.689  10.456
  343W        W 4407   6.556   2.884   1.425
  344W        W 4408   6.470   8.542   9.153
  345W        W 4409   2.639   8.757  11.386
  346W        W 4410   6.233   6.133   1.302
  347W        W 4411   8.635   1.939   1.237
  348W        W 4412   3.765   7.523  11.552
  349W        W 4413   3.838   1.819   1.732
  350W        W 4414   6.955   3.264   0.062
  351W        W 4415   3.729   7.485   2.326
  352W        W 4416   7.656   7.436   3.027
  353W        W 4417   7.256   2.900  10.953
  354W        W 4418   6.616   6.072   2.514
  355W        W 4419  10.429   4.069   2.338
  356W        W 4420   0.730   2.882  11.585
  357W        W 4421   2.101   0.964  11.409
  358W        W 4422   0.836   2.540   8.772
  359W        W 4423   3.830   2.365  10.514
  360W        W 4424   7.592   0.757  11.934
  361W        W 4425   7.980   6.277  10.356
  362W        W 4426   9.615   5.030   1.977
  363W        W 4427   2.654   7.902   2.229
  364W        W 4428   3.775   6.451  10.484
  365W        W 4429   3.619   8.919   2.286
  366W        W 4430   5.592   9.698   1.314
  367W        W 4431   2.548   8.880   9.204
  368W        W 4432   4.953   4.813   1.662
  369W        W 4433   6.099   8.022   0.887
  370W        W 4434   9.192   3.288   9.337
  371W        W 4435  10.271   4.673   1.618
  372W        W 4436   8.547   9.394   3.185
  373W        W 4437   9.806   1.700  10.504
  374W        W 4438   4.634   4.389  10.874
  375W        W 4439   2.850   9.543   0.887
  376W        W 4440   3.923   8.622  11.480
  377W        W 4441  10.440   0.162   9.899
  378W        W 4442   8.557   8.318  10.386
  379W        W 4443   2.393   4.456   3.651
  380W        W 4444   3.349   9.671   0.983
  381W        W 4445   1.135   4.461   1.801
  382W        W 4446   6.130   8.580  10.952
  383W        W 4447   1.669   6.058   3.436
  384W        W 4448   1.526   9.233   0.400
  385W        W 4449   0.464   1.172   3.122
  386W        W 4450   2.171   7.855  11.052
  387W        W 4451   6.791   9.045  10.332
  388W        W 4452   3.061   7.707  11.936
  389W        W 4453   6.094   7.784  10.620
  390W        W 4454   2.604   5.270   2.833
  391W        W 4455   6.636   8.445  11.093
  392W        W 4456   9.012   9.513   3.036
  393W        W 4457   4.641  10.255   0.045
  394W        W 4458   7.300   6.235   3.854
  395W        W 4459   3.547   4.100   2.658
  396W        W 4460   1.512   9.659   3.535
  397W        W 4461  10.207   9.567   0.170
  398W        W 4462   3.797   7.721  10.074
  399W        W 4463   7.528  10.483   1.364
  400W        W 4464   5.112   4.575   8.228
  401W        W 4465   0.308   9.559  10.115
  402W        W 4466   9.684   9.464   2.451
  403W        W 4467   6.042   3.974   1.263
  404W        W 4468   7.199   1.307  10.340
  405W        W 4469   8.390   7.661   0.767
  406W        W 4470   3.805   0.261  10.063
  407W        W 4471   9.312   4.398   3.080
  408W        W 4472   2.367   3.250   9.345
  409W        W 4473   7.903   4.487  10.888
  410W        W 4474   7.883   7.589   3.454
  411W        W 4475   5.630   6.984   0.425
  412W        W 4476   9.063   9.159   2.152
  413W        W 4477   5.615   7.290   1.864
  414W        W 4478   8.413   6.286   8.620
  415W        W 4479   1.083   9.219   9.644
  416W        W 4480   8.065  10.171  10.172
  417W        W 4481   1.926  10.462   3.267
  418W        W 4482   7.897   0.956   2.291
  419W        W 4483   6.853   4.671   0.045
  420W        W 4484   8.857   3.484   2.383
  421W        W 4485   1.690   2.035   2.282
  422W        W 4486   9.673   8.357   0.803
  423W        W 4487   5.465   7.455  10.012
  424W        W 4488   1.337   7.452  10.937
  425W        W 4489   6.050   4.766  11.448
  426W        W 4490   0.926   9.554   0.421
  427W        W 4491   1.357   9.874   2.399
  428W        W 4492   4.126   4.504   0.208
  429W        W 4493   4.080   9.456   9.870
  430W        W 4494   4.808   3.209  10.290
  431W        W 4495   5.151   7.884   8.962
  432W        W 4496   6.041  10.015   2.754
  433W        W 4497   8.857   4.812  11.815
  434W        W 4498   0.814   7.481   3.126
  435W        W 4499   0.846   4.973   2.627
  436W        W 4500   4.355  10.399  10.003
  437W        W 4501   3.850   0.439  11.451
  438W        W 4502   0.005   6.970  11.317
  439W        W 4503   8.424   3.148   8.835
  440W        W 4504   3.626   6.416   3.662
  441W        W 4505   4.260   8.471   0.751
  442W        W 4506   4.267   8.843  11.108
  443W        W 4507   1.932   5.620   3.312
  444W        W 4508   7.593   8.593   1.231
  445W        W 4509   4.974   7.203   4.124
  446W        W 4510   6.437   9.797  11.497
  447W        W 4511   7.175   0.909   9.186
  448W        W 4512   4.779  10.457  10.594
  449W        W 4513   9.025   5.616   3.468
  450W        W 4514   1.674   6.634   9.336
  451W        W 4515   8.420   4.015   2.210
  452W        W 4516   8.998   6.555   1.449
  453W        W 4517   7.479   7.714   2.648
  454W        W 4518   7.032   5.942   3.093
  455W        W 4519   1.842   6.622  10.834
  456W        W 4520   8.707   3.405   0.073
  457W        W 4521   7.158   0.810   1.015
  458W        W 4522   1.906   5.287   9.137
  459W        W 4523   9.041   5.484  10.124
  460W        W 4524  10.249   5.010   0.726
  461W        W 4525   2.840   4.717   3.536
  462W        W 4526   0.973   7.004   1.322
  463W        W 4527   0.881   4.445  10.285
  464W        W 4528   6.979   4.904   0.985
  465W        W 4529   6.419   2.045   9.530
  466W        W 4530   7.505   0.502  11.300
  467W        W 4531   5.623   8.497  10.843
  468W        W 4532   3.773   7.118   9.155
  469W        W 4533  10.130   7.580  10.400
  470W        W 4534   9.331   1.860  10.390
  471W        W 4535   1.610   1.943   1.777
  472W        W 4536   7.054   3.123   3.052
  473W        W 4537   3.993   0.368   8.700
  474W        W 4538   4.749   4.899   8.425
  475W        W 4539   5.044   2.583   0.345
  476W        W 4540   6.698   6.684  11.923
  477W        W 4541   7.734   0.476   2.308
  478W        W 4542   4.532   9.550   8.523
  479W        W 4543   8.412   0.826   2.289
  480W        W 4544   5.272   9.148  11.954
  481W        W 4545   4.715   6.608  10.736
  482W        W 4546   6.740   3.090   0.985
  483W        W 4547   0.855   2.108   0.704
  484W        W 4548   8.349   7.478   3.282
  485W        W 4549   1.293  10.320   3.274
  486W        W 4550   6.514   6.953   3.255
  487W        W 4551   3.767   8.491   0.901
  488W        W 4552   5.716   8.445   2.698
  489W        W 4553   2.653   6.124   8.330
  490W        W 4554   3.695   8.688   3.489
  491W        W 4555   2.127   8.529   1.612
  492W        W 4556   7.268   6.493  10.719
  493W        W 4557   1.170   5.640   9.017
  494W        W 4558   7.746   6.867   9.248
  495W        W 4559   4.555   7.124  10.735
  496W        W 4560   5.424   3.687   8.215
  497W        W 4561   3.166   4.101   9.758
  498W        W 4562   8.985   1.320   9.744
  499W        W 4563   0.043   3.159   2.690
  500W        W 4564   6.011   4.784   2.482
  501W        W 4565   7.736   8.975  11.490
  502W        W 4566   4.102   2.604   9.436
  503W        W 4567  10.006   0.201  10.205
  504W        W 4568   7.527   0.014   3.445
  505W        W 4569   0.741   2.513  10.745
  506W        W 4570   3.211   6.735   2.466
  507W        W 4571   1.152   2.373   9.731
  508W        W 4572   4.095   6.247   1.973
  509W        W 4573   3.834   5.014  10.636
  510W        W 4574   9.235   2.778  11.364
  511W        W 4575   5.379   4.868   3.628
  512W        W 4576   8.575   9.875   1.683
  513W        W 4577   2.437   9.189   1.234
  514W        W 4578   4.509   4.554   9.991
  515W        W 4579   6.754   7.544   1.324
  516W        W 4580   4.624   9.282  11.570
  517W        W 4581   5.180   3.607   3.259
  518W        W 4582   8.910   6.009   0.843
  519W        W 4583   2.855   3.743   3.150
  520W        W 4584   6.933   4.341   3.931
  521W        W 4585   4.823   9.837  10.307
  522W        W 4586  10.338   6.101   8.903
  523W        W 4587   5.276   4.070   0.190
  524W        W 4588   9.491   4.263   0.738
  525W        W 4589   5.310   4.127  10.325
  526W        W 4590  10.254   4.255  10.091
  527W        W 4591   4.305  10.110   2.712
  528W        W 4592   2.557   1.462   3.071
  529W        W 4593   6.190   3.453   3.090
  530W        W 4594   6.946   0.368   2.012
  531W        W 4595   2.786   1.416   1.021
  532W        W 4596   5.961   3.128   8.846
  533W        W 4597   3.147   2.224   9.536
  534W        W 4598   9.127   4.182   9.571
  535W        W 4599   8.464   2.450   0.400
  536W        W 4600   5.702   5.473   9.471
  537W        W 4601   2.591   1.559   9.039
  538W        W 4602   8.896   4.300  10.526
  539W        W 4603   2.218   9.963   9.012
  540W        W 4604   5.766   7.180  11.880
  541W        W 4605   8.466   3.863   2.758
  542W        W 4606  10.187   9.572   2.387
  543W        W 4607   9.327   5.087  11.013
  544W        W 4608   7.911   6.411   2.261
  545W        W 4609   6.938   4.758   9.777
  546W        W 4610   1.270   5.134   2.335
  547W        W 4611   9.637   0.453  10.475
  548W        W 4612   9.798   0.383   1.238
  549W        W 4613   4.800   1.775   1.949
  550W        W 4614   5.310   7.371   0.299
  551W        W 4615   0.532   4.008  11.392
  552W        W 4616   8.024   5.630   3.428
  553W        W 4617   4.244   8.307  11.184
  554W        W 4618   4.753   9.858   2.696
  555W        W 4619   1.353   9.790   1.390
  556W        W 4620  10.397   1.223   1.393
  557W        W 4621   7.928   5.447   9.368
  558W        W 4622   3.867   0.683   9.758
  559W        W 4623   0.492   0.844   2.744
  560W        W 4624   3.778   9.527   0.647
  561W        W 4625   1.589   1.972  10.995
  562W        W 4626   5.469   2.619   9.248
  563W        W 4627   3.501   3.378   0.369
  564W        W 4628   4.030   8.219  10.314
  565W        W 4629   9.117   1.455   8.733
  566W        W 4630   8.058   6.252  11.711
  567W        W 4631   8.085   4.622  10.438
  568W        W 4632   3.250   0.916   8.733
  569W        W 4633   2.333   8.204   1.297
  570W        W 4634   0.682   6.103   3.296
  571W        W 4635   3.561   6.784   3.262
  572W        W 4636   8.236   3.408   0.262
  573W        W 4637   3.042   0.109   0.948
  574W        W 4638   2.642  10.264   8.878
  575W        W 4639   3.751   1.408   1.412
  576W        W 4640   2.070   5.090   9.758
  577W        W 4641   4.250   0.230  11.751
  578W        W 4642   9.899   4.891  10.026
  579W        W 4643   5.446   1.293  10.023
  580W        W 4644   9.945   8.558   9.495
  581W        W 4645   0.751   4.047   9.973
  582W        W 4646   9.314   0.489   9.528
  583W        W 4647   3.936   5.941   3.217
  584W        W 4648  10.258   7.408   8.482
  585W        W 4649   5.187   8.237   1.458
  586W        W 4650   7.060   1.547  10.808
  587W        W 4651  10.351   1.623   2.886
  588W        W 4652   2.290   2.673   0.666
  589W        W 4653  10.346   9.417   8.989
  590W        W 4654   1.746   3.327  11.491
  591W        W 4655   7.867   9.354   2.126
  592W        W 4656   9.954   3.754   1.145
  593W        W 4657   1.243   0.040  10.315
  594W        W 4658   1.473   8.983   9.384
  595W        W 4659   7.929   8.504  10.703
  596W        W 4660  10.096   4.344   3.282
  597W        W 4661   5.556   5.000  11.355
  598W        W 4662   1.740   2.675   2.918
  599W        W 4663   0.103   4.280   3.498
  600W        W 4664   8.382   0.494  11.260
  601W        W 4665  10.331  10.398   1.251
  602W        W 4666   0.969   4.852   3.116
  603W        W 4667   4.535   6.205   8.546
  604W        W 4668  10.220   3.429   3.489
  605W        W 4669  10.396   5.136  10.081
  606W        W 4670   8.932   5.253   2.289
  607W        W 4671   9.438   6.153   3.248
  608W        W 4672  10.311   0.620  10.079
  609W        W 4673   4.313   3.730   2.710
  610W        W 4674  10.356  10.084  10.764
  611W        W 4675   7.133   3.272  10.588
  612W        W 4676   4.955   2.127   9.700
  613W        W 4677   6.316   3.548   8.508
  614W        W 4678  10.391   3.760   1.452
  615W        W 4679   9.547   5.846   2.385
  616W        W 4680   5.077   2.596   9.580
  617W        W 4681   1.773  10.272  11.661
  618W        W 4682   3.633   1.309  10.409
  619W        W 4683   8.341  10.055  10.908
  620W        W 4684   2.881   1.273   0.228
  621W        W 4685   2.390   8.369   9.231
  622W        W 4686  10.236  10.211   1.754
  623W        W 4687   9.729   2.670   0.452
  624W        W 4688   0.403   1.182   1.733
  625W        W 4689   2.114   5.552   9.539
  626W        W 4690   8.065   6.972   1.433
  627W        W 4691   0.312   9.525   9.597
  628W        W 4692   5.318   5.031   1.389
  629W        W 4693   5.345   0.201   1.184
  630W        W 4694   9.481   7.970   9.933
  631W        W 4695   9.734   7.819  11.877
  632W        W 4696   3.723   2.276   3.570
  633W        W 4697   9.898   3.841   9.316
  634W        W 4698   6.530   7.450  10.152
  635W        W 4699   7.668   3.168   9.239
  636W        W 4700   3.170   0.606   3.500
  637W        W 4701   0.908   3.967   8.934
  638W        W 4702   8.451   0.344  11.732
  639W        W 4703   0.835   0.474   8.980
  640W        W 4704   7.087   4.116   2.575
  641W        W 4705   9.542  10.467   8.536
  642W        W 4706   5.148   7.240   1.668
  643W        W 4707   6.054   2.051   2.155
  644W        W 4708   9.580   7.032  11.508
  645W        W 4709   5.172   7.673   2.587
  646W        W 4710   7.470   7.665   8.966
  647W        W 4711   3.579   5.156   1.219
  648W        W 4712   7.864   3.978  10.997
  649W        W 4713   6.149   5.977   2.740
  650W        W 4714   6.155   1.871   9.107
  651W        W 4715   7.908   4.339   0.450
  652W        W 4716   5.805   8.381  10.008
  653W        W 4717   7.129   5.950  11.816
  654W        W 4718   0.922   1.413   9.806
  655W        W 4719   9.957   6.230   0.908
  656W        W 4720   8.175   5.630   0.576
  657W        W 4721   2.828   5.037   9.567
  658W        W 4722   0.385   1.253  11.842
  659W        W 4723   8.052   5.474   1.324
  660W        W 4724   4.554   9.865   2.207
  661W        W 4725   2.598   1.983  11.798
  662W        W 4726   1.914   4.710   8.526
  663W        W 4727   6.024   3.237   0.744
  664W        W 4728   0.139   9.318   2.491
  665W        W 4729   6.549   1.382   1.335
  666W        W 4730   7.186   0.387   9.396
  667W        W 4731   2.114   6.606   9.034
  668W        W 4732   7.000   3.199   0.562
  669W        W 4733   2.421   9.649   0.211
  670W        W 4734   4.022   3.281  10.044
  671W        W 4735   5.052   3.495   2.796
  672W        W 4736   8.811   8.414  11.860
  673W        W 4737   4.582   0.596  10.498
  674W        W 4738   4.243   0.929   9.981
  675W        W 4739   5.157   0.867   8.908
  676W        W 4740   9.977   0.307   0.216
  677W        W 4741   6.039   9.652   0.020
  678W        W 4742   6.520   4.751  11.666
  679W        W 4743   2.301   1.255   8.505
  680W        W 4744   1.765   4.668  10.614
  681W        W 4745   4.211   7.997   1.636
  682W        W 4746   4.633   0.529   1.021
  683W        W 4747   7.477   0.149  10.863
  684W        W 4748   0.106   4.939  11.263
  685W        W 4749   4.045   2.883  10.382
  686W        W 4750   7.966   6.805   0.937
  687W        W 4751   7.880   9.035   1.333
  688W        W 4752   5.674   4.520  10.297
  689W        W 4753   2.096   8.580  11.438
  690W        W 4754   5.659   7.557   2.306
  691W        W 4755   7.720   1.882  11.400
  692W        W 4756   0.513   6.996  11.141
  693W        W 4757   2.818   4.511   1.489
  694W        W 4758   9.848   1.213  10.660
  695W        W 4759   6.018   0.659   1.479
  696W        W 4760   0.712   0.674  10.357
  697W        W 4761   9.585   2.640   9.984
  698W        W 4762   3.549   9.171   1.816
  699W        W 4763   1.470   5.607   2.378
  700W        W 4764   4.982   6.605   9.032
  701W        W 4765   6.394   0.710   9.504
  702W        W 4766   2.366   3.060  10.970
  703W        W 4767   4.620   6.054   2.846
  704W        W 4768   5.201   2.221   0.022
  705W        W 4769   3.779   9.845   2.731
  706W        W 4770   3.036   8.008  10.060
  707W        W 4771   3.840   8.222   1.899
  708W        W 4772   2.473   0.951   2.195
  709W        W 4773   3.014   1.110  11.364
  710W        W 4774   0.375   2.396   9.150
  711W        W 4775   8.524   7.203   1.584
  712W        W 4776   2.343   1.179   1.732
  713W        W 4777   4.149   1.765   0.208
  714W        W 4778   5.658   7.962   2.917
  715W        W 4779   2.768   7.015  11.322
  716W        W 4780   7.178   1.711   2.276
  717W        W 4781   7.308   8.565  11.509
  718W        W 4782   1.308   3.310   8.740
  719W        W 4783   0.936   3.696  11.249
  720W        W 4784   1.878   4.135   1.258
  721W        W 4785   7.990   8.335   9.724
  722W        W 4786   2.069   7.623  10.055
  723W        W 4787   6.184   3.039   2.217
  724W        W 4788   1.207  10.013  11.687
  725W        W 4789   6.442   6.994  10.529
  726W        W 4790   5.768   6.590   8.483
  727W        W 4791   0.879   2.616   0.612
  728W        W 4792   9.957   6.121  11.976
  729W        W 4793   9.391   8.731  11.327
  730W        W 4794   9.218   5.239  10.533
  731W        W 4795   8.876   2.706   3.022
  732W        W 4796   0.544   9.528   3.362
  733W        W 4797   1.414   6.701   1.394
  734W        W 4798   6.528   8.033  11.398
  735W        W 4799   6.096   8.414   8.824
  736W        W 4800   1.008  10.188   2.234
  737W        W 4801   2.783   2.196   1.264
  738W        W 4802   5.140   3.606   0.031
  739W        W 4803   7.609   4.526   3.695
  740W        W 4804   6.002   0.564  10.630
  741W        W 4805   0.784   0.134   2.295
  742W        W 4806  10.183  10.236   9.995
  743W        W 4807   3.520   8.849  11.694
  744W        W 4808   2.826   5.104   1.853
  745W        W 4809   1.482   0.930   2.558
  746W        W 4810   6.594   6.509   2.180
  747W        W 4811   2.591   7.005   9.753
  748W        W 4812   4.752   7.514   2.285
  749W        W 4813   0.015   3.454  11.952
  750W        W 4814   3.234   8.959   1.461
  751W        W 4815   4.623  10.233   3.505
  752W        W 4816   9.119   8.794   1.820
  753W        W 4817   6.194  10.487   2.666
  754W        W 4818   6.463   3.382   2.639
  755W        W 4819   4.527   3.090   8.939
  756W        W 4820   4.727   0.755   3.349
  757W        W 4821   2.158   8.024   2.412
  758W        W 4822   8.684   1.771   2.011
  759W        W 4823   9.485   6.996   8.867
  760W        W 4824   7.370   2.289   8.705
  761W        W 4825   2.751   1.657   0.565
  762W        W 4826   7.717   8.615   8.881
  763W        W 4827   3.263   4.524   1.753
  764W        W 4828   9.861   8.764   1.038
  765W        W 4829   0.235   9.857  10.545
  766W        W 4830   9.375   5.121  10.035
  767W        W 4831   7.896   4.575   1.524
  768W        W 4832   3.370   9.457   1.436
  769W        W 4833   0.683   5.637   9.589
  770W        W 4834   4.022   6.631   9.224
  771W        W 4835   5.845   1.651   1.923
  772W        W 4836   7.307  10.015   9.198
  773W        W 4837   6.743   4.674   9.083
  774W        W 4838   2.306   8.215  10.697
  775W        W 4839   4.501   8.267   8.489
  776W        W 4840   5.611   8.791   9.698
  777W        W 4841   8.377   9.418  11.806
  778W        W 4842   7.328   7.850  11.023
  779W        W 4843   6.834   9.810   1.671
  780W        W 4844   7.685   2.633  10.953
  781W        W 4845   7.075   6.895   0.813
  782W        W 4846   0.465  10.298  10.477
  783W        W 4847   1.270   7.934   9.138
  784W        W 4848   1.835   8.375   0.265
  785W        W 4849   1.685   3.820   0.434
  786W        W 4850   8.455   9.029   9.269
  787W        W 4851   2.381   5.722  11.877
  788W        W 4852   6.387   4.002   9.722
  789W        W 4853   9.788   2.816   1.456
  790W        W 4854   3.175   7.485   0.387
  791W        W 4855   1.819   5.714   0.530
  792W        W 4856   6.224   5.540   3.021
  793W        W 4857   9.971   9.973   0.367
  794W        W 4858   4.562  10.430   9.190
  795W        W 4859  10.491   7.963   1.834
  796W        W 4860   3.719   7.064  11.844
  797W        W 4861   8.263   1.152   9.037
  798W        W 4862   9.126   8.050   0.625
  799W        W 4863   1.250   5.532   0.613
  800W        W 4864   2.271  10.032   2.488
  801W        W 4865   3.760   8.437  11.945
  802W        W 4866   0.784   0.179  10.484
  803W        W 4867   9.566   8.943   0.187
  804W        W 4868   4.921   1.626   3.682
  805W        W 4869   3.409  10.375  10.386
  806W        W 4870   3.095   8.533  10.380
  807W        W 4871   4.910   4.172  11.268
  808W        W 4872   6.197   1.406   0.255
  809W        W 4873   9.098   5.539  10.946
  810W        W 4874   0.341   6.036   8.899
  811W        W 4875   7.025   2.731   1.713
  812W        W 4876   2.678   3.223   1.974
  813W        W 4877   1.901   7.977   1.456
  814W        W 4878   1.937  10.390   2.675
  815W        W 4879   8.578   4.688  10.576
  816W        W 4880   9.892   8.325   3.348
  817W        W 4881   3.913   3.392   0.699
  818W        W 4882   4.988   4.516   3.602
  819W        W 4883   3.593   7.873   9.404
  820W        W 4884   5.083   8.408   8.911
  821W        W 4885   4.595   6.856   3.458
  822W        W 4886   6.972   8.061   2.517
  823W        W 4887   0.052   3.690   8.880
  824W        W 4888   8.508   9.993   2.175
  825W        W 4889   0.373   9.883   1.699
  826W        W 4890   6.912  10.491   9.688
  827W        W 4891   6.501   6.624   9.778
  828W        W 4892  10.265   6.104   3.661
  829W        W 4893   7.665   8.886   1.982
  830W        W 4894   9.105   7.573  11.941
  831W        W 4895  10.015   3.286  10.982
  832W        W 4896   6.118   0.054   0.713
  833W        W 4897   1.232   3.625  10.087
  834W        W 4898   9.912   2.043   8.562
  835W        W 4899   0.277   2.699   1.511
  836W        W 4900   9.363   8.344   2.021
  837W        W 4901   2.843   7.424   3.362
  838W        W 4902   0.113   6.575   0.710
  839W        W 4903   8.150   9.362   8.602
  840W        W 4904   2.921   1.619  10.516
  841W        W 4905   2.345   7.000   8.777
  842W        W 4906   3.262   8.442  10.938
  843W        W 4907   4.000   6.080   8.436
  844W        W 4908   5.538   3.859   3.522
  845W        W 4909   1.718   8.019   9.376
  846W        W 4910   7.524   8.398   1.819
  847W        W 4911  10.433   4.200   1.180
  848W        W 4912   7.767   6.422  10.783
  849W        W 4913   7.141   7.443   3.181
  850W        W 4914   9.697   6.479  10.739
  851W        W 4915   3.153   2.627   0.985
  852W        W 4916   2.989   1.769   0.060
  853W        W 4917   3.279   4.890  11.527
  854W        W 4918   5.165   5.752  11.853
  855W        W 4919   1.355   3.316   1.183
  856W        W 4920   9.025   3.569  10.832
  857W        W 4921   8.180   8.788   0.406
  858W        W 4922   2.744   6.978   1.444
  859W        W 4923   9.830   7.344   1.745
  860W        W 4924   5.161  10.482  11.348
  861W        W 4925   5.655   8.090   3.454
  862W        W 4926   3.339   9.369   3.486
  863W        W 4927  10.426   0.864   1.786
  864W        W 4928   7.332   6.703   3.624
  865W        W 4929   7.492   4.899  11.806
  866W        W 4930   6.475   8.848   2.525
  867W        W 4931   6.979   7.493   1.794
  868W        W 4932   1.942   4.786   2.502
  869W        W 4933   7.616   9.126   9.979
  870W        W 4934   0.263   4.267   0.469
  871W        W 4935   7.060   2.701   8.805
  872W        W 4936   8.153   3.240   1.520
  873W        W 4937   1.269   6.230   1.530
  874W        W 4938   4.239   4.684  11.731
  875W        W 4939  10.439   7.522  10.008
  876W        W 4940   9.595   0.618   9.948
  877W        W 4941   9.927   0.729  10.791
  878W        W 4942   4.106   4.576   3.688
  879W        W 4943   3.528   9.085   9.080
  880W        W 4944   3.323   9.289   2.457
  881W        W 4945   4.993   7.596  11.978
  882W        W 4946   8.614   5.058  11.378
  883W        W 4947   0.398   0.523   9.262
  884W        W 4948   0.947   8.532  10.228
  885W        W 4949   4.177   2.393   3.055
  886W        W 4950   0.464   8.324   1.236
  887W        W 4951   1.811   8.876   1.845
  888W        W 4952   5.545   3.191   8.077
  889W        W 4953   3.818   0.387   0.448
  890W        W 4954   1.185   5.157   9.700
  891W        W 4955   9.106   9.325   3.493
  892W        W 4956   1.644   0.929   1.091
  893W        W 4957   7.616   1.052   1.152
  894W        W 4958   9.993  10.027   1.238
  895W        W 4959   1.246   5.014   0.391
  896W        W 4960   1.733   0.712   9.483
  897W        W 4961   1.827   6.683   2.272
  898W        W 4962   7.827   8.975  10.437
  899W        W 4963  10.473   3.113   8.790
  900W        W 4964  10.324   7.937   8.718
  901W        W 4965   9.100   9.589  10.974
  902W        W 4966  10.108   9.954   8.987
  903W        W 4967   2.391   7.265   0.949
  904W        W 4968  10.056   9.078   0.352
  905W        W 4969   0.280   0.699  10.679
  906W        W 4970   4.783   0.819   2.183
  907W        W 4971   4.526   8.735   3.577
  908W        W 4972  10.393   8.589   0.241
  909W        W 4973   3.267   2.092  10.795
  910W        W 4974   6.513   0.737  11.275
  911W        W 4975   0.051   3.253   2.172
  912W        W 4976   5.134   7.179   2.213
  913W        W 4977   1.131   3.790   2.386
  914W        W 4978   7.620   9.272  11.915
  915W        W 4979   9.819   1.212   0.494
  916W        W 4980   5.631   7.711  10.416
  917W        W 4981   2.818   7.435   0.733
  918W        W 4982   8.477   3.656   3.263
  919W        W 4983   0.649   5.599  11.862
  920W        W 4984   2.177   9.569   1.466
  921W        W 4985   5.463   7.676   3.735
  922W        W 4986   0.454   8.456   0.388
  923W        W 4987   6.012   7.562  11.595
  924W        W 4988   6.621   7.200   0.820
  925W        W 4989   8.753   7.331   0.897
  926W        W 4990   4.968   0.769   2.683
  927W        W 4991   4.439   6.933  11.208
  928W        W 4992   7.466   5.015   3.562
  929W        W 4993   3.075   3.028   1.727
  930W        W 4994   8.630   3.278   1.764
  931W        W 4995   1.365   2.770   3.313
  932W        W 4996   7.553   8.558  10.278
  933W        W 4997   4.855   3.084   2.220
  934W        W 4998   5.806   2.236   9.213
  935W        W 4999   6.497   9.353  10.730
  936W        W 5000   7.110   7.396   0.926
  937W        W 5001   4.981   5.504   2.131
  938W        W 5002   4.650   7.581   9.032
  939W        W 5003   0.529   9.907   0.263
  940W        W 5004   3.084   2.839  10.321
  941W        W 5005   0.316   5.525   1.869
  942W        W 5006  10.350   9.923   2.770
  943W        W 5007   9.918   9.572   9.285
  944W        W 5008   7.111   9.890   2.126
  945W        W 5009   5.663   6.020   2.961
  946W        W 5010  10.076   2.527   2.868
  947W        W 5011   8.392   2.944   0.296
  948W        W 5012   3.809   7.062  11.331
  949W        W 5013   6.100   6.551  10.099
  950W        W 5014   8.003   5.574   2.380
  951W        W 5015   5.202   7.645   2.054
  952W        W 5016   6.003   9.573   0.521
  953W        W 5017   9.843  10.449   3.852
  954W        W 5018   6.064   0.022  11.272
  955W        W 5019   6.534   4.012   0.022
  956W        W 5020   7.731   2.478   0.643
  957W        W 5021   1.874   4.873   3.532
  958W        W 5022   6.582   9.145   9.875
  959W        W 5023   1.396   0.560   2.944
  960W        W 5024   9.524   6.973  10.753
  961W        W 5025   9.108   3.054   2.346
  962W        W 5026   9.876   0.898   3.869
  963W        W 5027   0.597   4.715   8.686
  964W        W 5028   3.323   6.167  10.508
  965W        W 5029   6.226   7.250   3.560
  966W        W 5030   2.746   3.717   2.133
  967W        W 5031   3.577   6.480   2.198
  968W        W 5032   5.251   2.093   1.221
  969W        W 5033   3.391   4.997   0.782
  970W        W 5034   2.687   0.169   9.272
  971W        W 5035   4.591   4.591   1.944
  972W        W 5036  10.078   7.269   2.356
  973W        W 5037   7.066   8.394   8.621
  974W        W 5038   5.219   2.213   2.101
  975W        W 5039   1.202   5.272   2.902
  976W        W 5040   8.123   1.820   9.044
  977W        W 5041   6.667   5.414   9.502
  978W        W 5042   6.498   4.137   0.935
  979W        W 5043   4.987   1.410  10.202
  980W        W 5044   2.189   6.023   8.586
  981W        W 5045   0.944   6.817   2.796
  982W        W 5046   7.179   3.125   2.047
  983W        W 5047   7.475   6.604   0.986
  984W        W 5048   2.934   9.541  11.765
  985W        W 5049   0.757   2.350   2.148
  986W        W 5050   4.571   8.190   9.915
  987W        W 5051   2.436   9.359   3.194
  988W        W 5052   4.547   1.243   9.421
  989W        W 5053   3.861   3.667   3.572
  990W        W 5054   6.268   1.544   9.461
  991W        W 5055   4.716   6.588   4.244
  992W        W 5056   6.302   1.449   3.299
  993W        W 5057   9.512   4.133  11.346
  994W        W 5058   2.304   7.955   3.583
  995W        W 5059   1.629   5.536   1.878
  996W        W 5060   8.743   1.520   1.550
  997W        W 5061   1.290   9.486   9.254
  998W        W 5062   0.875   6.835   8.745
  999W        W 5063   2.945   1.469   2.748
 1000W        W 5064   5.631   9.529   9.963
 1001W        W 5065   0.559   1.796   1.347
 1002W        W 5066   5.522   6.957   0.943
 1003W        W 5067   5.509   4.862  10.850
 1004W        W 5068   1.756   9.966  10.832
 1005W        W 5069   3.783   4.943  11.616
 1006W        W 5070   0.020   6.221  10.904
 1007W        W 5071   8.362   2.787  11.426
 1008W        W 5072   6.781   8.494  11.569
 1009W        W 5073   1.330   0.540   1.163
 1010W        W 5074   0.916   7.306   2.650
 1011W        W 5075   1.231   0.608   1.687
 1012W        W 5076   5.210   5.610   9.451
 1013W        W 5077   7.674   4.749   8.721
 1014W        W 5078   3.763   4.552   2.437
 1015W        W 5079   9.560   9.770   9.636
 1016W        W 5080   5.840   3.254   3.898
 1017W        W 5081   9.093   3.105  10.996
 1018W        W 5082   8.168   1.742   1.290
 1019W        W 5083   0.714   9.900  11.774
 1020W        W 5084   8.704   8.965   0.495
 1021W        W 5085   6.946   7.947   9.347
 1022W        W 5086   9.074   2.605  10.899
 1023W        W 5087   7.588   1.004   8.870
 1024W        W 5088   4.088   4.701  10.276
 1025W        W 5089   4.509   8.950   1.651
 1026W        W 5090   3.560   0.017   0.193
 1027W        W 5091   6.762   6.143   1.296
 1028W        W 5092   7.677   1.756   2.322
 1029W        W 5093   7.973   1.918  10.057
 1030W        W 5094   6.023   4.496   3.879
 1031W        W 5095   2.825   6.016   0.566
 1032W        W 5096   4.908  10.498   0.418
 1033W        W 5097   1.880   6.144   8.981
 1034W        W 5098   8.933   9.402   0.804
 1035W        W 5099   6.534   8.929  11.570
 1036W        W 5100   8.652   0.204  10.387
 1037W        W 5101  10.057   2.655  10.136
 1038W        W 5102   1.316   2.370   2.946
 1039W        W 5103   1.987   7.605   2.663
 1040W        W 5104   4.228   9.956   0.151
 1041W        W 5105   0.236   8.616   9.942
 1042W        W 5106   9.422   6.571  11.676
 1043W        W 5107   2.081   7.634   8.705
 1044W        W 5108   7.486   3.153  11.823
 1045W        W 5109   4.070   6.617   0.438
 1046W        W 5110   4.098   6.615   0.950
 1047W        W 5111   8.419  10.015   0.773
 1048W        W 5112   5.033   6.730   3.862
 1049W        W 5113   6.506   3.504   0.068
 1050W        W 5114   0.275   3.713   2.232
 1051W        W 5115   0.663   6.444   9.003
 1052W        W 5116   9.072   5.014   0.370
 1053W        W 5117   9.604   3.123   2.287
 1054W        W 5118   3.455   4.654   9.134
 1055W        W 5119   9.722   7.279  10.386
 1056W        W 5120   6.681   3.918   8.433
 1057W        W 5121   1.262   4.132   9.950
 1058W        W 5122   4.254   4.692  10.764
 1059W        W 5123   8.114   9.548  10.910
 1060W        W 5124   4.414   6.961   9.331
 1061W        W 5125   9.779   9.879   2.167
 1062W        W 5126   7.412   4.667   0.284
 1063W        W 5127   8.568   3.777   0.927
 1064W        W 5128   0.073   1.961  10.709
 1065W        W 5129   4.374   5.242   1.007
 1066W        W 5130   9.285   8.857   9.881
 1067W        W 5131   5.865   0.446   9.124
 1068W        W 5132   9.980   2.238   9.306
 1069W        W 5133   4.085   7.866   9.278
 1070W        W 5134   6.561   2.791   1.932
 1071W        W 5135   3.623   1.426   3.516
 1072W        W 5136   1.767   1.660   9.092
 1073W        W 5137   5.992  10.417   1.174
 1074W        W 5138   9.992   6.136   9.628
 1075W        W 5139   2.774   4.753   3.013
 1076W        W 5140   9.002   0.976   1.688
 1077W        W 5141   2.725   5.508   0.251
 1078W        W 5142   5.909   4.857   1.981
 1079W        W 5143   2.670  10.234   0.216
 1080W        W 5144   5.595   9.743   3.256
 1081W        W 5145   0.020   2.326   0.427
 1082W        W 5146   5.710   1.904   2.541
 1083W        W 5147   5.992  10.086   0.460
 1084W        W 5148   2.651   2.687  11.266
 1085W        W 5149   4.832   8.598   1.475
 1086W        W 5150   8.057   8.059   3.388
 1087W        W 5151   0.779  10.327   3.345
 1088W        W 5152   5.609   5.958   9.487
 1089W        W 5153   2.869   7.889   0.983
 1090W        W 5154   0.299   2.651   3.321
 1091W        W 5155   6.587   1.186  11.518
 1092W        W 5156   5.979   0.837   0.943
 1093W        W 5157   7.904   7.794   0.683
 1094W        W 5158   1.832   5.515   1.391
 1095W        W 5159   2.700   3.396  11.741
 1096W        W 5160   1.364   6.474   3.563
 1097W        W 5161   3.363   8.395   2.108
 1098W        W 5162   6.612   6.698   0.871
 1099W        W 5163   3.306   8.673   1.041
 1100W        W 5164   7.420   0.269   2.907
 1101W        W 5165   0.515   3.381  11.823
 1102W        W 5166   3.786   8.797   2.775
 1103W        W 5167   2.755   4.318   1.018
 1104W        W 5168   6.011   3.672   0.472
 1105W        W 5169   2.311   8.106   0.382
 1106W        W 5170   9.963   6.337  10.318
 1107W        W 5171   9.809   8.954   9.943
 1108W        W 5172   1.651   3.876   2.351
 1109W        W 5173   2.808   9.500   3.517
 1110W        W 5174   9.937   5.448   1.919
 1111W        W 5175   2.175   7.342   9.143
 1112W        W 5176  10.478   1.123   9.874
 1113W        W 5177   3.132  10.259   1.936
 1114W        W 5178   7.013  10.352   1.244
 1115W        W 5179   0.373   9.326   0.982
 1116W        W 5180   4.504   0.456   3.007
 1117W        W 5181   3.404   3.550   0.851
 1118W        W 5182   7.199  10.347  10.528
 1119W        W 5183   5.078  10.483  11.915
 1120W        W 5184   4.761   9.984   9.317
 1121W        W 5185   7.236   8.847   0.810
 1122W        W 5186   5.403   5.783   9.910
 1123W        W 5187   9.304   9.112   2.986
 1124W        W 5188   3.532   3.113  10.095
 1125W        W 5189   1.328   8.155  10.174
 1126W        W 5190   4.112   4.166  10.866
 1127W        W 5191   9.443   3.247   2.760
 1128W        W 5192   5.719  10.040   9.834
 1129W        W 5193   4.611   9.447   1.507
 1130W        W 5194   9.240   8.615   8.879
 1131W        W 5195   3.425   1.805  11.756
 1132W        W 5196   3.519   6.251   3.191
 1133W        W 5197   0.031   4.060  11.321
 1134W        W 5198   6.503   6.119  10.992
 1135W        W 5199   5.616   8.754   1.507
 1136W        W 5200   1.315   6.920  10.535
 1137W        W 5201   4.745   1.687   9.574
 1138W        W 5202   4.554   9.580   9.552
 1139W        W 5203   6.021   1.051   9.471
 1140W        W 5204   9.621   6.685   2.650
 1141W        W 5205   6.685   7.930  10.370
 1142W        W 5206   9.959   2.628   9.620
 1143W        W 5207  10.390   4.715   1.137
 1144W        W 5208   4.325   2.248   2.535
 1145W        W 5209   3.843   9.816  10.869
 1146W        W 5210   7.805   6.995   2.823
 1147W        W 5211   9.014   7.942  10.135
 1148W        W 5212   3.240   7.289  11.687
 1149W        W 5213   7.498   7.369  10.960
 1150W        W 5214  10.460   3.290   9.259
 1151W        W 5215   4.034   6.542   2.442
 1152W        W 5216   3.272   6.231   1.371
 1153W        W 5217   5.538   5.336  11.753
 1154W        W 5218   3.701   4.580   9.910
 1155W        W 5219  10.239   9.382   1.586
 1156W        W 5220   1.262   7.595   1.185
 1157W        W 5221   0.673   1.972  10.890
 1158W        W 5222   9.033   0.329   3.499
 1159W        W 5223  10.355   6.154   9.969
 1160W        W 5224   0.810  10.267   9.576
 1161W        W 5225   9.883   8.584   0.407
 1162W        W 5226   6.061   9.450   1.445
 1163W        W 5227   0.852   1.635   0.961
 1164W        W 5228   0.362   3.693  11.028
 1165W        W 5229   8.120   8.693  11.211
 1166W        W 5230   0.354   7.851   1.434
 1167W        W 5231   4.748   8.603   0.975
 1168W        W 5232   4.691   5.146   0.272
 1169W        W 5233   5.654   2.132   1.852
 1170W        W 5234   5.441   6.479   0.376
 1171W        W 5235   9.285   9.645   0.539
 1172W        W 5236   2.702   8.014   8.996
 1173W        W 5237   3.554   9.384  10.820
 1174W        W 5238   7.547   2.699   9.022
 1175W        W 5239   0.394   6.680  10.413
 1176W        W 5240   9.394   3.925  10.880
 1177W        W 5241   9.719   0.902   2.259
 1178W        W 5242   9.071   4.482   1.240
 1179W        W 5243   8.460   9.993   9.911
 1180W        W 5244   3.775   4.553  10.871
 1181W        W 5245   7.240   0.320   2.423
 1182W        W 5246   2.110   0.280   0.126
 1183W        W 5247   7.598   5.169   0.253
 1184W        W 5248   8.061   0.840   0.946
 1185W        W 5249   6.392  10.289  11.581
 1186W        W 5250   4.990   5.714   8.989
 1187W        W 5251   8.164   0.732  10.866
 1188W        W 5252   0.676   2.405   1.643
 1189W        W 5253   6.510   5.084   9.953
 1190W        W 5254   5.622   3.120  11.407
 1191W        W 5255   9.792   2.581  10.572
 1192W        W 5256   8.364   2.672   3.051
 1193W        W 5257   3.153   8.827  11.270
 1194W        W 5258   4.144   7.931   9.780
 1195W        W 5259   6.024   2.784  11.464
 1196W        W 5260   9.831   5.307   2.391
 1197W        W 5261   2.606   2.412   9.777
 1198W        W 5262   3.638   0.363   2.481
 1199W        W 5263   4.555   3.305   3.084
 1200W        W 5264   0.225   7.924   2.311
 1201W        W 5265   4.236   5.459   3.229
 1202W        W 5266   3.369   5.487   2.728
 1203W        W 5267   3.852   7.465   9.529
 1204W        W 5268   3.910   5.797   7.998
 1205W        W 5269   0.803   3.574   9.754
 1206W        W 5270   9.794   6.290   2.331
 1207W        W 5271   1.674   0.322  11.364
 1208W        W 5272   9.569   3.668  11.949
 1209W        W 5273   2.695   8.814   3.176
 1210W        W 5274   5.157   8.609   2.392
 1211W        W 5275   8.816   4.578   8.661
 1212W        W 5276   2.165   4.175   9.557
 1213W        W 5277   9.835   3.066  10.360
 1214W        W 5278   9.727   2.680   9.163
 1215W        W 5279   8.482   8.589   0.769
 1216W        W 5280   2.191   3.969   3.554
 1217W        W 5281   2.437   7.484   9.604
 1218W        W 5282   3.635   8.998  11.204
 1219W        W 5283   4.369   3.977   2.269
 1220W        W 5284   5.237   7.152  11.834
 1221W        W 5285   0.776   3.279   1.082
 1222W        W 5286   1.439   2.591  11.106
 1223W        W 5287   2.259   6.999  11.469
 1224W        W 5288   5.700   6.417   9.344
 1225W        W 5289   4.323   3.136  10.965
 1226W        W 5290   7.634   5.840  11.811
 1227W        W 5291   1.649   5.362   9.606
 1228W        W 5292   4.230   3.146   9.420
 1229W        W 5293   0.428   2.272   2.945
 1230W        W 5294   0.368   6.385   1.636
 1231W        W 5295   1.412  10.238   8.989
 1232W        W 5296   7.098   4.709  11.009
 1233W        W 5297   9.708   3.648  11.450
 1234W        W 5298   4.425   5.737   8.768
 1235W        W 5299   8.921   8.953   9.110
 1236W        W 5300   4.991   1.328   8.678
 1237W        W 5301   5.497  10.346  11.688
 1238W        W 5302   8.045   2.803   1.220
 1239W        W 5303   9.389  10.482   0.016
 1240W        W 5304   4.185   8.865   9.063
 1241W        W 5305   2.155   1.832   2.480
 1242W        W 5306   9.999   0.427   2.069
 1243W        W 5307   3.506   8.076   9.866
 1244W        W 5308   6.488   6.790   1.752
 1245W        W 5309   6.175   3.248  10.210
 1246W        W 5310   3.302   8.580   0.129
 1247W        W 5311   0.655   9.932   8.390
 1248W        W 5312   8.965   2.747   8.550
 1249W        W 5313   5.494   6.509   4.014
 1250W        W 5314   9.504   1.668   9.044
 1251W        W 5315   9.609   4.278   9.455
 1252W        W 5316   4.550   4.217   2.739
 1253W        W 5317   5.611   5.172   0.227
 1254W        W 5318   1.589   9.127  11.291
 1255W        W 5319   9.278   7.681  11.456
 1256W        W 5320   9.934   0.800   0.772
 1257W        W 5321   3.735   6.000   1.689
 1258W        W 5322   0.358   2.107   3.431
 1259W        W 5323   5.606  10.279  11.188
 1260W        W 5324   6.021  10.457   8.971
 1261W        W 5325   7.826   2.285   9.517
 1262W        W 5326   4.614   1.212   2.492
 1263W        W 5327   6.475   4.410   9.433
 1264W        W 5328   9.615   4.753  10.770
 1265W        W 5329   3.363   5.218  10.754
 1266W        W 5330   4.546   6.426   3.200
 1267W        W 5331   2.188  10.414   0.462
 1268W        W 5332   9.802   5.649   9.426
 1269W        W 5333   4.261   2.193   2.016
 1270W        W 5334  10.175   6.858   3.225
 1271W        W 5335   7.046   1.282  11.248
 1272W        W 5336   7.421   8.286  10.733
 1273W        W 5337   9.692  10.105   9.264
 1274W        W 5338   6.539   2.793   8.965
 1275W        W 5339   0.013  10.368   2.591
 1276W        W 5340   4.503   2.306   9.846
 1277W        W 5341   6.611   2.168   3.299
 1278W        W 5342   9.866   1.306   2.540
 1279W        W 5343   2.418   5.950   9.488
 1280W        W 5344   5.788   3.790   3.083
 1281W        W 5345   8.181   1.770   3.445
 1282W        W 5346   2.704   1.473   2.304
 1283W        W 5347   1.867   2.572  10.068
 1284W        W 5348   8.945   3.675   2.891
 1285W        W 5349   1.204   5.601  11.863
 1286W        W 5350   0.919   1.291  11.232
 1287W        W 5351   0.340   4.480   0.959
 1288W        W 5352   1.229   3.130  10.324
 1289W        W 5353  10.492   4.600   3.092
 1290W        W 5354   7.036   3.566   3.302
 1291W        W 5355   3.695   0.989   9.389
 1292W        W 5356   4.858   1.857  10.583
 1293W        W 5357   5.593  10.387   0.795
 1294W        W 5358   3.636   6.203  10.931
 1295W        W 5359  10.295   8.236   2.228
 1296W        W 5360   4.074   4.717  11.251
 1297W        W 5361  10.277   3.488   2.959
 1298W        W 5362   1.565  10.150  10.381
 1299W        W 5363   8.047  10.365   1.301
 1300W        W 5364   4.763   2.060   2.753
 1301W        W 5365   7.434   4.546   1.824
 1302W        W 5366   3.139   3.803  10.597
 1303W        W 5367   5.171   5.154   0.491
 1304W        W 5368   4.735   4.509  11.621
 1305W        W 5369   8.284   1.327   2.278
 1306W        W 5370   4.677   8.472   0.462
 1307W        W 5371   5.178   1.580   1.282
 1308W        W 5372   0.018   4.820   3.549
 1309W        W 5373   1.351   9.400  10.085
 1310W        W 5374   5.496   3.823  10.716
 1311W        W 5375   3.819  10.304   9.834
 1312W        W 5376   9.215   4.481   0.110
 1313W        W 5377   5.036   4.074   1.145
 1314W        W 5378   4.911   5.586   1.209
 1315W        W 5379   7.525   1.774  10.861
 1316W        W 5380   2.303   9.457   9.149
 1317W        W 5381   2.648   7.934   3.215
 1318W        W 5382   7.505   7.153   8.879
 1319W        W 5383   3.787   6.264   0.718
 1320W        W 5384   0.561   0.341   0.254
 1321W        W 5385   3.143   3.306   2.180
 1322W        W 5386   4.906   2.070   0.404
 1323W        W 5387   6.884   2.215   8.885
 1324W        W 5388   6.503  10.191   2.394
 1325W        W 5389  10.337   6.591   9.577
 1326W        W 5390   4.602   5.036  10.087
 1327W        W 5391   9.498   0.549   0.875
 1328W        W 5392   7.488   3.301   3.217
 1329W        W 5393   3.371   5.888   4.057
 1330W        W 5394   0.018   1.839   0.580
 1331W        W 5395   8.095   1.708  11.063
 1332W        W 5396   7.874   3.462  11.125
 1333W        W 5397   4.791   2.013  11.085
 1334W        W 5398   4.479   5.707   0.212
 1335W        W 5399   8.789   6.073   2.763
 1336W        W 5400   4.020   3.625   0.266
 1337W        W 5401   4.172   2.719   0.696
 1338W        W 5402   7.445   9.850  10.595
 1339W        W 5403   9.831   6.690   3.580
 1340W        W 5404   8.506   1.972   9.353
 1341W        W 5405   3.155   7.849   3.337
 1342W        W 5406   7.484   6.091  10.467
 1343W        W 5407   0.263   2.237   1.889
 1344W        W 5408   3.118   8.481   9.837
 1345W        W 5409   9.827   9.828  10.089
 1346W        W 5410   5.912   1.115   3.383
 1347W        W 5411   3.857   2.672   1.209
 1348W        W 5412   7.293   8.998  10.344
 1349W        W 5413   9.775  10.367   1.932
 1350W        W 5414   9.813   0.372   9.234
 1351W        W 5415   5.970   2.181   9.679
 1352W        W 5416   5.671   0.878   8.694
 1353W        W 5417   0.432   6.781   9.928
 1354W        W 5418   2.551   5.600   0.728
 1355W        W 5419   1.234   3.229   9.774
 1356W        W 5420   0.776   5.692  10.915
 1357W        W 5421   0.357   3.409   0.777
 1358W        W 5422   7.969   4.813   2.921
 1359W        W 5423   7.037   6.989   9.002
 1360W        W 5424   5.571   9.322   0.409
 1361W        W 5425   2.698   3.872   0.736
 1362W        W 5426   8.313   8.530  11.703
 1363W        W 5427   2.466   6.871   0.084
 1364W        W 5428   7.751   8.653   0.742
 1365W        W 5429   1.766   9.893   2.685
 1366W        W 5430   5.074   4.177  10.764
 1367W        W 5431   0.414   5.662   3.347
 1368W        W 5432   7.260   0.301   1.072
 1369W        W 5433   7.555   2.203   2.758
 1370W        W 5434   5.690   2.473  10.003
 1371W        W 5435   0.325   4.181  10.918
 1372W        W 5436   6.962   3.728   1.719
 1373W        W 5437   3.831   9.648   0.169
 1374W        W 5438   3.245   9.316   9.489
 1375W        W 5439   8.163  10.454  11.887
 1376W        W 5440   3.871   5.765   0.672
 1377W        W 5441   8.378   0.214   1.521
 1378W        W 5442   8.864   2.337   9.377
 1379W        W 5443   1.899   2.816  10.907
 1380W        W 5444   7.098   6.621   9.850
 1381W        W 5445   2.449   3.762   1.163
 1382W        W 5446   6.077   7.034   1.500
 1383W        W 5447   1.801   7.466   1.303
 1384W        W 5448   5.953   6.125  10.390
 1385W        W 5449   9.509   1.359   9.479
 1386W        W 5450   9.480   4.205   1.747
 1387W        W 5451   8.906   8.586  11.089
 1388W        W 5452   8.925   4.297   3.414
 1389W        W 5453   3.703   7.217   3.527
 1390W        W 5454   3.136   4.035   1.827
 1391W        W 5455   2.812   7.900  11.521
 1392W        W 5456   3.405   8.035   0.197
 1393W        W 5457   3.831   5.080   8.578
 1394W        W 5458   0.479   7.354   0.556
 1395W        W 5459   2.845   7.648  10.408
 1396W        W 5460   5.948   3.559  10.815
 1397W        W 5461   2.167   6.923   9.441
 1398W        W 5462   5.044   5.500   2.641
 1399W        W 5463   9.343   0.983   0.421
 1400W        W 5464   4.973   8.111  10.808
 1401W        W 5465   0.367   8.141   3.391
 1402W        W 5466   4.635   0.830   0.157
 1403W        W 5467   6.632   4.223   2.811
 1404W        W 5468   0.021   7.062   9.777
 1405W        W 5469   1.292   3.556  10.600
 1406W        W 5470   2.619   5.546   1.722
 1407W        W 5471   0.681   9.845  10.318
 1408W        W 5472   3.099   9.705   2.272
 1409W        W 5473   1.705   8.031   8.817
 1410W        W 5474   8.555   9.474  11.325
 1411W        W 5475   5.911   3.079  10.621
 1412W        W 5476   7.002  10.433   9.193
 1413W        W 5477   0.680   2.260  10.010
 1414W        W 5478   5.974   7.329   3.083
 1415W        W 5479   5.462   6.084  10.307
 1416W        W 5480   5.463   9.390  11.443
 1417W        W 5481   4.169   4.453   3.210
 1418W        W 5482   7.222   5.159   2.420
 1419W        W 5483   3.415   7.009   2.831
 1420W        W 5484   1.880   5.852   3.861
 1421W        W 5485   8.792   6.873  10.260
 1422W        W 5486   1.275   7.628  10.043
 1423W        W 5487   3.966   8.745  10.283
 1424W        W 5488   5.079  10.065   1.369
 1425W        W 5489   6.895   5.633   8.687
 1426W        W 5490   2.904  10.368   9.661
 1427W        W 5491   6.780   2.944  10.781
 1428W        W 5492   3.047  10.252   9.188
 1429W        W 5493   8.107   2.905   9.944
 1430W        W 5494   0.948   5.654   3.407
 1431W        W 5495   3.411   9.778   9.325
 1432W        W 5496   1.535   1.712   8.581
 1433W        W 5497   9.858   4.720   9.523
 1434W        W 5498   1.187   3.456   0.736
 1435W        W 5499   9.767   5.335   3.379
 1436W        W 5500   7.862   2.445  11.408
 1437W        W 5501   7.109   5.772   9.551
 1438W        W 5502   4.195   5.274   1.975
 1439W        W 5503   5.979   4.776  10.677
 1440W        W 5504   8.492   2.870   0.938
 1441W        W 5505   0.928   6.581   3.260
 1442W        W 5506   9.446   1.364  10.352
 1443W        W 5507   3.381   4.344   0.292
 1444W        W 5508   9.366   4.979   2.425
 1445W        W 5509   9.298   3.282  11.442
 1446W        W 5510   9.503   4.692  10.267
 1447W        W 5511   2.879   8.375   2.253
 1448W        W 5512   0.402   5.885   1.517
 1449W        W 5513   8.488   8.194   3.589
 1450W        W 5514   5.351   1.842   3.520
 1451W        W 5515   7.647   5.833   9.577
 1452W        W 5516   3.531   8.009  10.976
 1453W        W 5517   3.170   6.243   2.378
 1454W        W 5518   1.392   0.942  10.391
 1455W        W 5519   5.164   5.188  11.063
 1456W        W 5520   5.711   4.382  11.956
 1457W        W 5521   6.992   6.468   8.980
 1458W        W 5522   7.031   2.838  10.258
 1459W        W 5523   7.935   8.612   1.623
 1460W        W 5524   9.785   9.791  11.917
 1461W        W 5525   1.730   1.159  11.691
 1462W        W 5526  10.365   4.496   0.695
 1463W        W 5527   5.650   4.227   0.473
 1464W        W 5528   9.734   3.018   3.510
 1465W        W 5529   6.038   1.264   1.205
 1466W        W 5530   0.240   0.970   2.263
 1467W        W 5531   3.627   0.738  10.220
 1468W        W 5532   4.425  10.489   1.527
 1469W        W 5533   8.837   3.307   3.295
 1470W        W 5534   4.248   0.836   9.454
 1471W        W 5535   6.467   2.489   0.398
 1472W        W 5536   6.573   0.313  10.932
 1473W        W 5537   2.722  10.323  11.147
 1474W        W 5538   5.305   9.768   1.730
 1475W        W 5539   3.273   1.372   1.187
 1476W        W 5540   2.272   0.045  11.050
 1477W        W 5541   1.374   5.738   1.474
 1478W        W 5542   7.951   0.284  11.548
 1479W        W 5543   9.079   3.740   0.171
 1480W        W 5544   1.700   1.171   9.255
 1481W        W 5545   7.147   1.290   1.223
 1482W        W 5546   9.795   3.302   1.293
 1483W        W 5547   3.623   5.083   3.113
 1484W        W 5548   8.519   5.211   1.254
 1485W        W 5549   8.372   3.654   9.410
 1486W        W 5550   2.674   8.170  10.364
 1487W        W 5551   3.617   7.478   0.703
 1488W        W 5552   6.013   5.113   9.322
 1489W        W 5553   8.350   9.246   0.282
 1490W        W 5554   7.059   9.410   1.455
 1491W        W 5555   6.199   7.518   9.323
 1492W        W 5556   8.111   4.016   0.811
 1493W        W 5557   8.193   9.941   9.470
 1494W        W 5558   0.832   0.580   1.008
 1495W        W 5559   7.325   5.090   0.668
 1496W        W 5560  10.460   1.342  11.381
 1497W        W 5561   3.820   9.289  10.368
 1498W        W 5562   2.756   7.409   2.317
 1499W        W 5563   8.976   3.168   0.933
 1500W        W 5564   4.025   7.455  11.988
 1501W        W 5565   6.755   7.756  11.051
 1502W        W 5566   9.547   4.069   3.413
 1503W        W 5567   1.638   5.183   3.207
 1504W        W 5568   4.680   9.977   9.843
 1505W        W 5569   0.929   8.186   0.393
 1506W        W 5570   9.935   3.635   1.676
 1507W        W 5571   8.814   6.124  11.376
 1508W        W 5572   5.171   8.001   3.194
 1509W        W 5573   1.268   2.109  11.396
 1510W        W 5574   6.495   6.529   2.698
 1511W        W 5575   0.651   5.666   9.076
 1512W        W 5576   1.792   4.390   9.250
 1513W        W 5577   8.557   4.713   0.999
 1514W        W 5578   0.910   9.018  10.853
 1515W        W 5579   6.199   7.931   8.550
 1516W        W 5580   6.013   9.023   1.714
 1517W        W 5581   8.152   5.002   9.536
 1518W        W 5582   2.748   4.255   8.879
 1519W        W 5583   9.484   9.372  10.642
 1520W        W 5584   3.731   7.672   3.264
 1521W        W 5585   0.841   6.005  11.357
 1522W        W 5586   9.958   2.433   1.145
 1523W        W 5587   8.594   1.455   1.082
 1524W        W 5588   3.263   2.914   0.497
 1525W        W 5589   4.090   4.960   3.290
 1526W        W 5590   0.310   7.792   8.862
 1527W        W 5591   3.778   0.884   2.240
 1528W        W 5592  10.260   0.838  11.436
 1529W        W 5593  10.223   0.944   2.245
 1530W        W 5594   3.406   4.250   2.196
 1531W        W 5595   0.795   7.382   9.447
 1532W        W 5596   5.769   6.317  11.644
 1533W        W 5597   1.941   1.549   0.219
 1534W        W 5598   2.851   1.023   3.026
 1535W        W 5599   1.937   2.205   1.439
 1536W        W 5600   2.615   7.979   9.498
 1537W        W 5601   4.201   2.751   9.917
 1538W        W 5602   6.968   7.913   1.039
 1539W        W 5603   6.856  10.041   8.880
 1540W        W 5604   3.196   6.668   1.045
 1541W        W 5605   4.271   7.512   2.061
 1542W        W 5606   5.980   5.741   2.198
 1543W        W 5607   8.824   7.416  11.501
 1544W        W 5608   3.336   0.425   0.665
 1545W        W 5609  10.219   0.464  11.800
 1546W        W 5610   2.442  10.406  10.042
 1547W        W 5611   7.723   6.508   3.343
 1548W        W 5612   9.034   9.856   1.465
 1549W        W 5613   5.135   9.573  10.757
 1550W        W 5614   7.883   5.709  11.201
 1551W        W 5615  10.298   1.734   1.677
 1552W        W 5616   1.750   3.554   0.858
 1553W        W 5617   4.946   5.033   3.387
 1554W        W 5618   3.789   3.654   2.629
 1555W        W 5619   4.181   4.208   0.909
 1556W        W 5620   3.671   0.307  10.547
 1557W        W 5621   6.694   0.641   3.241
 1558W        W 5622   0.760   4.769   0.316
 1559W        W 5623   6.818   2.674   3.269
 1560W        W 5624   0.942   1.741   9.408
 1561W        W 5625   7.728   9.030   8.581
 1562W        W 5626   8.173   3.200   9.273
 1563W        W 5627   5.470   8.021  10.803
 1564W        W 5628   3.585   3.659  10.890
 1565W        W 5629   5.069   7.820   9.910
 1566W        W 5630   3.266   6.199   0.822
 1567W        W 5631   1.130   9.442   2.261
 1568W        W 5632   2.567   8.035   2.727
 1569W        W 5633   5.086  10.427   9.305
 1570W        W 5634   8.330   4.381   2.826
 1571W        W 5635   9.973   4.147   1.478
 1572W        W 5636   2.146   2.745   2.586
 1573W        W 5637   9.247   0.304  11.497
 1574W        W 5638   9.865   7.960  10.622
 1575W        W 5639   5.163   7.547   8.189
 1576W        W 5640   1.610   9.873   9.947
 1577W        W 5641   1.231   5.661   9.547
 1578W        W 5642   6.555   5.997  11.498
 1579W        W 5643   4.508   4.487   0.574
 1580W        W 5644   1.213   4.739   9.356
 1581W        W 5645   8.636   6.257   1.253
 1582W        W 5646   3.582   9.969   1.401
 1583W        W 5647  10.492   2.828  11.132
 1584W        W 5648   6.137   4.675   2.949
 1585W        W 5649  10.370   9.498   1.099
 1586W        W 5650   9.838   9.283  11.935
 1587W        W 5651   4.976   3.719   8.521
 1588W        W 5652   2.673   0.658   9.471
 1589W        W 5653   7.937   5.409  10.751
 1590W        W 5654   5.142   2.349   0.783
 1591W        W 5655   8.280   7.807   2.349
 1592W        W 5656   1.908   2.356  11.153
 1593W        W 5657   3.208   3.790   2.375
 1594W        W 5658   7.048   8.535   2.750
 1595W        W 5659   7.477   3.306   2.709
 1596W        W 5660   1.395   4.677   3.411
 1597W        W 5661   3.143   1.958   2.966
 1598W        W 5662   8.301  10.323   1.836
 1599W        W 5663   2.390   2.462   1.413
 1600W        W 5664   3.464   6.909   1.961
 1601W        W 5665   7.658   0.014   2.528
 1602W        W 5666   1.350   6.959   9.039
 1603W        W 5667   7.193  10.330   2.662
 1604W        W 5668   6.558   2.238   2.333
 1605W        W 5669   1.837   9.123   2.303
 1606W        W 5670   3.682   7.229  10.050
 1607W        W 5671   2.835   2.612   1.908
 1608W        W 5672   4.902   0.254   2.590
 1609W        W 5673   7.729   1.896   3.241
 1610W        W 5674   2.947   3.602   1.097
 1611W        W 5675   3.565   2.616   0.198
 1612W        W 5676   6.740   0.144   1.573
 1613W        W 5677   8.413   4.590   1.992
 1614W        W 5678   7.993   6.070   3.116
 1615W        W 5679   1.039   9.977   9.230
 1616W        W 5680   8.514   9.249  10.413
 1617W        W 5681   8.083   0.519   9.681
 1618W        W 5682   0.217  10.385   1.583
 1619W        W 5683   8.457   0.681   9.137
 1620W        W 5684   4.739   6.439   9.443
 1621W        W 5685   3.204   9.119  11.982
 1622W        W 5686  10.046   9.951   9.589
 1623W        W 5687  10.083   4.736  10.948
 1624W        W 5688   2.165   1.668  11.721
 1625W        W 5689   1.076   0.784  11.168
 1626W        W 5690   8.870   8.006   0.151
 1627W        W 5691   3.896   5.143   0.807
 1628W        W 5692   5.558   5.861   1.014
 1629W        W 5693  10.285   8.859   9.738
 1630W        W 5694   0.214   7.882   9.369
 1631W        W 5695   6.233   6.489   3.158
 1632W        W 5696   3.201   6.059   3.593
 1633W        W 5697   9.508   2.951   9.557
 1634W        W 5698   6.454   1.856   0.479
 1635W        W 5699   0.880   1.286   2.853
 1636W        W 5700   1.658   1.523   2.237
 1637W        W 5701   5.307   7.461   9.235
 1638W        W 5702   8.820   9.979  10.751
 1639W        W 5703   8.238   7.860   0.293
 1640W        W 5704   1.384   1.972   9.556
 1641W        W 5705   4.158   9.936  10.001
 1642W        W 5706   4.933   6.484   1.452
 1643W        W 5707   2.016   8.016   0.934
 1644W        W 5708   1.292   0.776   9.056
 1645W        W 5709   6.953   0.407  10.011
 1646W        W 5710   7.232   1.875   3.341
 1647W        W 5711   3.640   1.742   0.215
 1648W        W 5712   3.302   3.650   2.862
 1649W        W 5713   2.116   3.846   0.169
 1650W        W 5714   9.434   3.204  10.013
 1651W        W 5715   8.276   6.285  10.798
 1652W        W 5716   6.645   4.989   0.436
 1653W        W 5717   1.086   5.154  11.411
 1654W        W 5718   0.456   1.308  10.007
 1655W        W 5719   9.814   7.680   2.675
 1656W        W 5720  10.468   6.939   2.322
 1657W        W 5721   4.230   5.142  11.013
 1658W        W 5722   3.105   8.211  11.822
 1659W        W 5723   1.029   9.999   0.173
 1660W        W 5724   9.614   6.226   9.964
 1661W        W 5725   8.699   6.041   2.242
 1662W        W 5726   7.507   2.388   3.250
 1663W        W 5727   4.105   0.323   2.277
 1664W        W 5728   1.941   1.710  10.653
 1665W        W 5729   1.741   4.057  11.819
 1666W        W 5730   0.498   2.694  10.199
 1667W        W 5731   6.901   2.569   9.275
 1668W        W 5732   6.963   5.868   0.861
 1669W        W 5733   6.216   0.910  11.935
 1670W        W 5734   2.933   5.639   2.955
 1671W        W 5735  10.342   3.705   1.965
 1672W        W 5736   9.185   3.765  11.343
 1673W        W 5737   6.246   4.064   3.116
 1674W        W 5738   6.277  10.100   0.873
 1675W        W 5739   0.701   0.851   1.420
 1676W        W 5740   8.755   4.639   0.292
 1677W        W 5741   4.581   4.772  11.223
 1678W        W 5742   1.420   1.880  10.510
 1679W        W 5743   5.807   9.860   1.755
 1680W        W 5744   5.149   8.473  11.632
 1681W        W 5745   4.063   7.517   0.970
 1682W        W 5746   4.682   5.562   2.979
 1683W        W 5747   4.565   0.335   2.069
 1684W        W 5748   9.477   1.156   9.005
 1685W        W 5749  10.212   1.865  11.064
 1686W        W 5750   6.653   7.651   8.536
 1687W        W 5751   7.916   6.026   2.617
 1688W        W 5752   5.012   3.350   8.961
 1689W        W 5753   3.677   6.350  11.768
 1690W        W 5754   7.886   5.929  10.723
 1691W        W 5755   3.802   5.960   2.701
 1692W        W 5756   4.220   5.178  11.549
 1693W        W 5757   6.585   5.719   3.349
 1694W        W 5758   2.999   4.715   8.958
 1695W        W 5759   2.664   3.777   2.656
 1696W        W 5760   0.844   2.813   3.260
 1697W        W 5761   6.004   9.158   0.195
 1698W        W 5762   5.518   8.925   1.978
 1699W        W 5763   7.024   6.077  11.313
 1700W        W 5764   1.352   9.131  11.760
 1701W        W 5765   3.417   8.014   2.939
 1702W        W 5766   2.638   4.080   9.368
 1703W        W 5767   5.001   3.630   3.741
 1704W        W 5768   7.085   2.829  11.855
 1705W        W 5769   8.163   4.161   1.318
 1706W        W 5770   5.166   3.285  11.237
 1707W        W 5771   5.661   1.871   1.402
 1708W        W 5772   4.034   3.225   1.880
 1709W        W 5773   7.400   0.820   2.131
 1710W        W 5774   7.030   1.438  11.722
 1711W        W 5775   7.975   3.999   2.850
 1712W        W 5776   5.244   1.688   0.509
 1713W        W 5777   9.381   0.806   3.605
 1714W        W 5778   8.378   8.827   1.399
 1715W        W 5779  10.118   7.116  10.090
 1716W        W 5780   0.419   2.249  10.460
 1717W        W 5781   4.033   1.966   3.294
 1718W        W 5782   3.037   1.679   1.975
 1719W        W 5783   8.421   5.977  10.412
 1720W        W 5784   2.219   0.927   9.465
 1721W        W 5785   0.423   3.885  11.888
 1722W        W 5786  10.048   1.759   2.348
 1723W        W 5787   4.209   9.609  10.396
 1724W        W 5788   5.241   6.618   9.475
 1725W        W 5789   9.129   1.306   3.567
 1726W        W 5790   5.401   5.567   1.396
 1727W        W 5791   7.461   6.240   9.319
 1728W        W 5792   5.199   4.799   0.860
 1729W        W 5793   1.707   9.450  11.954
 1730W        W 5794   2.843   8.832   0.212
 1731W        W 5795   0.272   5.037   3.152
 1732W        W 5796   8.914   4.580   1.700
 1733W        W 5797   4.755  10.336   2.960
 1734W        W 5798   5.701   4.520  11.187
 1735W        W 5799   7.705  10.420  10.445
 1736W        W 5800   8.159   6.769  11.551
 1737W        W 5801   0.470   7.234   0.045
 1738W        W 5802   7.443   4.823   9.466
 1739W        W 5803   6.001   7.879  10.113
 1740W        W 5804   0.124   7.510  10.495
 1741W        W 5805   7.938   9.248   9.588
 1742W        W 5806   6.270   7.018  10.040
 1743W        W 5807   8.601   5.149   0.375
 1744W        W 5808   9.416   4.698   0.517
 1745W        W 5809   5.530   4.790   2.325
 1746W        W 5810   5.582   3.623  11.246
 1747W        W 5811   7.997   8.800   9.912
 1748W        W 5812   9.468   0.344   0.408
 1749W        W 5813   8.989   7.241   9.399
 1750W        W 5814   8.886   8.091   9.660
 1751W        W 5815   7.640   5.597  10.385
 1752W        W 5816   5.053   1.273   2.843
 1753W        W 5817   2.198   0.766   0.284
 1754W        W 5818   3.616   3.529   9.826
 1755W        W 5819  10.336   6.066   1.993
 1756W        W 5820   4.255   3.693   0.971
 1757W        W 5821   9.344   7.473   9.093
 1758W        W 5822   2.177   3.788   1.605
 1759W        W 5823   9.042   6.229  11.833
 1760W        W 5824   4.744   1.291   3.319
 1761W        W 5825   0.008   1.851   2.155
 1762W        W 5826   9.717   5.133  10.449
 1763W        W 5827   1.501   1.703  10.015
 1764W        W 5828   1.111   3.285   3.328
 1765W        W 5829   4.689   9.825   0.310
 1766W        W 5830  10.006   8.492   1.439
 1767W        W 5831   2.187   5.039  10.725
 1768W        W 5832   9.593   2.187   8.988
 1769W        W 5833   4.766   7.649  10.722
 1770W        W 5834   8.204   5.372  11.415
 1771W        W 5835   6.926   0.365   2.853
 1772W        W 5836   7.071   9.836   1.188
 1773W        W 5837   2.949   8.365  11.355
 1774W        W 5838   3.312   1.051   3.337
 1775W        W 5839   6.537   5.710   9.074
 1776W        W 5840   7.875   4.521   9.567
 1777W        W 5841   4.275   4.057   0.408
 1778W        W 5842   9.596   0.344   1.720
 1779W        W 5843   9.610   7.926   3.180
 1780W        W 5844   2.229   6.431   2.056
 1781W        W 5845  10.001   6.866  10.537
 1782W        W 5846   2.663   0.770   1.694
 1783W        W 5847   8.260   2.408   9.244
 1784W        W 5848  10.119   7.465  11.807
 1785W        W 5849   7.539   4.384   9.206
 1786W        W 5850   0.465   3.668   3.198
 1787W        W 5851   7.944   7.394   8.732
 1788W        W 5852   1.059   8.360   0.954
 1789W        W 5853   0.855   1.614   2.463
 1790W        W 5854   0.411   1.389   0.722
 1791W        W 5855   9.379   0.773   1.392
 1792W        W 5856   0.485   4.798  11.876
 1793W        W 5857   6.142   2.747   9.974
 1794W        W 5858   6.657   0.879   9.086
 1795W        W 5859   7.247   8.304   9.521
 1796W        W 5860   4.567   9.479  10.053
 1797W        W 5861   7.046   3.635   8.724
 1798W        W 5862   0.850   7.062   0.343
 1799W        W 5863   6.437   8.727   3.432
 1800W        W 5864   8.039  10.376   3.294
 1801W        W 5865   8.314   3.740  11.030
 1802W        W 5866  10.140   6.572   2.765
 1803W        W 5867   7.392   5.712  11.374
 1804W        W 5868   5.998   5.635  10.828
 1805W        W 5869   1.661   7.347   9.895
 1806W        W 5870   3.848   2.714   1.752
 1807W        W 5871   2.153   0.094   1.416
 1808W        W 5872   8.405   7.473   1.989
 1809W        W 5873   4.216   4.951   2.352
 1810W        W 5874   8.841   2.107  10.404
 1811W        W 5875   4.695   5.493   0.707
 1812W        W 5876   4.669   7.894   0.426
 1813W        W 5877   7.444   2.732  11.476
 1814W        W 5878   9.134   7.074  11.736
 1815W        W 5879  10.493   7.020   2.840
 1816W        W 5880   6.507   4.911   9.488
 1817W        W 5881   6.027   5.238  10.454
 1818W        W 5882   1.615   9.639  10.453
 1819W        W 5883   0.218   8.997  10.365
 1820W        W 5884   9.951   9.448   9.782
 1821W        W 5885   2.864   4.724  11.166
 1822W        W 5886   5.413   4.089  11.161
 1823W        W 5887  10.405   0.234   3.440
 1824W        W 5888   3.696   2.824   2.789
 1825W        W 5889   2.373   3.632  11.151
 1826W        W 5890   4.191   7.064   1.223
 1827W        W 5891   7.094   5.462   1.759
 1828W        W 5892   5.938   9.458   9.154
 1829W        W 5893   1.159   6.496   9.145
 1830W        W 5894   4.658   4.050   0.782
 1831W        W 5895  10.227   8.816  11.247
 1832W        W 5896   1.208   1.826   2.147
 1833W        W 5897  10.014   0.926   9.815
 1834W        W 5898   7.101   0.846   2.971
 1835W        W 5899   0.207   0.796   1.374
 1836W        W 5900   2.907   5.786   9.858
 1837W        W 5901   8.089   7.757   1.742
 1838W        W 5902   2.189   9.803   2.940
 1839W        W 5903   0.268   2.594  11.535
 1840W        W 5904   2.974   5.233  11.325
 1841W        W 5905   0.259   5.228  11.687
 1842W        W 5906   2.772   3.186   1.341
 1843W        W 5907   6.751   6.518   3.193
 1844W        W 5908   7.865   5.784   0.940
 1845W        W 5909   7.551   4.668  11.281
 1846W        W 5910   0.256   0.924  11.469
 1847W        W 5911   1.509   1.843   3.642
 1848W        W 5912   8.548   6.387   9.441
 1849W        W 5913   5.147   4.266   0.668
 1850W        W 5914   5.745  10.424   2.898
 1851W        W 5915   5.678   2.882   1.432
 1852W        W 5916   0.216  10.064  11.855
 1853W        W 5917   2.728   2.332   0.786
 1854W        W 5918   4.493   0.270  10.908
 1855W        W 5919   3.398   9.469   2.945
 1856W        W 5920   9.989   9.368  10.290
 1857W        W 5921   9.039   9.387  10.003
 1858W        W 5922   3.628   4.526  11.400
 1859W        W 5923   1.842   1.195   1.885
 1860W        W 5924   6.732   5.077   8.320
 1861W        W 5925   8.542   9.498   9.963
 1862W        W 5926   9.420   1.461   0.237
 1863W        W 5927   6.091   5.444   0.810
 1864W        W 5928   9.196   0.433   2.679
 1865W        W 5929   2.920   5.500  10.834
 1866W        W 5930   4.135   3.606  10.864
 1867W        W 5931   1.458  10.377   2.406
 1868W        W 5932   4.995   2.712  10.557
 1869W        W 5933   4.068   1.272   9.639
 1870W        W 5934   1.783   4.782  11.105
 1871W        W 5935   9.365  10.164   2.265
 1872W        W 5936   3.237   7.531   1.025
 1873W        W 5937   5.627   0.753  10.235
 1874W        W 5938   3.284   2.739   9.838
 1875W        W 5939   3.149   9.087   8.615
 1876W        W 5940   9.929   0.215  10.831
 1877W        W 5941   5.599   5.507   0.645
 1878W        W 5942   2.295   6.896  10.417
 1879W        W 5943   5.799   4.002  10.334
 1880W        W 5944   8.599  10.270  11.674
 1881W        W 5945   3.746   5.050  10.111
 1882W        W 5946   1.928   3.364   0.364
 1883W        W 5947   6.479   3.851   0.500
 1884W        W 5948   8.912   0.181  11.899
 1885W        W 5949   6.437   6.328   9.188
 1886W        W 5950   8.295   4.705   0.507
 1887W        W 5951   6.138   2.304   3.126
 1888W        W 5952   4.532   6.661  11.668
 1889W        W 5953   9.170   1.927   0.004
 1890W        W 5954   1.478   0.752  10.840
 1891W        W 5955   1.634   8.877   8.409
 1892W        W 5956   3.802   5.194   1.664
 1893W        W 5957   2.508   6.254   2.924
 1894W        W 5958  10.233   0.330   8.908
 1895W        W 5959  10.007   2.767  11.011
 1896W        W 5960   6.235   7.449   8.785
 1897W        W 5961   5.499   4.292   9.884
 1898W        W 5962   8.796   8.949  10.094
 1899W        W 5963   8.362   2.670  10.541
 1900W        W 5964   5.443   9.186   1.277
 1901W        W 5965   3.292   2.623  10.863
 1902W        W 5966   9.185   0.963   9.406
 1903W        W 5967   7.531   3.513   8.516
 1904W        W 5968   6.120   7.006   0.985
 1905W        W 5969   5.686   0.236  10.418
 1906W        W 5970   9.731   8.438   9.943
 1907W        W 5971   0.429   6.998   9.472
 1908W        W 5972   2.587   3.346   0.829
 1909W        W 5973   0.728   6.509   9.529
 1910W        W 5974   1.689   8.186   2.307
 1911W        W 5975   7.903   2.879  10.406
 1912W        W 5976   4.693   0.832   9.711
 1913W        W 5977   9.846   1.160   8.626
 1914W        W 5978   5.720   2.954  10.171
 1915W        W 5979   4.274   8.985   9.960
 1916W        W 5980   5.508   8.357   0.205
 1917W        W 5981   1.448   0.456   0.654
 1918W        W 5982   4.166   9.744   1.284
 1919W        W 5983   2.036   5.533  10.517
 1920W        W 5984   7.807   7.471   9.742
 1921W        W 5985   2.306   8.776  11.860
 1922W        W 5986   2.997   1.756   8.759
 1923W        W 5987   5.213   8.923   3.308
 1924W        W 5988   6.054   0.921  10.005
 1925W        W 5989   6.174   7.598   2.174
 1926W        W 5990   2.154   7.749   0.066
 1927W        W 5991   7.520   9.936   2.480
 1928W        W 5992   8.351   2.661   3.582
 1929W        W 5993  10.487   5.151   1.715
 1930W        W 5994   9.827   4.569   1.823
 1931W        W 5995   7.894   7.181  10.663
 1932W        W 5996   8.127   8.172   1.469
 1933W        W 5997   4.684   3.438  11.172
 1934W        W 5998   9.211   0.291   2.188
 1935W        W 5999   7.444   0.825  10.454
 1936W        W 6000   0.087   0.340   1.149
 1937W        W 6001   1.380   3.685  11.594
 1938W        W 6002  10.004   5.461   0.525
 1939W        W 6003  10.145   9.284   3.279
 1940W        W 6004   3.623   4.056  11.232
 1941W        W 6005   4.968   9.074   1.423
 1942W        W 6006   4.635   8.399  11.957
 1943W        W 6007   1.571   5.272  11.299
 1944W        W 6008   1.654   0.727   2.093
 1945W        W 6009   3.817   9.577   1.648
 1946W        W 6010   2.628   1.962   3.165
 1947W        W 6011   1.917   4.001   3.079
 1948W        W 6012   9.856   2.121   2.652
 1949W        W 6013   6.437   8.016   2.340
 1950W        W 6014   2.865   6.438  10.577
 1951W        W 6015   3.090   5.074   2.763
 1952W        W 6016   1.249   9.070  10.465
 1953W        W 6017   2.177   7.051   3.433
 1954W        W 6018   5.151   4.697   9.221
 1955W        W 6019   8.748   6.230   9.915
 1956W        W 6020   2.239   7.357   0.428
 1957W        W 6021   6.859   4.242   9.847
 1958W        W 6022   4.646   6.085  10.960
 1959W        W 6023   7.483   4.512   4.193
 1960W        W 6024   2.761   0.990  11.807
 1961W        W 6025   8.991   8.027  11.102
 1962W        W 6026   8.864   6.344   9.022
 1963W        W 6027   7.628   4.140  11.435
 1964W        W 6028   9.746   6.223   2.844
 1965W        W 6029   9.314   2.350  10.517
 1966W        W 6030   8.146   4.662   2.445
 1967W        W 6031   0.457   7.028   2.476
 1968W        W 6032  10.453   2.240  11.356
 1969W        W 6033   2.671   6.979   3.649
 1970W        W 6034   8.057   9.059   3.536
 1971W        W 6035   5.476   8.847   0.311
 1972W        W 6036   2.554   9.893  11.791
 1973W        W 6037   4.498   3.176   9.878
 1974W        W 6038   2.213  10.302   0.974
 1975W        W 6039   0.857   9.003  11.786
 1976W        W 6040   3.590  10.491   1.209
 1977W        W 6041   8.305   5.140   0.793
 1978W        W 6042   7.531   0.696   8.468
 1979W        W 6043   0.727   1.117   2.374
 1980W        W 6044   9.492   0.144  10.086
 1981W        W 6045   8.844   2.840   3.507
 1982W        W 6046   6.599   7.114  11.010
 1983W        W 6047   5.594   7.896   9.229
 1984W        W 6048   1.987   6.969   0.220
 1985W        W 6049   6.000   4.092   3.561
 1986W        W 6050   2.785  10.036   0.970
 1987W        W 6051   9.663   3.442   9.578
 1988W        W 6052   0.647   8.560   2.457
 1989W        W 6053   0.662   8.659   0.829
 1990W        W 6054   5.803   9.961   8.938
 1991W        W 6055   7.639   3.174  10.752
 1992W        W 6056   3.575   0.264   9.055
 1993W        W 6057   2.885   2.119  10.450
 1994W        W 6058   3.904   1.316   0.326
 1995W        W 6059   0.357   5.845  10.647
 1996W        W 6060   8.335   4.740  11.034
 1997W        W 6061   3.328   9.459  10.361
 1998W        W 6062   5.079   6.221   3.765
 1999W        W 6063   7.160   4.283  11.336
 2000W        W 6064   5.457   0.929   2.635
 2001W        W 6065   7.909   2.724   3.273
 2002W        W 6066   0.384   2.520   9.656
 2003W        W 6067  10.345   7.424   3.302
 2004W        W 6068   5.773   2.713   0.938
 2005W        W 6069   7.441   2.700  10.516
 2006W        W 6070   2.231   2.888   9.005
 2007W        W 6071   6.878   8.071   1.506
 2008W        W 6072   6.534   0.625   1.686
 2009W        W 6073  10.025   8.322   9.046
 2010W        W 6074   7.356   8.702   9.218
 2011W        W 6075   3.361   3.117   3.785
 2012W        W 6076   8.345   1.320   2.801
 2013W        W 6077   9.467   1.541   3.200
 2014W        W 6078   7.242   7.631   1.380
 2015W        W 6079   0.776   1.892   2.883
 2016W        W 6080   1.288   8.055   2.032
 2017W        W 6081   5.766   3.897   2.283
 2018W        W 6082   5.001   0.413   9.687
 2019W        W 6083  10.344   7.465   9.506
 2020W        W 6084   9.652  10.285   3.122
 2021W        W 6085   5.151   8.059   9.459
 2022W        W 6086   0.448   4.507   9.994
 2023W        W 6087   5.235   8.947  11.481
 2024W        W 6088   9.139   8.334  11.475
 2025W        W 6089   2.844   9.236   2.261
 2026W        W 6090   7.776   9.402   3.235
 2027W        W 6091  10.252   8.403   9.981
 2028W        W 6092   2.723   0.724   0.244
 2029W        W 6093   1.482   7.603   0.730
 2030W        W 6094   8.065   1.412  10.361
 2031W        W 6095   3.817   7.589  11.033
 2032W        W 6096   4.242   4.456   2.293
 2033W        W 6097   7.410   7.945   0.749
 2034W        W 6098   9.038   1.579  11.609
 2035W        W 6099   1.228   8.584   3.223
 2036W        W 6100   0.462   1.396  11.359
 2037W        W 6101   9.868   8.380  10.967
 2038W        W 6102   3.792   0.392   0.949
 2039W        W 6103   8.555   1.377   0.581
 2040W        W 6104   5.728   2.880   2.340
 2041W        W 6105   3.401   5.746   3.214
 2042W        W 6106   8.425   2.813   9.539
 2043W        W 6107   8.886   6.191   1.770
 2044W        W 6108   2.361   0.294   3.262
 2045W        W 6109   8.659   9.027   1.787
 2046W        W 6110   6.705   1.793   9.183
 2047W        W 6111   1.488   9.950   9.450
 2048W        W 6112   1.882   8.082  11.463
 2049W        W 6113   1.693   6.198   8.508
 2050W        W 6114   1.341   1.075   1.845
 2051W        W 6115  10.079   6.982  11.602
 2052W        W 6116   3.581   2.296   9.115
 2053W        W 6117   2.317   5.695   2.732
 2054W        W 6118   7.421   2.607   9.510
 2055W        W 6119   2.396   9.678  11.330
 2056W        W 6120   1.236   9.404  11.038
 2057W        W 6121  10.425   5.705  10.872
 2058W        W 6122   9.960   1.364  11.541
 2059W        W 6123   0.312   1.479   9.504
 2060W        W 6124  10.415   2.405   9.532
 2061W        W 6125   6.174   6.508   0.745
 2062W        W 6126   2.376   9.632  10.132
 2063W        W 6127   1.078   7.378  10.455
 2064W        W 6128   4.612   5.139   8.851
 2065W        W 6129   5.153   9.537   2.652
 2066W        W 6130   2.364   2.108   0.513
 2067W        W 6131   3.945   4.228   4.035
 2068W        W 6132   4.709   2.430   3.139
 2069W        W 6133   2.794   4.629   8.496
 2070W        W 6134   5.552   4.379   3.567
 2071W        W 6135   5.239   0.887  11.434
 2072W        W 6136   4.522   4.653   1.431
 2073W        W 6137   5.669   0.766   3.080
 2074W        W 6138   1.464   8.923   1.492
 2075W        W 6139   1.109   8.980  11.324
 2076W        W 6140   2.344   6.036   2.351
 2077W        W 6141   0.804   2.642   9.272
 2078W        W 6142   3.906   1.912  10.248
 2079W        W 6143   0.853   7.700   1.876
 2080W        W 6144   5.295   4.441  11.508
 2081W        W 6145   5.256  10.492  10.833
 2082W        W 6146   2.863   4.000   1.396
 2083W        W 6147   7.453   6.104  11.015
 2084W        W 6148   5.915   3.182   9.767
 2085W        W 6149   8.470   9.504   9.452
 2086W        W 6150   9.622  10.179  11.598
 2087W        W 6151   8.290   5.102  10.478
 2088W        W 6152   2.619   7.081   9.217
 2089W        W 6153   6.328   9.432   8.826
 2090W        W 6154   0.821   5.253   0.526
 2091W        W 6155  10.076   1.411   9.682
 2092W        W 6156   6.513   1.138   1.880
 2093W        W 6157   0.066   9.505   2.981
 2094W        W 6158   9.471   2.897  11.795
 2095W        W 6159   3.673   9.343  11.788
 2096W        W 6160   9.842   5.207   2.891
 2097W        W 6161   6.562   4.338   0.430
 2098W        W 6162   8.294  10.468  11.268
 2099W        W 6163   9.208   6.125   2.153
 2100W        W 6164   0.454   2.058   0.388
 2101W        W 6165   3.019   8.713  11.736
 2102W        W 6166   5.483   2.141   0.449
 2103W        W 6167   8.987   7.527  11.023
 2104W        W 6168   8.737   3.561  11.257
 2105W        W 6169   5.075   5.203   9.094
 2106W        W 6170   8.999   8.370  10.627
 2107W        W 6171   2.368   4.915   8.479
 2108W        W 6172   3.692   0.860   0.185
 2109W        W 6173   4.284   9.255   3.737
 2110W        W 6174   9.113   2.358   8.868
 2111W        W 6175   2.649   0.532   2.481
 2112W        W 6176   8.494   7.933  10.975
 2113W        W 6177   7.023   3.579   2.247
 2114W        W 6178   3.662  10.384   8.701
 2115W        W 6179   6.239   6.749  11.046
 2116W        W 6180   3.531   1.720   2.163
 2117W        W 6181   9.833   1.519  11.055
 2118W        W 6182   3.762   0.404   1.467
 2119W        W 6183  10.100  10.234   3.465
 2120W        W 6184   8.376   8.125   1.025
 2121W        W 6185   8.868   9.238  11.867
 2122W        W 6186   2.946   7.660   2.909
 2123W        W 6187   9.959   9.268  10.775
 2124W        W 6188   5.662   6.694   9.761
 2125W        W 6189   7.948   6.221  11.207
 2126W        W 6190   7.472   0.353   1.897
 2127W        W 6191   6.824   9.401  11.584
 2128W        W 6192   8.151   1.328   0.872
 2129W        W 6193   1.181   2.632  11.565
 2130W        W 6194   8.915   9.959   2.494
 2131W        W 6195   4.968   5.989  10.089
 2132W        W 6196   1.008   4.701   2.224
 2133W        W 6197   2.800   8.905  10.897
 2134W        W 6198   4.263   0.328   0.717
 2135W        W 6199  10.371   0.392  10.528
 2136W        W 6200   4.053   9.845   2.291
 2137W        W 6201   9.108   3.859  10.429
 2138W        W 6202   5.742   0.218   1.484
 2139W        W 6203   3.190   3.329   8.600
 2140W        W 6204   3.643   9.046   0.805
 2141W        W 6205   0.834   0.775   9.386
 2142W        W 6206   2.379   1.239   0.358
 2143W        W 6207   0.858   6.960   9.762
 2144W        W 6208   1.773   2.115   8.804
 2145W        W 6209   3.424   1.418  11.369
 2146W        W 6210   5.776   7.389   1.240
 2147W        W 6211   0.810   5.839   0.780
 2148W        W 6212   6.077   7.950   9.061
 2149W        W 6213   1.941  10.413  10.153
 2150W        W 6214   6.161   1.672   2.478
 2151W        W 6215   1.801   6.732   3.567
 2152W        W 6216   1.384   5.930  10.959
 2153W        W 6217   1.490   2.658   1.761
 2154W        W 6218   7.881   1.694   0.582
 2155W        W 6219   9.751   1.826   0.373
 2156W        W 6220   2.077   5.425   0.920
 2157W        W 6221   4.000   6.508   3.311
 2158W        W 6222   4.263   9.553   1.872
 2159W        W 6223   2.877   5.563  11.724
 2160W        W 6224   9.285   9.852   3.313
 2161W        W 6225   8.024   2.262   3.028
 2162W        W 6226   2.220   2.263   3.314
 2163W        W 6227   7.995  10.142   2.339
 2164W        W 6228   6.899  10.341  11.458
 2165W        W 6229   2.739   3.577   8.735
 2166W        W 6230   7.821   8.493  11.608
 2167W        W 6231   9.116  10.301  11.564
 2168W        W 6232   6.957   2.712   0.347
 2169W        W 6233   3.142   0.885   1.455
 2170W        W 6234   1.040   4.971   8.903
 2171W        W 6235   0.701  10.343   1.420
 2172W        W 6236   7.091   2.308   0.060
 2173W        W 6237   6.522   4.671   2.594
 2174W        W 6238   8.574   2.730  10.035
 2175W        W 6239   3.603   7.964  10.471
 2176W        W 6240   9.041   6.973   1.152
 2177W        W 6241   7.954   4.379   3.167
 2178W        W 6242   1.407   4.658  11.467
 2179W        W 6243   4.718   8.931  10.741
 2180W        W 6244   6.701   7.208  11.901
 2181W        W 6245   8.007   9.887   8.548
 2182W        W 6246   9.492   4.089   2.252
 2183W        W 6247   9.379   8.017  10.486
 2184W        W 6248   5.004   3.285  10.754
 2185W        W 6249   5.658   5.820  11.674
 2186W        W 6250   3.670   9.553   8.934
 2187W        W 6251   4.065  10.467   9.038
 2188W        W 6252   5.652   8.483   2.197
 2189W        W 6253   3.315   6.645  10.854
 2190W        W 6254   1.653   6.620   0.064
 2191W        W 6255   8.062   1.231  10.870
 2192W        W 6256   3.288   6.653  10.323
 2193W        W 6257   9.549   1.738   2.478
 2194W        W 6258   8.912   0.847   3.389
 2195W        W 6259   7.342   4.372  11.834
 2196W        W 6260   1.188   2.738  10.675
 2197W        W 6261   1.167   4.509   0.523
 2198W        W 6262   3.360   2.040   1.816
 2199W        W 6263   2.187   7.014  10.937
 2200W        W 6264   4.510   3.189   0.800
 2201W        W 6265   5.639   6.034   0.562
 2202W        W 6266   5.345   6.821   1.904
 2203W        W 6267   1.758   3.628   1.360
 2204W        W 6268   7.632   4.038   9.582
 2205W        W 6269   9.376   7.597   1.780
 2206W        W 6270   6.975   1.946  11.711
 2207W        W 6271   1.710   5.215  10.802
 2208W        W 6272   2.837   0.570   0.806
 2209W        W 6273   9.523   7.010   9.375
 2210W        W 6274   2.632   4.146   1.837
 2211W        W 6275   2.440   6.264  11.939
 2212W        W 6276   6.179   4.740   1.570
 2213W        W 6277   0.609   8.155   0.791
 2214W        W 6278   8.993   8.330   9.228
 2215W        W 6279   9.764   1.603   8.355
 2216W        W 6280   6.455   5.208   9.085
 2217W        W 6281   3.689   5.721  11.209
 2218W        W 6282   2.554   5.579  10.452
 2219W        W 6283   5.353   1.745  10.389
 2220W        W 6284   5.275   1.281   0.161
 2221W        W 6285   8.831   7.843   1.014
 2222W        W 6286   8.776   5.088  10.338
 2223W        W 6287   6.685   5.671   2.844
 2224W        W 6288   3.174   5.303   0.427
 2225W        W 6289   8.649   2.246   0.820
 2226W        W 6290   0.661   7.915  10.988
 2227W        W 6291   8.529   8.959   8.598
 2228W        W 6292   3.331   3.034   3.196
 2229W        W 6293   2.301   0.262   2.758
 2230W        W 6294   5.252   2.138   2.620
 2231W        W 6295   6.962   8.026   9.861
 2232W        W 6296   1.870   0.114   2.220
 2233W        W 6297   2.876   9.891  10.881
 2234W        W 6298   4.035   9.118  11.483
 2235W        W 6299   1.886   2.239   3.722
 2236W        W 6300   7.033   4.010   3.542
 2237W        W 6301   0.324   0.505   9.774
 2238W        W 6302   9.000   2.254   2.825
 2239W        W 6303   2.863   2.684   1.410
 2240W        W 6304   7.087   7.930   2.996
 2241W        W 6305   3.269   1.815   9.207
 2242W        W 6306   4.625   1.295   2.008
 2243W        W 6307   9.406   9.280   9.578
 2244W        W 6308   0.413   0.737   8.764
 2245W        W 6309  10.294   8.313  11.251
 2246W        W 6310   5.421   0.425   8.844
 2247W        W 6311   0.827  10.322  11.480
 2248W        W 6312   8.438   9.478   0.745
 2249W        W 6313   7.991   2.274   3.539
 2250W        W 6314   3.484   8.904  10.326
 2251W        W 6315   4.214   6.056   0.952
 2252W        W 6316   5.267  10.485   9.779
 2253W        W 6317   7.317   8.369   3.162
 2254W        W 6318   6.649   0.207   2.465
 2255W        W 6319   1.607   9.562   2.086
 2256W        W 6320   4.370   1.962  10.468
 2257W        W 6321   1.523   4.696   2.263
 2258W        W 6322   3.152   9.459   9.000
 2259W        W 6323   8.950   1.114  11.378
 2260W        W 6324   3.076   2.201  11.737
 2261W        W 6325   3.378   8.337   9.401
 2262W        W 6326   1.423   7.582   9.509
 2263W        W 6327   0.930   7.391  11.904
 2264W        W 6328   5.156   9.047   2.815
 2265W        W 6329   6.954   6.962   1.846
 2266W        W 6330   1.866   2.131  10.362
 2267W        W 6331   9.006   0.531   0.295
 2268W        W 6332   7.634   6.888   9.746
 2269W        W 6333   6.660   1.169   0.010
 2270W        W 6334   1.419   5.139  11.793
 2271W        W 6335   4.556   9.297  11.061
 2272W        W 6336   4.704   9.315   3.435
 2273W        W 6337   3.374   7.881  11.544
 2274W        W 6338   1.060  10.477  11.925
 2275W        W 6339   8.913   1.528   0.258
 2276W        W 6340   3.646   5.554   1.977
 2277W        W 6341   6.196   1.861  10.451
 2278W        W 6342   3.038   6.962   3.183
 2279W        W 6343   1.082   1.884   1.364
 2280W        W 6344   7.337   9.661  11.059
 2281W        W 6345   8.147   9.441   2.877
 2282W        W 6346   3.284   4.283   8.798
 2283W        W 6347   2.269   9.079  11.441
 2284W        W 6348   1.545   6.163   2.904
 2285W        W 6349   8.189   2.557  11.009
 2286W        W 6350   5.669   2.044  11.989
 2287W        W 6351   1.576   1.774   1.280
 2288W        W 6352   0.425   7.133  10.651
 2289W        W 6353   0.450   2.120  11.451
 2290W        W 6354   1.327   4.035   8.642
 2291W        W 6355   1.953   7.011   0.960
 2292W        W 6356   0.964   0.276   0.615
 2293W        W 6357   3.673   2.206   3.040
 2294W        W 6358   8.967   4.169   0.423
 2295W        W 6359   2.397   8.597   0.330
 2296W        W 6360   1.770   4.243  10.978
 2297W        W 6361   1.892   8.449   8.544
 2298W        W 6362   4.262   7.050   0.185
 2299W        W 6363   9.211   7.473   2.283
 2300W        W 6364   0.712   4.013   2.910
 2301W        W 6365   2.154   7.984   9.690
 2302W        W 6366   7.106   6.713   4.079
 2303W        W 6367   9.442   6.166   0.711
 2304W        W 6368   7.662   9.728   0.846
 2305W        W 6369   1.060   9.435   2.774
 2306W        W 6370   6.897   1.283   2.209
 2307W        W 6371   2.306   4.791   3.251
 2308W        W 6372   3.843   8.468   1.409
 2309W        W 6373   8.892   8.383   0.982
 2310W        W 6374   3.961   6.726   1.977
 2311W        W 6375   9.191   3.597   8.890
 2312W        W 6376   5.546   9.853   2.185
 2313W        W 6377   0.453   6.163  11.655
 2314W        W 6378   8.804   6.661   0.572
 2315W        W 6379   6.135   1.848  11.552
 2316W        W 6380  10.453   1.337   1.938
 2317W        W 6381   9.876   1.768   9.985
 2318W        W 6382   9.997   1.159   0.014
 2319W        W 6383   8.979   1.976   1.621
 2320W        W 6384   7.982   2.719   1.728
 2321W        W 6385   1.557   5.381   0.220
 2322W        W 6386   0.846   8.110  10.572
 2323W        W 6387   6.685   8.003   0.262
 2324W        W 6388   5.469   5.209   2.651
 2325W        W 6389  10.497   8.449   2.666
 2326W        W 6390   9.942   2.588   3.364
 2327W        W 6391   3.165   3.543   1.742
 2328W        W 6392   9.850   3.243  11.827
 2329W        W 6393   7.191   3.017   9.277
 2330W        W 6394   1.362   0.526   8.600
 2331W        W 6395   3.464   4.169  10.758
 2332W        W 6396   7.665   6.005   8.335
 2333W        W 6397   4.829   2.793   0.931
 2334W        W 6398   1.723   5.855   9.715
 2335W        W 6399   7.359   6.039   1.778
 2336W        W 6400   4.128   8.833   2.389
 2337W        W 6401   4.535   3.631  10.126
 2338W        W 6402   0.756   1.664   0.455
 2339W        W 6403   1.571   6.448   1.889
 2340W        W 6404   4.336   1.003  11.406
 2341W        W 6405   7.008   7.596  10.137
 2342W        W 6406   1.691   0.061   0.354
 2343W        W 6407   4.388   2.640  11.064
 2344W        W 6408   4.233   3.402  11.423
 2345W        W 6409   3.541   1.722   0.870
 2346W        W 6410   6.459   0.217   1.994
 2347W        W 6411   5.067   4.062   8.134
 2348W        W 6412   3.199   4.649  10.053
 2349W        W 6413   1.457   0.772  11.877
 2350W        W 6414   8.973   8.458  10.095
 2351W        W 6415   9.001   7.906   1.535
 2352W        W 6416   2.917   0.273   0.407
 2353W        W 6417   9.973   8.773  11.937
 2354W        W 6418   2.214   6.044  10.994
 2355W        W 6419   3.629   2.598   0.743
 2356W        W 6420  10.156   8.733  10.735
 2357W        W 6421   1.868   7.426  11.146
 2358W        W 6422   0.240   0.244   8.860
 2359W        W 6423   7.446   7.551  11.436
 2360W        W 6424   8.532   6.533  11.784
 2361W        W 6425   9.649   6.623   0.900
 2362W        W 6426   7.250   3.201   1.010
 2363W        W 6427   7.663   9.099   9.071
 2364W        W 6428   8.901   7.855  10.624
 2365W        W 6429   3.331   6.971   8.548
 2366W        W 6430   6.698   1.666  10.258
 2367W        W 6431   3.288   7.888   0.671
 2368W        W 6432   4.580   9.844   3.167
 2369W        W 6433   9.703  10.243   9.830
 2370W        W 6434   9.871   5.437  11.527
 2371W        W 6435   7.932  10.188   0.830
 2372W        W 6436   6.636   8.757   2.983
 2373W        W 6437   0.372   1.373   2.683
 2374W        W 6438   0.161   6.740  10.879
 2375W        W 6439   7.580   5.562   1.692
 2376W        W 6440   6.697   1.662   9.730
 2377W        W 6441   6.386   5.723   1.604
 2378W        W 6442   3.388   9.764  11.629
 2379W        W 6443   4.763   1.241  11.876
 2380W        W 6444   1.181   6.102   3.258
 2381W        W 6445   6.282   3.659   0.936
 2382W        W 6446   8.142   3.060  10.825
 2383W        W 6447   7.142   5.474   2.813
 2384W        W 6448   5.680  10.262   2.433
 2385W        W 6449   1.383   6.565  10.184
 2386W        W 6450   8.093   7.546  10.349
 2387W        W 6451   8.020   2.224   2.502
 2388W        W 6452   7.054   3.368  11.579
 2389W        W 6453   2.753   8.802  10.061
 2390W        W 6454  10.066   0.170   1.618
 2391W        W 6455   1.854   6.448   3.166
 2392W        W 6456   1.663   9.237  10.771
 2393W        W 6457   2.700   4.477   0.043
 2394W        W 6458   4.490   6.608   2.711
 2395W        W 6459   1.400   7.218   1.513
 2396W        W 6460   2.235   6.010  10.455
 2397W        W 6461   7.416   4.549   1.316
 2398W        W 6462   4.692   9.356   0.070
 2399W        W 6463   8.764   5.218   3.224
 2400W        W 6464   9.837   6.970   0.577
 2401W        W 6465   4.842   5.037   1.210
 2402W        W 6466   3.139   6.344   8.361
 2403W        W 6467   2.586   3.860  11.939
 2404W        W 6468   7.494   7.491   1.848
 2405W        W 6469   6.951   0.870   1.909
 2406W        W 6470   9.526   1.530   0.758
 2407W        W 6471   7.532   5.468   1.192
 2408W        W 6472   5.038   9.655   2.168
 2409W        W 6473   2.001   2.851   9.457
 2410W        W 6474   6.911   5.595  11.519
 2411W        W 6475   9.819   5.609   0.045
 2412W        W 6476   4.261   8.345   9.196
 2413W        W 6477   2.335   2.277   2.805
 2414W        W 6478   6.995   4.197   0.187
 2415W        W 6479   0.363   7.492   3.399
 2416W        W 6480   7.014   9.858  11.778
 2417W        W 6481   5.099   5.378  11.517
 2418W        W 6482   3.805   6.451   9.633
 2419W        W 6483   2.936   9.845   9.482
 2420W        W 6484   7.930   3.331  11.618
 2421W        W 6485   3.542   4.318   9.511
 2422W        W 6486   0.812   1.133   0.989
 2423W        W 6487   7.069   5.802   4.065
 2424W        W 6488   3.737   9.901   8.508
 2425W        W 6489   4.211   7.944   0.676
 2426W        W 6490   9.058   2.363   0.554
 2427W        W 6491   8.460   2.839   1.558
 2428W        W 6492   9.396   4.582   2.096
 2429W        W 6493   8.230   1.030   1.849
 2430W        W 6494   2.968   9.240   3.131
 2431W        W 6495   5.003   0.374   3.071
 2432W        W 6496   8.556   7.968   1.894
 2433W        W 6497   8.112   6.633   9.512
 2434W        W 6498   5.204   4.633  10.516
 2435W        W 6499   6.035  10.134   9.400
 2436W        W 6500   8.331   1.712   0.277
 2437W        W 6501   1.921   7.370   1.803
 2438W        W 6502   3.249   9.406   0.566
 2439W        W 6503   3.939   1.037   3.515
 2440W        W 6504   9.932   1.341   9.179
 2441W        W 6505   5.903   4.100  11.420
 2442W        W 6506   8.048   5.636   1.864
 2443W        W 6507   7.450   8.215   2.702
 2444W        W 6508  10.299   7.970   2.649
 2445W        W 6509  10.165   6.727   0.894
 2446W        W 6510   5.726  10.291  10.673
 2447W        W 6511   5.659   0.727  11.699
 2448W        W 6512   4.224  10.325  10.838
 2449W        W 6513   3.708   6.952   2.414
 2450W        W 6514   6.913   9.775   3.571
 2451W        W 6515   3.257   3.816  11.504
 2452W        W 6516   1.199   5.652  11.354
 2453W        W 6517   2.113   3.162   0.778
 2454W        W 6518  10.490   7.009  10.414
 2455W        W 6519   4.003   2.259   9.862
 2456W        W 6520   5.911   2.656   9.534
 2457W        W 6521   3.580   6.575  11.321
 2458W        W 6522   4.739   3.207   9.397
 2459W        W 6523   3.839   2.371   2.590
 2460W        W 6524   6.380   6.685   3.657
 2461W        W 6525   0.185   6.593   2.626
 2462W        W 6526   8.735   6.516   3.457
 2463W        W 6527   4.566   7.959   9.446
 2464W        W 6528   3.663   1.361  11.843
 2465W        W 6529   5.686   7.915   8.719
 2466W        W 6530   0.845   5.036   1.271
 2467W        W 6531   0.978   3.291  10.918
 2468W        W 6532   6.534   4.369   1.393
 2469W        W 6533   7.001   2.026  10.952
 2470W        W 6534   7.604   6.679  10.344
 2471W        W 6535   4.104   9.624   9.248
 2472W        W 6536   5.013   7.755   1.607
 2473W        W 6537   1.145   8.978   3.543
 2474W        W 6538   4.094   3.096   1.051
 2475W        W 6539   1.436   1.438   3.314
 2476W        W 6540   3.823   9.852   9.604
 2477W        W 6541   3.293   1.354   1.690
 2478W        W 6542   8.450  10.247   0.277
 2479W        W 6543   3.279   8.954   2.854
 2480W        W 6544   7.997   8.208   1.999
 2481W        W 6545   0.742   9.010  10.359
 2482W        W 6546   7.274   2.844   3.431
 2483W        W 6547   9.238  10.336   0.544
 2484W        W 6548   5.964   0.352   1.918
 2485W        W 6549   7.165   4.184   1.582
 2486W        W 6550   6.153   9.090   3.208
 2487W        W 6551   8.672   3.591   8.993
 2488W        W 6552  10.480   5.307   0.381
 2489W        W 6553   8.970   2.493   1.498
 2490W        W 6554   6.473   1.934   8.699
 2491W        W 6555   6.219   7.778   3.140
 2492W        W 6556  10.001   9.224   0.849
 2493W        W 6557  10.452   7.998  10.249
 2494W        W 6558   7.982   7.308   0.793
 2495W        W 6559   3.317   9.963   8.842
 2496W        W 6560   5.993   9.106   9.532
 2497W        W 6561   8.828   0.410   3.042
 2498W        W 6562   4.431   7.040   8.448
 2499W        W 6563   1.129   8.516   2.305
 2500W        W 6564   8.633   7.026  11.771
 2501W        W 6565   5.240   8.696   1.164
 2502W        W 6566   3.726   3.863   3.103
 2503W        W 6567   6.040   1.214   1.710
 2504W        W 6568  10.389   5.755   3.255
 2505W        W 6569   3.290   0.234   2.127
 2506W        W 6570  10.415   5.757   0.691
 2507W        W 6571   9.348   2.670   3.329
 2508W        W 6572  10.074   3.037   0.365
 2509W        W 6573   1.689   7.049   3.201
 2510W        W 6574   3.627   6.740   0.693
 2511W        W 6575   8.158   7.094   9.709
 2512W        W 6576   4.209   7.036   2.340
 2513W        W 6577   5.616   8.935   9.185
 2514W        W 6578   9.308   3.316   1.419
 2515W        W 6579   8.851   7.129   2.185
 2516W        W 6580   3.528   7.517   0.029
 2517W        W 6581   2.784   6.457   1.360
 2518W        W 6582   3.071   3.137   0.910
 2519W        W 6583   8.593   3.307   0.627
 2520W        W 6584   7.436   1.381   9.172
 2521W        W 6585   0.488   9.418  10.568
 2522W        W 6586   7.346   6.749   1.538
 2523W        W 6587   5.311   3.908   4.308
 2524W        W 6588   1.250   9.459   1.743
 2525W        W 6589   8.040   3.790   9.802
 2526W        W 6590   8.188   7.092   9.138
 2527W        W 6591   1.255   0.481   9.478
 2528W        W 6592   5.588   3.179   1.012
 2529W        W 6593   1.699   2.195   0.959
 2530W        W 6594   8.507   0.187   3.442
 2531W        W 6595   2.858   8.356   1.222
 2532W        W 6596   5.366   9.819   8.615
 2533W        W 6597   0.771   6.112  10.377
 2534W        W 6598   6.681   0.144   3.362
 2535W        W 6599   2.300   6.264   1.271
 2536W        W 6600   8.474   2.204   3.314
 2537W        W 6601   2.259   0.446  10.741
 2538W        W 6602   3.128   2.788   2.818
 2539W        W 6603   0.356   0.187   1.997
 2540W        W 6604   7.500   7.688  10.080
 2541W        W 6605   6.953   8.402   9.113
 2542W        W 6606   7.293   9.459   3.420
 2543W        W 6607   2.379   0.803  10.402
 2544W        W 6608   4.701   8.375   1.923
 2545W        W 6609   5.540   8.127  11.750
 2546W        W 6610   0.196   3.615  11.502
 2547W        W 6611   8.881   9.120  11.091
 2548W        W 6612  10.387   6.509  10.526
 2549W        W 6613   0.414   2.828   8.827
 2550W        W 6614   0.036   1.632   9.904
 2551W        W 6615   1.422  10.040  11.223
 2552W        W 6616   4.472   5.170   1.542
 2553W        W 6617   6.133   2.543   2.164
 2554W        W 6618   3.254   0.902  11.927
 2555W        W 6619   2.147   6.623   9.863
 2556W        W 6620   8.077   4.104   1.815
 2557W        W 6621   7.943   8.133   2.530
 2558W        W 6622   7.047   8.571  10.502
 2559W        W 6623   7.608   2.301   1.703
 2560W        W 6624   9.293   4.043   2.724
 2561W        W 6625   9.974   4.225   0.960
 2562W        W 6626   7.447   9.448   0.441
 2563W        W 6627   9.056   0.783   0.801
 2564W        W 6628   3.081   5.626  10.349
 2565W        W 6629   6.441   5.400   8.620
 2566W        W 6630   5.678   3.023  11.946
 2567W        W 6631   4.272   0.803   1.411
 2568W        W 6632   2.765   9.278  11.284
 2569W        W 6633   3.616   2.726  11.259
 2570W        W 6634   7.184   9.366   0.928
 2571W        W 6635   5.699   1.872   9.980
 2572W        W 6636   3.675   2.130   0.544
 2573W        W 6637   0.011   5.201   9.060
 2574W        W 6638   4.654   9.836  11.268
 2575W        W 6639  10.114   4.980   1.986
 2576W        W 6640   7.457   9.308   1.773
 2577W        W 6641   4.274   7.609  10.796
 2578W        W 6642   3.175   4.590  11.905
 2579W        W 6643  10.192   4.966  10.502
 2580W        W 6644   5.608   5.522  11.223
 2581W        W 6645   0.491   4.638   2.880
 2582W        W 6646   8.123   3.889   0.295
 2583W        W 6647   2.431   8.459   2.470
 2584W        W 6648   1.294   4.201   9.295
 2585W        W 6649   7.964   0.782  11.377
 2586W        W 6650   3.372   0.891   1.925
 2587W        W 6651   5.654   5.005   0.709
 2588W        W 6652   1.979   1.609   1.586
 2589W        W 6653   4.060   5.755   9.177
 2590W        W 6654   6.564   8.446   1.257
 2591W        W 6655   3.684   6.715   8.846
 2592W        W 6656   1.800   1.059   0.169
 2593W        W 6657   5.094   7.366   3.003
 2594W        W 6658   6.148   8.648   2.917
 2595W        W 6659   1.386   5.877   0.256
 2596W        W 6660   3.061   6.527  11.356
 2597W        W 6661   0.873   9.300   8.987
 2598W        W 6662   3.124   9.960  10.261
 2599W        W 6663   2.513   7.205   1.917
 2600W        W 6664   0.396   7.750  10.127
 2601W        W 6665   7.271   3.657   0.758
 2602W        W 6666   2.924   1.730   1.447
 2603W        W 6667   1.950   3.094   3.176
 2604W        W 6668   3.729   1.875  10.750
 2605W        W 6669   9.363   2.845  10.404
 2606W        W 6670   0.846   1.378   1.456
 2607W        W 6671   1.293   3.476   2.005
 2608W        W 6672   3.097   8.818   2.410
 2609W        W 6673  10.284   9.860  10.313
 2610W        W 6674   3.786  10.428  11.698
 2611W        W 6675   1.403   5.212   9.189
 2612W        W 6676   1.319   8.296   0.061
 2613W        W 6677   6.084   4.796  10.165
 2614W        W 6678   1.286   2.319   3.580
 2615W        W 6679   3.428   5.024   3.605
 2616W        W 6680   3.976   5.723   0.172
 2617W        W 6681   6.697   3.664  10.519
 2618W        W 6682   8.460   1.858   9.889
 2619W        W 6683   2.715   6.709   2.755
 2620W        W 6684   4.238   9.873   0.719
 2621W        W 6685   8.199   6.497   1.305
 2622W        W 6686   8.970   0.083   9.513
 2623W        W 6687   5.063   9.401  10.244
 2624W        W 6688   6.511  10.312  11.106
 2625W        W 6689   7.222   7.274  11.806
 2626W        W 6690   6.592   1.242  11.019
 2627W        W 6691   2.025   1.843  11.229
 2628W        W 6692   9.574   5.513  10.774
 2629W        W 6693   0.504   4.665   2.357
 2630W        W 6694   9.413   4.726   1.559
 2631W        W 6695   8.477   4.270   8.995
 2632W        W 6696   8.311   8.785  10.433
 2633W        W 6697   6.754   8.426   9.610
 2634W        W 6698   6.454   8.077   9.399
 2635W        W 6699   2.258   3.399  11.976
 2636W        W 6700   6.461   7.915   9.898
 2637W        W 6701   0.686   5.399   2.858
 2638W        W 6702   2.782   0.755   8.578
 2639W        W 6703   8.614   0.487  10.805
 2640W        W 6704   7.499   6.216  11.507
 2641W        W 6705   1.973   0.835  10.929
 2642W        W 6706   6.081   9.966   3.303
 2643W        W 6707   8.897  10.394   2.196
 2644W        W 6708   6.420   5.515  11.654
 2645W        W 6709   7.057   4.428   9.398
 2646W        W 6710   8.609   5.903   0.453
 2647W        W 6711   5.804   9.918   0.889
 2648W        W 6712   2.119   3.891   2.633
 2649W        W 6713   7.386   2.266  11.220
 2650W        W 6714   5.650   7.809   1.857
 2651W        W 6715  10.218   0.794   8.618
 2652W        W 6716   1.395   8.478   8.651
 2653W        W 6717   9.835   3.851   0.650
 2654W        W 6718   0.870   2.225  11.731
 2655W        W 6719   9.721   0.268  11.744
 2656W        W 6720   2.175   0.893   3.356
 2657W        W 6721   4.832   6.888   1.906
 2658W        W 6722   0.261  10.376   0.305
 2659W        W 6723   1.627   0.748   9.977
 2660W        W 6724   9.237   2.719   0.210
 2661W        W 6725   8.867   0.690   2.112
 2662W        W 6726   4.476   6.588   8.163
 2663W        W 6727   4.040   2.887   9.008
 2664W        W 6728   8.560   3.359  10.772
 2665W        W 6729   9.933   3.526  10.549
 2666W        W 6730   8.899   4.534   9.173
 2667W        W 6731   0.503   9.055   1.647
 2668W        W 6732   5.151   0.408   0.210
 2669W        W 6733   8.206   8.081   8.637
 2670W        W 6734   4.436   1.683   3.585
 2671W        W 6735   7.704   0.320   9.407
 2672W        W 6736   8.936   4.735   3.126
 2673W        W 6737   3.816   5.368  11.863
 2674W        W 6738   2.846   2.123   1.767
 2675W        W 6739   7.513   0.004   9.032
 2676W        W 6740   2.533  10.156   9.373
 2677W        W 6741   7.814   5.305   0.764
 2678W        W 6742   6.541   7.721  11.838
 2679W        W 6743   3.094   4.287   9.273
 2680W        W 6744   4.783   7.350   0.372
 2681W        W 6745   7.914   8.036  11.799
 2682W        W 6746   3.800   3.314  10.552
 2683W        W 6747   2.172   5.727   9.059
 2684W        W 6748   0.005   6.109  11.883
 2685W        W 6749  10.189   0.334   2.560
 2686W        W 6750   3.211   9.100   9.949
 2687W        W 6751   9.447   4.736   1.030
 2688W        W 6752   5.998   1.253   2.232
 2689W        W 6753   8.713   6.708   8.671
 2690W        W 6754   2.842   2.870  10.807
 2691W        W 6755   5.085   8.093  11.966
 2692W        W 6756   9.316   2.889   0.671
 2693W        W 6757   1.384   4.176   1.451
 2694W        W 6758   7.388   9.499  10.239
 2695W        W 6759   4.085   0.590  10.370
 2696W        W 6760   4.252   1.897   8.879
 2697W        W 6761   8.964   5.614   2.953
 2698W        W 6762   4.504   2.837  10.585
 2699W        W 6763   2.826   4.613   1.995
 2700W        W 6764   7.651   8.494  11.137
 2701W        W 6765  10.258   2.331   1.969
 2702W        W 6766  10.257  10.399   0.342
 2703W        W 6767  10.177   2.667  11.503
 2704W        W 6768   7.820   2.262   8.994
 2705W        W 6769   8.095   0.907  11.907
 2706W        W 6770   4.087   5.150   2.806
 2707W        W 6771   3.323   4.653   8.442
 2708W        W 6772   8.504  10.218  10.421
 2709W        W 6773   8.124   5.695   9.786
 2710W        W 6774   3.221   3.961   3.459
 2711W        W 6775   9.511   6.233   1.237
 2712W        W 6776   5.005   1.258   9.712
 2713W        W 6777   3.006   8.292   3.146
 2714W        W 6778   0.423  10.001  11.371
 2715W        W 6779   0.699   4.816   9.276
 2716W        W 6780   1.812   4.753   3.004
 2717W        W 6781   8.405  10.157   3.587
 2718W        W 6782   2.448   8.226  11.283
 2719W        W 6783   7.171  10.474   1.742
 2720W        W 6784   2.876   1.848  10.996
 2721W        W 6785   1.170   5.101   0.891
 2722W        W 6786   6.384   5.281  10.815
 2723W        W 6787   5.663   6.502   2.192
 2724W        W 6788   4.543   1.476  10.434
 2725W        W 6789   2.396   1.232   2.638
 2726W        W 6790   4.156   7.401   9.930
 2727W        W 6791   5.444   1.308   8.937
 2728W        W 6792   3.719   6.003   2.209
 2729W        W 6793   6.142   0.809   2.007
 2730W        W 6794   0.275   6.349   9.757
 2731W        W 6795   6.256   8.504  11.453
 2732W        W 6796  10.325   8.987   1.178
 2733W        W 6797   4.096   2.648   3.572
 2734W        W 6798   7.653   1.170  10.088
 2735W        W 6799  10.190   2.630   0.683
 2736W        W 6800   3.660   6.517   1.179
 2737W        W 6801   6.252   6.949   2.835
 2738W        W 6802   9.057   1.316   0.730
 2739W        W 6803   9.086   7.928   2.048
 2740W        W 6804   2.771   8.993   1.651
 2741W        W 6805   2.644   1.479  11.802
 2742W        W 6806   0.299   9.451   1.986
 2743W        W 6807   1.313   6.844   0.429
 2744W        W 6808   4.749   2.118   3.589
 2745W        W 6809  10.227   3.060   1.206
 2746W        W 6810   5.509   3.793   9.968
 2747W        W 6811   7.814   4.211  10.035
 2748W        W 6812   4.875   1.679  11.474
 2749W        W 6813   6.464  10.339   0.405
 2750W        W 6814   2.535   1.871   0.980
 2751W        W 6815   7.000   7.916   8.837
 2752W        W 6816   0.301  10.218  10.941
 2753W        W 6817  10.455   6.118   9.400
 2754W        W 6818   3.798   7.934  11.874
 2755W        W 6819   1.218   0.891   0.829
 2756W        W 6820   5.257   1.318   3.459
 2757W        W 6821   2.286   5.242   1.397
 2758W        W 6822   2.730   4.996   1.353
 2759W        W 6823   0.782   9.581   9.403
 2760W        W 6824   3.352   4.410   4.268
 2761W        W 6825   4.049   9.309  10.958
 2762W        W 6826   3.040   7.133  10.870
 2763W        W 6827   0.829   2.058   3.659
 2764W        W 6828   9.627   5.154   9.597
 2765W        W 6829   8.604   3.790   0.404
 2766W        W 6830   0.410  10.478   9.271
 2767W        W 6831   4.535   5.696  10.044
 2768W        W 6832   3.148  10.467   8.733
 2769W        W 6833   7.102   8.823   3.220
 2770W        W 6834   7.908   2.787   9.481
 2771W        W 6835   9.334   9.073  11.713
 2772W        W 6836   5.598   0.910   9.730
 2773W        W 6837   8.272   4.174  11.775
 2774W        W 6838   8.832   5.464   9.144
 2775W        W 6839   5.052   3.436   4.229
 2776W        W 6840   4.382   4.305  11.325
 2777W        W 6841   9.497   5.937  11.804
 2778W        W 6842   2.769   4.391   9.790
 2779W        W 6843   2.175   6.054   3.264
 2780W        W 6844   5.151   1.077   1.412
 2781W        W 6845   7.753  10.425   9.862
 2782W        W 6846   4.693   2.185   8.850
 2783W        W 6847   0.414   0.005   9.794
 2784W        W 6848   8.487   0.796   2.809
 2785W        W 6849   6.531   7.404  11.430
 2786W        W 6850   4.382   8.774  11.644
 2787W        W 6851   3.779   9.960   0.940
 2788W        W 6852   8.411   2.640   2.025
 2789W        W 6853   9.567   8.651   1.626
 2790W        W 6854   2.082   9.406  10.510
 2791W        W 6855   0.040   4.530   2.583
 2792W        W 6856   8.430   4.683   3.244
 2793W        W 6857   8.488   9.725   8.456
 2794W        W 6858   2.649   7.845  10.852
 2795W        W 6859   4.428   2.002   1.015
 2796W        W 6860   6.023   7.671   2.685
 2797W        W 6861   1.699   6.350   9.854
 2798W        W 6862   7.954   0.328   1.100
 2799W        W 6863   1.833   0.446   1.209
 2800W        W 6864   8.054   1.418   9.852
 2801W        W 6865   7.455   2.651  10.013
 2802W        W 6866   8.875   3.977   2.452
 2803W        W 6867   3.156   0.209   3.182
 2804W        W 6868   9.968   5.655  11.065
 2805W        W 6869   2.884   5.687   3.447
 2806W        W 6870   8.803   4.220   9.997
 2807W        W 6871   9.906   7.063  11.121
 2808W        W 6872   8.381   5.822   2.643
 2809W        W 6873   8.351   3.520   2.355
 2810W        W 6874   4.591   2.752   9.582
 2811W        W 6875   4.531   6.163   9.841
 2812W        W 6876   0.414   9.782   0.756
 2813W        W 6877   0.498   4.633  11.046
 2814W        W 6878   1.751   4.606   1.479
 2815W        W 6879   5.272   8.396   9.878
 2816W        W 6880   5.502   4.635   1.737
 2817W        W 6881   0.921   4.461   8.994
 2818W        W 6882   2.737   8.528   8.869
 2819W        W 6883   0.981   0.991  10.719
 2820W        W 6884   0.339   7.475   9.688
 2821W        W 6885   4.776   4.597   3.001
 2822W        W 6886   5.099   5.914   1.827
 2823W        W 6887   8.424   4.249  10.331
 2824W        W 6888   6.966   9.400   1.958
 2825W        W 6889   2.250   6.491   3.514
 2826W        W 6890   5.252   1.396  11.180
 2827W        W 6891   7.410   4.192   0.505
 2828W        W 6892   0.296   8.874   2.656
 2829W        W 6893   2.444   0.273   1.027
 2830W        W 6894   7.877   1.370   2.594
 2831W        W 6895   8.203   6.001   2.200
 2832W        W 6896  10.214   8.871  10.254
 2833W        W 6897   1.393   8.829  10.905
 2834W        W 6898   4.263   1.253  10.968
 2835W        W 6899   1.864   8.463   1.175
 2836W        W 6900   3.930   8.797   9.531
 2837W        W 6901   5.195   2.333   3.702
 2838W        W 6902   0.812   9.038   1.147
 2839W        W 6903   7.400   1.833   1.833
 2840W        W 6904   7.681   9.532   8.744
 2841W        W 6905   5.950   0.448   8.622
 2842W        W 6906   8.024   3.826  11.465
 2843W        W 6907   1.317   4.461  10.953
 2844W        W 6908   0.413   4.979   0.675
 2845W        W 6909   8.912   5.792   0.064
 2846W        W 6910   6.960   1.353   8.962
 2847W        W 6911   7.800   9.862  11.157
 2848W        W 6912   6.857   8.500   0.404
 2849W        W 6913   5.154   0.835   9.968
 2850W        W 6914   5.586   5.019  10.337
 2851W        W 6915   3.624   8.562   9.942
 2852W        W 6916   8.787  10.377   1.686
 2853W        W 6917   2.568   3.559   0.339
 2854W        W 6918   8.464   1.485   9.541
 2855W        W 6919   5.021   5.686  10.902
 2856W        W 6920   8.596   9.082   1.023
 2857W        W 6921   3.354   2.651  11.692
 2858W        W 6922   0.104   7.425   2.395
 2859W        W 6923   5.694   2.158  10.415
 2860W        W 6924   5.950   6.064   9.051
 2861W        W 6925   9.473   6.642   9.723
 2862W        W 6926   1.167   4.701   9.949
 2863W        W 6927   9.384   2.254   2.485
 2864W        W 6928   4.686   4.618   8.895
 2865W        W 6929   4.215   2.745   2.682
 2866W        W 6930   3.115   5.320   1.400
 2867W        W 6931   0.908   6.999   2.237
 2868W        W 6932   8.399   0.256   0.251
 2869W        W 6933   1.741   1.237  10.733
 2870W        W 6934  10.420   8.117   0.525
 2871W        W 6935   7.198   9.998   9.733
 2872W        W 6936   3.563   2.859  10.525
 2873W        W 6937   4.113   4.741   4.167
 2874W        W 6938   3.933  10.315  10.345
 2875W        W 6939   0.446   9.971   9.330
 2876W        W 6940   6.088  10.438   2.183
 2877W        W 6941   6.530   8.612  10.594
 2878W        W 6942   2.452   0.567   8.988
 2879W        W 6943   5.603   5.999   1.974
 2880W        W 6944   7.590   4.039   1.935
 2881W        W 6945   9.477   8.565  11.819
 2882W        W 6946   1.898   0.327   9.827
 2883W        W 6947   8.879   7.507   1.841
 2884W        W 6948   7.505   4.175   3.333
 2885W        W 6949   3.221   7.909   9.055
 2886W        W 6950   3.711   8.709   0.404
 2887W        W 6951   1.320   2.352   8.692
 2888W        W 6952   1.223   2.422   0.945
 2889W        W 6953   3.744   9.059   9.915
 2890W        W 6954   0.365   3.250   0.298
 2891W        W 6955   4.368   2.621  11.723
 2892W        W 6956   0.272   7.398   9.188
 2893W        W 6957   8.530   7.510  10.620
 2894W        W 6958   5.253   6.176   2.278
 2895W        W 6959  10.405   0.468   0.690
 2896W        W 6960   1.355   1.207   9.969
 2897W        W 6961   7.018   5.657   8.199
 2898W        W 6962   4.208   8.275  11.710
 2899W        W 6963  10.384   5.444   2.168
 2900W        W 6964   4.477   6.562   9.003
 2901W        W 6965   4.239   4.891   9.106
 2902W        W 6966   1.378   8.438   1.344
 2903W        W 6967   3.451   5.370  11.515
 2904W        W 6968   3.241   3.329  10.455
 2905W        W 6969   3.652   4.031   9.922
 2906W        W 6970   1.795   9.860   1.699
 2907W        W 6971   4.038   2.104   9.355
 2908W        W 6972   9.355   7.517  10.107
 2909W        W 6973   7.543   0.507   3.595
 2910W        W 6974   2.045   9.596   2.368
 2911W        W 6975   0.617   5.372   0.976
 2912W        W 6976   0.425   3.331   8.982
 2913W        W 6977   6.666   6.019   8.305
 2914W        W 6978   2.447   1.674  10.782
 2915W        W 6979   9.218   7.535   0.800
 2916W        W 6980   8.972   1.153  11.902
 2917W        W 6981   6.062   4.660   9.576
 2918W        W 6982   3.113   5.677   9.407
 2919W        W 6983   6.739   6.417   0.423
 2920W        W 6984  10.487   0.757   9.065
 2921W        W 6985   5.507   1.811   3.010
 2922W        W 6986   3.768   5.464   9.801
 2923W        W 6987   6.954   9.383   9.502
 2924W        W 6988   5.834   7.473   8.464
 2925W        W 6989   8.422   9.352   1.440
 2926W        W 6990   2.123   8.886  10.567
 2927W        W 6991   1.696   9.388   1.472
 2928W        W 6992   9.879   5.886   3.259
 2929W        W 6993   1.045   9.424   3.296
 2930W        W 6994   6.471   4.213   3.737
 2931W        W 6995   6.518   8.926  11.009
 2932W        W 6996   6.780   3.622   0.853
 2933W        W 6997   1.749   3.566  11.938
 2934W        W 6998   1.505   8.043   1.023
 2935W        W 6999   0.774   5.688   1.991
 2936W        W 7000   1.672   1.760   2.999
 2937W        W 7001   7.266   6.727   9.378
 2938W        W 7002   2.162   5.694  11.386
 2939W        W 7003   4.775   9.959  10.782
 2940W        W 7004   7.802   5.094  10.349
 2941W        W 7005   9.766   5.036   0.441
 2942W        W 7006   3.421   8.833   9.536
 2943W        W 7007  10.405   8.868  11.721
 2944W        W 7008   6.437   5.597   9.916
 2945W        W 7009   1.201   4.047   2.814
 2946W        W 7010   9.499   9.126   1.848
 2947W        W 7011   1.859  10.240   9.247
 2948W        W 7012   8.359   4.650  11.940
 2949W        W 7013   4.064  10.462   0.137
 2950W        W 7014   2.564   1.613   1.808
 2951W        W 7015   0.341   9.098   9.856
 2952W        W 7016   8.498   1.212   0.081
 2953W        W 7017   5.064  10.385   0.912
 2954W        W 7018   7.432   0.344   9.835
 2955W        W 7019   6.059   9.551   2.999
 2956W        W 7020   8.791   4.531  11.005
 2957W        W 7021   8.498   4.710  10.056
 2958W        W 7022   0.980   2.612   0.062
 2959W        W 7023   6.686   2.409   1.315
 2960W        W 7024   3.838   2.205   0.055
 2961W        W 7025   7.049   4.631   2.455
 2962W        W 7026   6.002   6.155  10.899
 2963W        W 7027   2.415   3.218   3.387
 2964W        W 7028   6.600   7.237   9.099
 2965W        W 7029  10.258   8.781   0.710
 2966W        W 7030   4.139   0.020  11.309
 2967W        W 7031   2.643  10.436   0.692
 2968W        W 7032   7.915   6.372   8.577
 2969W        W 7033   2.733   9.018   2.710
 2970W        W 7034   0.736   2.188   9.513
 2971W        W 7035   5.982   3.769   1.815
 2972W        W 7036   2.145   2.885  10.433
 2973W        W 7037   7.673   6.010   7.821
 2974W        W 7038  10.462   3.857   3.232
 2975W        W 7039   1.357   1.203  11.042
 2976W        W 7040   2.627   8.394  11.760
 2977W        W 7041   2.913   4.203   2.294
 2978W        W 7042   1.369   7.187   2.301
 2979W        W 7043   9.358   4.282   9.009
 2980W        W 7044   9.038   7.111   8.638
 2981W        W 7045   9.939   5.729   0.947
 2982W        W 7046   7.547   6.780   2.430
 2983W        W 7047   7.140   5.207   7.950
 2984W        W 7048   4.093   3.657   9.357
 2985W        W 7049   2.151   7.975   3.041
 2986W        W 7050   8.573   0.222   8.889
 2987W        W 7051   0.266   8.423   2.166
 2988W        W 7052   9.600   8.085  11.429
 2989W        W 7053   2.827   9.554  10.349
 2990W        W 7054   3.854   2.670  11.770
 2991W        W 7055   8.874   7.302   2.691
 2992W        W 7056   2.362   2.536   0.192
 2993W        W 7057   8.542   8.688   3.461
 2994W        W 7058   1.790   3.318  10.536
 2995W        W 7059  10.372   0.594  10.990
 2996W        W 7060   1.136   0.687  10.007
 2997W        W 7061   9.431   1.310  11.334
 2998W        W 7062   9.504   6.075   9.491
 2999W        W 7063   6.120   4.253   1.710
 3000W        W 7064   5.459   7.137   8.286
 3001W        W 7065   5.589   9.350   2.855
 3002W        W 7066   0.946   8.173   1.682
 3003W        W 7067   4.624   7.520   0.820
 3004W        W 7068   4.132   3.804  10.386
 3005W        W 7069   0.273   0.730   0.439
 3006W        W 7070   3.670   7.476   1.376
 3007W        W 7071   3.930   5.216   8.087
 3008W        W 7072   1.252   8.579   1.819
 3009W        W 7073   4.736   2.254   1.729
 3010W        W 7074   6.525   2.208  10.977
 3011W        W 7075   8.938   8.214   2.466
 3012W        W 7076   9.106   3.751   3.406
 3013W        W 7077  10.446   3.804   9.381
 3014W        W 7078   6.607   8.188   0.773
 3015W        W 7079   8.850   9.484   0.300
 3016W        W 7080   5.613   8.374   9.017
 3017W        W 7081   2.235   3.750   9.273
 3018W        W 7082   9.133   6.525  10.079
 3019W        W 7083   3.357   3.153   9.580
 3020W        W 7084   5.230   1.781   9.346
 3021W        W 7085   3.993   8.043  10.810
 3022W        W 7086   6.917   4.233  10.873
 3023W        W 7087   0.815   7.994   3.201
 3024W        W 7088   8.323   9.732  10.388
 3025W        W 7089   5.027   7.104  10.544
 3026W        W 7090   0.969   0.919   0.010
 3027W        W 7091   0.893  10.447   9.086
 3028W        W 7092   7.800   4.010   8.973
 3029W        W 7093   3.718   5.476   3.964
 3030W        W 7094   6.524   2.645  11.401
 3031W        W 7095   8.666   7.695   3.602
 3032W        W 7096   6.931   1.778   0.215
 3033W        W 7097   1.245   3.963  10.921
 3034W        W 7098   4.095   3.080   8.489
 3035W        W 7099  10.377   9.738   1.929
 3036W        W 7100   3.056   2.621   0.089
 3037W        W 7101   0.484   0.957   3.567
 3038W        W 7102   0.060   2.638   2.826
 3039W        W 7103   7.588   2.254   2.225
 3040W        W 7104   1.284   8.106   3.039
 3041W        W 7105   9.453   7.335  11.102
 3042W        W 7106   1.945   4.404   3.374
 3043W        W 7107   3.102   1.849   2.449
 3044W        W 7108   4.398   2.012  11.407
 3045W        W 7109   4.514   1.272   8.910
 3046W        W 7110   2.202   0.702   0.914
 3047W        W 7111   9.957   5.863  10.089
 3048W        W 7112   9.378   3.805   9.323
 3049W        W 7113   3.438   4.290   3.126
 3050W        W 7114   6.698   1.145   3.144
 3051W        W 7115   9.348   1.992   9.426
 3052W        W 7116   5.646   0.325   0.474
 3053W        W 7117   8.381   7.352   0.355
 3054W        W 7118   3.638   4.634   3.907
 3055W        W 7119   0.809   6.159   1.790
 3056W        W 7120   0.226   5.570   8.731
 3057W        W 7121   9.025   6.227   0.377
 3058W        W 7122   8.739   3.539  10.244
 3059W        W 7123   8.574   6.926  11.253
 3060W        W 7124   9.867   6.612  11.939
 3061W        W 7125   3.802   4.646   2.918
 3062W        W 7126   4.967   9.031   0.358
 3063W        W 7127   6.715  10.043   9.878
 3064W        W 7128   6.234   5.880   8.656
 3065W        W 7129   8.971   7.441   1.341
 3066W        W 7130   5.556   7.954   0.804
 3067W        W 7131   5.304   3.103  10.397
 3068W        W 7132   5.952   1.383   0.713
 3069W        W 7133   5.784   3.639   0.947
 3070W        W 7134   1.382   6.347   0.438
 3071W        W 7135   3.638   3.107  11.572
 3072W        W 7136   0.569   6.410   2.911
 3073W        W 7137   4.627   6.963   0.942
 3074W        W 7138   0.827   6.901  11.847
 3075W        W 7139   9.437   3.804   0.947
 3076W        W 7140   7.535   1.165   2.932
 3077W        W 7141   7.027   2.142   1.019
 3078W        W 7142   8.907   4.038  10.985
 3079W        W 7143   3.657   7.633   8.885
 3080W        W 7144   3.269   0.736   9.300
 3081W        W 7145   3.686   4.160   1.077
 3082W        W 7146  10.342   7.485   1.709
 3083W        W 7147   6.054   9.943   1.318
 3084W        W 7148  10.436  10.340   9.072
 3085W        W 7149   8.612   8.086   0.588
 3086W        W 7150   7.595   7.557   1.019
 3087W        W 7151   5.373   7.471   8.705
 3088W        W 7152   2.209   1.435   2.165
 3089W        W 7153   6.449   4.061  10.763
 3090W        W 7154   9.942   8.422  10.408
 3091W        W 7155   1.627   4.317   2.751
 3092W        W 7156   2.333   8.153   1.910
 3093W        W 7157   8.364   3.131  11.808
 3094W        W 7158   6.723  10.235  11.947
 3095W        W 7159   9.884   3.524  10.046
 3096W        W 7160   5.251   4.533   1.279
 3097W        W 7161   2.967   1.794   3.498
 3098W        W 7162   0.821   4.242   8.500
 3099W        W 7163   7.160   8.018   3.520
 3100W        W 7164   6.810   8.333   3.192
 3101W        W 7165   5.542   6.365  10.743
 3102W        W 7166   2.140   8.916   3.175
 3103W        W 7167   6.068   8.511   1.375
 3104W        W 7168   1.857   4.537  11.984
 3105W        W 7169   9.993   0.389   9.718
 3106W        W 7170   6.128   8.151   2.799
 3107W        W 7171   3.923   5.936   4.095
 3108W        W 7172   5.053   5.142   9.602
 3109W        W 7173   7.007   9.006  10.787
 3110W        W 7174   8.916   1.713  10.090
 3111W        W 7175   7.328   0.970   1.579
 3112W        W 7176   9.865   4.808   8.996
 3113W        W 7177   2.754   2.849   3.189
 3114W        W 7178   7.916   2.443  10.029
 3115W        W 7179   4.701   1.076  10.707
 3116W        W 7180   7.126   5.689  10.495
 3117W        W 7181   2.724   3.263   2.478
 3118W        W 7182   6.006   5.236   9.893
 3119W        W 7183   1.350   6.676   2.505
 3120W        W 7184   7.810   5.203   3.226
 3121W        W 7185   9.794   1.772   9.462
 3122W        W 7186   6.531   3.147  11.213
 3123W        W 7187   7.069   0.957   3.475
 3124W        W 7188   5.976   0.026   0.240
 3125W        W 7189   7.418   8.525   0.379
 3126W        W 7190   8.448   4.810   8.949
 3127W        W 7191   8.604   5.746   1.279
 3128W        W 7192   8.940   6.438   2.464
 3129W        W 7193   7.457   2.682   2.487
 3130W        W 7194   3.723   5.113  11.139
 3131W        W 7195   3.008   9.386  10.810
 3132W        W 7196   4.038   0.439   9.229
 3133W        W 7197   3.996   1.861   2.321
 3134W        W 7198   8.139   0.531   1.955
 3135W        W 7199   8.136   5.566  10.292
 3136W        W 7200   3.788  10.380   3.235
 3137W        W 7201   5.142   9.055   9.449
 3138W        W 7202   0.182   3.099  11.532
 3139W        W 7203   8.828   5.073  10.894
 3140W        W 7204   0.889   9.989   0.670
 3141W        W 7205   5.436   5.127   3.166
 3142W        W 7206   7.923   0.766   9.202
 3143W        W 7207   9.569   1.141   9.924
 3144W        W 7208   2.275   4.327   9.080
 3145W        W 7209   9.294   8.057  11.862
 3146W        W 7210   5.119   9.961   3.078
 3147W        W 7211   5.572   5.354  10.737
 3148W        W 7212   2.257   6.556   2.548
 3149W        W 7213   5.694   2.141  11.488
 3150W        W 7214   5.917   1.393   9.104
 3151W        W 7215   7.697   5.183   8.425
 3152W        W 7216   9.893   0.201   3.372
 3153W        W 7217   0.435   4.229   8.822
 3154W        W 7218  10.412   2.343  10.385
 3155W        W 7219   4.825   6.923   3.005
 3156W        W 7220   9.435   1.025  10.888
 3157W        W 7221   9.901   9.394   1.982
 3158W        W 7222   3.670   2.640   8.712
 3159W        W 7223   7.913   6.849   8.758
 3160W        W 7224   4.661   5.264  11.292
 3161W        W 7225   1.880   7.551  11.651
 3162W        W 7226   4.611   7.313   3.274
 3163W        W 7227   6.230   6.427  11.878
 3164W        W 7228   8.494   5.551   2.205
 3165W        W 7229   0.802   0.324  11.317
 3166W        W 7230   5.179   2.307  11.509
 3167W        W 7231   5.005   8.479   3.497
 3168W        W 7232   2.646   0.806   9.973
 3169W        W 7233   8.754   7.670   2.340
 3170W        W 7234   1.046   1.913   9.931
 3171W        W 7235   8.385  10.332   9.180
 3172W        W 7236   6.129   3.784   2.688
 3173W        W 7237   9.825   9.996   2.689
 3174W        W 7238   7.430   9.765   2.968
 3175W        W 7239   6.893   5.191  10.732
 3176W        W 7240   9.465   3.692   3.051
 3177W        W 7241   4.184   7.275  10.416
 3178W        W 7242   8.531   7.832  10.244
 3179W        W 7243   9.341   1.060   3.175
 3180W        W 7244   1.376   2.766   9.978
 3181W        W 7245   2.175   3.974  10.816
 3182W        W 7246   2.208   5.442   0.347
 3183W        W 7247   4.749   2.743   1.480
 3184W        W 7248   6.196   5.604   9.472
 3185W        W 7249   6.916   0.236  11.775
 3186W        W 7250   0.545   6.265   8.505
 3187W        W 7251   1.837   3.395   9.294
 3188W        W 7252   5.117   6.115   9.615
 3189W        W 7253   6.405   5.109  11.308
 3190W        W 7254   2.331   5.554  10.912
 3191W        W 7255   8.693   5.528  10.586
 3192W        W 7256   0.820   7.451  11.027
 3193W        W 7257   4.531   1.750   0.556
 3194W        W 7258   1.949   2.747   1.561
 3195W        W 7259   0.703   5.227   3.326
 3196W        W 7260   8.596   7.569  11.943
 3197W        W 7261   9.664   1.240   3.554
 3198W        W 7262   2.424   9.103   0.289
 3199W        W 7263   6.003   6.583   8.952
 3200W        W 7264   4.704   2.441  11.391
 3201W        W 7265   2.335   9.153  10.956
 3202W        W 7266   9.082   0.245  10.968
 3203W        W 7267   1.042   1.257   0.526
 3204W        W 7268   7.226   6.126   8.062
 3205W        W 7269   0.530   0.295   3.226
 3206W        W 7270   9.131   8.390   1.528
 3207W        W 7271   6.963   5.958   3.592
 3208W        W 7272   8.324   7.094  10.233
 3209W        W 7273   1.422   3.534  11.115
 3210W        W 7274   3.717   3.589  11.440
 3211W        W 7275   8.060   1.840   9.559
 3212W        W 7276   1.247   2.335   2.315
 3213W        W 7277   5.233   2.398   1.625
 3214W        W 7278   1.285   1.931   2.663
 3215W        W 7279   8.916   9.808   9.733
 3216W        W 7280   9.893  10.448   2.415
 3217W        W 7281   3.422   9.896   0.519
 3218W        W 7282   4.522   5.555  10.874
 3219W        W 7283   3.810   4.370   0.591
 3220W        W 7284   5.311   2.852   0.710
 3221W        W 7285   7.892   7.951   9.030
 3222W        W 7286   0.185   6.442   0.223
 3223W        W 7287   5.224   6.694  10.981
 3224W        W 7288   3.457   5.492   4.406
 3225W        W 7289   7.822   4.409   1.005
 3226W        W 7290   4.747   5.546   3.479
 3227W        W 7291   9.827   3.625   2.200
 3228W        W 7292   7.999   1.299  11.371
 3229W        W 7293   2.173   5.246   2.499
 3230W        W 7294   5.784   0.347   0.961
 3231W        W 7295   0.226   9.053   3.146
 3232W        W 7296   0.914   8.254   9.353
 3233W        W 7297   3.843   8.297   2.856
 3234W        W 7298   2.743  10.472   2.701
 3235W        W 7299   8.645   5.006   1.773
 3236W        W 7300   3.582   3.065   0.950
 3237W        W 7301  10.024   0.824   2.695
 3238W        W 7302   6.133   4.346  10.488
 3239W        W 7303   8.446   4.157   3.265
 3240W        W 7304   0.038  10.360   8.555
 3241W        W 7305   7.369   3.520   9.498
 3242W        W 7306   9.281   8.096   1.132
 3243W        W 7307   5.584   5.250   8.980
 3244W        W 7308   4.176   8.531  10.712
 3245W        W 7309   1.948   0.273   0.743
 3246W        W 7310   0.998   0.793   2.689
 3247W        W 7311   2.702   0.248   8.688
 3248W        W 7312   8.417   9.048   9.760
 3249W        W 7313   9.911   7.553   0.284
 3250W        W 7314  10.295   9.354  11.728
 3251W        W 7315   0.247   4.711   9.039
 3252W        W 7316   3.776   9.438   1.139
 3253W        W 7317   4.712  10.342  11.106
 3254W        W 7318   2.683   6.007   1.060
 3255W        W 7319   2.426   0.380   0.525
 3256W        W 7320   9.345   0.861  10.371
 3257W        W 7321   5.968   9.531  11.477
 3258W        W 7322   0.728   1.467  10.796
 3259W        W 7323   6.888   7.214  10.458
 3260W        W 7324   6.153   7.490   9.826
 3261W        W 7325  10.055   1.774   0.802
 3262W        W 7326   6.234   3.941   9.249
 3263W        W 7327   8.513   6.687   9.858
 3264W        W 7328   2.150   0.538   2.347
 3265W        W 7329   4.120   8.461   3.299
 3266W        W 7330   4.161   5.653   3.704
 3267W        W 7331   1.321   3.261   9.256
 3268W        W 7332   8.922   3.163   2.801
 3269W        W 7333   9.174   2.282  11.308
 3270W        W 7334   8.996   5.465   1.496
 3271W        W 7335   6.215   4.465  11.039
 3272W        W 7336   0.426   3.230  10.811
 3273W        W 7337   5.635   6.039   3.824
 3274W        W 7338   1.714   8.921   2.762
 3275W        W 7339   8.003   5.586   2.897
 3276W        W 7340   5.663   1.205  11.446
 3277W        W 7341   2.898   5.498   2.468
 3278W        W 7342   0.505  10.234   2.434
 3279W        W 7343   1.901   8.404   9.099
 3280W        W 7344   3.110   6.153  10.980
 3281W        W 7345   3.253   5.323   9.762
 3282W        W 7346   7.832   3.659   1.621
 3283W        W 7347   6.774  10.101   0.800
 3284W        W 7348   1.172   0.505  10.524
 3285W        W 7349   0.236  10.093  10.065
 3286W        W 7350   0.964  10.364   2.738
 3287W        W 7351   3.313   8.931  10.801
 3288W        W 7352   8.119   8.946   8.922
 3289W        W 7353  10.353   8.367  11.761
 3290W        W 7354   2.165   2.755  11.379
 3291W        W 7355   6.394   0.880   1.241
 3292W        W 7356   0.745   9.479   1.407
 3293W        W 7357   6.569   8.206   8.799
 3294W        W 7358   7.533   8.667   9.740
 3295W        W 7359   6.237  10.112   0.015
 3296W        W 7360   9.539   1.969   1.001
 3297W        W 7361   0.847   6.507   1.395
 3298W        W 7362  10.364   2.416  10.881
 3299W        W 7363   6.954  10.381   2.210
 3300W        W 7364   1.875   2.374   1.918
 3301W        W 7365   1.964   4.603   9.926
 3302W        W 7366   5.168   9.442   3.174
 3303W        W 7367   5.496   0.874   3.564
 3304W        W 7368   8.942   3.275   9.816
 3305W        W 7369  10.188   4.902   0.214
 3306W        W 7370   3.848   7.793   2.763
 3307W        W 7371   3.842   8.235   0.453
 3308W        W 7372   8.700   9.950   9.303
 3309W        W 7373   4.611   6.882   1.443
 3310W        W 7374   3.798   5.943  10.511
 3311W        W 7375   9.290   4.446  11.024
 3312W        W 7376   8.320   7.554   9.883
 3313W        W 7377   9.885   4.616   1.278
 3314W        W 7378   9.457   7.641   1.251
 3315W        W 7379   3.170   4.015   0.869
 3316W        W 7380   2.897   4.392   0.534
 3317W        W 7381   0.487   2.814  11.122
 3318W        W 7382   8.807   2.580  11.579
 3319W        W 7383   8.159   6.016   0.190
 3320W        W 7384   3.408   0.272  11.691
 3321W        W 7385   6.453   7.956   1.257
 3322W        W 7386   0.789   3.514   1.549
 3323W        W 7387   9.500   6.656  11.171
 3324W        W 7388   6.487   5.694   0.625
 3325W        W 7389   7.462   9.813   0.054
 3326W        W 7390   4.286   0.864   2.062
 3327W        W 7391   3.675   2.296  11.025
 3328W        W 7392   7.808   4.818   0.641
 3329W        W 7393  10.411   1.387   0.813
 3330W        W 7394   4.618   3.202   1.294
 3331W        W 7395   8.022   0.771   8.680
 3332W        W 7396   2.050   1.806   3.485
 3333W        W 7397   5.942   4.051  10.907
 3334W        W 7398   4.062   8.450   8.724
 3335W        W 7399   8.782   4.294  11.886
 3336W        W 7400   6.026   5.104   8.769
 3337W        W 7401   1.539   9.429   2.570
 3338W        W 7402   2.229   8.900   2.664
 3339W        W 7403   8.063   8.389  10.219
 3340W        W 7404   1.043   0.233   3.108
 3341W        W 7405   7.304   4.004   9.977
 3342W        W 7406   1.692   2.196   3.256
 3343W        W 7407   0.913   5.284   9.296
 3344W        W 7408   8.159   5.053   1.609
 3345W        W 7409   2.539   9.879   3.293
 3346W        W 7410   5.460   4.821  11.830
 3347W        W 7411  10.325   9.814   3.296
 3348W        W 7412  10.444   6.142   1.490
 3349W        W 7413   4.208   7.500   2.553
 3350W        W 7414   6.611   9.750   2.127
 3351W        W 7415  10.410   1.426  11.896
 3352W        W 7416   8.977   7.018   1.671
 3353W        W 7417   0.230   9.444   1.466
 3354W        W 7418   7.874   3.600   2.139
 3355W        W 7419   2.967   5.123  11.993
 3356W        W 7420   5.483   6.571   8.922
 3357W        W 7421   6.042   2.244   8.767
 3358W        W 7422   3.794   7.197   8.634
 3359W        W 7423   3.822   8.909  10.740
 3360W        W 7424   8.129   9.005   0.861
 3361W        W 7425   5.211   2.663  10.101
 3362W        W 7426   0.982   9.484  10.568
 3363W        W 7427   3.147   1.366  11.796
 3364W        W 7428   7.510   5.570   8.103
 3365W        W 7429   6.738  10.462  10.161
 3366W        W 7430   6.748   5.002   2.269
 3367W        W 7431   0.298   0.268   2.487
 3368W        W 7432   6.893   9.414  11.058
 3369W        W 7433   5.989   8.954   2.219
 3370W        W 7434  10.123   4.289   9.463
 3371W        W 7435   9.152   6.482   2.930
 3372W        W 7436   7.127   1.915  10.448
 3373W        W 7437   5.941   5.135  11.028
 3374W        W 7438   2.683   5.521   1.222
 3375W        W 7439   6.920   2.522  11.060
 3376W        W 7440   9.542   1.136   1.715
 3377W        W 7441   1.770   0.340  10.868
 3378W        W 7442   4.962  10.072  11.593
 3379W        W 7443   6.479   3.097   9.821
 3380W        W 7444   1.187   3.964   0.577
 3381W        W 7445   0.443   6.249   1.156
 3382W        W 7446   5.140   5.731   0.749
 3383W        W 7447   2.583   8.650  10.510
 3384W        W 7448   9.511   9.598   2.897
 3385W        W 7449   1.327   7.040  11.944
 3386W        W 7450   2.235   8.148   8.780
 3387W        W 7451   6.446   8.849   1.967
 3388W        W 7452   9.354   8.663   0.562
 3389W        W 7453  10.328   5.037   2.910
 3390W        W 7454   4.610   7.807   3.223
 3391W        W 7455   7.552   8.072  11.431
 3392W        W 7456   4.730   7.050  11.958
 3393W        W 7457   3.349   2.162   0.132
 3394W        W 7458   4.666   9.419   2.454
 3395W        W 7459   4.979   9.067   0.904
 3396W        W 7460   1.104  10.466   1.818
 3397W        W 7461   6.311   9.304  11.792
 3398W        W 7462   4.594   0.819   8.148
 3399W        W 7463   8.098   6.725  11.039
 3400W        W 7464  10.372   2.314   3.500
 3401W        W 7465   8.718   8.081   8.836
 3402W        W 7466   4.673   3.637  10.622
 3403W        W 7467   7.233   4.727   8.991
 3404W        W 7468   4.144   8.142   1.145
 3405W        W 7469   3.527   5.602   1.468
 3406W        W 7470   8.483   2.178   2.786
 3407W        W 7471  10.393   1.797   3.355
 3408W        W 7472   6.546   6.122  10.441
 3409W        W 7473   8.991   2.292   3.327
 3410W        W 7474   4.246   4.912   0.484
 3411W        W 7475   5.098   7.534  11.485
 3412W        W 7476   8.884   0.632  11.232
 3413W        W 7477   5.133   0.483   3.548
 3414W        W 7478   2.036   8.864   9.319
 3415W        W 7479   5.587   1.413   2.535
 3416W        W 7480   5.058   4.303   1.688
 3417W        W 7481   7.034  10.297   3.611
 3418W        W 7482   9.401   4.537  11.647
 3419W        W 7483   4.604   1.508   1.021
 3420W        W 7484   6.598  10.377  10.625
 3421W        W 7485   6.497   3.531   9.487
 3422W        W 7486   6.099   5.103   0.414
 3423W        W 7487   2.883   1.282   3.486
 3424W        W 7488   4.457   8.563  10.287
 3425W        W 7489   3.461   1.893   3.399
 3426W        W 7490   5.735   5.564   3.195
 3427W        W 7491   7.031   7.357  11.162
 3428W        W 7492   7.398   3.392   0.288
 3429W        W 7493   3.677   5.980   1.139
 3430W        W 7494   6.306   6.403   8.578
 3431W        W 7495   5.383   1.728   2.160
 3432W        W 7496   4.742   2.173   2.250
 3433W        W 7497   1.061   7.880   0.772
 3434W        W 7498   7.191   8.464   2.260
 3435W        W 7499   5.891   5.631   1.717
 3436W        W 7500   7.983   0.882   3.384
 3437W        W 7501   5.438   4.325   8.967
 3438W        W 7502   7.725   6.453   1.414
 3439W        W 7503   6.085   5.983   3.271
 3440W        W 7504  10.184   3.173  11.447
 3441W        W 7505   9.878   7.042   1.293
 3442W        W 7506   8.032   6.688  10.029
 3443W        W 7507   9.828   1.866  11.425
 3444W        W 7508   6.422   5.162   0.012
 3445W        W 7509   9.416   5.431  11.769
 3446W        W 7510   4.055   0.426   2.786
 3447W        W 7511  10.303   4.418   0.207
 3448W        W 7512   1.783   2.125   9.308
 3449W        W 7513   0.264   0.410  11.716
 3450W        W 7514   1.306   1.384   1.012
 3451W        W 7515  10.345   5.198  10.911
 3452W        W 7516   4.375   2.582   1.135
 3453W        W 7517   1.755   8.418  10.018
 3454W        W 7518   4.791   4.515   1.007
 3455W        W 7519   1.257   6.763  11.531
 3456W        W 7520   3.327   7.378   3.186
 3457W        W 7521   1.253   1.402  10.546
 3458W        W 7522   1.409  10.381  10.813
 3459W        W 7523   0.422   3.769   0.395
 3460W        W 7524   3.796   8.044   8.471
 3461W        W 7525   2.526   1.221  11.389
 3462W        W 7526   5.111   4.605   2.107
 3463W        W 7527   2.852   9.367   0.252
 3464W        W 7528   3.914   1.878  11.238
 3465W        W 7529   9.420   4.711   8.720
 3466W        W 7530   2.879   8.423   9.363
 3467W        W 7531  10.283   5.194   1.248
 3468W        W 7532   6.082   0.932  11.448
 3469W        W 7533  10.365   7.727  10.863
 3470W        W 7534   3.216   0.351  10.272
 3471W        W 7535   4.725   0.465   0.509
 3472W        W 7536   6.914   5.767  10.033
 3473W        W 7537   7.206   9.032  11.699
 3474W        W 7538   6.517   7.787   1.740
 3475W        W 7539   1.601   9.424   9.642
 3476W        W 7540   4.288   6.116   2.445
 3477W        W 7541   8.580   6.793   2.472
 3478W        W 7542   5.190   0.344   0.715
 3479W        W 7543   8.512   0.424   9.941
 3480W        W 7544   1.433   7.248  11.442
 3481W        W 7545   9.968   7.001   9.068
 3482W        W 7546   7.113   7.437   8.656
 3483W        W 7547   4.125   9.326   8.803
 3484W        W 7548   2.611   6.678   1.829
 3485W        W 7549   6.195   2.315  11.778
 3486W        W 7550   5.016   3.341   1.796
 3487W        W 7551   9.328   6.638   0.506
 3488W        W 7552   8.878   2.830   1.923
 3489W        W 7553  10.281   7.425   8.996
 3490W        W 7554   4.967   6.389   8.214
 3491W        W 7555   9.813   5.715   2.791
 3492W        W 7556   7.941   1.404   3.142
 3493W        W 7557   5.577   6.125   8.690
 3494W        W 7558   0.268   8.126   9.808
 3495W        W 7559   1.019   2.716   1.922
 3496W        W 7560   8.400   8.529   1.809
 3497W        W 7561   6.827   6.487   8.480
 3498W        W 7562   1.061   2.621   1.409
 3499W        W 7563   7.406   0.011  11.383
 3500W        W 7564   9.572   2.027  10.850
 3501W        W 7565   8.345   5.209   9.973
 3502W        W 7566   2.076   7.343  10.513
 3503W        W 7567   0.262   2.728  10.659
 3504W        W 7568   5.737   3.871   0.093
 3505W        W 7569   2.822   7.868   0.453
 3506W        W 7570   7.484   0.519   8.985
 3507W        W 7571   3.243   1.501   3.154
 3508W        W 7572   2.402   0.623  11.819
 3509W        W 7573   4.697   6.382  10.273
 3510W        W 7574   2.126  10.359   1.875
 3511W        W 7575   3.346   5.050   8.775
 3512W        W 7576   9.117   8.667   2.832
 3513W        W 7577   8.474   7.431   9.422
 3514W        W 7578   4.251   0.796   8.937
 3515W        W 7579  10.460   9.792   9.322
 3516W        W 7580   1.373   8.914   9.944
 3517W        W 7581   7.410   3.560   1.910
 3518W        W 7582   1.653   5.728   9.215
 3519W        W 7583   5.641   2.208   0.924
 3520W        W 7584   6.838   9.124   0.606
 3521W        W 7585   6.044   7.502   0.787
 3522W        W 7586   4.193   2.224   0.444
 3523W        W 7587   5.145   5.146  10.567
 3524W        W 7588   9.655  10.400   1.429
 3525W        W 7589   4.049   1.225   9.115
 3526W        W 7590   0.408   1.857   9.036
 3527W        W 7591   3.125   7.429   8.821
 3528W        W 7592   1.432   7.565   1.884
 3529W        W 7593   6.421   4.095   8.019
 3530W        W 7594   7.645   5.946   1.369
 3531W        W 7595   6.888   2.189   0.523
 3532W        W 7596   8.425   4.621   1.482
 3533W        W 7597   9.010   3.645   0.681
 3534W        W 7598   3.283   6.980  11.290
 3535W        W 7599   7.397   7.052  11.341
 3536W        W 7600   5.539   1.247   2.044
 3537W        W 7601  10.403   8.760   2.271
 3538W        W 7602  10.253   1.526  10.695
 3539W        W 7603   0.337   8.853   1.193
 3540W        W 7604   2.907   1.135   1.980
 3541W        W 7605   2.651   3.600   1.629
 3542W        W 7606   3.147   5.777   1.136
 3543W        W 7607   8.442   8.399   0.226
 3544W        W 7608   0.346   0.518  11.183
 3545W        W 7609   9.850   3.706   2.711
 3546W        W 7610   2.358   8.638  10.978
 3547W        W 7611   0.344   6.746  11.701
 3548W        W 7612  10.390   7.056   1.405
 3549W        W 7613   4.130   6.175   3.667
 3550W        W 7614   3.887  10.424   2.712
 3551W        W 7615  10.038  10.466  11.505
 3552W        W 7616   6.041   9.112   2.699
 3553W        W 7617   0.022   9.911   0.393
 3554W        W 7618   8.568   1.891  11.206
 3555W        W 7619   9.117   6.485   0.960
 3556W        W 7620  10.437   5.651  10.111
 3557W        W 7621   4.526   6.435   0.697
 3558W        W 7622   8.139   4.873  11.501
 3559W        W 7623   9.546   5.025  11.474
 3560W        W 7624   9.466   3.571   0.458
 3561W        W 7625   7.602   6.018   3.463
 3562W        W 7626  10.383   1.160   9.365
 3563W        W 7627  10.474   4.778  11.789
 3564W        W 7628   5.293   9.485   3.674
 3565W        W 7629   8.345   9.868   3.148
 3566W        W 7630   5.077   9.506   9.755
 3567W        W 7631   4.696   8.420   2.528
 3568W        W 7632   5.842   4.023   9.601
 3569W        W 7633   6.492   6.198   3.514
 3570W        W 7634   8.644   8.571   2.707
 3571W        W 7635   1.691   6.524  11.554
 3572W        W 7636   5.475   7.835   1.342
 3573W        W 7637   8.887  10.309   3.450
 3574W        W 7638   0.858   3.194   1.950
 3575W        W 7639   2.847  10.290   3.169
 3576W        W 7640  10.317   9.079   2.807
 3577W        W 7641   4.245   3.175   0.365
 3578W        W 7642   5.443   9.881  11.521
 3579W        W 7643   9.784   0.445   8.678
 3580W        W 7644   6.877   0.097   0.267
 3581W        W 7645   3.701   4.652   3.402
 3582W        W 7646   8.582   6.905   9.400
 3583W        W 7647   7.557   6.102   8.833
 3584W        W 7648   8.823   0.062   0.410
 3585W        W 7649   4.430   5.930   3.304
 3586W        W 7650   2.069   5.211  11.203
 3587W        W 7651   7.670   4.116   1.434
 3588W        W 7652   1.607   1.289   1.441
 3589W        W 7653   7.686   8.538   2.363
 3590W        W 7654   6.884   5.105   8.832
 3591W        W 7655   1.798   6.032   1.262
 3592W        W 7656   0.978   2.830  11.113
 3593W        W 7657   5.904   5.145   2.919
 3594W        W 7658   5.473  10.406   8.904
 3595W        W 7659   2.179   3.348  10.201
 3596W        W 7660   9.730   0.353   2.914
 3597W        W 7661   6.159   8.481   2.388
 3598W        W 7662   2.177   1.813   2.986
 3599W        W 7663   6.006   7.939   9.592
 3600W        W 7664   7.661   3.132   2.274
 3601W        W 7665   7.381   9.995   3.416
 3602W        W 7666   4.491   3.614   0.526
 3603W        W 7667   3.848   6.692  10.925
 3604W        W 7668   6.964   1.276   2.720
 3605W        W 7669   1.462   8.314  10.813
 3606W        W 7670   8.269   9.910  11.389
 3607W        W 7671  10.418   0.272  11.377
 3608W        W 7672   9.379   9.170   9.062
 3609W        W 7673   6.448   2.602   9.546
 3610W        W 7674   3.561   1.283   8.941
 3611W        W 7675   5.967   9.032   0.677
 3612W        W 7676   9.341   9.885  11.300
 3613W        W 7677   4.155   6.703   3.759
 3614W        W 7678   4.586   9.082   8.748
 3615W        W 7679   0.222   1.870   2.633
 3616W        W 7680   7.195   9.672   8.744
 3617W        W 7681   6.686   4.481  11.262
 3618W        W 7682   0.929   6.568  10.556
 3619W        W 7683   9.005   4.276  11.423
 3620W        W 7684   6.524   7.689   0.833
 3621W        W 7685   9.750   2.656   2.503
 3622W        W 7686   8.079  10.413   2.782
 3623W        W 7687  10.057   0.060   8.455
 3624W        W 7688   6.401   9.275   2.291
 3625W        W 7689   4.127   4.274   8.547
 3626W        W 7690   1.110   6.446   2.099
 3627W        W 7691   1.986   8.962   1.360
 3628W        W 7692   4.180   6.965   8.880
 3629W        W 7693   2.119   0.764   1.882
 3630W        W 7694   9.954   0.837   9.040
 3631W        W 7695   6.983   4.987   3.414
 3632W        W 7696   5.246   5.293   0.968
 3633W        W 7697   8.802   9.935  11.291
 3634W        W 7698   8.585   5.675  10.031
 3635W        W 7699   4.708   0.832   9.174
 3636W        W 7700   4.283   9.492   0.374
 3637W        W 7701   0.358   9.453   9.101
 3638W        W 7702   5.662   8.281   1.692
 3639W        W 7703   7.071   4.535   2.961
 3640W        W 7704   4.667   8.094   8.959
 3641W        W 7705   2.124   5.561   1.814
 3642W        W 7706  10.286   3.582   2.459
 3643W        W 7707   5.572   2.251  10.977
 3644W        W 7708   7.434   5.644   8.621
 3645W        W 7709   5.139   3.521   2.285
 3646W        W 7710   0.692   9.435  11.986
 3647W        W 7711   0.889   6.027   8.798
 3648W        W 7712   7.359   8.947   2.409
 3649W        W 7713   3.743   7.947   0.893
 3650W        W 7714   1.773   3.386   2.160
 3651W        W 7715   0.818   0.757   0.501
 3652W        W 7716   6.935   3.460   1.293
 3653W        W 7717   3.848   3.202   0.017
 3654W        W 7718   8.098   7.862   9.502
 3655W        W 7719   4.313   0.148  10.443
 3656W        W 7720   0.958   4.689  11.232
 3657W        W 7721   5.413   6.651   8.068
 3658W        W 7722   3.719   4.834   0.417
 3659W        W 7723   2.866   5.959   1.553
 3660W        W 7724   7.189   8.077   0.298
 3661W        W 7725   3.172   1.373   0.691
 3662W        W 7726   5.019   6.635  11.847
 3663W        W 7727   8.035   1.237   1.399
 3664W        W 7728   7.059   3.601   2.761
 3665W        W 7729   1.176   9.846  10.246
 3666W        W 7730   5.086   0.873   0.469
 3667W        W 7731  10.458   6.646  10.060
 3668W        W 7732   6.070   5.993   0.829
 3669W        W 7733   7.118   0.493   1.544
 3670W        W 7734   4.288  10.450   3.129
 3671W        W 7735   4.030   1.774   0.709
 3672W        W 7736   0.468   9.516  11.501
 3673W        W 7737   6.024   3.637   8.901
 3674W        W 7738   0.516   2.796   1.956
 3675W        W 7739   8.904   7.121  10.707
 3676W        W 7740   9.076   2.165   1.095
 3677W        W 7741   6.852   8.040   2.026
 3678W        W 7742   5.715   7.572  10.905
 3679W        W 7743   0.758   0.531  10.852
 3680W        W 7744   5.478   6.924  11.440
 3681W        W 7745   1.947   9.513   3.272
 3682W        W 7746   5.017   8.806   1.897
 3683W        W 7747   2.275   3.319   1.341
 3684W        W 7748   0.708   0.365   2.756
 3685W        W 7749   1.228   6.960   3.497
 3686W        W 7750   5.201   4.095   3.832
 3687W        W 7751   6.284   3.293   1.781
 3688W        W 7752   8.827   7.616   0.468
 3689W        W 7753   5.876   3.037   3.171
 3690W        W 7754   3.090   9.902   1.392
 3691W        W 7755  10.462   8.410   9.505
 3692W        W 7756   7.416   8.190   8.946
 3693W        W 7757   5.951   4.944  11.915
 3694W        W 7758   1.924   3.446   2.794
 3695W        W 7759   0.895   8.401   2.867
 3696W        W 7760   0.065   7.710  11.688
 3697W        W 7761   4.096   3.385   8.918
 3698W        W 7762   8.386   4.570   9.417
 3699W        W 7763   4.556   2.133   9.355
 3700W        W 7764   2.620   4.288  11.024
 3701W        W 7765   2.858   6.662  10.024
 3702W        W 7766   4.969   2.810   9.116
 3703W        W 7767   8.790   4.809   3.603
 3704W        W 7768   3.282  10.161   0.975
 3705W        W 7769   1.892   2.839   0.371
 3706W        W 7770   7.399  10.163  10.993
 3707W        W 7771  10.120   7.827   0.876
 3708W        W 7772   1.482   4.137  11.371
 3709W        W 7773   6.840   5.507   2.397
 3710W        W 7774   9.468   6.333   0.124
 3711W        W 7775   2.370   1.357   3.521
 3712W        W 7776   2.249   2.176  10.028
 3713W        W 7777   8.562   4.552  11.474
 3714W        W 7778   8.503   8.111   9.300
 3715W        W 7779   5.040   6.227   8.694
 3716W        W 7780   5.178  10.044   2.481
 3717W        W 7781   1.116   4.133   3.632
 3718W        W 7782   7.511   1.668   2.821
 3719W        W 7783   7.477   4.761   2.699
 3720W        W 7784   0.686   0.864   9.868
 3721W        W 7785   5.076   2.445  11.027
 3722W        W 7786   7.578   2.186   0.229
 3723W        W 7787   1.381   2.413   0.435
 3724W        W 7788   1.224   8.473   9.776
 3725W        W 7789   8.181   0.952  10.044
 3726W        W 7790   5.976   8.658  10.450
 3727W        W 7791   8.900   8.480   0.438
 3728W        W 7792   3.169   2.249   3.619
 3729W        W 7793   0.937   6.050  11.883
 3730W        W 7794  10.117   7.952  11.575
 3731W        W 7795   5.623   3.913   8.637
 3732W        W 7796   6.962   7.529   2.680
 3733W        W 7797   6.849   5.134  11.742
 3734W        W 7798   9.830   6.465   0.450
 3735W        W 7799   0.992   2.587  10.248
 3736W        W 7800   3.610   0.297   2.983
 3737W        W 7801   8.638   9.722   1.155
 3738W        W 7802   6.156   5.968   3.809
 3739W        W 7803   6.690   7.573   2.204
 3740W        W 7804   5.305   4.080   9.445
 3741W        W 7805   9.484   2.268   0.291
 3742W        W 7806   0.510   7.684   0.961
 3743W        W 7807   7.018   1.791   2.738
 3744W        W 7808   8.205   0.102  10.655
 3745W        W 7809   3.755   1.371  10.928
 3746W        W 7810   7.809   3.588   0.034
 3747W        W 7811   4.131   0.837   3.089
 3748W        W 7812   3.605   5.528   9.316
 3749W        W 7813   2.694   6.603   9.025
 3750W        W 7814   8.917   2.999   1.418
 3751W        W 7815   5.502   2.636  10.535
 3752W        W 7816   5.190   3.058   0.224
 3753W        W 7817   4.256   1.647   9.326
 3754W        W 7818   4.309   5.129  10.501
 3755W        W 7819   1.294   7.662   3.308
 3756W        W 7820  10.207   2.979   3.081
 3757W        W 7821   5.781   7.452   9.032
 3758W        W 7822   4.813   8.010   2.813
 3759W        W 7823   3.731   4.188   9.056
 3760W        W 7824   4.792   2.870  11.909
 3761W        W 7825   4.677   5.091   2.033
 3762W        W 7826   1.377   5.316   8.664
 3763W        W 7827   3.828   3.230  11.081
 3764W        W 7828   5.575   4.132   8.014
 3765W        W 7829   1.469   3.101  10.863
 3766W        W 7830  10.497   4.232   9.097
 3767W        W 7831   2.412   8.885   9.690
 3768W        W 7832   9.940   1.329   1.001
 3769W        W 7833   3.158   1.161  10.595
 3770W        W 7834   6.775   0.448   1.162
 3771W        W 7835   7.880   7.438   0.300
 3772W        W 7836   7.949   1.866  10.571
 3773W        W 7837   1.517   7.739  11.351
 3774W        W 7838  10.489  10.275   3.120
 3775W        W 7839   4.171   1.339   2.793
 3776W        W 7840   0.966   4.936   1.740
 3777W        W 7841   5.553   5.678   0.165
 3778W        W 7842   2.766   7.451   1.262
 3779W        W 7843  10.287   1.840  10.293
 3780W        W 7844   1.531   4.470   9.678
 3781W        W 7845   8.641   8.277   1.436
 3782W        W 7846   7.814   0.446  10.569
 3783W        W 7847   5.160   3.618  10.355
 3784W        W 7848   4.986   5.481   9.963
 3785W        W 7849   1.588   5.637   0.977
 3786W        W 7850   1.946   2.889   2.066
 3787W        W 7851  10.221  10.079   2.286
 3788W        W 7852   1.810   4.100   9.914
 3789W        W 7853   6.150   5.520   3.540
 3790W        W 7854   5.555   6.962   1.456
 3791W        W 7855   7.643   5.022   1.698
 3792W        W 7856   5.705   5.616  10.317
 3793W        W 7857   1.925   4.306   2.324
 3794W        W 7858   7.698   3.770   0.511
 3795W        W 7859   3.010   9.050  10.417
 3796W        W 7860   0.041   4.634  10.805
 3797W        W 7861   3.536   9.965   2.294
 3798W        W 7862   3.285   0.444   1.668
 3799W        W 7863   9.796   7.425   8.791
 3800W        W 7864   2.497   4.775   8.931
 3801W        W 7865   0.212   1.354  10.881
 3802W        W 7866   6.936   5.432   0.535
 3803W        W 7867   0.880   9.935   1.179
 3804W        W 7868   6.408   8.853   0.453
 3805W        W 7869   7.182   7.601   9.661
 3806W        W 7870   7.456   3.226  11.300
 3807W        W 7871   9.823   1.807   1.869
 3808W        W 7872   3.069   7.956  11.097
 3809W        W 7873   0.385   7.398   2.842
 3810W        W 7874   4.492   6.436   1.209
 3811W        W 7875   4.993   3.026   9.822
 3812W        W 7876   0.896   3.928   1.246
 3813W        W 7877   2.011   9.549  10.989
 3814W        W 7878   1.171   2.239   1.814
 3815W        W 7879   7.920   2.386  10.544
 3816W        W 7880   5.722   1.605  11.758
 3817W        W 7881   5.541   1.277   3.039
 3818W        W 7882  10.222   7.723   2.200
 3819W        W 7883   9.376   5.441   2.160
 3820W        W 7884   0.875   4.135   0.200
 3821W        W 7885   0.362   7.232  10.142
 3822W        W 7886   4.712   5.053  10.821
 3823W        W 7887  10.337   3.435   9.741
 3824W        W 7888   9.355   2.658   2.178
 3825W        W 7889   4.970   6.456   2.864
 3826W        W 7890   7.466   6.616   8.899
 3827W        W 7891   8.934   5.596   9.639
 3828W        W 7892   7.324   5.206  10.469
 3829W        W 7893   8.374   4.245  10.861
 3830W        W 7894   8.193   1.814  11.578
 3831W        W 7895  10.477   7.102  11.927
 3832W        W 7896   3.258   7.217   2.316
 3833W        W 7897   6.216   0.439   3.397
 3834W        W 7898   9.399   3.386  10.504
 3835W        W 7899   0.789   0.268   9.479
 3836W        W 7900   8.328   9.848   8.961
 3837W        W 7901   5.913   0.400   2.832
 3838W        W 7902   0.356   0.204  10.774
 3839W        W 7903   9.402   9.216  11.167
 3840W        W 7904   2.025   9.384   1.896
 3841W        W 7905   0.874   6.521  10.047
 3842W        W 7906   7.019   5.610  11.022
 3843W        W 7907   2.113   5.227   3.008
 3844W        W 7908   8.673   7.225   8.996
 3845W        W 7909   4.746  10.296   2.429
 3846W        W 7910   7.592   9.974  10.104
 3847W        W 7911   2.381   8.452   2.980
 3848W        W 7912   8.745   2.001   0.351
 3849W        W 7913   0.170   5.611   0.024
 3850W        W 7914   6.421   8.931   1.418
 3851W        W 7915   9.155   5.781  10.512
 3852W        W 7916   7.794   4.106  11.969
 3853W        W 7917   2.381   6.021   1.796
 3854W        W 7918   4.155   1.853   2.811
 3855W        W 7919   5.929   6.881   3.839
 3856W        W 7920   2.116   7.133   9.912
 3857W        W 7921   4.010   7.919   2.280
 3858W        W 7922   4.683   0.869   8.653
 3859W        W 7923   7.305  10.004   1.619
 3860W        W 7924   7.039   2.227   3.026
 3861W        W 7925   1.930   3.340  11.025
 3862W        W 7926   1.197   9.708   8.818
 3863W        W 7927   7.433   3.736  11.143
 3864W        W 7928   5.954   3.477   1.406
 3865W        W 7929   2.371   3.173   2.864
 3866W        W 7930   7.372   0.010   0.288
 3867W        W 7931   7.847   6.494   2.756
 3868W        W 7932   2.887   6.956  11.836
 3869W        W 7933   4.970   4.678   0.426
 3870W        W 7934   2.380   4.833   2.729
 3871W        W 7935   0.636   0.620   2.297
 3872W        W 7936   9.960   4.519  10.449
 3873W        W 7937   7.144   0.437   3.312
 3874W        W 7938   1.661   1.647  11.796
 3875W        W 7939  10.220   0.629   1.373
 3876W        W 7940   9.375   4.670   9.759
 3877W        W 7941   2.826   7.033   0.410
 3878W        W 7942   8.410   6.497   0.840
 3879W        W 7943   1.455   4.177   3.233
 3880W        W 7944   3.612   6.481   1.693
 3881W        W 7945   1.307   0.246   9.024
 3882W        W 7946  10.254   6.725   0.335
 3883W        W 7947   6.939   3.684   0.348
 3884W        W 7948   4.406   0.096   2.645
 3885W        W 7949   7.484   8.795  10.765
 3886W        W 7950   3.398   1.028  11.029
 3887W        W 7951   4.651   2.349  10.725
 3888W        W 7952   4.943   8.483  10.433
 3889W        W 7953   9.335   8.337   3.379
 3890W        W 7954   4.707   9.383   2.941
 3891W        W 7955   6.136   4.049   8.623
 3892W        W 7956   9.227   7.980   8.929
 3893W        W 7957   8.142   8.398   9.043
 3894W        W 7958   7.148   2.272   1.490
 3895W        W 7959   3.373   0.582   9.795
 3896W        W 7960   2.315   7.804  11.572
 3897W        W 7961   0.446   5.205   0.183
 3898W        W 7962   1.962   4.569   0.884
 3899W        W 7963   2.823   5.963   0.055
 3900W        W 7964   6.192   1.924   3.479
 3901W        W 7965   2.597   2.546  10.291
 3902W        W 7966   6.674   0.304   9.369
 3903W        W 7967   2.924  10.345  10.656
 3904W        W 7968   8.646   4.221   1.235
 3905W        W 7969  10.274   4.524   8.723
 3906W        W 7970   6.726   1.241  10.534
 3907W        W 7971   7.535   5.635   3.095
 3908W        W 7972   5.264   6.167   9.144
 3909W        W 7973   2.361   6.766   1.160
 3910W        W 7974   4.734   3.292   0.209
 3911W        W 7975   6.046   7.535   1.682
 3912W        W 7976   6.990   6.447   1.758
 3913W        W 7977   9.839   3.550   8.538
 3914W        W 7978   4.159   1.250  11.828
 3915W        W 7979   7.982   7.446   2.623
 3916W        W 7980   7.840   9.913   9.088
 3917W        W 7981  10.217   3.659  11.318
 3918W        W 7982   2.638   5.087   2.340
 3919W        W 7983   1.306   1.860   9.043
 3920W        W 7984   5.082   4.628  11.037
 3921W        W 7985   9.401   6.424   1.750
 3922W        W 7986   5.166   8.541  11.110
 3923W        W 7987   3.712  10.436   2.219
 3924W        W 7988   9.414   7.194   1.482
 3925W        W 7989   7.426   2.081   0.695
 3926W        W 7990   5.184   7.677  11.008
 3927W        W 7991  10.392   0.694   9.570
 3928W        W 7992   4.055  10.395   0.892
 3929W        W 7993   7.571   3.581   9.953
 3930W        W 7994   4.714   1.716   9.072
 3931W        W 7995   0.224   8.647  11.397
 3932W        W 7996   0.892   5.694   0.285
 3933W        W 7997   7.056   6.692   2.319
 3934W        W 7998  10.086   3.726  11.806
 3935W        W 7999   5.664   0.771   2.183
 3936W        W 8000   4.275   9.078  10.529
 3937W        W 8001   1.268  10.443   9.444
 3938W        W 8002   6.968   9.956  10.769
 3939W        W 8003   7.924   4.101   2.343
 3940W        W 8004   2.669   0.698   3.388
 3941W        W 8005   1.698   8.328   1.804
 3942W        W 8006   8.998   0.866   2.859
 3943W        W 8007   6.970   9.038   2.742
 3944W        W 8008   2.640   2.795   2.690
 3945W        W 8009   4.619   3.647   1.573
 3946W        W 8010   0.476   0.779  11.982
 3947W        W 8011   0.335   5.350   9.880
 3948W        W 8012   2.296   8.975   1.773
 3949W        W 8013   3.718   8.962   1.343
 3950W        W 8014   8.488   0.266   9.426
 3951W        W 8015   7.005   0.326  11.271
 3952W        W 8016  10.352   4.979   2.417
 3953W        W 8017   4.644   6.891  10.279
 3954W        W 8018   7.215   8.998   0.275
 3955W        W 8019   6.223   4.333  11.753
 3956W        W 8020   4.186   0.966   8.467
 3957W        W 8021   1.933  10.412  10.657
 3958W        W 8022   7.942   0.004   0.366
 3959W        W 8023   4.370   5.763   8.259
 3960W        W 8024   9.906  10.333  11.981
 3961W        W 8025   6.113   2.328  11.266
 3962W        W 8026   8.927   4.758   2.171
 3963W        W 8027   5.237   6.745   8.533
 3964W        W 8028   6.974   2.424  10.563
 3965W        W 8029   1.060   9.104   0.240
 3966W        W 8030   5.472   4.683   0.343
 3967W        W 8031   6.959   7.719   0.576
 3968W        W 8032   9.986   3.176   2.637
 3969W        W 8033   2.407   2.927  11.837
 3970W        W 8034   2.632   6.129   3.500
 3971W        W 8035   9.426   9.026   2.513
 3972W        W 8036   6.855   9.053   1.152
 3973W        W 8037   2.341   7.667   1.738
 3974W        W 8038   9.524   8.322   9.229
 3975W        W 8039   3.697  10.327  10.816
 3976W        W 8040   9.769   4.289  10.904
 3977W        W 8041   6.497   1.467   2.804
 3978W        W 8042   5.675   2.368   2.346
 3979W        W 8043   1.204   9.563  11.984
 3980W        W 8044   6.274   7.462   1.236
 3981W        W 8045   5.570   7.375   2.767
 3982W        W 8046   8.213   0.232   8.533
 3983W        W 8047   1.685   0.447   2.546
 3984W        W 8048   7.400   5.204   8.933
 3985W        W 8049   2.736   3.591   9.249
 3986W        W 8050   2.723   0.285  10.891
 3987W        W 8051   5.083   2.252   9.190
 3988W        W 8052   2.344  10.294   2.980
 3989W        W 8053   4.296   1.691   1.926
 3990W        W 8054   4.340   6.620   9.694
 3991W        W 8055   0.783   8.845   9.858
 3992W        W 8056   6.920   9.872  11.278
 3993W        W 8057   7.237   1.746  11.317
 3994W        W 8058   9.307   5.642   9.272
 3995W        W 8059   6.200   3.130   3.561
 3996W        W 8060   0.752   8.551   1.955
 3997W        W 8061   9.317   1.926   8.641
 3998W        W 8062   4.770   8.873  11.276
 3999W        W 8063   5.273   9.868  10.084
 4000W        W 8064   1.388   7.957   1.533
 4001W        W 8065   1.232   2.924   0.399
 4002W        W 8066   1.750   5.971  10.209
 4003W        W 8067   9.360   0.721   1.947
 4004W        W 8068   2.262   2.242  11.516
 4005W        W 8069   4.543   3.910  11.019
 4006W        W 8070   0.893   7.025  10.786
 4007W        W 8071   1.511   0.287   3.382
 4008W        W 8072   0.559   1.788   9.836
 4009W        W 8073   9.487   7.108   0.967
 4010W        W 8074   0.324   7.335   1.455
 4011W        W 8075   3.204   4.821   1.275
 4012W        W 8076   2.819   5.925   2.090
 4013W        W 8077   4.199   7.949   8.792
 4014W        W 8078   6.004   4.338   8.200
 4015W        W 8079   6.483   3.341   0.568
 4016W        W 8080   2.991   7.877   8.588
 4017W        W 8081   7.105   0.935  11.861
 4018W        W 8082   3.191   0.229   9.407
 4019W        W 8083   2.689   9.943   2.786
 4020W        W 8084   8.558   7.931   3.173
 4021W        W 8085   6.974   9.513   2.963
 4022W        W 8086   6.081   7.112   2.000
 4023W        W 8087   6.607   7.421   3.100
 4024W        W 8088   1.152   0.709   2.210
 4025W        W 8089   4.551   9.778  11.780
 4026W        W 8090   0.012   4.644  10.272
 4027W        W 8091  10.467   7.583   1.212
 4028W        W 8092   2.638   4.347  11.539
 4029W        W 8093   5.213   1.715   9.854
 4030W        W 8094   4.542   0.403   9.440
 4031W        W 8095   5.115   1.189   2.326
 4032W        W 8096   6.126   7.275  10.821
 4033W        W 8097   0.397   0.682   1.845
 4034W        W 8098   5.719   5.173   1.641
 4035W        W 8099   4.916   0.425   8.644
 4036W        W 8100   7.964   9.423   0.577
 4037W        W 8101   4.218   5.638  10.466
 4038W        W 8102   9.734   8.921  10.472
 4039W        W 8103   4.268   6.216  10.526
 4040W        W 8104   8.547   9.154   3.612
 4041W        W 8105   0.737   3.601  10.274
 4042W        W 8106   2.286   7.688   1.227
 4043W        W 8107   1.008   8.754   9.406
 4044W        W 8108   4.602   4.057   8.792
 4045W        W 8109   3.358   3.822   1.331
 4046W        W 8110   7.546   2.765   1.464
 4047W        W 8111   9.560   5.582  10.262
 4048W        W 8112   3.164   6.539   2.942
 4049W        W 8113   9.531   9.360  10.090
 4050W        W 8114   2.585   7.488   8.851
 4051W        W 8115   7.495   3.657  11.639
 4052W        W 8116  10.372   5.712   1.199
 4053W        W 8117   4.538   4.719   3.447
 4054W        W 8118   2.788   1.313  10.933
 4055W        W 8119   7.884   0.249   1.614
 4056W        W 8120   1.549   5.658  10.548
 4057W        W 8121   7.536   7.057   0.179
 4058W        W 8122   0.406   9.033  10.877
 4059W        W 8123   2.868   7.501  11.171
 4060W        W 8124   6.567   9.450   1.321
 4061W        W 8125   5.638  10.431   1.927
 4062W        W 8126   7.413   5.331   9.500
 4063W        W 8127   8.020   2.278   1.395
 4064W        W 8128   6.021   3.672   9.935
 4065W        W 8129   5.808   7.474   0.327
 4066W        W 8130   3.421   7.952   1.875
 4067W        W 8131   5.645   6.923   9.243
 4068W        W 8132   6.062   9.085  10.845
 4069W        W 8133   8.418   6.452   2.113
 4070W        W 8134   0.355   8.563   1.664
 4071W        W 8135   6.904   5.003   2.778
 4072W        W 8136   4.130   3.896   8.914
 4073W        W 8137   9.047   4.040   1.522
 4074W        W 8138   4.920   6.898   8.125
 4075W        W 8139   6.134   1.392  11.244
 4076W        W 8140   7.959   8.963   3.024
 4077W        W 8141   3.262   7.112   0.736
 4078W        W 8142   4.965   0.413  10.782
 4079W        W 8143   4.057   3.945   1.385
 4080W        W 8144   6.541   2.980   0.237
 4081W        W 8145   2.330   3.626   3.072
 4082W        W 8146   1.681   7.165   0.571
 4083W        W 8147   6.037   3.152  11.110
 4084W        W 8148   4.731   3.812   3.023
 4085W        W 8149  10.285   4.120   2.840
 4086W        W 8150   7.958   3.629   3.235
 4087W        W 8151   8.440   0.665   3.313
 4088W        W 8152   8.533   1.732   3.061
 4089W        W 8153   1.363   6.466  10.832
 4090W        W 8154   4.068   5.626   1.634
 4091W        W 8155   3.244   2.436   3.166
 4092W        W 8156   2.681   9.286   9.882
 4093W        W 8157   6.221   1.765   9.936
 4094W        W 8158   0.760   4.103   1.709
 4095W        W 8159   5.700   7.031   8.742
 4096W        W 8160   6.172   8.554   0.832
 4097W        W 8161   9.170   5.970  10.007
 4098W        W 8162   3.787   3.577   1.155
 4099W        W 8163   9.056   4.612   2.647
 4100W        W 8164   9.838   0.937   1.285
 4101W        W 8165   5.014   9.529   9.259
 4102W        W 8166   2.378   2.582  10.790
 4103W        W 8167   1.375   6.563   0.902
 4104W        W 8168   2.911   8.899   9.585
 4105W        W 8169   0.999   3.813   3.267
 4106W        W 8170   4.210   1.238   1.703
 4107W        W 8171   0.697   7.329   8.903
 4108W        W 8172   5.569   3.823   1.420
 4109W        W 8173   9.029   0.347   9.952
 4110W        W 8174   0.982   3.051   2.852
 4111W        W 8175   2.940   7.175   2.725
 4112W        W 8176   3.158   3.828   9.059
 4113W        W 8177   8.348   0.315   2.941
 4114W        W 8178   9.791   8.997  11.516
 4115W        W 8179   5.064   6.700   0.773
 4116W        W 8180  10.496   2.803   1.947
 4117W        W 8181   8.664   6.631  10.787
 4118W        W 8182   4.250   9.105   2.823
 4119W        W 8183   9.982   3.105   9.334
 4120W        W 8184   7.448   9.313  10.709
 4121W        W 8185   5.979   5.299  11.504
 4122W        W 8186   9.413   4.295  10.548
 4123W        W 8187   6.682   4.288   2.314
 4124W        W 8188   3.728   9.827  10.316
 4125W        W 8189   7.297   2.222   9.220
 4126W        W 8190   9.745   0.761   0.228
 4127W        W 8191   5.069   3.731  10.997
 4128W        W 8192   0.478   8.258  10.247
 4129W        W 8193   0.824   7.820   2.717
 4130W        W 8194   5.171   3.068   3.080
 4131W        W 8195   9.929   0.283   0.734
 4132W        W 8196   7.481   6.303   0.018
 4133W        W 8197   3.575   1.108   9.873
 4134W        W 8198   8.286   4.277   9.838
 4135W        W 8199   2.255   3.257  11.471
 4136W        W 8200   4.168   6.172   8.906
 4137W        W 8201   4.596   4.654   0.101
 4138W        W 8202   7.862   1.425   8.840
 4139W        W 8203   9.528   0.825   2.762
 4140W        W 8204   6.649   2.290   1.814
 4141W        W 8205   4.774   1.876   1.396
 4142W        W 8206   5.705  10.297   3.371
 4143W        W 8207   4.366   7.463   9.459
 4144W        W 8208   5.799   3.185   1.881
 4145W        W 8209  10.406   3.301  10.603
 4146W        W 8210   5.171   9.063  10.975
 4147W        W 8211   8.618   2.883  10.981
 4148W        W 8212   5.545   0.679   1.246
 4149W        W 8213   4.279   7.773  10.295
 4150W        W 8214   2.211   5.570   8.335
 4151W        W 8215   1.373   6.128   2.424
 4152W        W 8216   4.705   4.963   0.737
 4153W        W 8217   0.292   7.980  10.625
 4154W        W 8218   7.439   6.077   0.913
 4155W        W 8219   4.597   5.232   2.571
 4156W        W 8220   5.239  10.053  10.564
 4157W        W 8221   5.747   6.219   9.907
 4158W        W 8222  10.456   1.119   2.949
 4159W        W 8223   7.559   1.141   3.448
 4160W        W 8224   5.685   9.037  10.152
 4161W        W 8225   2.707   5.731   9.067
 4162W        W 8226   3.639   1.615   9.920
 4163W        W 8227   5.711   2.385   1.402
 4164W        W 8228   3.406   5.776   9.968
 4165W        W 8229   8.033   2.933   0.676
 4166W        W 8230   3.410   6.113  11.393
 4167W        W 8231   2.435   6.504   8.595
 4168W        W 8232   2.387   1.961   1.496
 4169W        W 8233   4.571   5.596   1.807
 4170W        W 8234   6.914   2.155   9.585
 4171W        W 8235   0.369   0.027  11.353
 4172W        W 8236   8.394   6.954   2.008
 4173W        W 8237   6.452   3.368   1.306
 4174W        W 8238   9.406   6.215  10.419
 4175W        W 8239   9.009   6.839   9.089
 4176W        W 8240   2.444   2.899   1.658
 4177W        W 8241   0.748   8.318   9.825
 4178W        W 8242   1.947   8.456   2.662
 4179W        W 8243   2.701   9.239   8.856
 4180W        W 8244   8.898   9.134   9.592
 4181W        W 8245   5.947   6.778  11.606
 4182W        W 8246   8.683   4.990   9.358
 4183W        W 8247   5.034   2.724   3.430
 4184W        W 8248   1.698   3.208   1.688
 4185W        W 8249   4.290   6.446  11.005
 4186W        W 8250   2.685   9.105  11.793
 4187W        W 8251   0.782   9.408   1.901
 4188W        W 8252   7.463  10.295   2.116
 4189W        W 8253   9.790   4.382   9.933
 4190W        W 8254   4.079   0.379   3.336
 4191W        W 8255   4.529   8.937   0.657
 4192W        W 8256   7.227   5.728   2.161
 4193W        W 8257   0.787   3.738  10.764
 4194W        W 8258   3.130   2.288   2.190
 4195W        W 8259  10.429   9.872   1.436
 4196W        W 8260   5.946   9.574   3.590
 4197W        W 8261   6.936   8.142  10.778
 4198W        W 8262   0.775   5.174   2.146
 4199W        W 8263   0.525   1.915   2.222
 4200W        W 8264   1.145   6.413   8.565
 4201W        W 8265   4.487   1.729   2.404
 4202W        W 8266   0.875   3.070   8.965
 4203W        W 8267   2.738   6.472   0.842
 4204W        W 8268   0.510   7.716  11.420
 4205W        W 8269   3.714   0.441   1.972
 4206W        W 8270   0.837   1.791  11.404
 4207W        W 8271   4.944   4.240   9.119
 4208W        W 8272   7.762   0.835   1.791
 4209W        W 8273   5.495   6.722   3.559
 4210W        W 8274   1.256   6.076   9.916
 4211W        W 8275   9.996   4.023   0.215
 4212W        W 8276   8.396   1.172   3.286
 4213W        W 8277  10.243   5.473   2.668
 4214W        W 8278   5.767   7.059  10.078
 4215W        W 8279   7.483   2.717   1.975
 4216W        W 8280   9.190  10.283   9.888
 4217W        W 8281   0.315   5.439  11.057
 4218W        W 8282   4.785   7.952  10.311
 4219W        W 8283   9.068   1.439   9.246
 4220W        W 8284   1.214   3.979   1.927
 4221W        W 8285   3.742   5.840  11.716
 4222W        W 8286   6.573   8.354   2.708
 4223W        W 8287   3.257   6.989   9.075
 4224W        W 8288   1.358   2.272  11.885
 4225W        W 8289   7.852   9.505  10.459
 4226W        W 8290   6.740   4.008   9.313
 4227W        W 8291   8.393   2.612  11.904
 4228W        W 8292   8.003   9.993   0.348
 4229W        W 8293   7.589   6.607   0.481
 4230W        W 8294   8.750   9.544   2.245
 4231W        W 8295   4.644   4.218   3.342
 4232W        W 8296   5.994   8.595   9.354
 4233W        W 8297   3.743   1.316   1.940
 4234W        W 8298   0.871   6.917   9.240
 4235W        W 8299   7.871   1.801   0.061
 4236W        W 8300   6.692   6.492  11.320
 4237W        W 8301  10.420   8.282   3.152
 4238W        W 8302   9.643   3.872   8.870
 4239W        W 8303   4.234   7.414  11.275
 4240W        W 8304  10.420   9.404   0.605
 4241W        W 8305   4.637   8.902   3.122
 4242W        W 8306   3.196   3.726  10.086
 4243W        W 8307   6.062   9.580  10.969
 4244W        W 8308  10.486   9.705  11.418
 4245W        W 8309   1.515   3.693   2.997
 4246W        W 8310   7.615   1.306  10.626
 4247W        W 8311   8.384   7.057  10.771
 4248W        W 8312   4.337   5.253   8.420
 4249W        W 8313   2.332   3.910   8.770
 4250W        W 8314   4.753   6.038   1.022
 4251W        W 8315   1.899   3.059  11.905
 4252W        W 8316   3.322   7.158  10.451
 4253W        W 8317   9.336   2.822   1.691
 4254W        W 8318   3.516   2.694   2.321
 4255W        W 8319   4.722   7.027   2.487
 4256W        W 8320   6.132   2.244  10.135
 4257W        W 8321   1.830   5.997   1.772
 4258W        W 8322   7.813   9.780  11.673
 4259W        W 8323   6.668   6.164  11.960
 4260W        W 8324   9.384   9.057   1.330
 4261W        W 8325   9.447  10.498   2.648
 4262W        W 8326   1.943   9.759   0.693
 4263W        W 8327   2.061   9.946  10.408
 4264W        W 8328   0.387   2.894   0.700
 4265W        W 8329   2.172   4.503  10.857
 4266W        W 8330   3.275   4.450   3.596
 4267W        W 8331   0.038   2.828   0.334
 4268W        W 8332  10.307   8.213  10.742
 4269W        W 8333   5.239   9.478   0.774
 4270W        W 8334   4.813   2.333   1.186
 4271W        W 8335   1.713   8.477  11.782
 4272W        W 8336   3.215   7.214   1.413
 4273W        W 8337   0.277   5.240   3.610
 4274W        W 8338   8.902   6.239   8.492
 4275W        W 8339   6.944   4.075   0.683
 4276W        W 8340   1.345   7.853   0.306
 4277W        W 8341   2.853   9.830   1.866
 4278W        W 8342   2.113   6.636  11.801
 4279W        W 8343   1.933   9.442  11.484
 4280W        W 8344   5.957   4.321   9.086
 4281W        W 8345   8.007   9.710   9.914
 4282W        W 8346   8.126   8.594   2.678
 4283W        W 8347   9.381   1.679   9.867
 4284W        W 8348   3.613   3.556   2.152
 4285W        W 8349   3.567   9.537   9.911
 4286W        W 8350   1.391   3.183  11.847
 4287W        W 8351   2.200   3.736   9.816
 4288W        W 8352   3.187   8.853   3.404
 4289W        W 8353   8.362   5.243  10.955
 4290W        W 8354   3.235   0.673   2.977
 4291W        W 8355   3.845   4.651   8.299
 4292W        W 8356  10.224   6.043   2.850
 4293W        W 8357   6.552   4.876   1.263
 4294W        W 8358   3.738   4.548   1.947
 4295W        W 8359   2.567   2.046   8.862
 4296W        W 8360   4.410  10.100  10.426
 4297W        W 8361   7.068   2.317  10.064
 4298W        W 8362   9.587   2.994  10.829
 4299W        W 8363   1.699   7.573   9.067
 4300W        W 8364   6.665   6.155   4.008
 4301W        W 8365   1.799   7.047  11.752
 4302W        W 8366   0.024  10.232   9.586
 4303W        W 8367   0.272   3.105   1.192
 4304W        W 8368   9.499   5.639   0.715
 4305W        W 8369   9.027   5.001   8.952
 4306W        W 8370   8.538   6.620   1.652
 4307W        W 8371   0.875   4.762  10.725
 4308W        W 8372   2.345   4.760  11.250
 4309W        W 8373   3.865   8.286   9.510
 4310W        W 8374   2.079   1.047   1.322
 4311W        W 8375   6.360   9.782   9.235
 4312W        W 8376   5.068   4.228   8.621
 4313W        W 8377   6.147   2.237   1.670
 4314W        W 8378   4.653   5.888  10.493
 4315W        W 8379  10.318   2.991  11.901
 4316W        W 8380   8.431   4.263   0.254
 4317W        W 8381   7.863   9.010   2.518
 4318W        W 8382   2.852   8.524   2.744
 4319W        W 8383   3.384  10.345   2.913
 4320W        W 8384   0.016  10.479   0.772
 4321W        W 8385   2.762  10.335  11.674
 4322W        W 8386   8.150   6.646   3.114
 4323W        W 8387   0.245   6.541   9.276
 4324W        W 8388   4.145   9.237   1.426
 4325W        W 8389   3.476   0.367   8.555
 4326W        W 8390   6.554   3.670   2.002
 4327W        W 8391   8.956  10.190   0.059
 4328W        W 8392   0.369   8.949   2.138
 4329W        W 8393   1.337   1.302   0.038
 4330W        W 8394   8.841   9.984   3.007
 4331W        W 8395   0.559   0.981  11.033
 4332W        W 8396   5.926   6.404   3.573
 4333W        W 8397   6.169   0.961  10.940
 4334W        W 8398   7.873   0.842   0.373
 4335W        W 8399   9.566   7.354  11.895
 4336W        W 8400   2.378   1.086   8.975
 4337W        W 8401   2.049   9.824  11.811
 4338W        W 8402   3.365   7.484  11.231
 4339W        W 8403   0.042   2.660   1.055
 4340W        W 8404   2.756   2.189  11.365
 4341W        W 8405   5.227   9.993   0.012
 4342W        W 8406   6.506   8.349   1.756
 4343W        W 8407   4.718   5.503  11.823
 4344W        W 8408   1.676   7.905   9.875
 4345W        W 8409   1.304   2.764   2.605
 4346W        W 8410  10.191   7.247   0.955
 4347W        W 8411   6.537  10.280   9.383
 4348W        W 8412   4.140   8.472   9.887
 4349W        W 8413   5.967  10.500  11.757
 4350W        W 8414   0.112   5.334   0.884
 4351W        W 8415  10.258   6.566   9.072
 4352W        W 8416   8.119   4.106   9.373
 4353W        W 8417   3.341   2.404  10.411
 4354W        W 8418   7.671   5.270  11.421
 4355W        W 8419   6.623   6.912   0.381
 4356W        W 8420   6.133   1.865   0.064
 4357W        W 8421   9.294   0.290   1.290
 4358W        W 8422   5.921   5.743   9.875
 4359W        W 8423   9.026   5.718   2.456
 4360W        W 8424   9.535   0.004   0.931
 4361W        W 8425   0.481   6.081   9.374
 4362W        W 8426   7.506   6.127   2.944
 4363W        W 8427   6.101   6.130   9.533
 4364W        W 8428   6.710   3.058   9.366
 4365W        W 8429   0.815   8.974   2.695
 4366W        W 8430   4.946   2.654   1.968
 4367W        W 8431   3.063   0.207  11.312
 4368W        W 8432   4.234   1.069  10.475
 4369W        W 8433  10.402   6.962   8.751
 4370W        W 8434   3.695   3.299   2.975
 4371W        W 8435   7.515   3.993   4.362
 4372W        W 8436   9.344   6.165  11.380
 4373W        W 8437   2.692   7.415  11.656
 4374W        W 8438   0.523   7.739  11.939
 4375W        W 8439   7.160   4.992   1.928
 4376W        W 8440   0.318   5.066   2.654
 4377W        W 8441   4.147   6.277   2.895
 4378W        W 8442   3.614   3.758  10.371
 4379W        W 8443   5.561   1.674   0.924
 4380W        W 8444   3.723   0.762   8.926
 4381W        W 8445   7.545   1.345  11.125
 4382W        W 8446   2.725   9.767   9.023
 4383W        W 8447   4.706  10.049   0.798
 4384W        W 8448   6.679   8.474   2.229
 4385W        W 8449   5.052   4.004   9.880
 4386W        W 8450   6.904   0.776   9.605
 4387W        W 8451   2.120   6.899   1.896
 4388W        W 8452   8.821   2.916  11.988
 4389W        W 8453   5.083   6.671   2.333
 4390W        W 8454   0.782   2.241   1.174
 4391W        W 8455   9.035   8.889   0.877
 4392W        W 8456   9.847   8.199   2.823
 4393W        W 8457   3.318   7.613  10.233
 4394W        W 8458   4.922   6.182  11.562
 4395W        W 8459   7.044   5.398   1.032
 4396W        W 8460   7.909   6.292   0.930
 4397W        W 8461   8.340   5.920  11.359
 4398W        W 8462   6.335   2.706  10.920
 4399W        W 8463   8.342   6.347   2.620
 4400W        W 8464  10.013   6.164  10.988
 4401W        W 8465   2.086   8.560   2.129
 4402W        W 8466   8.950   2.645   0.998
 4403W        W 8467   9.493   5.452   1.678
 4404W        W 8468   4.089   8.895   0.989
 4405W        W 8469   2.590  10.008  10.440
 4406W        W 8470   5.086   9.559   1.293
 4407W        W 8471   7.035   7.488   9.164
 4408W        W 8472  10.165   6.653  10.979
 4409W        W 8473   4.124   3.763  11.794
 4410W        W 8474   9.949   3.032   8.811
 4411W        W 8475   2.913   9.918  11.412
 4412W        W 8476   5.523   0.745   0.731
 4413W        W 8477   0.153   7.006   3.353
 4414W        W 8478   5.582  10.347   9.401
 4415W        W 8479   7.907   3.292   9.691
 4416W        W 8480   7.368   1.422   8.627
 4417W        W 8481   5.430   5.532   1.889
 4418W        W 8482   9.535   4.479   2.595
 4419W        W 8483   9.953   4.072   1.977
 4420W        W 8484   9.283   8.838  10.821
 4421W        W 8485   5.984   3.526   9.399
 4422W        W 8486   2.851   8.329   0.257
 4423W        W 8487   1.477   4.706   0.912
 4424W        W 8488   9.761   8.877  11.017
 4425W        W 8489   9.831   5.194   0.975
 4426W        W 8490   1.461   6.171   9.422
 4427W        W 8491   8.076   6.122   9.483
 4428W        W 8492   5.189   0.275  10.326
 4429W        W 8493   4.985   3.759   0.512
 4430W        W 8494   2.713   1.185  10.331
 4431W        W 8495   8.537   1.717   2.519
 4432W        W 8496   4.570   3.852  11.530
 4433W        W 8497   5.176  10.009   9.609
 4434W        W 8498   1.386   6.653   3.049
 4435W        W 8499   0.432   8.158   2.731
 4436W        W 8500   6.137   4.291   2.613
 4437W        W 8501   8.065   0.206  10.154
 4438W        W 8502   3.539   9.910   3.182
 4439W        W 8503   5.464   8.579  10.334
 4440W        W 8504   9.466   7.278   0.396
 4441W        W 8505   2.358   7.078   2.508
 4442W        W 8506   2.829   1.742   9.471
 4443W        W 8507   2.340   7.763  10.466
 4444W        W 8508   6.112   4.173   0.251
 4445W        W 8509   4.291   8.051   2.887
 4446W        W 8510   2.688   4.597   9.348
 4447W        W 8511  10.374   8.464   1.796
 4448W        W 8512   1.814   0.307   8.888
 4449W        W 8513   2.238   4.127  11.301
 4450W        W 8514   4.780   6.062   0.022
 4451W        W 8515   5.996   0.857   2.562
 4452W        W 8516   4.682   9.013   9.231
 4453W        W 8517   8.529   1.072   1.420
 4454W        W 8518   8.374   2.625   2.538
 4455W        W 8519   4.682  10.342   1.931
 4456W        W 8520   9.074   0.698  10.765
 4457W        W 8521   0.758   8.478   3.379
 4458W        W 8522   6.120   1.675   1.482
 4459W        W 8523   5.257   8.212   2.715
 4460W        W 8524   0.307   1.702   1.765
 4461W        W 8525   7.400   7.165  10.494
 4462W        W 8526   8.292   5.195   3.053
 4463W        W 8527   7.067   5.331   3.811
 4464W        W 8528  10.300   4.198  11.759
 4465W        W 8529   0.322   7.567   1.910
 4466W        W 8530   9.931   5.520   1.413
 4467W        W 8531   5.652   3.505  11.750
 4468W        W 8532   4.059   2.392  11.368
 4469W        W 8533   6.025   4.089   0.767
 4470W        W 8534   8.027   3.551  10.656
 4471W        W 8535   3.143   0.302   2.636
 4472W        W 8536   5.762   9.156  11.758
 4473W        W 8537   2.838   0.736  10.585
 4474W        W 8538   6.691   1.401   0.464
 4475W        W 8539   7.391   5.581   9.954
 4476W        W 8540   4.186   3.436   1.433
 4477W        W 8541   3.572  10.055   0.007
 4478W        W 8542   4.266   9.614   2.742
 4479W        W 8543   5.632   6.580  10.283
 4480W        W 8544   9.375   1.540  10.823
 4481W        W 8545   8.265   3.750  10.257
 4482W        W 8546   0.699   5.496  11.382
 4483W        W 8547   0.415   1.889   0.878
 4484W        W 8548   4.163   7.055   0.705
 4485W        W 8549   4.229   0.737  11.836
 4486W        W 8550   5.267   8.577   9.363
 4487W        W 8551   1.786   2.109   9.845
 4488W        W 8552   3.316   6.126   9.578
 4489W        W 8553   7.044  10.093   0.307
 4490W        W 8554   1.563   7.774   3.727
 4491W        W 8555   8.416   3.303   9.814
 4492W        W 8556   6.566   2.138  11.487
 4493W        W 8557   1.776   6.960  10.283
 4494W        W 8558   0.353   6.015   2.013
 4495W        W 8559   5.942   7.096   9.604
 4496W        W 8560   2.678   5.162   3.329
 4497W        W 8561   1.874   0.340   1.769
 4498W        W 8562   1.703   7.969  11.939
 4499W        W 8563   6.289   8.268  10.281
 4500W        W 8564   7.084   2.238   2.497
 4501W        W 8565   6.156   8.972   9.051
 4502W        W 8566   8.889   6.219  10.425
 4503W        W 8567   6.310   2.775   3.211
 4504W        W 8568   7.094   2.735   1.203
 4505W        W 8569   9.926   6.499  11.433
 4506W        W 8570   9.514   3.782   1.438
 4507W        W 8571   0.880   6.049   2.333
 4508W        W 8572   7.790   8.153   1.031
 4509W        W 8573   4.277   3.262   3.546
 4510W        W 8574   0.540   8.951   0.207
 4511W        W 8575   5.688   0.275   2.350
 4512W        W 8576   2.162   0.355  10.260
 4513W        W 8577   9.854   6.581   9.389
 4514W        W 8578   3.790   2.972   0.464
 4515W        W 8579   8.845   4.609   9.669
 4516W        W 8580   0.969   9.432  11.532
 4517W        W 8581   1.385   1.421   2.744
 4518W        W 8582   1.861   5.728   0.012
 4519W        W 8583   7.895   7.163  11.204
 4520W        W 8584   9.208   0.046   3.101
 4521W        W 8585   1.506   9.521   0.871
 4522W        W 8586   8.576   0.255   2.016
 4523W        W 8587  10.421   4.192   1.742
 4524W        W 8588   7.208   5.102   1.418
 4525W        W 8589   8.436  10.447   2.404
 4526W        W 8590   3.184   3.325  11.556
 4527W        W 8591   4.648   6.862   0.448
 4528W        W 8592   3.399   5.735  10.774
 4529W        W 8593   9.709   5.666   8.902
 4530W        W 8594   7.859   9.087  10.971
 4531W        W 8595   2.940   0.494  11.773
 4532W        W 8596   9.105   3.770   9.923
 4533W        W 8597   5.744   5.279   2.214
 4534W        W 8598   4.251  10.315   2.238
 4535W        W 8599   0.483   8.079   1.866
 4536W        W 8600   0.913   6.621  11.091
 4537W        W 8601   1.024   3.841   8.248
 4538W        W 8602   5.753   6.892   2.781
 4539W        W 8603   8.365   2.126  10.769
 4540W        W 8604   6.748   0.786  10.838
 4541W        W 8605   5.818   1.516  10.327
 4542W        W 8606   8.271   7.270  11.519
 4543W        W 8607   5.062   9.116   2.309
 4544W        W 8608   6.992   5.276   9.856
 4545W        W 8609   9.842   5.950   0.467
 4546W        W 8610   6.966   3.271   9.771
 4547W        W 8611   4.794   3.819   2.505
 4548W        W 8612   8.660   7.174   9.839
 4549W        W 8613   5.507   7.586   3.228
 4550W        W 8614   3.556   7.144  10.897
 4551W        W 8615   3.029   0.668  11.051
 4552W        W 8616   8.057   8.973  11.916
 4553W        W 8617   9.814   5.101  11.919
 4554W        W 8618   8.911   1.813   9.598
 4555W        W 8619   6.138   3.783  11.788
 4556W        W 8620   7.375   0.323  10.343
 4557W        W 8621   1.133   2.214  10.902
 4558W        W 8622   3.312   3.309   1.324
 4559W        W 8623   8.906   7.831   2.806
 4560W        W 8624   4.735   9.409   0.600
 4561W        W 8625   7.060   1.768   1.401
 4562W        W 8626   2.237   8.638  10.130
 4563W        W 8627   4.340   9.729  10.870
 4564W        W 8628   3.131   5.564   1.851
 4565W        W 8629   5.719   3.086   9.297
 4566W        W 8630   7.195   8.074  10.318
 4567W        W 8631   6.720   5.337   1.435
 4568W        W 8632   9.824   0.773  11.702
 4569W        W 8633   3.920   9.815  11.694
 4570W        W 8634   3.687   6.966   1.508
 4571W        W 8635   1.477   0.202   1.500
 4572W        W 8636   6.064   5.805  11.315
 4573W        W 8637   3.866   4.030   2.218
 4574W        W 8638   4.042   4.196   2.705
 4575W        W 8639   3.240   4.763   3.190
 4576W        W 8640   9.140   6.892   2.580
 4577W        W 8641   2.616   8.411   3.468
 4578W        W 8642   3.846   0.868   1.707
 4579W        W 8643   4.863   6.712   9.854
 4580W        W 8644   2.561   0.231  11.451
 4581W        W 8645   3.359   3.132  10.911
 4582W        W 8646   9.617   9.340   3.301
 4583W        W 8647   6.965   2.922  11.367
 4584W        W 8648   1.266   1.562   1.711
 4585W        W 8649   5.076   6.933   1.238
 4586W        W 8650   7.065   7.201   2.288
 4587W        W 8651   8.047   6.902   2.381
 4588W        W 8652   5.456   3.789   2.677
 4589W        W 8653   8.760   9.775   3.473
 4590W        W 8654   3.653   4.719   1.488
 4591W        W 8655   5.955   8.347  11.940
 4592W        W 8656   1.240   8.077   2.540
 4593W        W 8657   7.876   0.425   2.816
 4594W        W 8658   1.902   8.844  11.022
 4595W        W 8659   1.895   9.485  10.043
 4596W        W 8660   4.708   2.885   2.837
 4597W        W 8661   9.945   1.393   1.534
 4598W        W 8662   6.183   0.419   2.388
 4599W        W 8663   6.576   7.058   1.307
 4600W        W 8664   3.826   4.089   0.150
 4601W        W 8665   3.660   0.692   3.286
 4602W        W 8666   7.824   5.293   9.863
 4603W        W 8667   7.108   8.509   9.994
 4604W        W 8668   4.711   9.013  10.233
 4605W        W 8669   0.841   0.941   1.895
 4606W        W 8670   4.255   7.486   0.465
 4607W        W 8671   2.754   1.049   0.668
 4608W        W 8672   2.763   0.434   2.966
 4609W        W 8673   7.662   3.300   0.719
 4610W        W 8674   4.182   5.333  10.044
 4611W        W 8675   0.547   2.772   2.836
 4612W        W 8676   4.239   4.381   9.034
 4613W        W 8677   7.372   3.866   0.104
 4614W        W 8678   1.932   6.458  10.325
 4615W        W 8679   3.703   4.580  11.953
 4616W        W 8680   8.436   9.011   2.848
 4617W        W 8681   6.422   8.108  10.797
 4618W        W 8682  10.448   6.455  11.364
 4619W        W 8683   6.034   5.547   9.011
 4620W        W 8684   0.725   5.904   2.814
 4621W        W 8685   0.059   6.604   1.236
 4622W        W 8686   8.664  10.464  10.867
 4623W        W 8687   0.037   2.639  10.002
 4624W        W 8688   9.832   5.164  11.050
 4625W        W 8689   5.066   2.814  11.420
 4626W        W 8690   0.605   9.012  11.335
 4627W        W 8691   2.706   2.287   8.443
 4628W        W 8692   8.700   1.090   9.340
 4629W        W 8693   3.494   4.166  11.768
 4630W        W 8694   8.797   8.858  10.624
 4631W        W 8695   8.497   5.013   2.269
 4632W        W 8696   1.131   2.933   0.929
 4633W        W 8697   9.366   6.508   9.235
 4634W        W 8698   7.121   8.350   0.815
 4635W        W 8699   9.856   2.297   1.645
 4636W        W 8700   5.621   4.741   2.833
 4637W        W 8701   2.935  10.425  10.160
 4638W        W 8702   4.514   0.573   2.517
 4639W        W 8703   6.762   6.226   9.920
 4640W        W 8704   5.915   8.615   3.409
 4641W        W 8705   3.050   8.044   2.592
 4642W        W 8706   5.099   8.936   8.942
 4643W        W 8707   6.548   3.608  10.005
 4644W        W 8708   2.547   3.309   9.850
 4645W        W 8709   0.951   6.159  10.871
 4646W        W 8710   8.854   7.466   3.172
 4647W        W 8711   6.881   6.473   3.680
 4648W        W 8712  10.305   4.697   9.795
 4649W        W 8713   5.472   0.439   1.846
 4650W        W 8714   5.492   3.610   1.920
 4651W        W 8715   8.519   7.729   1.426
 4652W        W 8716   6.489   4.539   4.136
 4653W        W 8717   1.812   9.822   1.176
 4654W        W 8718   8.631   4.135   9.479
 4655W        W 8719   0.367   2.884  11.946
 4656W        W 8720   4.983   8.574   2.939
 4657W        W 8721   8.365   5.131   3.530
 4658W        W 8722   8.008  10.328   8.818
 4659W        W 8723  10.430   2.495  11.941
 4660W        W 8724   4.299   8.584   2.821
 4661W        W 8725   9.569  10.075  10.883
 4662W        W 8726   3.902   4.635   9.371
 4663W        W 8727   1.167   7.428   9.092
 4664W        W 8728   4.781   2.095  11.767
 4665W        W 8729   8.771   0.144  11.364
 4666W        W 8730   3.935   5.572   8.470
 4667W        W 8731   3.724   2.276   1.516
 4668W        W 8732   2.185   2.367   9.011
 4669W        W 8733   7.383   4.592   0.817
 4670W        W 8734   5.159   0.843   9.438
 4671W        W 8735   7.012   8.480   1.782
 4672W        W 8736   9.332   3.210   3.266
 4673W        W 8737   0.831   1.008   8.901
 4674W        W 8738   1.161   7.976  11.065
 4675W        W 8739   0.004   0.529   2.166
 4676W        W 8740   5.689   7.032  10.965
 4677W        W 8741   6.564  10.141   3.434
 4678W        W 8742   8.506   1.485  10.848
 4679W        W 8743   7.540   4.801  10.730
 4680W        W 8744   4.688   4.693  10.459
 4681W        W 8745   3.762   0.895  11.679
 4682W        W 8746   9.597   3.859  10.316
 4683W        W 8747   8.675   3.223   9.347
 4684W        W 8748   3.332   5.528  11.996
 4685W        W 8749   5.680   4.805   9.871
 4686W        W 8750   0.260   0.832  10.176
 4687W        W 8751   3.228   5.870   8.534
 4688W        W 8752   1.779   7.925  10.388
 4689W        W 8753   6.587  10.229   1.868
 4690W        W 8754   8.090   9.868   1.908
 4691W        W 8755   4.582   7.880  11.169
 4692W        W 8756   2.623   0.907   1.168
 4693W        W 8757   6.211   7.408   0.037
 4694W        W 8758   9.331   2.482   9.544
 4695W        W 8759   1.816   6.769   2.769
 4696W        W 8760   1.673   6.853   9.794
 4697W        W 8761   0.254   2.011   9.491
 4698W        W 8762   8.534   6.035  11.831
 4699W        W 8763   3.209   2.854   8.881
 4700W        W 8764   9.921   0.822   1.777
 4701W        W 8765   5.477   8.990   0.807
 4702W        W 8766   6.117   3.258  11.658
 4703W        W 8767   9.986   1.723  11.928
 4704W        W 8768   3.002   4.107  11.835
 4705W        W 8769   1.769   1.287  10.236
 4706W        W 8770   3.575   0.066  11.244
 4707W        W 8771   0.394   6.920   8.962
 4708W        W 8772   7.143   5.780   1.353
 4709W        W 8773   5.492   2.855   9.715
 4710W        W 8774   8.432   2.083   1.691
 4711W        W 8775   8.432   9.742   0.310
 4712W        W 8776   6.435   9.350   0.368
 4713W        W 8777   6.976   4.637   4.350
 4714W        W 8778   8.564   3.801   9.853
 4715W        W 8779   3.224   2.326   1.433
 4716W        W 8780   1.393   5.212   1.383
 4717W        W 8781   0.211   0.706   3.183
 4718W        W 8782   7.895   4.999  11.050
 4719W        W 8783   0.701   4.971   9.783
 4720W        W 8784  10.271   5.678   9.624
 4721W        W 8785  10.339   3.460   8.449
 4722W        W 8786   9.118   4.745  10.639
 4723W        W 8787   7.607   0.427   0.362
 4724W        W 8788   5.263   4.069   2.288
 4725W        W 8789   9.815   9.813   3.266
 4726W        W 8790   1.934   8.322  11.020
 4727W        W 8791   9.251   4.053  11.803
 4728W        W 8792   1.398   5.564  10.041
 4729W        W 8793   2.138   8.473   9.658
 4730W        W 8794   8.435   6.428  11.276
 4731W        W 8795   8.328   8.402   3.112
 4732W        W 8796   7.703   9.964   1.308
 4733W        W 8797   7.086   3.583  10.178
 4734W        W 8798   9.403   6.009  10.902
 4735W        W 8799   7.788  10.236   1.733
 4736W        W 8800   4.740   5.790   9.554
 4737W        W 8801   6.161   6.245   2.282
 4738W        W 8802   7.537   2.173  10.235
 4739W        W 8803   6.622   0.210   0.708
 4740W        W 8804   6.170   0.905   8.448
 4741W        W 8805   7.376   0.888   0.406
 4742W        W 8806   9.596   3.900   9.795
 4743W        W 8807  10.371   9.217   2.062
 4744W        W 8808   6.110   8.044   1.882
 4745W        W 8809  10.191   1.537   0.350
 4746W        W 8810   7.105   5.086   0.188
 4747W        W 8811   8.595   3.044   2.314
 4748W        W 8812   2.800   5.201   9.061
 4749W        W 8813   8.247   6.200   9.940
 4750W        W 8814   4.236   6.733  10.572
 4751W        W 8815   3.641   3.665   8.920
 4752W        W 8816   0.828   3.527   8.679
 4753W        W 8817   4.318   3.307  10.466
 4754W        W 8818   3.708   6.730  10.038
 4755W        W 8819   0.797   0.724   3.170
 4756W        W 8820   2.772   8.347  10.872
 4757W        W 8821   4.687   4.918   9.335
 4758W        W 8822   5.510   5.857  10.775
 4759W        W 8823   5.313   5.056   1.939
 4760W        W 8824   7.536   0.786   9.550
 4761W        W 8825   5.138   6.201  11.061
 4762W        W 8826   6.542   6.110   3.017
 4763W        W 8827   5.481   1.335   9.468
 4764W        W 8828  10.434   3.512   0.462
 4765W        W 8829   2.485   5.255  11.503
 4766W        W 8830  10.166   4.004   3.637
 4767W        W 8831   9.383   6.608   2.220
 4768W        W 8832   2.649   1.223   9.436
 4769W        W 8833  10.421   9.130  10.888
 4770W        W 8834   0.873   3.110   0.067
 4771W        W 8835   4.609   6.444   3.730
 4772W        W 8836   2.442   5.145  11.999
 4773W        W 8837   7.761   0.643  10.080
 4774W        W 8838   0.886   0.288   3.599
 4775W        W 8839   3.121  10.431   1.428
 4776W        W 8840   8.413   7.264   2.431
 4777W        W 8841   8.460   7.586   2.804
 4778W        W 8842   0.852   7.656   0.346
 4779W        W 8843   0.882   9.513   0.917
 4780W        W 8844   0.935   9.864  11.264
 4781W        W 8845   8.746   9.772  11.805
 4782W        W 8846   1.056   6.311   2.786
 4783W        W 8847  10.446   9.981   0.912
 4784W        W 8848   4.581   2.984  11.428
 4785W        W 8849   1.889   0.931   2.870
 4786W        W 8850   1.708   2.548   2.379
 4787W        W 8851   5.982   0.522   0.133
 4788W        W 8852   8.080   4.855   1.137
 4789W        W 8853   2.677   2.390   2.399
 4790W        W 8854   0.281   3.649  10.513
 4791W        W 8855   3.624   6.219  10.054
 4792W        W 8856   6.570   5.234   0.885
 4793W        W 8857   6.593   5.935   9.538
 4794W        W 8858   6.702   8.689   0.844
 4795W        W 8859   2.381   0.768   2.879
 4796W        W 8860   6.753   9.121   0.033
 4797W        W 8861   1.763   3.073   8.894
 4798W        W 8862   4.985   7.303   9.929
 4799W        W 8863   1.920  10.022   0.266
 4800W        W 8864   8.787   1.852   8.624
 4801W        W 8865   6.586   0.680   2.218
 4802W        W 8866   9.634   6.634   3.136
 4803W        W 8867   2.246   3.392   8.861
 4804W        W 8868   1.768   7.442   0.159
 4805W        W 8869   1.302   6.122  10.452
 4806W        W 8870   3.838   4.630   8.821
 4807W        W 8871   3.720   8.612   9.109
 4808W        W 8872   4.068   2.379   8.927
 4809W        W 8873   1.184   7.984   9.684
 4810W        W 8874   4.313   4.819   8.114
 4811W        W 8875   3.937   2.750  10.868
 4812W        W 8876   4.028   0.006   1.828
 4813W        W 8877   6.571   9.963   1.266
 4814W        W 8878   7.013   6.194   2.187
 4815W        W 8879   4.286  10.055   9.503
 4816W        W 8880   3.662   0.821   0.689
 4817W        W 8881  10.414   3.567   0.982
 4818W        W 8882   1.235   1.079  11.560
 4819W        W 8883   9.579   7.880   0.783
 4820W        W 8884   5.542   3.452   8.970
 4821W        W 8885   7.005   2.428  11.552
 4822W        W 8886   0.992   4.201  11.329
 4823W        W 8887   9.463   0.027  10.698
 4824W        W 8888   1.239  10.221   9.900
 4825W        W 8889   4.334   0.506  11.332
 4826W        W 8890   2.717   9.977   9.940
 4827W        W 8891   4.118   2.957   3.140
 4828W        W 8892  10.461   9.429  10.500
 4829W        W 8893   3.295   8.420   1.573
 4830W        W 8894   3.361   3.190   2.613
 4831W        W 8895   3.248   5.134  10.246
 4832W        W 8896   5.243   0.016   2.287
 4833W        W 8897   9.468   1.896   1.512
 4834W        W 8898   4.137   8.963   3.317
 4835W        W 8899   2.332   5.292   8.827
 4836W        W 8900   7.935   8.453   0.113
 4837W        W 8901   0.477   4.335   9.319
 4838W        W 8902   4.565   6.974   3.941
 4839W        W 8903   9.874   4.666   0.758
 4840W        W 8904   8.137   9.043   1.796
 4841W        W 8905   0.673   9.883  10.825
 4842W        W 8906   5.178   0.420  11.666
 4843W        W 8907   4.918   7.026   9.418
 4844W        W 8908   9.749   4.161  11.803
 4845W        W 8909   1.313   5.826   8.479
 4846W        W 8910   5.718   9.889  10.344
 4847W        W 8911   2.377   4.631   2.254
 4848W        W 8912   4.171   6.899  10.092
 4849W        W 8913   6.931   4.417   1.051
 4850W        W 8914   5.734  10.068   0.023
 4851W        W 8915   9.419   3.060   8.701
 4852W        W 8916   8.115   4.333  11.313
 4853W        W 8917   6.618   9.947  10.377
 4854W        W 8918   5.465   3.586   3.940
 4855W        W 8919   2.953   6.433  11.873
 4856W        W 8920   6.859   6.976   3.649
 4857W        W 8921   2.351  10.499   2.328
 4858W        W 8922   9.736   2.186  10.249
 4859W        W 8923   6.972   4.607   0.544
 4860W        W 8924   3.705   9.492   2.169
 4861W        W 8925   0.270   4.195   3.025
 4862W        W 8926   3.092   0.450   8.926
 4863W        W 8927   0.687   6.674   1.898
 4864W        W 8928   6.642   2.587  11.904
 4865W        W 8929   6.339   9.168   3.688
 4866W        W 8930   4.706   1.831  10.069
 4867W        W 8931   0.665   3.693   2.537
 4868W        W 8932   4.490   0.355   8.925
 4869W        W 8933   0.880   6.348   0.889
 4870W        W 8934   0.337   2.332  11.006
 4871W        W 8935  10.394   0.903   0.971
 4872W        W 8936   3.603   3.671  11.939
 4873W        W 8937   7.567   8.770  11.947
 4874W        W 8938   8.515   1.373  10.067
 4875W        W 8939   7.090   7.639  10.640
 4876W        W 8940   0.364  10.019   1.209
 4877W        W 8941   5.133   6.903   0.285
 4878W        W 8942   4.918   0.038   1.413
 4879W        W 8943   4.337   7.016   1.836
 4880W        W 8944   6.461   0.287   9.843
 4881W        W 8945   0.767  10.386   0.352
 4882W        W 8946   8.395   3.143  10.330
 4883W        W 8947   2.990   5.304   0.895
 4884W        W 8948   5.986   3.211   2.677
 4885W        W 8949   2.428   6.487   9.446
 4886W        W 8950   4.879   3.229   3.461
 4887W        W 8951   6.936   0.797  10.369
 4888W        W 8952   6.349   4.601   2.083
 4889W        W 8953   1.890   8.434  10.514
 4890W        W 8954   2.649   0.721  11.385
 4891W        W 8955   7.758   1.195   8.383
 4892W        W 8956   9.455   6.723   1.338
 4893W        W 8957   0.988   0.250   1.382
 4894W        W 8958   7.194   7.687   2.228
 4895W        W 8959   5.140   7.582  10.385
 4896W        W 8960   9.417   9.524   1.554
 4897W        W 8961  10.492   8.503   1.303
 4898W        W 8962   7.404   6.656   2.927
 4899W        W 8963   8.611   2.240   8.912
 4900W        W 8964   8.250   9.949  11.889
 4901W        W 8965   2.337   2.648   8.582
 4902W        W 8966   6.630   4.928   1.776
 4903W        W 8967   0.169   8.490   0.818
 4904W        W 8968   9.279   2.741   2.710
 4905W        W 8969   4.422   6.191  11.447
 4906W        W 8970   3.125  10.314   0.489
 4907W        W 8971   8.942   1.172  10.776
 4908W        W 8972   2.810   1.264   8.644
 4909W        W 8973   8.858   2.604  10.447
 4910W        W 8974   7.812   4.986   9.156
 4911W        W 8975   0.848   4.468   9.646
 4912W        W 8976   6.417   2.851  10.430
 4913W        W 8977   0.227   8.962   0.631
 4914W        W 8978   6.451   1.142   2.415
 4915W        W 8979   5.897   3.642   4.237
 4916W        W 8980   6.460   7.393   2.616
 4917W        W 8981   7.520   3.762   2.968
 4918W        W 8982   9.649   3.224   1.790
 4919W        W 8983   9.356   1.812  11.269
 4920W        W 8984   9.423   7.770   0.299
 4921W        W 8985   1.458   8.781   0.135
 4922W        W 8986   7.019   5.481   9.147
 4923W        W 8987   0.033   4.173  10.514
 4924W        W 8988   7.709   8.082  10.393
 4925W        W 8989   0.691   7.054   3.444
 4926W        W 8990   0.626   9.833   2.136
 4927W        W 8991   2.199   1.302  11.009
 4928W        W 8992   3.290   6.013  11.868
 4929W        W 8993   0.025   3.328  11.098
 4930W        W 8994   8.557   3.314   1.198
 4931W        W 8995   4.486   6.472   1.722
 4932W        W 8996   5.987   2.609  10.443
 4933W        W 8997   1.704   8.006   2.786
 4934W        W 8998   6.945   9.524   9.988
 4935W        W 8999   7.212   6.572  11.216
 4936W        W 9000   2.482   7.519   2.755
 4937W        W 9001   7.288   1.685   0.953
 4938W        W 9002   6.236   4.521   3.408
 4939W        W 9003   6.031   0.425  10.106
 4940W        W 9004   0.137   4.694   1.978
 4941W        W 9005   0.599   4.117   3.437
 4942W        W 9006   9.951   3.517   0.265
 4943W        W 9007   7.946   7.227   1.948
 4944W        W 9008   4.685   4.020   3.833
 4945W        W 9009   9.992   9.063   2.388
 4946W        W 9010   8.512   4.972   8.440
 4947W        W 9011   7.473   4.128  10.440
 4948W        W 9012   2.238   1.144  11.871
 4949W        W 9013   0.764   3.692   2.032
 4950W        W 9014   9.092   1.672   1.207
 4951W        W 9015   4.423   4.204  11.896
 4952W        W 9016   5.576   1.397   1.551
 4953W        W 9017   7.491   0.752   2.641
 4954W        W 9018   6.658   4.690   3.658
 4955W        W 9019   0.998   9.012   1.657
 4956W        W 9020   1.990   6.229   9.458
 4957W        W 9021   3.685   2.678   3.273
 4958W        W 9022   2.340   4.265  10.029
 4959W        W 9023   7.572   7.918   3.167
 4960W        W 9024   8.846   8.974   3.165
 4961W        W 9025   0.174   4.764   0.291
 4962W        W 9026   2.765   4.831  11.646
 4963W        W 9027   6.251   8.367   9.759
 4964W        W 9028   1.038   3.549   2.849
 4965W        W 9029   6.882   8.959   2.220
 4966W        W 9030   2.648   8.495   1.674
 4967W        W 9031   6.943   3.827  11.310
 4968W        W 9032  10.357   8.841   3.459
 4969W        W 9033   1.986   2.553  11.843
 4970W        W 9034   5.612   0.887   9.205
 4971W        W 9035   7.535   8.716   2.828
 4972W        W 9036   0.972   4.356   3.183
 4973W        W 9037   5.421   3.302   9.933
 4974W        W 9038   3.056   4.104   2.790
 4975W        W 9039   7.838   4.524  11.695
 4976W        W 9040   1.404   2.996   2.146
 4977W        W 9041   7.599   9.782   1.972
 4978W        W 9042   0.800   3.160   0.578
 4979W        W 9043   3.600   6.440   2.706
 4980W        W 9044   2.766   9.073   0.686
 4981W        W 9045   9.223   6.583   3.425
 4982W        W 9046   5.475   0.610  10.697
 4983W        W 9047   0.865   9.851   2.576
 4984W        W 9048   7.524  10.087   8.742
 4985W        W 9049   4.221   7.772  11.626
 4986W        W 9050   1.975   1.022   2.363
 4987W        W 9051   2.173  10.091   1.446
 4988W        W 9052   3.579   1.937   2.617
 4989W        W 9053   7.437   4.282  10.920
 4990W        W 9054   7.214   1.809   8.936
 4991W        W 9055   8.556   6.849   1.195
 4992W        W 9056   7.932   2.688   2.242
 4993W        W 9057   9.434   5.595   9.773
 4994W        W 9058   4.616   7.875   1.925
 4995W        W 9059   4.817   0.336  11.298
 4996W        W 9060   6.399   0.854  10.467
 4997W        W 9061   1.634   2.829  10.447
 4998W        W 9062   0.780   1.664   3.346
 4999W        W 9063   4.541   7.108   9.801
 5000W        W 9064   1.815   2.606   8.629
 5001W        W 9065   9.807   5.925  10.584
 5002W        W 9066   4.886   7.552   9.491
 5003W        W 9067   3.409   6.553   9.287
 5004W        W 9068   0.488   2.562   0.308
 5005W        W 9069   1.863   4.240   8.752
 5006W        W 9070   2.165   1.712   8.766
 5007W        W 9071   2.721   3.794   9.790
 5008W        W 9072   4.823   1.176  11.379
 5009W        W 9073   1.647   5.191   0.698
 5010W        W 9074   9.879   6.107   9.131
 5011W        W 9075   9.025   4.223   2.039
 5012W        W 9076   9.196  10.098   9.400
 5013W        W 9077   6.507   9.485  10.242
 5014W        W 9078   8.271   4.512   8.562
 5015W        W 9079   8.823   2.070  11.635
 5016W        W 9080   8.110   9.252  10.108
 5017W        W 9081   9.968   2.117   3.167
 5018W        W 9082  10.202   5.648   9.099
 5019W        W 9083   7.096   6.776  10.337
 5020W        W 9084   9.974  10.295  10.521
 5021W        W 9085   2.252   0.738   8.544
 5022W        W 9086   4.736   5.994   0.529
 5023W        W 9087   8.082   6.737  10.532
 5024W        W 9088   1.218   1.918   3.209
 5025W        W 9089   8.503   5.481   1.697
 5026W        W 9090   5.556   3.353   2.920
 5027W        W 9091  10.276   7.478   2.795
 5028W        W 9092   8.829   4.228   2.909
 5029W        W 9093   0.179   5.663   9.273
 5030W        W 9094   7.595   4.614  10.263
 5031W        W 9095   6.253   0.213   1.522
 5032W        W 9096   4.302  10.044   1.762
 5033W        W 9097   7.982   9.555   0.095
 5034W        W 9098   6.477   4.565   9.940
 5035W        W 9099   9.300   8.373   9.687
 5036W        W 9100   4.159   2.232  10.874
 5037W        W 9101   0.344   4.954   1.182
 5038W        W 9102   3.872   7.211   1.925
 5039W        W 9103   1.625  10.361   1.831
 5040W        W 9104   4.662   7.515   2.788
 5041W        W 9105   8.860   9.824   8.830
 5042W        W 9106   2.093   7.190   2.931
 5043W        W 9107   1.982   1.354   3.174
 5044W        W 9108   8.068   2.137   0.422
 5045W        W 9109   7.030   6.259  10.331
 5046W        W 9110   0.714   4.338  11.750
 5047W        W 9111   5.929   7.852   0.002
 5048W        W 9112  10.329   0.918  10.507
 5049W        W 9113   9.950   6.024   1.413
 5050W        W 9114   7.539   3.611  10.474
 5051W        W 9115   1.439   0.066   0.982
 5052W        W 9116   5.948   6.598   0.291
 5053W        W 9117   2.670   7.455   0.174
 5054W        W 9118   0.219   4.031  10.076
 5055W        W 9119   5.940  10.036  11.554
 5056W        W 9120   9.318   7.905   9.437
 5057W        W 9121   4.426   0.390   8.397
 5058W        W 9122   7.923   7.682  11.362
 5059W        W 9123   6.143   5.937  11.799
 5060W        W 9124   1.838   8.970  11.712
 5061W        W 9125   6.432   6.894  11.521
 5062W        W 9126   4.735   3.385  11.699
 5063W        W 9127   8.474   2.190   2.268
 5064W        W 9128   6.899   5.141  11.239
 5065W        W 9129   5.571   7.900  11.300
 5066W        W 9130   9.392   3.713   1.921
 5067W        W 9131   2.950   0.621   2.080
 5068W        W 9132   5.289   0.460  11.157
 5069W        W 9133   2.886   8.573   0.724
 5070W        W 9134   4.070   1.549  10.587
 5071W        W 9135   1.828   4.917  11.599
 5072W        W 9136   2.820   0.124   2.223
 5073W        W 9137   4.150   0.798   0.912
 5074W        W 9138   6.143   6.750   2.351
 5075W        W 9139   3.691   6.125   0.231
 5076W        W 9140   8.801   5.977  10.873
 5077W        W 9141   7.859   9.898   3.318
 5078W        W 9142   4.158   7.486   3.549
 5079W        W 9143   2.568   7.102   3.078
 5080W        W 9144   2.798   1.250   1.503
 5081W        W 9145   1.965   7.517   0.827
 5082W        W 9146   1.225   5.785   2.817
 5083W        W 9147   8.502   7.417  11.105
 5084W        W 9148   3.941   6.785   2.879
 5085W        W 9149   6.990   7.631   0.075
 5086W        W 9150   7.941   0.076   2.094
 5087W        W 9151   0.333   2.335   2.443
 5088W        W 9152   7.985   0.928   2.849
 5089W        W 9153   5.782   3.440   8.490
 5090W        W 9154   5.265   4.623   3.173
 5091W        W 9155   6.523   1.968   2.805
 5092W        W 9156   6.643   0.678  11.767
 5093W        W 9157   1.910   9.915  11.322
 5094W        W 9158   4.715   0.913   1.681
 5095W        W 9159   9.880   8.354   1.918
 5096W        W 9160   7.538   5.706   2.585
 5097W        W 9161   0.299  10.434   3.484
 5098W        W 9162   8.157   1.808   2.176
 5099W        W 9163   9.032   1.163   1.216
 5100W        W 9164   3.843   6.453   4.118
 5101W        W 9165   6.855   3.169   8.821
 5102W        W 9166   8.712   0.399   2.517
 5103W        W 9167   1.138   6.862   1.792
 5104W        W 9168   7.932   0.937  10.475
 5105W        W 9169   9.061   9.480  11.471
 5106W        W 9170   5.060   1.266   0.904
 5107W        W 9171   9.934   0.453  11.296
 5108W        W 9172   5.940   1.058  10.498
 5109W        W 9173   9.985   6.538   1.347
 5110W        W 9174   5.578  10.214   1.424
 5111W        W 9175   7.448   2.902   0.453
 5112W        W 9176   8.607   1.556   9.041
 5113W        W 9177   6.093   9.935   2.193
 5114W        W 9178   2.279   4.670   0.248
 5115W        W 9179   1.685   8.753   0.606
 5116W        W 9180   0.322   1.190   9.051
 5117W        W 9181  10.291   5.270  11.877
 5118W        W 9182   4.044   6.665  11.930
 5119W        W 9183   8.235   1.003   9.539
 5120W        W 9184   4.326   1.770  10.957
 5121W        W 9185   5.729   5.285   1.129
 5122W        W 9186   1.687   3.160  10.064
 5123W        W 9187  10.115   7.864   3.101
 5124W        W 9188   5.628   8.894  11.167
 5125W        W 9189   4.723   0.267  10.117
 5126W        W 9190   3.628   2.472   9.591
 5127W        W 9191   3.628   2.232  11.576
 5128W        W 9192   0.494   6.338  10.764
 5129W        W 9193   9.008   0.388   1.706
 5130W        W 9194   7.135   6.686   0.232
 5131W        W 9195   7.541   9.486   1.285
 5132W        W 9196   1.632   2.519   9.606
 5133W        W 9197   1.383   6.089   8.919
 5134W        W 9198   2.477   4.147   0.371
 5135W        W 9199   0.887   8.982   2.178
 5136W        W 9200   2.281   0.583   1.426
 5137W        W 9201   6.424   9.355  11.258
 5138W        W 9202   1.567   8.583   3.607
 5139W        W 9203  10.195   7.026   1.897
 5140W        W 9204  10.347   9.314   9.490
 5141W        W 9205   0.725   9.433  11.059
 5142W        W 9206   2.497   5.119   0.918
 5143W        W 9207   0.814   2.385  11.251
 5144W        W 9208   4.180   1.242   1.192
 5145W        W 9209   6.009   5.727   0.397
 5146W        W 9210   2.248   4.237  11.865
 5147W        W 9211   9.078   8.797   0.075
 5148W        W 9212   9.462  10.009   0.233
 5149W        W 9213   4.779   6.536  11.231
 5150W        W 9214   9.357   2.310   1.822
 5151W        W 9215   1.727   7.152   9.366
 5152W        W 9216   3.882   5.488  10.809
 5153W        W 9217   4.626   3.761   0.043
 5154W        W 9218   4.361   4.283  10.427
 5155W        W 9219   2.844   0.902   9.061
 5156W        W 9220   5.332   6.230  11.897
 5157W        W 9221   4.205   0.325   1.230
 5158W        W 9222   3.191   2.383   0.551
 5159W        W 9223   8.918   1.631  10.585
 5160W        W 9224  10.343   3.698  10.238
 5161W        W 9225   6.290   9.035  10.371
 5162W        W 9226   9.621   3.375   9.065
 5163W        W 9227   1.735   9.056  10.288
 5164W        W 9228   6.105   3.635  11.295
 5165W        W 9229   0.905   1.178   3.367
 5166W        W 9230   3.539  10.485   1.722
 5167W        W 9231   4.991   9.417   8.754
 5168W        W 9232   0.352   9.102  11.770
 5169W        W 9233   2.237   8.694   8.832
 5170W        W 9234   0.377   1.304   1.227
 5171W        W 9235   6.442   3.820   1.521
 5172W        W 9236   2.795   5.981   2.607
 5173W        W 9237   0.187   5.498   2.904
 5174W        W 9238   0.906   4.442   2.662
 5175W        W 9239   3.522   2.168  10.009
 5176W        W 9240   4.663   6.089   9.082
 5177W        W 9241   7.015   6.381   0.882
 5178W        W 9242   8.119   8.719   2.181
 5179W        W 9243   5.211   7.187  11.036
 5180W        W 9244   8.945   1.557  11.108
 5181W        W 9245   9.881   4.304   9.017
 5182W        W 9246   0.371   1.448   2.195
 5183W        W 9247   1.301   7.639   2.805
 5184W        W 9248   0.473   5.997   0.154
 5185W        W 9249   6.244   6.498  10.603
 5186W        W 9250   8.297   3.645   1.854
 5187W        W 9251   9.001   6.093   9.461
 5188W        W 9252   0.639   5.370  10.521
 5189W        W 9253   2.213   0.214   8.560
 5190W        W 9254   1.612   8.675   2.280
 5191W        W 9255   5.620   8.497   0.705
 5192W        W 9256   5.205   6.013   0.324
 5193W        W 9257   4.517   1.953   3.173
 5194W        W 9258   4.092   3.763   9.862
 5195W        W 9259   2.910   6.059  11.517
 5196W        W 9260   0.872   1.382  11.749
 5197W        W 9261   6.280   1.674   0.969
 5198W        W 9262   8.209   0.387   2.442
 5199W        W 9263   9.458   7.083   2.955
 5200W        W 9264   3.119   8.062  10.594
 5201W        W 9265  10.172   2.205   9.941
 5202W        W 9266   7.727   9.013   0.369
 5203W        W 9267   5.833   6.519   1.373
 5204W        W 9268   4.571  10.059   1.305
 5205W        W 9269   7.125   8.558  11.031
 5206W        W 9270   1.459   6.131  11.811
 5207W        W 9271   8.674   5.565  11.188
 5208W        W 9272   2.205   7.853   9.191
 5209W        W 9273   4.219   4.077   3.622
 5210W        W 9274   1.698  10.002   3.175
 5211W        W 9275   7.186   4.017   8.424
 5212W        W 9276   8.056   9.436   9.119
 5213W        W 9277   1.929   5.034   0.115
 5214W        W 9278   4.289   8.351   2.238
 5215W        W 9279   0.413   4.173   2.534
 5216W        W 9280   5.388   6.368   1.699
 5217W        W 9281   7.345   9.017   1.318
 5218W        W 9282   7.712   3.752   1.025
 5219W        W 9283   1.331   4.762   2.736
 5220W        W 9284   4.238   6.190   9.417
 5221W        W 9285   6.091   3.042   1.207
 5222W        W 9286   6.160   9.979  10.584
 5223W        W 9287   7.642   1.843   9.253
 5224W        W 9288   8.090   7.578  11.866
 5225W        W 9289  10.269   1.890   9.553
 5226W        W 9290   5.067   5.054   2.375
 5227W        W 9291   5.810   8.186  10.477
 5228W        W 9292   9.211   5.497   8.776
 5229W        W 9293   1.736  10.304   1.302
 5230W        W 9294   2.656   2.205   9.333
 5231W        W 9295   7.732   6.035   0.485
 5232W        W 9296   4.349   8.583   1.297
 5233W        W 9297   6.866   3.955   1.244
 5234W        W 9298   9.435   5.640   3.143
 5235W        W 9299   5.073   8.587   0.133
 5236W        W 9300   4.824   2.286  10.253
 5237W        W 9301   9.399   1.940   2.906
 5238W        W 9302   2.456   2.812   2.188
 5239W        W 9303   8.740   1.158   2.519
 5240W        W 9304   1.492   9.519   3.054
 5241W        W 9305   7.215   0.571  10.856
 5242W        W 9306   0.816   4.194   2.212
 5243W        W 9307  10.216   4.495   2.154
 5244W        W 9308   5.416   6.179   3.383
 5245W        W 9309   8.635   0.495   0.650
 5246W        W 9310   4.513   4.043   9.324
 5247W        W 9311   6.597   7.433   0.361
 5248W        W 9312   1.482  10.202   0.071
 5249W        W 9313   0.893   2.076   8.509
 5250W        W 9314   2.950   8.103   1.844
 5251W        W 9315   8.463   6.483  10.322
 5252W        W 9316   2.123   4.230   1.857
 5253W        W 9317   4.991  10.113   8.429
 5254W        W 9318   2.047   1.829   1.106
 5255W        W 9319   0.388   3.423   9.483
 5256W        W 9320   9.468   3.308   0.901
 5257W        W 9321   4.961   7.796   1.116
 5258W        W 9322   6.500   3.762   3.483
 5259W        W 9323   9.918   3.068   9.848
 5260W        W 9324   0.480   5.048   1.681
 5261W        W 9325   2.195   2.175   8.502
 5262W        W 9326   9.103   8.681   2.323
 5263W        W 9327   9.498   0.028   9.484
 5264W        W 9328   6.427   8.205  11.859
 5265W        W 9329  10.423   9.756   9.836
 5266W        W 9330   9.707   2.192   9.736
 5267W        W 9331   8.891   0.673   1.277
 5268W        W 9332   9.427   7.447   9.614
 5269W        W 9333   4.863   1.353   0.450
 5270W        W 9334   2.031   6.141   2.760
 5271W        W 9335   6.115   2.222   2.622
 5272W        W 9336   9.752   9.486   0.422
 5273W        W 9337   9.814   1.178   3.030
 5274W        W 9338   3.398   2.805   1.392
 5275W        W 9339   1.779   5.160   2.176
 5276W        W 9340   4.544   3.680   3.473
 5277W        W 9341   4.615   0.944   0.672
 5278W        W 9342   7.629   8.744   3.338
 5279W        W 9343   1.671   5.734  11.526
 5280W        W 9344   4.851   4.380   9.592
 5281W        W 9345   5.537   7.438   0.759
 5282W        W 9346   7.807   8.023  10.939
 5283W        W 9347   3.209   5.529   8.932
 5284W        W 9348   3.928   6.154  11.354
 5285W        W 9349   9.272  10.452   1.802
 5286W        W 9350   7.017   0.822   2.450
 5287W        W 9351   5.235   6.982   2.690
 5288W        W 9352   0.468   6.856   1.463
 5289W        W 9353   2.950   3.271   3.467
 5290W        W 9354   0.865   2.373   2.672
 5291W        W 9355  10.006   4.116  11.359
 5292W        W 9356   0.020   6.005   8.449
 5293W        W 9357   5.073   7.077   3.499
 5294W        W 9358   9.704   2.878   2.992
 5295W        W 9359   7.400  10.013  11.481
 5296W        W 9360  10.427   3.096   0.753
 5297W        W 9361   9.398   9.494   1.028
 5298W        W 9362   4.631   8.115   0.901
 5299W        W 9363   8.865   9.961   0.500
 5300W        W 9364   4.286   0.418   9.900
 5301W        W 9365   8.450   5.418   9.499
 5302W        W 9366  10.430   2.138   9.084
 5303W        W 9367   2.572   9.661   2.274
 5304W        W 9368   5.272   7.396   1.196
 5305W        W 9369   1.734   6.166   0.766
 5306W        W 9370   9.510   0.512  11.003
 5307W        W 9371  10.045   8.852   1.898
 5308W        W 9372   9.674   0.856   9.459
 5309W        W 9373   9.291   5.991   2.794
 5310W        W 9374   5.215   8.329   1.953
 5311W        W 9375   2.158   0.430   9.375
 5312W        W 9376   4.009  10.240   1.378
 5313W        W 9377   0.322   0.299  10.257
 5314W        W 9378   4.058   4.984   1.301
 5315W        W 9379   3.184   0.868   0.441
 5316W        W 9380  10.055   2.455   8.834
 5317W        W 9381  10.304   5.266   3.361
 5318W        W 9382   9.065   3.231   0.401
 5319W        W 9383   6.979  10.447  10.960
 5320W        W 9384   4.058   4.454   1.349
 5321W        W 9385   6.077   9.000  11.362
 5322W        W 9386   1.976   4.241  10.403
 5323W        W 9387   7.576   1.448  11.637
 5324W        W 9388   2.906   9.835   0.460
 5325W        W 9389   7.660   5.236   2.703
 5326W        W 9390   0.919   8.426   8.870
 5327W        W 9391  10.302   4.530  11.360
 5328W        W 9392   0.760   4.513   1.353
 5329W        W 9393   3.035   0.981   9.691
 5330W        W 9394   1.178   8.882   8.937
 5331W        W 9395   7.482   3.808   2.430
 5332W        W 9396   5.225   5.825  11.364
 5333W        W 9397   4.353   7.096   2.851
 5334W        W 9398   7.504   3.710   3.498
 5335W        W 9399   0.145   3.212   3.225
 5336W        W 9400   7.465   6.994   1.964
 5337W        W 9401   2.697   6.593   3.272
 5338W        W 9402   5.133   2.593   2.876
 5339W        W 9403   2.368   6.874   0.613
 5340W        W 9404   9.005   6.966   3.148
 5341W        W 9405   8.350   0.890   0.499
 5342W        W 9406   5.360   6.515   1.200
 5343W        W 9407   2.263   7.546   2.231
 5344W        W 9408   5.006   9.469  11.245
 5345W        W 9409   9.795   0.741   3.316
 5346W        W 9410   9.364   2.875   1.177
 5347W        W 9411   0.804   7.430   9.974
 5348W        W 9412   5.168   4.731   8.721
 5349W        W 9413   6.427   1.384   8.991
 5350W        W 9414   1.508   2.773   1.257
 5351W        W 9415   9.420   8.524  10.359
 5352W        W 9416   0.645   6.464   0.028
 5353W        W 9417   1.361   8.445   9.157
 5354W        W 9418   7.577   7.067   1.193
 5355W        W 9419   4.217   6.790   4.275
 5356W        W 9420   0.494   0.344   1.457
 5357W        W 9421   8.180   8.019  10.576
 5358W        W 9422   4.140   6.152  11.901
 5359W        W 9423   7.949   5.873   9.079
 5360W        W 9424   9.961   7.855   1.767
 5361W        W 9425   5.618   8.962  10.652
 5362W        W 9426   7.850   1.382   1.983
 5363W        W 9427   0.094   0.247   2.948
 5364W        W 9428   1.273   3.669   1.534
 5365W        W 9429   8.407   6.998   0.724
 5366W        W 9430   1.268   7.096   9.531
 5367W        W 9431   4.129   5.341   8.894
 5368W        W 9432   6.130   3.531   2.248
 5369W        W 9433   9.845   2.729   1.972
 5370W        W 9434   6.546   6.166   0.832
 5371W        W 9435   9.399   4.737   9.253
 5372W        W 9436   1.560   1.308   0.554
 5373W        W 9437   9.475   5.632  11.279
 5374W        W 9438   0.769   2.985  10.538
 5375W        W 9439   2.441   5.611   3.224
 5376W        W 9440   0.636   9.386   2.396
 5377W        W 9441   2.417   0.365   9.813
 5378W        W 9442   9.943   1.857   1.303
 5379W        W 9443   2.247   7.287  11.894
 5380W        W 9444   6.947   3.786  11.836
 5381W        W 9445   4.609   8.330   3.197
 5382W        W 9446   5.609   9.846  10.872
 5383W        W 9447   8.355   6.619   9.022
 5384W        W 9448   8.825   9.839  10.252
 5385W        W 9449   4.541   9.068   1.151
 5386W        W 9450   3.196   9.182   1.012
 5387W        W 9451   3.731   8.127   8.986
 5388W        W 9452   5.974   3.590   3.530
 5389W        W 9453   8.366   0.054   0.853
 5390W        W 9454   2.004   9.383   0.369
 5391W        W 9455   4.733   1.500  11.009
 5392W        W 9456   2.340   9.185   2.251
 5393W        W 9457   6.589   4.815  10.909
 5394W        W 9458   0.295   7.484  11.008
 5395W        W 9459   9.249   1.879   0.517
 5396W        W 9460   4.180   0.467   1.763
 5397W        W 9461   2.332   4.397   8.567
 5398W        W 9462   4.131   3.525   2.283
 5399W        W 9463   7.396   6.484   8.410
 5400W        W 9464   2.921   0.362   9.837
 5401W        W 9465   4.699   7.055   8.932
 5402W        W 9466   0.804   3.122   9.484
 5403W        W 9467   0.053   1.175   0.351
 5404W        W 9468   7.491   5.673   9.127
 5405W        W 9469   1.284   1.901   0.875
 5406W        W 9470   5.155   8.963  10.474
 5407W        W 9471  10.399   0.058  10.922
 5408W        W 9472   3.153   7.708   2.224
 5409W        W 9473   2.854   6.171   9.326
 5410W        W 9474   7.076   6.949  10.864
 5411W        W 9475   0.355   5.023  10.764
 5412W        W 9476   3.762   1.276   0.879
 5413W        W 9477   9.083   0.267   0.806
 5414W        W 9478   7.948   3.348  10.196
 5415W        W 9479   8.063   2.784   8.975
 5416W        W 9480   9.863   9.773  10.599
 5417W        W 9481   4.355   8.750   8.423
 5418W        W 9482   6.278  10.303   9.828
 5419W        W 9483  10.308   4.743   9.276
 5420W        W 9484   3.196   6.255   0.291
 5421W        W 9485   5.030   3.840   1.897
 5422W        W 9486  10.214   5.739  11.728
 5423W        W 9487   3.296   5.255   2.254
 5424W        W 9488   1.238   6.581   9.669
 5425W        W 9489   1.688   7.855  10.889
 5426W        W 9490   7.278   7.178   9.981
 5427W        W 9491   5.752   1.782  10.755
 5428W        W 9492   3.049   3.264   9.976
 5429W        W 9493   7.290   6.113   9.897
 5430W        W 9494   6.430   1.203   0.853
 5431W        W 9495   7.527   0.242  11.847
 5432W        W 9496   1.969   9.340   2.812
 5433W        W 9497   8.554   7.010   3.389
 5434W        W 9498   0.479   6.901   2.982
 5435W        W 9499   6.177   0.149   9.425
 5436W        W 9500   1.937   7.569   9.538
 5437W        W 9501   7.154   4.538  10.519
 5438W        W 9502   5.245   2.639   2.378
 5439W        W 9503   5.683   3.907   9.146
 5440W        W 9504   4.326  10.003   8.981
 5441W        W 9505   3.399   7.429   1.848
 5442W        W 9506   5.658   0.280  11.449
 5443W        W 9507   1.263   7.080  10.055
 5444W        W 9508   7.462   8.269  11.906
 5445W        W 9509   2.876   1.009   2.505
 5446W        W 9510   0.086   7.548   0.184
 5447W        W 9511   5.035   7.572   3.455
 5448W        W 9512   1.259   3.720   9.563
 5449W        W 9513   4.684   4.727   2.452
 5450W        W 9514   4.222   9.372   0.875
 5451W        W 9515   3.247   1.425   9.588
 5452W        W 9516   3.208   7.070   3.642
 5453W        W 9517   1.158   5.387   1.853
 5454W        W 9518  10.032   7.039   9.581
 5455W        W 9519   9.657   7.572   8.273
 5456W        W 9520   7.533   8.175   9.915
 5457W        W 9521  10.059   6.356   3.255
 5458W        W 9522   6.525   0.248  11.436
 5459W        W 9523   2.001   4.796   9.011
 5460W        W 9524   5.636   0.906   1.681
 5461W        W 9525   2.427  10.480  10.557
 5462W        W 9526   0.156   9.798   2.351
 5463W        W 9527   2.620   4.359   2.695
 5464W        W 9528   6.117   8.809  11.847
 5465W        W 9529   4.697   6.030   1.528
 5466W        W 9530   7.524   4.265   2.826
 5467W        W 9531   5.274   3.597   0.949
 5468W        W 9532   4.598   5.944   3.789
 5469W        W 9533  10.027   9.571   3.692
 5470W        W 9534   3.428   1.826   1.370
 5471W        W 9535   4.421   5.682   1.271
 5472W        W 9536   7.685   9.968   9.582
 5473W        W 9537   6.030   9.478  10.469
 5474W        W 9538   8.354   7.077   8.635
 5475W        W 9539   8.457   8.098   2.720
 5476W        W 9540   2.864   7.576   1.815
 5477W        W 9541   1.834   1.379   3.658
 5478W        W 9542   3.616   9.189   0.279
 5479W        W 9543   1.414   7.097   1.008
 5480W        W 9544   1.695   0.209   9.374
 5481W        W 9545   6.734   6.561  10.781
 5482W        W 9546   5.596   9.826   9.381
 5483W        W 9547   0.338   0.966   9.518
 5484W        W 9548  10.461   6.171   0.979
 5485W        W 9549   5.062   6.134  10.586
 5486W        W 9550   0.106   9.186  11.340
 5487W        W 9551   7.082   7.145   1.374
 5488W        W 9552   4.942  10.439   8.823
 5489W        W 9553   3.745   6.190   9.172
 5490W        W 9554   3.339   0.472   1.169
 5491W        W 9555   4.811   2.898  10.993
 5492W        W 9556   2.743   3.231  11.261
 5493W        W 9557   6.489   9.904   2.993
 5494W        W 9558   4.244   9.557  11.383
 5495W        W 9559   0.709   9.124   0.641
 5496W        W 9560   9.023   2.228   8.337
 5497W        W 9561   9.957   6.637   9.907
 5498W        W 9562   5.160  10.007  11.105
 5499W        W 9563   7.030   2.672   2.780
 5500W        W 9564   3.810   2.963   9.679
 5501W        W 9565   3.215   2.373  11.280
 5502W        W 9566   6.572   3.774   8.901
 5503W        W 9567   1.028   7.900  11.908
 5504W        W 9568  10.342   3.109  10.132
 5505W        W 9569   3.012   2.826   2.325
 5506W        W 9570   0.452   5.587   2.405
 5507W        W 9571   7.751   1.547   1.064
 5508W        W 9572   1.136   9.730   9.739
 5509W        W 9573   2.164   6.112   9.935
 5510W        W 9574   9.251   6.545   8.730
 5511W        W 9575   0.195   6.129   3.418
 5512W        W 9576   8.082   6.449   0.457
 5513W        W 9577   7.551   1.925   1.343
 5514W        W 9578   9.826   3.341   3.116
 5515W        W 9579   5.421   2.967   8.884
 5516W        W 9580   6.026   6.609   1.847
 5517W        W 9581   6.190   0.824   3.032
 5518W        W 9582   7.596   1.606   9.725
 5519W        W 9583   0.441   6.487  11.251
 5520W        W 9584   6.289   6.158   0.349
 5521W        W 9585   3.813   3.114   2.354
 5522W        W 9586   2.843   0.458   1.302
 5523W        W 9587   3.731   9.521  11.305
 5524W        W 9588   0.737   3.680   3.680
 5525W        W 9589   7.941   6.704   1.848
 5526W        W 9590   9.229   2.793   9.119
 5527W        W 9591   1.280   0.984   9.529
 5528W        W 9592   1.381   1.479   9.539
 5529W        W 9593   1.844   3.794  11.270
 5530W        W 9594   9.068   5.286  11.420
 5531W        W 9595   4.232   8.030   0.159
 5532W        W 9596   5.078   4.129   2.794
 5533W        W 9597   3.736   3.310   9.290
 5534W        W 9598   6.076   3.257   0.188
 5535W        W 9599   3.530   7.996   2.409
 5536W        W 9600   3.332   0.689  10.629
 5537W        W 9601   0.143   7.061   0.878
 5538W        W 9602   4.494   7.609   0.042
 5539W        W 9603   1.880   0.811  10.428
 5540W        W 9604   7.490   5.492   4.086
 5541W        W 9605   1.790   6.656   0.595
 5542W        W 9606   3.942   5.527   1.142
 5543W        W 9607   8.625   8.800   2.242
 5544W        W 9608   5.057   4.884  11.484
 5545W        W 9609   9.074   5.760  11.581
 5546W        W 9610   5.259   6.421   9.981
 5547W        W 9611   5.686   6.468   0.829
 5548W        W 9612   2.425  10.333   3.485
 5549W        W 9613   2.488   0.877  10.931
 5550W        W 9614   1.043   5.675  10.453
 5551W        W 9615   7.142   2.268   1.990
 5552W        W 9616   3.989   0.314  10.932
 5553W        W 9617   7.449   6.273   2.465
 5554W        W 9618   2.239   1.909   9.249
 5555W        W 9619   5.930   7.669   3.520
 5556W        W 9620   4.404  10.350   0.505
 5557W        W 9621   4.150   6.567   8.575
 5558W        W 9622   5.741   2.526  11.830
 5559W        W 9623   6.969   7.139   9.536
 5560W        W 9624   7.428   2.244  10.722
 5561W        W 9625   6.437   5.698   0.128
 5562W        W 9626   3.350   9.550   8.515
 5563W        W 9627   2.173   5.921   0.879
 5564W        W 9628   5.994   2.816   0.438
 5565W        W 9629   6.507   2.460   8.560
 5566W        W 9630   0.815   2.815   2.389
 5567W        W 9631   2.084   8.461   0.707
 5568W        W 9632   4.211   6.108   0.428
 5569W        W 9633   5.721   1.277  10.926
 5570W        W 9634   6.407   9.126   0.914
 5571W        W 9635   0.040   6.501   3.098
 5572W        W 9636   5.148   1.829   8.823
 5573W        W 9637   5.902   0.957   0.439
 5574W        W 9638   1.999   9.916   3.560
 5575W        W 9639   4.666   9.428  10.577
 5576W        W 9640   7.056   8.585   1.270
 5577W        W 9641   1.663   8.536   9.535
 5578W        W 9642   8.037   7.842   2.939
 5579W        W 9643   6.105   0.491  11.127
 5580W        W 9644   1.179   0.428   0.170
 5581W        W 9645   1.510   4.257   0.253
 5582W        W 9646   9.291   4.665   3.527
 5583W        W 9647   3.149   3.616   9.565
 5584W        W 9648   8.909   8.820  11.554
 5585W        W 9649   9.787   7.444   0.763
 5586W        W 9650   3.291   1.567  10.871
 5587W        W 9651   7.401   1.633   0.455
 5588W        W 9652   5.924   8.034   2.346
 5589W        W 9653   6.995   2.764   9.739
 5590W        W 9654   2.674   2.832   0.965
 5591W        W 9655   3.032   9.784   3.162
 5592W        W 9656   9.581   7.180   2.472
 5593W        W 9657   8.190   6.267   3.547
 5594W        W 9658   4.715   0.339  11.959
 5595W        W 9659   0.256   5.418   1.370
 5596W        W 9660   5.964   7.965   1.393
 5597W        W 9661   6.554   3.639  11.029
 5598W        W 9662   7.174   1.378   3.198
 5599W        W 9663   9.960   7.053   2.806
 5600W        W 9664   9.815   0.979  11.222
 5601W        W 9665   5.236   3.156   9.386
 5602W        W 9666   9.352   6.067   8.970
 5603W        W 9667   1.335   9.961   1.899
 5604W        W 9668   6.964   8.101  11.833
 5605W        W 9669   3.140   6.667   0.544
 5606W        W 9670   7.270  10.402  10.039
 5607W        W 9671   7.521   2.377   1.134
 5608W        W 9672   6.608   2.098  10.012
 5609W        W 9673   9.481   1.052   0.926
 5610W        W 9674   2.244   9.133  10.101
 5611W        W 9675   8.092   1.406  11.854
 5612W        W 9676   5.633   3.396   2.368
 5613W        W 9677   3.788   5.937   9.610
 5614W        W 9678  10.442   1.955   0.049
 5615W        W 9679   4.140   1.333   2.270
 5616W        W 9680   4.684   9.290   1.981
 5617W        W 9681   7.842   5.606   0.204
 5618W        W 9682   5.560   8.921   2.508
 5619W        W 9683   0.796   5.181  10.986
 5620W        W 9684   8.988   4.588   0.749
 5621W        W 9685   5.225   9.984   9.078
 5622W        W 9686   0.225   6.941   0.370
 5623W        W 9687   8.018   4.514   9.051
 5624W        W 9688   0.269   2.824   2.392
 5625W        W 9689   7.472   3.141  10.233
 5626W        W 9690   1.450   9.259   3.837
 5627W        W 9691   2.269  10.046  10.924
 5628W        W 9692   8.895   8.809   1.358
 5629W        W 9693   6.593   7.862   2.817
 5630W        W 9694   0.930   8.626   0.133
 5631W        W 9695   4.183   6.112   1.471
 5632W        W 9696   6.568   8.655   0.011
 5633W        W 9697   2.429   1.717   0.187
 5634W        W 9698   0.170   9.914   8.868
 5635W        W 9699   7.521   8.073   2.222
 5636W        W 9700   2.284   5.107   1.984
 5637W        W 9701   2.731   3.572  10.280
 5638W        W 9702   5.288   2.640   1.178
 5639W        W 9703   5.946   9.005   1.188
 5640W        W 9704   7.869   3.185   3.514
 5641W        W 9705   4.697   7.930  11.685
 5642W        W 9706   1.957   8.897   0.208
 5643W        W 9707  10.479   0.239   9.383
 5644W        W 9708   4.992   4.459  10.096
 5645W        W 9709   0.468  10.386   2.918
 5646W        W 9710   4.541   2.841   3.423
 5647W        W 9711   7.267   3.181   1.539
 5648W        W 9712   8.421   8.100   9.833
 5649W        W 9713   1.567   8.562  11.304
 5650W        W 9714   0.856   7.980   1.229
 5651W        W 9715   8.160   3.655   1.229
 5652W        W 9716   1.891   7.854   1.973
 5653W        W 9717   2.871   9.414   1.379
 5654W        W 9718   8.506   2.435   1.269
 5655W        W 9719   1.831   1.177   9.741
 5656W        W 9720   3.335   5.039   1.774
 5657W        W 9721   7.086   5.973   9.065
 5658W        W 9722   0.117   5.388  10.501
 5659W        W 9723   6.082  10.283   1.698
 5660W        W 9724   4.084   2.910  11.384
 5661W        W 9725   6.444   9.288   9.349
 5662W        W 9726   6.934   8.937  11.292
 5663W        W 9727   3.482   2.206   1.021
 5664W        W 9728   3.342   6.740  11.747
 5665W        W 9729   0.596   4.981  11.416
 5666W        W 9730  10.370   5.424  11.358
 5667W        W 9731   5.545   4.120   1.847
 5668W        W 9732   0.866   2.305   3.213
 5669W        W 9733   5.225   7.041   8.965
 5670W        W 9734   3.256   5.133   9.279
 5671W        W 9735   0.476   8.242   9.095
 5672W        W 9736   1.002   7.373   0.772
 5673W        W 9737   0.992   2.126   0.228
 5674W        W 9738   7.868   6.641   0.014
 5675W        W 9739   9.327   0.554   3.158
 5676W        W 9740   4.551   4.507   3.920
 5677W        W 9741   6.416   0.156  11.961
 5678W        W 9742  10.490   3.929   0.156
 5679W        W 9743   6.102   9.322   9.984
 5680W        W 9744   4.561   5.306   9.673
 5681W        W 9745   8.534   5.907   9.574
 5682W        W 9746   9.890   8.281  11.971
 5683W        W 9747   5.626   1.804   8.997
 5684W        W 9748   1.244   0.316  11.032
 5685W        W 9749   3.244   8.414   8.913
 5686W        W 9750   9.470   7.835  10.979
 5687W        W 9751   9.925   9.804   1.683
 5688W        W 9752   5.703   3.476  10.346
 5689W        W 9753   7.360   3.136   8.809
 5690W        W 9754   1.839   7.886   0.462
 5691W        W 9755   1.368   3.836   1.052
 5692W        W 9756   5.134   8.647   0.644
 5693W        W 9757   0.750   0.885  11.543
 5694W        W 9758   1.402   0.234   9.883
 5695W        W 9759   8.143   5.991   1.340
 5696W        W 9760   9.501   5.718   1.230
 5697W        W 9761   0.879   5.430  10.020
 5698W        W 9762   3.683   5.900   3.644
 5699W        W 9763   3.518  10.306   9.387
 5700W        W 9764   7.671   1.868   8.670
 5701W        W 9765   1.301   4.957  10.959
 5702W        W 9766   7.717   6.375   9.756
 5703W        W 9767   5.090   3.652   1.412
 5704W        W 9768   1.224  10.272   1.376
 5705W        W 9769   6.618   3.266   3.297
 5706W        W 9770   0.854   4.001   9.448
 5707W        W 9771   1.284   7.836  10.568
 5708W        W 9772   3.388   7.545   2.695
 5709W        W 9773   2.818   4.075  10.206
 5710W        W 9774   1.676   2.792  11.516
 5711W        W 9775   0.850   6.470  11.570
 5712W        W 9776   5.439   8.447   3.155
 5713W        W 9777   2.186   3.311   1.848
 5714W        W 9778   5.992   5.459  11.979
 5715W        W 9779   7.622   0.103   0.762
 5716W        W 9780   2.127   9.304   9.612
 5717W        W 9781   7.665   1.221   0.667
 5718W        W 9782   3.710   3.614   1.658
 5719W        W 9783   7.112  10.463   3.146
 5720W        W 9784   5.683   0.788  11.137
 5721W        W 9785   7.997   2.619   0.245
 5722W        W 9786   3.328   0.716  11.462
 5723W        W 9787   8.783   2.259   9.902
 5724W        W 9788   2.774   1.446   9.886
 5725W        W 9789   6.943   4.930  10.257
 5726W        W 9790   4.410   5.181   3.639
 5727W        W 9791   1.226   9.311   1.251
 5728W        W 9792   2.411   5.669   9.966
 5729W        W 9793   3.222   3.318   9.118
 5730W        W 9794   9.127   3.282   1.896
 5731W        W 9795   5.497   3.725   0.516
 5732W        W 9796   0.193   9.573  11.951
 5733W        W 9797   5.105   3.155   1.171
 5734W        W 9798   5.676   6.518   3.123
 5735W        W 9799  10.345   7.193  10.860
 5736W        W 9800   9.879   9.043   1.464
 5737W        W 9801   6.881   9.923   2.611
 5738W        W 9802   4.613   2.381   0.698
 5739W        W 9803   1.346   0.881   0.354
 5740W        W 9804   6.149   0.067  10.768
 5741W        W 9805   3.756   5.030   2.134
 5742W        W 9806   1.278   1.028   3.060
 5743W        W 9807   3.887   0.893  11.187
 5744W        W 9808   7.434   9.552   9.748
 5745W        W 9809   7.034   8.138  11.312
 5746W        W 9810  10.079  10.463   2.902
 5747W        W 9811   1.846   1.678   9.599
 5748W        W 9812   4.737  10.462   9.675
 5749W        W 9813   6.327  10.029   8.784
 5750W        W 9814   2.855   7.578   9.275
 5751W        W 9815   2.413   6.117  11.462
 5752W        W 9816   7.596   5.379   2.161
 5753W        W 9817   4.548   3.154   1.800
 5754W        W 9818   8.971   0.438   9.125
 5755W        W 9819   8.355   2.246  10.246
 5756W        W 9820   9.152  10.309   1.287
 5757W        W 9821   6.977   6.082  10.803
 5758W        W 9822   4.443   7.737   1.238
 5759W        W 9823   9.484   2.121   3.360
 5760W        W 9824   4.128   7.026   3.309
 5761W        W 9825   4.567   8.812   2.144
 5762W        W 9826   2.159   2.369   9.545
 5763W        W 9827   4.678   8.389  11.445
 5764W        W 9828   4.521   5.489   9.207
 5765W        W 9829   5.179   0.954  10.934
 5766W        W 9830   9.465   4.865   2.931
 5767W        W 9831  10.360   2.884   3.571
 5768W        W 9832   4.629   0.443   1.534
 5769W        W 9833   3.485   5.575   8.190
 5770W        W 9834   8.606   0.974   0.922
 5771W        W 9835   1.473   9.279   8.767
 5772W        W 9836   2.223   6.414   0.786
 5773W        W 9837   2.907   4.796   0.864
 5774W        W 9838   8.093   8.548   1.106
 5775W        W 9839   8.871   7.417  10.254
 5776W        W 9840   0.972  10.202  10.561
 5777W        W 9841   7.340   4.106   1.034
 5778W        W 9842   1.155   6.524   0.003
 5779W        W 9843   2.484   9.603  10.762
 5780W        W 9844   7.096   9.942  10.235
 5781W        W 9845   3.108   7.927   9.562
 5782W        W 9846   0.419   5.229   9.391
 5783W        W 9847   9.065   7.910   3.335
 5784W        W 9848   0.300   8.604  11.914
 5785W        W 9849   7.520   5.528   3.586
 5786W        W 9850   0.529   8.605  10.612
 5787W        W 9851   8.374   9.462   1.936
 5788W        W 9852   8.941   6.627  11.503
 5789W        W 9853   0.859   2.109   9.031
 5790W        W 9854   7.469   6.483   1.990
 5791W        W 9855   4.535   4.128   1.296
 5792W        W 9856   0.450   4.558  10.527
 5793W        W 9857   3.697   0.784   2.761
 5794W        W 9858   5.506   3.325  10.831
 5795W        W 9859   2.504   1.724  11.335
 5796W        W 9860   2.377   0.323   1.923
 5797W        W 9861   3.169   5.283   3.237
 5798W        W 9862   4.248  10.206  11.712
 5799W        W 9863   0.485   4.620   3.390
 5800W        W 9864   9.158   6.644  10.587
 5801W        W 9865  10.290   7.221   0.453
 5802W        W 9866   0.719   6.075   9.848
 5803W        W 9867   0.177   8.123   0.077
 5804W        W 9868   2.129   2.095   0.026
 5805W        W 9869   3.673   5.029   4.234
 5806W        W 9870   4.633   5.735   2.425
 5807W        W 9871   7.532   2.644   0.007
 5808W        W 9872   8.982   9.414  10.509
 5809W        W 9873   9.995  10.243  11.064
 5810W        W 9874   3.354   8.384   0.606
 5811W        W 9875   0.949  10.410   0.966
 5812W        W 9876   8.445   1.759  10.402
 5813W        W 9877   3.157   4.798   0.376
 5814W        W 9878   5.662   2.309   2.891
 5815W        W 9879   0.505   1.127  10.510
 5816W        W 9880   3.688   8.180   3.346
 5817W        W 9881   9.359   9.442   0.066
 5818W        W 9882   1.713   3.764  10.281
 5819W        W 9883   6.223   7.688  11.122
 5820W        W 9884   2.620  10.382   1.312
 5821W        W 9885   9.088   9.891   0.955
 5822W        W 9886   0.660   8.233  11.964
 5823W        W 9887   9.981   4.619  11.789
 5824W        W 9888   1.463   3.448   2.554
 5825W        W 9889   3.801   9.309   2.664
 5826W        W 9890   3.072   9.596   9.898
 5827W        W 9891   0.397   3.902   9.632
 5828W        W 9892   1.357   3.733   9.060
 5829W        W 9893   0.864   8.590   1.401
 5830W        W 9894   4.138   7.455   8.986
 5831W        W 9895   3.334   0.465   0.159
 5832W        W 9896   9.457   9.990   1.763
 5833W        W 9897   2.318   5.972   0.365
 5834W        W 9898   3.822   0.418  11.952
 5835W        W 9899   1.074   9.939   3.522
 5836W        W 9900   9.510   3.451  11.015
 5837W        W 9901   2.122   4.398   2.793
 5838W        W 9902   4.966   7.197   8.527
 5839W        W 9903   4.235   1.799   9.817
 5840W        W 9904   0.485  10.294   0.781
 5841W        W 9905   2.674   5.954  10.790
 5842W        W 9906   0.789   0.315   9.986
 5843W        W 9907   6.567   1.651  11.835
 5844W        W 9908   4.537   5.067   3.065
 5845W        W 9909   3.923   5.046   3.770
 5846W        W 9910   1.942   4.703   1.976
 5847W        W 9911   1.839   7.038   8.881
 5848W        W 9912   8.309   2.331   9.735
 5849W        W 9913   4.650   5.011  11.754
 5850W        W 9914   5.110   4.974  10.102
 5851W        W 9915   0.219   7.032   1.880
 5852W        W 9916  10.333   0.057   2.122
 5853W        W 9917   6.778   7.017   9.993
 5854W        W 9918   1.058   3.984  10.413
 5855W        W 9919   6.939   4.544   1.973
 5856W        W 9920   5.973   6.446   2.718
 5857W        W 9921   1.965   9.765   9.446
 5858W        W 9922   3.051  10.005  11.967
 5859W        W 9923   2.579   6.602  11.567
 5860W        W 9924   4.720   0.731  11.626
 5861W        W 9925   7.143   1.702   9.973
 5862W        W 9926   2.617  10.278   1.821
 5863W        W 9927  10.027   9.542   2.866
 5864W        W 9928   2.163   2.309   2.332
 5865W        W 9929   1.312   3.101  11.349
 5866W        W 9930   3.754   9.328   9.470
 5867W        W 9931   0.523  10.477  11.869
 5868W        W 9932   0.975   3.355  11.623
 5869W        W 9933  10.306   7.936   9.733
 5870W        W 9934   6.131   6.658   9.448
 5871W        W 9935   0.489   5.728  10.178
 5872W        W 9936   6.728   5.012   4.074
 5873W        W 9937   7.843   3.100   0.198
 5874W        W 9938   3.775   7.135   0.358
 5875W        W 9939   6.476   4.090  10.208
 5876W        W 9940   7.624   8.269   3.549
 5877W        W 9941   6.623   2.602  10.042
 5878W        W 9942   5.991   5.704   1.236
 5879W        W 9943   4.134   4.266   1.818
 5880W        W 9944  10.473  10.412  10.386
 5881W        W 9945   5.541   9.586  11.945
 5882W        W 9946   5.505   0.270   3.226
 5883W        W 9947   6.438   4.038  11.365
 5884W        W 9948   9.468   1.342   2.176
 5885W        W 9949   8.324   5.753  10.872
 5886W        W 9950   5.725   2.158   3.399
 5887W        W 9951   3.081   9.360   1.846
 5888W        W 9952   5.017   5.043   2.879
 5889W        W 9953   2.518   2.769   9.433
 5890W        W 9954   0.350   3.028   9.821
 5891W        W 9955   4.104   3.882  11.293
 5892W        W 9956   1.281   8.992   2.508
 5893W        W 9957   1.980   0.455   3.562
 5894W        W 9958   7.828   8.351   3.034
 5895W        W 9959   6.505   7.291   1.762
 5896W        W 9960   7.259   0.835   9.979
 5897W        W 9961   1.192   8.171   3.526
 5898W        W 9962   6.598   5.671   3.859
 5899W        W 9963   2.326   5.193  10.207
 5900W        W 9964   4.986   3.410   8.080
 5901W        W 9965   1.139   4.317   1.009
 5902W        W 9966   1.593   4.965   9.928
 5903W        W 9967   8.646   1.535   3.524
 5904W        W 9968   3.537   3.097   1.909
 5905W        W 9969   2.203   5.252   3.523
 5906W        W 9970   5.523   2.637   3.300
 5907W        W 9971   7.243   6.216   0.458
 5908W        W 9972   5.228   1.345  11.677
 5909W        W 9973   9.091   7.060   0.647
 5910W        W 9974   2.288   2.828   9.918
 5911W        W 9975  10.036   4.024  10.519
 5912W        W 9976  10.073   1.336  10.201
 5913W        W 9977   7.700   9.469   2.652
 5914W        W 9978   0.833   1.618  10.297
 5915W        W 9979   3.768   8.476  11.028
 5916W        W 9980   3.089   0.022   0.005
 5917W        W 9981   1.997   9.365   1.020
 5918W        W 9982   5.448   7.021   3.154
 5919W        W 9983   9.723  10.412   0.439
 5920W        W 9984   4.303   2.437  10.314
 5921W        W 9985   7.706   8.022   0.287
 5922W        W 9986   4.704   1.393   1.514
 5923W        W 9987   6.576   9.699  11.985
 5924W        W 9988   3.291   5.764   2.304
 5925W        W 9989   6.029   4.308   9.976
 5926W        W 9990   5.007   1.306   9.202
 5927W        W 9991   6.967   9.496  10.533
 5928W        W 9992   0.612   6.618   0.507
 5929W        W 9993   8.904  10.363   9.046
 5930W        W 9994   9.143   7.033   9.836
 5931W        W 9995   9.360   5.159   0.756
 5932W        W 9996   9.913   7.542   9.841
 5933W        W 9997   9.647   0.428   2.424
 5934W        W 9998   2.320   9.792   1.041
 5935W        W 9999   8.173   3.134   2.018
 5936W        W10000   3.286   1.289   2.291
 5937W        W10001   6.039   1.810   2.974
 5938W        W10002   6.047   7.384  10.330
 5939W        W10003   2.438   9.432   2.692
 5940W        W10004   7.244   1.223   9.633
 5941W        W10005   2.713   1.965   9.980
 5942W        W10006   8.607   9.534  10.826
 5943W        W10007   9.367   7.079   2.003
 5944W        W10008   5.717   6.078   2.471
 5945W        W10009   3.925   1.359  11.397
 5946W        W10010   3.251   4.320   1.284
 5947W        W10011   4.539   4.062   9.850
 5948W        W10012   5.196   5.603   3.127
 5949W        W10013   7.927   3.544   2.654
 5950W        W10014   2.792   3.363  10.746
 5951W        W10015   4.795   9.891   8.819
 5952W        W10016   1.885  10.303   8.734
 5953W        W10017   7.410   4.998   9.969
 5954W        W10018   1.908   2.329   0.482
 5955W        W10019   1.083   5.547   1.108
 5956W        W10020  10.276   8.032   1.381
 5957W        W10021   0.831   8.101  11.471
 5958W        W10022   0.976   0.152   8.614
 5959W        W10023   5.410   7.561   4.231
 5960W        W10024   0.021   5.860   2.460
 5961W        W10025   5.437   0.361   9.393
 5962W        W10026  10.453   7.000   9.267
 5963W        W10027   4.621   7.404  11.612
 5964W        W10028   1.278   2.356   9.221
 5965W        W10029   6.963   7.676  11.550
 5966W        W10030   5.289   2.162  10.088
 5967W        W10031   5.476   3.989  11.677
 5968W        W10032   3.305   5.544   3.670
 5969W        W10033   1.794   7.574   3.160
 5970W        W10034   9.020   1.521   2.308
 5971W        W10035   4.380   4.527   9.499
 5972W        W10036   6.591   2.114   0.048
 5973W        W10037   4.657  10.475  11.590
 5974W        W10038   3.176   7.071   9.984
 5975W        W10039   4.621   4.405   8.403
 5976W        W10040   3.243   9.906   2.716
 5977W        W10041   3.409   3.508   3.340
 5978W        W10042   5.760   5.586   8.590
 5979W        W10043   6.058  10.073  11.061
 5980W        W10044   2.548   9.425   1.810
 5981W        W10045   2.974   6.119   3.138
 5982W        W10046  10.006   9.732   0.811
 5983W        W10047   9.851   1.679   2.905
 5984W        W10048   5.545   4.395   8.468
 5985W        W10049   2.542   9.166  10.498
 5986W        W10050   1.259  10.337   0.530
 5987W        W10051   9.205   0.948   2.387
 5988W        W10052   5.100   8.176   0.460
 5989W        W10053  10.215   8.873   9.132
 5990W        W10054   9.340   1.327   2.727
 5991W        W10055  10.011   1.820   9.003
 5992W        W10056   2.525   8.236   0.826
 5993W        W10057   8.463   1.072  10.515
 5994W        W10058   3.720   7.099   1.022
 5995W        W10059   6.621   6.596  10.264
 5996W        W10060   3.048   2.696   9.354
 5997W        W10061   8.939   6.073   3.239
 5998W        W10062   8.703   3.899   3.684
 5999W        W10063   9.123  10.260  11.040
 6000W        W10064   9.841   8.873   3.357
 6001W        W10065   5.710   4.764   9.017
 6002W        W10066   0.286   2.233   1.278
 6003W        W10067   2.663   3.852  10.748
 6004W        W10068  10.259   2.664   1.526
 6005W        W10069   3.366   8.447   2.617
 6006W        W10070   5.480   2.264   8.806
 6007W        W10071   3.711   4.164   3.561
 6008W        W10072   5.610   4.912   8.531
 6009W        W10073   3.396   7.534   9.750
 6010W        W10074   4.671   8.131   1.440
 6011W        W10075   8.973   1.707   2.794
 6012W        W10076   9.505   9.935   1.257
 6013W        W10077   8.679   2.738   9.083
 6014W        W10078   2.619   3.073  10.336
 6015W        W10079   2.285   3.838  10.315
 6016W        W10080   0.638   7.602  10.557
 6017W        W10081   6.692   1.673  11.299
 6018W        W10082   8.560   8.858   0.004
 6019W        W10083   2.276   9.865   1.915
 6020W        W10084   6.359   0.452   8.994
 6021W        W10085   7.337   5.733   0.231
 6022W        W10086   9.872   9.223   8.917
 6023W        W10087   6.689   7.862   3.349
 6024W        W10088   1.847   6.535   1.120
 6025W        W10089   8.042   9.464   1.093
 6026W        W10090   7.406   5.610   0.712
 6027W        W10091   0.270   4.765   9.568
 6028W        W10092   1.647   1.990   0.183
 6029W        W10093   2.234  10.299  11.950
 6030W        W10094   5.702   1.590   0.278
 6031W        W10095   0.755   1.271   9.344
 6032W        W10096   2.639   5.497   9.524
 6033W        W10097   2.899   4.302   3.235
 6034W        W10098   8.892  10.443   2.712
 6035W        W10099   1.853   3.753   8.920
 6036W        W10100   7.903  10.361   9.344
 6037W        W10101   5.226   1.885   1.691
 6038W        W10102   6.604   3.071  11.726
 6039W        W10103   6.383   3.281  10.706
 6040W        W10104   8.117   5.718  11.768
 6041W        W10105   8.946   5.298  11.966
 6042W        W10106   1.879   1.260   8.785
 6043W        W10107   8.794   0.175   1.238
 6044W        W10108   3.323   8.156   1.114
 6045W        W10109   0.688   9.804   8.900
 6046W        W10110   4.205   7.555   3.055
 6047W        W10111   5.514   5.005   9.429
 6048W        W10112   2.413   9.979   0.589
 6049W        W10113   1.772   5.679   2.818
 6050W        W10114   6.517  10.462   1.140
 6051W        W10115   5.069   0.791  10.460
 6052W        W10116   6.048   2.246  10.770
 6053W        W10117   8.163   9.668   2.404
 6054W        W10118   7.284   7.949   1.788
 6055W        W10119   4.123   1.452   3.280
 6056W        W10120   4.044   2.644   2.216
 6057W        W10121   0.250   9.597  10.996
 6058W        W10122   6.931   1.355   1.683
 6059W        W10123   5.160   9.293   1.828
 6060W        W10124   8.186   2.451   0.855
 6061W        W10125   3.795   0.891  10.690
 6062W        W10126   6.007   7.221   2.489
 6063W        W10127   3.338   5.794   0.453
 6064W        W10128   6.918   8.872   9.419
 6065W        W10129   7.636   7.629  10.568
 6066W        W10130   3.480   5.502   0.859
 6067W        W10131   2.027   5.353  11.727
 6068W        W10132   8.557   0.705   0.073
 6069W        W10133   0.404   2.388   0.793
 6070W        W10134   9.717   7.870   9.069
 6071W        W10135   1.817   2.680   0.864
 6072W        W10136   7.883  10.339  10.973
 6073W        W10137   9.143   0.324  10.442
 6074W        W10138   5.784   8.387   8.415
 6075W        W10139   5.108   5.158  11.979
 6076W        W10140   4.682   7.385   1.787
 6077W        W10141   4.300   4.678   2.780
 6078W        W10142   0.967   5.540   2.452
 6079W        W10143   6.122   0.470  11.645
 6080W        W10144   7.927   5.221  11.852
 6081W        W10145   7.150   1.711   9.448
 6082W        W10146   5.700   7.532   9.562
 6083W        W10147   9.314   8.778   9.383
 6084W        W10148   7.589   4.971   1.101
 6085W        W10149   8.808   0.705  10.306
 6086W        W10150   1.734   1.789   0.653
 6087W        W10151   1.695   0.788   1.576
 6088W        W10152   1.198   5.187   3.465
 6089W        W10153  10.246   2.780   2.404
 6090W        W10154   0.005   8.940   1.651
 6091W        W10155   5.682   1.692  11.252
 6092W        W10156   8.079   1.292   0.357
 6093W        W10157   2.184  10.460   9.588
 6094W        W10158   2.650   6.366  11.095
 6095W        W10159   4.236   9.454   3.233
 6096W        W10160   8.855   5.094   0.837
 6097W        W10161   9.525   9.065   0.807
 6098W        W10162   9.305   9.820  10.064
 6099W        W10163   2.865   3.159   9.482
 6100W        W10164   3.119   6.216  10.051
 6101W        W10165   6.658   3.212   2.205
 6102W        W10166   7.035   6.929   3.166
 6103W        W10167   8.678   2.381  11.114
 6104W        W10168   3.145   4.385  11.428
 6105W        W10169   4.181   0.051   9.544
 6106W        W10170   6.660   7.575   9.563
 6107W        W10171   2.470   1.650  10.274
 6108W        W10172   0.245   5.714  11.541
 6109W        W10173   8.410   7.759  11.463
 6110W        W10174   0.204   1.790  11.171
 6111W        W10175   4.553   9.499   9.047
 6112W        W10176   3.575   2.822   9.228
 6113W        W10177   0.067   1.335  10.344
 6114W        W10178   7.606   0.637   0.823
 6115W        W10179   2.181   8.147  10.169
 6116W        W10180   8.959   1.204  10.255
 6117W        W10181   3.849   8.043  11.370
 6118W        W10182   8.997   5.518   0.491
 6119W        W10183   6.477   4.404   8.432
 6120W        W10184   7.940   2.824  11.761
 6121W        W10185   6.393   0.975   0.397
 6122W        W10186   7.076   5.496   3.329
 6123W        W10187   3.461   5.029   0.016
 6124W        W10188   4.652   0.235   3.439
 6125W        W10189   1.551  10.154   3.684
 6126W        W10190   3.638   3.151   8.800
 6127W        W10191   2.898   4.698   2.488
 6128W        W10192   7.103   4.061   2.080
 6129W        W10193   9.809   7.431   3.120
 6130W        W10194   2.678   5.008   0.440
 6131W        W10195   8.865   7.736   9.247
 6132W        W10196   6.861   1.209   9.984
 6133W        W10197   5.882   8.137   0.441
 6134W        W10198   7.159   4.803   3.892
 6135W        W10199   4.563   0.006   1.010
 6136W        W10200   8.545   4.049  11.356
 6137W        W10201   3.170   5.698  11.242
 6138W        W10202   5.612   2.649   1.893
 6139W        W10203   6.415   8.816   9.553
 6140W        W10204   2.586   1.954   2.176
 6141W        W10205   3.370   9.785   1.837
 6142W        W10206   0.654   7.573   8.419
 6143W        W10207   5.626   8.317   1.179
 6144W        W10208   2.476   4.809   9.877
 6145W        W10209   0.248   4.354  11.969
 6146W        W10210   3.699   0.872   1.210
 6147W        W10211   0.457   3.830   9.142
 6148W        W10212   5.895   9.568   2.497
 6149W        W10213   1.698   3.797   1.838
 6150W        W10214   4.782   6.263   2.426
 6151W        W10215   1.711   8.084   3.327
 6152W        W10216   1.734   3.909   9.405
 6153W        W10217   4.721   0.771  11.096
 6154W        W10218   9.888   8.498  11.493
 6155W        W10219   0.415   6.160   2.488
 6156W        W10220   2.354   1.721   9.714
 6157W        W10221   8.024   5.101   2.092
 6158W        W10222   5.490  10.330  10.203
 6159W        W10223   3.308   2.352   2.660
 6160W        W10224   1.901   3.574   3.343
 6161W        W10225   5.128   9.547   0.271
 6162W        W10226   6.016   1.294   2.840
 6163W        W10227   8.944   2.025   2.378
 6164W        W10228   9.141   5.090   1.827
 6165W        W10229   0.713   7.192   1.791
 6166W        W10230   2.268   4.159   0.881
 6167W        W10231   7.131   1.250   0.713
 6168W        W10232   7.602   2.849   0.961
 6169W        W10233   6.784   6.983   2.711
 6170W        W10234   9.482   8.417   2.524
 6171W        W10235   1.237   2.812   9.473
 6172W        W10236   2.207   9.313  11.889
 6173W        W10237   7.492   5.627  10.862
 6174W        W10238   0.403   0.852   0.908
 6175W        W10239   5.600   4.288   2.609
 6176W        W10240   1.420   3.390   0.303
 6177W        W10241   8.909   9.474   1.776
 6178W        W10242   4.703   5.759  11.361
 6179W        W10243   7.236   2.545   0.742
 6180W        W10244   3.703   7.982   1.429
 6181W        W10245   7.711  10.244  11.979
 6182W        W10246   0.388   5.973  11.139
 6183W        W10247   0.797   0.424  11.813
 6184W        W10248   3.109   3.563   0.013
 6185W        W10249   0.375   8.558   3.052
 6186W        W10250   4.256   9.184   9.465
 6187W        W10251   2.374   3.064   0.345
 6188W        W10252   3.105   2.751   3.538
 6189W        W10253   5.211   3.843   8.957
 6190W        W10254   2.828   8.864   1.158
 6191W        W10255  10.352   5.657   1.694
 6192W        W10256   0.947   2.109  10.434
 6193W        W10257   5.545   2.637   0.297
 6194W        W10258   6.461   4.285   8.929
 6195W        W10259   3.270   9.278  11.472
 6196W        W10260   3.765   4.687   0.990
 6197W        W10261   0.828   1.446   1.971
 6198W        W10262   9.525   1.608  11.750
 6199W        W10263   8.091   8.277   0.600
 6200W        W10264   1.848   5.085  10.333
 6201W        W10265   9.954   6.398   1.849
 6202W        W10266   4.934   6.437   0.349
 6203W        W10267   3.372   9.906  10.691
 6204W        W10268   6.561   2.462   2.861
 6205W        W10269   5.278   3.295   8.515
 6206W        W10270   8.939   3.149   8.897
 6207W        W10271   3.207   1.373  10.127
 6208W        W10272   9.763   6.552   8.875
 6209W        W10273   9.921   6.981   8.541
 6210W        W10274   4.616   1.553   2.876
 6211W        W10275   4.624   2.649   2.378
 6212W        W10276   3.979   4.243  11.646
 6213W        W10277   4.426   8.705   9.544
 6214W        W10278   6.244   6.916   0.007
 6215W        W10279   6.115   4.944   0.924
 6216W        W10280   2.761  10.125   2.301
 6217W        W10281   2.127  10.012   9.874
 6218W        W10282   4.693   0.995  10.199
 6219W        W10283   6.564   1.915   1.387
 6220W        W10284   6.069  10.402  10.282
 6221W        W10285   9.347   9.588   2.074
 6222W        W10286   8.683   5.478   8.484
 6223W        W10287   5.481   1.232   0.602
 6224W        W10288   0.632   9.861   9.815
 6225W        W10289   6.853   0.920   1.410
 6226W        W10290   5.219   3.200  11.733
 6227W        W10291   6.041   2.671   9.048
 6228W        W10292   0.457   9.104   3.600
 6229W        W10293   8.155   3.613   8.931
 6230W        W10294   0.684   1.811  11.970
 6231W        W10295   0.976   6.041   9.318
 6232W        W10296   8.080   7.596  10.878
 6233W        W10297   7.931   9.481   1.617
 6234W        W10298   6.948   3.765   9.695
 6235W        W10299   6.070   2.076   1.171
 6236W        W10300   9.302   7.494  10.619
 6237W        W10301   6.614   2.974   2.873
 6238W        W10302   5.635   9.367   1.714
 6239W        W10303   7.079   8.606  11.967
 6240W        W10304   2.844   2.369  10.894
 6241W        W10305   8.547   9.389   8.918
 6242W        W10306   1.289   6.049   1.018
 6243W        W10307   5.257   1.846  10.941
 6244W        W10308   9.089   6.992  11.178
 6245W        W10309   0.009   1.741   1.187
 6246W        W10310   6.567   0.762  10.000
 6247W        W10311   5.985   3.812   8.189
 6248W        W10312   9.271   2.184   9.997
 6249W        W10313   4.076   6.630   1.478
 6250W        W10314   5.196   8.980   9.959
 6251W        W10315   6.102   2.790   1.701
 6252W        W10316   5.227   4.682   9.712
 6253W        W10317   1.678   4.068   3.668
 6254W        W10318   7.359   5.169  11.025
 6255W        W10319   4.522   3.610   9.610
 6256W        W10320   1.913   1.428   2.676
 6257W        W10321   3.067   2.259   9.003
 6258W        W10322   9.470   8.276   0.280
 6259W        W10323   0.831   1.583   8.915
 6260W        W10324   3.845   7.702   1.844
 6261W        W10325   5.603   9.357  10.961
 6262W        W10326   0.711   2.988   1.514
 6263W        W10327   6.862   5.916   1.767
 6264W        W10328   3.071   4.039  11.068
 6265W        W10329   3.055   8.900   9.099
 6266W        W10330   9.871   2.224   0.688
 6267W        W10331   7.939   6.176   1.783
 6268W        W10332  10.236   0.771   0.325
 6269W        W10333   7.483   3.591   9.006
 6270W        W10334   5.919   0.543   9.623
 6271W        W10335   7.900   4.526   2.029
 6272W        W10336   6.915   0.291  10.546
 6273W        W10337   2.169   0.498  11.248
 6274W        W10338   3.307   0.751   2.424
 6275W        W10339   5.818   0.046   9.822
 6276W        W10340  10.157   1.269   3.392
 6277W        W10341   1.230   4.267  11.799
 6278W        W10342   6.674   6.111   8.800
 6279W        W10343   7.982   0.379   3.338
 6280W        W10344   1.408   0.282   2.066
 6281W        W10345   0.328   3.796   1.732
 6282W        W10346   7.930   9.977  10.627
 6283W        W10347   4.145   2.689   0.187
 6284W        W10348   9.541   5.208   9.077
 6285W        W10349   4.183   3.752   1.841
 6286W        W10350   6.635   3.822   2.485
 6287W        W10351   7.715   3.163   1.774
 6288W        W10352   5.394   0.428   2.747
 6289W        W10353   4.887   9.791   3.583
 6290W        W10354   3.791   2.135   8.552
 6291W        W10355   5.477   5.282   9.897
 6292W        W10356   3.111   4.776  10.591
 6293W        W10357   6.962   4.081  10.357
 6294W        W10358   0.328   1.688   3.106
 6295W        W10359   5.575   0.271  11.962
 6296W        W10360   3.295  10.288   3.428
 6297W        W10361   3.340   7.571   3.696
 6298W        W10362   1.268   1.707   0.386
 6299W        W10363   1.765   8.623   4.082
 6300W        W10364   3.738   1.170   3.073
 6301W        W10365   6.025   8.054  11.519
 6302W        W10366   2.855   3.133   0.166
 6303W        W10367   4.243   5.707   9.638
 6304W        W10368   3.677   8.692   1.829
 6305W        W10369   5.551   9.825   0.440
 6306W        W10370   2.276   4.732  11.746
 6307W        W10371   4.158   0.900   2.570
 6308W        W10372   6.788   3.235   1.722
 6309W        W10373   2.502   7.337  10.178
 6310W        W10374   7.927   0.333  11.052
 6311W        W10375   7.366   3.699   1.396
 6312W        W10376   9.850   5.980  11.447
 6313W        W10377   6.126   7.052   9.106
 6314W        W10378   9.144   0.848   9.904
 6315W        W10379   2.768   5.129  10.492
 6316W        W10380   7.490   2.850   2.970
 6317W        W10381   2.268   5.767   1.360
 6318W        W10382   1.227   0.482  11.549
 6319W        W10383   9.480   1.101  11.864
 6320W        W10384   6.095   8.808   9.951
 6321W        W10385   1.426   3.674   3.492
 6322W        W10386   4.848   8.890  11.807
 6323W        W10387   3.304   5.994   2.783
 6324W        W10388   9.087   2.685   9.994
 6325W        W10389   5.244   3.098   2.571
 6326W        W10390   8.954   4.961   1.341
 6327W        W10391   3.772   3.139   1.446
 6328W        W10392   3.195   7.769   1.463
 6329W        W10393  10.116   3.892   9.780
 6330W        W10394   0.023   0.364   1.672
 6331W        W10395   7.129   3.782  10.749
 6332W        W10396   7.875   3.211   8.759
 6333W        W10397   0.138   7.816   3.027
 6334W        W10398   8.435   5.134  11.866
 6335W        W10399   9.079   5.536   1.006
 6336W        W10400   5.789   1.606   3.407
 6337W        W10401   4.057   1.401  10.118
 6338W        W10402   3.163   8.824   1.928
 6339W        W10403   3.353   0.045   9.877
 6340W        W10404   2.450   6.443  10.236
 6341W        W10405   9.366   5.857   0.283
 6342W        W10406   3.155   6.555   3.484
 6343W        W10407   3.807  10.048   1.867
 6344W        W10408   3.339  10.030   9.790
 6345W        W10409   5.015   0.244   1.878
 6346W        W10410   5.291   8.090  10.315
 6347W        W10411   1.375   9.053   2.015
 6348W        W10412   1.399   2.258  10.151
 6349W        W10413   1.887   2.648   3.412
 6350W        W10414   0.189   3.747   2.756
 6351W        W10415   5.760   6.570  11.167
 6352W        W10416   8.035   9.393  11.408
 6353W        W10417   6.166   1.852  11.051
 6354W        W10418   5.073   8.055  11.342
 6355W        W10419   4.525   1.370   9.912
 6356W        W10420   6.152   7.099   0.478
 6357W        W10421   3.060   1.871   0.977
 6358W        W10422   6.960   4.664   1.490
 6359W        W10423   1.017  10.152   8.671
 6360W        W10424   6.300   8.263   3.279
 6361W        W10425   2.471   4.267  10.524
 6362W        W10426   2.128   0.776   9.947
 6363W        W10427   7.183   9.813   0.701
 6364W        W10428   9.320   1.870   2.051
 6365W        W10429   1.804   9.317   9.178
 6366W        W10430   5.578   8.686  11.816
 6367W        W10431   9.769   4.593  11.310
 6368W        W10432   7.091   5.927   2.604
 6369W        W10433   1.825   5.670  11.002
 6370W        W10434   9.338   4.949  11.946
 6371W        W10435   3.068   1.350   9.110
 6372W        W10436   7.867  10.267  11.488
 6373W        W10437   1.561   0.211  11.867
 6374W        W10438   6.342   5.578   2.497
 6375W        W10439   8.547   0.998  11.057
 6376W        W10440   0.633   4.582   1.866
 6377W        W10441   7.517   7.124   0.681
 6378W        W10442   6.617   4.751   3.118
 6379W        W10443   8.513  10.354   3.067
 6380W        W10444   8.076   1.798   2.796
 6381W        W10445   7.064   0.481   0.626
 6382W        W10446   2.217   3.245   2.373
 6383W        W10447   3.192   4.694   9.559
 6384W        W10448   9.268   9.837  10.562
 6385W        W10449   5.343   3.071   2.071
 6386W        W10450   4.148   7.961   3.382
 6387W        W10451   2.415   4.125   2.299
 6388W        W10452   0.728   4.226   0.701
 6389W        W10453   9.418   9.676   9.151
 6390W        W10454   5.751   1.151  11.981
 6391W        W10455   8.853   2.321   1.966
 6392W        W10456   6.937   0.427   8.945
 6393W        W10457   8.944   5.683   1.950
 6394W        W10458   1.718   3.773  10.779
 6395W        W10459   9.700   3.559   3.564
 6396W        W10460   8.447   8.471  10.867
 6397W        W10461   8.084   0.439   0.615
 6398W        W10462   0.790   3.152  10.051
 6399W        W10463   6.220   9.601   0.974
 6400W        W10464   5.313   9.942   0.950
 6401W        W10465  10.070   3.186   2.086
 6402W        W10466  10.394   9.280  10.007
 6403W        W10467   6.054   7.166  11.301
 6404W        W10468   2.377   1.479   1.304
 6405W        W10469   6.715   3.221  10.273
 6406W        W10470   3.659   9.094   3.181
 6407W        W10471   2.854   6.154   8.790
 6408W        W10472   3.323   4.751   2.217
 6409W        W10473   3.578  10.474   0.700
 6410W        W10474   8.910   7.606   8.745
 6411W        W10475   9.715   8.757   9.057
 6412W        W10476  10.440   2.148   2.983
 6413W        W10477   2.370   2.113  10.517
 6414W        W10478   2.052   3.256   9.732
 6415W        W10479   6.884   1.832   1.877
 6416W        W10480   9.955   1.328   2.035
 6417W        W10481   9.802   9.081   2.876
 6418W        W10482   2.966   4.299  10.643
 6419W        W10483   5.608   4.487   9.429
 6420W        W10484   5.534   3.301   3.470
 6421W        W10485   0.361   7.256  11.554
 6422W        W10486   2.173   3.760  11.646
 6423W        W10487  10.098   3.512   8.972
 6424W        W10488   2.734   3.098   8.981
 6425W        W10489   8.611   3.855  10.620
 6426W        W10490   3.770   3.148   3.465
 6427W        W10491   7.299   7.141   2.766
 6428W        W10492   1.859   5.015   1.147
 6429W        W10493   6.845   9.880   9.394
 6430W        W10494   3.593   5.019   2.614
 6431W        W10495   0.396   7.865   0.450
 6432W        W10496   8.960   9.338   1.302
 6433W        W10497   5.782   1.757   9.478
 6434W        W10498   2.182   6.504   0.295
 6435W        W10499   5.330   2.876  10.957
 6436W        W10500   8.952   9.481   9.225
 6437W        W10501   7.194   5.235   8.457
 6438W        W10502   5.147   6.609  10.460
 6439W        W10503   9.483   4.063   0.272
 6440W        W10504   8.333   1.831   0.791
 6441W        W10505   9.152   6.142   3.692
 6442W        W10506   8.849   8.375   3.182
 6443W        W10507   1.716   0.551   0.235
 6444W        W10508   1.313  10.479  11.456
 6445W        W10509   9.978   8.553   2.474
 6446W        W10510   8.435   5.992   1.752
 6447W        W10511   1.219   7.180   3.045
 6448W        W10512   5.643   8.294   9.533
 6449W        W10513   4.279   4.773   8.617
 6450W        W10514   9.969   7.907  11.110
 6451W        W10515   7.330   5.101   3.070
 6452W        W10516   8.046   2.269   1.974
 6453W        W10517   6.449   9.841   0.468
 6454W        W10518   4.977   3.682   9.382
 6455W        W10519   6.188   6.333  11.362
 6456W        W10520   1.898   0.425   3.029
 6457W        W10521   2.193   4.665   9.469
 6458W        W10522   6.503   9.621   9.725
 6459W        W10523   4.944   8.044   2.289
 6460W        W10524   4.433   2.656   1.886
 6461W        W10525  10.243   9.647  10.947
 6462W        W10526   6.262   5.147   2.249
 6463W        W10527   5.468   3.330   1.498
 6464W        W10528   0.758   7.798   9.129
 6465W        W10529   6.212  10.445   3.176
 6466W        W10530   6.331   2.842   0.805
 6467W        W10531   5.448   1.137  10.507
 6468W        W10532   4.681   2.743  10.106
 6469W        W10533   1.847   6.167   2.265
 6470W        W10534   6.231   5.053   3.297
 6471W        W10535   1.597   6.564   8.837
 6472W        W10536   6.063   6.097   1.801
 6473W        W10537   5.699   4.317   1.385
 6474W        W10538   3.833   7.752   0.358
 6475W        W10539   0.441   6.571   3.408
 6476W        W10540   0.889   4.981  10.271
 6477W        W10541   0.165  10.191   2.052
 6478W        W10542   5.271   2.697  11.862
 6479W        W10543   9.571   3.122   0.256
 6480W        W10544  10.189   6.497   8.559
 6481W        W10545   5.243  10.431   2.829
 6482W        W10546   7.413   9.109   9.508
 6483W        W10547   4.474   6.473   0.147
 6484W        W10548   8.617   9.561   2.718
 6485W        W10549   2.381   4.233   1.393
 6486W        W10550  10.373   2.188   0.924
 6487W        W10551   7.976   7.907  10.007
 6488W        W10552   1.451   9.597  11.498
 6489W        W10553   5.677   7.231   3.556
 6490W        W10554   2.852   6.989   8.730
 6491W        W10555   3.020   3.483   0.537
 6492W        W10556   0.388   9.992   3.248
 6493W        W10557   5.503   9.360   2.243
 6494W        W10558   7.708   3.278   1.256
 6495W        W10559   6.219   4.028   4.125
 6496W        W10560   8.108   0.706   1.448
 6497W        W10561   0.417   4.110   1.332
 6498W        W10562   3.549   0.534  11.047
 6499W        W10563   4.793   9.856   1.749
 6500W        W10564   5.036   6.569   3.363
 6501W        W10565   1.841   1.388   0.984
 6502W        W10566   6.205   5.229   1.766
 6503W        W10567  10.040   5.802   2.326
 6504W        W10568   8.603   1.650  11.849
 6505W        W10569   6.046   8.551   1.887
 6506W        W10570   7.399   9.186   2.978
 6507W        W10571   8.853   8.384   1.972
 6508W        W10572   7.399   1.244   2.453
 6509W        W10573   9.581   9.500  11.553
 6510W        W10574   0.968   6.865   0.817
 6511W        W10575   7.000   0.806  11.377
 6512W        W10576   1.203   1.270   2.288
 6513W        W10577   1.664   9.067   3.367
 6514W        W10578   4.022   5.870  10.061
 6515W        W10579   2.650   2.487  11.773
 6516W        W10580   1.585   7.437  10.401
 6517W        W10581   1.188   1.001   1.349
 6518W        W10582   6.119   4.468   1.108
 6519W        W10583   3.357   2.587   1.850
 6520W        W10584   5.828   2.696  10.951
 6521W        W10585   8.321   7.312   1.150
 6522W        W10586   6.244   7.793   0.407
 6523W        W10587   0.552   4.072  10.452
 6524W        W10588   6.536   2.747   2.438
 6525W        W10589   2.216   2.839   1.149
 6526W        W10590   0.637  10.290   1.912
 6527W        W10591   6.298   1.339  10.242
 6528W        W10592   8.937   4.019   9.086
 6529W        W10593   8.817   2.810   0.528
 6530W        W10594   3.198   6.727   1.540
 6531W        W10595   5.190   0.883   1.898
 6532W        W10596   8.071   7.745   1.164
 6533W        W10597   8.247  10.437   9.731
 6534W        W10598   1.747   3.036   2.539
 6535W        W10599   1.786   6.119  10.701
 6536W        W10600   9.463   2.401   1.345
 6537W        W10601   4.937   6.389   1.943
 6538W        W10602   9.402   5.432   2.679
 6539W        W10603   4.812   8.635   9.886
 6540W        W10604   2.155   6.528  11.251
 6541W        W10605   4.621   3.344   2.578
 6542W        W10606   5.701   0.232  10.944
 6543W        W10607   1.406   8.515   2.734
 6544W        W10608   2.725   6.018  10.284
 6545W        W10609   2.792   2.209   0.243
 6546W        W10610   3.765   5.424   3.457
 6547W        W10611   4.567   6.052   2.019
 6548W        W10612   6.430   2.312   9.099
 6549W        W10613   1.829   2.188   2.751
 6550W        W10614   8.879   1.311   3.102
 6551W        W10615   7.180   1.067  10.810
 6552W        W10616   2.398   2.357   1.896
 6553W        W10617   0.929   1.123  10.231
 6554W        W10618   6.612   0.789   2.747
 6555W        W10619   0.396   9.856   2.776
 6556W        W10620   4.498   2.598   9.106
 6557W        W10621   2.168   1.408   9.315
 6558W        W10622   3.685   5.356   0.380
 6559W        W10623   8.548   6.356   0.251
 6560W        W10624   7.221  10.320  11.853
 6561W        W10625   3.610   8.462  10.544
 6562W        W10626   4.691   8.926   2.621
 6563W        W10627   7.909   2.673   2.755
 6564W        W10628   3.203   0.919   0.948
 6565W        W10629   1.583   3.104   0.719
 6566W        W10630   5.441   8.024   2.293
 6567W        W10631   9.354   3.619   2.433
 6568W        W10632   4.249   5.675  11.743
 6569W        W10633   1.095   2.872   8.507
 6570W        W10634   9.063   6.417  11.031
 6571W        W10635   3.786   6.958  10.481
 6572W        W10636   8.831   3.747   1.935
 6573W        W10637   9.941   7.698   3.534
 6574W        W10638   6.603   0.522   0.263
 6575W        W10639   3.308   6.599   9.785
 6576W        W10640  10.085   9.314  11.274
 6577W        W10641   5.784   4.310   3.104
 6578W        W10642   5.613   3.211   0.456
 6579W        W10643   0.758   8.969   3.197
 6580W        W10644   7.802   7.154  10.156
 6581W        W10645   8.437   6.040   9.078
 6582W        W10646   1.508   0.062   2.889
 6583W        W10647   0.435   0.327   0.754
 6584W        W10648   3.631   5.487  10.347
 6585W        W10649   8.835  10.322   0.867
 6586W        W10650   8.601   8.585   8.987
 6587W        W10651   5.855   4.390   2.164
 6588W        W10652   0.170   6.503   8.749
 6589W        W10653   6.573   6.747   8.872
 6590W        W10654   0.109   8.618  10.910
 6591W        W10655   7.857   3.647   9.342
 6592W        W10656   3.004   7.085   1.872
 6593W        W10657   7.832   7.687   2.179
 6594W        W10658   5.173  10.243   1.846
 6595W        W10659   5.705   4.065   3.981
 6596W        W10660   5.496   7.617  11.824
 6597W        W10661   6.166   2.800  11.951
 6598W        W10662   4.896   8.695   8.500
 6599W        W10663   5.517   0.752   0.203
 6600W        W10664   8.355   5.998   0.883
 6601W        W10665   5.168   5.992   2.758
 6602W        W10666   8.584   4.178   1.745
 6603W        W10667   6.207   3.716  10.419
 6604W        W10668   2.207   2.291   0.975
 6605W        W10669   9.431   5.357   0.268
 6606W        W10670   7.450   3.074   9.726
 6607W        W10671   5.789   4.780   3.324
 6608W        W10672   1.978   6.130  11.722
 6609W        W10673   4.137   4.883   9.785
 6610W        W10674   5.903   1.387   9.826
 6611W        W10675   1.852   6.955   1.453
 6612W        W10676   4.992   1.669   2.495
 6613W        W10677   3.730   2.255   2.083
 6614W        W10678   6.970   6.285   9.464
 6615W        W10679   3.401   1.905  11.245
 6616W        W10680   1.805   0.850   0.631
 6617W        W10681   3.334   4.490   0.795
 6618W        W10682   9.749   4.173   2.938
 6619W        W10683   4.449  10.406   8.651
 6620W        W10684   0.266   6.201  10.270
 6621W        W10685   3.318   1.135   2.786
 6622W        W10686   1.779   5.697   8.692
 6623W        W10687   8.558   8.429   8.494
 6624W        W10688   5.095   1.417  10.693
 6625W        W10689   0.755   5.486   1.514
 6626W        W10690   9.259   8.177   2.910
 6627W        W10691   6.523   5.606  11.172
 6628W        W10692  10.361   5.957  11.308
 6629W        W10693   9.461   6.880   0.082
 6630W        W10694   9.675   2.510  11.519
 6631W        W10695   7.540   8.408   8.453
 6632W        W10696   7.924   1.385   9.353
 6633W        W10697   0.803   7.506   1.393
 6634W        W10698   0.899   3.592   0.285
 6635W        W10699   1.608   0.819  11.327
 6636W        W10700  10.275   7.458  11.306
 6637W        W10701   8.422   8.056  11.862
 6638W        W10702   7.040   2.299   3.571
 6639W        W10703   3.118   3.542  11.090
 6640W        W10704   0.336   5.788   1.005
 6641W        W10705   4.264   0.745  10.872
 6642W        W10706   7.978   6.949   0.434
 6643W        W10707   1.400   7.565  11.840
 6644W        W10708   4.961   3.515   9.872
 6645W        W10709   1.890   7.203   2.301
 6646W        W10710   1.275   6.286  11.321
 6647W        W10711   4.203   8.566   1.788
 6648W        W10712   4.961  10.301  10.142
 6649W        W10713   7.979   4.096  10.521
 6650W        W10714   8.945   2.836   9.536
 6651W        W10715   2.403   6.180   9.030
 6652W        W10716   1.022   8.551  10.717
 6653W        W10717   8.989   9.948   1.974
 6654W        W10718   1.271   9.040   3.019
 6655W        W10719   7.241   3.958   9.259
 6656W        W10720   7.157   0.506   0.128
 6657W        W10721   8.712  10.432   9.963
 6658W        W10722   2.773   6.903   2.278
 6659W        W10723   4.742   7.368  11.134
 6660W        W10724   2.202   3.698   0.666
 6661W        W10725   4.765   3.603   1.006
 6662W        W10726   9.463   1.735   3.688
 6663W        W10727   9.883   3.803  10.971
 6664W        W10728   6.438   9.580   3.389
 6665W        W10729   3.324   4.571   2.714
 6666W        W10730   3.291   7.043   0.171
 6667W        W10731   6.718   9.582   0.856
 6668W        W10732   5.647   9.225   3.370
 6669W        W10733   4.252   1.303   0.705
 6670W        W10734   8.811   3.794  11.724
 6671W        W10735  10.038   2.242   0.218
 6672W        W10736   6.114   0.909   8.985
 6673W        W10737   6.376   0.927   3.488
 6674W        W10738   9.194   1.491   1.743
 6675W        W10739   2.300  10.218  11.448
 6676W        W10740   0.679   7.852   9.635
 6677W        W10741   4.337   3.058   2.263
 6678W        W10742   2.456   9.693   9.602
 6679W        W10743   0.787   1.917   1.790
 6680W        W10744   5.554   9.867   2.762
 6681W        W10745   0.023   0.695   2.661
 6682W        W10746   0.382   4.994  10.240
 6683W        W10747   2.903   7.507   9.871
 6684W        W10748   8.695   1.231   1.994
 6685W        W10749   9.985   4.854   3.264
 6686W        W10750  10.102   8.644   2.972
 6687W        W10751   2.668   6.240   9.815
 6688W        W10752   6.641   5.703  10.694
 6689W        W10753   2.163   8.238  11.878
 6690W        W10754   5.280   6.932  10.098
 6691W        W10755   0.234   6.009   2.935
 6692W        W10756   1.034   7.630  11.458
 6693W        W10757   8.127   3.507   0.743
 6694W        W10758  10.447  10.216  11.323
 6695W        W10759   0.557   9.371   2.890
 6696W        W10760   6.477   2.338  10.487
 6697W        W10761   4.219   7.084  11.670
 6698W        W10762   6.383   5.124   2.749
 6699W        W10763   2.218   1.637   0.654
 6700W        W10764   8.990   1.911   9.082
 6701W        W10765   2.276   2.709   3.071
 6702W        W10766   0.376   3.602   1.256
 6703W        W10767   8.853   8.633   9.620
 6704W        W10768   5.988   2.333   0.255
 6705W        W10769   6.319   9.807   1.721
 6706W        W10770   2.564   7.332  10.724
 6707W        W10771   3.239   8.898   0.534
 6708W        W10772   3.319   4.201  10.269
 6709W        W10773   0.031   8.480   9.004
 6710W        W10774   7.411  10.180   0.970
 6711W        W10775   3.175   1.831   9.873
 6712W        W10776   8.120   3.082   2.523
 6713W        W10777   6.014   4.574   8.645
 6714W        W10778   4.601   4.091   1.819
 6715W        W10779   0.170   9.005   8.888
 6716W        W10780   4.139   3.246   2.719
 6717W        W10781   2.663   5.686  11.262
 6718W        W10782   7.094  10.474   0.714
 6719W        W10783   2.309   1.197   0.875
 6720W        W10784   3.830   5.468   2.449
 6721W        W10785   4.028   4.142   9.485
 6722W        W10786   9.775   5.928   1.906
 6723W        W10787   3.225  10.230  11.070
 6724W        W10788   0.043   7.586   0.707
 6725W        W10789   4.118   5.949  10.919
 6726W        W10790   6.996   3.361  11.069
 6727W        W10791   1.282   9.974   2.886
 6728W        W10792   7.394  10.417   9.519
 6729W        W10793   2.326   7.528   3.259
 6730W        W10794  10.324   1.229   8.852
 6731W        W10795   5.178   6.037   1.319
 6732W        W10796   8.353   3.130   3.351
 6733W        W10797   9.953   7.188   3.548
 6734W        W10798   6.970   9.995   3.114
 6735W        W10799   4.289   1.685   1.419
 6736W        W10800   6.560   3.559  11.552
 6737W        W10801   1.341  10.017   0.933
 6738W        W10802   3.668   5.772   8.849
 6739W        W10803   9.975   3.366   0.774
 6740W        W10804   4.483   7.916   2.436
 6741W        W10805   6.521   5.709   1.121
 6742W        W10806   0.898   6.195   0.392
 6743W        W10807   0.861   5.974   1.299
 6744W        W10808  10.328   3.986   0.649
 6745W        W10809   6.564   7.044   2.227
 6746W        W10810   9.531  10.192  10.318
 6747W        W10811   9.572   2.405   2.953
 6748W        W10812   6.385   1.769   1.900
 6749W        W10813   2.155   8.974   0.716
 6750W        W10814   5.069   7.202   0.767
 6751W        W10815   3.277   6.088   1.887
 6752W        W10816   7.541  10.093   0.486
 6753W        W10817   0.386   9.421   0.399
 6754W        W10818   6.973   4.213   8.888
 6755W        W10819   5.682   6.035   1.465
 6756W        W10820   9.192   3.303  11.925
 6757W        W10821   6.590   8.649  10.060
 6758W        W10822   4.657   8.483  10.943
 6759W        W10823   9.963   3.819   3.212
 6760W        W10824   5.108   0.858  11.930
 6761W        W10825   0.238   5.846   9.755
 6762W        W10826   5.548   1.164   1.092
 6763W        W10827   4.103   3.509   3.152
 6764W        W10828   2.260   6.707   3.035
 6765W        W10829   7.662   0.858  10.936
 6766W        W10830   6.857   9.439   2.459
 6767W        W10831  10.214   7.883   9.230
 6768W        W10832   2.632   8.789   2.118
 6769W        W10833   8.966   6.680   0.066
 6770W        W10834   1.613   9.028   1.019
 6771W        W10835   7.988   0.429   0.035
 6772W        W10836   2.323   4.719   1.209
 6773W        W10837   2.602   9.852   1.446
 6774W        W10838   6.704   5.393  10.305
 6775W        W10839   7.477   2.755   8.483
 6776W        W10840   8.842   1.775   0.784
 6777W        W10841   1.233   5.446  10.890
 6778W        W10842   5.320   6.461  11.445
 6779W        W10843   2.354   8.676   1.110
 6780W        W10844   5.482   0.422   9.902
 6781W        W10845   8.876   2.574   2.415
 6782W        W10846   6.679   9.006   8.984
 6783W        W10847   5.384   7.119   9.630
 6784W        W10848   0.309   8.262   8.608
 6785W        W10849   8.562   4.269   0.734
 6786W        W10850   8.929   3.087  10.314
 6787W        W10851   5.174   0.879   3.154
 6788W        W10852   7.634   1.263   0.118
 6789W        W10853   7.643   9.160   0.883
 6790W        W10854   5.563   4.340  10.739
 6791W        W10855   9.807   2.893   0.918
 6792W        W10856   1.761  10.235   0.742
 6793W        W10857   2.389   4.675   1.718
 6794W        W10858   6.337   8.347   0.362
 6795W        W10859   0.255   4.558   1.498
 6796W        W10860   5.210   2.907   1.614
 6797W        W10861   6.780   9.538   9.026
 6798W        W10862   3.446   8.539   3.093
 6799W        W10863   1.434   8.613  10.383
 6800W        W10864   8.913   6.645   2.006
 6801W        W10865   1.731   8.572   3.121
 6802W        W10866   5.153   4.124   3.303
 6803W        W10867   8.185   9.552   3.513
 6804W        W10868   6.170   9.852  10.074
 6805W        W10869   7.773   5.946  10.049
 6806W        W10870   4.163   0.872   0.398
 6807W        W10871   9.853   7.450   9.321
 6808W        W10872   4.290   0.411   0.225
 6809W        W10873   7.132   6.068   8.559
 6810W        W10874   1.257   9.853  10.780
 6811W        W10875   9.373   0.577  11.937
 6812W        W10876  10.259   5.789   0.224
 6813W        W10877   1.665   0.796   3.306
 6814W        W10878   2.454   4.608   0.714
 6815W        W10879   5.556   7.939   9.877
 6816W        W10880   5.195   5.644  10.410
 6817W        W10881   4.719   9.117   9.728
 6818W        W10882   8.328   3.267  11.272
 6819W        W10883  10.050  10.445   9.453
 6820W        W10884   6.880   8.968   1.670
 6821W        W10885   3.245   0.199  10.814
 6822W        W10886   4.468   8.095  10.673
 6823W        W10887   6.810   4.283  11.706
 6824W        W10888   9.851   4.787   2.367
 6825W        W10889   5.801   6.139   0.109
 6826W        W10890   5.113   1.393   1.820
 6827W        W10891   3.564   4.654  10.407
 6828W        W10892   5.704   8.428  11.361
 6829W        W10893   4.581   0.995   2.931
 6830W        W10894   0.529   3.300   2.848
 6831W        W10895   0.149   8.914   9.389
 6832W        W10896   4.972   1.692   0.042
 6833W        W10897  10.365   3.266   1.661
 6834W        W10898   8.992   0.954   8.934
 6835W        W10899   6.431   0.331  10.400
 6836W        W10900   3.323   9.598   0.107
 6837W        W10901   9.944   4.188   2.469
 6838W        W10902  10.324   2.244   2.481
 6839W        W10903   1.215   3.085   1.610
 6840W        W10904   2.984   1.738  11.497
 6841W        W10905   5.424   5.682   2.367
 6842W        W10906   8.891   3.681   9.468
 6843W        W10907   0.601   3.224   3.453
 6844W        W10908   3.961   8.927  11.966
 6845W        W10909   9.465   7.036   3.463
 6846W        W10910   6.629   5.417   1.954
 6847W        W10911   7.589   0.580   1.357
 6848W        W10912   5.600   7.003   2.306
 6849W        W10913   7.130   1.307   0.198
 6850W        W10914   5.433  10.391   0.293
 6851W        W10915   8.514  10.229   8.684
 6852W        W10916   8.881   7.179   0.198
 6853W        W10917   4.067   7.140  10.886
 6854W        W10918   8.841   5.102   9.837
 6855W        W10919   3.746   5.072   9.098
 6856W        W10920   0.372   2.242  11.927
 6857W        W10921   7.277   8.841   8.723
 6858W        W10922   0.068   9.445   3.536
 6859W        W10923   0.276   1.729  11.704
 6860W        W10924   1.770   2.115  11.614
 6861W        W10925   7.832   2.342   8.455
 6862W        W10926   4.247   3.978   3.130
 6863W        W10927   3.279  10.279  11.585
 6864W        W10928   7.575   1.661  10.263
 6865W        W10929   9.266   5.162   3.305
 6866W        W10930   9.579  10.009   0.753
 6867W        W10931   0.587   3.303  11.292
 6868W        W10932   1.736   2.592   9.116
 6869W        W10933   4.929   6.054   3.260
 6870W        W10934   9.874   6.808   2.232
 6871W        W10935   2.464   5.560   2.211
 6872W        W10936   5.008   1.722   3.151
 6873W        W10937   6.751   2.584   0.834
 6874W        W10938   5.457   2.214   9.597
 6875W        W10939   6.408   1.191   9.774
 6876W        W10940   7.954   2.279  11.873
 6877W        W10941   1.312   2.811   8.956
 6878W        W10942   1.271   7.358   0.326
 6879W        W10943   4.934   1.874   0.887
 6880W        W10944   0.836   4.268  10.832
 6881W        W10945   7.373   9.133  11.174
 6882W        W10946  10.028   5.197   9.297
 6883W        W10947   4.323   3.115  11.860
 6884W        W10948   3.392   1.295   0.254
 6885W        W10949   9.951   5.387   9.922
 6886W        W10950   7.386   4.111   3.873
 6887W        W10951   6.253   4.047   2.175
 6888W        W10952   2.115   1.917   1.965
 6889W        W10953   0.609   7.548   2.328
 6890W        W10954   6.411   3.311   9.001
 6891W        W10955   9.733   6.838   1.740
 6892W        W10956   5.682   8.870   3.006
 6893W        W10957  10.405   1.381   2.445
 6894W        W10958   0.332   4.212   2.035
 6895W        W10959   3.961   1.771  11.732
 6896W        W10960   0.342   1.761  10.313
 6897W        W10961   6.627   3.731   2.996
 6898W        W10962   8.607   5.543   0.818
 6899W        W10963   7.995   4.776   3.488
 6900W        W10964   7.149   9.427  11.998
 6901W        W10965   1.775   6.152  11.223
 6902W        W10966   2.612   7.944  11.988
 6903W        W10967   8.494   0.910  11.576
 6904W        W10968  10.092   5.496  10.492
 6905W        W10969   8.482   5.703   3.140
 6906W        W10970   3.699   0.248   9.557
 6907W        W10971   6.027   9.460   2.009
 6908W        W10972   0.871   0.664   8.475
 6909W        W10973   0.516  10.297   8.769
 6910W        W10974   8.990   9.254   8.700
 6911W        W10975   6.160   1.368  11.746
 6912W        W10976   0.045   8.501  10.407
 6913W        W10977   6.515   9.816  10.955
 6914W        W10978   2.659   2.572   8.988
 6915W        W10979   7.899   2.957  11.267
 6916W        W10980   0.880   3.538   9.215
 6917W        W10981   6.641   4.484  10.492
 6918W        W10982   2.596   5.142  11.008
 6919W        W10983   8.617   5.562  11.674
 6920W        W10984   4.419   1.320   0.239
 6921W        W10985   5.208   6.222   0.802
 6922W        W10986   6.493  10.052   8.256
 6923W        W10987   4.237   5.692   2.756
 6924W        W10988   9.956   7.987  10.110
 6925W        W10989   2.412   7.743   0.731
 6926W        W10990   9.003   3.635   1.188
 6927W        W10991   7.344   5.401  11.813
 6928W        W10992   8.320   3.661  11.835
 6929W        W10993   6.446   7.104   9.569
 6930W        W10994   9.952   7.079   0.093
 6931W        W10995   3.800   5.529   2.965
 6932W        W10996  10.480   0.907  11.902
 6933W        W10997   7.599  10.268   2.995
 6934W        W10998   5.102  10.445   3.357
 6935W        W10999   9.520   4.251   1.240
 6936W        W11000   7.543   4.667   3.197
 6937W        W11001   3.210  10.337   2.437
 6938W        W11002   6.908   3.125   3.708
 6939W        W11003   9.369   8.346  10.978
 6940W        W11004   8.010   7.122   3.265
 6941W        W11005   7.569   7.869   9.459
 6942W        W11006   8.433   3.340   2.853
 6943W        W11007   4.624   3.561   2.094
 6944W        W11008   6.465   4.956  10.442
 6945W        W11009   7.564   1.438   1.525
 6946W        W11010   6.040   4.584   0.564
 6947W        W11011   3.834   7.284   2.843
 6948W        W11012   8.569   0.658   1.695
 6949W        W11013   8.510   1.410  11.392
 6950W        W11014   1.244   4.706   1.361
 6951W        W11015   7.465   7.753  11.907
 6952W        W11016  10.341   2.754   9.149
 6953W        W11017   7.929   9.911   2.810
 6954W        W11018   4.490   6.621   2.198
 6955W        W11019   0.821   4.718   0.861
 6956W        W11020   7.069   4.730  11.543
 6957W        W11021   5.208   2.225  10.591
 6958W        W11022   1.692   4.712   0.451
 6959W        W11023   8.539  10.223   1.270
 6960W        W11024   0.116   8.021   0.993
 6961W        W11025   4.655   7.402  10.299
 6962W        W11026   8.419   9.003  11.495
 6963W        W11027   7.164   9.205   9.060
 6964W        W11028   6.286   6.083  10.000
 6965W        W11029   9.889  10.448   8.940
 6966W        W11030   5.947   1.906   0.610
 6967W        W11031   2.767   2.735   0.478
 6968W        W11032   0.280   5.128   2.165
 6969W        W11033   4.049   9.059   1.908
 6970W        W11034   1.883   5.099   1.662
 6971W        W11035   9.023   4.091   0.928
 6972W        W11036   0.406   5.606   0.517
 6973W        W11037   6.694   4.283   3.298
 6974W        W11038  10.434   7.895   3.511
 6975W        W11039   2.007   1.710  10.099
 6976W        W11040   7.574   0.703   3.140
 6977W        W11041   7.533   2.137   3.710
 6978W        W11042   1.214   8.636  11.691
 6979W        W11043   2.792   5.305  10.011
 6980W        W11044   2.388   2.733   3.563
 6981W        W11045  10.318   2.176   1.446
 6982W        W11046   5.986   1.736   8.643
 6983W        W11047   9.370   8.599   1.125
 6984W        W11048   0.761   3.721   0.793
 6985W        W11049   4.180   7.443   1.558
 6986W        W11050   6.323   4.672   0.141
 6987W        W11051   3.599   1.969   9.554
 6988W        W11052   3.153   6.393   3.985
 6989W        W11053   8.566   4.847   2.761
 6990W        W11054   9.387   0.136   9.001
 6991W        W11055   3.639   4.162   1.621
 6992W        W11056   1.604   4.212   0.780
 6993W        W11057   3.374   7.442   9.263
 6994W        W11058   9.863   9.074   9.440
 6995W        W11059   5.640   4.533   0.885
 6996W        W11060   2.235   4.695  10.350
 6997W        W11061  10.036   2.122  10.657
 6998W        W11062   9.257   9.855  11.794
 6999W        W11063   5.107  10.040   0.500
 7000W        W11064   1.185   0.309   2.551
 7001W        W11065   7.476   0.979  11.474
 7002W        W11066   9.969   2.286  11.176
 7003W        W11067   3.383   1.812  10.365
 7004W        W11068   7.988   4.799   9.973
 7005W        W11069   9.331   7.578   2.919
 7006W        W11070   6.418   0.352   2.923
 7007W        W11071   1.719   4.880   9.433
 7008W        W11072   3.705   1.508   9.389
 7009W        W11073   9.911   8.053   0.441
 7010W        W11074   8.838   1.000   0.391
 7011W        W11075   5.526   7.218  10.508
 7012W        W11076   2.397   9.439   0.687
 7013W        W11077   3.840   4.232  10.413
 7014W        W11078   4.790   4.261   2.279
 7015W        W11079   4.606   2.420   0.153
 7016W        W11080   8.423   5.562   0.139
 7017W        W11081   3.656  10.056  11.300
 7018W        W11082   9.066   4.787  11.344
 7019W        W11083   9.640   7.086   9.917
 7020W        W11084   4.588   8.598   8.896
 7021W        W11085   4.798   4.041  10.332
 7022W        W11086   1.964   0.784   9.017
 7023W        W11087   8.421  10.027   2.676
 7024W        W11088  10.067   5.644   3.652
 7025W        W11089   5.204   2.209   3.192
 7026W        W11090   6.897   5.537   0.031
 7027W        W11091   2.240   0.033   9.055
 7028W        W11092   8.142   5.151   2.587
 7029W        W11093   8.302   0.586  10.393
 7030W        W11094  10.038   5.259   8.787
 7031W        W11095   9.237   9.012  10.351
 7032W        W11096  10.046   4.596   2.803
 7033W        W11097   9.009   4.674  10.147
 7034W        W11098   5.762   4.808   1.287
 7035W        W11099   7.219   6.348   3.304
 7036W        W11100   1.684   3.595   9.801
 7037W        W11101   7.579   4.867   2.212
 7038W        W11102   3.752   1.822   8.990
 7039W        W11103   8.602   5.369   2.680
 7040W        W11104   4.072   9.951   3.147
 7041W        W11105   4.236   2.911   1.494
 7042W        W11106   7.132   4.505   3.474
 7043W        W11107   6.931   6.941  11.494
 7044W        W11108   9.790   4.502   0.248
 7045W        W11109   6.655   4.152   1.830
 7046W        W11110   2.646   6.819  10.859
 7047W        W11111   6.887   9.587   0.377
 7048W        W11112   1.843   3.428   8.522
 7049W        W11113   0.086   3.971   8.466
 7050W        W11114   5.451   9.481   9.003
 7051W        W11115   8.944   7.594   9.762
 7052W        W11116   1.306   3.831   0.075
 7053W        W11117   1.047   4.694   8.476
 7054W        W11118   4.552   3.594   9.079
 7055W        W11119   5.518   1.589   8.513
 7056W        W11120   0.873   7.921  10.112
 7057W        W11121  10.439  10.487  11.830
 7058W        W11122   1.437   2.268   1.390
 7059W        W11123   7.355   9.448   2.285
 7060W        W11124   5.539   6.714  11.930
 7061W        W11125   8.845   2.404   0.069
 7062W        W11126   6.408   3.027   8.515
 7063W        W11127   8.927   0.669  11.728
 7064W        W11128   0.298   4.488  11.482
 7065W        W11129   4.746   6.673   8.586
 7066W        W11130   6.734   6.732   9.348
 7067W        W11131   0.588   1.171   0.299
 7068W        W11132   9.260   2.415  11.794
 7069W        W11133   5.301   1.851  11.667
 7070W        W11134   1.178   1.795  11.866
 7071W        W11135   0.083   4.291   9.653
 7072W        W11136   1.019   3.286   2.408
 7073W        W11137   2.697   7.914   1.463
 7074W        W11138   3.273   6.042   9.057
 7075W        W11139   9.773   2.239   2.157
 7076W        W11140   4.258   2.207   1.481
 7077W        W11141   6.509   6.288   1.716
 7078W        W11142   3.083   6.562   1.997
 7079W        W11143   5.444   6.478   2.666
 7080W        W11144   0.834   9.844   3.078
 7081W        W11145   2.804   0.195   3.550
 7082W        W11146   7.880   2.047   0.949
 7083W        W11147   0.516   6.708   0.990
 7084W        W11148   2.209   1.271  10.499
 7085W        W11149   8.433   0.521   1.111
 7086W        W11150   7.897   1.849   1.719
 7087W        W11151   6.463   5.886   2.079
 7088W        W11152   6.672  10.378   2.879
 7089W        W11153   6.995   6.396   2.759
 7090W        W11154   4.288   2.145  11.878
 7091W        W11155   6.482   9.325   1.793
 7092W        W11156   6.100   2.718   2.732
 7093W        W11157   0.701   8.574  11.590
 7094W        W11158   2.285   7.220   1.451
 7095W        W11159   4.160  10.024  11.245
 7096W        W11160  10.272   6.477   2.275
 7097W        W11161  10.311   1.794  11.550
 7098W        W11162   9.305   4.239  10.060
 7099W        W11163   1.316   6.935  11.055
 7100W        W11164   3.738   7.476  10.536
 7101W        W11165   1.314   1.570  11.428
 7102W        W11166   9.575   0.025  11.209
 7103W        W11167   1.147   1.703  10.964
 7104W        W11168   0.375   3.282   1.775
 7105W        W11169   6.523   4.655   0.815
 7106W        W11170   0.029   9.112   0.167
 7107W        W11171   1.824   3.149   1.191
 7108W        W11172   9.874   7.483  10.842
 7109W        W11173   1.442   9.810   0.438
 7110W        W11174   1.612   4.310   1.911
 7111W        W11175   4.671   1.018   1.173
 7112W        W11176   6.887   6.658   1.304
 7113W        W11177   2.830   6.994  10.407
 7114W        W11178   3.505   7.026   9.582
 7115W        W11179   5.112   0.567   1.485
 7116W        W11180   1.991   4.278   0.438
 7117W        W11181   2.757   9.345   9.363
 7118W        W11182   9.286   8.853   3.421
 7119W        W11183   8.363   7.690   8.991
 7120W        W11184   4.001   6.990   9.625
 7121W        W11185   4.325   6.276   4.131
 7122W        W11186   0.817   0.393   1.862
 7123W        W11187   9.459   2.454   0.852
 7124W        W11188   9.857   5.043   1.536
 7125W        W11189   2.545   7.833   9.993
 7126W        W11190  10.197   0.530   3.070
 7127W        W11191   2.839   0.227   1.740
 7128W        W11192   3.349   4.763  11.036
 7129W        W11193   3.567   6.247   8.668
 7130W        W11194   9.548   2.518  11.021
 7131W        W11195   9.583   8.612   3.005
 7132W        W11196   5.544   9.342   9.503
 7133W        W11197   8.466   8.586   9.969
 7134W        W11198   7.866   5.422   8.844
 7135W        W11199   6.997   2.689   2.240
 7136W        W11200   2.638   1.876   2.673
 7137W        W11201   9.778   7.544  11.429
 7138W        W11202   6.938   3.509   9.217
 7139W        W11203   2.289   3.474  10.673
 7140W        W11204   9.182   9.138   0.443
 7141W        W11205   6.571  10.490   8.913
 7142W        W11206   9.040   2.037  10.880
 7143W        W11207   0.928   7.125  11.401
 7144W        W11208   1.428   5.634   3.270
 7145W        W11209   0.333   2.917   9.321
 7146W        W11210  10.318   5.994  10.472
 7147W        W11211   9.155   5.166   9.438
 7148W        W11212   0.523   3.255   2.324
 7149W        W11213   7.465   2.213  11.715
 7150W        W11214   0.147   1.325   3.468
 7151W        W11215  10.261   4.239  10.934
 7152W        W11216  10.381   2.933   9.626
 7153W        W11217   5.464   7.858   0.279
 7154W        W11218   4.767   7.344   1.286
 7155W        W11219   4.624   2.844   0.441
 7156W        W11220   2.378   7.419  11.217
 7157W        W11221   9.305  10.045   2.808
 7158W        W11222   6.580   5.221   3.630
 7159W        W11223   3.575   0.247   3.524
 7160W        W11224   6.236   5.696  10.368
 7161W        W11225   2.592   0.194   0.010
 7162W        W11226   1.452   4.910   1.820
 7163W        W11227   1.876   8.909   9.815
 7164W        W11228  10.254   1.102  10.982
 7165W        W11229   4.299   4.717   0.963
 7166W        W11230   1.806  10.384  11.158
 7167W        W11231   0.393   6.149   0.639
 7168W        W11232   6.784   1.671   0.907
 7169W        W11233   0.908   3.852  11.745
 7170W        W11234   6.104   3.298   8.109
 7171W        W11235   3.592   6.632   0.198
 7172W        W11236   6.993   5.029   9.351
 7173W        W11237   7.359   9.509  11.541
 7174W        W11238   4.636   9.615   1.043
 7175W        W11239   2.607   4.714  10.733
 7176W        W11240   5.437   7.054   3.965
 7177W        W11241   9.706   7.592   2.175
 7178W        W11242   9.712   3.007  11.343
 7179W        W11243   6.233   5.274   1.280
 7180W        W11244   0.322   3.154  10.323
 7181W        W11245   0.489   8.566   9.490
 7182W        W11246   3.806   8.439   2.361
 7183W        W11247   9.623   8.747   2.152
 7184W        W11248   8.350   2.286  11.493
 7185W        W11249   0.178   2.136   9.984
 7186W        W11250   4.981   0.401   9.152
 7187W        W11251   5.103   7.701   0.640
 7188W        W11252  10.035  10.279   0.808
 7189W        W11253   2.308   6.461  10.721
 7190W        W11254   4.986   5.335   1.646
 7191W        W11255   9.509   1.415   1.284
 7192W        W11256   1.891   4.432  11.479
 7193W        W11257   7.704   6.653  11.367
 7194W        W11258   6.668   5.267   3.135
 7195W        W11259   1.262   5.917   1.962
 7196W        W11260   7.081   4.027   3.056
 7197W        W11261   1.821   6.167   0.246
 7198W        W11262   7.575   7.291   2.358
 7199W        W11263   5.520   9.429  10.457
 7200W        W11264   2.693   6.404   2.307
 7201W        W11265   4.069   9.047   0.481
 7202W        W11266   6.103   2.380   0.748
 7203W        W11267   0.799   8.085   2.264
 7204W        W11268   3.173   6.550   8.829
 7205W        W11269   1.698   8.833   8.925
 7206W        W11270   1.330   5.205  10.426
 7207W        W11271   5.588   2.818   2.817
 7208W        W11272   3.220   1.856   0.501
 7209W        W11273   1.614   6.970   1.909
 7210W        W11274   6.212   3.041   9.374
 7211W        W11275   4.847   8.006   3.599
 7212W        W11276   7.513   9.552   9.245
 7213W        W11277   6.660   1.721   2.355
 7214W        W11278   2.795   2.849   9.889
 7215W        W11279  10.264   2.817  10.570
 7216W        W11280   1.791   6.920  11.255
 7217W        W11281   5.940   8.104  11.001
 7218W        W11282   4.155   5.744   2.135
 7219W        W11283   9.963   7.571   1.304
 7220W        W11284   0.814   9.419  10.044
 7221W        W11285   4.188   5.591  11.257
 7222W        W11286   1.341   8.158  11.559
 7223W        W11287   8.598   3.756   1.463
 7224W        W11288   6.886   0.912   0.404
 7225W        W11289   4.733   5.398  10.418
 7226W        W11290   9.826   8.063   2.326
 7227W        W11291   7.101  10.479   8.699
 7228W        W11292   8.116   8.175  11.324
 7229W        W11293   3.033   2.356  10.025
 7230W        W11294   7.580   6.864  10.900
 7231W        W11295   4.096   4.271   9.974
 7232W        W11296  10.292   6.228   0.487
 7233W        W11297   6.386   9.690   2.566
 7234W        W11298   5.046   9.574  11.747
 7235W        W11299   8.633   4.432   2.427
 7236W        W11300   1.620   7.252   2.736
 7237W        W11301   7.518   7.026   3.292
 7238W        W11302   9.405   5.191   1.267
 7239W        W11303   8.337   9.195   2.378
 7240W        W11304   0.319   8.175  11.588
 7241W        W11305   9.897   1.705   3.443
 7242W        W11306   8.429   8.315   2.276
 7243W        W11307   6.922   4.642   8.582
 7244W        W11308   0.603   7.195   1.039
 7245W        W11309   0.773  10.442  10.967
 7246W        W11310   4.187   9.332   2.321
 7247W        W11311   6.518   2.134   0.907
 7248W        W11312   0.795   6.987  10.277
 7249W        W11313   2.823   5.888   3.930
 7250W        W11314   4.077   6.634  11.427
 7251W        W11315   5.940   6.897  10.529
 7252W        W11316   8.367   8.573   9.473
 7253W        W11317   9.434   0.653   9.028
 7254W        W11318   8.103   5.177   0.330
 7255W        W11319   4.785   4.188   0.277
 7256W        W11320   9.864   0.870  10.293
 7257W        W11321   2.907   6.663   9.488
 7258W        W11322   6.852   5.919   0.362
 7259W        W11323  10.415   6.600   1.741
 7260W        W11324   7.390   4.469   9.813
 7261W        W11325   7.942   3.157   2.998
 7262W        W11326   1.384   4.695   0.029
 7263W        W11327   6.272   0.410   1.070
 7264W        W11328   3.125   0.857  10.174
 7265W        W11329   9.508   8.065   1.624
 7266W        W11330   2.112   4.994   0.611
 7267W        W11331   4.200   9.392  11.883
 7268W        W11332   2.803   6.969   0.936
 7269W        W11333   2.745   3.833  11.436
 7270W        W11334   1.703  10.332   9.723
 7271W        W11335   0.862   5.550   8.601
 7272W        W11336   5.965   6.880   3.317
 7273W        W11337   7.409   7.567   0.399
 7274W        W11338   5.210   0.541   2.282
 7275W        W11339   3.279   9.690  11.139
 7276W        W11340   9.257   7.070  10.324
 7277W        W11341   4.973   5.573   0.281
 7278W        W11342   1.772   1.401  11.254
 7279W        W11343   0.556   5.185   8.900
 7280W        W11344   5.737   9.415   0.923
 7281W        W11345   4.935   6.984  11.445
 7282W        W11346   0.890   9.896   1.687
 7283W        W11347   1.689   9.793   8.997
 7284W        W11348   8.978   6.615   9.578
 7285W        W11349   9.909   2.674  11.963
 7286W        W11350   8.105   8.617   8.550
 7287W        W11351   1.966   5.669   2.300
 7288W        W11352   7.884   7.478   9.238
 7289W        W11353   5.528   5.742   9.037
 7290W        W11354   0.303   3.531   9.984
 7291W        W11355  10.362   6.606  11.841
 7292W        W11356   3.337   3.066  11.994
 7293W        W11357   4.583   7.672   9.883
 7294W        W11358   8.417   2.111  11.977
 7295W        W11359   6.537   7.524  10.660
 7296W        W11360   2.824   2.363   2.900
 7297W        W11361   7.409   2.095   9.732
 7298W        W11362   3.637   5.003   9.602
 7299W        W11363   9.367   7.903   2.495
 7300W        W11364   5.941   8.658   0.333
 7301W        W11365   3.597   3.822   9.410
 7302W        W11366   0.262   6.530   2.127
 7303W        W11367   2.359   5.116   9.320
 7304W        W11368   9.797   8.064   1.213
 7305W        W11369   9.333  10.122   8.885
 7306W        W11370   7.373   1.766  11.967
 7307W        W11371   1.479   3.155   2.973
 7308W        W11372   0.783  10.304  10.091
 7309W        W11373   0.879   7.679   3.600
 7310W        W11374   1.228   1.306   9.088
 7311W        W11375   8.088   0.286   9.066
 7312W        W11376   5.088   0.763   0.996
 7313ION    NA+11377   6.456   4.846   8.700
 7314ION    NA+11378   1.829  10.052   2.194
 7315ION    NA+11379   7.761   7.048  11.716
 7316ION    NA+11380   9.062   5.983   1.325
 7317ION    NA+11381   5.484   3.586   9.495
 7318ION    NA+11382   7.899   4.758   0.134
 7319ION    NA+11383   5.518   4.058   0.960
 7320ION    NA+11384   6.206   1.441  10.736
 7321ION    NA+11385   2.603   8.345   9.863
 7322ION    NA+11386   2.743   4.604  10.259
 7323ION    NA+11387   1.521   2.373  10.635
 7324ION    NA+11388  10.105   4.989  11.454
 7325ION    NA+11389   2.673   0.354  10.294
 7326ION    NA+11390   0.620   9.100   9.416
 7327ION    NA+11391   5.158   4.602   2.632
 7328ION    NA+11392   4.198   8.548   0.230
 7329ION    NA+11393   7.471   4.366   2.318
 7330ION    NA+11394   1.127   7.639   2.309
 7331ION    NA+11395   8.811   0.632   9.566
 7332ION    NA+11396   3.720   2.631  10.083
 7333ION    NA+11397   7.342   1.314   1.964
 7334ION    NA+11398   4.996   3.257   0.664
 7335ION    NA+11399   4.216   5.410   0.513
 7336ION    NA+11400   0.619   8.409  11.106
 7337ION    NA+11401   0.664   2.732   1.086
 7338ION    NA+11402   8.297   1.531   1.762
 7339ION    NA+11403   0.816   2.728   9.789
 7340ION    NA+11404   1.518   2.724   0.021
 7341ION    NA+11405   7.082   9.024   9.887
 7342ION    NA+11406   8.474   6.258   3.124
 7343ION    NA+11407   2.932   9.501   2.705
 7344ION    NA+11408   8.902   9.118   2.640
 7345ION    NA+11409   2.407   2.124  11.026
 7346ION    NA+11410   0.921   5.160  11.976
 7347ION    NA+11411   9.661   2.105  11.851
 7348ION    NA+11412   7.057   7.186   0.359
 7349ION    NA+11413   2.296   1.259   9.970
 7350ION    NA+11414   4.986   4.087  11.776
 7351ION    NA+11415   6.558   7.762   9.032
 7352ION    NA+11416   8.627   8.238  11.401
 7353ION    NA+11417   2.703   6.480   0.330
 7354ION    NA+11418   1.671   5.184   2.685
 7355ION    NA+11419   5.148   8.238   0.955
 7356ION    NA+11420   5.626   6.080  11.220
 7357ION    NA+11421   3.024   7.161   9.510
 7358ION    NA+11422   6.722   9.164   3.239
 7359ION    NA+11423   1.708   7.115  10.780
 7360ION    NA+11424  10.461   1.622   9.160
 7361ION    NA+11425   1.406   8.296   0.567
 7362ION    NA+11426   7.897   8.755   9.374
 7363ION    NA+11427   8.379   9.066  10.900
 7364ION    NA+11428   4.402   1.506  11.419
 7365ION    NA+11429   3.124   2.884  11.290
 7366ION    NA+11430   3.811   3.875   0.666
 7367ION    NA+11431   7.673   7.856   1.456
 7368ION    NA+11432   9.026   5.113   2.793
 7369ION    NA+11433   6.791   1.695   3.161
 7370ION    NA+11434   3.452   8.393  11.447
 7371ION    NA+11435   9.857   9.518   1.261
 7372ION    NA+11436   7.022   3.124   2.542
 7373ION    NA+11437   6.194   2.554   1.237
 7374ION    NA+11438   3.999   2.267   0.931
 7375ION    NA+11439   6.009   9.653   9.615
 7376ION    NA+11440   9.966   9.825  11.392
 7377ION    NA+11441   9.030  10.315  10.409
 7378ION    NA+11442   1.184   9.119   0.760
 7379ION    NA+11443   8.388   7.047   2.900
 7380ION    NA+11444   3.720   1.664   3.023
 7381ION    NA+11445   6.208   6.936   8.589
 7382ION    NA+11446   6.576   0.710   0.776
 7383ION    NA+11447   8.463   6.859   0.226
 7384ION    NA+11448   7.074   6.441  11.692
 7385ION    NA+11449   1.430   4.496   8.892
 7386ION    NA+11450   1.653   0.352  10.344
 7387ION    NA+11451   2.982   3.947   0.316
 7388ION    NA+11452   2.083   0.186  11.635
 7389ION    NA+11453   3.866  10.124   0.458
 7390ION    CL-11454   5.828   5.588   2.671
 7391ION    CL-11455   8.185   9.865   1.376
 7392ION    CL-11456   6.205   0.540   0.589
 7393ION    CL-11457   6.570   1.702  10.770
 7394ION    CL-11458   7.449   7.254   9.397
 7395ION    CL-11459  10.166   8.337   0.957
 7396ION    CL-11460   4.084   5.267   9.431
 7397ION    CL-11461   1.569   7.679   2.366
 7398ION    CL-11462   1.919   5.502  10.028
 7399ION    CL-11463   9.417   7.554   3.459
 7400ION    CL-11464   5.541   2.620  11.362
 7401ION    CL-11465   2.953   9.922   8.422
 7402ION    CL-11466   4.110   6.386  10.078
 7403ION    CL-11467   2.429   4.112   3.070
 7404ION    CL-11468   1.187   8.697   0.590
 7405ION    CL-11469  10.443   5.180   9.579
 7406ION    CL-11470   9.154   9.478   2.552
 7407ION    CL-11471   2.109   8.432   3.408
 7408ION    CL-11472  10.229   7.897   0.061
 7409ION    CL-11473   0.289   1.601   0.219
 7410ION    CL-11474   7.826   7.425   1.469
 7411ION    CL-11475   7.714   8.350   9.322
 7412ION    CL-11476   2.907   2.918  11.679
 7413ION    CL-11477   4.243   5.259   0.091
 7414ION    CL-11478   0.623   8.820   9.069
 7415ION    CL-11479   1.994   6.478   1.608
 7416ION    CL-11480   7.899   6.397   9.090
 7417ION    CL-11481   7.357   6.790  11.780
 7418ION    CL-11482   5.580   7.399  11.361
 7419ION    CL-11483   2.732   2.383   3.424
 7420ION    CL-11484   0.978   4.781  11.747
 7421ION    CL-11485   0.289   3.937   0.869
 7422ION    CL-11486   8.628   6.658   2.965
 7423ION    CL-11487   1.058   8.485  11.210
 7424ION    CL-11488  10.210  10.002  11.735
 7425ION    CL-11489   7.254   6.283   1.334
 7426ION    CL-11490   9.705   6.178   3.665
 7427ION    CL-11491   3.904   1.917   1.191
 7428ION    CL-11492   2.939   3.262   2.939
 7429ION    CL-11493   6.241   4.736   9.076
 7430ION    CL-11494   4.482   1.669  11.827
 7431ION    CL-11495   1.910   0.589  11.732
 7432ION    CL-11496   7.866   2.152  10.993
 7433ION    CL-11497   9.829   8.041   9.559
 7434ION    CL-11498   9.718   9.619  11.069
 7435ION    CL-11499   6.513   9.278   2.851
 7436ION    CL-11500  10.069   2.213  11.711
 7437ION    CL-11501   3.414   3.870   0.440
 7438ION    CL-11502   2.138   3.745   2.128
 7439ION    CL-11503   8.859   7.927  11.624
 7440ION    CL-11504   3.704   1.450   2.626
 7441ION    CL-11505  10.381   3.759  10.825
 7442ION    CL-11506   7.355   8.153   1.318
 7443ION    CL-11507   6.766   1.260   9.422
 7444ION    CL-11508   4.146   4.800   1.780
 7445ION    CL-11509   9.323   5.926   1.680
 7446ION    CL-11510   0.236   8.160  11.090
 7447ION    CL-11511   6.316   6.625   1.285
 7448ION    CL-11512   8.648   0.932   9.852
 7449ION    CL-11513   8.802   3.092  11.482
 7450ION    CL-11514   9.367   0.799  11.429
 7451ION    CL-11515   4.785   8.420   9.350
 7452ION    CL-11516   0.032   0.341   0.199
 7453ION    CL-11517   5.089   4.488  11.974
 7454ION    CL-11518   3.809  10.021   9.078
 7455ION    CL-11519   1.301   4.267   2.351
 7456ION    CL-11520   8.153   7.069  11.970
 7457ION    CL-11521   9.057   1.769   3.365
 7458ION    CL-11522   3.265   7.594  10.749
 7459ION    CL-11523   9.588   6.690  10.265
 7460ION    CL-11524   4.463   8.898   0.150
 7461ION    CL-11525   7.698   5.925   2.155
 7462ION    CL-11526   1.493   4.203  10.529
 7463ION    CL-11527   0.714   6.559   2.420
 7464ION    CL-11528   8.372   5.552   8.915
 7465ION    CL-11529  10.126   4.029   8.664
 7466ION    CL-11530   5.072   3.721  11.515
  10.50000  10.50000  12.00000
